<event>
 4    0  0.1290586E-001  0.3285814E+03  0.7546771E-02  0.1071766E+00
         21   -1    0    0  502  501  0.00000000000E+00  0.00000000000E+00  0.11998255887E+03  0.11998255887E+03  0.00000000000E+00 0.  1.
         21   -1    0    0  503  502 -0.00000000000E+00 -0.00000000000E+00 -0.88397162586E+03  0.88397162586E+03  0.00000000000E+00 0.  1.
         25    1    1    2    0    0 -0.17527148278E+02 -0.30337032542E+03 -0.27615560522E+03  0.42921751312E+03  0.12500000000E+03 0.  0.
         21    1    1    2  503  501  0.17527148278E+02  0.30337032542E+03 -0.48783346177E+03  0.57473667161E+03  0.00000000000E+00 0.  1.
<mgrwt>
<rscale>  3 0.32858143E+03</rscale>
<asrwt>0</asrwt>
<pdfrwt beam="1">  1       21 0.18458855E-01 0.32858143E+03</pdfrwt>
<pdfrwt beam="2">  1       21 0.13599564E+00 0.32858143E+03</pdfrwt>
<totfact> 0.95534425E+03</totfact>
</mgrwt>
</event>
<event>
 4    0  0.1152744E-001  0.2466646E+03  0.7546771E-02  0.1115431E+00
         21   -1    0    0  503  501  0.00000000000E+00  0.00000000000E+00  0.12324081686E+04  0.12324081686E+04  0.00000000000E+00 0.  1.
         21   -1    0    0  501  502 -0.00000000000E+00 -0.00000000000E+00 -0.45692594502E+02  0.45692594502E+02  0.00000000000E+00 0.  1.
         25    1    1    2    0    0 -0.90912371935E+02  0.19223257638E+03  0.79501591412E+03  0.83240238256E+03  0.12500000000E+03 0.  0.
         21    1    1    2  503  502  0.90912371935E+02 -0.19223257638E+03  0.39169966001E+03  0.44569838057E+03  0.00000000000E+00 0.  1.
<mgrwt>
<rscale>  3 0.24666460E+03</rscale>
<asrwt>0</asrwt>
<pdfrwt beam="1">  1       21 0.18960123E+00 0.24666460E+03</pdfrwt>
<pdfrwt beam="2">  1       21 0.70296308E-02 0.24666460E+03</pdfrwt>
<totfact> 0.22737741E+04</totfact>
</mgrwt>
</event>
<event>
 4    0  0.1046729E-001  0.2948853E+03  0.7546771E-02  0.1087826E+00
         21   -1    0    0  503  501  0.00000000000E+00  0.00000000000E+00  0.13400828786E+04  0.13400828786E+04  0.00000000000E+00 0. -1.
         21   -1    0    0  501  502 -0.00000000000E+00 -0.00000000000E+00 -0.89831767306E+02  0.89831767306E+02  0.00000000000E+00 0.  1.
         25    1    1    2    0    0 -0.25972734149E+03 -0.62241941044E+02  0.22631738022E+03  0.37172154596E+03  0.12500000000E+03 0.  0.
         21    1    1    2  503  502  0.25972734149E+03  0.62241941044E+02  0.10239337310E+04  0.10581930999E+04  0.00000000000E+00 0. -1.
<mgrwt>
<rscale>  3 0.29488532E+03</rscale>
<asrwt>0</asrwt>
<pdfrwt beam="1">  1       21 0.20616658E+00 0.29488532E+03</pdfrwt>
<pdfrwt beam="2">  1       21 0.13820273E-01 0.29488532E+03</pdfrwt>
<totfact> 0.51652052E+03</totfact>
</mgrwt>
</event>
<event>
 4    0  0.1005289E-001  0.2529988E+03  0.7546771E-02  0.1111424E+00
         21   -1    0    0  503  501  0.00000000000E+00  0.00000000000E+00  0.52986384164E+03  0.52986384164E+03  0.00000000000E+00 0.  1.
         21   -1    0    0  501  502 -0.00000000000E+00 -0.00000000000E+00 -0.14767865367E+03  0.14767865367E+03  0.00000000000E+00 0.  1.
         25    1    1    2    0    0  0.18354556737E+03 -0.12122059172E+03  0.38127353973E+03  0.45757832035E+03  0.12500000000E+03 0.  0.
         21    1    1    2  503  502 -0.18354556737E+03  0.12122059172E+03  0.91164824540E+00  0.21996417495E+03  0.00000000000E+00 0.  1.
<mgrwt>
<rscale>  3 0.25299883E+03</rscale>
<asrwt>0</asrwt>
<pdfrwt beam="1">  1       21 0.81517513E-01 0.25299883E+03</pdfrwt>
<pdfrwt beam="2">  1       21 0.22719793E-01 0.25299883E+03</pdfrwt>
<totfact> 0.23183253E+04</totfact>
</mgrwt>
</event>
<event>
 4    0  0.1224852E-001  0.2588093E+03  0.7546771E-02  0.1107861E+00
         21   -1    0    0  503  501  0.00000000000E+00  0.00000000000E+00  0.19810039320E+03  0.19810039320E+03  0.00000000000E+00 0. -1.
         21   -1    0    0  501  502 -0.00000000000E+00 -0.00000000000E+00 -0.69943443040E+03  0.69943443040E+03  0.00000000000E+00 0. -1.
         25    1    1    2    0    0 -0.17771709706E+03  0.14061962264E+03 -0.59766027581E+03  0.65129106408E+03  0.12500000000E+03 0.  0.
         21    1    1    2  503  502  0.17771709706E+03 -0.14061962264E+03  0.96326238618E+02  0.24624375953E+03  0.00000000000E+00 0. -1.
<mgrwt>
<rscale>  3 0.25880928E+03</rscale>
<asrwt>0</asrwt>
<pdfrwt beam="1">  1       21 0.30476983E-01 0.25880928E+03</pdfrwt>
<pdfrwt beam="2">  1       21 0.10760530E+00 0.25880928E+03</pdfrwt>
<totfact> 0.68079822E+03</totfact>
</mgrwt>
</event>
<event>
 4    0  0.1520423E-001  0.2750280E+03  0.7546771E-02  0.1098436E+00
         21   -1    0    0  502  501  0.00000000000E+00  0.00000000000E+00  0.22757776278E+03  0.22757776278E+03  0.00000000000E+00 0.  1.
         21   -1    0    0  503  502 -0.00000000000E+00 -0.00000000000E+00 -0.40290989924E+03  0.40290989924E+03  0.00000000000E+00 0.  1.
         25    1    1    2    0    0  0.72541499532E+02 -0.23399384617E+03 -0.25278879894E+03  0.37355396675E+03  0.12500000000E+03 0.  0.
         21    1    1    2  503  501 -0.72541499532E+02  0.23399384617E+03  0.77456662488E+02  0.25693369527E+03  0.00000000000E+00 0.  1.
<mgrwt>
<rscale>  3 0.27502798E+03</rscale>
<asrwt>0</asrwt>
<pdfrwt beam="1">  1       21 0.35011964E-01 0.27502798E+03</pdfrwt>
<pdfrwt beam="2">  1       21 0.61986138E-01 0.27502798E+03</pdfrwt>
<totfact> 0.18187473E+04</totfact>
</mgrwt>
</event>
<event>
 4    0  0.1020338E-001  0.2475546E+03  0.7546771E-02  0.1114860E+00
         21   -1    0    0  503  501  0.00000000000E+00  0.00000000000E+00  0.73536830337E+03  0.73536830337E+03  0.00000000000E+00 0. -1.
         21   -1    0    0  501  502 -0.00000000000E+00 -0.00000000000E+00 -0.88504428428E+02  0.88504428428E+02  0.00000000000E+00 0. -1.
         25    1    1    2    0    0  0.20947736277E+03  0.42160331075E+02  0.51859600882E+03  0.57465213773E+03  0.12500000000E+03 0.  0.
         21    1    1    2  503  502 -0.20947736277E+03 -0.42160331075E+02  0.12826786613E+03  0.24922059407E+03  0.00000000000E+00 0. -1.
<mgrwt>
<rscale>  3 0.24755456E+03</rscale>
<asrwt>0</asrwt>
<pdfrwt beam="1">  1       21 0.11313358E+00 0.24755456E+03</pdfrwt>
<pdfrwt beam="2">  1       21 0.13616066E-01 0.24755456E+03</pdfrwt>
<totfact> 0.27689701E+04</totfact>
</mgrwt>
</event>
<event>
 4    0  0.1113190E-001  0.2509611E+03  0.7546771E-02  0.1112699E+00
         21   -1    0    0  502  501  0.00000000000E+00  0.00000000000E+00  0.42693319439E+02  0.42693319439E+02  0.00000000000E+00 0.  1.
         21   -1    0    0  503  502 -0.00000000000E+00 -0.00000000000E+00 -0.15474371002E+04  0.15474371002E+04  0.00000000000E+00 0.  1.
         25    1    1    2    0    0  0.10268220519E+03  0.19186676319E+03 -0.11231516491E+04  0.11508479991E+04  0.12500000000E+03 0.  0.
         21    1    1    2  503  501 -0.10268220519E+03 -0.19186676319E+03 -0.38159213167E+03  0.43928242058E+03  0.00000000000E+00 0.  1.
<mgrwt>
<rscale>  3 0.25096113E+03</rscale>
<asrwt>0</asrwt>
<pdfrwt beam="1">  1       21 0.65682030E-02 0.25096113E+03</pdfrwt>
<pdfrwt beam="2">  1       21 0.23806725E+00 0.25096113E+03</pdfrwt>
<totfact> 0.12603619E+04</totfact>
</mgrwt>
</event>
<event>
 4    0  0.1122809E-001  0.2497312E+03  0.7546771E-02  0.1113475E+00
         21   -1    0    0  503  501  0.00000000000E+00  0.00000000000E+00  0.14750833606E+04  0.14750833606E+04  0.00000000000E+00 0. -1.
         21   -1    0    0  501  502 -0.00000000000E+00 -0.00000000000E+00 -0.37903328401E+02  0.37903328401E+02  0.00000000000E+00 0. -1.
         25    1    1    2    0    0  0.18852662525E+03  0.10582230496E+03  0.89797542518E+03  0.93205445811E+03  0.12500000000E+03 0.  0.
         21    1    1    2  503  502 -0.18852662525E+03 -0.10582230496E+03  0.53920460703E+03  0.58093223090E+03  0.00000000000E+00 0. -1.
<mgrwt>
<rscale>  3 0.24973115E+03</rscale>
<asrwt>0</asrwt>
<pdfrwt beam="1">  1       21 0.22693586E+00 0.24973115E+03</pdfrwt>
<pdfrwt beam="2">  1       21 0.58312824E-02 0.24973115E+03</pdfrwt>
<totfact> 0.18107456E+04</totfact>
</mgrwt>
</event>
<event>
 4    0  0.1005289E-001  0.2796225E+03  0.7546771E-02  0.1095895E+00
         21   -1    0    0  502  501  0.00000000000E+00  0.00000000000E+00  0.76586518830E+03  0.76586518830E+03  0.00000000000E+00 0.  1.
         21   -1    0    0  503  502 -0.00000000000E+00 -0.00000000000E+00 -0.13502808577E+03  0.13502808577E+03  0.00000000000E+00 0.  1.
         25    1    1    2    0    0  0.24120394006E+03  0.66214773460E+02  0.58249937229E+03  0.64613795403E+03  0.12500000000E+03 0.  0.
         21    1    1    2  503  501 -0.24120394006E+03 -0.66214773460E+02  0.48337730242E+02  0.25475532004E+03  0.00000000000E+00 0.  1.
<mgrwt>
<rscale>  3 0.27962249E+03</rscale>
<asrwt>0</asrwt>
<pdfrwt beam="1">  1       21 0.11782541E+00 0.27962249E+03</pdfrwt>
<pdfrwt beam="2">  1       21 0.20773552E-01 0.27962249E+03</pdfrwt>
<totfact> 0.11274995E+04</totfact>
</mgrwt>
</event>
<event>
 4    0  0.1005289E-001  0.2647374E+03  0.7546771E-02  0.1104330E+00
         21   -1    0    0  503  501  0.00000000000E+00  0.00000000000E+00  0.20608550354E+04  0.20608550354E+04  0.00000000000E+00 0. -1.
         21   -1    0    0  501  502 -0.00000000000E+00 -0.00000000000E+00 -0.50319196360E+03  0.50319196360E+03  0.00000000000E+00 0. -1.
         25    1    1    2    0    0  0.23076300626E+03 -0.34775297928E+02 -0.46117817945E+03  0.53176235256E+03  0.12500000000E+03 0.  0.
         21    1    1    2  503  502 -0.23076300626E+03  0.34775297928E+02  0.20188412513E+04  0.20322846465E+04  0.00000000000E+00 0. -1.
<mgrwt>
<rscale>  3 0.26473739E+03</rscale>
<asrwt>0</asrwt>
<pdfrwt beam="1">  1       21 0.31705462E+00 0.26473739E+03</pdfrwt>
<pdfrwt beam="2">  1       21 0.77414150E-01 0.26473739E+03</pdfrwt>
<totfact> 0.36090898E+01</totfact>
</mgrwt>
</event>
<event>
 4    0  0.1070329E-001  0.2631347E+03  0.7546771E-02  0.1105274E+00
         21   -1    0    0  502  501  0.00000000000E+00  0.00000000000E+00  0.11375770088E+03  0.11375770088E+03  0.00000000000E+00 0.  1.
         21   -1    0    0  503  502 -0.00000000000E+00 -0.00000000000E+00 -0.89917853749E+03  0.89917853749E+03  0.00000000000E+00 0. -1.
         25    1    1    2    0    0  0.69683123205E+02 -0.22081469113E+03 -0.72839728345E+03  0.77446915239E+03  0.12500000000E+03 0.  0.
         21    1    1    2  503  501 -0.69683123205E+02  0.22081469113E+03 -0.57023553159E+02  0.23846708597E+03  0.00000000000E+00 0.  1.
<mgrwt>
<rscale>  3 0.26313469E+03</rscale>
<asrwt>0</asrwt>
<pdfrwt beam="1">  1       21 0.17501185E-01 0.26313469E+03</pdfrwt>
<pdfrwt beam="2">  1       21 0.13833516E+00 0.26313469E+03</pdfrwt>
<totfact> 0.10426607E+04</totfact>
</mgrwt>
</event>
<event>
 4    0  0.1459063E-001  0.3562974E+03  0.7546771E-02  0.1060060E+00
         21   -1    0    0  502  501  0.00000000000E+00  0.00000000000E+00  0.17086009847E+03  0.17086009847E+03  0.00000000000E+00 0.  1.
         21   -1    0    0  503  502 -0.00000000000E+00 -0.00000000000E+00 -0.69785223313E+03  0.69785223313E+03  0.00000000000E+00 0.  1.
         25    1    1    2    0    0  0.89900272470E+02 -0.32131106518E+03 -0.29111029693E+03  0.46010114603E+03  0.12500000000E+03 0.  0.
         21    1    1    2  503  501 -0.89900272470E+02  0.32131106518E+03 -0.23588183773E+03  0.40861118557E+03  0.00000000000E+00 0.  1.
<mgrwt>
<rscale>  3 0.35629743E+03</rscale>
<asrwt>0</asrwt>
<pdfrwt beam="1">  1       21 0.26286169E-01 0.35629743E+03</pdfrwt>
<pdfrwt beam="2">  1       21 0.10736188E+00 0.35629743E+03</pdfrwt>
<totfact> 0.87273948E+03</totfact>
</mgrwt>
</event>
<event>
 4    0  0.1005289E-001  0.2863930E+03  0.7546771E-02  0.1092248E+00
         21   -1    0    0  503  501  0.00000000000E+00  0.00000000000E+00  0.70316938670E+03  0.70316938670E+03  0.00000000000E+00 0.  1.
         21   -1    0    0  501  502 -0.00000000000E+00 -0.00000000000E+00 -0.11502547244E+03  0.11502547244E+03  0.00000000000E+00 0. -1.
         25    1    1    2    0    0 -0.15683741066E+03 -0.20444548761E+03  0.18911043243E+03  0.34319627976E+03  0.12500000000E+03 0.  0.
         21    1    1    2  503  502  0.15683741066E+03  0.20444548761E+03  0.39903348183E+03  0.47499857937E+03  0.00000000000E+00 0.  1.
<mgrwt>
<rscale>  3 0.28639297E+03</rscale>
<asrwt>0</asrwt>
<pdfrwt beam="1">  1       21 0.10817990E+00 0.28639297E+03</pdfrwt>
<pdfrwt beam="2">  1       21 0.17696227E-01 0.28639297E+03</pdfrwt>
<totfact> 0.18735970E+04</totfact>
</mgrwt>
</event>
<event>
 4    0  0.1015001E-001  0.2478915E+03  0.7546771E-02  0.1114645E+00
         21   -1    0    0  502  501  0.00000000000E+00  0.00000000000E+00  0.78895088457E+03  0.78895088457E+03  0.00000000000E+00 0. -1.
         21   -1    0    0  503  502 -0.00000000000E+00 -0.00000000000E+00 -0.11065620356E+03  0.11065620356E+03  0.00000000000E+00 0.  1.
         25    1    1    2    0    0 -0.12704137859E+03 -0.17229534105E+03  0.74281339824E+02  0.25878159492E+03  0.12500000000E+03 0.  0.
         21    1    1    2  503  501  0.12704137859E+03  0.17229534105E+03  0.60401334119E+03  0.64082549322E+03  0.00000000000E+00 0. -1.
<mgrwt>
<rscale>  3 0.24789150E+03</rscale>
<asrwt>0</asrwt>
<pdfrwt beam="1">  1       21 0.12137706E+00 0.24789150E+03</pdfrwt>
<pdfrwt beam="2">  1       21 0.17024032E-01 0.24789150E+03</pdfrwt>
<totfact> 0.15443637E+04</totfact>
</mgrwt>
</event>
<event>
 4    0  0.1182764E-001  0.2744585E+03  0.7546771E-02  0.1098755E+00
         21   -1    0    0  503  501  0.00000000000E+00  0.00000000000E+00  0.19362856178E+03  0.19362856178E+03  0.00000000000E+00 0.  1.
         21   -1    0    0  501  502 -0.00000000000E+00 -0.00000000000E+00 -0.40686806916E+03  0.40686806916E+03  0.00000000000E+00 0.  1.
         25    1    1    2    0    0  0.19395011272E+03  0.14861306474E+03  0.26082800035E+01  0.27447093172E+03  0.12500000000E+03 0.  0.
         21    1    1    2  503  502 -0.19395011272E+03 -0.14861306474E+03 -0.21584778739E+03  0.32602569922E+03  0.00000000000E+00 0.  1.
<mgrwt>
<rscale>  3 0.27445854E+03</rscale>
<asrwt>0</asrwt>
<pdfrwt beam="1">  1       21 0.29789009E-01 0.27445854E+03</pdfrwt>
<pdfrwt beam="2">  1       21 0.62595088E-01 0.27445854E+03</pdfrwt>
<totfact> 0.24531472E+04</totfact>
</mgrwt>
</event>
<event>
 4    0  0.1322568E-001  0.2532013E+03  0.7546771E-02  0.1111298E+00
         21   -1    0    0  503  501  0.00000000000E+00  0.00000000000E+00  0.58897405129E+02  0.58897405129E+02  0.00000000000E+00 0.  1.
         21   -1    0    0  501  502 -0.00000000000E+00 -0.00000000000E+00 -0.95475040322E+03  0.95475040322E+03  0.00000000000E+00 0.  1.
         25    1    1    2    0    0  0.15105834894E+03 -0.16021016307E+03 -0.44842204218E+03  0.51496917291E+03  0.12500000000E+03 0.  0.
         21    1    1    2  503  502 -0.15105834894E+03  0.16021016307E+03 -0.44743095590E+03  0.49867863543E+03  0.00000000000E+00 0.  1.
<mgrwt>
<rscale>  3 0.25320135E+03</rscale>
<asrwt>0</asrwt>
<pdfrwt beam="1">  1       21 0.90611397E-02 0.25320135E+03</pdfrwt>
<pdfrwt beam="2">  1       21 0.14688467E+00 0.25320135E+03</pdfrwt>
<totfact> 0.29463630E+04</totfact>
</mgrwt>
</event>
<event>
 4    0  0.1617121E-001  0.3497132E+03  0.7546771E-02  0.1062733E+00
         21   -1    0    0  502  501  0.00000000000E+00  0.00000000000E+00  0.18961333210E+03  0.18961333210E+03  0.00000000000E+00 0.  1.
         21   -1    0    0  503  502 -0.00000000000E+00 -0.00000000000E+00 -0.63309235465E+03  0.63309235465E+03  0.00000000000E+00 0.  1.
         25    1    1    2    0    0 -0.19039415785E+02 -0.32605490807E+03 -0.31845803464E+03  0.47298501272E+03  0.12500000000E+03 0.  0.
         21    1    1    2  503  501  0.19039415785E+02  0.32605490807E+03 -0.12502098790E+03  0.34972067403E+03  0.00000000000E+00 0.  1.
<mgrwt>
<rscale>  3 0.34971317E+03</rscale>
<asrwt>0</asrwt>
<pdfrwt beam="1">  1       21 0.29171282E-01 0.34971317E+03</pdfrwt>
<pdfrwt beam="2">  1       21 0.97398822E-01 0.34971317E+03</pdfrwt>
<totfact> 0.90397170E+03</totfact>
</mgrwt>
</event>
<event>
 4    0  0.1316745E-001  0.2372096E+03  0.7546771E-02  0.1121666E+00
         21   -1    0    0  503  501  0.00000000000E+00  0.00000000000E+00  0.55715862666E+03  0.55715862666E+03  0.00000000000E+00 0. -1.
         21   -1    0    0  501  502 -0.00000000000E+00 -0.00000000000E+00 -0.16443342372E+03  0.16443342372E+03  0.00000000000E+00 0.  1.
         25    1    1    2    0    0 -0.13463013006E+02 -0.20115208655E+03 -0.43379564037E+02  0.24114352825E+03  0.12500000000E+03 0.  0.
         21    1    1    2  503  502  0.13463013006E+02  0.20115208655E+03  0.43610476698E+03  0.48044852213E+03  0.00000000000E+00 0. -1.
<mgrwt>
<rscale>  3 0.23720964E+03</rscale>
<asrwt>0</asrwt>
<pdfrwt beam="1">  1       21 0.85716711E-01 0.23720964E+03</pdfrwt>
<pdfrwt beam="2">  1       21 0.25297450E-01 0.23720964E+03</pdfrwt>
<totfact> 0.16954702E+04</totfact>
</mgrwt>
</event>
<event>
 4    0  0.1005289E-001  0.2942749E+03  0.7546771E-02  0.1088138E+00
         21   -1    0    0  502  501  0.00000000000E+00  0.00000000000E+00  0.28732361747E+04  0.28732361747E+04  0.00000000000E+00 0. -1.
         21   -1    0    0  503  502 -0.00000000000E+00 -0.00000000000E+00 -0.11829217398E+04  0.11829217398E+04  0.00000000000E+00 0. -1.
         25    1    1    2    0    0 -0.25829240405E+03  0.65251373710E+02 -0.11583082920E+04  0.11951049356E+04  0.12500000000E+03 0.  0.
         21    1    1    2  503  501  0.25829240405E+03 -0.65251373710E+02  0.28486227269E+04  0.28610529789E+04  0.00000000000E+00 0. -1.
<mgrwt>
<rscale>  3 0.29427488E+03</rscale>
<asrwt>0</asrwt>
<pdfrwt beam="1">  1       21 0.44203633E+00 0.29427488E+03</pdfrwt>
<pdfrwt beam="2">  1       21 0.18198796E+00 0.29427488E+03</pdfrwt>
<totfact> 0.67206428E-01</totfact>
</mgrwt>
</event>
<event>
 4    0  0.1341939E-001  0.4379868E+03  0.7546771E-02  0.1031366E+00
         21   -1    0    0  502  501  0.00000000000E+00  0.00000000000E+00  0.68981026887E+03  0.68981026887E+03  0.00000000000E+00 0. -1.
         21   -1    0    0  503  502 -0.00000000000E+00 -0.00000000000E+00 -0.26847304076E+03  0.26847304076E+03  0.00000000000E+00 0. -1.
         25    1    1    2    0    0  0.29641753958E+03  0.29722738172E+03  0.25460043797E+03  0.50661016297E+03  0.12500000000E+03 0.  0.
         21    1    1    2  503  501 -0.29641753958E+03 -0.29722738172E+03  0.16673679015E+03  0.45167314665E+03  0.00000000000E+00 0. -1.
<mgrwt>
<rscale>  3 0.43798684E+03</rscale>
<asrwt>0</asrwt>
<pdfrwt beam="1">  1       21 0.10612466E+00 0.43798684E+03</pdfrwt>
<pdfrwt beam="2">  1       21 0.41303545E-01 0.43798684E+03</pdfrwt>
<totfact> 0.35185521E+03</totfact>
</mgrwt>
</event>
<event>
 4    0  0.1408879E-001  0.2529624E+03  0.7546771E-02  0.1111447E+00
         21   -1    0    0  503  501  0.00000000000E+00  0.00000000000E+00  0.19694149747E+03  0.19694149747E+03  0.00000000000E+00 0. -1.
         21   -1    0    0  501  502 -0.00000000000E+00 -0.00000000000E+00 -0.28599731277E+03  0.28599731277E+03  0.00000000000E+00 0. -1.
         25    1    1    2    0    0  0.61647500797E+02  0.21110317368E+03 -0.26809700394E+02  0.25437909569E+03  0.12500000000E+03 0.  0.
         21    1    1    2  503  502 -0.61647500797E+02 -0.21110317368E+03 -0.62246114909E+02  0.22855971454E+03  0.00000000000E+00 0. -1.
<mgrwt>
<rscale>  3 0.25296238E+03</rscale>
<asrwt>0</asrwt>
<pdfrwt beam="1">  1       21 0.30298692E-01 0.25296238E+03</pdfrwt>
<pdfrwt beam="2">  1       21 0.43999587E-01 0.25296238E+03</pdfrwt>
<totfact> 0.50507554E+04</totfact>
</mgrwt>
</event>
<event>
 4    0  0.1274344E-001  0.2594760E+03  0.7546771E-02  0.1107458E+00
         21   -1    0    0  502  501  0.00000000000E+00  0.00000000000E+00  0.56414371820E+03  0.56414371820E+03  0.00000000000E+00 0.  1.
         21   -1    0    0  503  502 -0.00000000000E+00 -0.00000000000E+00 -0.16116627395E+03  0.16116627395E+03  0.00000000000E+00 0.  1.
         25    1    1    2    0    0 -0.22319490123E+03 -0.43437911358E+02 -0.35636433270E+01  0.25950051182E+03  0.12500000000E+03 0.  0.
         21    1    1    2  503  501  0.22319490123E+03  0.43437911358E+02  0.40654108758E+03  0.46580948033E+03  0.00000000000E+00 0.  1.
<mgrwt>
<rscale>  3 0.25947604E+03</rscale>
<asrwt>0</asrwt>
<pdfrwt beam="1">  1       21 0.86791341E-01 0.25947604E+03</pdfrwt>
<pdfrwt beam="2">  1       21 0.24794812E-01 0.25947604E+03</pdfrwt>
<totfact> 0.16928534E+04</totfact>
</mgrwt>
</event>
<event>
 4    0  0.1255351E-001  0.2704392E+03  0.7546771E-02  0.1101028E+00
         21   -1    0    0  503  501  0.00000000000E+00  0.00000000000E+00  0.85685248173E+03  0.85685248173E+03  0.00000000000E+00 0. -1.
         21   -1    0    0  501  502 -0.00000000000E+00 -0.00000000000E+00 -0.10658171491E+03  0.10658171491E+03  0.00000000000E+00 0. -1.
         25    1    1    2    0    0  0.11949702521E+03  0.20792509090E+03  0.13332661189E+03  0.30151843708E+03  0.12500000000E+03 0.  0.
         21    1    1    2  503  502 -0.11949702521E+03 -0.20792509090E+03  0.61694415492E+03  0.66191575956E+03  0.00000000000E+00 0. -1.
<mgrwt>
<rscale>  3 0.27043924E+03</rscale>
<asrwt>0</asrwt>
<pdfrwt beam="1">  1       21 0.13182345E+00 0.27043924E+03</pdfrwt>
<pdfrwt beam="2">  1       21 0.16397187E-01 0.27043924E+03</pdfrwt>
<totfact> 0.13269659E+04</totfact>
</mgrwt>
</event>
<event>
 4    0  0.1110682E-001  0.3795831E+03  0.7546771E-02  0.1051088E+00
         21   -1    0    0  502  501  0.00000000000E+00  0.00000000000E+00  0.63433576718E+03  0.63433576718E+03  0.00000000000E+00 0. -1.
         21   -1    0    0  503  502 -0.00000000000E+00 -0.00000000000E+00 -0.16347107777E+04  0.16347107777E+04  0.00000000000E+00 0.  1.
         25    1    1    2    0    0  0.20972772755E+03 -0.29064168449E+03 -0.15594327309E+04  0.16049653425E+04  0.12500000000E+03 0.  0.
         21    1    1    2  503  501 -0.20972772755E+03  0.29064168449E+03  0.55905772045E+03  0.66408120230E+03  0.00000000000E+00 0. -1.
<mgrwt>
<rscale>  3 0.37958307E+03</rscale>
<asrwt>0</asrwt>
<pdfrwt beam="1">  1       21 0.97590118E-01 0.37958307E+03</pdfrwt>
<pdfrwt beam="2">  1       21 0.25149397E+00 0.37958307E+03</pdfrwt>
<totfact> 0.45938580E+01</totfact>
</mgrwt>
</event>
<event>
 4    0  0.1227671E-001  0.2963444E+03  0.7546771E-02  0.1087082E+00
         21   -1    0    0  502  501  0.00000000000E+00  0.00000000000E+00  0.17090106999E+03  0.17090106999E+03  0.00000000000E+00 0.  1.
         21   -1    0    0  503  502 -0.00000000000E+00 -0.00000000000E+00 -0.50845766558E+03  0.50845766558E+03  0.00000000000E+00 0.  1.
         25    1    1    2    0    0  0.30810107063E+02 -0.26691899089E+03 -0.79516190031E+02  0.30682704391E+03  0.12500000000E+03 0.  0.
         21    1    1    2  503  501 -0.30810107063E+02  0.26691899089E+03 -0.25804040556E+03  0.37253169167E+03  0.00000000000E+00 0.  1.
<mgrwt>
<rscale>  3 0.29634441E+03</rscale>
<asrwt>0</asrwt>
<pdfrwt beam="1">  1       21 0.26292472E-01 0.29634441E+03</pdfrwt>
<pdfrwt beam="2">  1       21 0.78224256E-01 0.29634441E+03</pdfrwt>
<totfact> 0.18877117E+04</totfact>
</mgrwt>
</event>
<event>
 4    0  0.1605603E-001  0.2360444E+03  0.7546771E-02  0.1122456E+00
         21   -1    0    0  503  501  0.00000000000E+00  0.00000000000E+00  0.51666436623E+03  0.51666436623E+03  0.00000000000E+00 0. -1.
         21   -1    0    0  501  502 -0.00000000000E+00 -0.00000000000E+00 -0.20977543028E+03  0.20977543028E+03  0.00000000000E+00 0.  1.
         25    1    1    2    0    0 -0.52009799865E+02  0.19335708365E+03 -0.11266622290E+03  0.26155431341E+03  0.12500000000E+03 0.  0.
         21    1    1    2  503  502  0.52009799865E+02 -0.19335708365E+03  0.41955515885E+03  0.46488548310E+03  0.00000000000E+00 0. -1.
<mgrwt>
<rscale>  3 0.23604445E+03</rscale>
<asrwt>0</asrwt>
<pdfrwt beam="1">  1       21 0.79486825E-01 0.23604445E+03</pdfrwt>
<pdfrwt beam="2">  1       21 0.32273143E-01 0.23604445E+03</pdfrwt>
<totfact> 0.12546253E+04</totfact>
</mgrwt>
</event>
<event>
 4    0  0.1136265E-001  0.2466923E+03  0.7546771E-02  0.1115413E+00
         21   -1    0    0  503  501  0.00000000000E+00  0.00000000000E+00  0.37483757917E+02  0.37483757917E+02  0.00000000000E+00 0. -1.
         21   -1    0    0  501  502 -0.00000000000E+00 -0.00000000000E+00 -0.14108977082E+04  0.14108977082E+04  0.00000000000E+00 0. -1.
         25    1    1    2    0    0  0.69802998118E+02 -0.20089710918E+03 -0.70156985587E+03  0.74367827028E+03  0.12500000000E+03 0.  0.
         21    1    1    2  503  502 -0.69802998118E+02  0.20089710918E+03 -0.67184409443E+03  0.70470319586E+03  0.00000000000E+00 0. -1.
<mgrwt>
<rscale>  3 0.24669233E+03</rscale>
<asrwt>0</asrwt>
<pdfrwt beam="1">  1       21 0.57667315E-02 0.24669233E+03</pdfrwt>
<pdfrwt beam="2">  1       21 0.21706121E+00 0.24669233E+03</pdfrwt>
<totfact> 0.21290052E+04</totfact>
</mgrwt>
</event>
<event>
 4    0  0.1508295E-001  0.2410750E+03  0.7546771E-02  0.1119079E+00
         21   -1    0    0  502  501  0.00000000000E+00  0.00000000000E+00  0.90634542332E+03  0.90634542332E+03  0.00000000000E+00 0. -1.
         21   -1    0    0  503  502 -0.00000000000E+00 -0.00000000000E+00 -0.55997786598E+02  0.55997786598E+02  0.00000000000E+00 0. -1.
         25    1    1    2    0    0  0.20044095622E+03 -0.48120434953E+02  0.39943135025E+03  0.46654319924E+03  0.12500000000E+03 0.  0.
         21    1    1    2  503  501 -0.20044095622E+03  0.48120434953E+02  0.45091628647E+03  0.49580001069E+03  0.00000000000E+00 0. -1.
<mgrwt>
<rscale>  3 0.24107499E+03</rscale>
<asrwt>0</asrwt>
<pdfrwt beam="1">  1       21 0.13943775E+00 0.24107499E+03</pdfrwt>
<pdfrwt beam="2">  1       21 0.86150448E-02 0.24107499E+03</pdfrwt>
<totfact> 0.37134750E+04</totfact>
</mgrwt>
</event>
<event>
 4    0  0.1151263E-001  0.3397699E+03  0.7546771E-02  0.1066894E+00
         21   -1    0    0  503  501  0.00000000000E+00  0.00000000000E+00  0.11118864750E+03  0.11118864750E+03  0.00000000000E+00 0.  1.
         21   -1    0    0  501  502 -0.00000000000E+00 -0.00000000000E+00 -0.12977501622E+04  0.12977501622E+04  0.00000000000E+00 0.  1.
         25    1    1    2    0    0 -0.29367333115E+03 -0.11651005724E+03 -0.96495777773E+03  0.10230284120E+04  0.12500000000E+03 0.  0.
         21    1    1    2  503  502  0.29367333115E+03  0.11651005724E+03 -0.22160373700E+03  0.38591039779E+03  0.00000000000E+00 0.  1.
<mgrwt>
<rscale>  3 0.33976995E+03</rscale>
<asrwt>0</asrwt>
<pdfrwt beam="1">  1       21 0.17105946E-01 0.33976995E+03</pdfrwt>
<pdfrwt beam="2">  1       21 0.19965387E+00 0.33976995E+03</pdfrwt>
<totfact> 0.37441217E+03</totfact>
</mgrwt>
</event>
<event>
 4    0  0.1005289E-001  0.2499555E+03  0.7546771E-02  0.1113333E+00
         21   -1    0    0  503  501  0.00000000000E+00  0.00000000000E+00  0.52293242252E+03  0.52293242252E+03  0.00000000000E+00 0.  1.
         21   -1    0    0  501  502 -0.00000000000E+00 -0.00000000000E+00 -0.14222330206E+04  0.14222330206E+04  0.00000000000E+00 0.  1.
         25    1    1    2    0    0  0.21214818611E+03 -0.42963739587E+02 -0.13881834903E+04  0.14105074046E+04  0.12500000000E+03 0.  0.
         21    1    1    2  503  502 -0.21214818611E+03  0.42963739587E+02  0.48888289223E+03  0.53465803847E+03  0.00000000000E+00 0.  1.
<mgrwt>
<rscale>  3 0.24995547E+03</rscale>
<asrwt>0</asrwt>
<pdfrwt beam="1">  1       21 0.80451144E-01 0.24995547E+03</pdfrwt>
<pdfrwt beam="2">  1       21 0.21880507E+00 0.24995547E+03</pdfrwt>
<totfact> 0.12922727E+02</totfact>
</mgrwt>
</event>
<event>
 4    0  0.1227882E-001  0.2526952E+03  0.7546771E-02  0.1111613E+00
         21   -1    0    0  502  501  0.00000000000E+00  0.00000000000E+00  0.13418785026E+03  0.13418785026E+03  0.00000000000E+00 0. -1.
         21   -1    0    0  503  502 -0.00000000000E+00 -0.00000000000E+00 -0.90066720667E+03  0.90066720667E+03  0.00000000000E+00 0.  1.
         25    1    1    2    0    0 -0.13502836118E+03  0.17319698334E+03 -0.77491966783E+03  0.81507996231E+03  0.12500000000E+03 0.  0.
         21    1    1    2  503  501  0.13502836118E+03 -0.17319698334E+03  0.84403114161E+01  0.21977509462E+03  0.00000000000E+00 0. -1.
<mgrwt>
<rscale>  3 0.25269518E+03</rscale>
<asrwt>0</asrwt>
<pdfrwt beam="1">  1       21 0.20644285E-01 0.25269518E+03</pdfrwt>
<pdfrwt beam="2">  1       21 0.13856419E+00 0.25269518E+03</pdfrwt>
<totfact> 0.76676765E+03</totfact>
</mgrwt>
</event>
<event>
 4    0  0.1638387E-001  0.2612545E+03  0.7546771E-02  0.1106392E+00
         21   -1    0    0  503  501  0.00000000000E+00  0.00000000000E+00  0.89678477723E+02  0.89678477723E+02  0.00000000000E+00 0.  1.
         21   -1    0    0  501  502 -0.00000000000E+00 -0.00000000000E+00 -0.73761787181E+03  0.73761787181E+03  0.00000000000E+00 0.  1.
         25    1    1    2    0    0 -0.11033853078E+03  0.20113263231E+03 -0.46703209412E+03  0.53513821027E+03  0.12500000000E+03 0.  0.
         21    1    1    2  503  502  0.11033853078E+03 -0.20113263231E+03 -0.18090729997E+03  0.29215813926E+03  0.00000000000E+00 0.  1.
<mgrwt>
<rscale>  3 0.26125453E+03</rscale>
<asrwt>0</asrwt>
<pdfrwt beam="1">  1       21 0.13796689E-01 0.26125453E+03</pdfrwt>
<pdfrwt beam="2">  1       21 0.11347967E+00 0.26125453E+03</pdfrwt>
<totfact> 0.26659727E+04</totfact>
</mgrwt>
</event>
<event>
 4    0  0.1005289E-001  0.2450134E+03  0.7546771E-02  0.1116497E+00
         21   -1    0    0  502  501  0.00000000000E+00  0.00000000000E+00  0.76742941457E+02  0.76742941457E+02  0.00000000000E+00 0. -1.
         21   -1    0    0  503  502 -0.00000000000E+00 -0.00000000000E+00 -0.78181790092E+03  0.78181790092E+03  0.00000000000E+00 0.  1.
         25    1    1    2    0    0 -0.93678222825E+02 -0.18876163488E+03 -0.53257713806E+03  0.58623371809E+03  0.12500000000E+03 0.  0.
         21    1    1    2  503  501  0.93678222825E+02  0.18876163488E+03 -0.17249782140E+03  0.27232712429E+03  0.00000000000E+00 0. -1.
<mgrwt>
<rscale>  3 0.24501340E+03</rscale>
<asrwt>0</asrwt>
<pdfrwt beam="1">  1       21 0.11806606E-01 0.24501340E+03</pdfrwt>
<pdfrwt beam="2">  1       21 0.12027968E+00 0.24501340E+03</pdfrwt>
<totfact> 0.30835190E+04</totfact>
</mgrwt>
</event>
<event>
 4    0  0.1005289E-001  0.3017596E+03  0.7546771E-02  0.1084364E+00
         21   -1    0    0  503  501  0.00000000000E+00  0.00000000000E+00  0.41119537116E+03  0.41119537116E+03  0.00000000000E+00 0. -1.
         21   -1    0    0  501  502 -0.00000000000E+00 -0.00000000000E+00 -0.22408466829E+03  0.22408466829E+03  0.00000000000E+00 0.  1.
         25    1    1    2    0    0  0.26885820234E+03  0.56117235720E+02 -0.20906516123E+01  0.30176687681E+03  0.12500000000E+03 0.  0.
         21    1    1    2  503  502 -0.26885820234E+03 -0.56117235720E+02  0.18920135448E+03  0.33351316264E+03  0.00000000000E+00 0. -1.
<mgrwt>
<rscale>  3 0.30175963E+03</rscale>
<asrwt>0</asrwt>
<pdfrwt beam="1">  1       21 0.63260826E-01 0.30175963E+03</pdfrwt>
<pdfrwt beam="2">  1       21 0.34474564E-01 0.30175963E+03</pdfrwt>
<totfact> 0.17741561E+04</totfact>
</mgrwt>
</event>
<event>
 4    0  0.1333026E-001  0.3463024E+03  0.7546771E-02  0.1064143E+00
         21   -1    0    0  503  501  0.00000000000E+00  0.00000000000E+00  0.20707252534E+03  0.20707252534E+03  0.00000000000E+00 0.  1.
         21   -1    0    0  501  502 -0.00000000000E+00 -0.00000000000E+00 -0.76062364720E+03  0.76062364720E+03  0.00000000000E+00 0.  1.
         25    1    1    2    0    0 -0.19570678458E+03  0.25690316762E+03 -0.54366329747E+03  0.64458914362E+03  0.12500000000E+03 0.  0.
         21    1    1    2  503  502  0.19570678458E+03 -0.25690316762E+03 -0.98878243887E+01  0.32310702892E+03  0.00000000000E+00 0.  1.
<mgrwt>
<rscale>  3 0.34630244E+03</rscale>
<asrwt>0</asrwt>
<pdfrwt beam="1">  1       21 0.31857311E-01 0.34630244E+03</pdfrwt>
<pdfrwt beam="2">  1       21 0.11701902E+00 0.34630244E+03</pdfrwt>
<totfact> 0.48519777E+03</totfact>
</mgrwt>
</event>
<event>
 4    0  0.1235582E-001  0.2774533E+03  0.7546771E-02  0.1097088E+00
         21   -1    0    0  502  501  0.00000000000E+00  0.00000000000E+00  0.37281873700E+03  0.37281873700E+03  0.00000000000E+00 0.  1.
         21   -1    0    0  503  502 -0.00000000000E+00 -0.00000000000E+00 -0.35665302463E+03  0.35665302463E+03  0.00000000000E+00 0.  1.
         25    1    1    2    0    0  0.20842489860E+03 -0.13384459395E+03 -0.24455372173E+03  0.36984704473E+03  0.12500000000E+03 0.  0.
         21    1    1    2  503  501 -0.20842489860E+03  0.13384459395E+03  0.26071943410E+03  0.35962471690E+03  0.00000000000E+00 0.  1.
<mgrwt>
<rscale>  3 0.27745326E+03</rscale>
<asrwt>0</asrwt>
<pdfrwt beam="1">  1       21 0.57356729E-01 0.27745326E+03</pdfrwt>
<pdfrwt beam="2">  1       21 0.54869696E-01 0.27745326E+03</pdfrwt>
<totfact> 0.84975200E+03</totfact>
</mgrwt>
</event>
<event>
 4    0  0.1555404E-001  0.2571487E+03  0.7546771E-02  0.1108869E+00
         21   -1    0    0  502  501  0.00000000000E+00  0.00000000000E+00  0.10349133713E+03  0.10349133713E+03  0.00000000000E+00 0. -1.
         21   -1    0    0  503  502 -0.00000000000E+00 -0.00000000000E+00 -0.64748067743E+03  0.64748067743E+03  0.00000000000E+00 0. -1.
         25    1    1    2    0    0  0.21418293633E+03  0.68015462756E+02 -0.42487370718E+03  0.49663175537E+03  0.12500000000E+03 0.  0.
         21    1    1    2  503  501 -0.21418293633E+03 -0.68015462756E+02 -0.11911563312E+03  0.25434025919E+03  0.00000000000E+00 0. -1.
<mgrwt>
<rscale>  3 0.25714866E+03</rscale>
<asrwt>0</asrwt>
<pdfrwt beam="1">  1       21 0.15921745E-01 0.25714866E+03</pdfrwt>
<pdfrwt beam="2">  1       21 0.99612410E-01 0.25714866E+03</pdfrwt>
<totfact> 0.28190198E+04</totfact>
</mgrwt>
</event>
<event>
 4    0  0.1079392E-001  0.2504558E+03  0.7546771E-02  0.1113017E+00
         21   -1    0    0  502  501  0.00000000000E+00  0.00000000000E+00  0.38456788016E+02  0.38456788016E+02  0.00000000000E+00 0.  1.
         21   -1    0    0  503  502 -0.00000000000E+00 -0.00000000000E+00 -0.18438864610E+04  0.18438864610E+04  0.00000000000E+00 0.  1.
         25    1    1    2    0    0 -0.21745332242E+02 -0.21594043113E+03 -0.14024302898E+04  0.14246188427E+04  0.12500000000E+03 0.  0.
         21    1    1    2  503  501  0.21745332242E+02  0.21594043113E+03 -0.40299938315E+03  0.45772440627E+03  0.00000000000E+00 0.  1.
<mgrwt>
<rscale>  3 0.25045584E+03</rscale>
<asrwt>0</asrwt>
<pdfrwt beam="1">  1       21 0.59164284E-02 0.25045584E+03</pdfrwt>
<pdfrwt beam="2">  1       21 0.28367486E+00 0.25045584E+03</pdfrwt>
<totfact> 0.81075949E+03</totfact>
</mgrwt>
</event>
<event>
 4    0  0.1513891E-001  0.2954553E+03  0.7546771E-02  0.1087535E+00
         21   -1    0    0  503  501  0.00000000000E+00  0.00000000000E+00  0.65731236765E+03  0.65731236765E+03  0.00000000000E+00 0. -1.
         21   -1    0    0  501  502 -0.00000000000E+00 -0.00000000000E+00 -0.12407061266E+03  0.12407061266E+03  0.00000000000E+00 0. -1.
         25    1    1    2    0    0  0.59659046864E+02 -0.26097821641E+03  0.21436899970E+03  0.36503136762E+03  0.12500000000E+03 0.  0.
         21    1    1    2  503  502 -0.59659046864E+02  0.26097821641E+03  0.31887275529E+03  0.41635161268E+03  0.00000000000E+00 0. -1.
<mgrwt>
<rscale>  3 0.29545529E+03</rscale>
<asrwt>0</asrwt>
<pdfrwt beam="1">  1       21 0.10112498E+00 0.29545529E+03</pdfrwt>
<pdfrwt beam="2">  1       21 0.19087787E-01 0.29545529E+03</pdfrwt>
<totfact> 0.19082940E+04</totfact>
</mgrwt>
</event>
<event>
 4    0  0.1105964E-001  0.3531847E+03  0.7546771E-02  0.1061315E+00
         21   -1    0    0  502  501  0.00000000000E+00  0.00000000000E+00  0.41585930108E+03  0.41585930108E+03  0.00000000000E+00 0. -1.
         21   -1    0    0  503  502 -0.00000000000E+00 -0.00000000000E+00 -0.38890231051E+03  0.38890231051E+03  0.00000000000E+00 0.  1.
         25    1    1    2    0    0 -0.72388004166E+02  0.32229554130E+03 -0.19820181503E+03  0.40499802292E+03  0.12500000000E+03 0.  0.
         21    1    1    2  503  501  0.72388004166E+02 -0.32229554130E+03  0.22515880559E+03  0.39976358867E+03  0.00000000000E+00 0. -1.
<mgrwt>
<rscale>  3 0.35318471E+03</rscale>
<asrwt>0</asrwt>
<pdfrwt beam="1">  1       21 0.63978354E-01 0.35318471E+03</pdfrwt>
<pdfrwt beam="2">  1       21 0.59831125E-01 0.35318471E+03</pdfrwt>
<totfact> 0.53681335E+03</totfact>
</mgrwt>
</event>
<event>
 4    0  0.1311881E-001  0.3444285E+03  0.7546771E-02  0.1064925E+00
         21   -1    0    0  502  501  0.00000000000E+00  0.00000000000E+00  0.12820729180E+04  0.12820729180E+04  0.00000000000E+00 0.  1.
         21   -1    0    0  503  502 -0.00000000000E+00 -0.00000000000E+00 -0.86406039895E+02  0.86406039895E+02  0.00000000000E+00 0.  1.
         25    1    1    2    0    0  0.32000556706E+03 -0.24545082582E+02  0.63927168748E+03  0.72615378154E+03  0.12500000000E+03 0.  0.
         21    1    1    2  503  501 -0.32000556706E+03  0.24545082582E+02  0.55639519063E+03  0.64232517636E+03  0.00000000000E+00 0.  1.
<mgrwt>
<rscale>  3 0.34442855E+03</rscale>
<asrwt>0</asrwt>
<pdfrwt beam="1">  1       21 0.19724197E+00 0.34442855E+03</pdfrwt>
<pdfrwt beam="2">  1       21 0.13293238E-01 0.34442855E+03</pdfrwt>
<totfact> 0.61717311E+03</totfact>
</mgrwt>
</event>
<event>
 4    0  0.1588976E-001  0.2510192E+03  0.7546771E-02  0.1112662E+00
         21   -1    0    0  503  501  0.00000000000E+00  0.00000000000E+00  0.40183767188E+03  0.40183767188E+03  0.00000000000E+00 0.  1.
         21   -1    0    0  501  502 -0.00000000000E+00 -0.00000000000E+00 -0.13999230258E+03  0.13999230258E+03  0.00000000000E+00 0.  1.
         25    1    1    2    0    0  0.60113582267E+02  0.20921763767E+03  0.98400335166E+02  0.26961692945E+03  0.12500000000E+03 0.  0.
         21    1    1    2  503  502 -0.60113582267E+02 -0.20921763767E+03  0.16344503413E+03  0.27221304500E+03  0.00000000000E+00 0.  1.
<mgrwt>
<rscale>  3 0.25101925E+03</rscale>
<asrwt>0</asrwt>
<pdfrwt beam="1">  1       21 0.61821180E-01 0.25101925E+03</pdfrwt>
<pdfrwt beam="2">  1       21 0.21537278E-01 0.25101925E+03</pdfrwt>
<totfact> 0.47543576E+04</totfact>
</mgrwt>
</event>
<event>
 4    0  0.1089218E-001  0.3321914E+03  0.7546771E-02  0.1070171E+00
         21   -1    0    0  503  501  0.00000000000E+00  0.00000000000E+00  0.52971818329E+03  0.52971818329E+03  0.00000000000E+00 0. -1.
         21   -1    0    0  501  502 -0.00000000000E+00 -0.00000000000E+00 -0.24065639990E+03  0.24065639990E+03  0.00000000000E+00 0. -1.
         25    1    1    2    0    0  0.22640626390E+03 -0.20848575239E+03  0.31974527138E+03  0.46107281838E+03  0.12500000000E+03 0.  0.
         21    1    1    2  503  502 -0.22640626390E+03  0.20848575239E+03 -0.30683487986E+02  0.30930176481E+03  0.00000000000E+00 0. -1.
<mgrwt>
<rscale>  3 0.33219137E+03</rscale>
<asrwt>0</asrwt>
<pdfrwt beam="1">  1       21 0.81495105E-01 0.33219137E+03</pdfrwt>
<pdfrwt beam="2">  1       21 0.37024062E-01 0.33219137E+03</pdfrwt>
<totfact> 0.85952529E+03</totfact>
</mgrwt>
</event>
<event>
 4    0  0.1652517E-001  0.2632231E+03  0.7546771E-02  0.1105222E+00
         21   -1    0    0  503  501  0.00000000000E+00  0.00000000000E+00  0.98550011465E+03  0.98550011465E+03  0.00000000000E+00 0.  1.
         21   -1    0    0  501  502 -0.00000000000E+00 -0.00000000000E+00 -0.72749607292E+02  0.72749607292E+02  0.00000000000E+00 0.  1.
         25    1    1    2    0    0 -0.11533913721E+03  0.20089368050E+03  0.27938843710E+03  0.38385451179E+03  0.12500000000E+03 0.  0.
         21    1    1    2  503  502  0.11533913721E+03 -0.20089368050E+03  0.63336207025E+03  0.67439521015E+03  0.00000000000E+00 0.  1.
<mgrwt>
<rscale>  3 0.26322308E+03</rscale>
<asrwt>0</asrwt>
<pdfrwt beam="1">  1       21 0.15161539E+00 0.26322308E+03</pdfrwt>
<pdfrwt beam="2">  1       21 0.11192248E-01 0.26322308E+03</pdfrwt>
<totfact> 0.18503851E+04</totfact>
</mgrwt>
</event>
<event>
 4    0  0.1288730E-001  0.3016029E+03  0.7546771E-02  0.1084442E+00
         21   -1    0    0  502  501  0.00000000000E+00  0.00000000000E+00  0.89719231765E+03  0.89719231765E+03  0.00000000000E+00 0.  1.
         21   -1    0    0  503  502 -0.00000000000E+00 -0.00000000000E+00 -0.15402602669E+03  0.15402602669E+03  0.00000000000E+00 0.  1.
         25    1    1    2    0    0 -0.17351040354E+03 -0.21268162899E+03  0.50043881280E+02  0.30572655348E+03  0.12500000000E+03 0.  0.
         21    1    1    2  503  501  0.17351040354E+03  0.21268162899E+03  0.69312240968E+03  0.74549179087E+03  0.00000000000E+00 0.  1.
<mgrwt>
<rscale>  3 0.30160294E+03</rscale>
<asrwt>0</asrwt>
<pdfrwt beam="1">  1       21 0.13802958E+00 0.30160294E+03</pdfrwt>
<pdfrwt beam="2">  1       21 0.23696312E-01 0.30160294E+03</pdfrwt>
<totfact> 0.57968531E+03</totfact>
</mgrwt>
</event>
<event>
 4    0  0.1005289E-001  0.2964456E+03  0.7546771E-02  0.1087031E+00
         21   -1    0    0  502  501  0.00000000000E+00  0.00000000000E+00  0.54986189934E+03  0.54986189934E+03  0.00000000000E+00 0. -1.
         21   -1    0    0  503  502 -0.00000000000E+00 -0.00000000000E+00 -0.17549823265E+03  0.17549823265E+03  0.00000000000E+00 0.  1.
         25    1    1    2    0    0  0.18025780391E+02 -0.26819782530E+03  0.44379180507E+02  0.29974908493E+03  0.12500000000E+03 0.  0.
         21    1    1    2  503  501 -0.18025780391E+02  0.26819782530E+03  0.32998448618E+03  0.42561104706E+03  0.00000000000E+00 0. -1.
<mgrwt>
<rscale>  3 0.29644561E+03</rscale>
<asrwt>0</asrwt>
<pdfrwt beam="1">  1       21 0.84594138E-01 0.29644561E+03</pdfrwt>
<pdfrwt beam="2">  1       21 0.26999728E-01 0.29644561E+03</pdfrwt>
<totfact> 0.14980967E+04</totfact>
</mgrwt>
</event>
<event>
 4    0  0.1417549E-001  0.2364122E+03  0.7546771E-02  0.1122206E+00
         21   -1    0    0  502  501  0.00000000000E+00  0.00000000000E+00  0.46140201424E+03  0.46140201424E+03  0.00000000000E+00 0.  1.
         21   -1    0    0  503  502 -0.00000000000E+00 -0.00000000000E+00 -0.18832845980E+03  0.18832845980E+03  0.00000000000E+00 0. -1.
         25    1    1    2    0    0 -0.18692352825E+03 -0.72974909708E+02 -0.74943992245E+02  0.24800674352E+03  0.12500000000E+03 0.  0.
         21    1    1    2  503  501  0.18692352825E+03  0.72974909708E+02  0.34801754669E+03  0.40172373052E+03  0.00000000000E+00 0.  1.
<mgrwt>
<rscale>  3 0.23641223E+03</rscale>
<asrwt>0</asrwt>
<pdfrwt beam="1">  1       21 0.70984925E-01 0.23641223E+03</pdfrwt>
<pdfrwt beam="2">  1       21 0.28973609E-01 0.23641223E+03</pdfrwt>
<totfact> 0.19984929E+04</totfact>
</mgrwt>
</event>
<event>
 4    0  0.1136041E-001  0.3303829E+03  0.7546771E-02  0.1070968E+00
         21   -1    0    0  503  501  0.00000000000E+00  0.00000000000E+00  0.21957862038E+03  0.21957862038E+03  0.00000000000E+00 0. -1.
         21   -1    0    0  501  502 -0.00000000000E+00 -0.00000000000E+00 -0.68299754743E+03  0.68299754743E+03  0.00000000000E+00 0.  1.
         25    1    1    2    0    0  0.23851137514E+03  0.19141633682E+03 -0.49499797357E+03  0.59512677970E+03  0.12500000000E+03 0.  0.
         21    1    1    2  503  502 -0.23851137514E+03 -0.19141633682E+03  0.31579046525E+02  0.30744938811E+03  0.00000000000E+00 0. -1.
<mgrwt>
<rscale>  3 0.33038294E+03</rscale>
<asrwt>0</asrwt>
<pdfrwt beam="1">  1       21 0.33781327E-01 0.33038294E+03</pdfrwt>
<pdfrwt beam="2">  1       21 0.10507654E+00 0.33038294E+03</pdfrwt>
<totfact> 0.56687587E+03</totfact>
</mgrwt>
</event>
<event>
 4    0  0.1230619E-001  0.4045607E+03  0.7546771E-02  0.1042212E+00
         21   -1    0    0  502  501  0.00000000000E+00  0.00000000000E+00  0.25441210360E+03  0.25441210360E+03  0.00000000000E+00 0. -1.
         21   -1    0    0  503  502 -0.00000000000E+00 -0.00000000000E+00 -0.14859457048E+04  0.14859457048E+04  0.00000000000E+00 0.  1.
         25    1    1    2    0    0 -0.12990041401E+03 -0.36217434848E+03 -0.12892981523E+04  0.13512805415E+04  0.12500000000E+03 0.  0.
         21    1    1    2  503  501  0.12990041401E+03  0.36217434848E+03  0.57764551105E+02  0.38907726691E+03  0.00000000000E+00 0. -1.
<mgrwt>
<rscale>  3 0.40456072E+03</rscale>
<asrwt>0</asrwt>
<pdfrwt beam="1">  1       21 0.39140324E-01 0.40456072E+03</pdfrwt>
<pdfrwt beam="2">  1       21 0.22860703E+00 0.40456072E+03</pdfrwt>
<totfact> 0.46875764E+02</totfact>
</mgrwt>
</event>
<event>
 4    0  0.1005289E-001  0.2446930E+03  0.7546771E-02  0.1116705E+00
         21   -1    0    0  503  501  0.00000000000E+00  0.00000000000E+00  0.42256756405E+03  0.42256756405E+03  0.00000000000E+00 0.  1.
         21   -1    0    0  501  502 -0.00000000000E+00 -0.00000000000E+00 -0.13084601302E+03  0.13084601302E+03  0.00000000000E+00 0. -1.
         25    1    1    2    0    0 -0.13726656356E+02  0.20990764862E+03  0.22583506922E+03  0.33298066090E+03  0.12500000000E+03 0.  0.
         21    1    1    2  503  502  0.13726656356E+02 -0.20990764862E+03  0.65886481812E+02  0.22043291617E+03  0.00000000000E+00 0.  1.
<mgrwt>
<rscale>  3 0.24469295E+03</rscale>
<asrwt>0</asrwt>
<pdfrwt beam="1">  1       21 0.65010394E-01 0.24469295E+03</pdfrwt>
<pdfrwt beam="2">  1       21 0.20130156E-01 0.24469295E+03</pdfrwt>
<totfact> 0.48517484E+04</totfact>
</mgrwt>
</event>
<event>
 4    0  0.1304252E-001  0.2389639E+03  0.7546771E-02  0.1120485E+00
         21   -1    0    0  502  501  0.00000000000E+00  0.00000000000E+00  0.13425550328E+04  0.13425550328E+04  0.00000000000E+00 0. -1.
         21   -1    0    0  503  502 -0.00000000000E+00 -0.00000000000E+00 -0.36496723226E+02  0.36496723226E+02  0.00000000000E+00 0. -1.
         25    1    1    2    0    0  0.19047769659E+03  0.72090106071E+02  0.71867964294E+03  0.75736659912E+03  0.12500000000E+03 0.  0.
         21    1    1    2  503  501 -0.19047769659E+03 -0.72090106071E+02  0.58737866662E+03  0.62168515689E+03  0.00000000000E+00 0. -1.
<mgrwt>
<rscale>  3 0.23896388E+03</rscale>
<asrwt>0</asrwt>
<pdfrwt beam="1">  1       21 0.20654689E+00 0.23896388E+03</pdfrwt>
<pdfrwt beam="2">  1       21 0.56148815E-02 0.23896388E+03</pdfrwt>
<totfact> 0.26093965E+04</totfact>
</mgrwt>
</event>
<event>
 4    0  0.1005289E-001  0.2577344E+03  0.7546771E-02  0.1108512E+00
         21   -1    0    0  503  501  0.00000000000E+00  0.00000000000E+00  0.87072928730E+02  0.87072928730E+02  0.00000000000E+00 0.  1.
         21   -1    0    0  501  502 -0.00000000000E+00 -0.00000000000E+00 -0.16005605134E+04  0.16005605134E+04  0.00000000000E+00 0.  1.
         25    1    1    2    0    0  0.17534760689E+03  0.14161653184E+03 -0.14206992515E+04  0.14438882881E+04  0.12500000000E+03 0.  0.
         21    1    1    2  503  502 -0.17534760689E+03 -0.14161653184E+03 -0.92788333166E+02  0.24374515401E+03  0.00000000000E+00 0.  1.
<mgrwt>
<rscale>  3 0.25773441E+03</rscale>
<asrwt>0</asrwt>
<pdfrwt beam="1">  1       21 0.13395835E-01 0.25773441E+03</pdfrwt>
<pdfrwt beam="2">  1       21 0.24624007E+00 0.25773441E+03</pdfrwt>
<totfact> 0.31687285E+03</totfact>
</mgrwt>
</event>
<event>
 4    0  0.1005289E-001  0.3252885E+03  0.7546771E-02  0.1073241E+00
         21   -1    0    0  502  501  0.00000000000E+00  0.00000000000E+00  0.18071191578E+04  0.18071191578E+04  0.00000000000E+00 0.  1.
         21   -1    0    0  503  502 -0.00000000000E+00 -0.00000000000E+00 -0.80032645432E+02  0.80032645432E+02  0.00000000000E+00 0.  1.
         25    1    1    2    0    0 -0.29790639042E+03  0.37939265801E+02  0.35049470290E+03  0.47818316794E+03  0.12500000000E+03 0.  0.
         21    1    1    2  503  501  0.29790639042E+03 -0.37939265801E+02  0.13765918095E+04  0.14089686353E+04  0.00000000000E+00 0.  1.
<mgrwt>
<rscale>  3 0.32528850E+03</rscale>
<asrwt>0</asrwt>
<pdfrwt beam="1">  1       21 0.27801830E+00 0.32528850E+03</pdfrwt>
<pdfrwt beam="2">  1       21 0.12312716E-01 0.32528850E+03</pdfrwt>
<totfact> 0.22698444E+03</totfact>
</mgrwt>
</event>
<event>
 4    0  0.1379449E-001  0.2923867E+03  0.7546771E-02  0.1089110E+00
         21   -1    0    0  502  501  0.00000000000E+00  0.00000000000E+00  0.16390534051E+03  0.16390534051E+03  0.00000000000E+00 0. -1.
         21   -1    0    0  503  502 -0.00000000000E+00 -0.00000000000E+00 -0.10184149474E+04  0.10184149474E+04  0.00000000000E+00 0.  1.
         25    1    1    2    0    0  0.29078367679E+02  0.26271553722E+03 -0.86973039893E+03  0.91756251655E+03  0.12500000000E+03 0.  0.
         21    1    1    2  503  501 -0.29078367679E+02 -0.26271553722E+03  0.15220792079E+02  0.26475777132E+03  0.00000000000E+00 0. -1.
<mgrwt>
<rscale>  3 0.29238674E+03</rscale>
<asrwt>0</asrwt>
<pdfrwt beam="1">  1       21 0.25216206E-01 0.29238674E+03</pdfrwt>
<pdfrwt beam="2">  1       21 0.15667922E+00 0.29238674E+03</pdfrwt>
<totfact> 0.36890278E+03</totfact>
</mgrwt>
</event>
<event>
 4    0  0.1515682E-001  0.3371771E+03  0.7546771E-02  0.1068005E+00
         21   -1    0    0  502  501  0.00000000000E+00  0.00000000000E+00  0.93139209009E+03  0.93139209009E+03  0.00000000000E+00 0. -1.
         21   -1    0    0  503  502 -0.00000000000E+00 -0.00000000000E+00 -0.62961855266E+03  0.62961855266E+03  0.00000000000E+00 0.  1.
         25    1    1    2    0    0 -0.31129683838E+03 -0.34024789774E+02 -0.55466970359E+03  0.64911238472E+03  0.12500000000E+03 0.  0.
         21    1    1    2  503  501  0.31129683838E+03  0.34024789774E+02  0.85644324102E+03  0.91189825803E+03  0.00000000000E+00 0. -1.
<mgrwt>
<rscale>  3 0.33717712E+03</rscale>
<asrwt>0</asrwt>
<pdfrwt beam="1">  1       21 0.14329109E+00 0.33717712E+03</pdfrwt>
<pdfrwt beam="2">  1       21 0.96864393E-01 0.33717712E+03</pdfrwt>
<totfact> 0.26134289E+02</totfact>
</mgrwt>
</event>
<event>
 4    0  0.2343163E-001  0.2414796E+03  0.7546771E-02  0.1118811E+00
         21   -1    0    0  502  501  0.00000000000E+00  0.00000000000E+00  0.61005359735E+03  0.61005359735E+03  0.00000000000E+00 0. -1.
         21   -1    0    0  503  502 -0.00000000000E+00 -0.00000000000E+00 -0.52427150115E+03  0.52427150115E+03  0.00000000000E+00 0.  1.
         25    1    1    2    0    0 -0.20014700305E+03 -0.51269723897E+02 -0.47709539912E+03  0.53472649764E+03  0.12500000000E+03 0.  0.
         21    1    1    2  503  501  0.20014700305E+03  0.51269723897E+02  0.56287749531E+03  0.59959860086E+03  0.00000000000E+00 0. -1.
<mgrwt>
<rscale>  3 0.24147962E+03</rscale>
<asrwt>0</asrwt>
<pdfrwt beam="1">  1       21 0.93854400E-01 0.24147962E+03</pdfrwt>
<pdfrwt beam="2">  1       21 0.80657154E-01 0.24147962E+03</pdfrwt>
<totfact> 0.12320048E+03</totfact>
</mgrwt>
</event>
<event>
 4    0  0.1486275E-001  0.2360640E+03  0.7546771E-02  0.1122443E+00
         21   -1    0    0  503  501  0.00000000000E+00  0.00000000000E+00  0.24182658072E+03  0.24182658072E+03  0.00000000000E+00 0. -1.
         21   -1    0    0  501  502 -0.00000000000E+00 -0.00000000000E+00 -0.22072525788E+03  0.22072525788E+03  0.00000000000E+00 0. -1.
         25    1    1    2    0    0  0.57646986860E+02 -0.19177596868E+03 -0.64581069747E+02  0.24473845596E+03  0.12500000000E+03 0.  0.
         21    1    1    2  503  502 -0.57646986860E+02  0.19177596868E+03  0.85682392583E+02  0.21781338264E+03  0.00000000000E+00 0. -1.
<mgrwt>
<rscale>  3 0.23606397E+03</rscale>
<asrwt>0</asrwt>
<pdfrwt beam="1">  1       21 0.37204089E-01 0.23606397E+03</pdfrwt>
<pdfrwt beam="2">  1       21 0.33957732E-01 0.23606397E+03</pdfrwt>
<totfact> 0.57110601E+04</totfact>
</mgrwt>
</event>
<event>
 4    0  0.1464236E-001  0.2870287E+03  0.7546771E-02  0.1091911E+00
         21   -1    0    0  502  501  0.00000000000E+00  0.00000000000E+00  0.68235198649E+03  0.68235198649E+03  0.00000000000E+00 0.  1.
         21   -1    0    0  503  502 -0.00000000000E+00 -0.00000000000E+00 -0.16027051681E+03  0.16027051681E+03  0.00000000000E+00 0.  1.
         25    1    1    2    0    0 -0.14532598354E+03  0.21363709074E+03  0.32266866284E+02  0.28883662976E+03  0.12500000000E+03 0.  0.
         21    1    1    2  503  501  0.14532598354E+03 -0.21363709074E+03  0.48981460340E+03  0.55378587354E+03  0.00000000000E+00 0.  1.
<mgrwt>
<rscale>  3 0.28702865E+03</rscale>
<asrwt>0</asrwt>
<pdfrwt beam="1">  1       21 0.10497723E+00 0.28702865E+03</pdfrwt>
<pdfrwt beam="2">  1       21 0.24657003E-01 0.28702865E+03</pdfrwt>
<totfact> 0.10755158E+04</totfact>
</mgrwt>
</event>
<event>
 4    0  0.1632468E-001  0.2481743E+03  0.7546771E-02  0.1114464E+00
         21   -1    0    0  502  501  0.00000000000E+00  0.00000000000E+00  0.38208494817E+03  0.38208494817E+03  0.00000000000E+00 0. -1.
         21   -1    0    0  503  502 -0.00000000000E+00 -0.00000000000E+00 -0.16460369739E+03  0.16460369739E+03  0.00000000000E+00 0. -1.
         25    1    1    2    0    0  0.61094137230E+02  0.20550666850E+03  0.10059710807E+02  0.24837810327E+03  0.12500000000E+03 0.  0.
         21    1    1    2  503  501 -0.61094137230E+02 -0.20550666850E+03  0.20742153997E+03  0.29831054229E+03  0.00000000000E+00 0. -1.
<mgrwt>
<rscale>  3 0.24817430E+03</rscale>
<asrwt>0</asrwt>
<pdfrwt beam="1">  1       21 0.58782300E-01 0.24817430E+03</pdfrwt>
<pdfrwt beam="2">  1       21 0.25323646E-01 0.24817430E+03</pdfrwt>
<totfact> 0.38973612E+04</totfact>
</mgrwt>
</event>
<event>
 4    0  0.1422277E-001  0.2546542E+03  0.7546771E-02  0.1110398E+00
         21   -1    0    0  502  501  0.00000000000E+00  0.00000000000E+00  0.63118437119E+02  0.63118437119E+02  0.00000000000E+00 0. -1.
         21   -1    0    0  503  502 -0.00000000000E+00 -0.00000000000E+00 -0.12086567020E+04  0.12086567020E+04  0.00000000000E+00 0. -1.
         25    1    1    2    0    0  0.21923751956E+03  0.34039464581E+02 -0.92319365090E+03  0.95767180819E+03  0.12500000000E+03 0.  0.
         21    1    1    2  503  501 -0.21923751956E+03 -0.34039464581E+02 -0.22234461394E+03  0.31410333089E+03  0.00000000000E+00 0. -1.
<mgrwt>
<rscale>  3 0.25465423E+03</rscale>
<asrwt>0</asrwt>
<pdfrwt beam="1">  1       21 0.97105291E-02 0.25465423E+03</pdfrwt>
<pdfrwt beam="2">  1       21 0.18594718E+00 0.25465423E+03</pdfrwt>
<totfact> 0.13582259E+04</totfact>
</mgrwt>
</event>
<event>
 4    0  0.1070320E-001  0.3223760E+03  0.7546771E-02  0.1074561E+00
         21   -1    0    0  502  501  0.00000000000E+00  0.00000000000E+00  0.18430984358E+04  0.18430984358E+04  0.00000000000E+00 0.  1.
         21   -1    0    0  503  502 -0.00000000000E+00 -0.00000000000E+00 -0.63622093581E+02  0.63622093581E+02  0.00000000000E+00 0.  1.
         25    1    1    2    0    0  0.18190968485E+03  0.23496835644E+03  0.51326545039E+03  0.60610864086E+03  0.12500000000E+03 0.  0.
         21    1    1    2  503  501 -0.18190968485E+03 -0.23496835644E+03  0.12662108919E+04  0.13006118886E+04  0.00000000000E+00 0.  1.
<mgrwt>
<rscale>  3 0.32237596E+03</rscale>
<asrwt>0</asrwt>
<pdfrwt beam="1">  1       21 0.28355356E+00 0.32237596E+03</pdfrwt>
<pdfrwt beam="2">  1       21 0.97880158E-02 0.32237596E+03</pdfrwt>
<totfact> 0.31865024E+03</totfact>
</mgrwt>
</event>
<event>
 4    0  0.1005289E-001  0.2631895E+03  0.7546771E-02  0.1105242E+00
         21   -1    0    0  503  501  0.00000000000E+00  0.00000000000E+00  0.10685754506E+04  0.10685754506E+04  0.00000000000E+00 0. -1.
         21   -1    0    0  501  502 -0.00000000000E+00 -0.00000000000E+00 -0.62147528180E+02  0.62147528180E+02  0.00000000000E+00 0.  1.
         25    1    1    2    0    0  0.13136395134E+03  0.19075435099E+03  0.37487151972E+03  0.45803642478E+03  0.12500000000E+03 0.  0.
         21    1    1    2  503  502 -0.13136395134E+03 -0.19075435099E+03  0.63155640265E+03  0.67268655395E+03  0.00000000000E+00 0. -1.
<mgrwt>
<rscale>  3 0.26318949E+03</rscale>
<asrwt>0</asrwt>
<pdfrwt beam="1">  1       21 0.16439621E+00 0.26318949E+03</pdfrwt>
<pdfrwt beam="2">  1       21 0.95611589E-02 0.26318949E+03</pdfrwt>
<totfact> 0.19669566E+04</totfact>
</mgrwt>
</event>
<event>
 4    0  0.1005289E-001  0.2698050E+03  0.7546771E-02  0.1101391E+00
         21   -1    0    0  502  501  0.00000000000E+00  0.00000000000E+00  0.16014833568E+03  0.16014833568E+03  0.00000000000E+00 0. -1.
         21   -1    0    0  503  502 -0.00000000000E+00 -0.00000000000E+00 -0.40530826617E+03  0.40530826617E+03  0.00000000000E+00 0.  1.
         25    1    1    2    0    0 -0.16206278229E+03 -0.17579928613E+03 -0.14409386705E+03  0.30587215782E+03  0.12500000000E+03 0.  0.
         21    1    1    2  503  501  0.16206278229E+03  0.17579928613E+03 -0.10106606344E+03  0.25958444404E+03  0.00000000000E+00 0. -1.
<mgrwt>
<rscale>  3 0.26980499E+03</rscale>
<asrwt>0</asrwt>
<pdfrwt beam="1">  1       21 0.24638205E-01 0.26980499E+03</pdfrwt>
<pdfrwt beam="2">  1       21 0.62355118E-01 0.26980499E+03</pdfrwt>
<totfact> 0.35835650E+04</totfact>
</mgrwt>
</event>
<event>
 4    0  0.1235546E-001  0.2420925E+03  0.7546771E-02  0.1118407E+00
         21   -1    0    0  503  501  0.00000000000E+00  0.00000000000E+00  0.52120779120E+02  0.52120779120E+02  0.00000000000E+00 0. -1.
         21   -1    0    0  501  502 -0.00000000000E+00 -0.00000000000E+00 -0.97091776296E+03  0.97091776296E+03  0.00000000000E+00 0. -1.
         25    1    1    2    0    0  0.44047244149E+02 -0.20259226722E+03 -0.47098634330E+03  0.52956295379E+03  0.12500000000E+03 0.  0.
         21    1    1    2  503  502 -0.44047244149E+02  0.20259226722E+03 -0.44781064054E+03  0.49347558829E+03  0.00000000000E+00 0. -1.
<mgrwt>
<rscale>  3 0.24209252E+03</rscale>
<asrwt>0</asrwt>
<pdfrwt beam="1">  1       21 0.80185811E-02 0.24209252E+03</pdfrwt>
<pdfrwt beam="2">  1       21 0.14937197E+00 0.24209252E+03</pdfrwt>
<totfact> 0.35129748E+04</totfact>
</mgrwt>
</event>
<event>
 4    0  0.1563240E-001  0.2581375E+03  0.7546771E-02  0.1108267E+00
         21   -1    0    0  502  501  0.00000000000E+00  0.00000000000E+00  0.27409276254E+03  0.27409276254E+03  0.00000000000E+00 0. -1.
         21   -1    0    0  503  502 -0.00000000000E+00 -0.00000000000E+00 -0.72626613769E+03  0.72626613769E+03  0.00000000000E+00 0.  1.
         25    1    1    2    0    0  0.68132924975E+02  0.21533203673E+03 -0.65046255042E+03  0.69981176827E+03  0.12500000000E+03 0.  0.
         21    1    1    2  503  501 -0.68132924975E+02 -0.21533203673E+03  0.19828917527E+03  0.30054713197E+03  0.00000000000E+00 0. -1.
<mgrwt>
<rscale>  3 0.25813752E+03</rscale>
<asrwt>0</asrwt>
<pdfrwt beam="1">  1       21 0.42168118E-01 0.25813752E+03</pdfrwt>
<pdfrwt beam="2">  1       21 0.11173325E+00 0.25813752E+03</pdfrwt>
<totfact> 0.32391068E+03</totfact>
</mgrwt>
</event>
<event>
 4    0  0.1129388E-001  0.2398123E+03  0.7546771E-02  0.1119918E+00
         21   -1    0    0  503  501  0.00000000000E+00  0.00000000000E+00  0.74854111763E+02  0.74854111763E+02  0.00000000000E+00 0.  1.
         21   -1    0    0  501  502 -0.00000000000E+00 -0.00000000000E+00 -0.12923692931E+04  0.12923692931E+04  0.00000000000E+00 0.  1.
         25    1    1    2    0    0 -0.17653866321E+03 -0.10353268718E+03 -0.11108426149E+04  0.11364335581E+04  0.12500000000E+03 0.  0.
         21    1    1    2  503  502  0.17653866321E+03  0.10353268718E+03 -0.10667256639E+03  0.23078984671E+03  0.00000000000E+00 0.  1.
<mgrwt>
<rscale>  3 0.23981225E+03</rscale>
<asrwt>0</asrwt>
<pdfrwt beam="1">  1       21 0.11516018E-01 0.23981225E+03</pdfrwt>
<pdfrwt beam="2">  1       21 0.19882604E+00 0.23981225E+03</pdfrwt>
<totfact> 0.83124678E+03</totfact>
</mgrwt>
</event>
<event>
 4    0  0.1005289E-001  0.2709070E+03  0.7546771E-02  0.1100762E+00
         21   -1    0    0  502  501  0.00000000000E+00  0.00000000000E+00  0.34601665187E+03  0.34601665187E+03  0.00000000000E+00 0.  1.
         21   -1    0    0  503  502 -0.00000000000E+00 -0.00000000000E+00 -0.23184866034E+03  0.23184866034E+03  0.00000000000E+00 0. -1.
         25    1    1    2    0    0 -0.66442039104E+02 -0.23097846747E+03 -0.64387051217E+02  0.27845338813E+03  0.12500000000E+03 0.  0.
         21    1    1    2  503  501  0.66442039104E+02  0.23097846747E+03  0.17855504274E+03  0.29941192408E+03  0.00000000000E+00 0.  1.
<mgrwt>
<rscale>  3 0.27090699E+03</rscale>
<asrwt>0</asrwt>
<pdfrwt beam="1">  1       21 0.53233331E-01 0.27090699E+03</pdfrwt>
<pdfrwt beam="2">  1       21 0.35669025E-01 0.27090699E+03</pdfrwt>
<totfact> 0.24351296E+04</totfact>
</mgrwt>
</event>
<event>
 4    0  0.1005289E-001  0.2641459E+03  0.7546771E-02  0.1104678E+00
         21   -1    0    0  502  501  0.00000000000E+00  0.00000000000E+00  0.20239027417E+03  0.20239027417E+03  0.00000000000E+00 0.  1.
         21   -1    0    0  503  502 -0.00000000000E+00 -0.00000000000E+00 -0.38454406002E+03  0.38454406002E+03  0.00000000000E+00 0. -1.
         25    1    1    2    0    0  0.22921557531E+03  0.40103141291E+02 -0.22897313474E+03  0.34957365224E+03  0.12500000000E+03 0.  0.
         21    1    1    2  503  501 -0.22921557531E+03 -0.40103141291E+02  0.46819348888E+02  0.23736068195E+03  0.00000000000E+00 0.  1.
<mgrwt>
<rscale>  3 0.26414587E+03</rscale>
<asrwt>0</asrwt>
<pdfrwt beam="1">  1       21 0.31136965E-01 0.26414587E+03</pdfrwt>
<pdfrwt beam="2">  1       21 0.59160624E-01 0.26414587E+03</pdfrwt>
<totfact> 0.25527865E+04</totfact>
</mgrwt>
</event>
<event>
 4    0  0.1194191E-001  0.6171538E+03  0.7546771E-02  0.9870443E-01
         21   -1    0    0  503  501  0.00000000000E+00  0.00000000000E+00  0.55740452845E+03  0.55740452845E+03  0.00000000000E+00 0. -1.
         21   -1    0    0  501  502 -0.00000000000E+00 -0.00000000000E+00 -0.69779147793E+03  0.69779147793E+03  0.00000000000E+00 0. -1.
         25    1    1    2    0    0 -0.42249873327E+03 -0.43214417240E+03 -0.19788988092E+03  0.64810428969E+03  0.12500000000E+03 0.  0.
         21    1    1    2  503  502  0.42249873327E+03  0.43214417240E+03  0.57502931438E+02  0.60709171669E+03  0.00000000000E+00 0. -1.
<mgrwt>
<rscale>  3 0.61715376E+03</rscale>
<asrwt>0</asrwt>
<pdfrwt beam="1">  1       21 0.85754543E-01 0.61715376E+03</pdfrwt>
<pdfrwt beam="2">  1       21 0.10735253E+00 0.61715376E+03</pdfrwt>
<totfact> 0.64484631E+02</totfact>
</mgrwt>
</event>
<event>
 4    0  0.1284835E-001  0.2946722E+03  0.7546771E-02  0.1087935E+00
         21   -1    0    0  502  501  0.00000000000E+00  0.00000000000E+00  0.31655121533E+03  0.31655121533E+03  0.00000000000E+00 0.  1.
         21   -1    0    0  503  502 -0.00000000000E+00 -0.00000000000E+00 -0.51761457471E+03  0.51761457471E+03  0.00000000000E+00 0.  1.
         25    1    1    2    0    0  0.56740625885E+02  0.26074360987E+03 -0.40320117017E+03  0.49940255540E+03  0.12500000000E+03 0.  0.
         21    1    1    2  503  501 -0.56740625885E+02 -0.26074360987E+03  0.20213781080E+03  0.33476323464E+03  0.00000000000E+00 0.  1.
<mgrwt>
<rscale>  3 0.29467224E+03</rscale>
<asrwt>0</asrwt>
<pdfrwt beam="1">  1       21 0.48700187E-01 0.29467224E+03</pdfrwt>
<pdfrwt beam="2">  1       21 0.79633011E-01 0.29467224E+03</pdfrwt>
<totfact> 0.52418484E+03</totfact>
</mgrwt>
</event>
<event>
 4    0  0.1115559E-001  0.2575715E+03  0.7546771E-02  0.1108611E+00
         21   -1    0    0  503  501  0.00000000000E+00  0.00000000000E+00  0.21881048245E+03  0.21881048245E+03  0.00000000000E+00 0.  1.
         21   -1    0    0  501  502 -0.00000000000E+00 -0.00000000000E+00 -0.36634020446E+03  0.36634020446E+03  0.00000000000E+00 0. -1.
         25    1    1    2    0    0  0.12984382115E+03 -0.18400726542E+03 -0.23000262613E+03  0.34531767931E+03  0.12500000000E+03 0.  0.
         21    1    1    2  503  502 -0.12984382115E+03  0.18400726542E+03  0.82472904127E+02  0.23983300760E+03  0.00000000000E+00 0.  1.
<mgrwt>
<rscale>  3 0.25757153E+03</rscale>
<asrwt>0</asrwt>
<pdfrwt beam="1">  1       21 0.33663151E-01 0.25757153E+03</pdfrwt>
<pdfrwt beam="2">  1       21 0.56360031E-01 0.25757153E+03</pdfrwt>
<totfact> 0.24347069E+04</totfact>
</mgrwt>
</event>
<event>
 4    0  0.1005289E-001  0.2829225E+03  0.7546771E-02  0.1094103E+00
         21   -1    0    0  503  501  0.00000000000E+00  0.00000000000E+00  0.20146696459E+03  0.20146696459E+03  0.00000000000E+00 0.  1.
         21   -1    0    0  501  502 -0.00000000000E+00 -0.00000000000E+00 -0.22171883952E+04  0.22171883952E+04  0.00000000000E+00 0.  1.
         25    1    1    2    0    0  0.23814960000E+03  0.87777575675E+02 -0.21239656508E+04  0.21427261189E+04  0.12500000000E+03 0.  0.
         21    1    1    2  503  502 -0.23814960000E+03 -0.87777575675E+02  0.10824422020E+03  0.27592924089E+03  0.00000000000E+00 0.  1.
<mgrwt>
<rscale>  3 0.28292249E+03</rscale>
<asrwt>0</asrwt>
<pdfrwt beam="1">  1       21 0.30994918E-01 0.28292249E+03</pdfrwt>
<pdfrwt beam="2">  1       21 0.34110591E+00 0.28292249E+03</pdfrwt>
<totfact> 0.17457276E+02</totfact>
</mgrwt>
</event>
<event>
 4    0  0.1312669E-001  0.4298488E+03  0.7546771E-02  0.1033908E+00
         21   -1    0    0  503  501  0.00000000000E+00  0.00000000000E+00  0.64254507222E+03  0.64254507222E+03  0.00000000000E+00 0.  1.
         21   -1    0    0  501  502 -0.00000000000E+00 -0.00000000000E+00 -0.37487551372E+03  0.37487551372E+03  0.00000000000E+00 0.  1.
         25    1    1    2    0    0 -0.20041844182E+03 -0.35913424998E+03 -0.12617408355E+03  0.44798421924E+03  0.12500000000E+03 0.  0.
         21    1    1    2  503  502  0.20041844182E+03  0.35913424998E+03  0.39384364205E+03  0.56943636669E+03  0.00000000000E+00 0.  1.
<mgrwt>
<rscale>  3 0.42984877E+03</rscale>
<asrwt>0</asrwt>
<pdfrwt beam="1">  1       21 0.98853088E-01 0.42984877E+03</pdfrwt>
<pdfrwt beam="2">  1       21 0.57673156E-01 0.42984877E+03</pdfrwt>
<totfact> 0.20693460E+03</totfact>
</mgrwt>
</event>
<event>
 4    0  0.1806318E-001  0.2417955E+03  0.7546771E-02  0.1118602E+00
         21   -1    0    0  503  501  0.00000000000E+00  0.00000000000E+00  0.39366492460E+03  0.39366492460E+03  0.00000000000E+00 0. -1.
         21   -1    0    0  501  502 -0.00000000000E+00 -0.00000000000E+00 -0.46033501028E+03  0.46033501028E+03  0.00000000000E+00 0.  1.
         25    1    1    2    0    0  0.21092149265E+02 -0.20590094785E+03 -0.39661464124E+03  0.46450861427E+03  0.12500000000E+03 0.  0.
         21    1    1    2  503  502 -0.21092149265E+02  0.20590094785E+03  0.32994455556E+03  0.38949132061E+03  0.00000000000E+00 0. -1.
<mgrwt>
<rscale>  3 0.24179553E+03</rscale>
<asrwt>0</asrwt>
<pdfrwt beam="1">  1       21 0.60563834E-01 0.24179553E+03</pdfrwt>
<pdfrwt beam="2">  1       21 0.70820771E-01 0.24179553E+03</pdfrwt>
<totfact> 0.44245236E+03</totfact>
</mgrwt>
</event>
<event>
 4    0  0.1005289E-001  0.2487586E+03  0.7546771E-02  0.1114092E+00
         21   -1    0    0  503  501  0.00000000000E+00  0.00000000000E+00  0.21803636228E+04  0.21803636228E+04  0.00000000000E+00 0. -1.
         21   -1    0    0  501  502 -0.00000000000E+00 -0.00000000000E+00 -0.37123667919E+02  0.37123667919E+02  0.00000000000E+00 0.  1.
         25    1    1    2    0    0  0.94897930261E+01 -0.21486226647E+03  0.48222739195E+03  0.54260861334E+03  0.12500000000E+03 0.  0.
         21    1    1    2  503  502 -0.94897930261E+01  0.21486226647E+03  0.16610125630E+04  0.16748786774E+04  0.00000000000E+00 0. -1.
<mgrwt>
<rscale>  3 0.24875862E+03</rscale>
<asrwt>0</asrwt>
<pdfrwt beam="1">  1       21 0.33544046E+00 0.24875862E+03</pdfrwt>
<pdfrwt beam="2">  1       21 0.57113352E-02 0.24875862E+03</pdfrwt>
<totfact> 0.42912272E+03</totfact>
</mgrwt>
</event>
<event>
 4    0  0.1005289E-001  0.4244733E+03  0.7546771E-02  0.1035620E+00
         21   -1    0    0  503  501  0.00000000000E+00  0.00000000000E+00  0.10569461519E+04  0.10569461519E+04  0.00000000000E+00 0.  1.
         21   -1    0    0  501  502 -0.00000000000E+00 -0.00000000000E+00 -0.16510116416E+03  0.16510116416E+03  0.00000000000E+00 0. -1.
         25    1    1    2    0    0  0.35238320644E+03  0.20094431164E+03  0.38690200874E+03  0.57434371672E+03  0.12500000000E+03 0.  0.
         21    1    1    2  503  502 -0.35238320644E+03 -0.20094431164E+03  0.50494297896E+03  0.64770359931E+03  0.00000000000E+00 0.  1.
<mgrwt>
<rscale>  3 0.42447325E+03</rscale>
<asrwt>0</asrwt>
<pdfrwt beam="1">  1       21 0.16260710E+00 0.42447325E+03</pdfrwt>
<pdfrwt beam="2">  1       21 0.25400180E-01 0.42447325E+03</pdfrwt>
<totfact> 0.30777834E+03</totfact>
</mgrwt>
</event>
<event>
 4    0  0.1199190E-001  0.2481995E+03  0.7546771E-02  0.1114448E+00
         21   -1    0    0  503  501  0.00000000000E+00  0.00000000000E+00  0.36141379254E+03  0.36141379254E+03  0.00000000000E+00 0.  1.
         21   -1    0    0  501  502 -0.00000000000E+00 -0.00000000000E+00 -0.30881863216E+03  0.30881863216E+03  0.00000000000E+00 0.  1.
         25    1    1    2    0    0 -0.21364867285E+03 -0.18227021149E+02 -0.21427046890E+03  0.32789451590E+03  0.12500000000E+03 0.  0.
         21    1    1    2  503  502  0.21364867285E+03  0.18227021149E+02  0.26686562928E+03  0.34233790881E+03  0.00000000000E+00 0.  1.
<mgrwt>
<rscale>  3 0.24819948E+03</rscale>
<asrwt>0</asrwt>
<pdfrwt beam="1">  1       21 0.55602122E-01 0.24819948E+03</pdfrwt>
<pdfrwt beam="2">  1       21 0.47510559E-01 0.24819948E+03</pdfrwt>
<totfact> 0.12491162E+04</totfact>
</mgrwt>
</event>
<event>
 4    0  0.1337668E-001  0.2516099E+03  0.7546771E-02  0.1112292E+00
         21   -1    0    0  503  501  0.00000000000E+00  0.00000000000E+00  0.21441901133E+03  0.21441901133E+03  0.00000000000E+00 0.  1.
         21   -1    0    0  501  502 -0.00000000000E+00 -0.00000000000E+00 -0.46796560006E+03  0.46796560006E+03  0.00000000000E+00 0.  1.
         25    1    1    2    0    0  0.16042462230E+03  0.14814339017E+03 -0.36019272388E+03  0.43937036977E+03  0.12500000000E+03 0.  0.
         21    1    1    2  503  502 -0.16042462230E+03 -0.14814339017E+03  0.10664613514E+03  0.24301424163E+03  0.00000000000E+00 0.  1.
<mgrwt>
<rscale>  3 0.25160986E+03</rscale>
<asrwt>0</asrwt>
<pdfrwt beam="1">  1       21 0.32987540E-01 0.25160986E+03</pdfrwt>
<pdfrwt beam="2">  1       21 0.71994707E-01 0.25160986E+03</pdfrwt>
<totfact> 0.14888411E+04</totfact>
</mgrwt>
</event>
<event>
 4    0  0.1336826E-001  0.3357118E+03  0.7546771E-02  0.1068637E+00
         21   -1    0    0  503  501  0.00000000000E+00  0.00000000000E+00  0.86834848319E+02  0.86834848319E+02  0.00000000000E+00 0.  1.
         21   -1    0    0  501  502 -0.00000000000E+00 -0.00000000000E+00 -0.12389868438E+04  0.12389868438E+04  0.00000000000E+00 0.  1.
         25    1    1    2    0    0  0.27282755777E+03 -0.15047440501E+03 -0.70468020828E+03  0.78056173285E+03  0.12500000000E+03 0.  0.
         21    1    1    2  503  502 -0.27282755777E+03  0.15047440501E+03 -0.44747178717E+03  0.54525995924E+03  0.00000000000E+00 0.  1.
<mgrwt>
<rscale>  3 0.33571182E+03</rscale>
<asrwt>0</asrwt>
<pdfrwt beam="1">  1       21 0.13359207E-01 0.33571182E+03</pdfrwt>
<pdfrwt beam="2">  1       21 0.19061337E+00 0.33571182E+03</pdfrwt>
<totfact> 0.68039277E+03</totfact>
</mgrwt>
</event>
<event>
 4    0  0.1005289E-001  0.3763744E+03  0.7546771E-02  0.1052282E+00
         21   -1    0    0  502  501  0.00000000000E+00  0.00000000000E+00  0.24025592821E+04  0.24025592821E+04  0.00000000000E+00 0. -1.
         21   -1    0    0  503  502 -0.00000000000E+00 -0.00000000000E+00 -0.83265347895E+02  0.83265347895E+02  0.00000000000E+00 0. -1.
         25    1    1    2    0    0 -0.63850020700E+02  0.34922175366E+03  0.46686259561E+03  0.59968186695E+03  0.12500000000E+03 0.  0.
         21    1    1    2  503  501  0.63850020700E+02 -0.34922175366E+03  0.18524313386E+04  0.18861427631E+04  0.00000000000E+00 0. -1.
<mgrwt>
<rscale>  3 0.37637436E+03</rscale>
<asrwt>0</asrwt>
<pdfrwt beam="1">  1       21 0.36962445E+00 0.37637436E+03</pdfrwt>
<pdfrwt beam="2">  1       21 0.12810055E-01 0.37637436E+03</pdfrwt>
<totfact> 0.57336878E+02</totfact>
</mgrwt>
</event>
<event>
 4    0  0.1005289E-001  0.2920685E+03  0.7546771E-02  0.1089274E+00
         21   -1    0    0  503  501  0.00000000000E+00  0.00000000000E+00  0.13365071104E+03  0.13365071104E+03  0.00000000000E+00 0. -1.
         21   -1    0    0  501  502 -0.00000000000E+00 -0.00000000000E+00 -0.81805246167E+03  0.81805246167E+03  0.00000000000E+00 0. -1.
         25    1    1    2    0    0 -0.22996123136E+03  0.12960256210E+03 -0.97065370425E+02  0.30777536966E+03  0.12500000000E+03 0.  0.
         21    1    1    2  503  502  0.22996123136E+03 -0.12960256210E+03 -0.58733638020E+03  0.64392780305E+03  0.00000000000E+00 0. -1.
<mgrwt>
<rscale>  3 0.29206847E+03</rscale>
<asrwt>0</asrwt>
<pdfrwt beam="1">  1       21 0.20561647E-01 0.29206847E+03</pdfrwt>
<pdfrwt beam="2">  1       21 0.12585423E+00 0.29206847E+03</pdfrwt>
<totfact> 0.96771251E+03</totfact>
</mgrwt>
</event>
<event>
 4    0  0.1417720E-001  0.2769046E+03  0.7546771E-02  0.1097392E+00
         21   -1    0    0  503  501  0.00000000000E+00  0.00000000000E+00  0.83203860691E+03  0.83203860691E+03  0.00000000000E+00 0.  1.
         21   -1    0    0  501  502 -0.00000000000E+00 -0.00000000000E+00 -0.83654539310E+02  0.83654539310E+02  0.00000000000E+00 0.  1.
         25    1    1    2    0    0  0.23935097133E+03  0.61337358657E+02  0.34143988567E+03  0.43961045776E+03  0.12500000000E+03 0.  0.
         21    1    1    2  503  502 -0.23935097133E+03 -0.61337358657E+02  0.40694418193E+03  0.47608268846E+03  0.00000000000E+00 0.  1.
<mgrwt>
<rscale>  3 0.27690460E+03</rscale>
<asrwt>0</asrwt>
<pdfrwt beam="1">  1       21 0.12800593E+00 0.27690460E+03</pdfrwt>
<pdfrwt beam="2">  1       21 0.12869930E-01 0.27690460E+03</pdfrwt>
<totfact> 0.22217199E+04</totfact>
</mgrwt>
</event>
<event>
 4    0  0.1569304E-001  0.2668071E+03  0.7546771E-02  0.1103121E+00
         21   -1    0    0  503  501  0.00000000000E+00  0.00000000000E+00  0.77417396677E+03  0.77417396677E+03  0.00000000000E+00 0. -1.
         21   -1    0    0  501  502 -0.00000000000E+00 -0.00000000000E+00 -0.89784265394E+03  0.89784265394E+03  0.00000000000E+00 0.  1.
         25    1    1    2    0    0 -0.77579574508E+02 -0.22258126249E+03 -0.85918237907E+03  0.89965569486E+03  0.12500000000E+03 0.  0.
         21    1    1    2  503  502  0.77579574508E+02  0.22258126249E+03  0.73551369191E+03  0.77236092585E+03  0.00000000000E+00 0. -1.
<mgrwt>
<rscale>  3 0.26680706E+03</rscale>
<asrwt>0</asrwt>
<pdfrwt beam="1">  1       21 0.11910369E+00 0.26680706E+03</pdfrwt>
<pdfrwt beam="2">  1       21 0.13812964E+00 0.26680706E+03</pdfrwt>
<totfact> 0.18378468E+02</totfact>
</mgrwt>
</event>
<event>
 4    0  0.1161800E-001  0.2405550E+03  0.7546771E-02  0.1119424E+00
         21   -1    0    0  502  501  0.00000000000E+00  0.00000000000E+00  0.48415331348E+03  0.48415331348E+03  0.00000000000E+00 0.  1.
         21   -1    0    0  503  502 -0.00000000000E+00 -0.00000000000E+00 -0.16023703769E+03  0.16023703769E+03  0.00000000000E+00 0. -1.
         25    1    1    2    0    0  0.17880983378E+03  0.10133496077E+03 -0.22487059270E+02  0.24160380537E+03  0.12500000000E+03 0.  0.
         21    1    1    2  503  501 -0.17880983378E+03 -0.10133496077E+03  0.34640333506E+03  0.40278654580E+03  0.00000000000E+00 0.  1.
<mgrwt>
<rscale>  3 0.24055505E+03</rscale>
<asrwt>0</asrwt>
<pdfrwt beam="1">  1       21 0.74485125E-01 0.24055505E+03</pdfrwt>
<pdfrwt beam="2">  1       21 0.24651852E-01 0.24055505E+03</pdfrwt>
<totfact> 0.24476985E+04</totfact>
</mgrwt>
</event>
<event>
 4    0  0.1356384E-001  0.2504989E+03  0.7546771E-02  0.1112990E+00
         21   -1    0    0  503  501  0.00000000000E+00  0.00000000000E+00  0.15878327706E+03  0.15878327706E+03  0.00000000000E+00 0.  1.
         21   -1    0    0  501  502 -0.00000000000E+00 -0.00000000000E+00 -0.37865156878E+03  0.37865156878E+03  0.00000000000E+00 0.  1.
         25    1    1    2    0    0 -0.18855278391E+03  0.10757569396E+03 -0.36245450082E+02  0.25310751649E+03  0.12500000000E+03 0.  0.
         21    1    1    2  503  502  0.18855278391E+03 -0.10757569396E+03 -0.18362284164E+03  0.28432732936E+03  0.00000000000E+00 0.  1.
<mgrwt>
<rscale>  3 0.25049887E+03</rscale>
<asrwt>0</asrwt>
<pdfrwt beam="1">  1       21 0.24428197E-01 0.25049887E+03</pdfrwt>
<pdfrwt beam="2">  1       21 0.58254087E-01 0.25049887E+03</pdfrwt>
<totfact> 0.42540716E+04</totfact>
</mgrwt>
</event>
<event>
 4    0  0.1005289E-001  0.4066041E+03  0.7546771E-02  0.1041517E+00
         21   -1    0    0  502  501  0.00000000000E+00  0.00000000000E+00  0.17507499653E+04  0.17507499653E+04  0.00000000000E+00 0. -1.
         21   -1    0    0  503  502 -0.00000000000E+00 -0.00000000000E+00 -0.17583967785E+03  0.17583967785E+03  0.00000000000E+00 0. -1.
         25    1    1    2    0    0 -0.36096660067E+03  0.13930199632E+03  0.12417107515E+03  0.42514161038E+03  0.12500000000E+03 0.  0.
         21    1    1    2  503  501  0.36096660067E+03 -0.13930199632E+03  0.14507392123E+04  0.15014480328E+04  0.00000000000E+00 0. -1.
<mgrwt>
<rscale>  3 0.40660415E+03</rscale>
<asrwt>0</asrwt>
<pdfrwt beam="1">  1       21 0.26934614E+00 0.40660415E+03</pdfrwt>
<pdfrwt beam="2">  1       21 0.27052259E-01 0.40660415E+03</pdfrwt>
<totfact> 0.55195482E+02</totfact>
</mgrwt>
</event>
<event>
 4    0  0.1639290E-001  0.2904840E+03  0.7546771E-02  0.1090097E+00
         21   -1    0    0  503  501  0.00000000000E+00  0.00000000000E+00  0.20905395322E+03  0.20905395322E+03  0.00000000000E+00 0. -1.
         21   -1    0    0  501  502 -0.00000000000E+00 -0.00000000000E+00 -0.37750284973E+03  0.37750284973E+03  0.00000000000E+00 0. -1.
         25    1    1    2    0    0 -0.18460483439E+03  0.18621758677E+03 -0.14104306310E+03  0.32291497356E+03  0.12500000000E+03 0.  0.
         21    1    1    2  503  502  0.18460483439E+03 -0.18621758677E+03 -0.27405833415E+02  0.26364182939E+03  0.00000000000E+00 0. -1.
<mgrwt>
<rscale>  3 0.29048397E+03</rscale>
<asrwt>0</asrwt>
<pdfrwt beam="1">  1       21 0.32162146E-01 0.29048397E+03</pdfrwt>
<pdfrwt beam="2">  1       21 0.58077362E-01 0.29048397E+03</pdfrwt>
<totfact> 0.24647565E+04</totfact>
</mgrwt>
</event>
<event>
 4    0  0.1606251E-001  0.2458403E+03  0.7546771E-02  0.1115962E+00
         21   -1    0    0  502  501  0.00000000000E+00  0.00000000000E+00  0.16246794250E+03  0.16246794250E+03  0.00000000000E+00 0.  1.
         21   -1    0    0  503  502 -0.00000000000E+00 -0.00000000000E+00 -0.32637336995E+03  0.32637336995E+03  0.00000000000E+00 0.  1.
         25    1    1    2    0    0 -0.20508644514E+03 -0.52459457428E+02 -0.11583198785E+03  0.27176183335E+03  0.12500000000E+03 0.  0.
         21    1    1    2  503  501  0.20508644514E+03  0.52459457428E+02 -0.48073439596E+02  0.21707947911E+03  0.00000000000E+00 0.  1.
<mgrwt>
<rscale>  3 0.24584028E+03</rscale>
<asrwt>0</asrwt>
<pdfrwt beam="1">  1       21 0.24995068E-01 0.24584028E+03</pdfrwt>
<pdfrwt beam="2">  1       21 0.50211287E-01 0.24584028E+03</pdfrwt>
<totfact> 0.55917334E+04</totfact>
</mgrwt>
</event>
<event>
 4    0  0.1380164E-001  0.2364636E+03  0.7546771E-02  0.1122171E+00
         21   -1    0    0  502  501  0.00000000000E+00  0.00000000000E+00  0.30487801936E+03  0.30487801936E+03  0.00000000000E+00 0.  1.
         21   -1    0    0  503  502 -0.00000000000E+00 -0.00000000000E+00 -0.94800896222E+03  0.94800896222E+03  0.00000000000E+00 0. -1.
         25    1    1    2    0    0  0.86160036616E+02  0.18129112000E+03 -0.89791769998E+03  0.92853175392E+03  0.12500000000E+03 0.  0.
         21    1    1    2  503  501 -0.86160036616E+02 -0.18129112000E+03  0.25478675712E+03  0.32435522765E+03  0.00000000000E+00 0.  1.
<mgrwt>
<rscale>  3 0.23646357E+03</rscale>
<asrwt>0</asrwt>
<pdfrwt beam="1">  1       21 0.46904312E-01 0.23646357E+03</pdfrwt>
<pdfrwt beam="2">  1       21 0.14584753E+00 0.23646357E+03</pdfrwt>
<totfact> 0.13441882E+03</totfact>
</mgrwt>
</event>
<event>
 4    0  0.1005289E-001  0.2538004E+03  0.7546771E-02  0.1110926E+00
         21   -1    0    0  503  501  0.00000000000E+00  0.00000000000E+00  0.17693722262E+03  0.17693722262E+03  0.00000000000E+00 0. -1.
         21   -1    0    0  501  502 -0.00000000000E+00 -0.00000000000E+00 -0.32571150044E+03  0.32571150044E+03  0.00000000000E+00 0.  1.
         25    1    1    2    0    0  0.13166903539E+03 -0.17734966585E+03 -0.41782406988E+02  0.25721665652E+03  0.12500000000E+03 0.  0.
         21    1    1    2  503  502 -0.13166903539E+03  0.17734966585E+03 -0.10699187083E+03  0.24543206653E+03  0.00000000000E+00 0. -1.
<mgrwt>
<rscale>  3 0.25380039E+03</rscale>
<asrwt>0</asrwt>
<pdfrwt beam="1">  1       21 0.27221111E-01 0.25380039E+03</pdfrwt>
<pdfrwt beam="2">  1       21 0.50109461E-01 0.25380039E+03</pdfrwt>
<totfact> 0.47484627E+04</totfact>
</mgrwt>
</event>
<event>
 4    0  0.1005289E-001  0.2451014E+03  0.7546771E-02  0.1116440E+00
         21   -1    0    0  502  501  0.00000000000E+00  0.00000000000E+00  0.17597305754E+04  0.17597305754E+04  0.00000000000E+00 0.  1.
         21   -1    0    0  503  502 -0.00000000000E+00 -0.00000000000E+00 -0.42922958214E+02  0.42922958214E+02  0.00000000000E+00 0. -1.
         25    1    1    2    0    0 -0.24578148522E+02 -0.20939338672E+03  0.40034364030E+03  0.46941421593E+03  0.12500000000E+03 0.  0.
         21    1    1    2  503  501  0.24578148522E+02  0.20939338672E+03  0.13164639769E+04  0.13332393177E+04  0.00000000000E+00 0.  1.
<mgrwt>
<rscale>  3 0.24510136E+03</rscale>
<asrwt>0</asrwt>
<pdfrwt beam="1">  1       21 0.27072773E+00 0.24510136E+03</pdfrwt>
<pdfrwt beam="2">  1       21 0.66035334E-02 0.24510136E+03</pdfrwt>
<totfact> 0.80213478E+03</totfact>
</mgrwt>
</event>
<event>
 4    0  0.1161783E-001  0.2449757E+03  0.7546771E-02  0.1116522E+00
         21   -1    0    0  502  501  0.00000000000E+00  0.00000000000E+00  0.12648633079E+03  0.12648633079E+03  0.00000000000E+00 0. -1.
         21   -1    0    0  503  502 -0.00000000000E+00 -0.00000000000E+00 -0.96875613463E+03  0.96875613463E+03  0.00000000000E+00 0. -1.
         25    1    1    2    0    0 -0.18840100640E+03 -0.94303531880E+02 -0.84981764628E+03  0.88442248234E+03  0.12500000000E+03 0.  0.
         21    1    1    2  503  501  0.18840100640E+03  0.94303531880E+02  0.75478424401E+01  0.21081998308E+03  0.00000000000E+00 0. -1.
<mgrwt>
<rscale>  3 0.24497570E+03</rscale>
<asrwt>0</asrwt>
<pdfrwt beam="1">  1       21 0.19459436E-01 0.24497570E+03</pdfrwt>
<pdfrwt beam="2">  1       21 0.14903940E+00 0.24497570E+03</pdfrwt>
<totfact> 0.71096219E+03</totfact>
</mgrwt>
</event>
<event>
 4    0  0.1005289E-001  0.2394269E+03  0.7546771E-02  0.1120175E+00
         21   -1    0    0  503  501  0.00000000000E+00  0.00000000000E+00  0.33171993114E+02  0.33171993114E+02  0.00000000000E+00 0. -1.
         21   -1    0    0  501  502 -0.00000000000E+00 -0.00000000000E+00 -0.18852584638E+04  0.18852584638E+04  0.00000000000E+00 0. -1.
         25    1    1    2    0    0  0.13884449492E+02  0.20373375834E+03 -0.54204623172E+03  0.59257011361E+03  0.12500000000E+03 0.  0.
         21    1    1    2  503  502 -0.13884449492E+02 -0.20373375834E+03 -0.13100402389E+04  0.13258603433E+04  0.00000000000E+00 0. -1.
<mgrwt>
<rscale>  3 0.23942686E+03</rscale>
<asrwt>0</asrwt>
<pdfrwt beam="1">  1       21 0.51033826E-02 0.23942686E+03</pdfrwt>
<pdfrwt beam="2">  1       21 0.29003982E+00 0.23942686E+03</pdfrwt>
<totfact> 0.96750056E+03</totfact>
</mgrwt>
</event>
<event>
 4    0  0.1282671E-001  0.2415860E+03  0.7546771E-02  0.1118741E+00
         21   -1    0    0  503  501  0.00000000000E+00  0.00000000000E+00  0.54140216138E+03  0.54140216138E+03  0.00000000000E+00 0. -1.
         21   -1    0    0  501  502 -0.00000000000E+00 -0.00000000000E+00 -0.50684226929E+03  0.50684226929E+03  0.00000000000E+00 0. -1.
         25    1    1    2    0    0 -0.71031627464E+02 -0.19414761707E+03 -0.45592255211E+03  0.51597399434E+03  0.12500000000E+03 0.  0.
         21    1    1    2  503  502  0.71031627464E+02  0.19414761707E+03  0.49048244420E+03  0.53227043632E+03  0.00000000000E+00 0. -1.
<mgrwt>
<rscale>  3 0.24158599E+03</rscale>
<asrwt>0</asrwt>
<pdfrwt beam="1">  1       21 0.83292641E-01 0.24158599E+03</pdfrwt>
<pdfrwt beam="2">  1       21 0.77975733E-01 0.24158599E+03</pdfrwt>
<totfact> 0.17549137E+03</totfact>
</mgrwt>
</event>
<event>
 4    0  0.1462477E-001  0.2895358E+03  0.7546771E-02  0.1090592E+00
         21   -1    0    0  502  501  0.00000000000E+00  0.00000000000E+00  0.58773298028E+03  0.58773298028E+03  0.00000000000E+00 0.  1.
         21   -1    0    0  503  502 -0.00000000000E+00 -0.00000000000E+00 -0.15265709675E+03  0.15265709675E+03  0.00000000000E+00 0.  1.
         25    1    1    2    0    0  0.22821324527E+03 -0.12698300795E+03  0.81439442661E+02  0.30077126267E+03  0.12500000000E+03 0.  0.
         21    1    1    2  503  501 -0.22821324527E+03  0.12698300795E+03  0.35363644087E+03  0.43961881436E+03  0.00000000000E+00 0.  1.
<mgrwt>
<rscale>  3 0.28953578E+03</rscale>
<asrwt>0</asrwt>
<pdfrwt beam="1">  1       21 0.90420457E-01 0.28953578E+03</pdfrwt>
<pdfrwt beam="2">  1       21 0.23485707E-01 0.28953578E+03</pdfrwt>
<totfact> 0.16839660E+04</totfact>
</mgrwt>
</event>
<event>
 4    0  0.1092973E-001  0.2746642E+03  0.7546771E-02  0.1098639E+00
         21   -1    0    0  502  501  0.00000000000E+00  0.00000000000E+00  0.62253540789E+03  0.62253540789E+03  0.00000000000E+00 0. -1.
         21   -1    0    0  503  502 -0.00000000000E+00 -0.00000000000E+00 -0.29767970954E+03  0.29767970954E+03  0.00000000000E+00 0. -1.
         25    1    1    2    0    0  0.19009468155E+03 -0.15388130434E+03 -0.20094139718E+03  0.34032027398E+03  0.12500000000E+03 0.  0.
         21    1    1    2  503  501 -0.19009468155E+03  0.15388130434E+03  0.52579709554E+03  0.57989484344E+03  0.00000000000E+00 0. -1.
<mgrwt>
<rscale>  3 0.27466424E+03</rscale>
<asrwt>0</asrwt>
<pdfrwt beam="1">  1       21 0.95774678E-01 0.27466424E+03</pdfrwt>
<pdfrwt beam="2">  1       21 0.45796878E-01 0.27466424E+03</pdfrwt>
<totfact> 0.39223164E+03</totfact>
</mgrwt>
</event>
<event>
 4    0  0.1005289E-001  0.3206800E+03  0.7546771E-02  0.1075337E+00
         21   -1    0    0  502  501  0.00000000000E+00  0.00000000000E+00  0.20461099283E+04  0.20461099283E+04  0.00000000000E+00 0.  1.
         21   -1    0    0  503  502 -0.00000000000E+00 -0.00000000000E+00 -0.50559115537E+02  0.50559115537E+02  0.00000000000E+00 0.  1.
         25    1    1    2    0    0 -0.59740996785E+02 -0.28920866493E+03  0.73364798636E+03  0.80067159713E+03  0.12500000000E+03 0.  0.
         21    1    1    2  503  501  0.59740996785E+02  0.28920866493E+03  0.12619028264E+04  0.12959974467E+04  0.00000000000E+00 0.  1.
<mgrwt>
<rscale>  3 0.32067996E+03</rscale>
<asrwt>0</asrwt>
<pdfrwt beam="1">  1       21 0.31478608E+00 0.32067996E+03</pdfrwt>
<pdfrwt beam="2">  1       21 0.77783270E-02 0.32067996E+03</pdfrwt>
<totfact> 0.31306097E+03</totfact>
</mgrwt>
</event>
<event>
 4    0  0.1334647E-001  0.2466634E+03  0.7546771E-02  0.1115432E+00
         21   -1    0    0  502  501  0.00000000000E+00  0.00000000000E+00  0.45433598973E+03  0.45433598973E+03  0.00000000000E+00 0.  1.
         21   -1    0    0  503  502 -0.00000000000E+00 -0.00000000000E+00 -0.23990946286E+03  0.23990946286E+03  0.00000000000E+00 0.  1.
         25    1    1    2    0    0 -0.98834189097E+02 -0.18828076066E+03 -0.13799512646E+03  0.28264022484E+03  0.12500000000E+03 0.  0.
         21    1    1    2  503  501  0.98834189097E+02  0.18828076066E+03  0.35242165333E+03  0.41160522774E+03  0.00000000000E+00 0.  1.
<mgrwt>
<rscale>  3 0.24666342E+03</rscale>
<asrwt>0</asrwt>
<pdfrwt beam="1">  1       21 0.69897845E-01 0.24666342E+03</pdfrwt>
<pdfrwt beam="2">  1       21 0.36909148E-01 0.24666342E+03</pdfrwt>
<totfact> 0.12738821E+04</totfact>
</mgrwt>
</event>
<event>
 4    0  0.1253866E-001  0.3051918E+03  0.7546771E-02  0.1082674E+00
         21   -1    0    0  502  501  0.00000000000E+00  0.00000000000E+00  0.42461866732E+03  0.42461866732E+03  0.00000000000E+00 0. -1.
         21   -1    0    0  503  502 -0.00000000000E+00 -0.00000000000E+00 -0.23842460560E+03  0.23842460560E+03  0.00000000000E+00 0. -1.
         25    1    1    2    0    0  0.26289498301E+03  0.91669271837E+02  0.22873334391E+03  0.38139345839E+03  0.12500000000E+03 0.  0.
         21    1    1    2  503  501 -0.26289498301E+03 -0.91669271837E+02 -0.42539282191E+02  0.28164981452E+03  0.00000000000E+00 0. -1.
<mgrwt>
<rscale>  3 0.30519179E+03</rscale>
<asrwt>0</asrwt>
<pdfrwt beam="1">  1       21 0.65325949E-01 0.30519179E+03</pdfrwt>
<pdfrwt beam="2">  1       21 0.36680709E-01 0.30519179E+03</pdfrwt>
<totfact> 0.14573675E+04</totfact>
</mgrwt>
</event>
<event>
 4    0  0.1528479E-001  0.3864092E+03  0.7546771E-02  0.1048590E+00
         21   -1    0    0  503  501  0.00000000000E+00  0.00000000000E+00  0.59631260025E+03  0.59631260025E+03  0.00000000000E+00 0. -1.
         21   -1    0    0  501  502 -0.00000000000E+00 -0.00000000000E+00 -0.23816023732E+03  0.23816023732E+03  0.00000000000E+00 0. -1.
         25    1    1    2    0    0  0.36560158949E+03  0.47485874781E+01  0.15630452700E+03  0.41682511498E+03  0.12500000000E+03 0.  0.
         21    1    1    2  503  502 -0.36560158949E+03 -0.47485874781E+01  0.20184783594E+03  0.41764772260E+03  0.00000000000E+00 0. -1.
<mgrwt>
<rscale>  3 0.38640920E+03</rscale>
<asrwt>0</asrwt>
<pdfrwt beam="1">  1       21 0.91740400E-01 0.38640920E+03</pdfrwt>
<pdfrwt beam="2">  1       21 0.36640037E-01 0.38640920E+03</pdfrwt>
<totfact> 0.65168353E+03</totfact>
</mgrwt>
</event>
<event>
 4    0  0.1109033E-001  0.4876400E+03  0.7546771E-02  0.1017056E+00
         21   -1    0    0  503  501  0.00000000000E+00  0.00000000000E+00  0.10927709332E+04  0.10927709332E+04  0.00000000000E+00 0. -1.
         21   -1    0    0  501  502 -0.00000000000E+00 -0.00000000000E+00 -0.94693451592E+03  0.94693451592E+03  0.00000000000E+00 0.  1.
         25    1    1    2    0    0 -0.98684973036E+02  0.46090024195E+03 -0.82622435597E+03  0.95939535298E+03  0.12500000000E+03 0.  0.
         21    1    1    2  503  502  0.98684973036E+02 -0.46090024195E+03  0.97206077330E+03  0.10803100962E+04  0.00000000000E+00 0. -1.
<mgrwt>
<rscale>  3 0.48763999E+03</rscale>
<asrwt>0</asrwt>
<pdfrwt beam="1">  1       21 0.16811860E+00 0.48763999E+03</pdfrwt>
<pdfrwt beam="2">  1       21 0.14568223E+00 0.48763999E+03</pdfrwt>
<totfact> 0.54719555E+01</totfact>
</mgrwt>
</event>
<event>
 4    0  0.1005289E-001  0.3537294E+03  0.7546771E-02  0.1061095E+00
         21   -1    0    0  503  501  0.00000000000E+00  0.00000000000E+00  0.21100046745E+04  0.21100046745E+04  0.00000000000E+00 0. -1.
         21   -1    0    0  501  502 -0.00000000000E+00 -0.00000000000E+00 -0.56130014850E+02  0.56130014850E+02  0.00000000000E+00 0. -1.
         25    1    1    2    0    0 -0.15162161641E+02 -0.33055956600E+03  0.11721392340E+04  0.12243508083E+04  0.12500000000E+03 0.  0.
         21    1    1    2  503  502  0.15162161641E+02  0.33055956600E+03  0.88173542558E+03  0.94178388101E+03  0.00000000000E+00 0. -1.
<mgrwt>
<rscale>  3 0.35372944E+03</rscale>
<asrwt>0</asrwt>
<pdfrwt beam="1">  1       21 0.32461604E+00 0.35372944E+03</pdfrwt>
<pdfrwt beam="2">  1       21 0.86353885E-02 0.35372944E+03</pdfrwt>
<totfact> 0.22223955E+03</totfact>
</mgrwt>
</event>
<event>
 4    0  0.1072474E-001  0.2424602E+03  0.7546771E-02  0.1118165E+00
         21   -1    0    0  503  501  0.00000000000E+00  0.00000000000E+00  0.16869939240E+04  0.16869939240E+04  0.00000000000E+00 0. -1.
         21   -1    0    0  501  502 -0.00000000000E+00 -0.00000000000E+00 -0.24956283680E+03  0.24956283680E+03  0.00000000000E+00 0. -1.
         25    1    1    2    0    0  0.20442118455E+03 -0.37066359938E+02 -0.18243049440E+03  0.30342679680E+03  0.12500000000E+03 0.  0.
         21    1    1    2  503  502 -0.20442118455E+03  0.37066359938E+02  0.16198615816E+04  0.16331299640E+04  0.00000000000E+00 0. -1.
<mgrwt>
<rscale>  3 0.24246017E+03</rscale>
<asrwt>0</asrwt>
<pdfrwt beam="1">  1       21 0.25953752E+00 0.24246017E+03</pdfrwt>
<pdfrwt beam="2">  1       21 0.38394284E-01 0.24246017E+03</pdfrwt>
<totfact> 0.35953310E+02</totfact>
</mgrwt>
</event>
<event>
 4    0  0.1005289E-001  0.2790233E+03  0.7546771E-02  0.1096224E+00
         21   -1    0    0  503  501  0.00000000000E+00  0.00000000000E+00  0.33947932622E+02  0.33947932622E+02  0.00000000000E+00 0.  1.
         21   -1    0    0  501  502 -0.00000000000E+00 -0.00000000000E+00 -0.20579620475E+04  0.20579620475E+04  0.00000000000E+00 0.  1.
         25    1    1    2    0    0  0.40975520044E+02 -0.24606914813E+03 -0.10434241695E+04  0.10800870411E+04  0.12500000000E+03 0.  0.
         21    1    1    2  503  502 -0.40975520044E+02  0.24606914813E+03 -0.98058994540E+03  0.10118229390E+04  0.00000000000E+00 0.  1.
<mgrwt>
<rscale>  3 0.27902333E+03</rscale>
<asrwt>0</asrwt>
<pdfrwt beam="1">  1       21 0.52227585E-02 0.27902333E+03</pdfrwt>
<pdfrwt beam="2">  1       21 0.31660957E+00 0.27902333E+03</pdfrwt>
<totfact> 0.62891409E+03</totfact>
</mgrwt>
</event>
<event>
 4    0  0.1005289E-001  0.3133849E+03  0.7546771E-02  0.1078735E+00
         21   -1    0    0  503  501  0.00000000000E+00  0.00000000000E+00  0.36265937172E+03  0.36265937172E+03  0.00000000000E+00 0.  1.
         21   -1    0    0  501  502 -0.00000000000E+00 -0.00000000000E+00 -0.27601740817E+03  0.27601740817E+03  0.00000000000E+00 0. -1.
         25    1    1    2    0    0  0.21577860114E+03  0.18980170401E+03 -0.55187840097E+02  0.31820714833E+03  0.12500000000E+03 0.  0.
         21    1    1    2  503  502 -0.21577860114E+03 -0.18980170401E+03  0.14182980365E+03  0.32046963157E+03  0.00000000000E+00 0.  1.
<mgrwt>
<rscale>  3 0.31338489E+03</rscale>
<asrwt>0</asrwt>
<pdfrwt beam="1">  1       21 0.55793750E-01 0.31338489E+03</pdfrwt>
<pdfrwt beam="2">  1       21 0.42464216E-01 0.31338489E+03</pdfrwt>
<totfact> 0.15185620E+04</totfact>
</mgrwt>
</event>
<event>
 4    0  0.1586781E-001  0.3527493E+03  0.7546771E-02  0.1061492E+00
         21   -1    0    0  502  501  0.00000000000E+00  0.00000000000E+00  0.29506141408E+03  0.29506141408E+03  0.00000000000E+00 0. -1.
         21   -1    0    0  503  502 -0.00000000000E+00 -0.00000000000E+00 -0.40719719518E+03  0.40719719518E+03  0.00000000000E+00 0. -1.
         25    1    1    2    0    0  0.13245467223E+03  0.30209741650E+03 -0.11913811033E+03  0.37232509798E+03  0.12500000000E+03 0.  0.
         21    1    1    2  503  501 -0.13245467223E+03 -0.30209741650E+03  0.70023292262E+01  0.32993351128E+03  0.00000000000E+00 0. -1.
<mgrwt>
<rscale>  3 0.35274933E+03</rscale>
<asrwt>0</asrwt>
<pdfrwt beam="1">  1       21 0.45394064E-01 0.35274933E+03</pdfrwt>
<pdfrwt beam="2">  1       21 0.62645722E-01 0.35274933E+03</pdfrwt>
<totfact> 0.10126713E+04</totfact>
</mgrwt>
</event>
<event>
 4    0  0.1005289E-001  0.2863173E+03  0.7546771E-02  0.1092288E+00
         21   -1    0    0  502  501  0.00000000000E+00  0.00000000000E+00  0.24694964433E+04  0.24694964433E+04  0.00000000000E+00 0. -1.
         21   -1    0    0  503  502 -0.00000000000E+00 -0.00000000000E+00 -0.35017239150E+02  0.35017239150E+02  0.00000000000E+00 0. -1.
         25    1    1    2    0    0  0.24841023629E+03 -0.68154045700E+02  0.79638055921E+03  0.84628577592E+03  0.12500000000E+03 0.  0.
         21    1    1    2  503  501 -0.24841023629E+03  0.68154045700E+02  0.16380986449E+04  0.16582279065E+04  0.00000000000E+00 0. -1.
<mgrwt>
<rscale>  3 0.28631734E+03</rscale>
<asrwt>0</asrwt>
<pdfrwt beam="1">  1       21 0.37992239E+00 0.28631734E+03</pdfrwt>
<pdfrwt beam="2">  1       21 0.53872695E-02 0.28631734E+03</pdfrwt>
<totfact> 0.24650000E+03</totfact>
</mgrwt>
</event>
<event>
 4    0  0.1005289E-001  0.2996252E+03  0.7546771E-02  0.1085428E+00
         21   -1    0    0  503  501  0.00000000000E+00  0.00000000000E+00  0.26871312335E+03  0.26871312335E+03  0.00000000000E+00 0. -1.
         21   -1    0    0  501  502 -0.00000000000E+00 -0.00000000000E+00 -0.30714535927E+03  0.30714535927E+03  0.00000000000E+00 0.  1.
         25    1    1    2    0    0 -0.26688855542E+03  0.54044235880E+02 -0.47684080145E+02  0.30339586672E+03  0.12500000000E+03 0.  0.
         21    1    1    2  503  502  0.26688855542E+03 -0.54044235880E+02  0.92518442252E+01  0.27246261590E+03  0.00000000000E+00 0. -1.
<mgrwt>
<rscale>  3 0.29962523E+03</rscale>
<asrwt>0</asrwt>
<pdfrwt beam="1">  1       21 0.41340481E-01 0.29962523E+03</pdfrwt>
<pdfrwt beam="2">  1       21 0.47253132E-01 0.29962523E+03</pdfrwt>
<totfact> 0.22936320E+04</totfact>
</mgrwt>
</event>
<event>
 4    0  0.1288544E-001  0.2508198E+03  0.7546771E-02  0.1112788E+00
         21   -1    0    0  502  501  0.00000000000E+00  0.00000000000E+00  0.16209807281E+04  0.16209807281E+04  0.00000000000E+00 0. -1.
         21   -1    0    0  503  502 -0.00000000000E+00 -0.00000000000E+00 -0.35711354637E+02  0.35711354637E+02  0.00000000000E+00 0. -1.
         25    1    1    2    0    0  0.21737866364E+03 -0.56661695291E+01  0.65589237236E+03  0.70221463457E+03  0.12500000000E+03 0.  0.
         21    1    1    2  503  501 -0.21737866364E+03  0.56661695291E+01  0.92937700106E+03  0.95447744813E+03  0.00000000000E+00 0. -1.
<mgrwt>
<rscale>  3 0.25081983E+03</rscale>
<asrwt>0</asrwt>
<pdfrwt beam="1">  1       21 0.24938159E+00 0.25081983E+03</pdfrwt>
<pdfrwt beam="2">  1       21 0.54940558E-02 0.25081983E+03</pdfrwt>
<totfact> 0.14660369E+04</totfact>
</mgrwt>
</event>
<event>
 4    0  0.1388667E-001  0.4418071E+03  0.7546771E-02  0.1030194E+00
         21   -1    0    0  502  501  0.00000000000E+00  0.00000000000E+00  0.32336984771E+03  0.32336984771E+03  0.00000000000E+00 0.  1.
         21   -1    0    0  503  502 -0.00000000000E+00 -0.00000000000E+00 -0.66589666675E+03  0.66589666675E+03  0.00000000000E+00 0.  1.
         25    1    1    2    0    0  0.77727842362E+02 -0.41656563517E+03 -0.35280102586E+03  0.56538669045E+03  0.12500000000E+03 0.  0.
         21    1    1    2  503  501 -0.77727842362E+02  0.41656563517E+03  0.10274206820E+02  0.42387982402E+03  0.00000000000E+00 0.  1.
<mgrwt>
<rscale>  3 0.44180714E+03</rscale>
<asrwt>0</asrwt>
<pdfrwt beam="1">  1       21 0.49749208E-01 0.44180714E+03</pdfrwt>
<pdfrwt beam="2">  1       21 0.10244564E+00 0.44180714E+03</pdfrwt>
<totfact> 0.25943099E+03</totfact>
</mgrwt>
</event>
<event>
 4    0  0.1687030E-001  0.2648573E+03  0.7546771E-02  0.1104260E+00
         21   -1    0    0  502  501  0.00000000000E+00  0.00000000000E+00  0.37867912591E+03  0.37867912591E+03  0.00000000000E+00 0. -1.
         21   -1    0    0  503  502 -0.00000000000E+00 -0.00000000000E+00 -0.20668112863E+03  0.20668112863E+03  0.00000000000E+00 0. -1.
         25    1    1    2    0    0  0.92483677553E+02 -0.21440884611E+03 -0.42552889177E+02  0.26825385791E+03  0.12500000000E+03 0.  0.
         21    1    1    2  503  501 -0.92483677553E+02  0.21440884611E+03  0.21455088646E+03  0.31710639663E+03  0.00000000000E+00 0. -1.
<mgrwt>
<rscale>  3 0.26485729E+03</rscale>
<asrwt>0</asrwt>
<pdfrwt beam="1">  1       21 0.58258327E-01 0.26485729E+03</pdfrwt>
<pdfrwt beam="2">  1       21 0.31797097E-01 0.26485729E+03</pdfrwt>
<totfact> 0.25309574E+04</totfact>
</mgrwt>
</event>
<event>
 4    0  0.1328771E-001  0.2958224E+03  0.7546771E-02  0.1087348E+00
         21   -1    0    0  503  501  0.00000000000E+00  0.00000000000E+00  0.12341242322E+04  0.12341242322E+04  0.00000000000E+00 0. -1.
         21   -1    0    0  501  502 -0.00000000000E+00 -0.00000000000E+00 -0.67041125043E+02  0.67041125043E+02  0.00000000000E+00 0. -1.
         25    1    1    2    0    0  0.61161200754E+02  0.26104634856E+03  0.48268474571E+03  0.56612317769E+03  0.12500000000E+03 0.  0.
         21    1    1    2  503  502 -0.61161200754E+02 -0.26104634856E+03  0.68439836142E+03  0.73504217953E+03  0.00000000000E+00 0. -1.
<mgrwt>
<rscale>  3 0.29582239E+03</rscale>
<asrwt>0</asrwt>
<pdfrwt beam="1">  1       21 0.18986525E+00 0.29582239E+03</pdfrwt>
<pdfrwt beam="2">  1       21 0.10314020E-01 0.29582239E+03</pdfrwt>
<totfact> 0.11213669E+04</totfact>
</mgrwt>
</event>
<event>
 4    0  0.1095602E-001  0.2733819E+03  0.7546771E-02  0.1099360E+00
         21   -1    0    0  502  501  0.00000000000E+00  0.00000000000E+00  0.22008273487E+03  0.22008273487E+03  0.00000000000E+00 0.  1.
         21   -1    0    0  503  502 -0.00000000000E+00 -0.00000000000E+00 -0.87226784673E+03  0.87226784673E+03  0.00000000000E+00 0.  1.
         25    1    1    2    0    0  0.30728236652E+01 -0.24311152915E+03 -0.77367544462E+03  0.82055551394E+03  0.12500000000E+03 0.  0.
         21    1    1    2  503  501 -0.30728236652E+01  0.24311152915E+03  0.12149033276E+03  0.27179506766E+03  0.00000000000E+00 0.  1.
<mgrwt>
<rscale>  3 0.27338189E+03</rscale>
<asrwt>0</asrwt>
<pdfrwt beam="1">  1       21 0.33858883E-01 0.27338189E+03</pdfrwt>
<pdfrwt beam="2">  1       21 0.13419505E+00 0.27338189E+03</pdfrwt>
<totfact> 0.31544619E+03</totfact>
</mgrwt>
</event>
<event>
 4    0  0.1334524E-001  0.2702548E+03  0.7546771E-02  0.1101134E+00
         21   -1    0    0  503  501  0.00000000000E+00  0.00000000000E+00  0.12486293778E+04  0.12486293778E+04  0.00000000000E+00 0.  1.
         21   -1    0    0  501  502 -0.00000000000E+00 -0.00000000000E+00 -0.57639693944E+02  0.57639693944E+02  0.00000000000E+00 0.  1.
         25    1    1    2    0    0 -0.11145889721E+01  0.23960684235E+03  0.42474370331E+03  0.50343310848E+03  0.12500000000E+03 0.  0.
         21    1    1    2  503  502  0.11145889721E+01 -0.23960684235E+03  0.76624598056E+03  0.80283596328E+03  0.00000000000E+00 0.  1.
<mgrwt>
<rscale>  3 0.27025484E+03</rscale>
<asrwt>0</asrwt>
<pdfrwt beam="1">  1       21 0.19209681E+00 0.27025484E+03</pdfrwt>
<pdfrwt beam="2">  1       21 0.88676461E-02 0.27025484E+03</pdfrwt>
<totfact> 0.14373116E+04</totfact>
</mgrwt>
</event>
<event>
 4    0  0.1142260E-001  0.3173056E+03  0.7546771E-02  0.1076896E+00
         21   -1    0    0  503  501  0.00000000000E+00  0.00000000000E+00  0.11591499416E+04  0.11591499416E+04  0.00000000000E+00 0. -1.
         21   -1    0    0  501  502 -0.00000000000E+00 -0.00000000000E+00 -0.86123522947E+02  0.86123522947E+02  0.00000000000E+00 0. -1.
         25    1    1    2    0    0 -0.25622723051E+03 -0.13930339933E+03  0.72370145807E+03  0.79020670152E+03  0.12500000000E+03 0.  0.
         21    1    1    2  503  502  0.25622723051E+03  0.13930339933E+03  0.34932496056E+03  0.45506676300E+03  0.00000000000E+00 0. -1.
<mgrwt>
<rscale>  3 0.31730558E+03</rscale>
<asrwt>0</asrwt>
<pdfrwt beam="1">  1       21 0.17833075E+00 0.31730558E+03</pdfrwt>
<pdfrwt beam="2">  1       21 0.13249774E-01 0.31730558E+03</pdfrwt>
<totfact> 0.84651652E+03</totfact>
</mgrwt>
</event>
<event>
 4    0  0.1486410E-001  0.2726993E+03  0.7546771E-02  0.1099745E+00
         21   -1    0    0  502  501  0.00000000000E+00  0.00000000000E+00  0.67965990770E+03  0.67965990770E+03  0.00000000000E+00 0.  1.
         21   -1    0    0  503  502 -0.00000000000E+00 -0.00000000000E+00 -0.97581818552E+02  0.97581818552E+02  0.00000000000E+00 0.  1.
         25    1    1    2    0    0  0.24190648169E+03  0.14870932770E+02  0.30872263362E+03  0.41191571350E+03  0.12500000000E+03 0.  0.
         21    1    1    2  503  501 -0.24190648169E+03 -0.14870932770E+02  0.27335545553E+03  0.36532601275E+03  0.00000000000E+00 0.  1.
<mgrwt>
<rscale>  3 0.27269927E+03</rscale>
<asrwt>0</asrwt>
<pdfrwt beam="1">  1       21 0.10456306E+00 0.27269927E+03</pdfrwt>
<pdfrwt beam="2">  1       21 0.15012588E-01 0.27269927E+03</pdfrwt>
<totfact> 0.27751885E+04</totfact>
</mgrwt>
</event>
<event>
 4    0  0.1484482E-001  0.3806291E+03  0.7546771E-02  0.1050701E+00
         21   -1    0    0  503  501  0.00000000000E+00  0.00000000000E+00  0.85961283985E+03  0.85961283985E+03  0.00000000000E+00 0.  1.
         21   -1    0    0  501  502 -0.00000000000E+00 -0.00000000000E+00 -0.65178546504E+03  0.65178546504E+03  0.00000000000E+00 0. -1.
         25    1    1    2    0    0 -0.31163332373E+03  0.17927130946E+03 -0.55217332400E+03  0.67065185498E+03  0.12500000000E+03 0.  0.
         21    1    1    2  503  502  0.31163332373E+03 -0.17927130946E+03  0.76000069881E+03  0.84074644991E+03  0.00000000000E+00 0.  1.
<mgrwt>
<rscale>  3 0.38062913E+03</rscale>
<asrwt>0</asrwt>
<pdfrwt beam="1">  1       21 0.13224813E+00 0.38062913E+03</pdfrwt>
<pdfrwt beam="2">  1       21 0.10027469E+00 0.38062913E+03</pdfrwt>
<totfact> 0.28878485E+02</totfact>
</mgrwt>
</event>
<event>
 4    0  0.1258047E-001  0.2798964E+03  0.7546771E-02  0.1095746E+00
         21   -1    0    0  503  501  0.00000000000E+00  0.00000000000E+00  0.78153002779E+02  0.78153002779E+02  0.00000000000E+00 0.  1.
         21   -1    0    0  501  502 -0.00000000000E+00 -0.00000000000E+00 -0.12405439061E+04  0.12405439061E+04  0.00000000000E+00 0.  1.
         25    1    1    2    0    0 -0.16937794482E+03  0.18446710515E+03 -0.94984684268E+03  0.99022776452E+03  0.12500000000E+03 0.  0.
         21    1    1    2  503  502  0.16937794482E+03 -0.18446710515E+03 -0.21254406061E+03  0.32846914433E+03  0.00000000000E+00 0.  1.
<mgrwt>
<rscale>  3 0.27989641E+03</rscale>
<asrwt>0</asrwt>
<pdfrwt beam="1">  1       21 0.12023540E-01 0.27989641E+03</pdfrwt>
<pdfrwt beam="2">  1       21 0.19085290E+00 0.27989641E+03</pdfrwt>
<totfact> 0.84599790E+03</totfact>
</mgrwt>
</event>
<event>
 4    0  0.1802913E-001  0.2978375E+03  0.7546771E-02  0.1086327E+00
         21   -1    0    0  503  501  0.00000000000E+00  0.00000000000E+00  0.94303393019E+03  0.94303393019E+03  0.00000000000E+00 0.  1.
         21   -1    0    0  501  502 -0.00000000000E+00 -0.00000000000E+00 -0.35361761585E+03  0.35361761585E+03  0.00000000000E+00 0. -1.
         25    1    1    2    0    0  0.19171740548E+03  0.19059537302E+03 -0.26612717081E+03  0.39941310797E+03  0.12500000000E+03 0.  0.
         21    1    1    2  503  502 -0.19171740548E+03 -0.19059537302E+03  0.85554348514E+03  0.89723843807E+03  0.00000000000E+00 0.  1.
<mgrwt>
<rscale>  3 0.29783747E+03</rscale>
<asrwt>0</asrwt>
<pdfrwt beam="1">  1       21 0.14508214E+00 0.29783747E+03</pdfrwt>
<pdfrwt beam="2">  1       21 0.54402711E-01 0.29783747E+03</pdfrwt>
<totfact> 0.95278138E+02</totfact>
</mgrwt>
</event>
<event>
 4    0  0.1655308E-001  0.3023431E+03  0.7546771E-02  0.1084075E+00
         21   -1    0    0  502  501  0.00000000000E+00  0.00000000000E+00  0.32273218446E+03  0.32273218446E+03  0.00000000000E+00 0. -1.
         21   -1    0    0  503  502 -0.00000000000E+00 -0.00000000000E+00 -0.27325959638E+03  0.27325959638E+03  0.00000000000E+00 0. -1.
         25    1    1    2    0    0 -0.95339646217E+02 -0.25825706100E+03 -0.43427583563E+02  0.30544608806E+03  0.12500000000E+03 0.  0.
         21    1    1    2  503  501  0.95339646217E+02  0.25825706100E+03  0.92900171646E+02  0.29054569277E+03  0.00000000000E+00 0. -1.
<mgrwt>
<rscale>  3 0.30234311E+03</rscale>
<asrwt>0</asrwt>
<pdfrwt beam="1">  1       21 0.49651106E-01 0.30234311E+03</pdfrwt>
<pdfrwt beam="2">  1       21 0.42039938E-01 0.30234311E+03</pdfrwt>
<totfact> 0.19952253E+04</totfact>
</mgrwt>
</event>
<event>
 4    0  0.1082347E-001  0.2594285E+03  0.7546771E-02  0.1107487E+00
         21   -1    0    0  503  501  0.00000000000E+00  0.00000000000E+00  0.33320681722E+03  0.33320681722E+03  0.00000000000E+00 0.  1.
         21   -1    0    0  501  502 -0.00000000000E+00 -0.00000000000E+00 -0.24943005586E+03  0.24943005586E+03  0.00000000000E+00 0. -1.
         25    1    1    2    0    0 -0.75875398312E+02 -0.21429208203E+03 -0.11205077503E+03  0.28259254886E+03  0.12500000000E+03 0.  0.
         21    1    1    2  503  502  0.75875398312E+02  0.21429208203E+03  0.19582753639E+03  0.30004432422E+03  0.00000000000E+00 0.  1.
<mgrwt>
<rscale>  3 0.25942855E+03</rscale>
<asrwt>0</asrwt>
<pdfrwt beam="1">  1       21 0.51262588E-01 0.25942855E+03</pdfrwt>
<pdfrwt beam="2">  1       21 0.38373855E-01 0.25942855E+03</pdfrwt>
<totfact> 0.22878769E+04</totfact>
</mgrwt>
</event>
<event>
 4    0  0.1005289E-001  0.2539140E+03  0.7546771E-02  0.1110856E+00
         21   -1    0    0  503  501  0.00000000000E+00  0.00000000000E+00  0.11800860136E+03  0.11800860136E+03  0.00000000000E+00 0. -1.
         21   -1    0    0  501  502 -0.00000000000E+00 -0.00000000000E+00 -0.86475298345E+03  0.86475298345E+03  0.00000000000E+00 0. -1.
         25    1    1    2    0    0 -0.14915780482E+03 -0.16309289297E+03 -0.59416246796E+02  0.26077314444E+03  0.12500000000E+03 0.  0.
         21    1    1    2  503  502  0.14915780482E+03  0.16309289297E+03 -0.68732813529E+03  0.72198844037E+03  0.00000000000E+00 0. -1.
<mgrwt>
<rscale>  3 0.25391405E+03</rscale>
<asrwt>0</asrwt>
<pdfrwt beam="1">  1       21 0.18155169E-01 0.25391405E+03</pdfrwt>
<pdfrwt beam="2">  1       21 0.13303892E+00 0.25391405E+03</pdfrwt>
<totfact> 0.10826379E+04</totfact>
</mgrwt>
</event>
<event>
 4    0  0.1005289E-001  0.3130811E+03  0.7546771E-02  0.1078878E+00
         21   -1    0    0  503  501  0.00000000000E+00  0.00000000000E+00  0.12317716147E+04  0.12317716147E+04  0.00000000000E+00 0. -1.
         21   -1    0    0  501  502 -0.00000000000E+00 -0.00000000000E+00 -0.74401785678E+02  0.74401785678E+02  0.00000000000E+00 0.  1.
         25    1    1    2    0    0  0.78104605581E+02 -0.27621443896E+03  0.51691594152E+03  0.60433586382E+03  0.12500000000E+03 0.  0.
         21    1    1    2  503  502 -0.78104605581E+02  0.27621443896E+03  0.64045388751E+03  0.70183753657E+03  0.00000000000E+00 0. -1.
<mgrwt>
<rscale>  3 0.31308105E+03</rscale>
<asrwt>0</asrwt>
<pdfrwt beam="1">  1       21 0.18950331E+00 0.31308105E+03</pdfrwt>
<pdfrwt beam="2">  1       21 0.11446429E-01 0.31308105E+03</pdfrwt>
<totfact> 0.92693427E+03</totfact>
</mgrwt>
</event>
<event>
 4    0  0.1488663E-001  0.2611805E+03  0.7546771E-02  0.1106436E+00
         21   -1    0    0  503  501  0.00000000000E+00  0.00000000000E+00  0.47561994917E+03  0.47561994917E+03  0.00000000000E+00 0.  1.
         21   -1    0    0  501  502 -0.00000000000E+00 -0.00000000000E+00 -0.12651251303E+03  0.12651251303E+03  0.00000000000E+00 0.  1.
         25    1    1    2    0    0 -0.95890526407E+02 -0.20831523614E+03  0.19173704142E+03  0.32400358597E+03  0.12500000000E+03 0.  0.
         21    1    1    2  503  502  0.95890526407E+02  0.20831523614E+03  0.15737039472E+03  0.27812887624E+03  0.00000000000E+00 0.  1.
<mgrwt>
<rscale>  3 0.26118046E+03</rscale>
<asrwt>0</asrwt>
<pdfrwt beam="1">  1       21 0.73172299E-01 0.26118046E+03</pdfrwt>
<pdfrwt beam="2">  1       21 0.19463464E-01 0.26118046E+03</pdfrwt>
<totfact> 0.39509131E+04</totfact>
</mgrwt>
</event>
<event>
 4    0  0.1355901E-001  0.3578744E+03  0.7546771E-02  0.1059429E+00
         21   -1    0    0  502  501  0.00000000000E+00  0.00000000000E+00  0.24487652223E+03  0.24487652223E+03  0.00000000000E+00 0.  1.
         21   -1    0    0  503  502 -0.00000000000E+00 -0.00000000000E+00 -0.53728236926E+03  0.53728236926E+03  0.00000000000E+00 0.  1.
         25    1    1    2    0    0  0.33023332122E+03 -0.58266903885E+02 -0.35313655776E+02  0.35961247589E+03  0.12500000000E+03 0.  0.
         21    1    1    2  503  501 -0.33023332122E+03  0.58266903885E+02 -0.25709219125E+03  0.42254641560E+03  0.00000000000E+00 0.  1.
<mgrwt>
<rscale>  3 0.35787439E+03</rscale>
<asrwt>0</asrwt>
<pdfrwt beam="1">  1       21 0.37673311E-01 0.35787439E+03</pdfrwt>
<pdfrwt beam="2">  1       21 0.82658826E-01 0.35787439E+03</pdfrwt>
<totfact> 0.79474579E+03</totfact>
</mgrwt>
</event>
<event>
 4    0  0.1005289E-001  0.2449309E+03  0.7546771E-02  0.1116551E+00
         21   -1    0    0  502  501  0.00000000000E+00  0.00000000000E+00  0.10763219817E+04  0.10763219817E+04  0.00000000000E+00 0. -1.
         21   -1    0    0  503  502 -0.00000000000E+00 -0.00000000000E+00 -0.69972518870E+02  0.69972518870E+02  0.00000000000E+00 0. -1.
         25    1    1    2    0    0  0.23386033122E+02  0.20933045883E+03  0.84831869780E+03  0.88296985259E+03  0.12500000000E+03 0.  0.
         21    1    1    2  503  501 -0.23386033122E+02 -0.20933045883E+03  0.15803076502E+03  0.26332464798E+03  0.00000000000E+00 0. -1.
<mgrwt>
<rscale>  3 0.24493090E+03</rscale>
<asrwt>0</asrwt>
<pdfrwt beam="1">  1       21 0.16558799E+00 0.24493090E+03</pdfrwt>
<pdfrwt beam="2">  1       21 0.10765004E-01 0.24493090E+03</pdfrwt>
<totfact> 0.15773473E+04</totfact>
</mgrwt>
</event>
<event>
 4    0  0.1005289E-001  0.3158178E+03  0.7546771E-02  0.1077590E+00
         21   -1    0    0  503  501  0.00000000000E+00  0.00000000000E+00  0.17921761514E+04  0.17921761514E+04  0.00000000000E+00 0. -1.
         21   -1    0    0  501  502 -0.00000000000E+00 -0.00000000000E+00 -0.10177206092E+03  0.10177206092E+03  0.00000000000E+00 0. -1.
         25    1    1    2    0    0  0.26439825102E+03 -0.11920342391E+03  0.19607481732E+03  0.37173407888E+03  0.12500000000E+03 0.  0.
         21    1    1    2  503  502 -0.26439825102E+03  0.11920342391E+03  0.14943292732E+04  0.15222141335E+04  0.00000000000E+00 0. -1.
<mgrwt>
<rscale>  3 0.31581781E+03</rscale>
<asrwt>0</asrwt>
<pdfrwt beam="1">  1       21 0.27571939E+00 0.31581781E+03</pdfrwt>
<pdfrwt beam="2">  1       21 0.15657241E-01 0.31581781E+03</pdfrwt>
<totfact> 0.15190306E+03</totfact>
</mgrwt>
</event>
<event>
 4    0  0.1135591E-001  0.2681708E+03  0.7546771E-02  0.1102331E+00
         21   -1    0    0  503  501  0.00000000000E+00  0.00000000000E+00  0.43863263210E+03  0.43863263210E+03  0.00000000000E+00 0. -1.
         21   -1    0    0  501  502 -0.00000000000E+00 -0.00000000000E+00 -0.57627997457E+03  0.57627997457E+03  0.00000000000E+00 0. -1.
         25    1    1    2    0    0  0.17660333606E+03  0.15843560605E+03 -0.50837224382E+03  0.57476770774E+03  0.12500000000E+03 0.  0.
         21    1    1    2  503  502 -0.17660333606E+03 -0.15843560605E+03  0.37072490135E+03  0.44014489893E+03  0.00000000000E+00 0. -1.
<mgrwt>
<rscale>  3 0.26817080E+03</rscale>
<asrwt>0</asrwt>
<pdfrwt beam="1">  1       21 0.67481944E-01 0.26817080E+03</pdfrwt>
<pdfrwt beam="2">  1       21 0.88658457E-01 0.26817080E+03</pdfrwt>
<totfact> 0.20598496E+03</totfact>
</mgrwt>
</event>
<event>
 4    0  0.1005289E-001  0.2415192E+03  0.7546771E-02  0.1118785E+00
         21   -1    0    0  503  501  0.00000000000E+00  0.00000000000E+00  0.51085780232E+02  0.51085780232E+02  0.00000000000E+00 0. -1.
         21   -1    0    0  501  502 -0.00000000000E+00 -0.00000000000E+00 -0.18385453791E+04  0.18385453791E+04  0.00000000000E+00 0.  1.
         25    1    1    2    0    0  0.20619917706E+03  0.13726101030E+02 -0.15743849589E+04  0.15928024062E+04  0.12500000000E+03 0.  0.
         21    1    1    2  503  502 -0.20619917706E+03 -0.13726101030E+02 -0.21307463995E+03  0.29682875309E+03  0.00000000000E+00 0. -1.
<mgrwt>
<rscale>  3 0.24151916E+03</rscale>
<asrwt>0</asrwt>
<pdfrwt beam="1">  1       21 0.78593515E-02 0.24151916E+03</pdfrwt>
<pdfrwt beam="2">  1       21 0.28285311E+00 0.24151916E+03</pdfrwt>
<totfact> 0.50481658E+03</totfact>
</mgrwt>
</event>
<event>
 4    0  0.1791962E-001  0.3022249E+03  0.7546771E-02  0.1084134E+00
         21   -1    0    0  503  501  0.00000000000E+00  0.00000000000E+00  0.80052772560E+03  0.80052772560E+03  0.00000000000E+00 0.  1.
         21   -1    0    0  501  502 -0.00000000000E+00 -0.00000000000E+00 -0.82161166006E+03  0.82161166006E+03  0.00000000000E+00 0. -1.
         25    1    1    2    0    0  0.27495942716E+03 -0.10592975101E+02 -0.76844079822E+03  0.82573673654E+03  0.12500000000E+03 0.  0.
         21    1    1    2  503  502 -0.27495942716E+03  0.10592975101E+02  0.74735686376E+03  0.79640264911E+03  0.00000000000E+00 0.  1.
<mgrwt>
<rscale>  3 0.30222491E+03</rscale>
<asrwt>0</asrwt>
<pdfrwt beam="1">  1       21 0.12315811E+00 0.30222491E+03</pdfrwt>
<pdfrwt beam="2">  1       21 0.12640179E+00 0.30222491E+03</pdfrwt>
<totfact> 0.20585327E+02</totfact>
</mgrwt>
</event>
<event>
 4    0  0.1401916E-001  0.2608125E+03  0.7546771E-02  0.1106656E+00
         21   -1    0    0  503  501  0.00000000000E+00  0.00000000000E+00  0.84757751820E+03  0.84757751820E+03  0.00000000000E+00 0.  1.
         21   -1    0    0  501  502 -0.00000000000E+00 -0.00000000000E+00 -0.83226135015E+02  0.83226135015E+02  0.00000000000E+00 0.  1.
         25    1    1    2    0    0 -0.18413803714E+03 -0.13598279501E+03  0.22338644191E+03  0.34340157205E+03  0.12500000000E+03 0.  0.
         21    1    1    2  503  502  0.18413803714E+03  0.13598279501E+03  0.54096494128E+03  0.58740208116E+03  0.00000000000E+00 0.  1.
<mgrwt>
<rscale>  3 0.26081246E+03</rscale>
<asrwt>0</asrwt>
<pdfrwt beam="1">  1       21 0.13039654E+00 0.26081246E+03</pdfrwt>
<pdfrwt beam="2">  1       21 0.12804021E-01 0.26081246E+03</pdfrwt>
<totfact> 0.21556588E+04</totfact>
</mgrwt>
</event>
<event>
 4    0  0.1155940E-001  0.2422387E+03  0.7546771E-02  0.1118310E+00
         21   -1    0    0  503  501  0.00000000000E+00  0.00000000000E+00  0.10925530901E+04  0.10925530901E+04  0.00000000000E+00 0.  1.
         21   -1    0    0  501  502 -0.00000000000E+00 -0.00000000000E+00 -0.48882471217E+02  0.48882471217E+02  0.00000000000E+00 0.  1.
         25    1    1    2    0    0 -0.15967173028E+03  0.13251233647E+03  0.69127079757E+03  0.73248542397E+03  0.12500000000E+03 0.  0.
         21    1    1    2  503  502  0.15967173028E+03 -0.13251233647E+03  0.35239982128E+03  0.40895013731E+03  0.00000000000E+00 0.  1.
<mgrwt>
<rscale>  3 0.24223869E+03</rscale>
<asrwt>0</asrwt>
<pdfrwt beam="1">  1       21 0.16808507E+00 0.24223869E+03</pdfrwt>
<pdfrwt beam="2">  1       21 0.75203810E-02 0.24223869E+03</pdfrwt>
<totfact> 0.28534447E+04</totfact>
</mgrwt>
</event>
<event>
 4    0  0.1039946E-001  0.2464875E+03  0.7546771E-02  0.1115545E+00
         21   -1    0    0  503  501  0.00000000000E+00  0.00000000000E+00  0.90276981858E+03  0.90276981858E+03  0.00000000000E+00 0.  1.
         21   -1    0    0  501  502 -0.00000000000E+00 -0.00000000000E+00 -0.93594166316E+03  0.93594166316E+03  0.00000000000E+00 0.  1.
         25    1    1    2    0    0  0.16696621196E+03 -0.13135204721E+03 -0.90675935385E+03  0.93966409000E+03  0.12500000000E+03 0.  0.
         21    1    1    2  503  502 -0.16696621196E+03  0.13135204721E+03  0.87358750927E+03  0.89904739174E+03  0.00000000000E+00 0.  1.
<mgrwt>
<rscale>  3 0.24648748E+03</rscale>
<asrwt>0</asrwt>
<pdfrwt beam="1">  1       21 0.13888766E+00 0.24648748E+03</pdfrwt>
<pdfrwt beam="2">  1       21 0.14399103E+00 0.24648748E+03</pdfrwt>
<totfact> 0.11377966E+02</totfact>
</mgrwt>
</event>
<event>
 4    0  0.1268116E-001  0.3366513E+03  0.7546771E-02  0.1068231E+00
         21   -1    0    0  502  501  0.00000000000E+00  0.00000000000E+00  0.14702934416E+04  0.14702934416E+04  0.00000000000E+00 0.  1.
         21   -1    0    0  503  502 -0.00000000000E+00 -0.00000000000E+00 -0.72491408477E+02  0.72491408477E+02  0.00000000000E+00 0.  1.
         25    1    1    2    0    0 -0.51409415167E+02  0.30832806612E+03  0.64248859651E+03  0.72534524261E+03  0.12500000000E+03 0.  0.
         21    1    1    2  503  501  0.51409415167E+02 -0.30832806612E+03  0.75531343657E+03  0.81743960743E+03  0.00000000000E+00 0.  1.
<mgrwt>
<rscale>  3 0.33665134E+03</rscale>
<asrwt>0</asrwt>
<pdfrwt beam="1">  1       21 0.22619897E+00 0.33665134E+03</pdfrwt>
<pdfrwt beam="2">  1       21 0.11152525E-01 0.33665134E+03</pdfrwt>
<totfact> 0.55519273E+03</totfact>
</mgrwt>
</event>
<event>
 4    0  0.1403597E-001  0.2495507E+03  0.7546771E-02  0.1113589E+00
         21   -1    0    0  503  501  0.00000000000E+00  0.00000000000E+00  0.61199096080E+03  0.61199096080E+03  0.00000000000E+00 0.  1.
         21   -1    0    0  501  502 -0.00000000000E+00 -0.00000000000E+00 -0.17292033497E+03  0.17292033497E+03  0.00000000000E+00 0. -1.
         25    1    1    2    0    0 -0.11022185074E+03  0.18574628560E+03 -0.46157401617E+02  0.25378346030E+03  0.12500000000E+03 0.  0.
         21    1    1    2  503  502  0.11022185074E+03 -0.18574628560E+03  0.48522802745E+03  0.53112783548E+03  0.00000000000E+00 0.  1.
<mgrwt>
<rscale>  3 0.24955067E+03</rscale>
<asrwt>0</asrwt>
<pdfrwt beam="1">  1       21 0.94152454E-01 0.24955067E+03</pdfrwt>
<pdfrwt beam="2">  1       21 0.26603129E-01 0.24955067E+03</pdfrwt>
<totfact> 0.12284385E+04</totfact>
</mgrwt>
</event>
<event>
 4    0  0.1215619E-001  0.2530339E+03  0.7546771E-02  0.1111402E+00
         21   -1    0    0  503  501  0.00000000000E+00  0.00000000000E+00  0.12496095866E+04  0.12496095866E+04  0.00000000000E+00 0. -1.
         21   -1    0    0  501  502 -0.00000000000E+00 -0.00000000000E+00 -0.50038515285E+02  0.50038515285E+02  0.00000000000E+00 0. -1.
         25    1    1    2    0    0 -0.17723737930E+02  0.21928750588E+03  0.42679230404E+03  0.49616309004E+03  0.12500000000E+03 0.  0.
         21    1    1    2  503  502  0.17723737930E+02 -0.21928750588E+03  0.77277876730E+03  0.80348501187E+03  0.00000000000E+00 0. -1.
<mgrwt>
<rscale>  3 0.25303387E+03</rscale>
<asrwt>0</asrwt>
<pdfrwt beam="1">  1       21 0.19224760E+00 0.25303387E+03</pdfrwt>
<pdfrwt beam="2">  1       21 0.76982341E-02 0.25303387E+03</pdfrwt>
<totfact> 0.18568654E+04</totfact>
</mgrwt>
</event>
<event>
 4    0  0.1174834E-001  0.5413372E+03  0.7546771E-02  0.1003519E+00
         21   -1    0    0  502  501  0.00000000000E+00  0.00000000000E+00  0.62399616514E+03  0.62399616514E+03  0.00000000000E+00 0. -1.
         21   -1    0    0  503  502 -0.00000000000E+00 -0.00000000000E+00 -0.13486656414E+04  0.13486656414E+04  0.00000000000E+00 0.  1.
         25    1    1    2    0    0 -0.49088211400E+03 -0.19093385465E+03 -0.11659759031E+04  0.12855138246E+04  0.12500000000E+03 0.  0.
         21    1    1    2  503  501  0.49088211400E+03  0.19093385465E+03  0.44130642683E+03  0.68714798192E+03  0.00000000000E+00 0. -1.
<mgrwt>
<rscale>  3 0.54133722E+03</rscale>
<asrwt>0</asrwt>
<pdfrwt beam="1">  1       21 0.95999410E-01 0.54133722E+03</pdfrwt>
<pdfrwt beam="2">  1       21 0.20748702E+00 0.54133722E+03</pdfrwt>
<totfact> 0.82057754E+01</totfact>
</mgrwt>
</event>
<event>
 4    0  0.1365968E-001  0.2721279E+03  0.7546771E-02  0.1100068E+00
         21   -1    0    0  503  501  0.00000000000E+00  0.00000000000E+00  0.18054066066E+04  0.18054066066E+04  0.00000000000E+00 0. -1.
         21   -1    0    0  501  502 -0.00000000000E+00 -0.00000000000E+00 -0.13322957709E+03  0.13322957709E+03  0.00000000000E+00 0.  1.
         25    1    1    2    0    0 -0.11206564462E+03  0.21417258913E+03  0.24395147269E+02  0.27321919744E+03  0.12500000000E+03 0.  0.
         21    1    1    2  503  502  0.11206564462E+03 -0.21417258913E+03  0.16477818822E+04  0.16654169862E+04  0.00000000000E+00 0. -1.
<mgrwt>
<rscale>  3 0.27212792E+03</rscale>
<asrwt>0</asrwt>
<pdfrwt beam="1">  1       21 0.27775485E+00 0.27212792E+03</pdfrwt>
<pdfrwt beam="2">  1       21 0.20496859E-01 0.27212792E+03</pdfrwt>
<totfact> 0.92630672E+02</totfact>
</mgrwt>
</event>
<event>
 4    0  0.1317918E-001  0.2578267E+03  0.7546771E-02  0.1108456E+00
         21   -1    0    0  503  501  0.00000000000E+00  0.00000000000E+00  0.23220395983E+03  0.23220395983E+03  0.00000000000E+00 0.  1.
         21   -1    0    0  501  502 -0.00000000000E+00 -0.00000000000E+00 -0.46249778844E+03  0.46249778844E+03  0.00000000000E+00 0. -1.
         25    1    1    2    0    0  0.13104957131E+03 -0.18350923042E+03 -0.35365912290E+03  0.43766357285E+03  0.12500000000E+03 0.  0.
         21    1    1    2  503  502 -0.13104957131E+03  0.18350923042E+03  0.12336529429E+03  0.25703817543E+03  0.00000000000E+00 0.  1.
<mgrwt>
<rscale>  3 0.25782674E+03</rscale>
<asrwt>0</asrwt>
<pdfrwt beam="1">  1       21 0.35723686E-01 0.25782674E+03</pdfrwt>
<pdfrwt beam="2">  1       21 0.71153506E-01 0.25782674E+03</pdfrwt>
<totfact> 0.12997769E+04</totfact>
</mgrwt>
</event>
<event>
 4    0  0.1445903E-001  0.2483176E+03  0.7546771E-02  0.1114373E+00
         21   -1    0    0  502  501  0.00000000000E+00  0.00000000000E+00  0.16480032592E+03  0.16480032592E+03  0.00000000000E+00 0.  1.
         21   -1    0    0  503  502 -0.00000000000E+00 -0.00000000000E+00 -0.42395565413E+03  0.42395565413E+03  0.00000000000E+00 0.  1.
         25    1    1    2    0    0  0.22466147106E+02 -0.21338210237E+03 -0.27873537519E+03  0.37330290484E+03  0.12500000000E+03 0.  0.
         21    1    1    2  503  501 -0.22466147106E+02  0.21338210237E+03  0.19580046984E+02  0.21545307521E+03  0.00000000000E+00 0.  1.
<mgrwt>
<rscale>  3 0.24831764E+03</rscale>
<asrwt>0</asrwt>
<pdfrwt beam="1">  1       21 0.25353896E-01 0.24831764E+03</pdfrwt>
<pdfrwt beam="2">  1       21 0.65223947E-01 0.24831764E+03</pdfrwt>
<totfact> 0.31018936E+04</totfact>
</mgrwt>
</event>
<event>
 4    0  0.1509046E-001  0.4036160E+03  0.7546771E-02  0.1042535E+00
         21   -1    0    0  503  501  0.00000000000E+00  0.00000000000E+00  0.16844326494E+03  0.16844326494E+03  0.00000000000E+00 0.  1.
         21   -1    0    0  501  502 -0.00000000000E+00 -0.00000000000E+00 -0.94793646069E+03  0.94793646069E+03  0.00000000000E+00 0.  1.
         25    1    1    2    0    0 -0.38342103211E+03 -0.16406895177E+02 -0.30376255132E+03  0.50515102856E+03  0.12500000000E+03 0.  0.
         21    1    1    2  503  502  0.38342103211E+03  0.16406895177E+02 -0.47573064443E+03  0.61122869707E+03  0.00000000000E+00 0.  1.
<mgrwt>
<rscale>  3 0.40361600E+03</rscale>
<asrwt>0</asrwt>
<pdfrwt beam="1">  1       21 0.25914348E-01 0.40361600E+03</pdfrwt>
<pdfrwt beam="2">  1       21 0.14583638E+00 0.40361600E+03</pdfrwt>
<totfact> 0.40209218E+03</totfact>
</mgrwt>
</event>
<event>
 4    0  0.1151225E-001  0.2975010E+03  0.7546771E-02  0.1086497E+00
         21   -1    0    0  503  501  0.00000000000E+00  0.00000000000E+00  0.13111266908E+03  0.13111266908E+03  0.00000000000E+00 0.  1.
         21   -1    0    0  501  502 -0.00000000000E+00 -0.00000000000E+00 -0.13567396952E+04  0.13567396952E+04  0.00000000000E+00 0.  1.
         25    1    1    2    0    0 -0.12281043213E+03  0.24041508882E+03 -0.11763998520E+04  0.12134345590E+04  0.12500000000E+03 0.  0.
         21    1    1    2  503  502  0.12281043213E+03 -0.24041508882E+03 -0.49227174089E+02  0.27441780526E+03  0.00000000000E+00 0.  1.
<mgrwt>
<rscale>  3 0.29750095E+03</rscale>
<asrwt>0</asrwt>
<pdfrwt beam="1">  1       21 0.20171182E-01 0.29750095E+03</pdfrwt>
<pdfrwt beam="2">  1       21 0.20872917E+00 0.29750095E+03</pdfrwt>
<totfact> 0.24610025E+03</totfact>
</mgrwt>
</event>
<event>
 4    0  0.1475296E-001  0.2369758E+03  0.7546771E-02  0.1121824E+00
         21   -1    0    0  503  501  0.00000000000E+00  0.00000000000E+00  0.43937349728E+03  0.43937349728E+03  0.00000000000E+00 0. -1.
         21   -1    0    0  501  502 -0.00000000000E+00 -0.00000000000E+00 -0.17284807236E+03  0.17284807236E+03  0.00000000000E+00 0. -1.
         25    1    1    2    0    0  0.51184396229E+02 -0.19471180815E+03 -0.45090000787E+02  0.24122735919E+03  0.12500000000E+03 0.  0.
         21    1    1    2  503  502 -0.51184396229E+02  0.19471180815E+03  0.31161542571E+03  0.37099421045E+03  0.00000000000E+00 0. -1.
<mgrwt>
<rscale>  3 0.23697580E+03</rscale>
<asrwt>0</asrwt>
<pdfrwt beam="1">  1       21 0.67595922E-01 0.23697580E+03</pdfrwt>
<pdfrwt beam="2">  1       21 0.26592011E-01 0.23697580E+03</pdfrwt>
<totfact> 0.26297004E+04</totfact>
</mgrwt>
</event>
<event>
 4    0  0.1307461E-001  0.2389292E+03  0.7546771E-02  0.1120508E+00
         21   -1    0    0  503  501  0.00000000000E+00  0.00000000000E+00  0.61063414971E+03  0.61063414971E+03  0.00000000000E+00 0.  1.
         21   -1    0    0  501  502 -0.00000000000E+00 -0.00000000000E+00 -0.11616142054E+03  0.11616142054E+03  0.00000000000E+00 0.  1.
         25    1    1    2    0    0 -0.11016346644E+03 -0.17124891502E+03  0.59056610383E+02  0.24611961211E+03  0.12500000000E+03 0.  0.
         21    1    1    2  503  502  0.11016346644E+03  0.17124891502E+03  0.43541611879E+03  0.48067595814E+03  0.00000000000E+00 0.  1.
<mgrwt>
<rscale>  3 0.23892924E+03</rscale>
<asrwt>0</asrwt>
<pdfrwt beam="1">  1       21 0.93943713E-01 0.23892924E+03</pdfrwt>
<pdfrwt beam="2">  1       21 0.17870988E-01 0.23892924E+03</pdfrwt>
<totfact> 0.26381710E+04</totfact>
</mgrwt>
</event>
<event>
 4    0  0.1648877E-001  0.2650693E+03  0.7546771E-02  0.1104135E+00
         21   -1    0    0  503  501  0.00000000000E+00  0.00000000000E+00  0.13673843124E+03  0.13673843124E+03  0.00000000000E+00 0.  1.
         21   -1    0    0  501  502 -0.00000000000E+00 -0.00000000000E+00 -0.45772653432E+03  0.45772653432E+03  0.00000000000E+00 0.  1.
         25    1    1    2    0    0 -0.14939586520E+03 -0.17977102692E+03 -0.19377279808E+03  0.32834378924E+03  0.12500000000E+03 0.  0.
         21    1    1    2  503  502  0.14939586520E+03  0.17977102692E+03 -0.12721530499E+03  0.26612117631E+03  0.00000000000E+00 0.  1.
<mgrwt>
<rscale>  3 0.26506932E+03</rscale>
<asrwt>0</asrwt>
<pdfrwt beam="1">  1       21 0.21036682E-01 0.26506932E+03</pdfrwt>
<pdfrwt beam="2">  1       21 0.70419467E-01 0.26506932E+03</pdfrwt>
<totfact> 0.37120752E+04</totfact>
</mgrwt>
</event>
<event>
 4    0  0.1575166E-001  0.2449983E+03  0.7546771E-02  0.1116507E+00
         21   -1    0    0  502  501  0.00000000000E+00  0.00000000000E+00  0.17984267951E+04  0.17984267951E+04  0.00000000000E+00 0.  1.
         21   -1    0    0  503  502 -0.00000000000E+00 -0.00000000000E+00 -0.14872326781E+03  0.14872326781E+03  0.00000000000E+00 0. -1.
         25    1    1    2    0    0  0.11740321034E+03  0.17497326602E+03 -0.36613923898E+02  0.24771906879E+03  0.12500000000E+03 0.  0.
         21    1    1    2  503  501 -0.11740321034E+03 -0.17497326602E+03  0.16863174512E+04  0.16994309941E+04  0.00000000000E+00 0.  1.
<mgrwt>
<rscale>  3 0.24499828E+03</rscale>
<asrwt>0</asrwt>
<pdfrwt beam="1">  1       21 0.27668103E+00 0.24499828E+03</pdfrwt>
<pdfrwt beam="2">  1       21 0.22880504E-01 0.24499828E+03</pdfrwt>
<totfact> 0.78355133E+02</totfact>
</mgrwt>
</event>
<event>
 4    0  0.1005289E-001  0.3249780E+03  0.7546771E-02  0.1073381E+00
         21   -1    0    0  502  501  0.00000000000E+00  0.00000000000E+00  0.20300785513E+04  0.20300785513E+04  0.00000000000E+00 0.  1.
         21   -1    0    0  503  502 -0.00000000000E+00 -0.00000000000E+00 -0.10697161489E+03  0.10697161489E+03  0.00000000000E+00 0.  1.
         25    1    1    2    0    0 -0.28842545797E+03  0.82440440231E+02  0.18642873953E+03  0.37465496915E+03  0.12500000000E+03 0.  0.
         21    1    1    2  503  501  0.28842545797E+03 -0.82440440231E+02  0.17366781969E+04  0.17623951970E+04  0.00000000000E+00 0.  1.
<mgrwt>
<rscale>  3 0.32497795E+03</rscale>
<asrwt>0</asrwt>
<pdfrwt beam="1">  1       21 0.31231975E+00 0.32497795E+03</pdfrwt>
<pdfrwt beam="2">  1       21 0.16457173E-01 0.32497795E+03</pdfrwt>
<totfact> 0.83498743E+02</totfact>
</mgrwt>
</event>
<event>
 4    0  0.1305884E-001  0.2576651E+03  0.7546771E-02  0.1108554E+00
         21   -1    0    0  502  501  0.00000000000E+00  0.00000000000E+00  0.23490827507E+03  0.23490827507E+03  0.00000000000E+00 0. -1.
         21   -1    0    0  503  502 -0.00000000000E+00 -0.00000000000E+00 -0.25819419565E+03  0.25819419565E+03  0.00000000000E+00 0. -1.
         25    1    1    2    0    0  0.14897647944E+03  0.16903344779E+03  0.35876536866E+02  0.26015077128E+03  0.12500000000E+03 0.  0.
         21    1    1    2  503  501 -0.14897647944E+03 -0.16903344779E+03 -0.59162457450E+02  0.23295169944E+03  0.00000000000E+00 0. -1.
<mgrwt>
<rscale>  3 0.25766509E+03</rscale>
<asrwt>0</asrwt>
<pdfrwt beam="1">  1       21 0.36139735E-01 0.25766509E+03</pdfrwt>
<pdfrwt beam="2">  1       21 0.39722184E-01 0.25766509E+03</pdfrwt>
<totfact> 0.43802613E+04</totfact>
</mgrwt>
</event>
<event>
 4    0  0.1557305E-001  0.2646937E+03  0.7546771E-02  0.1104356E+00
         21   -1    0    0  503  501  0.00000000000E+00  0.00000000000E+00  0.11908336151E+03  0.11908336151E+03  0.00000000000E+00 0.  1.
         21   -1    0    0  501  502 -0.00000000000E+00 -0.00000000000E+00 -0.52241016996E+03  0.52241016996E+03  0.00000000000E+00 0.  1.
         25    1    1    2    0    0  0.76832866600E+02 -0.22030534308E+03 -0.23275642354E+03  0.35247451862E+03  0.12500000000E+03 0.  0.
         21    1    1    2  503  502 -0.76832866600E+02  0.22030534308E+03 -0.17057038490E+03  0.28901901285E+03  0.00000000000E+00 0.  1.
<mgrwt>
<rscale>  3 0.26469366E+03</rscale>
<asrwt>0</asrwt>
<pdfrwt beam="1">  1       21 0.18320517E-01 0.26469366E+03</pdfrwt>
<pdfrwt beam="2">  1       21 0.80370797E-01 0.26469366E+03</pdfrwt>
<totfact> 0.35737487E+04</totfact>
</mgrwt>
</event>
<event>
 4    0  0.1681289E-001  0.2650260E+03  0.7546771E-02  0.1104161E+00
         21   -1    0    0  502  501  0.00000000000E+00  0.00000000000E+00  0.13314567054E+03  0.13314567054E+03  0.00000000000E+00 0.  1.
         21   -1    0    0  503  502 -0.00000000000E+00 -0.00000000000E+00 -0.54881559550E+03  0.54881559550E+03  0.00000000000E+00 0.  1.
         25    1    1    2    0    0 -0.19647828904E+03  0.12653092088E+03 -0.35036686001E+03  0.43931279130E+03  0.12500000000E+03 0.  0.
         21    1    1    2  503  501  0.19647828904E+03 -0.12653092088E+03 -0.65303064949E+02  0.24264847474E+03  0.00000000000E+00 0.  1.
<mgrwt>
<rscale>  3 0.26502602E+03</rscale>
<asrwt>0</asrwt>
<pdfrwt beam="1">  1       21 0.20483949E-01 0.26502602E+03</pdfrwt>
<pdfrwt beam="2">  1       21 0.84433169E-01 0.26502602E+03</pdfrwt>
<totfact> 0.25882867E+04</totfact>
</mgrwt>
</event>
<event>
 4    0  0.1005289E-001  0.2647054E+03  0.7546771E-02  0.1104349E+00
         21   -1    0    0  502  501  0.00000000000E+00  0.00000000000E+00  0.19330867606E+03  0.19330867606E+03  0.00000000000E+00 0. -1.
         21   -1    0    0  503  502 -0.00000000000E+00 -0.00000000000E+00 -0.24806026598E+04  0.24806026598E+04  0.00000000000E+00 0. -1.
         25    1    1    2    0    0  0.49833220896E+02  0.22794863529E+03 -0.24001617749E+04  0.24147143673E+04  0.12500000000E+03 0.  0.
         21    1    1    2  503  501 -0.49833220896E+02 -0.22794863529E+03  0.11286779112E+03  0.25919696855E+03  0.00000000000E+00 0. -1.
<mgrwt>
<rscale>  3 0.26470536E+03</rscale>
<asrwt>0</asrwt>
<pdfrwt beam="1">  1       21 0.29739801E-01 0.26470536E+03</pdfrwt>
<pdfrwt beam="2">  1       21 0.38163112E+00 0.26470536E+03</pdfrwt>
<totfact> 0.10989101E+02</totfact>
</mgrwt>
</event>
<event>
 4    0  0.1561143E-001  0.2465327E+03  0.7546771E-02  0.1115516E+00
         21   -1    0    0  503  501  0.00000000000E+00  0.00000000000E+00  0.29704733807E+03  0.29704733807E+03  0.00000000000E+00 0. -1.
         21   -1    0    0  501  502 -0.00000000000E+00 -0.00000000000E+00 -0.23226241630E+03  0.23226241630E+03  0.00000000000E+00 0. -1.
         25    1    1    2    0    0 -0.72781306171E+01 -0.21236851136E+03 -0.94207766572E+02  0.26391941779E+03  0.12500000000E+03 0.  0.
         21    1    1    2  503  502  0.72781306171E+01  0.21236851136E+03  0.15899268834E+03  0.26539033658E+03  0.00000000000E+00 0. -1.
<mgrwt>
<rscale>  3 0.24653267E+03</rscale>
<asrwt>0</asrwt>
<pdfrwt beam="1">  1       21 0.45699591E-01 0.24653267E+03</pdfrwt>
<pdfrwt beam="2">  1       21 0.35732679E-01 0.24653267E+03</pdfrwt>
<totfact> 0.33764456E+04</totfact>
</mgrwt>
</event>
<event>
 4    0  0.1344580E-001  0.2370440E+03  0.7546771E-02  0.1121778E+00
         21   -1    0    0  503  501  0.00000000000E+00  0.00000000000E+00  0.17983495807E+03  0.17983495807E+03  0.00000000000E+00 0.  1.
         21   -1    0    0  501  502 -0.00000000000E+00 -0.00000000000E+00 -0.47720188605E+03  0.47720188605E+03  0.00000000000E+00 0.  1.
         25    1    1    2    0    0  0.15645546277E+03 -0.12683278996E+03 -0.37295639813E+03  0.44191214438E+03  0.12500000000E+03 0.  0.
         21    1    1    2  503  502 -0.15645546277E+03  0.12683278996E+03  0.75589470163E+02  0.21512469974E+03  0.00000000000E+00 0.  1.
<mgrwt>
<rscale>  3 0.23704402E+03</rscale>
<asrwt>0</asrwt>
<pdfrwt beam="1">  1       21 0.27666917E-01 0.23704402E+03</pdfrwt>
<pdfrwt beam="2">  1       21 0.73415674E-01 0.23704402E+03</pdfrwt>
<totfact> 0.20275202E+04</totfact>
</mgrwt>
</event>
<event>
 4    0  0.1005289E-001  0.2425513E+03  0.7546771E-02  0.1118105E+00
         21   -1    0    0  503  501  0.00000000000E+00  0.00000000000E+00  0.28630267619E+03  0.28630267619E+03  0.00000000000E+00 0. -1.
         21   -1    0    0  501  502 -0.00000000000E+00 -0.00000000000E+00 -0.21710044806E+03  0.21710044806E+03  0.00000000000E+00 0.  1.
         25    1    1    2    0    0 -0.11511409486E+03 -0.17307479389E+03 -0.70939503433E+02  0.25271239040E+03  0.12500000000E+03 0.  0.
         21    1    1    2  503  502  0.11511409486E+03  0.17307479389E+03  0.14014173156E+03  0.25069073386E+03  0.00000000000E+00 0. -1.
<mgrwt>
<rscale>  3 0.24255131E+03</rscale>
<asrwt>0</asrwt>
<pdfrwt beam="1">  1       21 0.44046566E-01 0.24255131E+03</pdfrwt>
<pdfrwt beam="2">  1       21 0.33400069E-01 0.24255131E+03</pdfrwt>
<totfact> 0.41751882E+04</totfact>
</mgrwt>
</event>
<event>
 4    0  0.1412078E-001  0.2419215E+03  0.7546771E-02  0.1118519E+00
         21   -1    0    0  503  501  0.00000000000E+00  0.00000000000E+00  0.82913456065E+02  0.82913456065E+02  0.00000000000E+00 0. -1.
         21   -1    0    0  501  502 -0.00000000000E+00 -0.00000000000E+00 -0.72840632414E+03  0.72840632414E+03  0.00000000000E+00 0. -1.
         25    1    1    2    0    0 -0.17368606989E+03 -0.11284577613E+03 -0.50814204296E+03  0.56279157411E+03  0.12500000000E+03 0.  0.
         21    1    1    2  503  502  0.17368606989E+03  0.11284577613E+03 -0.13735082511E+03  0.24852820610E+03  0.00000000000E+00 0. -1.
<mgrwt>
<rscale>  3 0.24192152E+03</rscale>
<asrwt>0</asrwt>
<pdfrwt beam="1">  1       21 0.12755916E-01 0.24192152E+03</pdfrwt>
<pdfrwt beam="2">  1       21 0.11206252E+00 0.24192152E+03</pdfrwt>
<totfact> 0.31985982E+04</totfact>
</mgrwt>
</event>
<event>
 4    0  0.1051838E-001  0.3717020E+03  0.7546771E-02  0.1054044E+00
         21   -1    0    0  503  501  0.00000000000E+00  0.00000000000E+00  0.97287632237E+03  0.97287632237E+03  0.00000000000E+00 0. -1.
         21   -1    0    0  501  502 -0.00000000000E+00 -0.00000000000E+00 -0.18707978728E+03  0.18707978728E+03  0.00000000000E+00 0. -1.
         25    1    1    2    0    0  0.17651513811E+03  0.30229083908E+03  0.92101644419E+02  0.38294263053E+03  0.12500000000E+03 0.  0.
         21    1    1    2  503  502 -0.17651513811E+03 -0.30229083908E+03  0.69369489067E+03  0.77701347911E+03  0.00000000000E+00 0. -1.
<mgrwt>
<rscale>  3 0.37170196E+03</rscale>
<asrwt>0</asrwt>
<pdfrwt beam="1">  1       21 0.14967328E+00 0.37170196E+03</pdfrwt>
<pdfrwt beam="2">  1       21 0.28781506E-01 0.37170196E+03</pdfrwt>
<totfact> 0.30957187E+03</totfact>
</mgrwt>
</event>
<event>
 4    0  0.1331915E-001  0.2524138E+03  0.7546771E-02  0.1111789E+00
         21   -1    0    0  503  501  0.00000000000E+00  0.00000000000E+00  0.34009156617E+03  0.34009156617E+03  0.00000000000E+00 0. -1.
         21   -1    0    0  501  502 -0.00000000000E+00 -0.00000000000E+00 -0.27256471524E+03  0.27256471524E+03  0.00000000000E+00 0. -1.
         25    1    1    2    0    0  0.51875535013E+02 -0.21306489560E+03 -0.15824566521E+03  0.29791678608E+03  0.12500000000E+03 0.  0.
         21    1    1    2  503  502 -0.51875535013E+02  0.21306489560E+03  0.22577251615E+03  0.31473949533E+03  0.00000000000E+00 0. -1.
<mgrwt>
<rscale>  3 0.25241379E+03</rscale>
<asrwt>0</asrwt>
<pdfrwt beam="1">  1       21 0.52321780E-01 0.25241379E+03</pdfrwt>
<pdfrwt beam="2">  1       21 0.41933033E-01 0.25241379E+03</pdfrwt>
<totfact> 0.18353387E+04</totfact>
</mgrwt>
</event>
<event>
 4    0  0.1109629E-001  0.2453333E+03  0.7546771E-02  0.1116290E+00
         21   -1    0    0  502  501  0.00000000000E+00  0.00000000000E+00  0.34488940984E+02  0.34488940984E+02  0.00000000000E+00 0. -1.
         21   -1    0    0  503  502 -0.00000000000E+00 -0.00000000000E+00 -0.16508576518E+04  0.16508576518E+04  0.00000000000E+00 0. -1.
         25    1    1    2    0    0  0.20792581604E+03 -0.36473080263E+02 -0.11090269296E+04  0.11358385278E+04  0.12500000000E+03 0.  0.
         21    1    1    2  503  501 -0.20792581604E+03  0.36473080263E+02 -0.50734178115E+03  0.54950806496E+03  0.00000000000E+00 0. -1.
<mgrwt>
<rscale>  3 0.24533331E+03</rscale>
<asrwt>0</asrwt>
<pdfrwt beam="1">  1       21 0.53059926E-02 0.24533331E+03</pdfrwt>
<pdfrwt beam="2">  1       21 0.25397802E+00 0.24533331E+03</pdfrwt>
<totfact> 0.14667928E+04</totfact>
</mgrwt>
</event>
<event>
 4    0  0.1005289E-001  0.2764811E+03  0.7546771E-02  0.1097627E+00
         21   -1    0    0  503  501  0.00000000000E+00  0.00000000000E+00  0.21177634644E+03  0.21177634644E+03  0.00000000000E+00 0.  1.
         21   -1    0    0  501  502 -0.00000000000E+00 -0.00000000000E+00 -0.18741927215E+04  0.18741927215E+04  0.00000000000E+00 0.  1.
         25    1    1    2    0    0 -0.24656022999E+03  0.49850665396E+01 -0.17879816588E+04  0.18092319393E+04  0.12500000000E+03 0.  0.
         21    1    1    2  503  502  0.24656022999E+03 -0.49850665396E+01  0.12556528374E+03  0.27673712866E+03  0.00000000000E+00 0.  1.
<mgrwt>
<rscale>  3 0.27648110E+03</rscale>
<asrwt>0</asrwt>
<pdfrwt beam="1">  1       21 0.32580975E-01 0.27648110E+03</pdfrwt>
<pdfrwt beam="2">  1       21 0.28833735E+00 0.27648110E+03</pdfrwt>
<totfact> 0.32622937E+02</totfact>
</mgrwt>
</event>
<event>
 4    0  0.1151212E-001  0.2439085E+03  0.7546771E-02  0.1117216E+00
         21   -1    0    0  502  501  0.00000000000E+00  0.00000000000E+00  0.99301744252E+03  0.99301744252E+03  0.00000000000E+00 0.  1.
         21   -1    0    0  503  502 -0.00000000000E+00 -0.00000000000E+00 -0.25714613357E+03  0.25714613357E+03  0.00000000000E+00 0.  1.
         25    1    1    2    0    0 -0.20653684816E+03  0.34769030433E+02 -0.18477421287E+03  0.30599487719E+03  0.12500000000E+03 0.  0.
         21    1    1    2  503  501  0.20653684816E+03 -0.34769030433E+02  0.92064552182E+03  0.94416869890E+03  0.00000000000E+00 0.  1.
<mgrwt>
<rscale>  3 0.24390850E+03</rscale>
<asrwt>0</asrwt>
<pdfrwt beam="1">  1       21 0.15277191E+00 0.24390850E+03</pdfrwt>
<pdfrwt beam="2">  1       21 0.39560944E-01 0.24390850E+03</pdfrwt>
<totfact> 0.16758301E+03</totfact>
</mgrwt>
</event>
<event>
 4    0  0.1222190E-001  0.3196421E+03  0.7546771E-02  0.1075814E+00
         21   -1    0    0  503  501  0.00000000000E+00  0.00000000000E+00  0.14159455792E+04  0.14159455792E+04  0.00000000000E+00 0.  1.
         21   -1    0    0  501  502 -0.00000000000E+00 -0.00000000000E+00 -0.67222315654E+02  0.67222315654E+02  0.00000000000E+00 0.  1.
         25    1    1    2    0    0 -0.27903939200E+03 -0.93183103961E+02  0.77747170040E+03  0.84061484526E+03  0.12500000000E+03 0.  0.
         21    1    1    2  503  502  0.27903939200E+03  0.93183103961E+02  0.57125156319E+03  0.64255304964E+03  0.00000000000E+00 0.  1.
<mgrwt>
<rscale>  3 0.31964210E+03</rscale>
<asrwt>0</asrwt>
<pdfrwt beam="1">  1       21 0.21783776E+00 0.31964210E+03</pdfrwt>
<pdfrwt beam="2">  1       21 0.10341896E-01 0.31964210E+03</pdfrwt>
<totfact> 0.72436268E+03</totfact>
</mgrwt>
</event>
<event>
 4    0  0.1065143E-001  0.3823856E+03  0.7546771E-02  0.1050056E+00
         21   -1    0    0  502  501  0.00000000000E+00  0.00000000000E+00  0.24608445067E+03  0.24608445067E+03  0.00000000000E+00 0.  1.
         21   -1    0    0  503  502 -0.00000000000E+00 -0.00000000000E+00 -0.12935772392E+04  0.12935772392E+04  0.00000000000E+00 0.  1.
         25    1    1    2    0    0 -0.90783645852E+02 -0.34978864435E+03 -0.11090128896E+04  0.11730849736E+04  0.12500000000E+03 0.  0.
         21    1    1    2  503  501  0.90783645852E+02  0.34978864435E+03  0.61520101054E+02  0.36657671626E+03  0.00000000000E+00 0.  1.
<mgrwt>
<rscale>  3 0.38238562E+03</rscale>
<asrwt>0</asrwt>
<pdfrwt beam="1">  1       21 0.37859146E-01 0.38238562E+03</pdfrwt>
<pdfrwt beam="2">  1       21 0.19901188E+00 0.38238562E+03</pdfrwt>
<totfact> 0.78816818E+02</totfact>
</mgrwt>
</event>
<event>
 4    0  0.1005289E-001  0.2600879E+03  0.7546771E-02  0.1107090E+00
         21   -1    0    0  503  501  0.00000000000E+00  0.00000000000E+00  0.39109023208E+03  0.39109023208E+03  0.00000000000E+00 0.  1.
         21   -1    0    0  501  502 -0.00000000000E+00 -0.00000000000E+00 -0.16150575381E+03  0.16150575381E+03  0.00000000000E+00 0. -1.
         25    1    1    2    0    0 -0.12903246700E+03 -0.18807273557E+03  0.56189076361E+02  0.26608822542E+03  0.12500000000E+03 0.  0.
         21    1    1    2  503  502  0.12903246700E+03  0.18807273557E+03  0.17339540191E+03  0.28650776047E+03  0.00000000000E+00 0.  1.
<mgrwt>
<rscale>  3 0.26008793E+03</rscale>
<asrwt>0</asrwt>
<pdfrwt beam="1">  1       21 0.60167728E-01 0.26008793E+03</pdfrwt>
<pdfrwt beam="2">  1       21 0.24847039E-01 0.26008793E+03</pdfrwt>
<totfact> 0.38251696E+04</totfact>
</mgrwt>
</event>
<event>
 4    0  0.1093581E-001  0.3572747E+03  0.7546771E-02  0.1059668E+00
         21   -1    0    0  502  501  0.00000000000E+00  0.00000000000E+00  0.13016267635E+04  0.13016267635E+04  0.00000000000E+00 0. -1.
         21   -1    0    0  503  502 -0.00000000000E+00 -0.00000000000E+00 -0.13960655233E+03  0.13960655233E+03  0.00000000000E+00 0. -1.
         25    1    1    2    0    0  0.19772870717E+03  0.27004368937E+03  0.17268799339E+03  0.39682033576E+03  0.12500000000E+03 0.  0.
         21    1    1    2  503  501 -0.19772870717E+03 -0.27004368937E+03  0.98933221773E+03  0.10444129800E+04  0.00000000000E+00 0. -1.
<mgrwt>
<rscale>  3 0.35727473E+03</rscale>
<asrwt>0</asrwt>
<pdfrwt beam="1">  1       21 0.20025026E+00 0.35727473E+03</pdfrwt>
<pdfrwt beam="2">  1       21 0.21477932E-01 0.35727473E+03</pdfrwt>
<totfact> 0.23932566E+03</totfact>
</mgrwt>
</event>
<event>
 4    0  0.1005289E-001  0.3210537E+03  0.7546771E-02  0.1075165E+00
         21   -1    0    0  502  501  0.00000000000E+00  0.00000000000E+00  0.19664606564E+04  0.19664606564E+04  0.00000000000E+00 0.  1.
         21   -1    0    0  503  502 -0.00000000000E+00 -0.00000000000E+00 -0.69930428839E+02  0.69930428839E+02  0.00000000000E+00 0.  1.
         25    1    1    2    0    0 -0.25026975198E+02  0.29465929798E+03  0.41006786976E+03  0.52079853032E+03  0.12500000000E+03 0.  0.
         21    1    1    2  503  501  0.25026975198E+02 -0.29465929798E+03  0.14864623578E+04  0.15155925549E+04  0.00000000000E+00 0.  1.
<mgrwt>
<rscale>  3 0.32105366E+03</rscale>
<asrwt>0</asrwt>
<pdfrwt beam="1">  1       21 0.30253237E+00 0.32105366E+03</pdfrwt>
<pdfrwt beam="2">  1       21 0.10758529E-01 0.32105366E+03</pdfrwt>
<totfact> 0.20792858E+03</totfact>
</mgrwt>
</event>
<event>
 4    0  0.1005289E-001  0.2974060E+03  0.7546771E-02  0.1086545E+00
         21   -1    0    0  502  501  0.00000000000E+00  0.00000000000E+00  0.93921604785E+03  0.93921604785E+03  0.00000000000E+00 0. -1.
         21   -1    0    0  503  502 -0.00000000000E+00 -0.00000000000E+00 -0.74773291885E+03  0.74773291885E+03  0.00000000000E+00 0. -1.
         25    1    1    2    0    0 -0.24280114664E+03 -0.11778335642E+03 -0.69731325213E+03  0.75808712392E+03  0.12500000000E+03 0.  0.
         21    1    1    2  503  501  0.24280114664E+03  0.11778335642E+03  0.88879638113E+03  0.92886184278E+03  0.00000000000E+00 0. -1.
<mgrwt>
<rscale>  3 0.29740598E+03</rscale>
<asrwt>0</asrwt>
<pdfrwt beam="1">  1       21 0.14449478E+00 0.29740598E+03</pdfrwt>
<pdfrwt beam="2">  1       21 0.11503583E+00 0.29740598E+03</pdfrwt>
<totfact> 0.17327215E+02</totfact>
</mgrwt>
</event>
<event>
 4    0  0.1267058E-001  0.2868143E+03  0.7546771E-02  0.1092024E+00
         21   -1    0    0  502  501  0.00000000000E+00  0.00000000000E+00  0.86808228098E+03  0.86808228098E+03  0.00000000000E+00 0. -1.
         21   -1    0    0  503  502 -0.00000000000E+00 -0.00000000000E+00 -0.13081253796E+03  0.13081253796E+03  0.00000000000E+00 0. -1.
         25    1    1    2    0    0  0.79723679122E+02 -0.24552311032E+03  0.87718629497E+02  0.29992835923E+03  0.12500000000E+03 0.  0.
         21    1    1    2  503  501 -0.79723679122E+02  0.24552311032E+03  0.64955111352E+03  0.69896645970E+03  0.00000000000E+00 0. -1.
<mgrwt>
<rscale>  3 0.28681433E+03</rscale>
<asrwt>0</asrwt>
<pdfrwt beam="1">  1       21 0.13355112E+00 0.28681433E+03</pdfrwt>
<pdfrwt beam="2">  1       21 0.20125006E-01 0.28681433E+03</pdfrwt>
<totfact> 0.86811288E+03</totfact>
</mgrwt>
</event>
<event>
 4    0  0.1387167E-001  0.2375959E+03  0.7546771E-02  0.1121405E+00
         21   -1    0    0  502  501  0.00000000000E+00  0.00000000000E+00  0.93637069268E+02  0.93637069268E+02  0.00000000000E+00 0.  1.
         21   -1    0    0  503  502 -0.00000000000E+00 -0.00000000000E+00 -0.77769723743E+03  0.77769723743E+03  0.00000000000E+00 0.  1.
         25    1    1    2    0    0 -0.64950334038E+02  0.19133283087E+03 -0.61251909792E+03  0.65698663866E+03  0.12500000000E+03 0.  0.
         21    1    1    2  503  501  0.64950334038E+02 -0.19133283087E+03 -0.71541070240E+02  0.21434766804E+03  0.00000000000E+00 0.  1.
<mgrwt>
<rscale>  3 0.23759587E+03</rscale>
<asrwt>0</asrwt>
<pdfrwt beam="1">  1       21 0.14405703E-01 0.23759587E+03</pdfrwt>
<pdfrwt beam="2">  1       21 0.11964573E+00 0.23759587E+03</pdfrwt>
<totfact> 0.21876809E+04</totfact>
</mgrwt>
</event>
<event>
 4    0  0.1650242E-001  0.2877718E+03  0.7546771E-02  0.1091518E+00
         21   -1    0    0  502  501  0.00000000000E+00  0.00000000000E+00  0.30906995706E+03  0.30906995706E+03  0.00000000000E+00 0.  1.
         21   -1    0    0  503  502 -0.00000000000E+00 -0.00000000000E+00 -0.24261976768E+03  0.24261976768E+03  0.00000000000E+00 0.  1.
         25    1    1    2    0    0  0.25788228030E+03  0.26160286854E+02  0.48835071683E+02  0.29188609992E+03  0.12500000000E+03 0.  0.
         21    1    1    2  503  501 -0.25788228030E+03 -0.26160286854E+02  0.17615117702E+02  0.25980362482E+03  0.00000000000E+00 0.  1.
<mgrwt>
<rscale>  3 0.28777184E+03</rscale>
<asrwt>0</asrwt>
<pdfrwt beam="1">  1       21 0.47549224E-01 0.28777184E+03</pdfrwt>
<pdfrwt beam="2">  1       21 0.37326118E-01 0.28777184E+03</pdfrwt>
<totfact> 0.27998834E+04</totfact>
</mgrwt>
</event>
<event>
 4    0  0.1005289E-001  0.2615895E+03  0.7546771E-02  0.1106192E+00
         21   -1    0    0  502  501  0.00000000000E+00  0.00000000000E+00  0.28443808992E+04  0.28443808992E+04  0.00000000000E+00 0.  1.
         21   -1    0    0  503  502 -0.00000000000E+00 -0.00000000000E+00 -0.18032217661E+03  0.18032217661E+03  0.00000000000E+00 0.  1.
         25    1    1    2    0    0  0.38974067969E+02  0.22646214428E+03 -0.78048201284E+02  0.27298461951E+03  0.12500000000E+03 0.  0.
         21    1    1    2  503  501 -0.38974067969E+02 -0.22646214428E+03  0.27421069239E+04  0.27517184563E+04  0.00000000000E+00 0.  1.
<mgrwt>
<rscale>  3 0.26158953E+03</rscale>
<asrwt>0</asrwt>
<pdfrwt beam="1">  1       21 0.43759703E+00 0.26158953E+03</pdfrwt>
<pdfrwt beam="2">  1       21 0.27741875E-01 0.26158953E+03</pdfrwt>
<totfact> 0.55619341E+01</totfact>
</mgrwt>
</event>
<event>
 4    0  0.1493125E-001  0.2414460E+03  0.7546771E-02  0.1118833E+00
         21   -1    0    0  502  501  0.00000000000E+00  0.00000000000E+00  0.13365725660E+04  0.13365725660E+04  0.00000000000E+00 0.  1.
         21   -1    0    0  503  502 -0.00000000000E+00 -0.00000000000E+00 -0.10485970483E+03  0.10485970483E+03  0.00000000000E+00 0. -1.
         25    1    1    2    0    0  0.17945279470E+02  0.20578909651E+03  0.56190843309E+02  0.24789835855E+03  0.12500000000E+03 0.  0.
         21    1    1    2  503  501 -0.17945279470E+02 -0.20578909651E+03  0.11755220179E+04  0.11935339123E+04  0.00000000000E+00 0.  1.
<mgrwt>
<rscale>  3 0.24144603E+03</rscale>
<asrwt>0</asrwt>
<pdfrwt beam="1">  1       21 0.20562654E+00 0.24144603E+03</pdfrwt>
<pdfrwt beam="2">  1       21 0.16132263E-01 0.24144603E+03</pdfrwt>
<totfact> 0.40682897E+03</totfact>
</mgrwt>
</event>
<event>
 4    0  0.1554527E-001  0.3405262E+03  0.7546771E-02  0.1066572E+00
         21   -1    0    0  503  501  0.00000000000E+00  0.00000000000E+00  0.45160172563E+03  0.45160172563E+03  0.00000000000E+00 0. -1.
         21   -1    0    0  501  502 -0.00000000000E+00 -0.00000000000E+00 -0.26408558227E+03  0.26408558227E+03  0.00000000000E+00 0. -1.
         25    1    1    2    0    0  0.17279724031E+03 -0.26546975028E+03 -0.13046584647E+02  0.34077600846E+03  0.12500000000E+03 0.  0.
         21    1    1    2  503  502 -0.17279724031E+03  0.26546975028E+03  0.20056272801E+03  0.37491129943E+03  0.00000000000E+00 0. -1.
<mgrwt>
<rscale>  3 0.34052617E+03</rscale>
<asrwt>0</asrwt>
<pdfrwt beam="1">  1       21 0.69477188E-01 0.34052617E+03</pdfrwt>
<pdfrwt beam="2">  1       21 0.40628551E-01 0.34052617E+03</pdfrwt>
<totfact> 0.10177131E+04</totfact>
</mgrwt>
</event>
<event>
 4    0  0.1483849E-001  0.2366598E+03  0.7546771E-02  0.1122038E+00
         21   -1    0    0  502  501  0.00000000000E+00  0.00000000000E+00  0.31029387750E+03  0.31029387750E+03  0.00000000000E+00 0. -1.
         21   -1    0    0  503  502 -0.00000000000E+00 -0.00000000000E+00 -0.24850372614E+03  0.24850372614E+03  0.00000000000E+00 0. -1.
         25    1    1    2    0    0 -0.87988044672E+02 -0.18066809534E+03 -0.13921415324E+03  0.27456954882E+03  0.12500000000E+03 0.  0.
         21    1    1    2  503  501  0.87988044672E+02  0.18066809534E+03  0.20100430460E+03  0.28422805481E+03  0.00000000000E+00 0. -1.
<mgrwt>
<rscale>  3 0.23665979E+03</rscale>
<asrwt>0</asrwt>
<pdfrwt beam="1">  1       21 0.47737520E-01 0.23665979E+03</pdfrwt>
<pdfrwt beam="2">  1       21 0.38231343E-01 0.23665979E+03</pdfrwt>
<totfact> 0.27045183E+04</totfact>
</mgrwt>
</event>
<event>
 4    0  0.1284918E-001  0.2389584E+03  0.7546771E-02  0.1120489E+00
         21   -1    0    0  503  501  0.00000000000E+00  0.00000000000E+00  0.22444840156E+03  0.22444840156E+03  0.00000000000E+00 0.  1.
         21   -1    0    0  501  502 -0.00000000000E+00 -0.00000000000E+00 -0.52526480027E+03  0.52526480027E+03  0.00000000000E+00 0.  1.
         25    1    1    2    0    0  0.64813915334E+02  0.19306805190E+03 -0.44161753669E+03  0.50212265932E+03  0.12500000000E+03 0.  0.
         21    1    1    2  503  502 -0.64813915334E+02 -0.19306805190E+03  0.14080113798E+03  0.24759054252E+03  0.00000000000E+00 0.  1.
<mgrwt>
<rscale>  3 0.23895840E+03</rscale>
<asrwt>0</asrwt>
<pdfrwt beam="1">  1       21 0.34530523E-01 0.23895840E+03</pdfrwt>
<pdfrwt beam="2">  1       21 0.80809969E-01 0.23895840E+03</pdfrwt>
<totfact> 0.10550071E+04</totfact>
</mgrwt>
</event>
<event>
 4    0  0.1531851E-001  0.2807148E+03  0.7546771E-02  0.1095299E+00
         21   -1    0    0  503  501  0.00000000000E+00  0.00000000000E+00  0.43755158665E+03  0.43755158665E+03  0.00000000000E+00 0. -1.
         21   -1    0    0  501  502 -0.00000000000E+00 -0.00000000000E+00 -0.22549608922E+03  0.22549608922E+03  0.00000000000E+00 0. -1.
         25    1    1    2    0    0  0.19581832454E+03 -0.15757856539E+03 -0.65853220822E+02  0.28833568490E+03  0.12500000000E+03 0.  0.
         21    1    1    2  503  502 -0.19581832454E+03  0.15757856539E+03  0.27790871824E+03  0.37471199097E+03  0.00000000000E+00 0. -1.
<mgrwt>
<rscale>  3 0.28071484E+03</rscale>
<asrwt>0</asrwt>
<pdfrwt beam="1">  1       21 0.67315629E-01 0.28071484E+03</pdfrwt>
<pdfrwt beam="2">  1       21 0.34691706E-01 0.28071484E+03</pdfrwt>
<totfact> 0.15418144E+04</totfact>
</mgrwt>
</event>
<event>
 4    0  0.1545956E-001  0.3711942E+03  0.7546771E-02  0.1054237E+00
         21   -1    0    0  503  501  0.00000000000E+00  0.00000000000E+00  0.27160621070E+03  0.27160621070E+03  0.00000000000E+00 0.  1.
         21   -1    0    0  501  502 -0.00000000000E+00 -0.00000000000E+00 -0.47813753259E+03  0.47813753259E+03  0.00000000000E+00 0.  1.
         25    1    1    2    0    0  0.34450142690E+03  0.58982208305E+02 -0.10965916294E+03  0.38705331163E+03  0.12500000000E+03 0.  0.
         21    1    1    2  503  502 -0.34450142690E+03 -0.58982208305E+02 -0.96872158954E+02  0.36269043165E+03  0.00000000000E+00 0.  1.
<mgrwt>
<rscale>  3 0.37119420E+03</rscale>
<asrwt>0</asrwt>
<pdfrwt beam="1">  1       21 0.41785572E-01 0.37119420E+03</pdfrwt>
<pdfrwt beam="2">  1       21 0.73559619E-01 0.37119420E+03</pdfrwt>
<totfact> 0.83501522E+03</totfact>
</mgrwt>
</event>
<event>
 4    0  0.1767044E-001  0.2811712E+03  0.7546771E-02  0.1095051E+00
         21   -1    0    0  503  501  0.00000000000E+00  0.00000000000E+00  0.45940195203E+03  0.45940195203E+03  0.00000000000E+00 0. -1.
         21   -1    0    0  501  502 -0.00000000000E+00 -0.00000000000E+00 -0.18911584643E+03  0.18911584643E+03  0.00000000000E+00 0. -1.
         25    1    1    2    0    0  0.16608100553E+03  0.18933923217E+03  0.28905927654E+01  0.28118606076E+03  0.12500000000E+03 0.  0.
         21    1    1    2  503  502 -0.16608100553E+03 -0.18933923217E+03  0.26739551284E+03  0.36733173770E+03  0.00000000000E+00 0. -1.
<mgrwt>
<rscale>  3 0.28117120E+03</rscale>
<asrwt>0</asrwt>
<pdfrwt beam="1">  1       21 0.70677223E-01 0.28117120E+03</pdfrwt>
<pdfrwt beam="2">  1       21 0.29094746E-01 0.28117120E+03</pdfrwt>
<totfact> 0.19598756E+04</totfact>
</mgrwt>
</event>
<event>
 4    0  0.1492302E-001  0.3125799E+03  0.7546771E-02  0.1079116E+00
         21   -1    0    0  502  501  0.00000000000E+00  0.00000000000E+00  0.28433336690E+03  0.28433336690E+03  0.00000000000E+00 0.  1.
         21   -1    0    0  503  502 -0.00000000000E+00 -0.00000000000E+00 -0.33971920130E+03  0.33971920130E+03  0.00000000000E+00 0.  1.
         25    1    1    2    0    0  0.24205341855E+03 -0.15326885165E+03 -0.11195259476E+03  0.33202346572E+03  0.12500000000E+03 0.  0.
         21    1    1    2  503  501 -0.24205341855E+03  0.15326885165E+03  0.56566760357E+02  0.29202910248E+03  0.00000000000E+00 0.  1.
<mgrwt>
<rscale>  3 0.31257991E+03</rscale>
<asrwt>0</asrwt>
<pdfrwt beam="1">  1       21 0.43743595E-01 0.31257991E+03</pdfrwt>
<pdfrwt beam="2">  1       21 0.52264492E-01 0.31257991E+03</pdfrwt>
<totfact> 0.16425957E+04</totfact>
</mgrwt>
</event>
<event>
 4    0  0.1005289E-001  0.2375660E+03  0.7546771E-02  0.1121425E+00
         21   -1    0    0  503  501  0.00000000000E+00  0.00000000000E+00  0.84921699757E+03  0.84921699757E+03  0.00000000000E+00 0.  1.
         21   -1    0    0  501  502 -0.00000000000E+00 -0.00000000000E+00 -0.74492798918E+02  0.74492798918E+02  0.00000000000E+00 0. -1.
         25    1    1    2    0    0  0.20170567962E+03 -0.11287896430E+02  0.18731017461E+03  0.30252718771E+03  0.12500000000E+03 0.  0.
         21    1    1    2  503  502 -0.20170567962E+03  0.11287896430E+02  0.58741402405E+03  0.62118260878E+03  0.00000000000E+00 0.  1.
<mgrwt>
<rscale>  3 0.23756599E+03</rscale>
<asrwt>0</asrwt>
<pdfrwt beam="1">  1       21 0.13064876E+00 0.23756599E+03</pdfrwt>
<pdfrwt beam="2">  1       21 0.11460431E-01 0.23756599E+03</pdfrwt>
<totfact> 0.26499153E+04</totfact>
</mgrwt>
</event>
<event>
 4    0  0.1525728E-001  0.3621028E+03  0.7546771E-02  0.1057754E+00
         21   -1    0    0  503  501  0.00000000000E+00  0.00000000000E+00  0.25795320710E+03  0.25795320710E+03  0.00000000000E+00 0. -1.
         21   -1    0    0  501  502 -0.00000000000E+00 -0.00000000000E+00 -0.49180905776E+03  0.49180905776E+03  0.00000000000E+00 0. -1.
         25    1    1    2    0    0  0.32439603079E+03 -0.10129485853E+03 -0.18435969276E+03  0.40633351999E+03  0.12500000000E+03 0.  0.
         21    1    1    2  503  502 -0.32439603079E+03  0.10129485853E+03 -0.49496157902E+02  0.34342874487E+03  0.00000000000E+00 0. -1.
<mgrwt>
<rscale>  3 0.36210279E+03</rscale>
<asrwt>0</asrwt>
<pdfrwt beam="1">  1       21 0.39685109E-01 0.36210279E+03</pdfrwt>
<pdfrwt beam="2">  1       21 0.75662931E-01 0.36210279E+03</pdfrwt>
<totfact> 0.87393281E+03</totfact>
</mgrwt>
</event>
<event>
 4    0  0.1215267E-001  0.3021684E+03  0.7546771E-02  0.1084162E+00
         21   -1    0    0  502  501  0.00000000000E+00  0.00000000000E+00  0.29233001253E+03  0.29233001253E+03  0.00000000000E+00 0. -1.
         21   -1    0    0  503  502 -0.00000000000E+00 -0.00000000000E+00 -0.75831769232E+03  0.75831769232E+03  0.00000000000E+00 0. -1.
         25    1    1    2    0    0  0.26193994203E+03  0.84072759621E+02 -0.65196237616E+03  0.71858242538E+03  0.12500000000E+03 0.  0.
         21    1    1    2  503  501 -0.26193994203E+03 -0.84072759621E+02  0.18597469636E+03  0.33206527947E+03  0.00000000000E+00 0. -1.
<mgrwt>
<rscale>  3 0.30216843E+03</rscale>
<asrwt>0</asrwt>
<pdfrwt beam="1">  1       21 0.44973848E-01 0.30216843E+03</pdfrwt>
<pdfrwt beam="2">  1       21 0.11666426E+00 0.30216843E+03</pdfrwt>
<totfact> 0.24822208E+03</totfact>
</mgrwt>
</event>
<event>
 4    0  0.1337112E-001  0.2775902E+03  0.7546771E-02  0.1097012E+00
         21   -1    0    0  503  501  0.00000000000E+00  0.00000000000E+00  0.50071295496E+02  0.50071295496E+02  0.00000000000E+00 0. -1.
         21   -1    0    0  501  502 -0.00000000000E+00 -0.00000000000E+00 -0.15390485999E+04  0.15390485999E+04  0.00000000000E+00 0. -1.
         25    1    1    2    0    0  0.19323402335E+03 -0.15521573548E+03 -0.10384945294E+04  0.10749545106E+04  0.12500000000E+03 0.  0.
         21    1    1    2  503  502 -0.19323402335E+03  0.15521573548E+03 -0.45048277500E+03  0.51416538477E+03  0.00000000000E+00 0. -1.
<mgrwt>
<rscale>  3 0.27759019E+03</rscale>
<asrwt>0</asrwt>
<pdfrwt beam="1">  1       21 0.77032757E-02 0.27759019E+03</pdfrwt>
<pdfrwt beam="2">  1       21 0.23677672E+00 0.27759019E+03</pdfrwt>
<totfact> 0.95481048E+03</totfact>
</mgrwt>
</event>
<event>
 4    0  0.1194306E-001  0.3408448E+03  0.7546771E-02  0.1066437E+00
         21   -1    0    0  503  501  0.00000000000E+00  0.00000000000E+00  0.88377899599E+03  0.88377899599E+03  0.00000000000E+00 0. -1.
         21   -1    0    0  501  502 -0.00000000000E+00 -0.00000000000E+00 -0.22598008523E+03  0.22598008523E+03  0.00000000000E+00 0.  1.
         25    1    1    2    0    0 -0.13173362971E+02  0.31682269893E+03 -0.40104211134E+02  0.34319601950E+03  0.12500000000E+03 0.  0.
         21    1    1    2  503  502  0.13173362971E+02 -0.31682269893E+03  0.69790312189E+03  0.76656306172E+03  0.00000000000E+00 0. -1.
<mgrwt>
<rscale>  3 0.34084477E+03</rscale>
<asrwt>0</asrwt>
<pdfrwt beam="1">  1       21 0.13596600E+00 0.34084477E+03</pdfrwt>
<pdfrwt beam="2">  1       21 0.34766167E-01 0.34084477E+03</pdfrwt>
<totfact> 0.27842048E+03</totfact>
</mgrwt>
</event>
<event>
 4    0  0.1005289E-001  0.5817247E+03  0.7546771E-02  0.9944064E-01
         21   -1    0    0  503  501  0.00000000000E+00  0.00000000000E+00  0.24333856409E+04  0.24333856409E+04  0.00000000000E+00 0.  1.
         21   -1    0    0  501  502 -0.00000000000E+00 -0.00000000000E+00 -0.15206352727E+03  0.15206352727E+03  0.00000000000E+00 0.  1.
         25    1    1    2    0    0  0.24700418198E+02 -0.56759887753E+03  0.15749557798E+04  0.16789548251E+04  0.12500000000E+03 0.  0.
         21    1    1    2  503  502 -0.24700418198E+02  0.56759887753E+03  0.70636633385E+03  0.90649434308E+03  0.00000000000E+00 0.  1.
<mgrwt>
<rscale>  3 0.58172467E+03</rscale>
<asrwt>0</asrwt>
<pdfrwt beam="1">  1       21 0.37436699E+00 0.58172467E+03</pdfrwt>
<pdfrwt beam="2">  1       21 0.23394391E-01 0.58172467E+03</pdfrwt>
<totfact> 0.15216519E+02</totfact>
</mgrwt>
</event>
<event>
 4    0  0.1528772E-001  0.2731370E+03  0.7546771E-02  0.1099498E+00
         21   -1    0    0  503  501  0.00000000000E+00  0.00000000000E+00  0.92043991200E+03  0.92043991200E+03  0.00000000000E+00 0. -1.
         21   -1    0    0  501  502 -0.00000000000E+00 -0.00000000000E+00 -0.82949142330E+02  0.82949142330E+02  0.00000000000E+00 0. -1.
         25    1    1    2    0    0  0.21100039740E+03  0.12024004423E+03  0.26081139823E+03  0.37765913386E+03  0.12500000000E+03 0.  0.
         21    1    1    2  503  502 -0.21100039740E+03 -0.12024004423E+03  0.57667937143E+03  0.62572992047E+03  0.00000000000E+00 0. -1.
<mgrwt>
<rscale>  3 0.27313703E+03</rscale>
<asrwt>0</asrwt>
<pdfrwt beam="1">  1       21 0.14160613E+00 0.27313703E+03</pdfrwt>
<pdfrwt beam="2">  1       21 0.12761407E-01 0.27313703E+03</pdfrwt>
<totfact> 0.17415599E+04</totfact>
</mgrwt>
</event>
<event>
 4    0  0.1307902E-001  0.2544388E+03  0.7546771E-02  0.1110531E+00
         21   -1    0    0  503  501  0.00000000000E+00  0.00000000000E+00  0.70066578679E+02  0.70066578679E+02  0.00000000000E+00 0. -1.
         21   -1    0    0  501  502 -0.00000000000E+00 -0.00000000000E+00 -0.80876743645E+03  0.80876743645E+03  0.00000000000E+00 0. -1.
         25    1    1    2    0    0  0.13408472405E+03  0.17645215910E+03 -0.38889866852E+03  0.46473783152E+03  0.12500000000E+03 0.  0.
         21    1    1    2  503  502 -0.13408472405E+03 -0.17645215910E+03 -0.34980218926E+03  0.41409618361E+03  0.00000000000E+00 0. -1.
<mgrwt>
<rscale>  3 0.25443875E+03</rscale>
<asrwt>0</asrwt>
<pdfrwt beam="1">  1       21 0.10779474E-01 0.25443875E+03</pdfrwt>
<pdfrwt beam="2">  1       21 0.12442576E+00 0.25443875E+03</pdfrwt>
<totfact> 0.33186935E+04</totfact>
</mgrwt>
</event>
<event>
 4    0  0.1268587E-001  0.2584974E+03  0.7546771E-02  0.1108049E+00
         21   -1    0    0  502  501  0.00000000000E+00  0.00000000000E+00  0.26767968804E+03  0.26767968804E+03  0.00000000000E+00 0. -1.
         21   -1    0    0  503  502 -0.00000000000E+00 -0.00000000000E+00 -0.39473832740E+03  0.39473832740E+03  0.00000000000E+00 0. -1.
         25    1    1    2    0    0  0.88533074957E+02  0.20822536195E+03 -0.28630253543E+03  0.38573313121E+03  0.12500000000E+03 0.  0.
         21    1    1    2  503  501 -0.88533074957E+02 -0.20822536195E+03  0.15924389607E+03  0.27668488422E+03  0.00000000000E+00 0. -1.
<mgrwt>
<rscale>  3 0.25849740E+03</rscale>
<asrwt>0</asrwt>
<pdfrwt beam="1">  1       21 0.41181490E-01 0.25849740E+03</pdfrwt>
<pdfrwt beam="2">  1       21 0.60728974E-01 0.25849740E+03</pdfrwt>
<totfact> 0.13803923E+04</totfact>
</mgrwt>
</event>
<event>
 4    0  0.1005289E-001  0.2386858E+03  0.7546771E-02  0.1120671E+00
         21   -1    0    0  502  501  0.00000000000E+00  0.00000000000E+00  0.23136083404E+04  0.23136083404E+04  0.00000000000E+00 0.  1.
         21   -1    0    0  503  502 -0.00000000000E+00 -0.00000000000E+00 -0.25286549158E+02  0.25286549158E+02  0.00000000000E+00 0. -1.
         25    1    1    2    0    0 -0.19537357493E+03  0.56347935958E+02  0.74669369873E+03  0.78391479345E+03  0.12500000000E+03 0.  0.
         21    1    1    2  503  501  0.19537357493E+03 -0.56347935958E+02  0.15416280925E+04  0.15549800961E+04  0.00000000000E+00 0.  1.
<mgrwt>
<rscale>  3 0.23868583E+03</rscale>
<asrwt>0</asrwt>
<pdfrwt beam="1">  1       21 0.35593958E+00 0.23868583E+03</pdfrwt>
<pdfrwt beam="2">  1       21 0.38902401E-02 0.23868583E+03</pdfrwt>
<totfact> 0.62830386E+03</totfact>
</mgrwt>
</event>
<event>
 4    0  0.1217028E-001  0.3197463E+03  0.7546771E-02  0.1075766E+00
         21   -1    0    0  503  501  0.00000000000E+00  0.00000000000E+00  0.61360052395E+03  0.61360052395E+03  0.00000000000E+00 0.  1.
         21   -1    0    0  501  502 -0.00000000000E+00 -0.00000000000E+00 -0.38150793329E+03  0.38150793329E+03  0.00000000000E+00 0.  1.
         25    1    1    2    0    0  0.41051340508E+02  0.29142324635E+03 -0.26642838518E+03  0.41619923774E+03  0.12500000000E+03 0.  0.
         21    1    1    2  503  502 -0.41051340508E+02 -0.29142324635E+03  0.49852097583E+03  0.57890921949E+03  0.00000000000E+00 0.  1.
<mgrwt>
<rscale>  3 0.31974634E+03</rscale>
<asrwt>0</asrwt>
<pdfrwt beam="1">  1       21 0.94400080E-01 0.31974634E+03</pdfrwt>
<pdfrwt beam="2">  1       21 0.58693529E-01 0.31974634E+03</pdfrwt>
<totfact> 0.23394316E+03</totfact>
</mgrwt>
</event>
<event>
 4    0  0.1407910E-001  0.2569649E+03  0.7546771E-02  0.1108981E+00
         21   -1    0    0  503  501  0.00000000000E+00  0.00000000000E+00  0.12324287176E+03  0.12324287176E+03  0.00000000000E+00 0.  1.
         21   -1    0    0  501  502 -0.00000000000E+00 -0.00000000000E+00 -0.47276505392E+03  0.47276505392E+03  0.00000000000E+00 0.  1.
         25    1    1    2    0    0  0.20588957418E+03 -0.89529021123E+02 -0.16479863322E+03  0.30526963801E+03  0.12500000000E+03 0.  0.
         21    1    1    2  503  502 -0.20588957418E+03  0.89529021123E+02 -0.18472354894E+03  0.29073828766E+03  0.00000000000E+00 0.  1.
<mgrwt>
<rscale>  3 0.25696490E+03</rscale>
<asrwt>0</asrwt>
<pdfrwt beam="1">  1       21 0.18960442E-01 0.25696490E+03</pdfrwt>
<pdfrwt beam="2">  1       21 0.72733084E-01 0.25696490E+03</pdfrwt>
<totfact> 0.42130922E+04</totfact>
</mgrwt>
</event>
<event>
 4    0  0.1088550E-001  0.3337604E+03  0.7546771E-02  0.1069485E+00
         21   -1    0    0  502  501  0.00000000000E+00  0.00000000000E+00  0.15231094042E+04  0.15231094042E+04  0.00000000000E+00 0.  1.
         21   -1    0    0  503  502 -0.00000000000E+00 -0.00000000000E+00 -0.83956857863E+02  0.83956857863E+02  0.00000000000E+00 0.  1.
         25    1    1    2    0    0  0.23290472188E+03 -0.20378031863E+03  0.39047793692E+03  0.51368185383E+03  0.12500000000E+03 0.  0.
         21    1    1    2  503  501 -0.23290472188E+03  0.20378031863E+03  0.10486746095E+04  0.10933844083E+04  0.00000000000E+00 0.  1.
<mgrwt>
<rscale>  3 0.33376043E+03</rscale>
<asrwt>0</asrwt>
<pdfrwt beam="1">  1       21 0.23432450E+00 0.33376043E+03</pdfrwt>
<pdfrwt beam="2">  1       21 0.12916441E-01 0.33376043E+03</pdfrwt>
<totfact> 0.37952450E+03</totfact>
</mgrwt>
</event>
<event>
 4    0  0.1133245E-001  0.2565570E+03  0.7546771E-02  0.1109230E+00
         21   -1    0    0  503  501  0.00000000000E+00  0.00000000000E+00  0.10743611991E+04  0.10743611991E+04  0.00000000000E+00 0.  1.
         21   -1    0    0  501  502 -0.00000000000E+00 -0.00000000000E+00 -0.12014760404E+03  0.12014760404E+03  0.00000000000E+00 0.  1.
         25    1    1    2    0    0  0.20461850488E+03 -0.91256677769E+02  0.47997993323E+02  0.26100827792E+03  0.12500000000E+03 0.  0.
         21    1    1    2  503  502 -0.20461850488E+03  0.91256677769E+02  0.90621560175E+03  0.93350052525E+03  0.00000000000E+00 0.  1.
<mgrwt>
<rscale>  3 0.25655704E+03</rscale>
<asrwt>0</asrwt>
<pdfrwt beam="1">  1       21 0.16528633E+00 0.25655704E+03</pdfrwt>
<pdfrwt beam="2">  1       21 0.18484247E-01 0.25655704E+03</pdfrwt>
<totfact> 0.58724634E+03</totfact>
</mgrwt>
</event>
<event>
 4    0  0.1168744E-001  0.2608922E+03  0.7546771E-02  0.1106608E+00
         21   -1    0    0  502  501  0.00000000000E+00  0.00000000000E+00  0.94528214498E+03  0.94528214498E+03  0.00000000000E+00 0.  1.
         21   -1    0    0  503  502 -0.00000000000E+00 -0.00000000000E+00 -0.32129120839E+03  0.32129120839E+03  0.00000000000E+00 0.  1.
         25    1    1    2    0    0 -0.22873070212E+03 -0.11046314611E+02 -0.25104982742E+03  0.36206459507E+03  0.12500000000E+03 0.  0.
         21    1    1    2  503  501  0.22873070212E+03  0.11046314611E+02  0.87504076401E+03  0.90450875829E+03  0.00000000000E+00 0.  1.
<mgrwt>
<rscale>  3 0.26089223E+03</rscale>
<asrwt>0</asrwt>
<pdfrwt beam="1">  1       21 0.14542802E+00 0.26089223E+03</pdfrwt>
<pdfrwt beam="2">  1       21 0.49429417E-01 0.26089223E+03</pdfrwt>
<totfact> 0.11908058E+03</totfact>
</mgrwt>
</event>
<event>
 4    0  0.1028499E-001  0.2456124E+03  0.7546771E-02  0.1116110E+00
         21   -1    0    0  503  501  0.00000000000E+00  0.00000000000E+00  0.34476677813E+02  0.34476677813E+02  0.00000000000E+00 0. -1.
         21   -1    0    0  501  502 -0.00000000000E+00 -0.00000000000E+00 -0.18452045713E+04  0.18452045713E+04  0.00000000000E+00 0. -1.
         25    1    1    2    0    0  0.17510257155E+02 -0.21069843581E+03 -0.13578199995E+04  0.13798552790E+04  0.12500000000E+03 0.  0.
         21    1    1    2  503  502 -0.17510257155E+02  0.21069843581E+03 -0.45290789395E+03  0.49982597007E+03  0.00000000000E+00 0. -1.
<mgrwt>
<rscale>  3 0.24561238E+03</rscale>
<asrwt>0</asrwt>
<pdfrwt beam="1">  1       21 0.53041064E-02 0.24561238E+03</pdfrwt>
<pdfrwt beam="2">  1       21 0.28387752E+00 0.24561238E+03</pdfrwt>
<totfact> 0.97900535E+03</totfact>
</mgrwt>
</event>
<event>
 4    0  0.1509452E-001  0.3952737E+03  0.7546771E-02  0.1045429E+00
         21   -1    0    0  502  501  0.00000000000E+00  0.00000000000E+00  0.18868929465E+03  0.18868929465E+03  0.00000000000E+00 0. -1.
         21   -1    0    0  503  502 -0.00000000000E+00 -0.00000000000E+00 -0.84191236380E+03  0.84191236380E+03  0.00000000000E+00 0. -1.
         25    1    1    2    0    0 -0.15079378914E+03  0.34333295938E+03 -0.46729303839E+03  0.61204907611E+03  0.12500000000E+03 0.  0.
         21    1    1    2  503  501  0.15079378914E+03 -0.34333295938E+03 -0.18593003077E+03  0.41855258234E+03  0.00000000000E+00 0. -1.
<mgrwt>
<rscale>  3 0.39527369E+03</rscale>
<asrwt>0</asrwt>
<pdfrwt beam="1">  1       21 0.29029122E-01 0.39527369E+03</pdfrwt>
<pdfrwt beam="2">  1       21 0.12952498E+00 0.39527369E+03</pdfrwt>
<totfact> 0.44123345E+03</totfact>
</mgrwt>
</event>
<event>
 4    0  0.1124903E-001  0.2617717E+03  0.7546771E-02  0.1106083E+00
         21   -1    0    0  503  501  0.00000000000E+00  0.00000000000E+00  0.56262720536E+03  0.56262720536E+03  0.00000000000E+00 0.  1.
         21   -1    0    0  501  502 -0.00000000000E+00 -0.00000000000E+00 -0.42449551995E+03  0.42449551995E+03  0.00000000000E+00 0.  1.
         25    1    1    2    0    0 -0.22997567647E+03  0.32567929879E+01 -0.35611839097E+03  0.44197819726E+03  0.12500000000E+03 0.  0.
         21    1    1    2  503  502  0.22997567647E+03 -0.32567929879E+01  0.49425007638E+03  0.54514452805E+03  0.00000000000E+00 0.  1.
<mgrwt>
<rscale>  3 0.26177169E+03</rscale>
<asrwt>0</asrwt>
<pdfrwt beam="1">  1       21 0.86558031E-01 0.26177169E+03</pdfrwt>
<pdfrwt beam="2">  1       21 0.65307003E-01 0.26177169E+03</pdfrwt>
<totfact> 0.23506789E+03</totfact>
</mgrwt>
</event>
<event>
 4    0  0.1468007E-001  0.2856681E+03  0.7546771E-02  0.1092633E+00
         21   -1    0    0  502  501  0.00000000000E+00  0.00000000000E+00  0.11028450618E+04  0.11028450618E+04  0.00000000000E+00 0.  1.
         21   -1    0    0  503  502 -0.00000000000E+00 -0.00000000000E+00 -0.67313332854E+02  0.67313332854E+02  0.00000000000E+00 0.  1.
         25    1    1    2    0    0 -0.21732794807E+03  0.13693003590E+03  0.49034934740E+03  0.56749339576E+03  0.12500000000E+03 0.  0.
         21    1    1    2  503  501  0.21732794807E+03 -0.13693003590E+03  0.54518238159E+03  0.60266499893E+03  0.00000000000E+00 0.  1.
<mgrwt>
<rscale>  3 0.28566811E+03</rscale>
<asrwt>0</asrwt>
<pdfrwt beam="1">  1       21 0.16966846E+00 0.28566811E+03</pdfrwt>
<pdfrwt beam="2">  1       21 0.10355898E-01 0.28566811E+03</pdfrwt>
<totfact> 0.15449844E+04</totfact>
</mgrwt>
</event>
<event>
 4    0  0.1005289E-001  0.2469322E+03  0.7546771E-02  0.1115259E+00
         21   -1    0    0  503  501  0.00000000000E+00  0.00000000000E+00  0.20139249586E+04  0.20139249586E+04  0.00000000000E+00 0. -1.
         21   -1    0    0  501  502 -0.00000000000E+00 -0.00000000000E+00 -0.45029155849E+02  0.45029155849E+02  0.00000000000E+00 0.  1.
         25    1    1    2    0    0  0.14624148243E+03 -0.15480293817E+03  0.36316388408E+03  0.43916230206E+03  0.12500000000E+03 0.  0.
         21    1    1    2  503  502 -0.14624148243E+03  0.15480293817E+03  0.16057319187E+04  0.16197918124E+04  0.00000000000E+00 0. -1.
<mgrwt>
<rscale>  3 0.24693222E+03</rscale>
<asrwt>0</asrwt>
<pdfrwt beam="1">  1       21 0.30983454E+00 0.24693222E+03</pdfrwt>
<pdfrwt beam="2">  1       21 0.69275640E-02 0.24693222E+03</pdfrwt>
<totfact> 0.43553902E+03</totfact>
</mgrwt>
</event>
<event>
 4    0  0.1005289E-001  0.2856099E+03  0.7546771E-02  0.1092664E+00
         21   -1    0    0  503  501  0.00000000000E+00  0.00000000000E+00  0.24284427763E+04  0.24284427763E+04  0.00000000000E+00 0.  1.
         21   -1    0    0  501  502 -0.00000000000E+00 -0.00000000000E+00 -0.39206484357E+02  0.39206484357E+02  0.00000000000E+00 0.  1.
         25    1    1    2    0    0 -0.21424076579E+03  0.14159421703E+03  0.18314475250E+04  0.18535838435E+04  0.12500000000E+03 0.  0.
         21    1    1    2  503  502  0.21424076579E+03 -0.14159421703E+03  0.55778876688E+03  0.61406541710E+03  0.00000000000E+00 0.  1.
<mgrwt>
<rscale>  3 0.28560992E+03</rscale>
<asrwt>0</asrwt>
<pdfrwt beam="1">  1       21 0.37360646E+00 0.28560992E+03</pdfrwt>
<pdfrwt beam="2">  1       21 0.60317687E-02 0.28560992E+03</pdfrwt>
<totfact> 0.22209598E+03</totfact>
</mgrwt>
</event>
<event>
 4    0  0.1742408E-001  0.3088797E+03  0.7546771E-02  0.1080884E+00
         21   -1    0    0  502  501  0.00000000000E+00  0.00000000000E+00  0.32446472500E+03  0.32446472500E+03  0.00000000000E+00 0.  1.
         21   -1    0    0  503  502 -0.00000000000E+00 -0.00000000000E+00 -0.26943915219E+03  0.26943915219E+03  0.00000000000E+00 0.  1.
         25    1    1    2    0    0 -0.64018644219E+02  0.27510591816E+03  0.30721961503E+02  0.31040375631E+03  0.12500000000E+03 0.  0.
         21    1    1    2  503  501  0.64018644219E+02 -0.27510591816E+03  0.24303611302E+02  0.28350012088E+03  0.00000000000E+00 0.  1.
<mgrwt>
<rscale>  3 0.30887967E+03</rscale>
<asrwt>0</asrwt>
<pdfrwt beam="1">  1       21 0.49917650E-01 0.30887967E+03</pdfrwt>
<pdfrwt beam="2">  1       21 0.41452177E-01 0.30887967E+03</pdfrwt>
<totfact> 0.20256020E+04</totfact>
</mgrwt>
</event>
<event>
 4    0  0.1181797E-001  0.2550902E+03  0.7546771E-02  0.1110130E+00
         21   -1    0    0  502  501  0.00000000000E+00  0.00000000000E+00  0.77040634795E+03  0.77040634795E+03  0.00000000000E+00 0. -1.
         21   -1    0    0  503  502 -0.00000000000E+00 -0.00000000000E+00 -0.12198508684E+03  0.12198508684E+03  0.00000000000E+00 0. -1.
         25    1    1    2    0    0  0.17805635616E+03 -0.13319896158E+03  0.58162770628E+02  0.26163703335E+03  0.12500000000E+03 0.  0.
         21    1    1    2  503  501 -0.17805635616E+03  0.13319896158E+03  0.59025849049E+03  0.63075440143E+03  0.00000000000E+00 0. -1.
<mgrwt>
<rscale>  3 0.25509024E+03</rscale>
<asrwt>0</asrwt>
<pdfrwt beam="1">  1       21 0.11852405E+00 0.25509024E+03</pdfrwt>
<pdfrwt beam="2">  1       21 0.18766937E-01 0.25509024E+03</pdfrwt>
<totfact> 0.13621171E+04</totfact>
</mgrwt>
</event>
<event>
 4    0  0.1023702E-001  0.3699429E+03  0.7546771E-02  0.1054715E+00
         21   -1    0    0  503  501  0.00000000000E+00  0.00000000000E+00  0.24846072135E+03  0.24846072135E+03  0.00000000000E+00 0. -1.
         21   -1    0    0  501  502 -0.00000000000E+00 -0.00000000000E+00 -0.11650240775E+04  0.11650240775E+04  0.00000000000E+00 0. -1.
         25    1    1    2    0    0 -0.34741700828E+03  0.23112246879E+02 -0.99067962781E+03  0.10574988788E+04  0.12500000000E+03 0.  0.
         21    1    1    2  503  502  0.34741700828E+03 -0.23112246879E+02  0.74116271643E+02  0.35598592012E+03  0.00000000000E+00 0. -1.
<mgrwt>
<rscale>  3 0.36994291E+03</rscale>
<asrwt>0</asrwt>
<pdfrwt beam="1">  1       21 0.38224726E-01 0.36994291E+03</pdfrwt>
<pdfrwt beam="2">  1       21 0.17923448E+00 0.36994291E+03</pdfrwt>
<totfact> 0.10614875E+03</totfact>
</mgrwt>
</event>
<event>
 4    0  0.1154183E-001  0.4914018E+03  0.7546771E-02  0.1016048E+00
         21   -1    0    0  503  501  0.00000000000E+00  0.00000000000E+00  0.12950551598E+03  0.12950551598E+03  0.00000000000E+00 0.  1.
         21   -1    0    0  501  502 -0.00000000000E+00 -0.00000000000E+00 -0.18086150820E+04  0.18086150820E+04  0.00000000000E+00 0.  1.
         25    1    1    2    0    0 -0.46588476900E+03 -0.93819354688E+02 -0.90371774313E+03  0.10286794683E+04  0.12500000000E+03 0.  0.
         21    1    1    2  503  502  0.46588476900E+03  0.93819354688E+02 -0.77539182291E+03  0.90944112967E+03  0.00000000000E+00 0.  1.
<mgrwt>
<rscale>  3 0.49140176E+03</rscale>
<asrwt>0</asrwt>
<pdfrwt beam="1">  1       21 0.19923925E-01 0.49140176E+03</pdfrwt>
<pdfrwt beam="2">  1       21 0.27824849E+00 0.49140176E+03</pdfrwt>
<totfact> 0.84107499E+02</totfact>
</mgrwt>
</event>
<event>
 4    0  0.1578865E-001  0.2490508E+03  0.7546771E-02  0.1113906E+00
         21   -1    0    0  502  501  0.00000000000E+00  0.00000000000E+00  0.55186593403E+03  0.55186593403E+03  0.00000000000E+00 0. -1.
         21   -1    0    0  503  502 -0.00000000000E+00 -0.00000000000E+00 -0.11000209117E+03  0.11000209117E+03  0.00000000000E+00 0. -1.
         25    1    1    2    0    0 -0.12444836336E+03  0.17582350435E+03  0.12484657481E+03  0.27859103910E+03  0.12500000000E+03 0.  0.
         21    1    1    2  503  501  0.12444836336E+03 -0.17582350435E+03  0.31701726806E+03  0.38327698610E+03  0.00000000000E+00 0. -1.
<mgrwt>
<rscale>  3 0.24905080E+03</rscale>
<asrwt>0</asrwt>
<pdfrwt beam="1">  1       21 0.84902450E-01 0.24905080E+03</pdfrwt>
<pdfrwt beam="2">  1       21 0.16923399E-01 0.24905080E+03</pdfrwt>
<totfact> 0.36760356E+04</totfact>
</mgrwt>
</event>
<event>
 4    0  0.1149843E-001  0.2562536E+03  0.7546771E-02  0.1109415E+00
         21   -1    0    0  502  501  0.00000000000E+00  0.00000000000E+00  0.82775324502E+03  0.82775324502E+03  0.00000000000E+00 0. -1.
         21   -1    0    0  503  502 -0.00000000000E+00 -0.00000000000E+00 -0.70078158388E+02  0.70078158388E+02  0.00000000000E+00 0. -1.
         25    1    1    2    0    0 -0.22326103635E+03 -0.13979802565E+02  0.44241274088E+03  0.51126799091E+03  0.12500000000E+03 0.  0.
         21    1    1    2  503  501  0.22326103635E+03  0.13979802565E+02  0.31526234575E+03  0.38656341250E+03  0.00000000000E+00 0. -1.
<mgrwt>
<rscale>  3 0.25625363E+03</rscale>
<asrwt>0</asrwt>
<pdfrwt beam="1">  1       21 0.12734665E+00 0.25625363E+03</pdfrwt>
<pdfrwt beam="2">  1       21 0.10781256E-01 0.25625363E+03</pdfrwt>
<totfact> 0.31259113E+04</totfact>
</mgrwt>
</event>
<event>
 4    0  0.1420893E-001  0.2542941E+03  0.7546771E-02  0.1110621E+00
         21   -1    0    0  502  501  0.00000000000E+00  0.00000000000E+00  0.88096730170E+02  0.88096730170E+02  0.00000000000E+00 0.  1.
         21   -1    0    0  503  502 -0.00000000000E+00 -0.00000000000E+00 -0.93133313254E+03  0.93133313254E+03  0.00000000000E+00 0.  1.
         25    1    1    2    0    0 -0.10485203929E+03  0.19505518927E+03 -0.72518550835E+03  0.76847869100E+03  0.12500000000E+03 0.  0.
         21    1    1    2  503  501  0.10485203929E+03 -0.19505518927E+03 -0.11805089402E+03  0.25095117171E+03  0.00000000000E+00 0.  1.
<mgrwt>
<rscale>  3 0.25429408E+03</rscale>
<asrwt>0</asrwt>
<pdfrwt beam="1">  1       21 0.13553343E-01 0.25429408E+03</pdfrwt>
<pdfrwt beam="2">  1       21 0.14328202E+00 0.25429408E+03</pdfrwt>
<totfact> 0.15287327E+04</totfact>
</mgrwt>
</event>
<event>
 4    0  0.1005289E-001  0.3536949E+03  0.7546771E-02  0.1061109E+00
         21   -1    0    0  502  501  0.00000000000E+00  0.00000000000E+00  0.22895311479E+04  0.22895311479E+04  0.00000000000E+00 0. -1.
         21   -1    0    0  503  502 -0.00000000000E+00 -0.00000000000E+00 -0.14287798523E+03  0.14287798523E+03  0.00000000000E+00 0.  1.
         25    1    1    2    0    0 -0.30924928693E+03  0.11764342421E+03  0.11196395689E+03  0.37099329423E+03  0.12500000000E+03 0.  0.
         21    1    1    2  503  501  0.30924928693E+03 -0.11764342421E+03  0.20346892057E+04  0.20614158389E+04  0.00000000000E+00 0. -1.
<mgrwt>
<rscale>  3 0.35369492E+03</rscale>
<asrwt>0</asrwt>
<pdfrwt beam="1">  1       21 0.35223553E+00 0.35369492E+03</pdfrwt>
<pdfrwt beam="2">  1       21 0.21981230E-01 0.35369492E+03</pdfrwt>
<totfact> 0.27247419E+02</totfact>
</mgrwt>
</event>
<event>
 4    0  0.1043616E-001  0.2596107E+03  0.7546771E-02  0.1107377E+00
         21   -1    0    0  503  501  0.00000000000E+00  0.00000000000E+00  0.41099955148E+02  0.41099955148E+02  0.00000000000E+00 0. -1.
         21   -1    0    0  501  502 -0.00000000000E+00 -0.00000000000E+00 -0.20291899207E+04  0.20291899207E+04  0.00000000000E+00 0. -1.
         25    1    1    2    0    0 -0.20426177856E+03  0.10024896548E+03 -0.15958693751E+04  0.16168477949E+04  0.12500000000E+03 0.  0.
         21    1    1    2  503  502  0.20426177856E+03 -0.10024896548E+03 -0.39222059043E+03  0.45344208100E+03  0.00000000000E+00 0. -1.
<mgrwt>
<rscale>  3 0.25961073E+03</rscale>
<asrwt>0</asrwt>
<pdfrwt beam="1">  1       21 0.63230698E-02 0.25961073E+03</pdfrwt>
<pdfrwt beam="2">  1       21 0.31218308E+00 0.25961073E+03</pdfrwt>
<totfact> 0.48863420E+03</totfact>
</mgrwt>
</event>
<event>
 4    0  0.1585328E-001  0.3109787E+03  0.7546771E-02  0.1079878E+00
         21   -1    0    0  502  501  0.00000000000E+00  0.00000000000E+00  0.74592022532E+03  0.74592022532E+03  0.00000000000E+00 0. -1.
         21   -1    0    0  503  502 -0.00000000000E+00 -0.00000000000E+00 -0.27844874690E+03  0.27844874690E+03  0.00000000000E+00 0.  1.
         25    1    1    2    0    0  0.26204491466E+03 -0.11142360946E+03 -0.14935767423E+03  0.34498619233E+03  0.12500000000E+03 0.  0.
         21    1    1    2  503  501 -0.26204491466E+03  0.11142360946E+03  0.61682915265E+03  0.67938277988E+03  0.00000000000E+00 0. -1.
<mgrwt>
<rscale>  3 0.31097871E+03</rscale>
<asrwt>0</asrwt>
<pdfrwt beam="1">  1       21 0.11475696E+00 0.31097871E+03</pdfrwt>
<pdfrwt beam="2">  1       21 0.42838269E-01 0.31097871E+03</pdfrwt>
<totfact> 0.28455036E+03</totfact>
</mgrwt>
</event>
<event>
 4    0  0.1026307E-001  0.2557524E+03  0.7546771E-02  0.1109722E+00
         21   -1    0    0  502  501  0.00000000000E+00  0.00000000000E+00  0.82235459491E+02  0.82235459491E+02  0.00000000000E+00 0. -1.
         21   -1    0    0  503  502 -0.00000000000E+00 -0.00000000000E+00 -0.15063062602E+04  0.15063062602E+04  0.00000000000E+00 0. -1.
         25    1    1    2    0    0  0.15379734324E+03  0.16164981255E+03 -0.13160036443E+04  0.13406248083E+04  0.12500000000E+03 0.  0.
         21    1    1    2  503  501 -0.15379734324E+03 -0.16164981255E+03 -0.10806715641E+03  0.24791691144E+03  0.00000000000E+00 0. -1.
<mgrwt>
<rscale>  3 0.25575239E+03</rscale>
<asrwt>0</asrwt>
<pdfrwt beam="1">  1       21 0.12651610E-01 0.25575239E+03</pdfrwt>
<pdfrwt beam="2">  1       21 0.23173942E+00 0.25575239E+03</pdfrwt>
<totfact> 0.43078728E+03</totfact>
</mgrwt>
</event>
<event>
 4    0  0.1005289E-001  0.4869962E+03  0.7546771E-02  0.1017230E+00
         21   -1    0    0  502  501  0.00000000000E+00  0.00000000000E+00  0.17446657474E+04  0.17446657474E+04  0.00000000000E+00 0.  1.
         21   -1    0    0  503  502 -0.00000000000E+00 -0.00000000000E+00 -0.14748162322E+03  0.14748162322E+03  0.00000000000E+00 0.  1.
         25    1    1    2    0    0  0.14298525026E+03  0.44843679840E+03  0.49855625212E+03  0.69693879250E+03  0.12500000000E+03 0.  0.
         21    1    1    2  503  501 -0.14298525026E+03 -0.44843679840E+03  0.10986278721E+04  0.11952085781E+04  0.00000000000E+00 0.  1.
<mgrwt>
<rscale>  3 0.48699625E+03</rscale>
<asrwt>0</asrwt>
<pdfrwt beam="1">  1       21 0.26841010E+00 0.48699625E+03</pdfrwt>
<pdfrwt beam="2">  1       21 0.22689482E-01 0.48699625E+03</pdfrwt>
<totfact> 0.75371487E+02</totfact>
</mgrwt>
</event>
<event>
 4    0  0.1486189E-001  0.3004833E+03  0.7546771E-02  0.1084999E+00
         21   -1    0    0  503  501  0.00000000000E+00  0.00000000000E+00  0.39888079015E+03  0.39888079015E+03  0.00000000000E+00 0. -1.
         21   -1    0    0  501  502 -0.00000000000E+00 -0.00000000000E+00 -0.33846630686E+03  0.33846630686E+03  0.00000000000E+00 0. -1.
         25    1    1    2    0    0 -0.52154646740E+01  0.27319960751E+03 -0.19913344183E+03  0.36047795255E+03  0.12500000000E+03 0.  0.
         21    1    1    2  503  502  0.52154646740E+01 -0.27319960751E+03  0.25954792512E+03  0.37686914447E+03  0.00000000000E+00 0. -1.
<mgrwt>
<rscale>  3 0.30048332E+03</rscale>
<asrwt>0</asrwt>
<pdfrwt beam="1">  1       21 0.61366275E-01 0.30048332E+03</pdfrwt>
<pdfrwt beam="2">  1       21 0.52071739E-01 0.30048332E+03</pdfrwt>
<totfact> 0.81147341E+03</totfact>
</mgrwt>
</event>
<event>
 4    0  0.1059340E-001  0.5511804E+03  0.7546771E-02  0.1001221E+00
         21   -1    0    0  502  501  0.00000000000E+00  0.00000000000E+00  0.60933637752E+03  0.60933637752E+03  0.00000000000E+00 0. -1.
         21   -1    0    0  503  502 -0.00000000000E+00 -0.00000000000E+00 -0.66041993418E+03  0.66041993418E+03  0.00000000000E+00 0. -1.
         25    1    1    2    0    0  0.20146952933E+03  0.49757902297E+03 -0.35234913108E+03  0.65417869541E+03  0.12500000000E+03 0.  0.
         21    1    1    2  503  501 -0.20146952933E+03 -0.49757902297E+03  0.30126557442E+03  0.61557761629E+03  0.00000000000E+00 0. -1.
<mgrwt>
<rscale>  3 0.55118042E+03</rscale>
<asrwt>0</asrwt>
<pdfrwt beam="1">  1       21 0.93744058E-01 0.55118042E+03</pdfrwt>
<pdfrwt beam="2">  1       21 0.10160307E+00 0.55118042E+03</pdfrwt>
<totfact> 0.61090313E+02</totfact>
</mgrwt>
</event>
<event>
 4    0  0.1360226E-001  0.2807394E+03  0.7546771E-02  0.1095286E+00
         21   -1    0    0  502  501  0.00000000000E+00  0.00000000000E+00  0.11926374274E+04  0.11926374274E+04  0.00000000000E+00 0. -1.
         21   -1    0    0  503  502 -0.00000000000E+00 -0.00000000000E+00 -0.89085734534E+02  0.89085734534E+02  0.00000000000E+00 0. -1.
         25    1    1    2    0    0 -0.21499466399E+03  0.13025706046E+03  0.20220264993E+03  0.34597762786E+03  0.12500000000E+03 0.  0.
         21    1    1    2  503  501  0.21499466399E+03 -0.13025706046E+03  0.90134904298E+03  0.93574553412E+03  0.00000000000E+00 0. -1.
<mgrwt>
<rscale>  3 0.28073939E+03</rscale>
<asrwt>0</asrwt>
<pdfrwt beam="1">  1       21 0.18348267E+00 0.28073939E+03</pdfrwt>
<pdfrwt beam="2">  1       21 0.13705498E-01 0.28073939E+03</pdfrwt>
<totfact> 0.74787514E+03</totfact>
</mgrwt>
</event>
<event>
 4    0  0.1337561E-001  0.4358193E+03  0.7546771E-02  0.1032037E+00
         21   -1    0    0  503  501  0.00000000000E+00  0.00000000000E+00  0.40078816176E+03  0.40078816176E+03  0.00000000000E+00 0. -1.
         21   -1    0    0  501  502 -0.00000000000E+00 -0.00000000000E+00 -0.14377567331E+04  0.14377567331E+04  0.00000000000E+00 0.  1.
         25    1    1    2    0    0 -0.40307996485E+03 -0.10881165643E+03 -0.12822682167E+04  0.13543080204E+04  0.12500000000E+03 0.  0.
         21    1    1    2  503  502  0.40307996485E+03  0.10881165643E+03  0.24529964529E+03  0.48423687450E+03  0.00000000000E+00 0. -1.
<mgrwt>
<rscale>  3 0.43581927E+03</rscale>
<asrwt>0</asrwt>
<pdfrwt beam="1">  1       21 0.61659717E-01 0.43581927E+03</pdfrwt>
<pdfrwt beam="2">  1       21 0.22119334E+00 0.43581927E+03</pdfrwt>
<totfact> 0.19564105E+02</totfact>
</mgrwt>
</event>
<event>
 4    0  0.1222261E-001  0.3443340E+03  0.7546771E-02  0.1064965E+00
         21   -1    0    0  502  501  0.00000000000E+00  0.00000000000E+00  0.11022771310E+03  0.11022771310E+03  0.00000000000E+00 0.  1.
         21   -1    0    0  503  502 -0.00000000000E+00 -0.00000000000E+00 -0.10888830592E+04  0.10888830592E+04  0.00000000000E+00 0.  1.
         25    1    1    2    0    0 -0.21499208600E+03 -0.23815817470E+03 -0.67302890194E+03  0.75599855560E+03  0.12500000000E+03 0.  0.
         21    1    1    2  503  501  0.21499208600E+03  0.23815817470E+03 -0.30562644411E+03  0.44311221667E+03  0.00000000000E+00 0.  1.
<mgrwt>
<rscale>  3 0.34433401E+03</rscale>
<asrwt>0</asrwt>
<pdfrwt beam="1">  1       21 0.16958110E-01 0.34433401E+03</pdfrwt>
<pdfrwt beam="2">  1       21 0.16752047E+00 0.34433401E+03</pdfrwt>
<totfact> 0.63292380E+03</totfact>
</mgrwt>
</event>
<event>
 4    0  0.1005289E-001  0.2500505E+03  0.7546771E-02  0.1113273E+00
         21   -1    0    0  503  501  0.00000000000E+00  0.00000000000E+00  0.56695601511E+02  0.56695601511E+02  0.00000000000E+00 0. -1.
         21   -1    0    0  501  502 -0.00000000000E+00 -0.00000000000E+00 -0.12532596104E+04  0.12532596104E+04  0.00000000000E+00 0.  1.
         25    1    1    2    0    0  0.19690323484E+03  0.90163111767E+02 -0.94733709133E+03  0.97978203455E+03  0.12500000000E+03 0.  0.
         21    1    1    2  503  502 -0.19690323484E+03 -0.90163111767E+02 -0.24922691757E+03  0.33017317737E+03  0.00000000000E+00 0. -1.
<mgrwt>
<rscale>  3 0.25005054E+03</rscale>
<asrwt>0</asrwt>
<pdfrwt beam="1">  1       21 0.87224007E-02 0.25005054E+03</pdfrwt>
<pdfrwt beam="2">  1       21 0.19280916E+00 0.25005054E+03</pdfrwt>
<totfact> 0.14815022E+04</totfact>
</mgrwt>
</event>
<event>
 4    0  0.1046251E-001  0.2503891E+03  0.7546771E-02  0.1113059E+00
         21   -1    0    0  503  501  0.00000000000E+00  0.00000000000E+00  0.22235275929E+03  0.22235275929E+03  0.00000000000E+00 0.  1.
         21   -1    0    0  501  502 -0.00000000000E+00 -0.00000000000E+00 -0.33746167941E+03  0.33746167941E+03  0.00000000000E+00 0. -1.
         25    1    1    2    0    0 -0.40625988114E+02 -0.21311783554E+03 -0.20634289541E+03  0.32445658141E+03  0.12500000000E+03 0.  0.
         21    1    1    2  503  502  0.40625988114E+02  0.21311783554E+03  0.91233975297E+02  0.23535785728E+03  0.00000000000E+00 0.  1.
<mgrwt>
<rscale>  3 0.25038906E+03</rscale>
<asrwt>0</asrwt>
<pdfrwt beam="1">  1       21 0.34208117E-01 0.25038906E+03</pdfrwt>
<pdfrwt beam="2">  1       21 0.51917181E-01 0.25038906E+03</pdfrwt>
<totfact> 0.28166305E+04</totfact>
</mgrwt>
</event>
<event>
 4    0  0.1328737E-001  0.3386775E+03  0.7546771E-02  0.1067361E+00
         21   -1    0    0  502  501  0.00000000000E+00  0.00000000000E+00  0.44310506404E+03  0.44310506404E+03  0.00000000000E+00 0. -1.
         21   -1    0    0  503  502 -0.00000000000E+00 -0.00000000000E+00 -0.37215328520E+03  0.37215328520E+03  0.00000000000E+00 0. -1.
         25    1    1    2    0    0 -0.20755048584E+03  0.23664370614E+03 -0.20565286313E+03  0.39622663709E+03  0.12500000000E+03 0.  0.
         21    1    1    2  503  501  0.20755048584E+03 -0.23664370614E+03  0.27660464197E+03  0.41903171215E+03  0.00000000000E+00 0. -1.
<mgrwt>
<rscale>  3 0.33867750E+03</rscale>
<asrwt>0</asrwt>
<pdfrwt beam="1">  1       21 0.68170010E-01 0.33867750E+03</pdfrwt>
<pdfrwt beam="2">  1       21 0.57254352E-01 0.33867750E+03</pdfrwt>
<totfact> 0.51636672E+03</totfact>
</mgrwt>
</event>
<event>
 4    0  0.1005289E-001  0.2456157E+03  0.7546771E-02  0.1116107E+00
         21   -1    0    0  502  501  0.00000000000E+00  0.00000000000E+00  0.21526250240E+04  0.21526250240E+04  0.00000000000E+00 0. -1.
         21   -1    0    0  503  502 -0.00000000000E+00 -0.00000000000E+00 -0.30044366453E+02  0.30044366453E+02  0.00000000000E+00 0. -1.
         25    1    1    2    0    0 -0.13347593205E+03  0.16397022909E+03  0.16031694256E+04  0.16218752319E+04  0.12500000000E+03 0.  0.
         21    1    1    2  503  501  0.13347593205E+03 -0.16397022909E+03  0.51941123194E+03  0.56079415861E+03  0.00000000000E+00 0. -1.
<mgrwt>
<rscale>  3 0.24561568E+03</rscale>
<asrwt>0</asrwt>
<pdfrwt beam="1">  1       21 0.33117296E+00 0.24561568E+03</pdfrwt>
<pdfrwt beam="2">  1       21 0.46222119E-02 0.24561568E+03</pdfrwt>
<totfact> 0.65452141E+03</totfact>
</mgrwt>
</event>
<event>
 4    0  0.1427909E-001  0.3452738E+03  0.7546771E-02  0.1064572E+00
         21   -1    0    0  503  501  0.00000000000E+00  0.00000000000E+00  0.86042444637E+03  0.86042444637E+03  0.00000000000E+00 0.  1.
         21   -1    0    0  501  502 -0.00000000000E+00 -0.00000000000E+00 -0.13376788835E+03  0.13376788835E+03  0.00000000000E+00 0.  1.
         25    1    1    2    0    0 -0.28630326706E+03 -0.14703560215E+03  0.28500126067E+03  0.44770497832E+03  0.12500000000E+03 0.  0.
         21    1    1    2  503  502  0.28630326706E+03  0.14703560215E+03  0.44165529735E+03  0.54648735640E+03  0.00000000000E+00 0.  1.
<mgrwt>
<rscale>  3 0.34527385E+03</rscale>
<asrwt>0</asrwt>
<pdfrwt beam="1">  1       21 0.13237299E+00 0.34527385E+03</pdfrwt>
<pdfrwt beam="2">  1       21 0.20579676E-01 0.34527385E+03</pdfrwt>
<totfact> 0.82836366E+03</totfact>
</mgrwt>
</event>
<event>
 4    0  0.1287330E-001  0.2427209E+03  0.7546771E-02  0.1117993E+00
         21   -1    0    0  503  501  0.00000000000E+00  0.00000000000E+00  0.18110483050E+03  0.18110483050E+03  0.00000000000E+00 0.  1.
         21   -1    0    0  501  502 -0.00000000000E+00 -0.00000000000E+00 -0.46658583315E+03  0.46658583315E+03  0.00000000000E+00 0.  1.
         25    1    1    2    0    0 -0.13295049708E+03 -0.16003943477E+03 -0.35348970670E+03  0.42879882007E+03  0.12500000000E+03 0.  0.
         21    1    1    2  503  502  0.13295049708E+03  0.16003943477E+03  0.68008704045E+02  0.21889184357E+03  0.00000000000E+00 0.  1.
<mgrwt>
<rscale>  3 0.24272094E+03</rscale>
<asrwt>0</asrwt>
<pdfrwt beam="1">  1       21 0.27862282E-01 0.24272094E+03</pdfrwt>
<pdfrwt beam="2">  1       21 0.71782436E-01 0.24272094E+03</pdfrwt>
<totfact> 0.20970399E+04</totfact>
</mgrwt>
</event>
<event>
 4    0  0.1378622E-001  0.2760122E+03  0.7546771E-02  0.1097887E+00
         21   -1    0    0  503  501  0.00000000000E+00  0.00000000000E+00  0.24149097984E+03  0.24149097984E+03  0.00000000000E+00 0.  1.
         21   -1    0    0  501  502 -0.00000000000E+00 -0.00000000000E+00 -0.29204762497E+03  0.29204762497E+03  0.00000000000E+00 0.  1.
         25    1    1    2    0    0 -0.22872630132E+03 -0.90785412322E+02  0.22255320554E+02  0.27690794734E+03  0.12500000000E+03 0.  0.
         21    1    1    2  503  502  0.22872630132E+03  0.90785412322E+02 -0.72811965687E+02  0.25663065747E+03  0.00000000000E+00 0.  1.
<mgrwt>
<rscale>  3 0.27601216E+03</rscale>
<asrwt>0</asrwt>
<pdfrwt beam="1">  1       21 0.37152458E-01 0.27601216E+03</pdfrwt>
<pdfrwt beam="2">  1       21 0.44930404E-01 0.27601216E+03</pdfrwt>
<totfact> 0.31945784E+04</totfact>
</mgrwt>
</event>
<event>
 4    0  0.1624740E-001  0.2531010E+03  0.7546771E-02  0.1111361E+00
         21   -1    0    0  503  501  0.00000000000E+00  0.00000000000E+00  0.21284396683E+03  0.21284396683E+03  0.00000000000E+00 0.  1.
         21   -1    0    0  501  502 -0.00000000000E+00 -0.00000000000E+00 -0.26466440006E+03  0.26466440006E+03  0.00000000000E+00 0.  1.
         25    1    1    2    0    0 -0.13206753604E+03  0.17604915472E+03 -0.46672389482E+02  0.25736831758E+03  0.12500000000E+03 0.  0.
         21    1    1    2  503  502  0.13206753604E+03 -0.17604915472E+03 -0.51480437469E+01  0.22014004931E+03  0.00000000000E+00 0.  1.
<mgrwt>
<rscale>  3 0.25310104E+03</rscale>
<asrwt>0</asrwt>
<pdfrwt beam="1">  1       21 0.32745226E-01 0.25310104E+03</pdfrwt>
<pdfrwt beam="2">  1       21 0.40717600E-01 0.25310104E+03</pdfrwt>
<totfact> 0.50793978E+04</totfact>
</mgrwt>
</event>
<event>
 4    0  0.1625964E-001  0.2587813E+03  0.7546771E-02  0.1107878E+00
         21   -1    0    0  503  501  0.00000000000E+00  0.00000000000E+00  0.38770171499E+03  0.38770171499E+03  0.00000000000E+00 0. -1.
         21   -1    0    0  501  502 -0.00000000000E+00 -0.00000000000E+00 -0.60184061036E+03  0.60184061036E+03  0.00000000000E+00 0.  1.
         25    1    1    2    0    0  0.13301347664E+03  0.18343989134E+03 -0.53641949191E+03  0.59557841634E+03  0.12500000000E+03 0.  0.
         21    1    1    2  503  502 -0.13301347664E+03 -0.18343989134E+03  0.32228059654E+03  0.39396390902E+03  0.00000000000E+00 0. -1.
<mgrwt>
<rscale>  3 0.25878133E+03</rscale>
<asrwt>0</asrwt>
<pdfrwt beam="1">  1       21 0.59646418E-01 0.25878133E+03</pdfrwt>
<pdfrwt beam="2">  1       21 0.92590863E-01 0.25878133E+03</pdfrwt>
<totfact> 0.24524153E+03</totfact>
</mgrwt>
</event>
<event>
 4    0  0.1005289E-001  0.2954186E+03  0.7546771E-02  0.1087553E+00
         21   -1    0    0  502  501  0.00000000000E+00  0.00000000000E+00  0.31117878313E+04  0.31117878313E+04  0.00000000000E+00 0.  1.
         21   -1    0    0  503  502 -0.00000000000E+00 -0.00000000000E+00 -0.15715663890E+03  0.15715663890E+03  0.00000000000E+00 0. -1.
         25    1    1    2    0    0 -0.25363489294E+03  0.85536452763E+02 -0.67453626408E+01  0.29549558979E+03  0.12500000000E+03 0.  0.
         21    1    1    2  503  501  0.25363489294E+03 -0.85536452763E+02  0.29613765551E+04  0.29734488804E+04  0.00000000000E+00 0.  1.
<mgrwt>
<rscale>  3 0.29541859E+03</rscale>
<asrwt>0</asrwt>
<pdfrwt beam="1">  1       21 0.47873654E+00 0.29541859E+03</pdfrwt>
<pdfrwt beam="2">  1       21 0.24177947E-01 0.29541859E+03</pdfrwt>
<totfact> 0.36582505E+01</totfact>
</mgrwt>
</event>
<event>
 4    0  0.1214746E-001  0.2957575E+03  0.7546771E-02  0.1087381E+00
         21   -1    0    0  503  501  0.00000000000E+00  0.00000000000E+00  0.12653468959E+03  0.12653468959E+03  0.00000000000E+00 0. -1.
         21   -1    0    0  501  502 -0.00000000000E+00 -0.00000000000E+00 -0.11479601779E+04  0.11479601779E+04  0.00000000000E+00 0.  1.
         25    1    1    2    0    0  0.14452890377E+03  0.22574078992E+03 -0.95302358371E+03  0.99786094190E+03  0.12500000000E+03 0.  0.
         21    1    1    2  503  502 -0.14452890377E+03 -0.22574078992E+03 -0.68401904647E+02  0.27663392564E+03  0.00000000000E+00 0. -1.
<mgrwt>
<rscale>  3 0.29575752E+03</rscale>
<asrwt>0</asrwt>
<pdfrwt beam="1">  1       21 0.19466875E-01 0.29575752E+03</pdfrwt>
<pdfrwt beam="2">  1       21 0.17660926E+00 0.29575752E+03</pdfrwt>
<totfact> 0.43200891E+03</totfact>
</mgrwt>
</event>
<event>
 4    0  0.1666862E-001  0.2682744E+03  0.7546771E-02  0.1102271E+00
         21   -1    0    0  502  501  0.00000000000E+00  0.00000000000E+00  0.42237381501E+03  0.42237381501E+03  0.00000000000E+00 0.  1.
         21   -1    0    0  503  502 -0.00000000000E+00 -0.00000000000E+00 -0.19726135388E+03  0.19726135388E+03  0.00000000000E+00 0.  1.
         25    1    1    2    0    0 -0.24311822881E+02 -0.23612519737E+03 -0.31443701778E+02  0.27011086602E+03  0.12500000000E+03 0.  0.
         21    1    1    2  503  501  0.24311822881E+02  0.23612519737E+03  0.25655616291E+03  0.34952430286E+03  0.00000000000E+00 0.  1.
<mgrwt>
<rscale>  3 0.26827444E+03</rscale>
<asrwt>0</asrwt>
<pdfrwt beam="1">  1       21 0.64980587E-01 0.26827444E+03</pdfrwt>
<pdfrwt beam="2">  1       21 0.30347901E-01 0.26827444E+03</pdfrwt>
<totfact> 0.21851021E+04</totfact>
</mgrwt>
</event>
<event>
 4    0  0.1005289E-001  0.3524021E+03  0.7546771E-02  0.1061633E+00
         21   -1    0    0  503  501  0.00000000000E+00  0.00000000000E+00  0.14428518738E+04  0.14428518738E+04  0.00000000000E+00 0. -1.
         21   -1    0    0  501  502 -0.00000000000E+00 -0.00000000000E+00 -0.85120339548E+02  0.85120339548E+02  0.00000000000E+00 0.  1.
         25    1    1    2    0    0 -0.15002237340E+03 -0.29335222275E+03  0.52381586187E+03  0.63132424020E+03  0.12500000000E+03 0.  0.
         21    1    1    2  503  502  0.15002237340E+03  0.29335222275E+03  0.83391567237E+03  0.89664797314E+03  0.00000000000E+00 0. -1.
<mgrwt>
<rscale>  3 0.35240210E+03</rscale>
<asrwt>0</asrwt>
<pdfrwt beam="1">  1       21 0.22197719E+00 0.35240210E+03</pdfrwt>
<pdfrwt beam="2">  1       21 0.13095438E-01 0.35240210E+03</pdfrwt>
<totfact> 0.43729410E+03</totfact>
</mgrwt>
</event>
<event>
 4    0  0.1355850E-001  0.2816185E+03  0.7546771E-02  0.1094808E+00
         21   -1    0    0  502  501  0.00000000000E+00  0.00000000000E+00  0.63617013223E+03  0.63617013223E+03  0.00000000000E+00 0.  1.
         21   -1    0    0  503  502 -0.00000000000E+00 -0.00000000000E+00 -0.19338205515E+03  0.19338205515E+03  0.00000000000E+00 0. -1.
         25    1    1    2    0    0  0.31036249355E+02  0.25044106602E+03 -0.40333535854E+02  0.28449212720E+03  0.12500000000E+03 0.  0.
         21    1    1    2  503  501 -0.31036249355E+02 -0.25044106602E+03  0.48312161293E+03  0.54506006018E+03  0.00000000000E+00 0.  1.
<mgrwt>
<rscale>  3 0.28161849E+03</rscale>
<asrwt>0</asrwt>
<pdfrwt beam="1">  1       21 0.97872327E-01 0.28161849E+03</pdfrwt>
<pdfrwt beam="2">  1       21 0.29751086E-01 0.28161849E+03</pdfrwt>
<totfact> 0.88618002E+03</totfact>
</mgrwt>
</event>
<event>
 4    0  0.1206432E-001  0.3722283E+03  0.7546771E-02  0.1053844E+00
         21   -1    0    0  503  501  0.00000000000E+00  0.00000000000E+00  0.17034854453E+04  0.17034854453E+04  0.00000000000E+00 0.  1.
         21   -1    0    0  501  502 -0.00000000000E+00 -0.00000000000E+00 -0.83006613278E+02  0.83006613278E+02  0.00000000000E+00 0.  1.
         25    1    1    2    0    0  0.34174997059E+03  0.78331938139E+02  0.58613586785E+03  0.69434083166E+03  0.12500000000E+03 0.  0.
         21    1    1    2  503  502 -0.34174997059E+03 -0.78331938139E+02  0.10343429642E+04  0.10921512269E+04  0.00000000000E+00 0.  1.
<mgrwt>
<rscale>  3 0.37222834E+03</rscale>
<asrwt>0</asrwt>
<pdfrwt beam="1">  1       21 0.26207466E+00 0.37222834E+03</pdfrwt>
<pdfrwt beam="2">  1       21 0.12770249E-01 0.37222834E+03</pdfrwt>
<totfact> 0.25686827E+03</totfact>
</mgrwt>
</event>
<event>
 4    0  0.1132087E-001  0.2853977E+03  0.7546771E-02  0.1092777E+00
         21   -1    0    0  503  501  0.00000000000E+00  0.00000000000E+00  0.48147081475E+02  0.48147081475E+02  0.00000000000E+00 0. -1.
         21   -1    0    0  501  502 -0.00000000000E+00 -0.00000000000E+00 -0.15429255035E+04  0.15429255035E+04  0.00000000000E+00 0. -1.
         25    1    1    2    0    0 -0.14349817781E+03 -0.21268552263E+03 -0.70142239444E+03  0.75726166811E+03  0.12500000000E+03 0.  0.
         21    1    1    2  503  502  0.14349817781E+03  0.21268552263E+03 -0.79335602757E+03  0.83381091684E+03  0.00000000000E+00 0. -1.
<mgrwt>
<rscale>  3 0.28539772E+03</rscale>
<asrwt>0</asrwt>
<pdfrwt beam="1">  1       21 0.74072437E-02 0.28539772E+03</pdfrwt>
<pdfrwt beam="2">  1       21 0.23737314E+00 0.28539772E+03</pdfrwt>
<totfact> 0.10089984E+04</totfact>
</mgrwt>
</event>
<event>
 4    0  0.1024409E-001  0.2662916E+03  0.7546771E-02  0.1103421E+00
         21   -1    0    0  502  501  0.00000000000E+00  0.00000000000E+00  0.27740043657E+03  0.27740043657E+03  0.00000000000E+00 0. -1.
         21   -1    0    0  503  502 -0.00000000000E+00 -0.00000000000E+00 -0.12571594332E+04  0.12571594332E+04  0.00000000000E+00 0. -1.
         25    1    1    2    0    0  0.23287869893E+03  0.32461336926E+02 -0.11898251009E+04  0.12192600204E+04  0.12500000000E+03 0.  0.
         21    1    1    2  503  501 -0.23287869893E+03 -0.32461336926E+02  0.21006610426E+03  0.31529984930E+03  0.00000000000E+00 0. -1.
<mgrwt>
<rscale>  3 0.26629162E+03</rscale>
<asrwt>0</asrwt>
<pdfrwt beam="1">  1       21 0.42676991E-01 0.26629162E+03</pdfrwt>
<pdfrwt beam="2">  1       21 0.19340914E+00 0.26629162E+03</pdfrwt>
<totfact> 0.72742322E+02</totfact>
</mgrwt>
</event>
<event>
 4    0  0.1005289E-001  0.2471270E+03  0.7546771E-02  0.1115134E+00
         21   -1    0    0  503  501  0.00000000000E+00  0.00000000000E+00  0.91949192366E+02  0.91949192366E+02  0.00000000000E+00 0.  1.
         21   -1    0    0  501  502 -0.00000000000E+00 -0.00000000000E+00 -0.57702977668E+03  0.57702977668E+03  0.00000000000E+00 0. -1.
         25    1    1    2    0    0  0.10946385270E+02 -0.21290120220E+03 -0.27384520052E+03  0.36886710221E+03  0.12500000000E+03 0.  0.
         21    1    1    2  503  502 -0.10946385270E+02  0.21290120220E+03 -0.21123538379E+03  0.30011186683E+03  0.00000000000E+00 0.  1.
<mgrwt>
<rscale>  3 0.24712698E+03</rscale>
<asrwt>0</asrwt>
<pdfrwt beam="1">  1       21 0.14146030E-01 0.24712698E+03</pdfrwt>
<pdfrwt beam="2">  1       21 0.88773812E-01 0.24712698E+03</pdfrwt>
<totfact> 0.46120116E+04</totfact>
</mgrwt>
</event>
<event>
 4    0  0.1255801E-001  0.2916169E+03  0.7546771E-02  0.1089508E+00
         21   -1    0    0  503  501  0.00000000000E+00  0.00000000000E+00  0.16664819906E+04  0.16664819906E+04  0.00000000000E+00 0.  1.
         21   -1    0    0  501  502 -0.00000000000E+00 -0.00000000000E+00 -0.46252257939E+02  0.46252257939E+02  0.00000000000E+00 0.  1.
         25    1    1    2    0    0 -0.10096346817E+03 -0.24335524274E+03  0.87267921199E+03  0.92011379900E+03  0.12500000000E+03 0.  0.
         21    1    1    2  503  502  0.10096346817E+03  0.24335524274E+03  0.74755052068E+03  0.79262044955E+03  0.00000000000E+00 0.  1.
<mgrwt>
<rscale>  3 0.29161687E+03</rscale>
<asrwt>0</asrwt>
<pdfrwt beam="1">  1       21 0.25638180E+00 0.29161687E+03</pdfrwt>
<pdfrwt beam="2">  1       21 0.71157333E-02 0.29161687E+03</pdfrwt>
<totfact> 0.82792818E+03</totfact>
</mgrwt>
</event>
<event>
 4    0  0.1036481E-001  0.3432341E+03  0.7546771E-02  0.1065427E+00
         21   -1    0    0  503  501  0.00000000000E+00  0.00000000000E+00  0.12227211437E+04  0.12227211437E+04  0.00000000000E+00 0. -1.
         21   -1    0    0  501  502 -0.00000000000E+00 -0.00000000000E+00 -0.22374273986E+03  0.22374273986E+03  0.00000000000E+00 0. -1.
         25    1    1    2    0    0 -0.12807913851E+03  0.29288284627E+03 -0.52718581470E+02  0.34725909088E+03  0.12500000000E+03 0.  0.
         21    1    1    2  503  502  0.12807913851E+03 -0.29288284627E+03  0.10516969853E+04  0.10992047927E+04  0.00000000000E+00 0. -1.
<mgrwt>
<rscale>  3 0.34323407E+03</rscale>
<asrwt>0</asrwt>
<pdfrwt beam="1">  1       21 0.18811094E+00 0.34323407E+03</pdfrwt>
<pdfrwt beam="2">  1       21 0.34421961E-01 0.34323407E+03</pdfrwt>
<totfact> 0.11568098E+03</totfact>
</mgrwt>
</event>
<event>
 4    0  0.1310197E-001  0.2490615E+03  0.7546771E-02  0.1113899E+00
         21   -1    0    0  502  501  0.00000000000E+00  0.00000000000E+00  0.78512309108E+02  0.78512309108E+02  0.00000000000E+00 0. -1.
         21   -1    0    0  503  502 -0.00000000000E+00 -0.00000000000E+00 -0.97951097864E+03  0.97951097864E+03  0.00000000000E+00 0. -1.
         25    1    1    2    0    0  0.14677224969E+03  0.15768489351E+03 -0.76194980990E+03  0.80162281138E+03  0.12500000000E+03 0.  0.
         21    1    1    2  503  501 -0.14677224969E+03 -0.15768489351E+03 -0.13904885963E+03  0.25640047637E+03  0.00000000000E+00 0. -1.
<mgrwt>
<rscale>  3 0.24906148E+03</rscale>
<asrwt>0</asrwt>
<pdfrwt beam="1">  1       21 0.12078817E-01 0.24906148E+03</pdfrwt>
<pdfrwt beam="2">  1       21 0.15069399E+00 0.24906148E+03</pdfrwt>
<totfact> 0.16525513E+04</totfact>
</mgrwt>
</event>
<event>
 4    0  0.1676674E-001  0.2511520E+03  0.7546771E-02  0.1112579E+00
         21   -1    0    0  503  501  0.00000000000E+00  0.00000000000E+00  0.60526774999E+03  0.60526774999E+03  0.00000000000E+00 0. -1.
         21   -1    0    0  501  502 -0.00000000000E+00 -0.00000000000E+00 -0.30254459504E+03  0.30254459504E+03  0.00000000000E+00 0.  1.
         25    1    1    2    0    0 -0.21551810545E+03 -0.31690115724E+02 -0.22481118139E+03  0.33707177943E+03  0.12500000000E+03 0.  0.
         21    1    1    2  503  502  0.21551810545E+03  0.31690115724E+02  0.52753433634E+03  0.57074056560E+03  0.00000000000E+00 0. -1.
<mgrwt>
<rscale>  3 0.25115198E+03</rscale>
<asrwt>0</asrwt>
<pdfrwt beam="1">  1       21 0.93118115E-01 0.25115198E+03</pdfrwt>
<pdfrwt beam="2">  1       21 0.46545323E-01 0.25115198E+03</pdfrwt>
<totfact> 0.41115783E+03</totfact>
</mgrwt>
</event>
<event>
 4    0  0.1263821E-001  0.3255834E+03  0.7546771E-02  0.1073108E+00
         21   -1    0    0  503  501  0.00000000000E+00  0.00000000000E+00  0.50840842030E+03  0.50840842030E+03  0.00000000000E+00 0.  1.
         21   -1    0    0  501  502 -0.00000000000E+00 -0.00000000000E+00 -0.42024226841E+03  0.42024226841E+03  0.00000000000E+00 0.  1.
         25    1    1    2    0    0 -0.27281334946E+03 -0.12630287891E+03 -0.29655631709E+03  0.44039776347E+03  0.12500000000E+03 0.  0.
         21    1    1    2  503  502  0.27281334946E+03  0.12630287891E+03  0.38472246898E+03  0.48825292523E+03  0.00000000000E+00 0.  1.
<mgrwt>
<rscale>  3 0.32558339E+03</rscale>
<asrwt>0</asrwt>
<pdfrwt beam="1">  1       21 0.78216680E-01 0.32558339E+03</pdfrwt>
<pdfrwt beam="2">  1       21 0.64652656E-01 0.32558339E+03</pdfrwt>
<totfact> 0.29240238E+03</totfact>
</mgrwt>
</event>
<event>
 4    0  0.1104638E-001  0.4877143E+03  0.7546771E-02  0.1017036E+00
         21   -1    0    0  502  501  0.00000000000E+00  0.00000000000E+00  0.91709280793E+03  0.91709280793E+03  0.00000000000E+00 0. -1.
         21   -1    0    0  503  502 -0.00000000000E+00 -0.00000000000E+00 -0.38552719824E+03  0.38552719824E+03  0.00000000000E+00 0.  1.
         25    1    1    2    0    0 -0.12416371603E+03 -0.45477866657E+03 -0.11630058398E+03  0.50138916001E+03  0.12500000000E+03 0.  0.
         21    1    1    2  503  501  0.12416371603E+03  0.45477866657E+03  0.64786619367E+03  0.80123084616E+03  0.00000000000E+00 0. -1.
<mgrwt>
<rscale>  3 0.48771433E+03</rscale>
<asrwt>0</asrwt>
<pdfrwt beam="1">  1       21 0.14109120E+00 0.48771433E+03</pdfrwt>
<pdfrwt beam="2">  1       21 0.59311877E-01 0.48771433E+03</pdfrwt>
<totfact> 0.77192992E+02</totfact>
</mgrwt>
</event>
<event>
 4    0  0.1255346E-001  0.2462880E+03  0.7546771E-02  0.1115673E+00
         21   -1    0    0  503  501  0.00000000000E+00  0.00000000000E+00  0.12193444942E+03  0.12193444942E+03  0.00000000000E+00 0. -1.
         21   -1    0    0  501  502 -0.00000000000E+00 -0.00000000000E+00 -0.46737155473E+03  0.46737155473E+03  0.00000000000E+00 0. -1.
         25    1    1    2    0    0  0.15694735040E+02  0.21162809721E+03 -0.10258017824E+03  0.26679668140E+03  0.12500000000E+03 0.  0.
         21    1    1    2  503  502 -0.15694735040E+02 -0.21162809721E+03 -0.24285692707E+03  0.32250932275E+03  0.00000000000E+00 0. -1.
<mgrwt>
<rscale>  3 0.24628799E+03</rscale>
<asrwt>0</asrwt>
<pdfrwt beam="1">  1       21 0.18759147E-01 0.24628799E+03</pdfrwt>
<pdfrwt beam="2">  1       21 0.71903314E-01 0.24628799E+03</pdfrwt>
<totfact> 0.44289396E+04</totfact>
</mgrwt>
</event>
<event>
 4    0  0.1448586E-001  0.2599030E+03  0.7546771E-02  0.1107202E+00
         21   -1    0    0  502  501  0.00000000000E+00  0.00000000000E+00  0.16062343178E+04  0.16062343178E+04  0.00000000000E+00 0.  1.
         21   -1    0    0  503  502 -0.00000000000E+00 -0.00000000000E+00 -0.40874410516E+02  0.40874410516E+02  0.00000000000E+00 0.  1.
         25    1    1    2    0    0 -0.21308032622E+03  0.80754853025E+02  0.57720599750E+03  0.63302159146E+03  0.12500000000E+03 0.  0.
         21    1    1    2  503  501  0.21308032622E+03 -0.80754853025E+02  0.98815390981E+03  0.10140871369E+04  0.00000000000E+00 0.  1.
<mgrwt>
<rscale>  3 0.25990300E+03</rscale>
<asrwt>0</asrwt>
<pdfrwt beam="1">  1       21 0.24711292E+00 0.25990300E+03</pdfrwt>
<pdfrwt beam="2">  1       21 0.62883721E-02 0.25990300E+03</pdfrwt>
<totfact> 0.11913897E+04</totfact>
</mgrwt>
</event>
<event>
 4    0  0.1035434E-001  0.3136134E+03  0.7546771E-02  0.1078627E+00
         21   -1    0    0  503  501  0.00000000000E+00  0.00000000000E+00  0.11969819662E+04  0.11969819662E+04  0.00000000000E+00 0. -1.
         21   -1    0    0  501  502 -0.00000000000E+00 -0.00000000000E+00 -0.93866206485E+02  0.93866206485E+02  0.00000000000E+00 0. -1.
         25    1    1    2    0    0 -0.17185910711E+03 -0.23063569891E+03  0.85601595071E+03  0.91165601307E+03  0.12500000000E+03 0.  0.
         21    1    1    2  503  502  0.17185910711E+03  0.23063569891E+03  0.24709980903E+03  0.37919215963E+03  0.00000000000E+00 0. -1.
<mgrwt>
<rscale>  3 0.31361342E+03</rscale>
<asrwt>0</asrwt>
<pdfrwt beam="1">  1       21 0.18415106E+00 0.31361342E+03</pdfrwt>
<pdfrwt beam="2">  1       21 0.14440956E-01 0.31361342E+03</pdfrwt>
<totfact> 0.66034190E+03</totfact>
</mgrwt>
</event>
<event>
 4    0  0.1379655E-001  0.3099497E+03  0.7546771E-02  0.1080370E+00
         21   -1    0    0  503  501  0.00000000000E+00  0.00000000000E+00  0.29128822479E+03  0.29128822479E+03  0.00000000000E+00 0.  1.
         21   -1    0    0  501  502 -0.00000000000E+00 -0.00000000000E+00 -0.57285483622E+03  0.57285483622E+03  0.00000000000E+00 0.  1.
         25    1    1    2    0    0 -0.73678682185E+02  0.27388914208E+03 -0.44080936318E+03  0.53887076839E+03  0.12500000000E+03 0.  0.
         21    1    1    2  503  502  0.73678682185E+02 -0.27388914208E+03  0.15924275175E+03  0.32527229262E+03  0.00000000000E+00 0.  1.
<mgrwt>
<rscale>  3 0.30994969E+03</rscale>
<asrwt>0</asrwt>
<pdfrwt beam="1">  1       21 0.44813573E-01 0.30994969E+03</pdfrwt>
<pdfrwt beam="2">  1       21 0.88131513E-01 0.30994969E+03</pdfrwt>
<totfact> 0.48960900E+03</totfact>
</mgrwt>
</event>
<event>
 4    0  0.1367742E-001  0.3074362E+03  0.7546771E-02  0.1081581E+00
         21   -1    0    0  502  501  0.00000000000E+00  0.00000000000E+00  0.86601779842E+03  0.86601779842E+03  0.00000000000E+00 0.  1.
         21   -1    0    0  503  502 -0.00000000000E+00 -0.00000000000E+00 -0.10026985318E+03  0.10026985318E+03  0.00000000000E+00 0.  1.
         25    1    1    2    0    0  0.20546976937E+03 -0.19150507237E+03  0.37138492609E+03  0.48212423937E+03  0.12500000000E+03 0.  0.
         21    1    1    2  503  501 -0.20546976937E+03  0.19150507237E+03  0.39436301915E+03  0.48416341223E+03  0.00000000000E+00 0.  1.
<mgrwt>
<rscale>  3 0.30743620E+03</rscale>
<asrwt>0</asrwt>
<pdfrwt beam="1">  1       21 0.13323350E+00 0.30743620E+03</pdfrwt>
<pdfrwt beam="2">  1       21 0.15426132E-01 0.30743620E+03</pdfrwt>
<totfact> 0.14199637E+04</totfact>
</mgrwt>
</event>
<event>
 4    0  0.1692125E-001  0.3151686E+03  0.7546771E-02  0.1077895E+00
         21   -1    0    0  503  501  0.00000000000E+00  0.00000000000E+00  0.85534953649E+03  0.85534953649E+03  0.00000000000E+00 0. -1.
         21   -1    0    0  501  502 -0.00000000000E+00 -0.00000000000E+00 -0.93137315973E+03  0.93137315973E+03  0.00000000000E+00 0.  1.
         25    1    1    2    0    0 -0.28853588458E+03  0.21290185631E+02 -0.87869148576E+03  0.93350412738E+03  0.12500000000E+03 0.  0.
         21    1    1    2  503  502  0.28853588458E+03 -0.21290185631E+02  0.80266786252E+03  0.85321856884E+03  0.00000000000E+00 0. -1.
<mgrwt>
<rscale>  3 0.31516857E+03</rscale>
<asrwt>0</asrwt>
<pdfrwt beam="1">  1       21 0.13159224E+00 0.31516857E+03</pdfrwt>
<pdfrwt beam="2">  1       21 0.14328818E+00 0.31516857E+03</pdfrwt>
<totfact> 0.12430443E+02</totfact>
</mgrwt>
</event>
<event>
 4    0  0.1612147E-001  0.2625217E+03  0.7546771E-02  0.1105638E+00
         21   -1    0    0  503  501  0.00000000000E+00  0.00000000000E+00  0.27708293221E+03  0.27708293221E+03  0.00000000000E+00 0.  1.
         21   -1    0    0  501  502 -0.00000000000E+00 -0.00000000000E+00 -0.21964401127E+03  0.21964401127E+03  0.00000000000E+00 0.  1.
         25    1    1    2    0    0 -0.20191548294E+03  0.11190518366E+03  0.32857549000E+02  0.26456993576E+03  0.12500000000E+03 0.  0.
         21    1    1    2  503  502  0.20191548294E+03 -0.11190518366E+03  0.24581371941E+02  0.23215700771E+03  0.00000000000E+00 0.  1.
<mgrwt>
<rscale>  3 0.26252168E+03</rscale>
<asrwt>0</asrwt>
<pdfrwt beam="1">  1       21 0.42628143E-01 0.26252168E+03</pdfrwt>
<pdfrwt beam="2">  1       21 0.33791386E-01 0.26252168E+03</pdfrwt>
<totfact> 0.43285875E+04</totfact>
</mgrwt>
</event>
<event>
 4    0  0.1302410E-001  0.4736714E+03  0.7546771E-02  0.1020889E+00
         21   -1    0    0  502  501  0.00000000000E+00  0.00000000000E+00  0.85269556416E+03  0.85269556416E+03  0.00000000000E+00 0.  1.
         21   -1    0    0  503  502 -0.00000000000E+00 -0.00000000000E+00 -0.36411708921E+03  0.36411708921E+03  0.00000000000E+00 0. -1.
         25    1    1    2    0    0  0.30486709836E+03 -0.34028763931E+03 -0.87363251173E+02  0.48166063031E+03  0.12500000000E+03 0.  0.
         21    1    1    2  503  501 -0.30486709836E+03  0.34028763931E+03  0.57594172612E+03  0.73515202307E+03  0.00000000000E+00 0.  1.
<mgrwt>
<rscale>  3 0.47367143E+03</rscale>
<asrwt>0</asrwt>
<pdfrwt beam="1">  1       21 0.13118393E+00 0.47367143E+03</pdfrwt>
<pdfrwt beam="2">  1       21 0.56018014E-01 0.47367143E+03</pdfrwt>
<totfact> 0.10653743E+03</totfact>
</mgrwt>
</event>
<event>
 4    0  0.1005289E-001  0.2555532E+03  0.7546771E-02  0.1109845E+00
         21   -1    0    0  503  501  0.00000000000E+00  0.00000000000E+00  0.51888540575E+03  0.51888540575E+03  0.00000000000E+00 0.  1.
         21   -1    0    0  501  502 -0.00000000000E+00 -0.00000000000E+00 -0.12326613658E+03  0.12326613658E+03  0.00000000000E+00 0. -1.
         25    1    1    2    0    0  0.14506077243E+03 -0.16923301945E+03  0.10593734002E+03  0.27664085487E+03  0.12500000000E+03 0.  0.
         21    1    1    2  503  502 -0.14506077243E+03  0.16923301945E+03  0.28968192914E+03  0.36551068745E+03  0.00000000000E+00 0.  1.
<mgrwt>
<rscale>  3 0.25555321E+03</rscale>
<asrwt>0</asrwt>
<pdfrwt beam="1">  1       21 0.79828523E-01 0.25555321E+03</pdfrwt>
<pdfrwt beam="2">  1       21 0.18964021E-01 0.25555321E+03</pdfrwt>
<totfact> 0.34157188E+04</totfact>
</mgrwt>
</event>
<event>
 4    0  0.1488838E-001  0.3177595E+03  0.7546771E-02  0.1076685E+00
         21   -1    0    0  502  501  0.00000000000E+00  0.00000000000E+00  0.19028533223E+03  0.19028533223E+03  0.00000000000E+00 0.  1.
         21   -1    0    0  503  502 -0.00000000000E+00 -0.00000000000E+00 -0.49302965380E+03  0.49302965380E+03  0.00000000000E+00 0.  1.
         25    1    1    2    0    0  0.34720822136E+01  0.29211993528E+03 -0.12572640978E+03  0.34172831616E+03  0.12500000000E+03 0.  0.
         21    1    1    2  503  501 -0.34720822136E+01 -0.29211993528E+03 -0.17701791178E+03  0.34158666988E+03  0.00000000000E+00 0.  1.
<mgrwt>
<rscale>  3 0.31775952E+03</rscale>
<asrwt>0</asrwt>
<pdfrwt beam="1">  1       21 0.29274666E-01 0.31775952E+03</pdfrwt>
<pdfrwt beam="2">  1       21 0.75850716E-01 0.31775952E+03</pdfrwt>
<totfact> 0.16273428E+04</totfact>
</mgrwt>
</event>
<event>
 4    0  0.1057021E-001  0.2825296E+03  0.7546771E-02  0.1094315E+00
         21   -1    0    0  503  501  0.00000000000E+00  0.00000000000E+00  0.62686917857E+03  0.62686917857E+03  0.00000000000E+00 0. -1.
         21   -1    0    0  501  502 -0.00000000000E+00 -0.00000000000E+00 -0.44996237885E+03  0.44996237885E+03  0.00000000000E+00 0. -1.
         25    1    1    2    0    0  0.15632493774E+03  0.19940030071E+03 -0.37501428337E+03  0.46953027465E+03  0.12500000000E+03 0.  0.
         21    1    1    2  503  502 -0.15632493774E+03 -0.19940030071E+03  0.55192108309E+03  0.60730128276E+03  0.00000000000E+00 0. -1.
<mgrwt>
<rscale>  3 0.28252958E+03</rscale>
<asrwt>0</asrwt>
<pdfrwt beam="1">  1       21 0.96441413E-01 0.28252958E+03</pdfrwt>
<pdfrwt beam="2">  1       21 0.69224981E-01 0.28252958E+03</pdfrwt>
<totfact> 0.15821960E+03</totfact>
</mgrwt>
</event>
<event>
 4    0  0.1266515E-001  0.2799772E+03  0.7546771E-02  0.1095701E+00
         21   -1    0    0  503  501  0.00000000000E+00  0.00000000000E+00  0.17106028618E+04  0.17106028618E+04  0.00000000000E+00 0.  1.
         21   -1    0    0  501  502 -0.00000000000E+00 -0.00000000000E+00 -0.96001670263E+02  0.96001670263E+02  0.00000000000E+00 0. -1.
         25    1    1    2    0    0 -0.21243405189E+03 -0.13279319984E+03  0.14404068218E+03  0.31485707623E+03  0.12500000000E+03 0.  0.
         21    1    1    2  503  502  0.21243405189E+03  0.13279319984E+03  0.14705605093E+04  0.14917474558E+04  0.00000000000E+00 0.  1.
<mgrwt>
<rscale>  3 0.27997725E+03</rscale>
<asrwt>0</asrwt>
<pdfrwt beam="1">  1       21 0.26316965E+00 0.27997725E+03</pdfrwt>
<pdfrwt beam="2">  1       21 0.14769489E-01 0.27997725E+03</pdfrwt>
<totfact> 0.20634734E+03</totfact>
</mgrwt>
</event>
<event>
 4    0  0.1351836E-001  0.4530113E+03  0.7546771E-02  0.1026828E+00
         21   -1    0    0  502  501  0.00000000000E+00  0.00000000000E+00  0.10005815000E+04  0.10005815000E+04  0.00000000000E+00 0.  1.
         21   -1    0    0  503  502 -0.00000000000E+00 -0.00000000000E+00 -0.22393740113E+03  0.22393740113E+03  0.00000000000E+00 0.  1.
         25    1    1    2    0    0 -0.17860626293E+03 -0.39710710604E+03  0.18362750966E+03  0.48881316792E+03  0.12500000000E+03 0.  0.
         21    1    1    2  503  501  0.17860626293E+03  0.39710710604E+03  0.59301658923E+03  0.73570573324E+03  0.00000000000E+00 0.  1.
<mgrwt>
<rscale>  3 0.45301131E+03</rscale>
<asrwt>0</asrwt>
<pdfrwt beam="1">  1       21 0.15393561E+00 0.45301131E+03</pdfrwt>
<pdfrwt beam="2">  1       21 0.34451908E-01 0.45301131E+03</pdfrwt>
<totfact> 0.19353458E+03</totfact>
</mgrwt>
</event>
<event>
 4    0  0.1005289E-001  0.2622691E+03  0.7546771E-02  0.1105788E+00
         21   -1    0    0  503  501  0.00000000000E+00  0.00000000000E+00  0.13164985245E+04  0.13164985245E+04  0.00000000000E+00 0. -1.
         21   -1    0    0  501  502 -0.00000000000E+00 -0.00000000000E+00 -0.50431801975E+02  0.50431801975E+02  0.00000000000E+00 0.  1.
         25    1    1    2    0    0 -0.82241557137E+02 -0.21539828690E+03  0.47088843904E+03  0.53900001646E+03  0.12500000000E+03 0.  0.
         21    1    1    2  503  502  0.82241557137E+02  0.21539828690E+03  0.79517828348E+03  0.82793031001E+03  0.00000000000E+00 0. -1.
<mgrwt>
<rscale>  3 0.26226913E+03</rscale>
<asrwt>0</asrwt>
<pdfrwt beam="1">  1       21 0.20253821E+00 0.26226913E+03</pdfrwt>
<pdfrwt beam="2">  1       21 0.77587398E-02 0.26226913E+03</pdfrwt>
<totfact> 0.15594875E+04</totfact>
</mgrwt>
</event>
<event>
 4    0  0.1180491E-001  0.3363114E+03  0.7546771E-02  0.1068378E+00
         21   -1    0    0  503  501  0.00000000000E+00  0.00000000000E+00  0.35554657114E+03  0.35554657114E+03  0.00000000000E+00 0. -1.
         21   -1    0    0  501  502 -0.00000000000E+00 -0.00000000000E+00 -0.53179920865E+03  0.53179920865E+03  0.00000000000E+00 0. -1.
         25    1    1    2    0    0 -0.11070974183E+03 -0.29193105443E+03 -0.38543292052E+03  0.51153096065E+03  0.12500000000E+03 0.  0.
         21    1    1    2  503  502  0.11070974183E+03  0.29193105443E+03  0.20918028302E+03  0.37581481913E+03  0.00000000000E+00 0. -1.
<mgrwt>
<rscale>  3 0.33631144E+03</rscale>
<asrwt>0</asrwt>
<pdfrwt beam="1">  1       21 0.54699473E-01 0.33631144E+03</pdfrwt>
<pdfrwt beam="2">  1       21 0.81815263E-01 0.33631144E+03</pdfrwt>
<totfact> 0.37727715E+03</totfact>
</mgrwt>
</event>
<event>
 4    0  0.1435669E-001  0.2799711E+03  0.7546771E-02  0.1095705E+00
         21   -1    0    0  502  501  0.00000000000E+00  0.00000000000E+00  0.76537684581E+03  0.76537684581E+03  0.00000000000E+00 0.  1.
         21   -1    0    0  503  502 -0.00000000000E+00 -0.00000000000E+00 -0.12358659503E+03  0.12358659503E+03  0.00000000000E+00 0.  1.
         25    1    1    2    0    0 -0.20534629054E+03  0.14349822758E+03  0.10941682700E+03  0.30059255212E+03  0.12500000000E+03 0.  0.
         21    1    1    2  503  501  0.20534629054E+03 -0.14349822758E+03  0.53237342378E+03  0.58837088873E+03  0.00000000000E+00 0.  1.
<mgrwt>
<rscale>  3 0.27997114E+03</rscale>
<asrwt>0</asrwt>
<pdfrwt beam="1">  1       21 0.11775028E+00 0.27997114E+03</pdfrwt>
<pdfrwt beam="2">  1       21 0.19013323E-01 0.27997114E+03</pdfrwt>
<totfact> 0.13339499E+04</totfact>
</mgrwt>
</event>
<event>
 4    0  0.1424549E-001  0.3620185E+03  0.7546771E-02  0.1057787E+00
         21   -1    0    0  503  501  0.00000000000E+00  0.00000000000E+00  0.50462068122E+03  0.50462068122E+03  0.00000000000E+00 0.  1.
         21   -1    0    0  501  502 -0.00000000000E+00 -0.00000000000E+00 -0.43298573592E+03  0.43298573592E+03  0.00000000000E+00 0. -1.
         25    1    1    2    0    0  0.33149920333E+03 -0.74435833070E+02 -0.27318413920E+03  0.45352727477E+03  0.12500000000E+03 0.  0.
         21    1    1    2  503  502 -0.33149920333E+03  0.74435833070E+02  0.34481908449E+03  0.48407914237E+03  0.00000000000E+00 0.  1.
<mgrwt>
<rscale>  3 0.36201853E+03</rscale>
<asrwt>0</asrwt>
<pdfrwt beam="1">  1       21 0.77633951E-01 0.36201853E+03</pdfrwt>
<pdfrwt beam="2">  1       21 0.66613190E-01 0.36201853E+03</pdfrwt>
<totfact> 0.27361396E+03</totfact>
</mgrwt>
</event>
<event>
 4    0  0.1403199E-001  0.2849313E+03  0.7546771E-02  0.1093026E+00
         21   -1    0    0  503  501  0.00000000000E+00  0.00000000000E+00  0.12366296786E+04  0.12366296786E+04  0.00000000000E+00 0. -1.
         21   -1    0    0  501  502 -0.00000000000E+00 -0.00000000000E+00 -0.64415008198E+02  0.64415008198E+02  0.00000000000E+00 0. -1.
         25    1    1    2    0    0  0.25379611635E+03  0.33887987389E+02  0.42937096444E+03  0.51531086682E+03  0.12500000000E+03 0.  0.
         21    1    1    2  503  502 -0.25379611635E+03 -0.33887987389E+02  0.74284370592E+03  0.78573381993E+03  0.00000000000E+00 0. -1.
<mgrwt>
<rscale>  3 0.28493133E+03</rscale>
<asrwt>0</asrwt>
<pdfrwt beam="1">  1       21 0.19025070E+00 0.28493133E+03</pdfrwt>
<pdfrwt beam="2">  1       21 0.99100022E-02 0.28493133E+03</pdfrwt>
<totfact> 0.12041086E+04</totfact>
</mgrwt>
</event>
<event>
 4    0  0.1051431E-001  0.2782644E+03  0.7546771E-02  0.1096641E+00
         21   -1    0    0  503  501  0.00000000000E+00  0.00000000000E+00  0.11155748847E+04  0.11155748847E+04  0.00000000000E+00 0.  1.
         21   -1    0    0  501  502 -0.00000000000E+00 -0.00000000000E+00 -0.20338611218E+03  0.20338611218E+03  0.00000000000E+00 0.  1.
         25    1    1    2    0    0  0.14156840603E+03  0.20436361692E+03 -0.85231213239E+02  0.29102484639E+03  0.12500000000E+03 0.  0.
         21    1    1    2  503  502 -0.14156840603E+03 -0.20436361692E+03  0.99741998574E+03  0.10279361505E+04  0.00000000000E+00 0.  1.
<mgrwt>
<rscale>  3 0.27826445E+03</rscale>
<asrwt>0</asrwt>
<pdfrwt beam="1">  1       21 0.17162690E+00 0.27826445E+03</pdfrwt>
<pdfrwt beam="2">  1       21 0.31290172E-01 0.27826445E+03</pdfrwt>
<totfact> 0.18988352E+03</totfact>
</mgrwt>
</event>
<event>
 4    0  0.1277336E-001  0.2816881E+03  0.7546771E-02  0.1094770E+00
         21   -1    0    0  503  501  0.00000000000E+00  0.00000000000E+00  0.85863574063E+03  0.85863574063E+03  0.00000000000E+00 0.  1.
         21   -1    0    0  501  502 -0.00000000000E+00 -0.00000000000E+00 -0.85227979570E+02  0.85227979570E+02  0.00000000000E+00 0.  1.
         25    1    1    2    0    0 -0.49192264971E+02  0.24759507633E+03  0.48243435841E+03  0.55865115316E+03  0.12500000000E+03 0.  0.
         21    1    1    2  503  502  0.49192264971E+02 -0.24759507633E+03  0.29097340265E+03  0.38521256704E+03  0.00000000000E+00 0.  1.
<mgrwt>
<rscale>  3 0.28168813E+03</rscale>
<asrwt>0</asrwt>
<pdfrwt beam="1">  1       21 0.13209780E+00 0.28168813E+03</pdfrwt>
<pdfrwt beam="2">  1       21 0.13111997E-01 0.28168813E+03</pdfrwt>
<totfact> 0.19774658E+04</totfact>
</mgrwt>
</event>
<event>
 4    0  0.1026813E-001  0.4082867E+03  0.7546771E-02  0.1040947E+00
         21   -1    0    0  502  501  0.00000000000E+00  0.00000000000E+00  0.39619612788E+03  0.39619612788E+03  0.00000000000E+00 0. -1.
         21   -1    0    0  503  502 -0.00000000000E+00 -0.00000000000E+00 -0.54696169551E+03  0.54696169551E+03  0.00000000000E+00 0.  1.
         25    1    1    2    0    0 -0.38727990385E+03  0.32974208044E+02 -0.32047712935E+03  0.51904105113E+03  0.12500000000E+03 0.  0.
         21    1    1    2  503  501  0.38727990385E+03 -0.32974208044E+02  0.16971156172E+03  0.42411677225E+03  0.00000000000E+00 0. -1.
<mgrwt>
<rscale>  3 0.40828669E+03</rscale>
<asrwt>0</asrwt>
<pdfrwt beam="1">  1       21 0.60953250E-01 0.40828669E+03</pdfrwt>
<pdfrwt beam="2">  1       21 0.84147954E-01 0.40828669E+03</pdfrwt>
<totfact> 0.27097983E+03</totfact>
</mgrwt>
</event>
<event>
 4    0  0.1200042E-001  0.2521626E+03  0.7546771E-02  0.1111946E+00
         21   -1    0    0  502  501  0.00000000000E+00  0.00000000000E+00  0.36933278468E+03  0.36933278468E+03  0.00000000000E+00 0. -1.
         21   -1    0    0  503  502 -0.00000000000E+00 -0.00000000000E+00 -0.35300535627E+03  0.35300535627E+03  0.00000000000E+00 0. -1.
         25    1    1    2    0    0 -0.13708624036E+03  0.17078748103E+03 -0.26501111568E+03  0.36580991294E+03  0.12500000000E+03 0.  0.
         21    1    1    2  503  501  0.13708624036E+03 -0.17078748103E+03  0.28133854410E+03  0.35652822801E+03  0.00000000000E+00 0. -1.
<mgrwt>
<rscale>  3 0.25216265E+03</rscale>
<asrwt>0</asrwt>
<pdfrwt beam="1">  1       21 0.56820428E-01 0.25216265E+03</pdfrwt>
<pdfrwt beam="2">  1       21 0.54308516E-01 0.25216265E+03</pdfrwt>
<totfact> 0.89820558E+03</totfact>
</mgrwt>
</event>
<event>
 4    0  0.1122608E-001  0.2985207E+03  0.7546771E-02  0.1085982E+00
         21   -1    0    0  503  501  0.00000000000E+00  0.00000000000E+00  0.17608149709E+03  0.17608149709E+03  0.00000000000E+00 0. -1.
         21   -1    0    0  501  502 -0.00000000000E+00 -0.00000000000E+00 -0.66671498471E+03  0.66671498471E+03  0.00000000000E+00 0.  1.
         25    1    1    2    0    0  0.26977164404E+03 -0.26699613157E+02 -0.48755937120E+03  0.57168938219E+03  0.12500000000E+03 0.  0.
         21    1    1    2  503  502 -0.26977164404E+03  0.26699613157E+02 -0.30741164227E+01  0.27110709961E+03  0.00000000000E+00 0. -1.
<mgrwt>
<rscale>  3 0.29852070E+03</rscale>
<asrwt>0</asrwt>
<pdfrwt beam="1">  1       21 0.27089462E-01 0.29852070E+03</pdfrwt>
<pdfrwt beam="2">  1       21 0.10257153E+00 0.29852070E+03</pdfrwt>
<totfact> 0.94326221E+03</totfact>
</mgrwt>
</event>
<event>
 4    0  0.1144889E-001  0.3618932E+03  0.7546771E-02  0.1057837E+00
         21   -1    0    0  503  501  0.00000000000E+00  0.00000000000E+00  0.16514001185E+03  0.16514001185E+03  0.00000000000E+00 0. -1.
         21   -1    0    0  501  502 -0.00000000000E+00 -0.00000000000E+00 -0.10670550895E+04  0.10670550895E+04  0.00000000000E+00 0. -1.
         25    1    1    2    0    0 -0.33878786172E+03 -0.23758422108E+02 -0.79930316697E+03  0.87741223526E+03  0.12500000000E+03 0.  0.
         21    1    1    2  503  502  0.33878786172E+03  0.23758422108E+02 -0.10261191070E+03  0.35478286611E+03  0.00000000000E+00 0. -1.
<mgrwt>
<rscale>  3 0.36189319E+03</rscale>
<asrwt>0</asrwt>
<pdfrwt beam="1">  1       21 0.25406157E-01 0.36189319E+03</pdfrwt>
<pdfrwt beam="2">  1       21 0.16416232E+00 0.36189319E+03</pdfrwt>
<totfact> 0.30804419E+03</totfact>
</mgrwt>
</event>
<event>
 4    0  0.1778527E-001  0.2579043E+03  0.7546771E-02  0.1108409E+00
         21   -1    0    0  503  501  0.00000000000E+00  0.00000000000E+00  0.36082755372E+03  0.36082755372E+03  0.00000000000E+00 0. -1.
         21   -1    0    0  501  502 -0.00000000000E+00 -0.00000000000E+00 -0.17297178528E+03  0.17297178528E+03  0.00000000000E+00 0. -1.
         25    1    1    2    0    0 -0.21101886066E+03 -0.79753672235E+02  0.32616733554E+02  0.25995857188E+03  0.12500000000E+03 0.  0.
         21    1    1    2  503  502  0.21101886066E+03  0.79753672235E+02  0.15523903488E+03  0.27384076712E+03  0.00000000000E+00 0. -1.
<mgrwt>
<rscale>  3 0.25790426E+03</rscale>
<asrwt>0</asrwt>
<pdfrwt beam="1">  1       21 0.55511931E-01 0.25790426E+03</pdfrwt>
<pdfrwt beam="2">  1       21 0.26611044E-01 0.25790426E+03</pdfrwt>
<totfact> 0.39882374E+04</totfact>
</mgrwt>
</event>
<event>
 4    0  0.1789443E-001  0.2721530E+03  0.7546771E-02  0.1100054E+00
         21   -1    0    0  503  501  0.00000000000E+00  0.00000000000E+00  0.15846272769E+03  0.15846272769E+03  0.00000000000E+00 0.  1.
         21   -1    0    0  501  502 -0.00000000000E+00 -0.00000000000E+00 -0.46502558166E+03  0.46502558166E+03  0.00000000000E+00 0.  1.
         25    1    1    2    0    0 -0.22325871341E+03 -0.92724394921E+02 -0.26179589509E+03  0.37762992097E+03  0.12500000000E+03 0.  0.
         21    1    1    2  503  502  0.22325871341E+03  0.92724394921E+02 -0.44766958880E+02  0.24585838837E+03  0.00000000000E+00 0.  1.
<mgrwt>
<rscale>  3 0.27215302E+03</rscale>
<asrwt>0</asrwt>
<pdfrwt beam="1">  1       21 0.24378882E-01 0.27215302E+03</pdfrwt>
<pdfrwt beam="2">  1       21 0.71542396E-01 0.27215302E+03</pdfrwt>
<totfact> 0.26979513E+04</totfact>
</mgrwt>
</event>
<event>
 4    0  0.1541087E-001  0.2818604E+03  0.7546771E-02  0.1094677E+00
         21   -1    0    0  502  501  0.00000000000E+00  0.00000000000E+00  0.19017874607E+03  0.19017874607E+03  0.00000000000E+00 0. -1.
         21   -1    0    0  503  502 -0.00000000000E+00 -0.00000000000E+00 -0.47651622745E+03  0.47651622745E+03  0.00000000000E+00 0. -1.
         25    1    1    2    0    0 -0.25040180026E+03  0.33454487474E+02 -0.30261173980E+03  0.41354459175E+03  0.12500000000E+03 0.  0.
         21    1    1    2  503  501  0.25040180026E+03 -0.33454487474E+02  0.16274258421E+02  0.25315038177E+03  0.00000000000E+00 0. -1.
<mgrwt>
<rscale>  3 0.28186036E+03</rscale>
<asrwt>0</asrwt>
<pdfrwt beam="1">  1       21 0.29258269E-01 0.28186036E+03</pdfrwt>
<pdfrwt beam="2">  1       21 0.73310189E-01 0.28186036E+03</pdfrwt>
<totfact> 0.17855721E+04</totfact>
</mgrwt>
</event>
<event>
 4    0  0.1005289E-001  0.2633042E+03  0.7546771E-02  0.1105174E+00
         21   -1    0    0  503  501  0.00000000000E+00  0.00000000000E+00  0.80627572371E+02  0.80627572371E+02  0.00000000000E+00 0. -1.
         21   -1    0    0  501  502 -0.00000000000E+00 -0.00000000000E+00 -0.16522393954E+04  0.16522393954E+04  0.00000000000E+00 0. -1.
         25    1    1    2    0    0 -0.23173020699E+03  0.22813237683E+01 -0.14450007311E+04  0.14687941334E+04  0.12500000000E+03 0.  0.
         21    1    1    2  503  502  0.23173020699E+03 -0.22813237683E+01 -0.12661109188E+03  0.26407283438E+03  0.00000000000E+00 0. -1.
<mgrwt>
<rscale>  3 0.26330418E+03</rscale>
<asrwt>0</asrwt>
<pdfrwt beam="1">  1       21 0.12404244E-01 0.26330418E+03</pdfrwt>
<pdfrwt beam="2">  1       21 0.25419064E+00 0.26330418E+03</pdfrwt>
<totfact> 0.32499849E+03</totfact>
</mgrwt>
</event>
<event>
 4    0  0.1175095E-001  0.3424423E+03  0.7546771E-02  0.1065760E+00
         21   -1    0    0  502  501  0.00000000000E+00  0.00000000000E+00  0.38553557701E+03  0.38553557701E+03  0.00000000000E+00 0.  1.
         21   -1    0    0  503  502 -0.00000000000E+00 -0.00000000000E+00 -0.84630993985E+03  0.84630993985E+03  0.00000000000E+00 0.  1.
         25    1    1    2    0    0 -0.30175370163E+03  0.10289046044E+03 -0.73529617425E+03  0.81112712145E+03  0.12500000000E+03 0.  0.
         21    1    1    2  503  501  0.30175370163E+03 -0.10289046044E+03  0.27452181140E+03  0.42071839541E+03  0.00000000000E+00 0.  1.
<mgrwt>
<rscale>  3 0.34244232E+03</rscale>
<asrwt>0</asrwt>
<pdfrwt beam="1">  1       21 0.59313167E-01 0.34244232E+03</pdfrwt>
<pdfrwt beam="2">  1       21 0.13020153E+00 0.34244232E+03</pdfrwt>
<totfact> 0.10206732E+03</totfact>
</mgrwt>
</event>
<event>
 4    0  0.1294281E-001  0.3440227E+03  0.7546771E-02  0.1065095E+00
         21   -1    0    0  503  501  0.00000000000E+00  0.00000000000E+00  0.43744775988E+03  0.43744775988E+03  0.00000000000E+00 0. -1.
         21   -1    0    0  501  502 -0.00000000000E+00 -0.00000000000E+00 -0.43117508794E+03  0.43117508794E+03  0.00000000000E+00 0. -1.
         25    1    1    2    0    0 -0.27783642354E+03  0.15979211836E+03 -0.27637419497E+03  0.44128708907E+03  0.12500000000E+03 0.  0.
         21    1    1    2  503  502  0.27783642354E+03 -0.15979211836E+03  0.28264686691E+03  0.42733575875E+03  0.00000000000E+00 0. -1.
<mgrwt>
<rscale>  3 0.34402267E+03</rscale>
<asrwt>0</asrwt>
<pdfrwt beam="1">  1       21 0.67299656E-01 0.34402267E+03</pdfrwt>
<pdfrwt beam="2">  1       21 0.66334629E-01 0.34402267E+03</pdfrwt>
<totfact> 0.38410479E+03</totfact>
</mgrwt>
</event>
<event>
 4    0  0.1005289E-001  0.3147116E+03  0.7546771E-02  0.1078109E+00
         21   -1    0    0  503  501  0.00000000000E+00  0.00000000000E+00  0.13316996893E+04  0.13316996893E+04  0.00000000000E+00 0. -1.
         21   -1    0    0  501  502 -0.00000000000E+00 -0.00000000000E+00 -0.88933516102E+02  0.88933516102E+02  0.00000000000E+00 0.  1.
         25    1    1    2    0    0 -0.22660994376E+03 -0.17907069465E+03  0.30065262159E+03  0.43524174795E+03  0.12500000000E+03 0.  0.
         21    1    1    2  503  502  0.22660994376E+03  0.17907069465E+03  0.94211355162E+03  0.98539145746E+03  0.00000000000E+00 0. -1.
<mgrwt>
<rscale>  3 0.31471158E+03</rscale>
<asrwt>0</asrwt>
<pdfrwt beam="1">  1       21 0.20487686E+00 0.31471158E+03</pdfrwt>
<pdfrwt beam="2">  1       21 0.13682080E-01 0.31471158E+03</pdfrwt>
<totfact> 0.53006763E+03</totfact>
</mgrwt>
</event>
<event>
 4    0  0.1921769E-001  0.2750298E+03  0.7546771E-02  0.1098435E+00
         21   -1    0    0  503  501  0.00000000000E+00  0.00000000000E+00  0.45614096515E+03  0.45614096515E+03  0.00000000000E+00 0.  1.
         21   -1    0    0  501  502 -0.00000000000E+00 -0.00000000000E+00 -0.59418043904E+03  0.59418043904E+03  0.00000000000E+00 0. -1.
         25    1    1    2    0    0 -0.20963968626E+03  0.12675801028E+03 -0.52480012769E+03  0.59250026603E+03  0.12500000000E+03 0.  0.
         21    1    1    2  503  502  0.20963968626E+03 -0.12675801028E+03  0.38676065379E+03  0.45782113816E+03  0.00000000000E+00 0.  1.
<mgrwt>
<rscale>  3 0.27502980E+03</rscale>
<asrwt>0</asrwt>
<pdfrwt beam="1">  1       21 0.70175533E-01 0.27502980E+03</pdfrwt>
<pdfrwt beam="2">  1       21 0.91412375E-01 0.27502980E+03</pdfrwt>
<totfact> 0.17503135E+03</totfact>
</mgrwt>
</event>
<event>
 4    0  0.1005289E-001  0.4711874E+03  0.7546771E-02  0.1021586E+00
         21   -1    0    0  502  501  0.00000000000E+00  0.00000000000E+00  0.85944281590E+03  0.85944281590E+03  0.00000000000E+00 0. -1.
         21   -1    0    0  503  502 -0.00000000000E+00 -0.00000000000E+00 -0.68261133055E+03  0.68261133055E+03  0.00000000000E+00 0. -1.
         25    1    1    2    0    0 -0.41870599681E+03 -0.17628909878E+03 -0.52536494512E+03  0.70570948958E+03  0.12500000000E+03 0.  0.
         21    1    1    2  503  501  0.41870599681E+03  0.17628909878E+03  0.70219643048E+03  0.83634465688E+03  0.00000000000E+00 0. -1.
<mgrwt>
<rscale>  3 0.47118739E+03</rscale>
<asrwt>0</asrwt>
<pdfrwt beam="1">  1       21 0.13222197E+00 0.47118739E+03</pdfrwt>
<pdfrwt beam="2">  1       21 0.10501713E+00 0.47118739E+03</pdfrwt>
<totfact> 0.24603783E+02</totfact>
</mgrwt>
</event>
<event>
 4    0  0.1232684E-001  0.3166354E+03  0.7546771E-02  0.1077208E+00
         21   -1    0    0  502  501  0.00000000000E+00  0.00000000000E+00  0.81238355785E+03  0.81238355785E+03  0.00000000000E+00 0.  1.
         21   -1    0    0  503  502 -0.00000000000E+00 -0.00000000000E+00 -0.20226843676E+03  0.20226843676E+03  0.00000000000E+00 0.  1.
         25    1    1    2    0    0  0.28314680306E+03 -0.66789666794E+02 -0.23435112346E+02  0.31750145853E+03  0.12500000000E+03 0.  0.
         21    1    1    2  503  501 -0.28314680306E+03  0.66789666794E+02  0.63355023344E+03  0.69715053608E+03  0.00000000000E+00 0.  1.
<mgrwt>
<rscale>  3 0.31663539E+03</rscale>
<asrwt>0</asrwt>
<pdfrwt beam="1">  1       21 0.12498208E+00 0.31663539E+03</pdfrwt>
<pdfrwt beam="2">  1       21 0.31118222E-01 0.31663539E+03</pdfrwt>
<totfact> 0.43667979E+03</totfact>
</mgrwt>
</event>
<event>
 4    0  0.1005289E-001  0.2494894E+03  0.7546771E-02  0.1113628E+00
         21   -1    0    0  503  501  0.00000000000E+00  0.00000000000E+00  0.13960619273E+03  0.13960619273E+03  0.00000000000E+00 0.  1.
         21   -1    0    0  501  502 -0.00000000000E+00 -0.00000000000E+00 -0.41861437363E+03  0.41861437363E+03  0.00000000000E+00 0. -1.
         25    1    1    2    0    0 -0.20931540107E+03 -0.52981483566E+02 -0.22427169302E+03  0.33547394387E+03  0.12500000000E+03 0.  0.
         21    1    1    2  503  502  0.20931540107E+03  0.52981483566E+02 -0.54736487881E+02  0.22274662249E+03  0.00000000000E+00 0.  1.
<mgrwt>
<rscale>  3 0.24948943E+03</rscale>
<asrwt>0</asrwt>
<pdfrwt beam="1">  1       21 0.21477876E-01 0.24948943E+03</pdfrwt>
<pdfrwt beam="2">  1       21 0.64402212E-01 0.24948943E+03</pdfrwt>
<totfact> 0.43742775E+04</totfact>
</mgrwt>
</event>
<event>
 4    0  0.1056232E-001  0.2701993E+03  0.7546771E-02  0.1101166E+00
         21   -1    0    0  502  501  0.00000000000E+00  0.00000000000E+00  0.18225657695E+04  0.18225657695E+04  0.00000000000E+00 0.  1.
         21   -1    0    0  503  502 -0.00000000000E+00 -0.00000000000E+00 -0.35642306409E+02  0.35642306409E+02  0.00000000000E+00 0.  1.
         25    1    1    2    0    0 -0.23001941140E+03 -0.66886051289E+02  0.94868067615E+03  0.98640899163E+03  0.12500000000E+03 0.  0.
         21    1    1    2  503  501  0.23001941140E+03  0.66886051289E+02  0.83824278695E+03  0.87179908428E+03  0.00000000000E+00 0.  1.
<mgrwt>
<rscale>  3 0.27019932E+03</rscale>
<asrwt>0</asrwt>
<pdfrwt beam="1">  1       21 0.28039466E+00 0.27019932E+03</pdfrwt>
<pdfrwt beam="2">  1       21 0.54834332E-02 0.27019932E+03</pdfrwt>
<totfact> 0.95080649E+03</totfact>
</mgrwt>
</event>
<event>
 4    0  0.1193492E-001  0.2402381E+03  0.7546771E-02  0.1119634E+00
         21   -1    0    0  503  501  0.00000000000E+00  0.00000000000E+00  0.18601824195E+03  0.18601824195E+03  0.00000000000E+00 0.  1.
         21   -1    0    0  501  502 -0.00000000000E+00 -0.00000000000E+00 -0.29467373144E+03  0.29467373144E+03  0.00000000000E+00 0.  1.
         25    1    1    2    0    0 -0.14043989553E+03  0.14955256393E+03  0.15765214728E+02  0.24075480396E+03  0.12500000000E+03 0.  0.
         21    1    1    2  503  502  0.14043989553E+03 -0.14955256393E+03 -0.12442070422E+03  0.23993716943E+03  0.00000000000E+00 0.  1.
<mgrwt>
<rscale>  3 0.24023808E+03</rscale>
<asrwt>0</asrwt>
<pdfrwt beam="1">  1       21 0.28618191E-01 0.24023808E+03</pdfrwt>
<pdfrwt beam="2">  1       21 0.45334420E-01 0.24023808E+03</pdfrwt>
<totfact> 0.53362077E+04</totfact>
</mgrwt>
</event>
<event>
 4    0  0.1431806E-001  0.3640142E+03  0.7546771E-02  0.1057006E+00
         21   -1    0    0  502  501  0.00000000000E+00  0.00000000000E+00  0.41595820330E+03  0.41595820330E+03  0.00000000000E+00 0.  1.
         21   -1    0    0  503  502 -0.00000000000E+00 -0.00000000000E+00 -0.31488836975E+03  0.31488836975E+03  0.00000000000E+00 0.  1.
         25    1    1    2    0    0 -0.61176391848E+02  0.33636105851E+03  0.13283762298E+03  0.38749470536E+03  0.12500000000E+03 0.  0.
         21    1    1    2  503  501  0.61176391848E+02 -0.33636105851E+03 -0.31767789424E+02  0.34335186769E+03  0.00000000000E+00 0.  1.
<mgrwt>
<rscale>  3 0.36401417E+03</rscale>
<asrwt>0</asrwt>
<pdfrwt beam="1">  1       21 0.63993570E-01 0.36401417E+03</pdfrwt>
<pdfrwt beam="2">  1       21 0.48444364E-01 0.36401417E+03</pdfrwt>
<totfact> 0.83957562E+03</totfact>
</mgrwt>
</event>
<event>
 4    0  0.1462096E-001  0.2746989E+03  0.7546771E-02  0.1098620E+00
         21   -1    0    0  502  501  0.00000000000E+00  0.00000000000E+00  0.46580894349E+03  0.46580894349E+03  0.00000000000E+00 0.  1.
         21   -1    0    0  503  502 -0.00000000000E+00 -0.00000000000E+00 -0.21144814655E+03  0.21144814655E+03  0.00000000000E+00 0.  1.
         25    1    1    2    0    0  0.18533664662E+03  0.15963971739E+03 -0.57758787534E+02  0.28070552094E+03  0.12500000000E+03 0.  0.
         21    1    1    2  503  501 -0.18533664662E+03 -0.15963971739E+03  0.31211958447E+03  0.39655156910E+03  0.00000000000E+00 0.  1.
<mgrwt>
<rscale>  3 0.27469895E+03</rscale>
<asrwt>0</asrwt>
<pdfrwt beam="1">  1       21 0.71662914E-01 0.27469895E+03</pdfrwt>
<pdfrwt beam="2">  1       21 0.32530484E-01 0.27469895E+03</pdfrwt>
<totfact> 0.15292414E+04</totfact>
</mgrwt>
</event>
<event>
 4    0  0.1279971E-001  0.2501796E+03  0.7546771E-02  0.1113191E+00
         21   -1    0    0  503  501  0.00000000000E+00  0.00000000000E+00  0.80819210534E+03  0.80819210534E+03  0.00000000000E+00 0. -1.
         21   -1    0    0  501  502 -0.00000000000E+00 -0.00000000000E+00 -0.67606466210E+02  0.67606466210E+02  0.00000000000E+00 0. -1.
         25    1    1    2    0    0  0.18938612592E+03  0.10534573258E+03  0.41900680519E+03  0.48801283883E+03  0.12500000000E+03 0.  0.
         21    1    1    2  503  502 -0.18938612592E+03 -0.10534573258E+03  0.32157883394E+03  0.38778573272E+03  0.00000000000E+00 0. -1.
<mgrwt>
<rscale>  3 0.25017959E+03</rscale>
<asrwt>0</asrwt>
<pdfrwt beam="1">  1       21 0.12433724E+00 0.25017959E+03</pdfrwt>
<pdfrwt beam="2">  1       21 0.10400995E-01 0.25017959E+03</pdfrwt>
<totfact> 0.35505632E+04</totfact>
</mgrwt>
</event>
<event>
 4    0  0.1135355E-001  0.2586349E+03  0.7546771E-02  0.1107966E+00
         21   -1    0    0  502  501  0.00000000000E+00  0.00000000000E+00  0.26790854284E+03  0.26790854284E+03  0.00000000000E+00 0. -1.
         21   -1    0    0  503  502 -0.00000000000E+00 -0.00000000000E+00 -0.36468425754E+03  0.36468425754E+03  0.00000000000E+00 0.  1.
         25    1    1    2    0    0 -0.10426080590E+03 -0.20098923220E+03 -0.24959120812E+03  0.35942698601E+03  0.12500000000E+03 0.  0.
         21    1    1    2  503  501  0.10426080590E+03  0.20098923220E+03  0.15281549341E+03  0.27316581436E+03  0.00000000000E+00 0. -1.
<mgrwt>
<rscale>  3 0.25863485E+03</rscale>
<asrwt>0</asrwt>
<pdfrwt beam="1">  1       21 0.41216699E-01 0.25863485E+03</pdfrwt>
<pdfrwt beam="2">  1       21 0.56105270E-01 0.25863485E+03</pdfrwt>
<totfact> 0.16340481E+04</totfact>
</mgrwt>
</event>
<event>
 4    0  0.1036223E-001  0.2692894E+03  0.7546771E-02  0.1101687E+00
         21   -1    0    0  502  501  0.00000000000E+00  0.00000000000E+00  0.14764021275E+03  0.14764021275E+03  0.00000000000E+00 0. -1.
         21   -1    0    0  503  502 -0.00000000000E+00 -0.00000000000E+00 -0.96973694358E+03  0.96973694358E+03  0.00000000000E+00 0. -1.
         25    1    1    2    0    0 -0.18265721324E+03 -0.15338875935E+03 -0.83614971656E+03  0.87844357676E+03  0.12500000000E+03 0.  0.
         21    1    1    2  503  501  0.18265721324E+03  0.15338875935E+03  0.14052985733E+02  0.23893357958E+03  0.00000000000E+00 0. -1.
<mgrwt>
<rscale>  3 0.26928938E+03</rscale>
<asrwt>0</asrwt>
<pdfrwt beam="1">  1       21 0.22713880E-01 0.26928938E+03</pdfrwt>
<pdfrwt beam="2">  1       21 0.14919029E+00 0.26928938E+03</pdfrwt>
<totfact> 0.52137292E+03</totfact>
</mgrwt>
</event>
<event>
 4    0  0.1005289E-001  0.2505062E+03  0.7546771E-02  0.1112985E+00
         21   -1    0    0  503  501  0.00000000000E+00  0.00000000000E+00  0.15562034896E+04  0.15562034896E+04  0.00000000000E+00 0.  1.
         21   -1    0    0  501  502 -0.00000000000E+00 -0.00000000000E+00 -0.39359729640E+03  0.39359729640E+03  0.00000000000E+00 0.  1.
         25    1    1    2    0    0 -0.95295545923E+02 -0.19505673194E+03 -0.34516110883E+03  0.42648512377E+03  0.12500000000E+03 0.  0.
         21    1    1    2  503  502  0.95295545923E+02  0.19505673194E+03  0.15077673020E+04  0.15233156622E+04  0.00000000000E+00 0.  1.
<mgrwt>
<rscale>  3 0.25050623E+03</rscale>
<asrwt>0</asrwt>
<pdfrwt beam="1">  1       21 0.23941592E+00 0.25050623E+03</pdfrwt>
<pdfrwt beam="2">  1       21 0.60553431E-01 0.25050623E+03</pdfrwt>
<totfact> 0.18142532E+02</totfact>
</mgrwt>
</event>
<event>
 4    0  0.1461544E-001  0.3160199E+03  0.7546771E-02  0.1077496E+00
         21   -1    0    0  503  501  0.00000000000E+00  0.00000000000E+00  0.14533683601E+03  0.14533683601E+03  0.00000000000E+00 0. -1.
         21   -1    0    0  501  502 -0.00000000000E+00 -0.00000000000E+00 -0.63539723298E+03  0.63539723298E+03  0.00000000000E+00 0. -1.
         25    1    1    2    0    0  0.18736786149E+03 -0.22166829431E+03 -0.22796947117E+03  0.38966476362E+03  0.12500000000E+03 0.  0.
         21    1    1    2  503  502 -0.18736786149E+03  0.22166829431E+03 -0.26209092580E+03  0.39106930538E+03  0.00000000000E+00 0. -1.
<mgrwt>
<rscale>  3 0.31601985E+03</rscale>
<asrwt>0</asrwt>
<pdfrwt beam="1">  1       21 0.22359513E-01 0.31601985E+03</pdfrwt>
<pdfrwt beam="2">  1       21 0.97753420E-01 0.31601985E+03</pdfrwt>
<totfact> 0.15211646E+04</totfact>
</mgrwt>
</event>
<event>
 4    0  0.1138777E-001  0.2372842E+03  0.7546771E-02  0.1121615E+00
         21   -1    0    0  502  501  0.00000000000E+00  0.00000000000E+00  0.71228560531E+02  0.71228560531E+02  0.00000000000E+00 0.  1.
         21   -1    0    0  503  502 -0.00000000000E+00 -0.00000000000E+00 -0.78908923746E+03  0.78908923746E+03  0.00000000000E+00 0.  1.
         25    1    1    2    0    0  0.92599184375E+02 -0.17917633534E+03 -0.22173173705E+03  0.32475949764E+03  0.12500000000E+03 0.  0.
         21    1    1    2  503  501 -0.92599184375E+02  0.17917633534E+03 -0.49612893989E+03  0.53555830036E+03  0.00000000000E+00 0.  1.
<mgrwt>
<rscale>  3 0.23728415E+03</rscale>
<asrwt>0</asrwt>
<pdfrwt beam="1">  1       21 0.10958240E-01 0.23728415E+03</pdfrwt>
<pdfrwt beam="2">  1       21 0.12139835E+00 0.23728415E+03</pdfrwt>
<totfact> 0.34563298E+04</totfact>
</mgrwt>
</event>
<event>
 4    0  0.1529223E-001  0.2474345E+03  0.7546771E-02  0.1114937E+00
         21   -1    0    0  503  501  0.00000000000E+00  0.00000000000E+00  0.82646896396E+03  0.82646896396E+03  0.00000000000E+00 0. -1.
         21   -1    0    0  501  502 -0.00000000000E+00 -0.00000000000E+00 -0.74420465574E+02  0.74420465574E+02  0.00000000000E+00 0. -1.
         25    1    1    2    0    0 -0.94740036057E+02  0.19137171686E+03  0.23400690837E+03  0.34056283064E+03  0.12500000000E+03 0.  0.
         21    1    1    2  503  502  0.94740036057E+02 -0.19137171686E+03  0.51804159001E+03  0.56032659889E+03  0.00000000000E+00 0. -1.
<mgrwt>
<rscale>  3 0.24743445E+03</rscale>
<asrwt>0</asrwt>
<pdfrwt beam="1">  1       21 0.12714906E+00 0.24743445E+03</pdfrwt>
<pdfrwt beam="2">  1       21 0.11449303E-01 0.24743445E+03</pdfrwt>
<totfact> 0.28298990E+04</totfact>
</mgrwt>
</event>
<event>
 4    0  0.1005289E-001  0.5668077E+03  0.7546771E-02  0.9976768E-01
         21   -1    0    0  503  501  0.00000000000E+00  0.00000000000E+00  0.25080228731E+04  0.25080228731E+04  0.00000000000E+00 0. -1.
         21   -1    0    0  501  502 -0.00000000000E+00 -0.00000000000E+00 -0.15852879824E+03  0.15852879824E+03  0.00000000000E+00 0. -1.
         25    1    1    2    0    0  0.53254556230E+03  0.14846262071E+03  0.57282520574E+03  0.80585336259E+03  0.12500000000E+03 0.  0.
         21    1    1    2  503  502 -0.53254556230E+03 -0.14846262071E+03  0.17766688691E+04  0.18606983088E+04  0.00000000000E+00 0. -1.
<mgrwt>
<rscale>  3 0.56680766E+03</rscale>
<asrwt>0</asrwt>
<pdfrwt beam="1">  1       21 0.38584964E+00 0.56680766E+03</pdfrwt>
<pdfrwt beam="2">  1       21 0.24389048E-01 0.56680766E+03</pdfrwt>
<totfact> 0.11958372E+02</totfact>
</mgrwt>
</event>
<event>
 4    0  0.1005289E-001  0.2403996E+03  0.7546771E-02  0.1119527E+00
         21   -1    0    0  502  501  0.00000000000E+00  0.00000000000E+00  0.83402640652E+02  0.83402640652E+02  0.00000000000E+00 0. -1.
         21   -1    0    0  503  502 -0.00000000000E+00 -0.00000000000E+00 -0.87105950106E+03  0.87105950106E+03  0.00000000000E+00 0.  1.
         25    1    1    2    0    0 -0.16899149792E+03 -0.11665691252E+03 -0.68281968423E+03  0.72390239865E+03  0.12500000000E+03 0.  0.
         21    1    1    2  503  501  0.16899149792E+03  0.11665691252E+03 -0.10483717618E+03  0.23055974306E+03  0.00000000000E+00 0. -1.
<mgrwt>
<rscale>  3 0.24039959E+03</rscale>
<asrwt>0</asrwt>
<pdfrwt beam="1">  1       21 0.12831175E-01 0.24039959E+03</pdfrwt>
<pdfrwt beam="2">  1       21 0.13400916E+00 0.24039959E+03</pdfrwt>
<totfact> 0.20237282E+04</totfact>
</mgrwt>
</event>
<event>
 4    0  0.1005289E-001  0.2580052E+03  0.7546771E-02  0.1108348E+00
         21   -1    0    0  502  501  0.00000000000E+00  0.00000000000E+00  0.24641021435E+03  0.24641021435E+03  0.00000000000E+00 0.  1.
         21   -1    0    0  503  502 -0.00000000000E+00 -0.00000000000E+00 -0.25698698307E+03  0.25698698307E+03  0.00000000000E+00 0. -1.
         25    1    1    2    0    0 -0.18007744020E+02 -0.22498312412E+03 -0.74991261621E+02  0.26868266468E+03  0.12500000000E+03 0.  0.
         21    1    1    2  503  501  0.18007744020E+02  0.22498312412E+03  0.64414492896E+02  0.23471453274E+03  0.00000000000E+00 0.  1.
<mgrwt>
<rscale>  3 0.25800520E+03</rscale>
<asrwt>0</asrwt>
<pdfrwt beam="1">  1       21 0.37909264E-01 0.25800520E+03</pdfrwt>
<pdfrwt beam="2">  1       21 0.39536459E-01 0.25800520E+03</pdfrwt>
<totfact> 0.40159730E+04</totfact>
</mgrwt>
</event>
<event>
 4    0  0.1251207E-001  0.3424514E+03  0.7546771E-02  0.1065757E+00
         21   -1    0    0  502  501  0.00000000000E+00  0.00000000000E+00  0.78989331443E+03  0.78989331443E+03  0.00000000000E+00 0. -1.
         21   -1    0    0  503  502 -0.00000000000E+00 -0.00000000000E+00 -0.21133919568E+03  0.21133919568E+03  0.00000000000E+00 0. -1.
         25    1    1    2    0    0  0.31462518319E+03  0.51565227900E+02  0.20679413438E+01  0.34245766893E+03  0.12500000000E+03 0.  0.
         21    1    1    2  503  501 -0.31462518319E+03 -0.51565227900E+02  0.57648617740E+03  0.65877484118E+03  0.00000000000E+00 0. -1.
<mgrwt>
<rscale>  3 0.34245143E+03</rscale>
<asrwt>0</asrwt>
<pdfrwt beam="1">  1       21 0.12152205E+00 0.34245143E+03</pdfrwt>
<pdfrwt beam="2">  1       21 0.32513723E-01 0.34245143E+03</pdfrwt>
<totfact> 0.42439220E+03</totfact>
</mgrwt>
</event>
<event>
 4    0  0.1277966E-001  0.2456454E+03  0.7546771E-02  0.1116088E+00
         21   -1    0    0  502  501  0.00000000000E+00  0.00000000000E+00  0.22372992881E+03  0.22372992881E+03  0.00000000000E+00 0. -1.
         21   -1    0    0  503  502 -0.00000000000E+00 -0.00000000000E+00 -0.49648612846E+03  0.49648612846E+03  0.00000000000E+00 0.  1.
         25    1    1    2    0    0  0.19496235473E+03  0.81892206378E+02 -0.40292496985E+03  0.47190060877E+03  0.12500000000E+03 0.  0.
         21    1    1    2  503  501 -0.19496235473E+03 -0.81892206378E+02  0.13016877020E+03  0.24831544850E+03  0.00000000000E+00 0. -1.
<mgrwt>
<rscale>  3 0.24564538E+03</rscale>
<asrwt>0</asrwt>
<pdfrwt beam="1">  1       21 0.34419989E-01 0.24564538E+03</pdfrwt>
<pdfrwt beam="2">  1       21 0.76382481E-01 0.24564538E+03</pdfrwt>
<totfact> 0.12019190E+04</totfact>
</mgrwt>
</event>
<event>
 4    0  0.1005289E-001  0.3636184E+03  0.7546771E-02  0.1057160E+00
         21   -1    0    0  503  501  0.00000000000E+00  0.00000000000E+00  0.27372847066E+04  0.27372847066E+04  0.00000000000E+00 0.  1.
         21   -1    0    0  501  502 -0.00000000000E+00 -0.00000000000E+00 -0.49326605396E+02  0.49326605396E+02  0.00000000000E+00 0.  1.
         25    1    1    2    0    0  0.14999350346E+02 -0.34112811268E+03  0.17756032294E+04  0.18124528126E+04  0.12500000000E+03 0.  0.
         21    1    1    2  503  502 -0.14999350346E+02  0.34112811268E+03  0.91235487181E+03  0.97415849937E+03  0.00000000000E+00 0.  1.
<mgrwt>
<rscale>  3 0.36361844E+03</rscale>
<asrwt>0</asrwt>
<pdfrwt beam="1">  1       21 0.42112061E+00 0.36361844E+03</pdfrwt>
<pdfrwt beam="2">  1       21 0.75887107E-02 0.36361844E+03</pdfrwt>
<totfact> 0.69662670E+02</totfact>
</mgrwt>
</event>
<event>
 4    0  0.1653032E-001  0.2540488E+03  0.7546771E-02  0.1110772E+00
         21   -1    0    0  502  501  0.00000000000E+00  0.00000000000E+00  0.41874695230E+03  0.41874695230E+03  0.00000000000E+00 0. -1.
         21   -1    0    0  503  502 -0.00000000000E+00 -0.00000000000E+00 -0.14910079934E+03  0.14910079934E+03  0.00000000000E+00 0. -1.
         25    1    1    2    0    0  0.20084150227E+03 -0.92620095672E+02  0.55597868869E+02  0.26006136618E+03  0.12500000000E+03 0.  0.
         21    1    1    2  503  501 -0.20084150227E+03  0.92620095672E+02  0.21404828409E+03  0.30778638546E+03  0.00000000000E+00 0. -1.
<mgrwt>
<rscale>  3 0.25404880E+03</rscale>
<asrwt>0</asrwt>
<pdfrwt beam="1">  1       21 0.64422608E-01 0.25404880E+03</pdfrwt>
<pdfrwt beam="2">  1       21 0.22938585E-01 0.25404880E+03</pdfrwt>
<totfact> 0.38506982E+04</totfact>
</mgrwt>
</event>
<event>
 4    0  0.1470496E-001  0.3083060E+03  0.7546771E-02  0.1081161E+00
         21   -1    0    0  503  501  0.00000000000E+00  0.00000000000E+00  0.54691591585E+03  0.54691591585E+03  0.00000000000E+00 0. -1.
         21   -1    0    0  501  502 -0.00000000000E+00 -0.00000000000E+00 -0.16770211812E+03  0.16770211812E+03  0.00000000000E+00 0. -1.
         25    1    1    2    0    0  0.26346813534E+03  0.10006067687E+03  0.11727070168E+03  0.32985605174E+03  0.12500000000E+03 0.  0.
         21    1    1    2  503  502 -0.26346813534E+03 -0.10006067687E+03  0.26194309606E+03  0.38476198223E+03  0.00000000000E+00 0. -1.
<mgrwt>
<rscale>  3 0.30830601E+03</rscale>
<asrwt>0</asrwt>
<pdfrwt beam="1">  1       21 0.84140909E-01 0.30830601E+03</pdfrwt>
<pdfrwt beam="2">  1       21 0.25800326E-01 0.30830601E+03</pdfrwt>
<totfact> 0.16484324E+04</totfact>
</mgrwt>
</event>
<event>
 4    0  0.1368379E-001  0.3982047E+03  0.7546771E-02  0.1044403E+00
         21   -1    0    0  502  501  0.00000000000E+00  0.00000000000E+00  0.89517969990E+03  0.89517969990E+03  0.00000000000E+00 0. -1.
         21   -1    0    0  503  502 -0.00000000000E+00 -0.00000000000E+00 -0.57402597824E+03  0.57402597824E+03  0.00000000000E+00 0.  1.
         25    1    1    2    0    0  0.99723921431E+02  0.36468766467E+03 -0.45574057095E+03  0.60519948883E+03  0.12500000000E+03 0.  0.
         21    1    1    2  503  501 -0.99723921431E+02 -0.36468766467E+03  0.77689429261E+03  0.86400618931E+03  0.00000000000E+00 0. -1.
<mgrwt>
<rscale>  3 0.39820466E+03</rscale>
<asrwt>0</asrwt>
<pdfrwt beam="1">  1       21 0.13771995E+00 0.39820466E+03</pdfrwt>
<pdfrwt beam="2">  1       21 0.88311689E-01 0.39820466E+03</pdfrwt>
<totfact> 0.34815341E+02</totfact>
</mgrwt>
</event>
<event>
 4    0  0.1743994E-001  0.2873447E+03  0.7546771E-02  0.1091744E+00
         21   -1    0    0  503  501  0.00000000000E+00  0.00000000000E+00  0.19907165193E+03  0.19907165193E+03  0.00000000000E+00 0. -1.
         21   -1    0    0  501  502 -0.00000000000E+00 -0.00000000000E+00 -0.39343957946E+03  0.39343957946E+03  0.00000000000E+00 0. -1.
         25    1    1    2    0    0 -0.92318914367E+02  0.24170068855E+03 -0.16696740447E+03  0.33233284363E+03  0.12500000000E+03 0.  0.
         21    1    1    2  503  502  0.92318914367E+02 -0.24170068855E+03 -0.27400523059E+02  0.26017838777E+03  0.00000000000E+00 0. -1.
<mgrwt>
<rscale>  3 0.28734475E+03</rscale>
<asrwt>0</asrwt>
<pdfrwt beam="1">  1       21 0.30626409E-01 0.28734475E+03</pdfrwt>
<pdfrwt beam="2">  1       21 0.60529165E-01 0.28734475E+03</pdfrwt>
<totfact> 0.24858046E+04</totfact>
</mgrwt>
</event>
<event>
 4    0  0.1424854E-001  0.2496325E+03  0.7546771E-02  0.1113537E+00
         21   -1    0    0  502  501  0.00000000000E+00  0.00000000000E+00  0.55554866766E+03  0.55554866766E+03  0.00000000000E+00 0.  1.
         21   -1    0    0  503  502 -0.00000000000E+00 -0.00000000000E+00 -0.10687344318E+03  0.10687344318E+03  0.00000000000E+00 0.  1.
         25    1    1    2    0    0 -0.19311433551E+03  0.96944424461E+02  0.14177293232E+03  0.28708175204E+03  0.12500000000E+03 0.  0.
         21    1    1    2  503  501  0.19311433551E+03 -0.96944424461E+02  0.30690229216E+03  0.37534035881E+03  0.00000000000E+00 0.  1.
<mgrwt>
<rscale>  3 0.24963247E+03</rscale>
<asrwt>0</asrwt>
<pdfrwt beam="1">  1       21 0.85469024E-01 0.24963247E+03</pdfrwt>
<pdfrwt beam="2">  1       21 0.16442069E-01 0.24963247E+03</pdfrwt>
<totfact> 0.38174023E+04</totfact>
</mgrwt>
</event>
<event>
 4    0  0.1005289E-001  0.3761902E+03  0.7546771E-02  0.1052351E+00
         21   -1    0    0  503  501  0.00000000000E+00  0.00000000000E+00  0.77710891397E+03  0.77710891397E+03  0.00000000000E+00 0.  1.
         21   -1    0    0  501  502 -0.00000000000E+00 -0.00000000000E+00 -0.20381969951E+03  0.20381969951E+03  0.00000000000E+00 0. -1.
         25    1    1    2    0    0 -0.76411748873E+02 -0.34648993806E+03  0.48771010508E+03  0.61593845402E+03  0.12500000000E+03 0.  0.
         21    1    1    2  503  502  0.76411748873E+02  0.34648993806E+03  0.85579109374E+02  0.36499015946E+03  0.00000000000E+00 0.  1.
<mgrwt>
<rscale>  3 0.37619015E+03</rscale>
<asrwt>0</asrwt>
<pdfrwt beam="1">  1       21 0.11955522E+00 0.37619015E+03</pdfrwt>
<pdfrwt beam="2">  1       21 0.31356877E-01 0.37619015E+03</pdfrwt>
<totfact> 0.46841988E+03</totfact>
</mgrwt>
</event>
<event>
 4    0  0.1010111E-001  0.2587970E+03  0.7546771E-02  0.1107868E+00
         21   -1    0    0  503  501  0.00000000000E+00  0.00000000000E+00  0.38031059492E+03  0.38031059492E+03  0.00000000000E+00 0. -1.
         21   -1    0    0  501  502 -0.00000000000E+00 -0.00000000000E+00 -0.10557623384E+04  0.10557623384E+04  0.00000000000E+00 0. -1.
         25    1    1    2    0    0 -0.54446725412E+02 -0.21996923608E+03 -0.10040765562E+04  0.10368922998E+04  0.12500000000E+03 0.  0.
         21    1    1    2  503  502  0.54446725412E+02  0.21996923608E+03  0.32862481265E+03  0.39918063357E+03  0.00000000000E+00 0. -1.
<mgrwt>
<rscale>  3 0.25879705E+03</rscale>
<asrwt>0</asrwt>
<pdfrwt beam="1">  1       21 0.58509323E-01 0.25879705E+03</pdfrwt>
<pdfrwt beam="2">  1       21 0.16242497E+00 0.25879705E+03</pdfrwt>
<totfact> 0.61933283E+02</totfact>
</mgrwt>
</event>
<event>
 4    0  0.1129870E-001  0.4099875E+03  0.7546771E-02  0.1040375E+00
         21   -1    0    0  502  501  0.00000000000E+00  0.00000000000E+00  0.22399758427E+03  0.22399758427E+03  0.00000000000E+00 0.  1.
         21   -1    0    0  503  502 -0.00000000000E+00 -0.00000000000E+00 -0.11429769417E+04  0.11429769417E+04  0.00000000000E+00 0.  1.
         25    1    1    2    0    0  0.22436615493E+02  0.38982219033E+03 -0.88460719508E+03  0.97499724686E+03  0.12500000000E+03 0.  0.
         21    1    1    2  503  501 -0.22436615493E+02 -0.38982219033E+03 -0.34372162343E+02  0.39197727910E+03  0.00000000000E+00 0.  1.
<mgrwt>
<rscale>  3 0.40998749E+03</rscale>
<asrwt>0</asrwt>
<pdfrwt beam="1">  1       21 0.34461167E-01 0.40998749E+03</pdfrwt>
<pdfrwt beam="2">  1       21 0.17584261E+00 0.40998749E+03</pdfrwt>
<totfact> 0.13557186E+03</totfact>
</mgrwt>
</event>
<event>
 4    0  0.1367848E-001  0.2408078E+03  0.7546771E-02  0.1119256E+00
         21   -1    0    0  502  501  0.00000000000E+00  0.00000000000E+00  0.76244027387E+02  0.76244027387E+02  0.00000000000E+00 0.  1.
         21   -1    0    0  503  502 -0.00000000000E+00 -0.00000000000E+00 -0.68052559085E+03  0.68052559085E+03  0.00000000000E+00 0.  1.
         25    1    1    2    0    0 -0.28594993092E+02 -0.20382771072E+03 -0.39925404421E+03  0.46625336579E+03  0.12500000000E+03 0.  0.
         21    1    1    2  503  501  0.28594993092E+02  0.20382771072E+03 -0.20502751925E+03  0.29051625245E+03  0.00000000000E+00 0.  1.
<mgrwt>
<rscale>  3 0.24080783E+03</rscale>
<asrwt>0</asrwt>
<pdfrwt beam="1">  1       21 0.11729850E-01 0.24080783E+03</pdfrwt>
<pdfrwt beam="2">  1       21 0.10469624E+00 0.24080783E+03</pdfrwt>
<totfact> 0.43907963E+04</totfact>
</mgrwt>
</event>
<event>
 4    0  0.1602346E-001  0.2605170E+03  0.7546771E-02  0.1106833E+00
         21   -1    0    0  502  501  0.00000000000E+00  0.00000000000E+00  0.69511419533E+02  0.69511419533E+02  0.00000000000E+00 0.  1.
         21   -1    0    0  503  502 -0.00000000000E+00 -0.00000000000E+00 -0.88279429975E+03  0.88279429975E+03  0.00000000000E+00 0.  1.
         25    1    1    2    0    0 -0.20755882832E+03 -0.95725871839E+02 -0.50835672235E+03  0.57122295727E+03  0.12500000000E+03 0.  0.
         21    1    1    2  503  501  0.20755882832E+03  0.95725871839E+02 -0.30492615786E+03  0.38108276201E+03  0.00000000000E+00 0.  1.
<mgrwt>
<rscale>  3 0.26051700E+03</rscale>
<asrwt>0</asrwt>
<pdfrwt beam="1">  1       21 0.10694064E-01 0.26051700E+03</pdfrwt>
<pdfrwt beam="2">  1       21 0.13581452E+00 0.26051700E+03</pdfrwt>
<totfact> 0.26850936E+04</totfact>
</mgrwt>
</event>
<event>
 4    0  0.1080931E-001  0.2360999E+03  0.7546771E-02  0.1122419E+00
         21   -1    0    0  503  501  0.00000000000E+00  0.00000000000E+00  0.44674238928E+02  0.44674238928E+02  0.00000000000E+00 0. -1.
         21   -1    0    0  501  502 -0.00000000000E+00 -0.00000000000E+00 -0.14621196255E+04  0.14621196255E+04  0.00000000000E+00 0. -1.
         25    1    1    2    0    0  0.50249027503E+02  0.19388961133E+03 -0.11424260076E+04  0.11665677559E+04  0.12500000000E+03 0.  0.
         21    1    1    2  503  502 -0.50249027503E+02 -0.19388961133E+03 -0.27501937896E+03  0.34022610857E+03  0.00000000000E+00 0. -1.
<mgrwt>
<rscale>  3 0.23609986E+03</rscale>
<asrwt>0</asrwt>
<pdfrwt beam="1">  1       21 0.68729584E-02 0.23609986E+03</pdfrwt>
<pdfrwt beam="2">  1       21 0.22494153E+00 0.23609986E+03</pdfrwt>
<totfact> 0.14154949E+04</totfact>
</mgrwt>
</event>
<event>
 4    0  0.1128603E-001  0.2737400E+03  0.7546771E-02  0.1099158E+00
         21   -1    0    0  502  501  0.00000000000E+00  0.00000000000E+00  0.22021926127E+03  0.22021926127E+03  0.00000000000E+00 0.  1.
         21   -1    0    0  503  502 -0.00000000000E+00 -0.00000000000E+00 -0.46211603199E+03  0.46211603199E+03  0.00000000000E+00 0. -1.
         25    1    1    2    0    0 -0.45638636851E+02  0.23921899119E+03 -0.32508375252E+03  0.42498594926E+03  0.12500000000E+03 0.  0.
         21    1    1    2  503  501  0.45638636851E+02 -0.23921899119E+03  0.83186981801E+02  0.25734934400E+03  0.00000000000E+00 0.  1.
<mgrwt>
<rscale>  3 0.27374004E+03</rscale>
<asrwt>0</asrwt>
<pdfrwt beam="1">  1       21 0.33879887E-01 0.27374004E+03</pdfrwt>
<pdfrwt beam="2">  1       21 0.71094773E-01 0.27374004E+03</pdfrwt>
<totfact> 0.14364261E+04</totfact>
</mgrwt>
</event>
<event>
 4    0  0.1005289E-001  0.4703660E+03  0.7546771E-02  0.1021817E+00
         21   -1    0    0  502  501  0.00000000000E+00  0.00000000000E+00  0.70371852683E+03  0.70371852683E+03  0.00000000000E+00 0. -1.
         21   -1    0    0  503  502 -0.00000000000E+00 -0.00000000000E+00 -0.57594173702E+03  0.57594173702E+03  0.00000000000E+00 0. -1.
         25    1    1    2    0    0 -0.37868557314E+03  0.24943214973E+03 -0.37576795794E+03  0.60203464920E+03  0.12500000000E+03 0.  0.
         21    1    1    2  503  501  0.37868557314E+03 -0.24943214973E+03  0.50354474776E+03  0.67762561464E+03  0.00000000000E+00 0. -1.
<mgrwt>
<rscale>  3 0.47036599E+03</rscale>
<asrwt>0</asrwt>
<pdfrwt beam="1">  1       21 0.10826439E+00 0.47036599E+03</pdfrwt>
<pdfrwt beam="2">  1       21 0.88606421E-01 0.47036599E+03</pdfrwt>
<totfact> 0.61616333E+02</totfact>
</mgrwt>
</event>
<event>
 4    0  0.1328831E-001  0.2686615E+03  0.7546771E-02  0.1102048E+00
         21   -1    0    0  503  501  0.00000000000E+00  0.00000000000E+00  0.46402381862E+02  0.46402381862E+02  0.00000000000E+00 0. -1.
         21   -1    0    0  501  502 -0.00000000000E+00 -0.00000000000E+00 -0.14041889411E+04  0.14041889411E+04  0.00000000000E+00 0. -1.
         25    1    1    2    0    0 -0.23502055248E+02  0.23664665786E+03 -0.81058058495E+03  0.85394371710E+03  0.12500000000E+03 0.  0.
         21    1    1    2  503  502  0.23502055248E+02 -0.23664665786E+03 -0.54720597424E+03  0.59664760582E+03  0.00000000000E+00 0. -1.
<mgrwt>
<rscale>  3 0.26866147E+03</rscale>
<asrwt>0</asrwt>
<pdfrwt beam="1">  1       21 0.71388299E-02 0.26866147E+03</pdfrwt>
<pdfrwt beam="2">  1       21 0.21602901E+00 0.26866147E+03</pdfrwt>
<totfact> 0.14736436E+04</totfact>
</mgrwt>
</event>
<event>
 4    0  0.1085389E-001  0.2697834E+03  0.7546771E-02  0.1101404E+00
         21   -1    0    0  502  501  0.00000000000E+00  0.00000000000E+00  0.12883064692E+03  0.12883064692E+03  0.00000000000E+00 0. -1.
         21   -1    0    0  503  502 -0.00000000000E+00 -0.00000000000E+00 -0.84765950080E+03  0.84765950080E+03  0.00000000000E+00 0.  1.
         25    1    1    2    0    0  0.77434113168E+02 -0.22619029097E+03 -0.68349978288E+03  0.73481633270E+03  0.12500000000E+03 0.  0.
         21    1    1    2  503  501 -0.77434113168E+02  0.22619029097E+03 -0.35329071004E+02  0.24167381502E+03  0.00000000000E+00 0. -1.
<mgrwt>
<rscale>  3 0.26978341E+03</rscale>
<asrwt>0</asrwt>
<pdfrwt beam="1">  1       21 0.19820100E-01 0.26978341E+03</pdfrwt>
<pdfrwt beam="2">  1       21 0.13040915E+00 0.26978341E+03</pdfrwt>
<totfact> 0.95829182E+03</totfact>
</mgrwt>
</event>
<event>
 4    0  0.1005289E-001  0.3286693E+03  0.7546771E-02  0.1071727E+00
         21   -1    0    0  503  501  0.00000000000E+00  0.00000000000E+00  0.30724263690E+03  0.30724263690E+03  0.00000000000E+00 0. -1.
         21   -1    0    0  501  502 -0.00000000000E+00 -0.00000000000E+00 -0.33847327153E+03  0.33847327153E+03  0.00000000000E+00 0.  1.
         25    1    1    2    0    0 -0.24635948456E+03 -0.17806046789E+03 -0.78958028778E+02  0.33802055584E+03  0.12500000000E+03 0.  0.
         21    1    1    2  503  502  0.24635948456E+03  0.17806046789E+03  0.47727394146E+02  0.30769535260E+03  0.00000000000E+00 0. -1.
<mgrwt>
<rscale>  3 0.32866933E+03</rscale>
<asrwt>0</asrwt>
<pdfrwt beam="1">  1       21 0.47268098E-01 0.32866933E+03</pdfrwt>
<pdfrwt beam="2">  1       21 0.52072811E-01 0.32866933E+03</pdfrwt>
<totfact> 0.13999500E+04</totfact>
</mgrwt>
</event>
<event>
 4    0  0.1005289E-001  0.2708310E+03  0.7546771E-02  0.1100805E+00
         21   -1    0    0  502  501  0.00000000000E+00  0.00000000000E+00  0.29205163209E+02  0.29205163209E+02  0.00000000000E+00 0.  1.
         21   -1    0    0  503  502 -0.00000000000E+00 -0.00000000000E+00 -0.30742529090E+04  0.30742529090E+04  0.00000000000E+00 0.  1.
         25    1    1    2    0    0 -0.12922048414E+03  0.20254995842E+03 -0.23979782449E+04  0.24132237945E+04  0.12500000000E+03 0.  0.
         21    1    1    2  503  501  0.12922048414E+03 -0.20254995842E+03 -0.64706950083E+03  0.69023427768E+03  0.00000000000E+00 0.  1.
<mgrwt>
<rscale>  3 0.27083098E+03</rscale>
<asrwt>0</asrwt>
<pdfrwt beam="1">  1       21 0.44931048E-02 0.27083098E+03</pdfrwt>
<pdfrwt beam="2">  1       21 0.47296170E+00 0.27083098E+03</pdfrwt>
<totfact> 0.84574061E+02</totfact>
</mgrwt>
</event>
<event>
 4    0  0.1628974E-001  0.2776796E+03  0.7546771E-02  0.1096963E+00
         21   -1    0    0  503  501  0.00000000000E+00  0.00000000000E+00  0.10442599518E+03  0.10442599518E+03  0.00000000000E+00 0.  1.
         21   -1    0    0  501  502 -0.00000000000E+00 -0.00000000000E+00 -0.69570151992E+03  0.69570151992E+03  0.00000000000E+00 0.  1.
         25    1    1    2    0    0  0.10403291805E+03 -0.22507361769E+03 -0.40016699902E+03  0.48707248795E+03  0.12500000000E+03 0.  0.
         21    1    1    2  503  502 -0.10403291805E+03  0.22507361769E+03 -0.19110852573E+03  0.31305502715E+03  0.00000000000E+00 0.  1.
<mgrwt>
<rscale>  3 0.27767964E+03</rscale>
<asrwt>0</asrwt>
<pdfrwt beam="1">  1       21 0.16065537E-01 0.27767964E+03</pdfrwt>
<pdfrwt beam="2">  1       21 0.10703101E+00 0.27767964E+03</pdfrwt>
<totfact> 0.23095222E+04</totfact>
</mgrwt>
</event>
<event>
 4    0  0.1274266E-001  0.3049479E+03  0.7546771E-02  0.1082793E+00
         21   -1    0    0  502  501  0.00000000000E+00  0.00000000000E+00  0.55195241030E+03  0.55195241030E+03  0.00000000000E+00 0. -1.
         21   -1    0    0  503  502 -0.00000000000E+00 -0.00000000000E+00 -0.16446959209E+03  0.16446959209E+03  0.00000000000E+00 0. -1.
         25    1    1    2    0    0 -0.26892365986E+03  0.71051313968E+02  0.29236214478E+03  0.42245573466E+03  0.12500000000E+03 0.  0.
         21    1    1    2  503  501  0.26892365986E+03 -0.71051313968E+02  0.95120673432E+02  0.29396626773E+03  0.00000000000E+00 0. -1.
<mgrwt>
<rscale>  3 0.30494790E+03</rscale>
<asrwt>0</asrwt>
<pdfrwt beam="1">  1       21 0.84915755E-01 0.30494790E+03</pdfrwt>
<pdfrwt beam="2">  1       21 0.25303014E-01 0.30494790E+03</pdfrwt>
<totfact> 0.16780435E+04</totfact>
</mgrwt>
</event>
<event>
 4    0  0.1005289E-001  0.2548414E+03  0.7546771E-02  0.1110283E+00
         21   -1    0    0  502  501  0.00000000000E+00  0.00000000000E+00  0.17312748737E+04  0.17312748737E+04  0.00000000000E+00 0.  1.
         21   -1    0    0  503  502 -0.00000000000E+00 -0.00000000000E+00 -0.34454846487E+02  0.34454846487E+02  0.00000000000E+00 0.  1.
         25    1    1    2    0    0  0.27516294408E+02 -0.22036789892E+03  0.10943890099E+04  0.11236687512E+04  0.12500000000E+03 0.  0.
         21    1    1    2  503  501 -0.27516294408E+02  0.22036789892E+03  0.60243101732E+03  0.64206096904E+03  0.00000000000E+00 0.  1.
<mgrwt>
<rscale>  3 0.25484144E+03</rscale>
<asrwt>0</asrwt>
<pdfrwt beam="1">  1       21 0.26634991E+00 0.25484144E+03</pdfrwt>
<pdfrwt beam="2">  1       21 0.53007470E-02 0.25484144E+03</pdfrwt>
<totfact> 0.12328893E+04</totfact>
</mgrwt>
</event>
<event>
 4    0  0.1531464E-001  0.3019917E+03  0.7546771E-02  0.1084249E+00
         21   -1    0    0  503  501  0.00000000000E+00  0.00000000000E+00  0.62887449804E+03  0.62887449804E+03  0.00000000000E+00 0. -1.
         21   -1    0    0  501  502 -0.00000000000E+00 -0.00000000000E+00 -0.23464724464E+03  0.23464724464E+03  0.00000000000E+00 0.  1.
         25    1    1    2    0    0  0.27488425354E+03 -0.35548114573E+01 -0.82634730267E+02  0.31309341765E+03  0.12500000000E+03 0.  0.
         21    1    1    2  503  502 -0.27488425354E+03  0.35548114573E+01  0.47686198367E+03  0.55042832503E+03  0.00000000000E+00 0. -1.
<mgrwt>
<rscale>  3 0.30199170E+03</rscale>
<asrwt>0</asrwt>
<pdfrwt beam="1">  1       21 0.96749922E-01 0.30199170E+03</pdfrwt>
<pdfrwt beam="2">  1       21 0.36099576E-01 0.30199170E+03</pdfrwt>
<totfact> 0.61376850E+03</totfact>
</mgrwt>
</event>
<event>
 4    0  0.1525524E-001  0.5918424E+03  0.7546771E-02  0.9922477E-01
         21   -1    0    0  502  501  0.00000000000E+00  0.00000000000E+00  0.49429928133E+03  0.49429928133E+03  0.00000000000E+00 0. -1.
         21   -1    0    0  503  502 -0.00000000000E+00 -0.00000000000E+00 -0.71000444409E+03  0.71000444409E+03  0.00000000000E+00 0. -1.
         25    1    1    2    0    0  0.35181834245E+03  0.45921266260E+03 -0.15159045833E+02  0.59203649570E+03  0.12500000000E+03 0.  0.
         21    1    1    2  503  501 -0.35181834245E+03 -0.45921266260E+03 -0.20054611693E+03  0.61226722972E+03  0.00000000000E+00 0. -1.
<mgrwt>
<rscale>  3 0.59184239E+03</rscale>
<asrwt>0</asrwt>
<pdfrwt beam="1">  1       21 0.76046043E-01 0.59184239E+03</pdfrwt>
<pdfrwt beam="2">  1       21 0.10923145E+00 0.59184239E+03</pdfrwt>
<totfact> 0.82360150E+02</totfact>
</mgrwt>
</event>
<event>
 4    0  0.1183309E-001  0.2551760E+03  0.7546771E-02  0.1110077E+00
         21   -1    0    0  502  501  0.00000000000E+00  0.00000000000E+00  0.67145556005E+03  0.67145556005E+03  0.00000000000E+00 0. -1.
         21   -1    0    0  503  502 -0.00000000000E+00 -0.00000000000E+00 -0.27188781327E+03  0.27188781327E+03  0.00000000000E+00 0. -1.
         25    1    1    2    0    0 -0.52642324374E+02  0.21614483445E+03 -0.18676818026E+03  0.31622327070E+03  0.12500000000E+03 0.  0.
         21    1    1    2  503  501  0.52642324374E+02 -0.21614483445E+03  0.58633592704E+03  0.62712010262E+03  0.00000000000E+00 0. -1.
<mgrwt>
<rscale>  3 0.25517603E+03</rscale>
<asrwt>0</asrwt>
<pdfrwt beam="1">  1       21 0.10330085E+00 0.25517603E+03</pdfrwt>
<pdfrwt beam="2">  1       21 0.41828895E-01 0.25517603E+03</pdfrwt>
<totfact> 0.39930634E+03</totfact>
</mgrwt>
</event>
<event>
 4    0  0.1005289E-001  0.3575498E+03  0.7546771E-02  0.1059558E+00
         21   -1    0    0  503  501  0.00000000000E+00  0.00000000000E+00  0.63958385019E+03  0.63958385019E+03  0.00000000000E+00 0. -1.
         21   -1    0    0  501  502 -0.00000000000E+00 -0.00000000000E+00 -0.23147493116E+03  0.23147493116E+03  0.00000000000E+00 0.  1.
         25    1    1    2    0    0 -0.16220515669E+03  0.29309779364E+03  0.19621527175E+02  0.35808774598E+03  0.12500000000E+03 0.  0.
         21    1    1    2  503  502  0.16220515669E+03 -0.29309779364E+03  0.38848739186E+03  0.51297103537E+03  0.00000000000E+00 0. -1.
<mgrwt>
<rscale>  3 0.35754976E+03</rscale>
<asrwt>0</asrwt>
<pdfrwt beam="1">  1       21 0.98397515E-01 0.35754976E+03</pdfrwt>
<pdfrwt beam="2">  1       21 0.35611528E-01 0.35754976E+03</pdfrwt>
<totfact> 0.59080624E+03</totfact>
</mgrwt>
</event>
<event>
 4    0  0.1005289E-001  0.3189875E+03  0.7546771E-02  0.1076116E+00
         21   -1    0    0  503  501  0.00000000000E+00  0.00000000000E+00  0.36743770171E+03  0.36743770171E+03  0.00000000000E+00 0. -1.
         21   -1    0    0  501  502 -0.00000000000E+00 -0.00000000000E+00 -0.28246667576E+03  0.28246667576E+03  0.00000000000E+00 0.  1.
         25    1    1    2    0    0  0.29334315606E+03  0.88200287737E+01 -0.56758212909E+02  0.32399767723E+03  0.12500000000E+03 0.  0.
         21    1    1    2  503  502 -0.29334315606E+03 -0.88200287737E+01  0.14172923886E+03  0.32590670024E+03  0.00000000000E+00 0. -1.
<mgrwt>
<rscale>  3 0.31898746E+03</rscale>
<asrwt>0</asrwt>
<pdfrwt beam="1">  1       21 0.56528877E-01 0.31898746E+03</pdfrwt>
<pdfrwt beam="2">  1       21 0.43456411E-01 0.31898746E+03</pdfrwt>
<totfact> 0.14045381E+04</totfact>
</mgrwt>
</event>
<event>
 4    0  0.1347015E-001  0.2775527E+03  0.7546771E-02  0.1097033E+00
         21   -1    0    0  502  501  0.00000000000E+00  0.00000000000E+00  0.13339093580E+04  0.13339093580E+04  0.00000000000E+00 0. -1.
         21   -1    0    0  503  502 -0.00000000000E+00 -0.00000000000E+00 -0.65367155564E+02  0.65367155564E+02  0.00000000000E+00 0. -1.
         25    1    1    2    0    0  0.13075916954E+01 -0.24780794784E+03  0.34351808001E+03  0.44163351334E+03  0.12500000000E+03 0.  0.
         21    1    1    2  503  501 -0.13075916954E+01  0.24780794784E+03  0.92502412243E+03  0.95764300022E+03  0.00000000000E+00 0. -1.
<mgrwt>
<rscale>  3 0.27755268E+03</rscale>
<asrwt>0</asrwt>
<pdfrwt beam="1">  1       21 0.20521680E+00 0.27755268E+03</pdfrwt>
<pdfrwt beam="2">  1       21 0.10056486E-01 0.27755268E+03</pdfrwt>
<totfact> 0.93920310E+03</totfact>
</mgrwt>
</event>
<event>
 4    0  0.1044439E-001  0.2481449E+03  0.7546771E-02  0.1114483E+00
         21   -1    0    0  502  501  0.00000000000E+00  0.00000000000E+00  0.49848346385E+02  0.49848346385E+02  0.00000000000E+00 0.  1.
         21   -1    0    0  503  502 -0.00000000000E+00 -0.00000000000E+00 -0.11443896931E+04  0.11443896931E+04  0.00000000000E+00 0.  1.
         25    1    1    2    0    0 -0.21387919076E+03  0.14372638655E+02 -0.43578695272E+03  0.50148394705E+03  0.12500000000E+03 0.  0.
         21    1    1    2  503  501  0.21387919076E+03 -0.14372638655E+02 -0.65875439397E+03  0.69275409241E+03  0.00000000000E+00 0.  1.
<mgrwt>
<rscale>  3 0.24814488E+03</rscale>
<asrwt>0</asrwt>
<pdfrwt beam="1">  1       21 0.76689761E-02 0.24814488E+03</pdfrwt>
<pdfrwt beam="2">  1       21 0.17605996E+00 0.24814488E+03</pdfrwt>
<totfact> 0.24147300E+04</totfact>
</mgrwt>
</event>
<event>
 4    0  0.1228559E-001  0.2582797E+03  0.7546771E-02  0.1108181E+00
         21   -1    0    0  503  501  0.00000000000E+00  0.00000000000E+00  0.82345123758E+03  0.82345123758E+03  0.00000000000E+00 0. -1.
         21   -1    0    0  501  502 -0.00000000000E+00 -0.00000000000E+00 -0.11539295293E+03  0.11539295293E+03  0.00000000000E+00 0. -1.
         25    1    1    2    0    0  0.22496009321E+03 -0.21826233964E+02  0.78502142264E+02  0.26994631756E+03  0.12500000000E+03 0.  0.
         21    1    1    2  503  502 -0.22496009321E+03  0.21826233964E+02  0.62955614239E+03  0.66889787296E+03  0.00000000000E+00 0. -1.
<mgrwt>
<rscale>  3 0.25827975E+03</rscale>
<asrwt>0</asrwt>
<pdfrwt beam="1">  1       21 0.12668480E+00 0.25827975E+03</pdfrwt>
<pdfrwt beam="2">  1       21 0.17752763E-01 0.25827975E+03</pdfrwt>
<totfact> 0.12755188E+04</totfact>
</mgrwt>
</event>
<event>
 4    0  0.1005289E-001  0.4634382E+03  0.7546771E-02  0.1023789E+00
         21   -1    0    0  503  501  0.00000000000E+00  0.00000000000E+00  0.10325644250E+04  0.10325644250E+04  0.00000000000E+00 0. -1.
         21   -1    0    0  501  502 -0.00000000000E+00 -0.00000000000E+00 -0.40927886266E+03  0.40927886266E+03  0.00000000000E+00 0. -1.
         25    1    1    2    0    0  0.35233020224E+03  0.27388576578E+03 -0.20049792531E+03  0.50494990064E+03  0.12500000000E+03 0.  0.
         21    1    1    2  503  502 -0.35233020224E+03 -0.27388576578E+03  0.82378348764E+03  0.93689338701E+03  0.00000000000E+00 0. -1.
<mgrwt>
<rscale>  3 0.46343822E+03</rscale>
<asrwt>0</asrwt>
<pdfrwt beam="1">  1       21 0.15885606E+00 0.46343822E+03</pdfrwt>
<pdfrwt beam="2">  1       21 0.62965980E-01 0.46343822E+03</pdfrwt>
<totfact> 0.49515916E+02</totfact>
</mgrwt>
</event>
<event>
 4    0  0.1475836E-001  0.2421131E+03  0.7546771E-02  0.1118393E+00
         21   -1    0    0  503  501  0.00000000000E+00  0.00000000000E+00  0.14039846761E+03  0.14039846761E+03  0.00000000000E+00 0.  1.
         21   -1    0    0  501  502 -0.00000000000E+00 -0.00000000000E+00 -0.36255632794E+03  0.36255632794E+03  0.00000000000E+00 0.  1.
         25    1    1    2    0    0 -0.58076119879E+02 -0.19905006573E+03 -0.14177987760E+03  0.28057137784E+03  0.12500000000E+03 0.  0.
         21    1    1    2  503  502  0.58076119879E+02  0.19905006573E+03 -0.80377982719E+02  0.22238341771E+03  0.00000000000E+00 0.  1.
<mgrwt>
<rscale>  3 0.24211312E+03</rscale>
<asrwt>0</asrwt>
<pdfrwt beam="1">  1       21 0.21599765E-01 0.24211312E+03</pdfrwt>
<pdfrwt beam="2">  1       21 0.55777896E-01 0.24211312E+03</pdfrwt>
<totfact> 0.59212654E+04</totfact>
</mgrwt>
</event>
<event>
 4    0  0.1553421E-001  0.3082745E+03  0.7546771E-02  0.1081176E+00
         21   -1    0    0  502  501  0.00000000000E+00  0.00000000000E+00  0.11364724400E+03  0.11364724400E+03  0.00000000000E+00 0.  1.
         21   -1    0    0  503  502 -0.00000000000E+00 -0.00000000000E+00 -0.78355803238E+03  0.78355803238E+03  0.00000000000E+00 0.  1.
         25    1    1    2    0    0 -0.25241380203E+03 -0.12528140722E+03 -0.41687680637E+03  0.51847799388E+03  0.12500000000E+03 0.  0.
         21    1    1    2  503  501  0.25241380203E+03  0.12528140722E+03 -0.25303398201E+03  0.37872728249E+03  0.00000000000E+00 0.  1.
<mgrwt>
<rscale>  3 0.30827449E+03</rscale>
<asrwt>0</asrwt>
<pdfrwt beam="1">  1       21 0.17484191E-01 0.30827449E+03</pdfrwt>
<pdfrwt beam="2">  1       21 0.12054739E+00 0.30827449E+03</pdfrwt>
<totfact> 0.14522939E+04</totfact>
</mgrwt>
</event>
<event>
 4    0  0.1005289E-001  0.3337793E+03  0.7546771E-02  0.1069477E+00
         21   -1    0    0  503  501  0.00000000000E+00  0.00000000000E+00  0.18703553241E+04  0.18703553241E+04  0.00000000000E+00 0. -1.
         21   -1    0    0  501  502 -0.00000000000E+00 -0.00000000000E+00 -0.97004034671E+03  0.97004034671E+03  0.00000000000E+00 0. -1.
         25    1    1    2    0    0 -0.75243352268E+02  0.30020336179E+03 -0.92793258029E+03  0.98613766486E+03  0.12500000000E+03 0.  0.
         21    1    1    2  503  502  0.75243352268E+02 -0.30020336179E+03  0.18282475577E+04  0.18542580059E+04  0.00000000000E+00 0. -1.
<mgrwt>
<rscale>  3 0.33377930E+03</rscale>
<asrwt>0</asrwt>
<pdfrwt beam="1">  1       21 0.28774697E+00 0.33377930E+03</pdfrwt>
<pdfrwt beam="2">  1       21 0.14923698E+00 0.33377930E+03</pdfrwt>
<totfact> 0.99103900E+00</totfact>
</mgrwt>
</event>
<event>
 4    0  0.1445144E-001  0.3608924E+03  0.7546771E-02  0.1058231E+00
         21   -1    0    0  502  501  0.00000000000E+00  0.00000000000E+00  0.22612688813E+03  0.22612688813E+03  0.00000000000E+00 0. -1.
         21   -1    0    0  503  502 -0.00000000000E+00 -0.00000000000E+00 -0.63334920979E+03  0.63334920979E+03  0.00000000000E+00 0. -1.
         25    1    1    2    0    0  0.49588333736E+02 -0.33490198512E+03 -0.37330159916E+03  0.51922772115E+03  0.12500000000E+03 0.  0.
         21    1    1    2  503  501 -0.49588333736E+02  0.33490198512E+03 -0.33920722506E+02  0.34024837677E+03  0.00000000000E+00 0. -1.
<mgrwt>
<rscale>  3 0.36089243E+03</rscale>
<asrwt>0</asrwt>
<pdfrwt beam="1">  1       21 0.34788752E-01 0.36089243E+03</pdfrwt>
<pdfrwt beam="2">  1       21 0.97438340E-01 0.36089243E+03</pdfrwt>
<totfact> 0.63316249E+03</totfact>
</mgrwt>
</event>
<event>
 4    0  0.1520376E-001  0.2863574E+03  0.7546771E-02  0.1092266E+00
         21   -1    0    0  502  501  0.00000000000E+00  0.00000000000E+00  0.95708291701E+03  0.95708291701E+03  0.00000000000E+00 0. -1.
         21   -1    0    0  503  502 -0.00000000000E+00 -0.00000000000E+00 -0.83193212793E+02  0.83193212793E+02  0.00000000000E+00 0. -1.
         25    1    1    2    0    0 -0.24772451553E+03 -0.70768304209E+02  0.32011576241E+03  0.42950516856E+03  0.12500000000E+03 0.  0.
         21    1    1    2  503  501  0.24772451553E+03  0.70768304209E+02  0.55377394180E+03  0.61077096124E+03  0.00000000000E+00 0. -1.
<mgrwt>
<rscale>  3 0.28635745E+03</rscale>
<asrwt>0</asrwt>
<pdfrwt beam="1">  1       21 0.14724352E+00 0.28635745E+03</pdfrwt>
<pdfrwt beam="2">  1       21 0.12798956E-01 0.28635745E+03</pdfrwt>
<totfact> 0.15524368E+04</totfact>
</mgrwt>
</event>
<event>
 4    0  0.1491589E-001  0.2366950E+03  0.7546771E-02  0.1122014E+00
         21   -1    0    0  503  501  0.00000000000E+00  0.00000000000E+00  0.23900183177E+03  0.23900183177E+03  0.00000000000E+00 0. -1.
         21   -1    0    0  501  502 -0.00000000000E+00 -0.00000000000E+00 -0.23249604852E+03  0.23249604852E+03  0.00000000000E+00 0. -1.
         25    1    1    2    0    0  0.17236389565E+03  0.10339338050E+03 -0.83874217054E+02  0.25111628371E+03  0.12500000000E+03 0.  0.
         21    1    1    2  503  502 -0.17236389565E+03 -0.10339338050E+03  0.90380000303E+02  0.22038159658E+03  0.00000000000E+00 0. -1.
<mgrwt>
<rscale>  3 0.23669496E+03</rscale>
<asrwt>0</asrwt>
<pdfrwt beam="1">  1       21 0.36769513E-01 0.23669496E+03</pdfrwt>
<pdfrwt beam="2">  1       21 0.35768623E-01 0.23669496E+03</pdfrwt>
<totfact> 0.52707141E+04</totfact>
</mgrwt>
</event>
<event>
 4    0  0.1521988E-001  0.2464595E+03  0.7546771E-02  0.1115563E+00
         21   -1    0    0  503  501  0.00000000000E+00  0.00000000000E+00  0.38938858189E+03  0.38938858189E+03  0.00000000000E+00 0. -1.
         21   -1    0    0  501  502 -0.00000000000E+00 -0.00000000000E+00 -0.21704274033E+03  0.21704274033E+03  0.00000000000E+00 0. -1.
         25    1    1    2    0    0 -0.89910571327E+02  0.19244053878E+03 -0.95735872596E+02  0.26440050889E+03  0.12500000000E+03 0.  0.
         21    1    1    2  503  502  0.89910571327E+02 -0.19244053878E+03  0.26808171415E+03  0.34203081332E+03  0.00000000000E+00 0. -1.
<mgrwt>
<rscale>  3 0.24645947E+03</rscale>
<asrwt>0</asrwt>
<pdfrwt beam="1">  1       21 0.59905936E-01 0.24645947E+03</pdfrwt>
<pdfrwt beam="2">  1       21 0.33391191E-01 0.24645947E+03</pdfrwt>
<totfact> 0.21812790E+04</totfact>
</mgrwt>
</event>
<event>
 4    0  0.1589006E-001  0.2780316E+03  0.7546771E-02  0.1096769E+00
         21   -1    0    0  502  501  0.00000000000E+00  0.00000000000E+00  0.39004370564E+03  0.39004370564E+03  0.00000000000E+00 0.  1.
         21   -1    0    0  503  502 -0.00000000000E+00 -0.00000000000E+00 -0.16046079746E+04  0.16046079746E+04  0.00000000000E+00 0. -1.
         25    1    1    2    0    0 -0.24648550078E+03  0.30355714398E+02 -0.15514245280E+04  0.15761407417E+04  0.12500000000E+03 0.  0.
         21    1    1    2  503  501  0.24648550078E+03 -0.30355714398E+02  0.33686025910E+03  0.41851093851E+03  0.00000000000E+00 0.  1.
<mgrwt>
<rscale>  3 0.27803160E+03</rscale>
<asrwt>0</asrwt>
<pdfrwt beam="1">  1       21 0.60006724E-01 0.27803160E+03</pdfrwt>
<pdfrwt beam="2">  1       21 0.24686277E+00 0.27803160E+03</pdfrwt>
<totfact> 0.16209967E+02</totfact>
</mgrwt>
</event>
<event>
 4    0  0.1281716E-001  0.2451665E+03  0.7546771E-02  0.1116398E+00
         21   -1    0    0  502  501  0.00000000000E+00  0.00000000000E+00  0.19160104657E+03  0.19160104657E+03  0.00000000000E+00 0. -1.
         21   -1    0    0  503  502 -0.00000000000E+00 -0.00000000000E+00 -0.29186770938E+03  0.29186770938E+03  0.00000000000E+00 0. -1.
         25    1    1    2    0    0  0.11612437937E+03 -0.17605890102E+03  0.10210133480E+02  0.24537900264E+03  0.12500000000E+03 0.  0.
         21    1    1    2  503  501 -0.11612437937E+03  0.17605890102E+03 -0.11047679629E+03  0.23808975330E+03  0.00000000000E+00 0. -1.
<mgrwt>
<rscale>  3 0.24516649E+03</rscale>
<asrwt>0</asrwt>
<pdfrwt beam="1">  1       21 0.29477084E-01 0.24516649E+03</pdfrwt>
<pdfrwt beam="2">  1       21 0.44902724E-01 0.24516649E+03</pdfrwt>
<totfact> 0.51272555E+04</totfact>
</mgrwt>
</event>
<event>
 4    0  0.1816678E-001  0.2572440E+03  0.7546771E-02  0.1108810E+00
         21   -1    0    0  502  501  0.00000000000E+00  0.00000000000E+00  0.22991338751E+03  0.22991338751E+03  0.00000000000E+00 0. -1.
         21   -1    0    0  503  502 -0.00000000000E+00 -0.00000000000E+00 -0.28340074133E+03  0.28340074133E+03  0.00000000000E+00 0. -1.
         25    1    1    2    0    0  0.21999866487E+03 -0.46368888743E+02 -0.11264992252E+03  0.28082822406E+03  0.12500000000E+03 0.  0.
         21    1    1    2  503  501 -0.21999866487E+03  0.46368888743E+02  0.59162568697E+02  0.23248590478E+03  0.00000000000E+00 0. -1.
<mgrwt>
<rscale>  3 0.25724402E+03</rscale>
<asrwt>0</asrwt>
<pdfrwt beam="1">  1       21 0.35371290E-01 0.25724402E+03</pdfrwt>
<pdfrwt beam="2">  1       21 0.43600114E-01 0.25724402E+03</pdfrwt>
<totfact> 0.37801510E+04</totfact>
</mgrwt>
</event>
<event>
 4    0  0.1475282E-001  0.2704358E+03  0.7546771E-02  0.1101030E+00
         21   -1    0    0  503  501  0.00000000000E+00  0.00000000000E+00  0.16264827504E+03  0.16264827504E+03  0.00000000000E+00 0.  1.
         21   -1    0    0  501  502 -0.00000000000E+00 -0.00000000000E+00 -0.56272027123E+03  0.56272027123E+03  0.00000000000E+00 0.  1.
         25    1    1    2    0    0 -0.23572462634E+03  0.44095523903E+02 -0.40324655610E+03  0.48553403557E+03  0.12500000000E+03 0.  0.
         21    1    1    2  503  502  0.23572462634E+03 -0.44095523903E+02  0.31745599108E+01  0.23983451070E+03  0.00000000000E+00 0.  1.
<mgrwt>
<rscale>  3 0.27043579E+03</rscale>
<asrwt>0</asrwt>
<pdfrwt beam="1">  1       21 0.25022812E-01 0.27043579E+03</pdfrwt>
<pdfrwt beam="2">  1       21 0.86572349E-01 0.27043579E+03</pdfrwt>
<totfact> 0.16643358E+04</totfact>
</mgrwt>
</event>
<event>
 4    0  0.1160009E-001  0.2728083E+03  0.7546771E-02  0.1099683E+00
         21   -1    0    0  503  501  0.00000000000E+00  0.00000000000E+00  0.23101070416E+03  0.23101070416E+03  0.00000000000E+00 0. -1.
         21   -1    0    0  501  502 -0.00000000000E+00 -0.00000000000E+00 -0.82494732213E+03  0.82494732213E+03  0.00000000000E+00 0. -1.
         25    1    1    2    0    0 -0.24245091502E+03 -0.41138262351E+01 -0.72901475718E+03  0.77838736240E+03  0.12500000000E+03 0.  0.
         21    1    1    2  503  502  0.24245091502E+03  0.41138262351E+01  0.13507813921E+03  0.27757066389E+03  0.00000000000E+00 0. -1.
<mgrwt>
<rscale>  3 0.27280830E+03</rscale>
<asrwt>0</asrwt>
<pdfrwt beam="1">  1       21 0.35540109E-01 0.27280830E+03</pdfrwt>
<pdfrwt beam="2">  1       21 0.12691497E+00 0.27280830E+03</pdfrwt>
<totfact> 0.33030448E+03</totfact>
</mgrwt>
</event>
<event>
 4    0  0.1542913E-001  0.2748623E+03  0.7546771E-02  0.1098529E+00
         21   -1    0    0  502  501  0.00000000000E+00  0.00000000000E+00  0.17562152857E+03  0.17562152857E+03  0.00000000000E+00 0. -1.
         21   -1    0    0  503  502 -0.00000000000E+00 -0.00000000000E+00 -0.40786018967E+03  0.40786018967E+03  0.00000000000E+00 0. -1.
         25    1    1    2    0    0  0.35949789082E+02 -0.24214019810E+03 -0.19229513695E+03  0.33544997028E+03  0.12500000000E+03 0.  0.
         21    1    1    2  503  501 -0.35949789082E+02  0.24214019810E+03 -0.39943524157E+02  0.24803174795E+03  0.00000000000E+00 0. -1.
<mgrwt>
<rscale>  3 0.27486226E+03</rscale>
<asrwt>0</asrwt>
<pdfrwt beam="1">  1       21 0.27018697E-01 0.27486226E+03</pdfrwt>
<pdfrwt beam="2">  1       21 0.62747721E-01 0.27486226E+03</pdfrwt>
<totfact> 0.29521296E+04</totfact>
</mgrwt>
</event>
<event>
 4    0  0.1637258E-001  0.3760175E+03  0.7546771E-02  0.1052416E+00
         21   -1    0    0  502  501  0.00000000000E+00  0.00000000000E+00  0.45217814772E+03  0.45217814772E+03  0.00000000000E+00 0. -1.
         21   -1    0    0  503  502 -0.00000000000E+00 -0.00000000000E+00 -0.30015226408E+03  0.30015226408E+03  0.00000000000E+00 0. -1.
         25    1    1    2    0    0 -0.26553916468E+03  0.23505983034E+03  0.29680800794E+02  0.37718711769E+03  0.12500000000E+03 0.  0.
         21    1    1    2  503  501  0.26553916468E+03 -0.23505983034E+03  0.12234508284E+03  0.37514329411E+03  0.00000000000E+00 0. -1.
<mgrwt>
<rscale>  3 0.37601752E+03</rscale>
<asrwt>0</asrwt>
<pdfrwt beam="1">  1       21 0.69565869E-01 0.37601752E+03</pdfrwt>
<pdfrwt beam="2">  1       21 0.46177271E-01 0.37601752E+03</pdfrwt>
<totfact> 0.76779721E+03</totfact>
</mgrwt>
</event>
<event>
 4    0  0.1224607E-001  0.2500850E+03  0.7546771E-02  0.1113251E+00
         21   -1    0    0  502  501  0.00000000000E+00  0.00000000000E+00  0.18859938813E+03  0.18859938813E+03  0.00000000000E+00 0. -1.
         21   -1    0    0  503  502 -0.00000000000E+00 -0.00000000000E+00 -0.34384909975E+03  0.34384909975E+03  0.00000000000E+00 0. -1.
         25    1    1    2    0    0 -0.17443031879E+03  0.12841947400E+03  0.24081620093E+02  0.25124175975E+03  0.12500000000E+03 0.  0.
         21    1    1    2  503  501  0.17443031879E+03 -0.12841947400E+03 -0.17933133171E+03  0.28120672813E+03  0.00000000000E+00 0. -1.
<mgrwt>
<rscale>  3 0.25008498E+03</rscale>
<asrwt>0</asrwt>
<pdfrwt beam="1">  1       21 0.29015291E-01 0.25008498E+03</pdfrwt>
<pdfrwt beam="2">  1       21 0.52899861E-01 0.25008498E+03</pdfrwt>
<totfact> 0.37464045E+04</totfact>
</mgrwt>
</event>
<event>
 4    0  0.1320184E-001  0.2440161E+03  0.7546771E-02  0.1117146E+00
         21   -1    0    0  503  501  0.00000000000E+00  0.00000000000E+00  0.85648524647E+02  0.85648524647E+02  0.00000000000E+00 0. -1.
         21   -1    0    0  501  502 -0.00000000000E+00 -0.00000000000E+00 -0.62423213963E+03  0.62423213963E+03  0.00000000000E+00 0. -1.
         25    1    1    2    0    0  0.19579830510E+03 -0.74711846148E+02 -0.21999850376E+03  0.32854707104E+03  0.12500000000E+03 0.  0.
         21    1    1    2  503  502 -0.19579830510E+03  0.74711846148E+02 -0.31858511122E+03  0.38133359323E+03  0.00000000000E+00 0. -1.
<mgrwt>
<rscale>  3 0.24401606E+03</rscale>
<asrwt>0</asrwt>
<pdfrwt beam="1">  1       21 0.13176696E-01 0.24401606E+03</pdfrwt>
<pdfrwt beam="2">  1       21 0.96035714E-01 0.24401606E+03</pdfrwt>
<totfact> 0.43699795E+04</totfact>
</mgrwt>
</event>
<event>
 4    0  0.1423836E-001  0.2404351E+03  0.7546771E-02  0.1119503E+00
         21   -1    0    0  503  501  0.00000000000E+00  0.00000000000E+00  0.55900597988E+03  0.55900597988E+03  0.00000000000E+00 0.  1.
         21   -1    0    0  501  502 -0.00000000000E+00 -0.00000000000E+00 -0.99528738416E+02  0.99528738416E+02  0.00000000000E+00 0.  1.
         25    1    1    2    0    0 -0.16686185492E+03  0.11975465622E+03  0.13850943860E+03  0.27747778450E+03  0.12500000000E+03 0.  0.
         21    1    1    2  503  502  0.16686185492E+03 -0.11975465622E+03  0.32096780287E+03  0.38105693379E+03  0.00000000000E+00 0.  1.
<mgrwt>
<rscale>  3 0.24043514E+03</rscale>
<asrwt>0</asrwt>
<pdfrwt beam="1">  1       21 0.86000918E-01 0.24043514E+03</pdfrwt>
<pdfrwt beam="2">  1       21 0.15312114E-01 0.24043514E+03</pdfrwt>
<totfact> 0.43068361E+04</totfact>
</mgrwt>
</event>
<event>
 4    0  0.1005289E-001  0.3111959E+03  0.7546771E-02  0.1079774E+00
         21   -1    0    0  503  501  0.00000000000E+00  0.00000000000E+00  0.26785019187E+04  0.26785019187E+04  0.00000000000E+00 0.  1.
         21   -1    0    0  501  502 -0.00000000000E+00 -0.00000000000E+00 -0.44104089613E+02  0.44104089613E+02  0.00000000000E+00 0.  1.
         25    1    1    2    0    0  0.28471034639E+03  0.12565533976E+02  0.68358639065E+03  0.75108802911E+03  0.12500000000E+03 0.  0.
         21    1    1    2  503  502 -0.28471034639E+03 -0.12565533976E+02  0.19508114385E+04  0.19715179792E+04  0.00000000000E+00 0.  1.
<mgrwt>
<rscale>  3 0.31119588E+03</rscale>
<asrwt>0</asrwt>
<pdfrwt beam="1">  1       21 0.41207709E+00 0.31119588E+03</pdfrwt>
<pdfrwt beam="2">  1       21 0.67852466E-02 0.31119588E+03</pdfrwt>
<totfact> 0.10142417E+03</totfact>
</mgrwt>
</event>
<event>
 4    0  0.1098189E-001  0.2440936E+03  0.7546771E-02  0.1117095E+00
         21   -1    0    0  502  501  0.00000000000E+00  0.00000000000E+00  0.87130169253E+03  0.87130169253E+03  0.00000000000E+00 0. -1.
         21   -1    0    0  503  502 -0.00000000000E+00 -0.00000000000E+00 -0.78234891574E+03  0.78234891574E+03  0.00000000000E+00 0. -1.
         25    1    1    2    0    0  0.12211538220E+03 -0.17042448383E+03 -0.75009144429E+03  0.78880849771E+03  0.12500000000E+03 0.  0.
         21    1    1    2  503  501 -0.12211538220E+03  0.17042448383E+03  0.83904422109E+03  0.86484211056E+03  0.00000000000E+00 0. -1.
<mgrwt>
<rscale>  3 0.24409357E+03</rscale>
<asrwt>0</asrwt>
<pdfrwt beam="1">  1       21 0.13404642E+00 0.24409357E+03</pdfrwt>
<pdfrwt beam="2">  1       21 0.12036137E+00 0.24409357E+03</pdfrwt>
<totfact> 0.19771368E+02</totfact>
</mgrwt>
</event>
<event>
 4    0  0.1008797E-001  0.3657223E+03  0.7546771E-02  0.1056341E+00
         21   -1    0    0  502  501  0.00000000000E+00  0.00000000000E+00  0.31074984168E+03  0.31074984168E+03  0.00000000000E+00 0.  1.
         21   -1    0    0  503  502 -0.00000000000E+00 -0.00000000000E+00 -0.50180849640E+03  0.50180849640E+03  0.00000000000E+00 0. -1.
         25    1    1    2    0    0 -0.34166674857E+03 -0.37304477021E+02 -0.27640395818E+03  0.45842331876E+03  0.12500000000E+03 0.  0.
         21    1    1    2  503  501  0.34166674857E+03  0.37304477021E+02  0.85345303450E+02  0.35413501932E+03  0.00000000000E+00 0.  1.
<mgrwt>
<rscale>  3 0.36572229E+03</rscale>
<asrwt>0</asrwt>
<pdfrwt beam="1">  1       21 0.47807669E-01 0.36572229E+03</pdfrwt>
<pdfrwt beam="2">  1       21 0.77201306E-01 0.36572229E+03</pdfrwt>
<totfact> 0.56636076E+03</totfact>
</mgrwt>
</event>
<event>
 4    0  0.1659113E-001  0.2649388E+03  0.7546771E-02  0.1104212E+00
         21   -1    0    0  503  501  0.00000000000E+00  0.00000000000E+00  0.11264668184E+03  0.11264668184E+03  0.00000000000E+00 0.  1.
         21   -1    0    0  501  502 -0.00000000000E+00 -0.00000000000E+00 -0.60088980290E+03  0.60088980290E+03  0.00000000000E+00 0.  1.
         25    1    1    2    0    0 -0.10148122835E+01 -0.23359484781E+03 -0.36021737504E+03  0.44715672873E+03  0.12500000000E+03 0.  0.
         21    1    1    2  503  502  0.10148122835E+01  0.23359484781E+03 -0.12802574603E+03  0.26637975601E+03  0.00000000000E+00 0.  1.
<mgrwt>
<rscale>  3 0.26493883E+03</rscale>
<asrwt>0</asrwt>
<pdfrwt beam="1">  1       21 0.17330259E-01 0.26493883E+03</pdfrwt>
<pdfrwt beam="2">  1       21 0.92444583E-01 0.26493883E+03</pdfrwt>
<totfact> 0.28660983E+04</totfact>
</mgrwt>
</event>
<event>
 4    0  0.1394317E-001  0.2663705E+03  0.7546771E-02  0.1103375E+00
         21   -1    0    0  503  501  0.00000000000E+00  0.00000000000E+00  0.97151947874E+03  0.97151947874E+03  0.00000000000E+00 0.  1.
         21   -1    0    0  501  502 -0.00000000000E+00 -0.00000000000E+00 -0.65296202498E+02  0.65296202498E+02  0.00000000000E+00 0.  1.
         25    1    1    2    0    0 -0.20367199019E+03 -0.11766892761E+03  0.52867926989E+03  0.59199242100E+03  0.12500000000E+03 0.  0.
         21    1    1    2  503  502  0.20367199019E+03  0.11766892761E+03  0.37754400635E+03  0.44482326023E+03  0.00000000000E+00 0.  1.
<mgrwt>
<rscale>  3 0.26637052E+03</rscale>
<asrwt>0</asrwt>
<pdfrwt beam="1">  1       21 0.14946452E+00 0.26637052E+03</pdfrwt>
<pdfrwt beam="2">  1       21 0.10045570E-01 0.26637052E+03</pdfrwt>
<totfact> 0.23279667E+04</totfact>
</mgrwt>
</event>
<event>
 4    0  0.1005289E-001  0.3967337E+03  0.7546771E-02  0.1044917E+00
         21   -1    0    0  503  501  0.00000000000E+00  0.00000000000E+00  0.30187834110E+03  0.30187834110E+03  0.00000000000E+00 0. -1.
         21   -1    0    0  501  502 -0.00000000000E+00 -0.00000000000E+00 -0.10441509665E+04  0.10441509665E+04  0.00000000000E+00 0. -1.
         25    1    1    2    0    0  0.44783835228E+02 -0.37385430964E+03 -0.86365567418E+03  0.95042030717E+03  0.12500000000E+03 0.  0.
         21    1    1    2  503  502 -0.44783835228E+02  0.37385430964E+03  0.12138304874E+03  0.39560900048E+03  0.00000000000E+00 0. -1.
<mgrwt>
<rscale>  3 0.39673371E+03</rscale>
<asrwt>0</asrwt>
<pdfrwt beam="1">  1       21 0.46442822E-01 0.39673371E+03</pdfrwt>
<pdfrwt beam="2">  1       21 0.16063861E+00 0.39673371E+03</pdfrwt>
<totfact> 0.95408173E+02</totfact>
</mgrwt>
</event>
<event>
 4    0  0.1591881E-001  0.2773088E+03  0.7546771E-02  0.1097168E+00
         21   -1    0    0  503  501  0.00000000000E+00  0.00000000000E+00  0.25786012125E+03  0.25786012125E+03  0.00000000000E+00 0.  1.
         21   -1    0    0  501  502 -0.00000000000E+00 -0.00000000000E+00 -0.26875952752E+03  0.26875952752E+03  0.00000000000E+00 0.  1.
         25    1    1    2    0    0 -0.22733230554E+03  0.97954918237E+02 -0.26615559338E+02  0.27858307764E+03  0.12500000000E+03 0.  0.
         21    1    1    2  503  502  0.22733230554E+03 -0.97954918237E+02  0.15716153071E+02  0.24803657113E+03  0.00000000000E+00 0.  1.
<mgrwt>
<rscale>  3 0.27730875E+03</rscale>
<asrwt>0</asrwt>
<pdfrwt beam="1">  1       21 0.39670788E-01 0.27730875E+03</pdfrwt>
<pdfrwt beam="2">  1       21 0.41347619E-01 0.27730875E+03</pdfrwt>
<totfact> 0.33175271E+04</totfact>
</mgrwt>
</event>
<event>
 4    0  0.1367500E-001  0.4070569E+03  0.7546771E-02  0.1041363E+00
         21   -1    0    0  502  501  0.00000000000E+00  0.00000000000E+00  0.92381608846E+03  0.92381608846E+03  0.00000000000E+00 0. -1.
         21   -1    0    0  503  502 -0.00000000000E+00 -0.00000000000E+00 -0.17133853860E+03  0.17133853860E+03  0.00000000000E+00 0. -1.
         25    1    1    2    0    0  0.17626382033E+03  0.34496575853E+03  0.35478211656E+03  0.53996820198E+03  0.12500000000E+03 0.  0.
         21    1    1    2  503  501 -0.17626382033E+03 -0.34496575853E+03  0.39769543330E+03  0.55518642507E+03  0.00000000000E+00 0. -1.
<mgrwt>
<rscale>  3 0.40705689E+03</rscale>
<asrwt>0</asrwt>
<pdfrwt beam="1">  1       21 0.14212555E+00 0.40705689E+03</pdfrwt>
<pdfrwt beam="2">  1       21 0.26359776E-01 0.40705689E+03</pdfrwt>
<totfact> 0.41611284E+03</totfact>
</mgrwt>
</event>
<event>
 4    0  0.1005289E-001  0.2840636E+03  0.7546771E-02  0.1093490E+00
         21   -1    0    0  503  501  0.00000000000E+00  0.00000000000E+00  0.29434080568E+03  0.29434080568E+03  0.00000000000E+00 0. -1.
         21   -1    0    0  501  502 -0.00000000000E+00 -0.00000000000E+00 -0.20903118991E+04  0.20903118991E+04  0.00000000000E+00 0. -1.
         25    1    1    2    0    0  0.72502674790E+02  0.24456185191E+03 -0.20231965765E+04  0.20430409992E+04  0.12500000000E+03 0.  0.
         21    1    1    2  503  502 -0.72502674790E+02 -0.24456185191E+03  0.22722548305E+03  0.34161170561E+03  0.00000000000E+00 0. -1.
<mgrwt>
<rscale>  3 0.28406361E+03</rscale>
<asrwt>0</asrwt>
<pdfrwt beam="1">  1       21 0.45283202E-01 0.28406361E+03</pdfrwt>
<pdfrwt beam="2">  1       21 0.32158644E+00 0.28406361E+03</pdfrwt>
<totfact> 0.10579093E+02</totfact>
</mgrwt>
</event>
<event>
 4    0  0.1341045E-001  0.2938039E+03  0.7546771E-02  0.1088380E+00
         21   -1    0    0  502  501  0.00000000000E+00  0.00000000000E+00  0.14517653379E+03  0.14517653379E+03  0.00000000000E+00 0.  1.
         21   -1    0    0  503  502 -0.00000000000E+00 -0.00000000000E+00 -0.85545866152E+03  0.85545866152E+03  0.00000000000E+00 0.  1.
         25    1    1    2    0    0 -0.73044459327E+02 -0.25565646480E+03 -0.67016524607E+03  0.73173914620E+03  0.12500000000E+03 0.  0.
         21    1    1    2  503  501  0.73044459327E+02  0.25565646480E+03 -0.40116881661E+02  0.26889604911E+03  0.00000000000E+00 0.  1.
<mgrwt>
<rscale>  3 0.29380388E+03</rscale>
<asrwt>0</asrwt>
<pdfrwt beam="1">  1       21 0.22334851E-01 0.29380388E+03</pdfrwt>
<pdfrwt beam="2">  1       21 0.13160902E+00 0.29380388E+03</pdfrwt>
<totfact> 0.73717888E+03</totfact>
</mgrwt>
</event>
<event>
 4    0  0.1249952E-001  0.2579940E+03  0.7546771E-02  0.1108354E+00
         21   -1    0    0  503  501  0.00000000000E+00  0.00000000000E+00  0.55624936445E+03  0.55624936445E+03  0.00000000000E+00 0. -1.
         21   -1    0    0  501  502 -0.00000000000E+00 -0.00000000000E+00 -0.11411724785E+03  0.11411724785E+03  0.00000000000E+00 0. -1.
         25    1    1    2    0    0  0.22176414320E+03  0.41911684253E+02  0.32845476590E+03  0.41766428831E+03  0.12500000000E+03 0.  0.
         21    1    1    2  503  502 -0.22176414320E+03 -0.41911684253E+02  0.11367735071E+03  0.25270232399E+03  0.00000000000E+00 0. -1.
<mgrwt>
<rscale>  3 0.25799404E+03</rscale>
<asrwt>0</asrwt>
<pdfrwt beam="1">  1       21 0.85576824E-01 0.25799404E+03</pdfrwt>
<pdfrwt beam="2">  1       21 0.17556500E-01 0.25799404E+03</pdfrwt>
<totfact> 0.33590103E+04</totfact>
</mgrwt>
</event>
<event>
 4    0  0.1714761E-001  0.2663527E+03  0.7546771E-02  0.1103385E+00
         21   -1    0    0  502  501  0.00000000000E+00  0.00000000000E+00  0.72038313134E+03  0.72038313134E+03  0.00000000000E+00 0. -1.
         21   -1    0    0  503  502 -0.00000000000E+00 -0.00000000000E+00 -0.30137347943E+03  0.30137347943E+03  0.00000000000E+00 0.  1.
         25    1    1    2    0    0 -0.21170756138E+03 -0.10246311909E+03 -0.21705869249E+03  0.34359606852E+03  0.12500000000E+03 0.  0.
         21    1    1    2  503  501  0.21170756138E+03  0.10246311909E+03  0.63606834440E+03  0.67816054225E+03  0.00000000000E+00 0. -1.
<mgrwt>
<rscale>  3 0.26635274E+03</rscale>
<asrwt>0</asrwt>
<pdfrwt beam="1">  1       21 0.11082817E+00 0.26635274E+03</pdfrwt>
<pdfrwt beam="2">  1       21 0.46365151E-01 0.26635274E+03</pdfrwt>
<totfact> 0.27020306E+03</totfact>
</mgrwt>
</event>
<event>
 4    0  0.1571148E-001  0.3425317E+03  0.7546771E-02  0.1065723E+00
         21   -1    0    0  502  501  0.00000000000E+00  0.00000000000E+00  0.18541644907E+03  0.18541644907E+03  0.00000000000E+00 0.  1.
         21   -1    0    0  503  502 -0.00000000000E+00 -0.00000000000E+00 -0.59333388521E+03  0.59333388521E+03  0.00000000000E+00 0.  1.
         25    1    1    2    0    0 -0.31488707616E+03  0.50488669607E+02 -0.24083143399E+03  0.41872157347E+03  0.12500000000E+03 0.  0.
         21    1    1    2  503  501  0.31488707616E+03 -0.50488669607E+02 -0.16708600215E+03  0.36002876080E+03  0.00000000000E+00 0.  1.
<mgrwt>
<rscale>  3 0.34253172E+03</rscale>
<asrwt>0</asrwt>
<pdfrwt beam="1">  1       21 0.28525608E-01 0.34253172E+03</pdfrwt>
<pdfrwt beam="2">  1       21 0.91282135E-01 0.34253172E+03</pdfrwt>
<totfact> 0.11051939E+04</totfact>
</mgrwt>
</event>
<event>
 4    0  0.1363317E-001  0.2883088E+03  0.7546771E-02  0.1091235E+00
         21   -1    0    0  503  501  0.00000000000E+00  0.00000000000E+00  0.27737677025E+03  0.27737677025E+03  0.00000000000E+00 0. -1.
         21   -1    0    0  501  502 -0.00000000000E+00 -0.00000000000E+00 -0.27548635024E+03  0.27548635024E+03  0.00000000000E+00 0. -1.
         25    1    1    2    0    0 -0.15438593165E+03  0.20895435823E+03  0.37101376564E+02  0.29068617418E+03  0.12500000000E+03 0.  0.
         21    1    1    2  503  502  0.15438593165E+03 -0.20895435823E+03 -0.35210956559E+02  0.26217694631E+03  0.00000000000E+00 0. -1.
<mgrwt>
<rscale>  3 0.28830876E+03</rscale>
<asrwt>0</asrwt>
<pdfrwt beam="1">  1       21 0.42673350E-01 0.28830876E+03</pdfrwt>
<pdfrwt beam="2">  1       21 0.42382515E-01 0.28830876E+03</pdfrwt>
<totfact> 0.27042964E+04</totfact>
</mgrwt>
</event>
<event>
 4    0  0.1137181E-001  0.2449892E+03  0.7546771E-02  0.1116513E+00
         21   -1    0    0  502  501  0.00000000000E+00  0.00000000000E+00  0.18933054335E+04  0.18933054335E+04  0.00000000000E+00 0. -1.
         21   -1    0    0  503  502 -0.00000000000E+00 -0.00000000000E+00 -0.30488293706E+02  0.30488293706E+02  0.00000000000E+00 0. -1.
         25    1    1    2    0    0 -0.17230221462E+02  0.20999478281E+03  0.69003766632E+03  0.73223744119E+03  0.12500000000E+03 0.  0.
         21    1    1    2  503  501  0.17230221462E+02 -0.20999478281E+03  0.11727794735E+04  0.11915562860E+04  0.00000000000E+00 0. -1.
<mgrwt>
<rscale>  3 0.24498916E+03</rscale>
<asrwt>0</asrwt>
<pdfrwt beam="1">  1       21 0.29127767E+00 0.24498916E+03</pdfrwt>
<pdfrwt beam="2">  1       21 0.46905082E-02 0.24498916E+03</pdfrwt>
<totfact> 0.10934303E+04</totfact>
</mgrwt>
</event>
<event>
 4    0  0.1215658E-001  0.3031513E+03  0.7546771E-02  0.1083676E+00
         21   -1    0    0  502  501  0.00000000000E+00  0.00000000000E+00  0.71799977658E+03  0.71799977658E+03  0.00000000000E+00 0. -1.
         21   -1    0    0  503  502 -0.00000000000E+00 -0.00000000000E+00 -0.18414782075E+03  0.18414782075E+03  0.00000000000E+00 0.  1.
         25    1    1    2    0    0 -0.73439568577E+01 -0.27608294271E+03  0.23352240167E+01  0.30316031770E+03  0.12500000000E+03 0.  0.
         21    1    1    2  503  501  0.73439568577E+01  0.27608294271E+03  0.53151673182E+03  0.59898727963E+03  0.00000000000E+00 0. -1.
<mgrwt>
<rscale>  3 0.30315132E+03</rscale>
<asrwt>0</asrwt>
<pdfrwt beam="1">  1       21 0.11046150E+00 0.30315132E+03</pdfrwt>
<pdfrwt beam="2">  1       21 0.28330434E-01 0.30315132E+03</pdfrwt>
<totfact> 0.71978330E+03</totfact>
</mgrwt>
</event>
<event>
 4    0  0.1005289E-001  0.3328066E+03  0.7546771E-02  0.1069902E+00
         21   -1    0    0  502  501  0.00000000000E+00  0.00000000000E+00  0.36911011573E+03  0.36911011573E+03  0.00000000000E+00 0. -1.
         21   -1    0    0  503  502 -0.00000000000E+00 -0.00000000000E+00 -0.75597449512E+03  0.75597449512E+03  0.00000000000E+00 0. -1.
         25    1    1    2    0    0 -0.27473717257E+03 -0.14019539908E+03  0.25080949766E+03  0.41673212983E+03  0.12500000000E+03 0.  0.
         21    1    1    2  503  501  0.27473717257E+03  0.14019539908E+03 -0.63767387704E+03  0.70835248103E+03  0.00000000000E+00 0. -1.
<mgrwt>
<rscale>  3 0.33280665E+03</rscale>
<asrwt>0</asrwt>
<pdfrwt beam="1">  1       21 0.56786172E-01 0.33280665E+03</pdfrwt>
<pdfrwt beam="2">  1       21 0.11630377E+00 0.33280665E+03</pdfrwt>
<totfact> 0.15014872E+03</totfact>
</mgrwt>
</event>
<event>
 4    0  0.1397351E-001  0.2832743E+03  0.7546771E-02  0.1093914E+00
         21   -1    0    0  502  501  0.00000000000E+00  0.00000000000E+00  0.92539744299E+02  0.92539744299E+02  0.00000000000E+00 0. -1.
         21   -1    0    0  503  502 -0.00000000000E+00 -0.00000000000E+00 -0.10267206753E+04  0.10267206753E+04  0.00000000000E+00 0. -1.
         25    1    1    2    0    0  0.23730061679E+02  0.25309327346E+03 -0.76008421437E+03  0.81115493824E+03  0.12500000000E+03 0.  0.
         21    1    1    2  503  501 -0.23730061679E+02 -0.25309327346E+03 -0.17409671663E+03  0.30810548135E+03  0.00000000000E+00 0. -1.
<mgrwt>
<rscale>  3 0.28327429E+03</rscale>
<asrwt>0</asrwt>
<pdfrwt beam="1">  1       21 0.14236883E-01 0.28327429E+03</pdfrwt>
<pdfrwt beam="2">  1       21 0.15795704E+00 0.28327429E+03</pdfrwt>
<totfact> 0.10602972E+04</totfact>
</mgrwt>
</event>
<event>
 4    0  0.1005289E-001  0.4168460E+03  0.7546771E-02  0.1038098E+00
         21   -1    0    0  503  501  0.00000000000E+00  0.00000000000E+00  0.14820182787E+03  0.14820182787E+03  0.00000000000E+00 0.  1.
         21   -1    0    0  501  502 -0.00000000000E+00 -0.00000000000E+00 -0.20328046705E+04  0.20328046705E+04  0.00000000000E+00 0.  1.
         25    1    1    2    0    0  0.19889786205E+03 -0.34434758514E+03 -0.22353151444E+03  0.47299784023E+03  0.12500000000E+03 0.  0.
         21    1    1    2  503  502 -0.19889786205E+03  0.34434758514E+03 -0.16610713282E+04  0.17080086581E+04  0.00000000000E+00 0.  1.
<mgrwt>
<rscale>  3 0.41684604E+03</rscale>
<asrwt>0</asrwt>
<pdfrwt beam="1">  1       21 0.22800283E-01 0.41684604E+03</pdfrwt>
<pdfrwt beam="2">  1       21 0.31273915E+00 0.41684604E+03</pdfrwt>
<totfact> 0.41978395E+02</totfact>
</mgrwt>
</event>
<event>
 4    0  0.1479597E-001  0.2834832E+03  0.7546771E-02  0.1093802E+00
         21   -1    0    0  503  501  0.00000000000E+00  0.00000000000E+00  0.41325048605E+03  0.41325048605E+03  0.00000000000E+00 0. -1.
         21   -1    0    0  501  502 -0.00000000000E+00 -0.00000000000E+00 -0.27243427665E+03  0.27243427665E+03  0.00000000000E+00 0. -1.
         25    1    1    2    0    0 -0.11393320187E+03 -0.22750155780E+03 -0.13193575436E+03  0.31268158975E+03  0.12500000000E+03 0.  0.
         21    1    1    2  503  502  0.11393320187E+03  0.22750155780E+03  0.27275196377E+03  0.37300317295E+03  0.00000000000E+00 0. -1.
<mgrwt>
<rscale>  3 0.28348322E+03</rscale>
<asrwt>0</asrwt>
<pdfrwt beam="1">  1       21 0.63576998E-01 0.28348322E+03</pdfrwt>
<pdfrwt beam="2">  1       21 0.41912966E-01 0.28348322E+03</pdfrwt>
<totfact> 0.11905019E+04</totfact>
</mgrwt>
</event>
<event>
 4    0  0.1167326E-001  0.2495132E+03  0.7546771E-02  0.1113613E+00
         21   -1    0    0  502  501  0.00000000000E+00  0.00000000000E+00  0.25437061855E+03  0.25437061855E+03  0.00000000000E+00 0. -1.
         21   -1    0    0  503  502 -0.00000000000E+00 -0.00000000000E+00 -0.65981933022E+03  0.65981933022E+03  0.00000000000E+00 0. -1.
         25    1    1    2    0    0  0.21089008674E+03  0.46445958877E+02 -0.58330597225E+03  0.63443101519E+03  0.12500000000E+03 0.  0.
         21    1    1    2  503  501 -0.21089008674E+03 -0.46445958877E+02  0.17785726057E+03  0.27975893358E+03  0.00000000000E+00 0. -1.
<mgrwt>
<rscale>  3 0.24951324E+03</rscale>
<asrwt>0</asrwt>
<pdfrwt beam="1">  1       21 0.39133941E-01 0.24951324E+03</pdfrwt>
<pdfrwt beam="2">  1       21 0.10151067E+00 0.24951324E+03</pdfrwt>
<totfact> 0.47870708E+03</totfact>
</mgrwt>
</event>
<event>
 4    0  0.1431936E-001  0.2564165E+03  0.7546771E-02  0.1109316E+00
         21   -1    0    0  502  501  0.00000000000E+00  0.00000000000E+00  0.41710625635E+03  0.41710625635E+03  0.00000000000E+00 0. -1.
         21   -1    0    0  503  502 -0.00000000000E+00 -0.00000000000E+00 -0.21293594261E+03  0.21293594261E+03  0.00000000000E+00 0. -1.
         25    1    1    2    0    0 -0.20668296237E+03 -0.86061430130E+02 -0.79691725093E+02  0.26851478123E+03  0.12500000000E+03 0.  0.
         21    1    1    2  503  501  0.20668296237E+03  0.86061430130E+02  0.28386203883E+03  0.36152741774E+03  0.00000000000E+00 0. -1.
<mgrwt>
<rscale>  3 0.25641649E+03</rscale>
<asrwt>0</asrwt>
<pdfrwt beam="1">  1       21 0.64170193E-01 0.25641649E+03</pdfrwt>
<pdfrwt beam="2">  1       21 0.32759376E-01 0.25641649E+03</pdfrwt>
<totfact> 0.19417575E+04</totfact>
</mgrwt>
</event>
<event>
 4    0  0.1265586E-001  0.2507245E+03  0.7546771E-02  0.1112848E+00
         21   -1    0    0  503  501  0.00000000000E+00  0.00000000000E+00  0.62977668134E+03  0.62977668134E+03  0.00000000000E+00 0.  1.
         21   -1    0    0  501  502 -0.00000000000E+00 -0.00000000000E+00 -0.15962282431E+03  0.15962282431E+03  0.00000000000E+00 0.  1.
         25    1    1    2    0    0  0.20545626954E+03 -0.70890827336E+02 -0.21703530133E+02  0.25166213723E+03  0.12500000000E+03 0.  0.
         21    1    1    2  503  502 -0.20545626954E+03  0.70890827336E+02  0.49185738716E+03  0.53773736843E+03  0.00000000000E+00 0.  1.
<mgrwt>
<rscale>  3 0.25072453E+03</rscale>
<asrwt>0</asrwt>
<pdfrwt beam="1">  1       21 0.96888719E-01 0.25072453E+03</pdfrwt>
<pdfrwt beam="2">  1       21 0.24557358E-01 0.25072453E+03</pdfrwt>
<totfact> 0.13384684E+04</totfact>
</mgrwt>
</event>
<event>
 4    0  0.1208938E-001  0.2614295E+03  0.7546771E-02  0.1106287E+00
         21   -1    0    0  503  501  0.00000000000E+00  0.00000000000E+00  0.10678455057E+04  0.10678455057E+04  0.00000000000E+00 0.  1.
         21   -1    0    0  501  502 -0.00000000000E+00 -0.00000000000E+00 -0.58532104516E+02  0.58532104516E+02  0.00000000000E+00 0.  1.
         25    1    1    2    0    0  0.20571028333E+02 -0.22868585915E+03  0.64220417955E+03  0.69337695203E+03  0.12500000000E+03 0.  0.
         21    1    1    2  503  502 -0.20571028333E+02  0.22868585915E+03  0.36710922168E+03  0.43300065822E+03  0.00000000000E+00 0.  1.
<mgrwt>
<rscale>  3 0.26142951E+03</rscale>
<asrwt>0</asrwt>
<pdfrwt beam="1">  1       21 0.16428391E+00 0.26142951E+03</pdfrwt>
<pdfrwt beam="2">  1       21 0.90049399E-02 0.26142951E+03</pdfrwt>
<totfact> 0.21932752E+04</totfact>
</mgrwt>
</event>
<event>
 4    0  0.1132300E-001  0.2984269E+03  0.7546771E-02  0.1086030E+00
         21   -1    0    0  502  501  0.00000000000E+00  0.00000000000E+00  0.55982225115E+03  0.55982225115E+03  0.00000000000E+00 0. -1.
         21   -1    0    0  503  502 -0.00000000000E+00 -0.00000000000E+00 -0.20401363940E+03  0.20401363940E+03  0.00000000000E+00 0.  1.
         25    1    1    2    0    0 -0.13891122097E+03  0.23267419947E+03 -0.21610469176E+02  0.29920832673E+03  0.12500000000E+03 0.  0.
         21    1    1    2  503  501  0.13891122097E+03 -0.23267419947E+03  0.37741908093E+03  0.46462756382E+03  0.00000000000E+00 0. -1.
<mgrwt>
<rscale>  3 0.29842689E+03</rscale>
<asrwt>0</asrwt>
<pdfrwt beam="1">  1       21 0.86126500E-01 0.29842689E+03</pdfrwt>
<pdfrwt beam="2">  1       21 0.31386714E-01 0.29842689E+03</pdfrwt>
<totfact> 0.10685189E+04</totfact>
</mgrwt>
</event>
<event>
 4    0  0.1005289E-001  0.6162277E+03  0.7546771E-02  0.9872299E-01
         21   -1    0    0  503  501  0.00000000000E+00  0.00000000000E+00  0.18800704134E+04  0.18800704134E+04  0.00000000000E+00 0. -1.
         21   -1    0    0  501  502 -0.00000000000E+00 -0.00000000000E+00 -0.26406010998E+03  0.26406010998E+03  0.00000000000E+00 0. -1.
         25    1    1    2    0    0 -0.29415967591E+03  0.52686022377E+03  0.27736938057E+03  0.67577391456E+03  0.12500000000E+03 0.  0.
         21    1    1    2  503  502  0.29415967591E+03 -0.52686022377E+03  0.13386409229E+04  0.14683566088E+04  0.00000000000E+00 0. -1.
<mgrwt>
<rscale>  3 0.61622773E+03</rscale>
<asrwt>0</asrwt>
<pdfrwt beam="1">  1       21 0.28924159E+00 0.61622773E+03</pdfrwt>
<pdfrwt beam="2">  1       21 0.40624633E-01 0.61622773E+03</pdfrwt>
<totfact> 0.16560490E+02</totfact>
</mgrwt>
</event>
<event>
 4    0  0.1724404E-001  0.3252339E+03  0.7546771E-02  0.1073265E+00
         21   -1    0    0  502  501  0.00000000000E+00  0.00000000000E+00  0.45312604337E+03  0.45312604337E+03  0.00000000000E+00 0. -1.
         21   -1    0    0  503  502 -0.00000000000E+00 -0.00000000000E+00 -0.81305719219E+03  0.81305719219E+03  0.00000000000E+00 0.  1.
         25    1    1    2    0    0  0.25495684670E+03  0.15858469016E+03 -0.72434341457E+03  0.79400911825E+03  0.12500000000E+03 0.  0.
         21    1    1    2  503  501 -0.25495684670E+03 -0.15858469016E+03  0.36441226575E+03  0.47217411731E+03  0.00000000000E+00 0. -1.
<mgrwt>
<rscale>  3 0.32523391E+03</rscale>
<asrwt>0</asrwt>
<pdfrwt beam="1">  1       21 0.69711700E-01 0.32523391E+03</pdfrwt>
<pdfrwt beam="2">  1       21 0.12508572E+00 0.32523391E+03</pdfrwt>
<totfact> 0.80048028E+02</totfact>
</mgrwt>
</event>
<event>
 4    0  0.1011306E-001  0.2443347E+03  0.7546771E-02  0.1116938E+00
         21   -1    0    0  502  501  0.00000000000E+00  0.00000000000E+00  0.12969111971E+04  0.12969111971E+04  0.00000000000E+00 0.  1.
         21   -1    0    0  503  502 -0.00000000000E+00 -0.00000000000E+00 -0.55456105866E+03  0.55456105866E+03  0.00000000000E+00 0.  1.
         25    1    1    2    0    0  0.20930858645E+03 -0.16259409539E+02 -0.51854122867E+03  0.57322286992E+03  0.12500000000E+03 0.  0.
         21    1    1    2  503  501 -0.20930858645E+03  0.16259409539E+02  0.12608913672E+04  0.12782493859E+04  0.00000000000E+00 0.  1.
<mgrwt>
<rscale>  3 0.24433471E+03</rscale>
<asrwt>0</asrwt>
<pdfrwt beam="1">  1       21 0.19952480E+00 0.24433471E+03</pdfrwt>
<pdfrwt beam="2">  1       21 0.85317086E-01 0.24433471E+03</pdfrwt>
<totfact> 0.15072170E+02</totfact>
</mgrwt>
</event>
<event>
 4    0  0.1445251E-001  0.3609388E+03  0.7546771E-02  0.1058213E+00
         21   -1    0    0  502  501  0.00000000000E+00  0.00000000000E+00  0.11755786381E+03  0.11755786381E+03  0.00000000000E+00 0.  1.
         21   -1    0    0  503  502 -0.00000000000E+00 -0.00000000000E+00 -0.12523251614E+04  0.12523251614E+04  0.00000000000E+00 0.  1.
         25    1    1    2    0    0  0.29415313071E+03  0.16770729757E+03 -0.86390021616E+03  0.93626939790E+03  0.12500000000E+03 0.  0.
         21    1    1    2  503  501 -0.29415313071E+03 -0.16770729757E+03 -0.27086708139E+03  0.43361362726E+03  0.00000000000E+00 0.  1.
<mgrwt>
<rscale>  3 0.36093878E+03</rscale>
<asrwt>0</asrwt>
<pdfrwt beam="1">  1       21 0.18085824E-01 0.36093878E+03</pdfrwt>
<pdfrwt beam="2">  1       21 0.19266542E+00 0.36093878E+03</pdfrwt>
<totfact> 0.37152660E+03</totfact>
</mgrwt>
</event>
<event>
 4    0  0.1396554E-001  0.2442977E+03  0.7546771E-02  0.1116963E+00
         21   -1    0    0  503  501  0.00000000000E+00  0.00000000000E+00  0.10590632871E+04  0.10590632871E+04  0.00000000000E+00 0. -1.
         21   -1    0    0  501  502 -0.00000000000E+00 -0.00000000000E+00 -0.50283963705E+02  0.50283963705E+02  0.00000000000E+00 0. -1.
         25    1    1    2    0    0 -0.14091026456E+03  0.15556556148E+03  0.44311629476E+03  0.50599742812E+03  0.12500000000E+03 0.  0.
         21    1    1    2  503  502  0.14091026456E+03 -0.15556556148E+03  0.56566302866E+03  0.60334982271E+03  0.00000000000E+00 0. -1.
<mgrwt>
<rscale>  3 0.24429766E+03</rscale>
<asrwt>0</asrwt>
<pdfrwt beam="1">  1       21 0.16293280E+00 0.24429766E+03</pdfrwt>
<pdfrwt beam="2">  1       21 0.77359952E-02 0.24429766E+03</pdfrwt>
<totfact> 0.29559603E+04</totfact>
</mgrwt>
</event>
<event>
 4    0  0.1005289E-001  0.3357889E+03  0.7546771E-02  0.1068604E+00
         21   -1    0    0  503  501  0.00000000000E+00  0.00000000000E+00  0.22193617336E+04  0.22193617336E+04  0.00000000000E+00 0. -1.
         21   -1    0    0  501  502 -0.00000000000E+00 -0.00000000000E+00 -0.80258187261E+02  0.80258187261E+02  0.00000000000E+00 0. -1.
         25    1    1    2    0    0  0.29207653828E+03 -0.10872207938E+03  0.35558142145E+03  0.48907294143E+03  0.12500000000E+03 0.  0.
         21    1    1    2  503  502 -0.29207653828E+03  0.10872207938E+03  0.17835221249E+04  0.18105469795E+04  0.00000000000E+00 0. -1.
<mgrwt>
<rscale>  3 0.33578891E+03</rscale>
<asrwt>0</asrwt>
<pdfrwt beam="1">  1       21 0.34144022E+00 0.33578891E+03</pdfrwt>
<pdfrwt beam="2">  1       21 0.12347415E-01 0.33578891E+03</pdfrwt>
<totfact> 0.93974593E+02</totfact>
</mgrwt>
</event>
<event>
 4    0  0.1446586E-001  0.2432507E+03  0.7546771E-02  0.1117646E+00
         21   -1    0    0  503  501  0.00000000000E+00  0.00000000000E+00  0.10336190105E+03  0.10336190105E+03  0.00000000000E+00 0.  1.
         21   -1    0    0  501  502 -0.00000000000E+00 -0.00000000000E+00 -0.68438138455E+03  0.68438138455E+03  0.00000000000E+00 0.  1.
         25    1    1    2    0    0  0.10119325748E+03 -0.18249884505E+03 -0.51385793532E+03  0.56852518106E+03  0.12500000000E+03 0.  0.
         21    1    1    2  503  502 -0.10119325748E+03  0.18249884505E+03 -0.67161548175E+02  0.21921810454E+03  0.00000000000E+00 0.  1.
<mgrwt>
<rscale>  3 0.24325070E+03</rscale>
<asrwt>0</asrwt>
<pdfrwt beam="1">  1       21 0.15901831E-01 0.24325070E+03</pdfrwt>
<pdfrwt beam="2">  1       21 0.10528944E+00 0.24325070E+03</pdfrwt>
<totfact> 0.24887961E+04</totfact>
</mgrwt>
</event>
<event>
 4    0  0.1005289E-001  0.2537019E+03  0.7546771E-02  0.1110987E+00
         21   -1    0    0  502  501  0.00000000000E+00  0.00000000000E+00  0.64897946796E+03  0.64897946796E+03  0.00000000000E+00 0.  1.
         21   -1    0    0  503  502 -0.00000000000E+00 -0.00000000000E+00 -0.88125944594E+02  0.88125944594E+02  0.00000000000E+00 0. -1.
         25    1    1    2    0    0  0.20680216720E+03  0.77282045193E+02  0.25317832632E+03  0.35841863203E+03  0.12500000000E+03 0.  0.
         21    1    1    2  503  501 -0.20680216720E+03 -0.77282045193E+02  0.30767519704E+03  0.37868678052E+03  0.00000000000E+00 0.  1.
<mgrwt>
<rscale>  3 0.25370189E+03</rscale>
<asrwt>0</asrwt>
<pdfrwt beam="1">  1       21 0.99842992E-01 0.25370189E+03</pdfrwt>
<pdfrwt beam="2">  1       21 0.13557838E-01 0.25370189E+03</pdfrwt>
<totfact> 0.37677977E+04</totfact>
</mgrwt>
</event>
<event>
 4    0  0.1511838E-001  0.2522925E+03  0.7546771E-02  0.1111865E+00
         21   -1    0    0  502  501  0.00000000000E+00  0.00000000000E+00  0.15284833759E+03  0.15284833759E+03  0.00000000000E+00 0. -1.
         21   -1    0    0  503  502 -0.00000000000E+00 -0.00000000000E+00 -0.11518607346E+04  0.11518607346E+04  0.00000000000E+00 0.  1.
         25    1    1    2    0    0 -0.53209336775E+02  0.21259179490E+03 -0.10498509665E+04  0.10797400412E+04  0.12500000000E+03 0.  0.
         21    1    1    2  503  501  0.53209336775E+02 -0.21259179490E+03  0.50838569423E+02  0.22496903103E+03  0.00000000000E+00 0. -1.
<mgrwt>
<rscale>  3 0.25229250E+03</rscale>
<asrwt>0</asrwt>
<pdfrwt beam="1">  1       21 0.23515129E-01 0.25229250E+03</pdfrwt>
<pdfrwt beam="2">  1       21 0.17720934E+00 0.25229250E+03</pdfrwt>
<totfact> 0.30777052E+03</totfact>
</mgrwt>
</event>
<event>
 4    0  0.1241847E-001  0.2796691E+03  0.7546771E-02  0.1095870E+00
         21   -1    0    0  503  501  0.00000000000E+00  0.00000000000E+00  0.13794614710E+03  0.13794614710E+03  0.00000000000E+00 0. -1.
         21   -1    0    0  501  502 -0.00000000000E+00 -0.00000000000E+00 -0.88968065196E+03  0.88968065196E+03  0.00000000000E+00 0. -1.
         25    1    1    2    0    0  0.10997291728E+02  0.24993769305E+03 -0.72372787524E+03  0.77588454568E+03  0.12500000000E+03 0.  0.
         21    1    1    2  503  502 -0.10997291728E+02 -0.24993769305E+03 -0.28006629616E+02  0.25174225338E+03  0.00000000000E+00 0. -1.
<mgrwt>
<rscale>  3 0.27966907E+03</rscale>
<asrwt>0</asrwt>
<pdfrwt beam="1">  1       21 0.21222485E-01 0.27966907E+03</pdfrwt>
<pdfrwt beam="2">  1       21 0.13687394E+00 0.27966907E+03</pdfrwt>
<totfact> 0.73973589E+03</totfact>
</mgrwt>
</event>
<event>
 4    0  0.1391775E-001  0.2641562E+03  0.7546771E-02  0.1104672E+00
         21   -1    0    0  502  501  0.00000000000E+00  0.00000000000E+00  0.15928400266E+03  0.15928400266E+03  0.00000000000E+00 0.  1.
         21   -1    0    0  503  502 -0.00000000000E+00 -0.00000000000E+00 -0.56262856575E+03  0.56262856575E+03  0.00000000000E+00 0.  1.
         25    1    1    2    0    0  0.20433895005E+03 -0.11135123833E+03 -0.41158112395E+03  0.48905779452E+03  0.12500000000E+03 0.  0.
         21    1    1    2  503  501 -0.20433895005E+03  0.11135123833E+03  0.82365608600E+01  0.23285477388E+03  0.00000000000E+00 0.  1.
<mgrwt>
<rscale>  3 0.26415621E+03</rscale>
<asrwt>0</asrwt>
<pdfrwt beam="1">  1       21 0.24505231E-01 0.26415621E+03</pdfrwt>
<pdfrwt beam="2">  1       21 0.86558240E-01 0.26415621E+03</pdfrwt>
<totfact> 0.17383697E+04</totfact>
</mgrwt>
</event>
<event>
 4    0  0.1005289E-001  0.4320653E+03  0.7546771E-02  0.1033210E+00
         21   -1    0    0  503  501  0.00000000000E+00  0.00000000000E+00  0.20055696009E+04  0.20055696009E+04  0.00000000000E+00 0. -1.
         21   -1    0    0  501  502 -0.00000000000E+00 -0.00000000000E+00 -0.19912325352E+03  0.19912325352E+03  0.00000000000E+00 0.  1.
         25    1    1    2    0    0 -0.38704309847E+03  0.14578427067E+03  0.92899372407E+02  0.44193970974E+03  0.12500000000E+03 0.  0.
         21    1    1    2  503  502  0.38704309847E+03 -0.14578427067E+03  0.17135469750E+04  0.17627531447E+04  0.00000000000E+00 0. -1.
<mgrwt>
<rscale>  3 0.43206529E+03</rscale>
<asrwt>0</asrwt>
<pdfrwt beam="1">  1       21 0.30854915E+00 0.43206529E+03</pdfrwt>
<pdfrwt beam="2">  1       21 0.30634348E-01 0.43206529E+03</pdfrwt>
<totfact> 0.24724482E+02</totfact>
</mgrwt>
</event>
<event>
 4    0  0.1116651E-001  0.2855937E+03  0.7546771E-02  0.1092672E+00
         21   -1    0    0  503  501  0.00000000000E+00  0.00000000000E+00  0.10853956312E+03  0.10853956312E+03  0.00000000000E+00 0. -1.
         21   -1    0    0  501  502 -0.00000000000E+00 -0.00000000000E+00 -0.12404295156E+04  0.12404295156E+04  0.00000000000E+00 0. -1.
         25    1    1    2    0    0 -0.25624625425E+03 -0.16632171725E+02 -0.10363576279E+04  0.10749887929E+04  0.12500000000E+03 0.  0.
         21    1    1    2  503  502  0.25624625425E+03  0.16632171725E+02 -0.95532324507E+02  0.27398028575E+03  0.00000000000E+00 0. -1.
<mgrwt>
<rscale>  3 0.28559372E+03</rscale>
<asrwt>0</asrwt>
<pdfrwt beam="1">  1       21 0.16698394E-01 0.28559372E+03</pdfrwt>
<pdfrwt beam="2">  1       21 0.19083531E+00 0.28559372E+03</pdfrwt>
<totfact> 0.46253002E+03</totfact>
</mgrwt>
</event>
<event>
 4    0  0.1283290E-001  0.2416798E+03  0.7546771E-02  0.1118679E+00
         21   -1    0    0  502  501  0.00000000000E+00  0.00000000000E+00  0.29724210343E+03  0.29724210343E+03  0.00000000000E+00 0.  1.
         21   -1    0    0  503  502 -0.00000000000E+00 -0.00000000000E+00 -0.19261211741E+03  0.19261211741E+03  0.00000000000E+00 0.  1.
         25    1    1    2    0    0 -0.17803270334E+03 -0.10530184623E+03  0.14105030597E+03  0.27982907477E+03  0.12500000000E+03 0.  0.
         21    1    1    2  503  501  0.17803270334E+03  0.10530184623E+03 -0.36420319949E+02  0.21002514607E+03  0.00000000000E+00 0.  1.
<mgrwt>
<rscale>  3 0.24167979E+03</rscale>
<asrwt>0</asrwt>
<pdfrwt beam="1">  1       21 0.45729554E-01 0.24167979E+03</pdfrwt>
<pdfrwt beam="2">  1       21 0.29632633E-01 0.24167979E+03</pdfrwt>
<totfact> 0.48937251E+04</totfact>
</mgrwt>
</event>
<event>
 4    0  0.1159034E-001  0.3183404E+03  0.7546771E-02  0.1076416E+00
         21   -1    0    0  502  501  0.00000000000E+00  0.00000000000E+00  0.60291416519E+03  0.60291416519E+03  0.00000000000E+00 0.  1.
         21   -1    0    0  503  502 -0.00000000000E+00 -0.00000000000E+00 -0.28428379796E+03  0.28428379796E+03  0.00000000000E+00 0.  1.
         25    1    1    2    0    0  0.23623128310E+03 -0.17294621933E+03 -0.13622644443E+03  0.34626327853E+03  0.12500000000E+03 0.  0.
         21    1    1    2  503  501 -0.23623128310E+03  0.17294621933E+03  0.45485681166E+03  0.54093468461E+03  0.00000000000E+00 0.  1.
<mgrwt>
<rscale>  3 0.31834041E+03</rscale>
<asrwt>0</asrwt>
<pdfrwt beam="1">  1       21 0.92756025E-01 0.31834041E+03</pdfrwt>
<pdfrwt beam="2">  1       21 0.43735969E-01 0.31834041E+03</pdfrwt>
<totfact> 0.45478325E+03</totfact>
</mgrwt>
</event>
<event>
 4    0  0.1005289E-001  0.2625142E+03  0.7546771E-02  0.1105642E+00
         21   -1    0    0  502  501  0.00000000000E+00  0.00000000000E+00  0.10186181343E+04  0.10186181343E+04  0.00000000000E+00 0.  1.
         21   -1    0    0  503  502 -0.00000000000E+00 -0.00000000000E+00 -0.69683726532E+02  0.69683726532E+02  0.00000000000E+00 0. -1.
         25    1    1    2    0    0 -0.22603970220E+03 -0.46848053316E+02  0.29536807415E+03  0.39516577066E+03  0.12500000000E+03 0.  0.
         21    1    1    2  503  501  0.22603970220E+03  0.46848053316E+02  0.65356633362E+03  0.69313609018E+03  0.00000000000E+00 0.  1.
<mgrwt>
<rscale>  3 0.26251417E+03</rscale>
<asrwt>0</asrwt>
<pdfrwt beam="1">  1       21 0.15671047E+00 0.26251417E+03</pdfrwt>
<pdfrwt beam="2">  1       21 0.10720574E-01 0.26251417E+03</pdfrwt>
<totfact> 0.18293454E+04</totfact>
</mgrwt>
</event>
<event>
 4    0  0.1791440E-001  0.2621357E+03  0.7546771E-02  0.1105867E+00
         21   -1    0    0  502  501  0.00000000000E+00  0.00000000000E+00  0.43787023070E+03  0.43787023070E+03  0.00000000000E+00 0. -1.
         21   -1    0    0  503  502 -0.00000000000E+00 -0.00000000000E+00 -0.15037450377E+03  0.15037450377E+03  0.00000000000E+00 0. -1.
         25    1    1    2    0    0 -0.21813179885E+03  0.74220265868E+02  0.69830463393E+02  0.27127739153E+03  0.12500000000E+03 0.  0.
         21    1    1    2  503  501  0.21813179885E+03 -0.74220265868E+02  0.21766526354E+03  0.31696734294E+03  0.00000000000E+00 0. -1.
<mgrwt>
<rscale>  3 0.26213571E+03</rscale>
<asrwt>0</asrwt>
<pdfrwt beam="1">  1       21 0.67364650E-01 0.26213571E+03</pdfrwt>
<pdfrwt beam="2">  1       21 0.23134539E-01 0.26213571E+03</pdfrwt>
<totfact> 0.34230670E+04</totfact>
</mgrwt>
</event>
<event>
 4    0  0.1246930E-001  0.4366034E+03  0.7546771E-02  0.1031794E+00
         21   -1    0    0  503  501  0.00000000000E+00  0.00000000000E+00  0.11686044421E+03  0.11686044421E+03  0.00000000000E+00 0. -1.
         21   -1    0    0  501  502 -0.00000000000E+00 -0.00000000000E+00 -0.17286856847E+04  0.17286856847E+04  0.00000000000E+00 0. -1.
         25    1    1    2    0    0  0.41137372343E+03 -0.75955024543E+02 -0.11065731879E+04  0.11895909912E+04  0.12500000000E+03 0.  0.
         21    1    1    2  503  502 -0.41137372343E+03  0.75955024543E+02 -0.50525205256E+03  0.65595513772E+03  0.00000000000E+00 0. -1.
<mgrwt>
<rscale>  3 0.43660337E+03</rscale>
<asrwt>0</asrwt>
<pdfrwt beam="1">  1       21 0.17978531E-01 0.43660337E+03</pdfrwt>
<pdfrwt beam="2">  1       21 0.26595162E+00 0.43660337E+03</pdfrwt>
<totfact> 0.12468312E+03</totfact>
</mgrwt>
</event>
<event>
 4    0  0.1005289E-001  0.4538770E+03  0.7546771E-02  0.1026572E+00
         21   -1    0    0  503  501  0.00000000000E+00  0.00000000000E+00  0.27942564166E+04  0.27942564166E+04  0.00000000000E+00 0.  1.
         21   -1    0    0  501  502 -0.00000000000E+00 -0.00000000000E+00 -0.68784358021E+03  0.68784358021E+03  0.00000000000E+00 0. -1.
         25    1    1    2    0    0 -0.32998748093E+03 -0.28546025035E+03 -0.59349935829E+03  0.74715847074E+03  0.12500000000E+03 0.  0.
         21    1    1    2  503  502  0.32998748093E+03  0.28546025035E+03  0.26999121947E+04  0.27349415261E+04  0.00000000000E+00 0.  1.
<mgrwt>
<rscale>  3 0.45387696E+03</rscale>
<asrwt>0</asrwt>
<pdfrwt beam="1">  1       21 0.42988559E+00 0.45387696E+03</pdfrwt>
<pdfrwt beam="2">  1       21 0.10582209E+00 0.45387696E+03</pdfrwt>
<totfact> 0.28087141E+00</totfact>
</mgrwt>
</event>
<event>
 4    0  0.1343738E-001  0.3225332E+03  0.7546771E-02  0.1074489E+00
         21   -1    0    0  503  501  0.00000000000E+00  0.00000000000E+00  0.12122623867E+04  0.12122623867E+04  0.00000000000E+00 0. -1.
         21   -1    0    0  501  502 -0.00000000000E+00 -0.00000000000E+00 -0.81586819373E+02  0.81586819373E+02  0.00000000000E+00 0. -1.
         25    1    1    2    0    0 -0.10345874878E+03 -0.27874530666E+03  0.47796976914E+03  0.57661317961E+03  0.12500000000E+03 0.  0.
         21    1    1    2  503  502  0.10345874878E+03  0.27874530666E+03  0.65270579823E+03  0.71723602651E+03  0.00000000000E+00 0. -1.
<mgrwt>
<rscale>  3 0.32253319E+03</rscale>
<asrwt>0</asrwt>
<pdfrwt beam="1">  1       21 0.18650189E+00 0.32253319E+03</pdfrwt>
<pdfrwt beam="2">  1       21 0.12551819E-01 0.32253319E+03</pdfrwt>
<totfact> 0.81818647E+03</totfact>
</mgrwt>
</event>
<event>
 4    0  0.1560053E-001  0.2687176E+03  0.7546771E-02  0.1102016E+00
         21   -1    0    0  503  501  0.00000000000E+00  0.00000000000E+00  0.50527656663E+03  0.50527656663E+03  0.00000000000E+00 0.  1.
         21   -1    0    0  501  502 -0.00000000000E+00 -0.00000000000E+00 -0.12724246046E+03  0.12724246046E+03  0.00000000000E+00 0.  1.
         25    1    1    2    0    0 -0.14455075380E+03 -0.18891587637E+03  0.18609864975E+03  0.32686669486E+03  0.12500000000E+03 0.  0.
         21    1    1    2  503  502  0.14455075380E+03  0.18891587637E+03  0.19193545642E+03  0.30565233223E+03  0.00000000000E+00 0.  1.
<mgrwt>
<rscale>  3 0.26871756E+03</rscale>
<asrwt>0</asrwt>
<pdfrwt beam="1">  1       21 0.77734855E-01 0.26871756E+03</pdfrwt>
<pdfrwt beam="2">  1       21 0.19575763E-01 0.26871756E+03</pdfrwt>
<totfact> 0.33999018E+04</totfact>
</mgrwt>
</event>
<event>
 4    0  0.1243352E-001  0.3022613E+03  0.7546771E-02  0.1084116E+00
         21   -1    0    0  502  501  0.00000000000E+00  0.00000000000E+00  0.88551458529E+03  0.88551458529E+03  0.00000000000E+00 0. -1.
         21   -1    0    0  503  502 -0.00000000000E+00 -0.00000000000E+00 -0.99611081667E+02  0.99611081667E+02  0.00000000000E+00 0. -1.
         25    1    1    2    0    0 -0.14323291807E+03  0.23499203133E+03  0.52562244243E+03  0.60633396375E+03  0.12500000000E+03 0.  0.
         21    1    1    2  503  501  0.14323291807E+03 -0.23499203133E+03  0.26028106119E+03  0.37879170321E+03  0.00000000000E+00 0. -1.
<mgrwt>
<rscale>  3 0.30226135E+03</rscale>
<asrwt>0</asrwt>
<pdfrwt beam="1">  1       21 0.13623301E+00 0.30226135E+03</pdfrwt>
<pdfrwt beam="2">  1       21 0.15324782E-01 0.30226135E+03</pdfrwt>
<totfact> 0.13601499E+04</totfact>
</mgrwt>
</event>
<event>
 4    0  0.1657637E-001  0.2656268E+03  0.7546771E-02  0.1103809E+00
         21   -1    0    0  502  501  0.00000000000E+00  0.00000000000E+00  0.15499867054E+04  0.15499867054E+04  0.00000000000E+00 0. -1.
         21   -1    0    0  503  502 -0.00000000000E+00 -0.00000000000E+00 -0.49127910288E+03  0.49127910288E+03  0.00000000000E+00 0.  1.
         25    1    1    2    0    0  0.38410014661E+02 -0.23120831955E+03 -0.44562403355E+03  0.51878550051E+03  0.12500000000E+03 0.  0.
         21    1    1    2  503  501 -0.38410014661E+02  0.23120831955E+03  0.15043316361E+04  0.15224803078E+04  0.00000000000E+00 0. -1.
<mgrwt>
<rscale>  3 0.26562684E+03</rscale>
<asrwt>0</asrwt>
<pdfrwt beam="1">  1       21 0.23845949E+00 0.26562684E+03</pdfrwt>
<pdfrwt beam="2">  1       21 0.75581401E-01 0.26562684E+03</pdfrwt>
<totfact> 0.11083880E+02</totfact>
</mgrwt>
</event>
<event>
 4    0  0.1234765E-001  0.2400181E+03  0.7546771E-02  0.1119781E+00
         21   -1    0    0  502  501  0.00000000000E+00  0.00000000000E+00  0.49232658638E+02  0.49232658638E+02  0.00000000000E+00 0. -1.
         21   -1    0    0  503  502 -0.00000000000E+00 -0.00000000000E+00 -0.11324446129E+04  0.11324446129E+04  0.00000000000E+00 0. -1.
         25    1    1    2    0    0  0.77070738541E+02 -0.18985204509E+03 -0.77706928259E+03  0.81329291631E+03  0.12500000000E+03 0.  0.
         21    1    1    2  503  501 -0.77070738541E+02  0.18985204509E+03 -0.30614267167E+03  0.36838435523E+03  0.00000000000E+00 0. -1.
<mgrwt>
<rscale>  3 0.24001812E+03</rscale>
<asrwt>0</asrwt>
<pdfrwt beam="1">  1       21 0.75742556E-02 0.24001812E+03</pdfrwt>
<pdfrwt beam="2">  1       21 0.17422224E+00 0.24001812E+03</pdfrwt>
<totfact> 0.25533554E+04</totfact>
</mgrwt>
</event>
<event>
 4    0  0.1451185E-001  0.2839557E+03  0.7546771E-02  0.1093548E+00
         21   -1    0    0  502  501  0.00000000000E+00  0.00000000000E+00  0.27750418363E+03  0.27750418363E+03  0.00000000000E+00 0. -1.
         21   -1    0    0  503  502 -0.00000000000E+00 -0.00000000000E+00 -0.41235830170E+03  0.41235830170E+03  0.00000000000E+00 0. -1.
         25    1    1    2    0    0  0.45050045343E+02 -0.25095086381E+03 -0.27806683733E+03  0.39743176603E+03  0.12500000000E+03 0.  0.
         21    1    1    2  503  501 -0.45050045343E+02  0.25095086381E+03  0.14321271926E+03  0.29243071930E+03  0.00000000000E+00 0. -1.
<mgrwt>
<rscale>  3 0.28395571E+03</rscale>
<asrwt>0</asrwt>
<pdfrwt beam="1">  1       21 0.42692952E-01 0.28395571E+03</pdfrwt>
<pdfrwt beam="2">  1       21 0.63439738E-01 0.28395571E+03</pdfrwt>
<totfact> 0.11514147E+04</totfact>
</mgrwt>
</event>
<event>
 4    0  0.1463987E-001  0.2405992E+03  0.7546771E-02  0.1119394E+00
         21   -1    0    0  503  501  0.00000000000E+00  0.00000000000E+00  0.10093658890E+03  0.10093658890E+03  0.00000000000E+00 0. -1.
         21   -1    0    0  501  502 -0.00000000000E+00 -0.00000000000E+00 -0.53864349149E+03  0.53864349149E+03  0.00000000000E+00 0. -1.
         25    1    1    2    0    0 -0.15812599968E+03  0.13137410483E+03 -0.32733263328E+03  0.40624455690E+03  0.12500000000E+03 0.  0.
         21    1    1    2  503  502  0.15812599968E+03 -0.13137410483E+03 -0.11037426931E+03  0.23333552349E+03  0.00000000000E+00 0. -1.
<mgrwt>
<rscale>  3 0.24059923E+03</rscale>
<asrwt>0</asrwt>
<pdfrwt beam="1">  1       21 0.15528706E-01 0.24059923E+03</pdfrwt>
<pdfrwt beam="2">  1       21 0.82868228E-01 0.24059923E+03</pdfrwt>
<totfact> 0.45706899E+04</totfact>
</mgrwt>
</event>
<event>
 4    0  0.1559104E-001  0.2616565E+03  0.7546771E-02  0.1106152E+00
         21   -1    0    0  502  501  0.00000000000E+00  0.00000000000E+00  0.44242715973E+03  0.44242715973E+03  0.00000000000E+00 0.  1.
         21   -1    0    0  503  502 -0.00000000000E+00 -0.00000000000E+00 -0.17659741278E+03  0.17659741278E+03  0.00000000000E+00 0.  1.
         25    1    1    2    0    0 -0.22465266988E+03  0.48685873986E+02 -0.76530183730E+01  0.26176841883E+03  0.12500000000E+03 0.  0.
         21    1    1    2  503  501  0.22465266988E+03 -0.48685873986E+02  0.27348276533E+03  0.35725615368E+03  0.00000000000E+00 0.  1.
<mgrwt>
<rscale>  3 0.26165652E+03</rscale>
<asrwt>0</asrwt>
<pdfrwt beam="1">  1       21 0.68065716E-01 0.26165652E+03</pdfrwt>
<pdfrwt beam="2">  1       21 0.27168833E-01 0.26165652E+03</pdfrwt>
<totfact> 0.24562782E+04</totfact>
</mgrwt>
</event>
<event>
 4    0  0.1614970E-001  0.2956106E+03  0.7546771E-02  0.1087456E+00
         21   -1    0    0  503  501  0.00000000000E+00  0.00000000000E+00  0.17148799461E+03  0.17148799461E+03  0.00000000000E+00 0.  1.
         21   -1    0    0  501  502 -0.00000000000E+00 -0.00000000000E+00 -0.46303638974E+03  0.46303638974E+03  0.00000000000E+00 0.  1.
         25    1    1    2    0    0 -0.17255790206E+03 -0.20490098596E+03 -0.15848423945E+03  0.33541451633E+03  0.12500000000E+03 0.  0.
         21    1    1    2  503  502  0.17255790206E+03  0.20490098596E+03 -0.13306415569E+03  0.29910986801E+03  0.00000000000E+00 0.  1.
<mgrwt>
<rscale>  3 0.29561063E+03</rscale>
<asrwt>0</asrwt>
<pdfrwt beam="1">  1       21 0.26382769E-01 0.29561063E+03</pdfrwt>
<pdfrwt beam="2">  1       21 0.71236366E-01 0.29561063E+03</pdfrwt>
<totfact> 0.23166674E+04</totfact>
</mgrwt>
</event>
<event>
 4    0  0.1191984E-001  0.2599535E+03  0.7546771E-02  0.1107171E+00
         21   -1    0    0  503  501  0.00000000000E+00  0.00000000000E+00  0.24068189868E+03  0.24068189868E+03  0.00000000000E+00 0. -1.
         21   -1    0    0  501  502 -0.00000000000E+00 -0.00000000000E+00 -0.59561941639E+03  0.59561941639E+03  0.00000000000E+00 0. -1.
         25    1    1    2    0    0  0.15994538880E+03 -0.16238314329E+03 -0.50181426177E+03  0.56514897677E+03  0.12500000000E+03 0.  0.
         21    1    1    2  503  502 -0.15994538880E+03  0.16238314329E+03  0.14687674406E+03  0.27115233830E+03  0.00000000000E+00 0. -1.
<mgrwt>
<rscale>  3 0.25995348E+03</rscale>
<asrwt>0</asrwt>
<pdfrwt beam="1">  1       21 0.37027985E-01 0.25995348E+03</pdfrwt>
<pdfrwt beam="2">  1       21 0.91633756E-01 0.25995348E+03</pdfrwt>
<totfact> 0.67797601E+03</totfact>
</mgrwt>
</event>
<event>
 4    0  0.1005289E-001  0.3054589E+03  0.7546771E-02  0.1082543E+00
         21   -1    0    0  502  501  0.00000000000E+00  0.00000000000E+00  0.71444792220E+03  0.71444792220E+03  0.00000000000E+00 0.  1.
         21   -1    0    0  503  502 -0.00000000000E+00 -0.00000000000E+00 -0.12094940623E+03  0.12094940623E+03  0.00000000000E+00 0. -1.
         25    1    1    2    0    0 -0.48248825013E+02  0.27450357536E+03  0.35720468201E+03  0.47000036899E+03  0.12500000000E+03 0.  0.
         21    1    1    2  503  501  0.48248825013E+02 -0.27450357536E+03  0.23629383396E+03  0.36539695944E+03  0.00000000000E+00 0.  1.
<mgrwt>
<rscale>  3 0.30545894E+03</rscale>
<asrwt>0</asrwt>
<pdfrwt beam="1">  1       21 0.10991506E+00 0.30545894E+03</pdfrwt>
<pdfrwt beam="2">  1       21 0.18607601E-01 0.30545894E+03</pdfrwt>
<totfact> 0.16272039E+04</totfact>
</mgrwt>
</event>
<event>
 4    0  0.1005289E-001  0.2604834E+03  0.7546771E-02  0.1106853E+00
         21   -1    0    0  503  501  0.00000000000E+00  0.00000000000E+00  0.87224872804E+02  0.87224872804E+02  0.00000000000E+00 0. -1.
         21   -1    0    0  501  502 -0.00000000000E+00 -0.00000000000E+00 -0.12718850251E+04  0.12718850251E+04  0.00000000000E+00 0.  1.
         25    1    1    2    0    0  0.13042109657E+03  0.18766182298E+03 -0.10741100888E+04  0.11052439120E+04  0.12500000000E+03 0.  0.
         21    1    1    2  503  502 -0.13042109657E+03 -0.18766182298E+03 -0.11055006348E+03  0.25386598585E+03  0.00000000000E+00 0. -1.
<mgrwt>
<rscale>  3 0.26048344E+03</rscale>
<asrwt>0</asrwt>
<pdfrwt beam="1">  1       21 0.13419212E-01 0.26048344E+03</pdfrwt>
<pdfrwt beam="2">  1       21 0.19567461E+00 0.26048344E+03</pdfrwt>
<totfact> 0.65213621E+03</totfact>
</mgrwt>
</event>
<event>
 4    0  0.1232272E-001  0.2788681E+03  0.7546771E-02  0.1096309E+00
         21   -1    0    0  503  501  0.00000000000E+00  0.00000000000E+00  0.39743306536E+03  0.39743306536E+03  0.00000000000E+00 0. -1.
         21   -1    0    0  501  502 -0.00000000000E+00 -0.00000000000E+00 -0.49763287806E+03  0.49763287806E+03  0.00000000000E+00 0. -1.
         25    1    1    2    0    0 -0.12018184446E+03 -0.21840036224E+03 -0.41097995021E+03  0.49666076294E+03  0.12500000000E+03 0.  0.
         21    1    1    2  503  502  0.12018184446E+03  0.21840036224E+03  0.31078013751E+03  0.39840518048E+03  0.00000000000E+00 0. -1.
<mgrwt>
<rscale>  3 0.27886806E+03</rscale>
<asrwt>0</asrwt>
<pdfrwt beam="1">  1       21 0.61143549E-01 0.27886806E+03</pdfrwt>
<pdfrwt beam="2">  1       21 0.76558904E-01 0.27886806E+03</pdfrwt>
<totfact> 0.35571502E+03</totfact>
</mgrwt>
</event>
<event>
 4    0  0.1343899E-001  0.2449347E+03  0.7546771E-02  0.1116548E+00
         21   -1    0    0  502  501  0.00000000000E+00  0.00000000000E+00  0.40051540626E+03  0.40051540626E+03  0.00000000000E+00 0.  1.
         21   -1    0    0  503  502 -0.00000000000E+00 -0.00000000000E+00 -0.37908082820E+03  0.37908082820E+03  0.00000000000E+00 0.  1.
         25    1    1    2    0    0  0.21055717751E+03  0.58019222256E+01 -0.30495504980E+03  0.39114008961E+03  0.12500000000E+03 0.  0.
         21    1    1    2  503  501 -0.21055717751E+03 -0.58019222256E+01  0.32638962786E+03  0.38845614485E+03  0.00000000000E+00 0.  1.
<mgrwt>
<rscale>  3 0.24493466E+03</rscale>
<asrwt>0</asrwt>
<pdfrwt beam="1">  1       21 0.61617755E-01 0.24493466E+03</pdfrwt>
<pdfrwt beam="2">  1       21 0.58320128E-01 0.24493466E+03</pdfrwt>
<totfact> 0.65032607E+03</totfact>
</mgrwt>
</event>
<event>
 4    0  0.1520496E-001  0.2478383E+03  0.7546771E-02  0.1114679E+00
         21   -1    0    0  502  501  0.00000000000E+00  0.00000000000E+00  0.28023466384E+03  0.28023466384E+03  0.00000000000E+00 0. -1.
         21   -1    0    0  503  502 -0.00000000000E+00 -0.00000000000E+00 -0.47384341060E+03  0.47384341060E+03  0.00000000000E+00 0.  1.
         25    1    1    2    0    0 -0.12566098564E+03  0.17322862644E+03 -0.39100523554E+03  0.46293512996E+03  0.12500000000E+03 0.  0.
         21    1    1    2  503  501  0.12566098564E+03 -0.17322862644E+03  0.19739648879E+03  0.29114294447E+03  0.00000000000E+00 0. -1.
<mgrwt>
<rscale>  3 0.24783834E+03</rscale>
<asrwt>0</asrwt>
<pdfrwt beam="1">  1       21 0.43113026E-01 0.24783834E+03</pdfrwt>
<pdfrwt beam="2">  1       21 0.72898985E-01 0.24783834E+03</pdfrwt>
<totfact> 0.84546215E+03</totfact>
</mgrwt>
</event>
<event>
 4    0  0.1005289E-001  0.3313098E+03  0.7546771E-02  0.1070559E+00
         21   -1    0    0  502  501  0.00000000000E+00  0.00000000000E+00  0.48603830104E+02  0.48603830104E+02  0.00000000000E+00 0.  1.
         21   -1    0    0  503  502 -0.00000000000E+00 -0.00000000000E+00 -0.28575281453E+04  0.28575281453E+04  0.00000000000E+00 0. -1.
         25    1    1    2    0    0 -0.62363455161E+02 -0.30041965080E+03 -0.21943894111E+04  0.22192591229E+04  0.12500000000E+03 0.  0.
         21    1    1    2  503  501  0.62363455161E+02  0.30041965080E+03 -0.61453490410E+03  0.68687285248E+03  0.00000000000E+00 0.  1.
<mgrwt>
<rscale>  3 0.33130978E+03</rscale>
<asrwt>0</asrwt>
<pdfrwt beam="1">  1       21 0.74775139E-02 0.33130978E+03</pdfrwt>
<pdfrwt beam="2">  1       21 0.43961962E+00 0.33130978E+03</pdfrwt>
<totfact> 0.55506355E+02</totfact>
</mgrwt>
</event>
<event>
 4    0  0.1005289E-001  0.2809085E+03  0.7546771E-02  0.1095194E+00
         21   -1    0    0  502  501  0.00000000000E+00  0.00000000000E+00  0.18078051013E+04  0.18078051013E+04  0.00000000000E+00 0. -1.
         21   -1    0    0  503  502 -0.00000000000E+00 -0.00000000000E+00 -0.48573419773E+02  0.48573419773E+02  0.00000000000E+00 0.  1.
         25    1    1    2    0    0 -0.19658717349E+03 -0.15696514881E+03  0.51169300055E+03  0.58372879108E+03  0.12500000000E+03 0.  0.
         21    1    1    2  503  501  0.19658717349E+03  0.15696514881E+03  0.12475386810E+04  0.12726497300E+04  0.00000000000E+00 0. -1.
<mgrwt>
<rscale>  3 0.28090848E+03</rscale>
<asrwt>0</asrwt>
<pdfrwt beam="1">  1       21 0.27812381E+00 0.28090848E+03</pdfrwt>
<pdfrwt beam="2">  1       21 0.74728352E-02 0.28090848E+03</pdfrwt>
<totfact> 0.56897572E+03</totfact>
</mgrwt>
</event>
<event>
 4    0  0.1576472E-001  0.2608301E+03  0.7546771E-02  0.1106646E+00
         21   -1    0    0  502  501  0.00000000000E+00  0.00000000000E+00  0.27058708765E+03  0.27058708765E+03  0.00000000000E+00 0. -1.
         21   -1    0    0  503  502 -0.00000000000E+00 -0.00000000000E+00 -0.28066101444E+03  0.28066101444E+03  0.00000000000E+00 0. -1.
         25    1    1    2    0    0  0.22381611199E+03 -0.48100796444E+02 -0.13150876992E+03  0.29210767736E+03  0.12500000000E+03 0.  0.
         21    1    1    2  503  501 -0.22381611199E+03  0.48100796444E+02  0.12143484313E+03  0.25914042473E+03  0.00000000000E+00 0. -1.
<mgrwt>
<rscale>  3 0.26083010E+03</rscale>
<asrwt>0</asrwt>
<pdfrwt beam="1">  1       21 0.41628783E-01 0.26083010E+03</pdfrwt>
<pdfrwt beam="2">  1       21 0.43178618E-01 0.26083010E+03</pdfrwt>
<totfact> 0.27695637E+04</totfact>
</mgrwt>
</event>
<event>
 4    0  0.1005289E-001  0.4028774E+03  0.7546771E-02  0.1042788E+00
         21   -1    0    0  502  501  0.00000000000E+00  0.00000000000E+00  0.74190777273E+02  0.74190777273E+02  0.00000000000E+00 0.  1.
         21   -1    0    0  503  502 -0.00000000000E+00 -0.00000000000E+00 -0.33260570494E+04  0.33260570494E+04  0.00000000000E+00 0.  1.
         25    1    1    2    0    0  0.33822389772E+03 -0.17969372082E+03 -0.26916032644E+04  0.27215874727E+04  0.12500000000E+03 0.  0.
         21    1    1    2  503  501 -0.33822389772E+03  0.17969372082E+03 -0.56026300763E+03  0.67866035394E+03  0.00000000000E+00 0.  1.
<mgrwt>
<rscale>  3 0.40287745E+03</rscale>
<asrwt>0</asrwt>
<pdfrwt beam="1">  1       21 0.11413965E-01 0.40287745E+03</pdfrwt>
<pdfrwt beam="2">  1       21 0.51170111E+00 0.40287745E+03</pdfrwt>
<totfact> 0.77707903E+01</totfact>
</mgrwt>
</event>
<event>
 4    0  0.1443378E-001  0.4273052E+03  0.7546771E-02  0.1034715E+00
         21   -1    0    0  503  501  0.00000000000E+00  0.00000000000E+00  0.34946713528E+03  0.34946713528E+03  0.00000000000E+00 0. -1.
         21   -1    0    0  501  502 -0.00000000000E+00 -0.00000000000E+00 -0.53469952890E+03  0.53469952890E+03  0.00000000000E+00 0. -1.
         25    1    1    2    0    0 -0.33951572477E+03 -0.22736268919E+03 -0.20734749405E+03  0.47495547485E+03  0.12500000000E+03 0.  0.
         21    1    1    2  503  502  0.33951572477E+03  0.22736268919E+03  0.22115100430E+02  0.40921118932E+03  0.00000000000E+00 0. -1.
<mgrwt>
<rscale>  3 0.42730518E+03</rscale>
<asrwt>0</asrwt>
<pdfrwt beam="1">  1       21 0.53764175E-01 0.42730518E+03</pdfrwt>
<pdfrwt beam="2">  1       21 0.82261466E-01 0.42730518E+03</pdfrwt>
<totfact> 0.37239290E+03</totfact>
</mgrwt>
</event>
<event>
 4    0  0.1005289E-001  0.3568160E+03  0.7546771E-02  0.1059852E+00
         21   -1    0    0  502  501  0.00000000000E+00  0.00000000000E+00  0.10449457663E+04  0.10449457663E+04  0.00000000000E+00 0. -1.
         21   -1    0    0  503  502 -0.00000000000E+00 -0.00000000000E+00 -0.12309700586E+03  0.12309700586E+03  0.00000000000E+00 0.  1.
         25    1    1    2    0    0 -0.19843029706E+03 -0.26892017113E+03  0.31836613659E+03  0.47819937072E+03  0.12500000000E+03 0.  0.
         21    1    1    2  503  501  0.19843029706E+03  0.26892017113E+03  0.60348262387E+03  0.68984340146E+03  0.00000000000E+00 0. -1.
<mgrwt>
<rscale>  3 0.35681598E+03</rscale>
<asrwt>0</asrwt>
<pdfrwt beam="1">  1       21 0.16076088E+00 0.35681598E+03</pdfrwt>
<pdfrwt beam="2">  1       21 0.18938002E-01 0.35681598E+03</pdfrwt>
<totfact> 0.57391827E+03</totfact>
</mgrwt>
</event>
<event>
 4    0  0.1724910E-001  0.2729337E+03  0.7546771E-02  0.1099612E+00
         21   -1    0    0  503  501  0.00000000000E+00  0.00000000000E+00  0.21781671709E+03  0.21781671709E+03  0.00000000000E+00 0.  1.
         21   -1    0    0  501  502 -0.00000000000E+00 -0.00000000000E+00 -0.32861215088E+03  0.32861215088E+03  0.00000000000E+00 0.  1.
         25    1    1    2    0    0 -0.15166377707E+02  0.24215237738E+03 -0.13142238950E+03  0.30292678546E+03  0.12500000000E+03 0.  0.
         21    1    1    2  503  502  0.15166377707E+02 -0.24215237738E+03  0.20626955711E+02  0.24350208251E+03  0.00000000000E+00 0.  1.
<mgrwt>
<rscale>  3 0.27293368E+03</rscale>
<asrwt>0</asrwt>
<pdfrwt beam="1">  1       21 0.33510264E-01 0.27293368E+03</pdfrwt>
<pdfrwt beam="2">  1       21 0.50555716E-01 0.27293368E+03</pdfrwt>
<totfact> 0.30742090E+04</totfact>
</mgrwt>
</event>
<event>
 4    0  0.1005614E-001  0.2584292E+03  0.7546771E-02  0.1108091E+00
         21   -1    0    0  503  501  0.00000000000E+00  0.00000000000E+00  0.38924492086E+02  0.38924492086E+02  0.00000000000E+00 0. -1.
         21   -1    0    0  501  502 -0.00000000000E+00 -0.00000000000E+00 -0.19053961502E+04  0.19053961502E+04  0.00000000000E+00 0. -1.
         25    1    1    2    0    0  0.21740177894E+02 -0.22514002759E+03 -0.14253659983E+04  0.14486041200E+04  0.12500000000E+03 0.  0.
         21    1    1    2  503  502 -0.21740177894E+02  0.22514002759E+03 -0.44110565984E+03  0.49571652232E+03  0.00000000000E+00 0. -1.
<mgrwt>
<rscale>  3 0.25842923E+03</rscale>
<asrwt>0</asrwt>
<pdfrwt beam="1">  1       21 0.59883839E-02 0.25842923E+03</pdfrwt>
<pdfrwt beam="2">  1       21 0.29313784E+00 0.25842923E+03</pdfrwt>
<totfact> 0.69448087E+03</totfact>
</mgrwt>
</event>
<event>
 4    0  0.1005289E-001  0.2520158E+03  0.7546771E-02  0.1112037E+00
         21   -1    0    0  503  501  0.00000000000E+00  0.00000000000E+00  0.85040735666E+02  0.85040735666E+02  0.00000000000E+00 0.  1.
         21   -1    0    0  501  502 -0.00000000000E+00 -0.00000000000E+00 -0.26690162971E+04  0.26690162971E+04  0.00000000000E+00 0.  1.
         25    1    1    2    0    0  0.60859717193E+02 -0.21019766948E+03 -0.25106516765E+04  0.25232684769E+04  0.12500000000E+03 0.  0.
         21    1    1    2  503  502 -0.60859717193E+02  0.21019766948E+03 -0.73323884865E+02  0.23078855587E+03  0.00000000000E+00 0.  1.
<mgrwt>
<rscale>  3 0.25201580E+03</rscale>
<asrwt>0</asrwt>
<pdfrwt beam="1">  1       21 0.13083187E-01 0.25201580E+03</pdfrwt>
<pdfrwt beam="2">  1       21 0.41061798E+00 0.25201580E+03</pdfrwt>
<totfact> 0.34441140E+02</totfact>
</mgrwt>
</event>
<event>
 4    0  0.1259786E-001  0.2894427E+03  0.7546771E-02  0.1090640E+00
         21   -1    0    0  502  501  0.00000000000E+00  0.00000000000E+00  0.46681678259E+03  0.46681678259E+03  0.00000000000E+00 0. -1.
         21   -1    0    0  503  502 -0.00000000000E+00 -0.00000000000E+00 -0.36883522676E+03  0.36883522676E+03  0.00000000000E+00 0. -1.
         25    1    1    2    0    0  0.11577023725E+03  0.23398570996E+03 -0.26237968173E+03  0.39066629965E+03  0.12500000000E+03 0.  0.
         21    1    1    2  503  501 -0.11577023725E+03 -0.23398570996E+03  0.36036123757E+03  0.44498570970E+03  0.00000000000E+00 0. -1.
<mgrwt>
<rscale>  3 0.28944267E+03</rscale>
<asrwt>0</asrwt>
<pdfrwt beam="1">  1       21 0.71817967E-01 0.28944267E+03</pdfrwt>
<pdfrwt beam="2">  1       21 0.56743881E-01 0.28944267E+03</pdfrwt>
<totfact> 0.47991508E+03</totfact>
</mgrwt>
</event>
<event>
 4    0  0.1384104E-001  0.2390843E+03  0.7546771E-02  0.1120404E+00
         21   -1    0    0  503  501  0.00000000000E+00  0.00000000000E+00  0.10943775690E+03  0.10943775690E+03  0.00000000000E+00 0. -1.
         21   -1    0    0  501  502 -0.00000000000E+00 -0.00000000000E+00 -0.51242800894E+03  0.51242800894E+03  0.00000000000E+00 0. -1.
         25    1    1    2    0    0  0.68195140399E+02 -0.19205654965E+03 -0.32540228056E+03  0.40379195092E+03  0.12500000000E+03 0.  0.
         21    1    1    2  503  502 -0.68195140399E+02  0.19205654965E+03 -0.77587971475E+02  0.21807381492E+03  0.00000000000E+00 0. -1.
<mgrwt>
<rscale>  3 0.23908429E+03</rscale>
<asrwt>0</asrwt>
<pdfrwt beam="1">  1       21 0.16836578E-01 0.23908429E+03</pdfrwt>
<pdfrwt beam="2">  1       21 0.78835079E-01 0.23908429E+03</pdfrwt>
<totfact> 0.44153071E+04</totfact>
</mgrwt>
</event>
<event>
 4    0  0.1116543E-001  0.2464671E+03  0.7546771E-02  0.1115558E+00
         21   -1    0    0  503  501  0.00000000000E+00  0.00000000000E+00  0.14672102718E+03  0.14672102718E+03  0.00000000000E+00 0. -1.
         21   -1    0    0  501  502 -0.00000000000E+00 -0.00000000000E+00 -0.65520535763E+03  0.65520535763E+03  0.00000000000E+00 0.  1.
         25    1    1    2    0    0 -0.90468239771E+02 -0.19218881030E+03 -0.53385186014E+03  0.58799987226E+03  0.12500000000E+03 0.  0.
         21    1    1    2  503  502  0.90468239771E+02  0.19218881030E+03  0.25367529687E+02  0.21392651255E+03  0.00000000000E+00 0. -1.
<mgrwt>
<rscale>  3 0.24646712E+03</rscale>
<asrwt>0</asrwt>
<pdfrwt beam="1">  1       21 0.22572465E-01 0.24646712E+03</pdfrwt>
<pdfrwt beam="2">  1       21 0.10080083E+00 0.24646712E+03</pdfrwt>
<totfact> 0.14339289E+04</totfact>
</mgrwt>
</event>
<event>
 4    0  0.1556646E-001  0.2425598E+03  0.7546771E-02  0.1118099E+00
         21   -1    0    0  503  501  0.00000000000E+00  0.00000000000E+00  0.26254403813E+03  0.26254403813E+03  0.00000000000E+00 0.  1.
         21   -1    0    0  501  502 -0.00000000000E+00 -0.00000000000E+00 -0.19496127349E+03  0.19496127349E+03  0.00000000000E+00 0.  1.
         25    1    1    2    0    0  0.20784011966E+03  0.35677187120E+01  0.14654471216E+02  0.24300205243E+03  0.12500000000E+03 0.  0.
         21    1    1    2  503  502 -0.20784011966E+03 -0.35677187120E+01  0.52928293419E+02  0.21450325919E+03  0.00000000000E+00 0.  1.
<mgrwt>
<rscale>  3 0.24255977E+03</rscale>
<asrwt>0</asrwt>
<pdfrwt beam="1">  1       21 0.40391391E-01 0.24255977E+03</pdfrwt>
<pdfrwt beam="2">  1       21 0.29994042E-01 0.24255977E+03</pdfrwt>
<totfact> 0.61631638E+04</totfact>
</mgrwt>
</event>
<event>
 4    0  0.1477036E-001  0.2387376E+03  0.7546771E-02  0.1120637E+00
         21   -1    0    0  503  501  0.00000000000E+00  0.00000000000E+00  0.11196976860E+03  0.11196976860E+03  0.00000000000E+00 0.  1.
         21   -1    0    0  501  502 -0.00000000000E+00 -0.00000000000E+00 -0.43912549303E+03  0.43912549303E+03  0.00000000000E+00 0.  1.
         25    1    1    2    0    0  0.18684983831E+03  0.80360168125E+02 -0.15519405492E+03  0.28474692866E+03  0.12500000000E+03 0.  0.
         21    1    1    2  503  502 -0.18684983831E+03 -0.80360168125E+02 -0.17196166950E+03  0.26634833297E+03  0.00000000000E+00 0.  1.
<mgrwt>
<rscale>  3 0.23873755E+03</rscale>
<asrwt>0</asrwt>
<pdfrwt beam="1">  1       21 0.17226118E-01 0.23873755E+03</pdfrwt>
<pdfrwt beam="2">  1       21 0.67557768E-01 0.23873755E+03</pdfrwt>
<totfact> 0.59767483E+04</totfact>
</mgrwt>
</event>
<event>
 4    0  0.1037107E-001  0.3037907E+03  0.7546771E-02  0.1083361E+00
         21   -1    0    0  502  501  0.00000000000E+00  0.00000000000E+00  0.19076097898E+04  0.19076097898E+04  0.00000000000E+00 0.  1.
         21   -1    0    0  503  502 -0.00000000000E+00 -0.00000000000E+00 -0.78581165721E+02  0.78581165721E+02  0.00000000000E+00 0.  1.
         25    1    1    2    0    0  0.13617093391E+03  0.24108351727E+03  0.28174743275E+03  0.41433127013E+03  0.12500000000E+03 0.  0.
         21    1    1    2  503  501 -0.13617093391E+03 -0.24108351727E+03  0.15472811913E+04  0.15718596854E+04  0.00000000000E+00 0.  1.
<mgrwt>
<rscale>  3 0.30379069E+03</rscale>
<asrwt>0</asrwt>
<pdfrwt beam="1">  1       21 0.29347839E+00 0.30379069E+03</pdfrwt>
<pdfrwt beam="2">  1       21 0.12089412E-01 0.30379069E+03</pdfrwt>
<totfact> 0.19311889E+03</totfact>
</mgrwt>
</event>
<event>
 4    0  0.1005289E-001  0.2679823E+03  0.7546771E-02  0.1102440E+00
         21   -1    0    0  502  501  0.00000000000E+00  0.00000000000E+00  0.83695591585E+02  0.83695591585E+02  0.00000000000E+00 0.  1.
         21   -1    0    0  503  502 -0.00000000000E+00 -0.00000000000E+00 -0.76964844144E+03  0.76964844144E+03  0.00000000000E+00 0. -1.
         25    1    1    2    0    0 -0.65137428588E+01  0.23695379333E+03 -0.40666888422E+03  0.48702578003E+03  0.12500000000E+03 0.  0.
         21    1    1    2  503  501  0.65137428588E+01 -0.23695379333E+03 -0.27928396563E+03  0.36631825300E+03  0.00000000000E+00 0.  1.
<mgrwt>
<rscale>  3 0.26798233E+03</rscale>
<asrwt>0</asrwt>
<pdfrwt beam="1">  1       21 0.12876245E-01 0.26798233E+03</pdfrwt>
<pdfrwt beam="2">  1       21 0.11840745E+00 0.26798233E+03</pdfrwt>
<totfact> 0.27132228E+04</totfact>
</mgrwt>
</event>
<event>
 4    0  0.1219866E-001  0.2530272E+03  0.7546771E-02  0.1111406E+00
         21   -1    0    0  503  501  0.00000000000E+00  0.00000000000E+00  0.10107056490E+03  0.10107056490E+03  0.00000000000E+00 0.  1.
         21   -1    0    0  501  502 -0.00000000000E+00 -0.00000000000E+00 -0.98553333507E+03  0.98553333507E+03  0.00000000000E+00 0.  1.
         25    1    1    2    0    0  0.16664513548E+03  0.14362164654E+03 -0.81882159695E+03  0.85702484571E+03  0.12500000000E+03 0.  0.
         21    1    1    2  503  502 -0.16664513548E+03 -0.14362164654E+03 -0.65641173228E+02  0.22957905427E+03  0.00000000000E+00 0.  1.
<mgrwt>
<rscale>  3 0.25302723E+03</rscale>
<asrwt>0</asrwt>
<pdfrwt beam="1">  1       21 0.15549318E-01 0.25302723E+03</pdfrwt>
<pdfrwt beam="2">  1       21 0.15162051E+00 0.25302723E+03</pdfrwt>
<totfact> 0.10246071E+04</totfact>
</mgrwt>
</event>
<event>
 4    0  0.1008693E-001  0.3301051E+03  0.7546771E-02  0.1071090E+00
         21   -1    0    0  503  501  0.00000000000E+00  0.00000000000E+00  0.70172093422E+02  0.70172093422E+02  0.00000000000E+00 0. -1.
         21   -1    0    0  501  502 -0.00000000000E+00 -0.00000000000E+00 -0.17632202808E+04  0.17632202808E+04  0.00000000000E+00 0. -1.
         25    1    1    2    0    0 -0.17500653812E+03 -0.25043379776E+03 -0.12658566732E+04  0.13081905414E+04  0.12500000000E+03 0.  0.
         21    1    1    2  503  502  0.17500653812E+03  0.25043379776E+03 -0.42719151418E+03  0.52520183285E+03  0.00000000000E+00 0. -1.
<mgrwt>
<rscale>  3 0.33010510E+03</rscale>
<asrwt>0</asrwt>
<pdfrwt beam="1">  1       21 0.10795707E-01 0.33010510E+03</pdfrwt>
<pdfrwt beam="2">  1       21 0.27126464E+00 0.33010510E+03</pdfrwt>
<totfact> 0.31464147E+03</totfact>
</mgrwt>
</event>
