<event>
 5    0  0.1943430E+001  0.2684410E+03  0.7546771E-02  0.1102175E+00
         21   -1    0    0  503  501  0.00000000000E+00  0.00000000000E+00  0.80845645218E+02  0.80845645218E+02  0.00000000000E+00 0.  1.
         21   -1    0    0  504  502 -0.00000000000E+00 -0.00000000000E+00 -0.12537147155E+04  0.12537147155E+04  0.00000000000E+00 0.  1.
         25    1    1    2    0    0  0.21297654138E+03  0.63022901097E+02 -0.51582191268E+03  0.57535044872E+03  0.12500000000E+03 0.  0.
         21    1    1    2  503  502 -0.23863936519E+03 -0.60114098041E+02 -0.24811069168E+03  0.34945867671E+03  0.00000000000E+00 0.  1.
         21    1    1    2  504  501  0.25662823817E+02 -0.29088030559E+01 -0.40893646595E+03  0.40975123531E+03  0.00000000000E+00 0.  1.
<mgrwt>
<rscale>  4 0.26844105E+03</rscale>
<asrwt>0</asrwt>
<pdfrwt beam="1">  1       21 0.12437792E-01 0.26844105E+03</pdfrwt>
<pdfrwt beam="2">  1       21 0.19287917E+00 0.26844105E+03</pdfrwt>
<totfact> 0.77690784E+03</totfact>
</mgrwt>
</event>
<event>
 5    0  0.1943430E+001  0.2169890E+03  0.7546771E-02  0.1136148E+00
         21   -1    0    0  504  501  0.00000000000E+00  0.00000000000E+00  0.23217464602E+03  0.23217464602E+03  0.00000000000E+00 0.  1.
         21   -1    0    0  503  502 -0.00000000000E+00 -0.00000000000E+00 -0.59835688001E+03  0.59835688001E+03  0.00000000000E+00 0.  1.
         25    1    1    2    0    0  0.21036434185E+03 -0.10117046638E+03 -0.41288864801E+03  0.49050041309E+03  0.12500000000E+03 0.  0.
         21    1    1    2  503  501 -0.17277016531E+03  0.13429310152E+02  0.12736372851E+03  0.21506137666E+03  0.00000000000E+00 0.  1.
         21    1    1    2  504  502 -0.37594176539E+02  0.87741156224E+02 -0.80657314492E+02  0.12496973628E+03  0.00000000000E+00 0.  1.
<mgrwt>
<rscale>  4 0.21698897E+03</rscale>
<asrwt>0</asrwt>
<pdfrwt beam="1">  1       21 0.35719177E-01 0.21698897E+03</pdfrwt>
<pdfrwt beam="2">  1       21 0.92054902E-01 0.21698897E+03</pdfrwt>
<totfact> 0.74043882E+03</totfact>
</mgrwt>
</event>
<event>
 5    0  0.1943430E+001  0.3718770E+03  0.7546771E-02  0.1053978E+00
         21   -1    0    0  504  501  0.00000000000E+00  0.00000000000E+00  0.11941520254E+04  0.11941520254E+04  0.00000000000E+00 0. -1.
         21   -1    0    0  503  502 -0.00000000000E+00 -0.00000000000E+00 -0.13596056641E+03  0.13596056641E+03  0.00000000000E+00 0. -1.
         25    1    1    2    0    0  0.33021476733E+03  0.35581177568E+01  0.54325347231E+03  0.64792267127E+03  0.12500000000E+03 0.  0.
         21    1    1    2  503  501 -0.37355713523E+03  0.24227994756E+02  0.50680681542E+03  0.63006751794E+03  0.00000000000E+00 0. -1.
         21    1    1    2  504  502  0.43342367896E+02 -0.27786112513E+02  0.81311712111E+01  0.52122402561E+02  0.00000000000E+00 0. -1.
<mgrwt>
<rscale>  4 0.37187699E+03</rscale>
<asrwt>0</asrwt>
<pdfrwt beam="1">  1       21 0.18371569E+00 0.37187699E+03</pdfrwt>
<pdfrwt beam="2">  1       21 0.20917011E-01 0.37187699E+03</pdfrwt>
<totfact> 0.32306113E+03</totfact>
</mgrwt>
</event>
<event>
 5    0  0.1943430E+001  0.7500491E+03  0.7546771E-02  0.9635273E-01
         21   -1    0    0  504  501  0.00000000000E+00  0.00000000000E+00  0.37417849962E+03  0.37417849962E+03  0.00000000000E+00 0. -1.
         21   -1    0    0  503  502 -0.00000000000E+00 -0.00000000000E+00 -0.17759641708E+04  0.17759641708E+04  0.00000000000E+00 0. -1.
         25    1    1    2    0    0  0.73658825316E+03 -0.66230185476E+02 -0.11240791684E+04  0.13513429132E+04  0.12500000000E+03 0.  0.
         21    1    1    2  503  501 -0.70911499345E+03  0.59345142243E+02 -0.23863308918E+03  0.75054091900E+03  0.00000000000E+00 0. -1.
         21    1    1    2  504  502 -0.27473259713E+02  0.68850432322E+01 -0.39073413598E+02  0.48258838255E+02  0.00000000000E+00 0.  1.
<mgrwt>
<rscale>  4 0.75004913E+03</rscale>
<asrwt>0</asrwt>
<pdfrwt beam="1">  1       21 0.57565924E-01 0.75004913E+03</pdfrwt>
<pdfrwt beam="2">  1       21 0.27322525E+00 0.75004913E+03</pdfrwt>
<totfact> 0.93607022E+01</totfact>
</mgrwt>
</event>
<event>
 5    0  0.1943430E+001  0.2438810E+03  0.7546771E-02  0.1117234E+00
         21   -1    0    0  503  501  0.00000000000E+00  0.00000000000E+00  0.11627498354E+04  0.11627498354E+04  0.00000000000E+00 0.  1.
         21   -1    0    0  504  502 -0.00000000000E+00 -0.00000000000E+00 -0.21181366386E+03  0.21181366386E+03  0.00000000000E+00 0. -1.
         25    1    1    2    0    0  0.20777902234E+03 -0.10321098229E+02  0.10571185894E+04  0.10846212976E+04  0.12500000000E+03 0.  0.
         21    1    1    2  503  502  0.19937598633E+02  0.35378048418E+02 -0.13203184250E+02  0.42701735602E+02  0.00000000000E+00 0.  1.
         21    1    1    2  504  501 -0.22771662098E+03 -0.25056950189E+02 -0.92979233531E+02  0.24724046613E+03  0.00000000000E+00 0. -1.
<mgrwt>
<rscale>  4 0.24388096E+03</rscale>
<asrwt>0</asrwt>
<pdfrwt beam="1">  1       21 0.17888459E+00 0.24388096E+03</pdfrwt>
<pdfrwt beam="2">  1       21 0.32586718E-01 0.24388096E+03</pdfrwt>
<totfact> 0.16000261E+03</totfact>
</mgrwt>
</event>
<event>
 5    0  0.1943430E+001  0.2653726E+03  0.7546771E-02  0.1103958E+00
         21   -1    0    0  503  501  0.00000000000E+00  0.00000000000E+00  0.22179947197E+03  0.22179947197E+03  0.00000000000E+00 0. -1.
         21   -1    0    0  504  502 -0.00000000000E+00 -0.00000000000E+00 -0.10564334572E+04  0.10564334572E+04  0.00000000000E+00 0. -1.
         25    1    1    2    0    0  0.13878917336E+03 -0.17664266484E+03  0.90918378081E+02  0.27268336428E+03  0.12500000000E+03 0.  0.
         21    1    1    2  503  502  0.56835968551E+02 -0.59247615395E+02 -0.26384928040E+03  0.27632779451E+03  0.00000000000E+00 0. -1.
         21    1    1    2  504  501 -0.19562514191E+03  0.23589028023E+03 -0.66170308295E+03  0.72922177041E+03  0.00000000000E+00 0. -1.
<mgrwt>
<rscale>  4 0.26537263E+03</rscale>
<asrwt>0</asrwt>
<pdfrwt beam="1">  1       21 0.34122996E-01 0.26537263E+03</pdfrwt>
<pdfrwt beam="2">  1       21 0.16252822E+00 0.26537263E+03</pdfrwt>
<totfact> 0.18768367E+03</totfact>
</mgrwt>
</event>
<event>
 5    0  0.1943430E+001  0.2200398E+03  0.7546771E-02  0.1133853E+00
         21   -1    0    0  504  501  0.00000000000E+00  0.00000000000E+00  0.35477282939E+03  0.35477282939E+03  0.00000000000E+00 0. -1.
         21   -1    0    0  503  502 -0.00000000000E+00 -0.00000000000E+00 -0.32160983961E+03  0.32160983961E+03  0.00000000000E+00 0.  1.
         25    1    1    2    0    0 -0.16227200826E+02 -0.23504226821E+03 -0.32186223138E+02  0.26864315150E+03  0.12500000000E+03 0.  0.
         21    1    1    2  503  501  0.68972179461E+01  0.16955419970E+03  0.19723874682E+03  0.26019093278E+03  0.00000000000E+00 0. -1.
         21    1    1    2  504  502  0.93299828801E+01  0.65488068502E+02 -0.13188953391E+03  0.14754858472E+03  0.00000000000E+00 0.  1.
<mgrwt>
<rscale>  4 0.22003979E+03</rscale>
<asrwt>0</asrwt>
<pdfrwt beam="1">  1       21 0.54580435E-01 0.22003979E+03</pdfrwt>
<pdfrwt beam="2">  1       21 0.49478437E-01 0.22003979E+03</pdfrwt>
<totfact> 0.12130818E+04</totfact>
</mgrwt>
</event>
<event>
 5    0  0.1943430E+001  0.3275749E+03  0.7546771E-02  0.1072215E+00
         21   -1    0    0  503  501  0.00000000000E+00  0.00000000000E+00  0.19910085114E+03  0.19910085114E+03  0.00000000000E+00 0. -1.
         21   -1    0    0  504  502 -0.00000000000E+00 -0.00000000000E+00 -0.62868998803E+03  0.62868998803E+03  0.00000000000E+00 0. -1.
         25    1    1    2    0    0  0.66351387952E+02  0.30016457465E+03 -0.72651618982E+02  0.33971243177E+03  0.12500000000E+03 0.  0.
         21    1    1    2  503  502  0.29249426255E+02 -0.20203647706E+02 -0.54021924221E+02  0.64669039064E+02  0.00000000000E+00 0. -1.
         21    1    1    2  504  501 -0.95600814207E+02 -0.27996092695E+03 -0.30291559369E+03  0.42340936833E+03  0.00000000000E+00 0. -1.
<mgrwt>
<rscale>  4 0.32757490E+03</rscale>
<asrwt>0</asrwt>
<pdfrwt beam="1">  1       21 0.30630900E-01 0.32757490E+03</pdfrwt>
<pdfrwt beam="2">  1       21 0.96721536E-01 0.32757490E+03</pdfrwt>
<totfact> 0.84243137E+03</totfact>
</mgrwt>
</event>
<event>
 5    0  0.1943430E+001  0.3486730E+03  0.7546771E-02  0.1063161E+00
         21   -1    0    0  504  501  0.00000000000E+00  0.00000000000E+00  0.24049374176E+03  0.24049374176E+03  0.00000000000E+00 0.  1.
         21   -1    0    0  501  502 -0.00000000000E+00 -0.00000000000E+00 -0.74400210681E+03  0.74400210681E+03  0.00000000000E+00 0.  1.
         25    1    1    2    0    0 -0.25918095291E+03  0.22190867211E+03 -0.32896886980E+03  0.49016705561E+03  0.12500000000E+03 0.  0.
         21    1    1    2  503  502 -0.49985121741E+02 -0.11881223352E+03 -0.91319530989E+02  0.15796871833E+03  0.00000000000E+00 0.  1.
         21    1    1    2  504  503  0.30916607465E+03 -0.10309643858E+03 -0.83219964253E+02  0.33636007464E+03  0.00000000000E+00 0.  1.
<mgrwt>
<rscale>  4 0.34867302E+03</rscale>
<asrwt>0</asrwt>
<pdfrwt beam="1">  1       21 0.36999037E-01 0.34867302E+03</pdfrwt>
<pdfrwt beam="2">  1       21 0.11446186E+00 0.34867302E+03</pdfrwt>
<totfact> 0.37916633E+03</totfact>
</mgrwt>
</event>
