<event>
 5    0  0.1911311E+001  0.2102777E+03  0.7546771E-02  0.1141346E+00
         21   -1    0    0  504  501  0.00000000000E+00  0.00000000000E+00  0.77604550736E+02  0.77604550736E+02  0.00000000000E+00 0.  1.
         21   -1    0    0  503  502 -0.00000000000E+00 -0.00000000000E+00 -0.11346858721E+04  0.11346858721E+04  0.00000000000E+00 0.  1.
         25    1    1    2    0    0 -0.20022306652E+03  0.68439458988E+02 -0.24391720553E+03  0.34625689750E+03  0.12500000000E+03 0.  0.
         21    1    1    2  503  501  0.14249339284E+03 -0.78294884514E+02 -0.78386403285E+03  0.80054811095E+03  0.00000000000E+00 0.  1.
         21    1    1    2  504  502  0.57729673680E+02  0.98554255254E+01 -0.29300082998E+02  0.65485414400E+02  0.00000000000E+00 0. -1.
<mgrwt>
<rscale>  4 0.21027767E+03</rscale>
<asrwt>0</asrwt>
<pdfrwt beam="1">  1       21 0.11939163E-01 0.21027767E+03</pdfrwt>
<pdfrwt beam="2">  1       21 0.17456703E+00 0.21027767E+03</pdfrwt>
<totfact> 0.11585163E+04</totfact>
</mgrwt>
</event>
<event>
 5    0  0.1911311E+001  0.2362080E+03  0.7546771E-02  0.1122345E+00
         21   -1    0    0  504  501  0.00000000000E+00  0.00000000000E+00  0.79660636788E+03  0.79660636788E+03  0.00000000000E+00 0. -1.
         21   -1    0    0  503  502 -0.00000000000E+00 -0.00000000000E+00 -0.23025252672E+03  0.23025252672E+03  0.00000000000E+00 0.  1.
         25    1    1    2    0    0 -0.11925090424E+03  0.17812544869E+03 -0.70528246516E+02  0.25797032231E+03  0.12500000000E+03 0.  0.
         21    1    1    2  503  501 -0.34542432931E+02 -0.50422106810E+02 -0.33248703788E+02  0.69577617317E+02  0.00000000000E+00 0.  1.
         21    1    1    2  504  502  0.15379333717E+03 -0.12770334188E+03  0.67013079147E+03  0.69931095498E+03  0.00000000000E+00 0. -1.
<mgrwt>
<rscale>  4 0.23620802E+03</rscale>
<asrwt>0</asrwt>
<pdfrwt beam="1">  1       21 0.12255482E+00 0.23620802E+03</pdfrwt>
<pdfrwt beam="2">  1       21 0.35423466E-01 0.23620802E+03</pdfrwt>
<totfact> 0.37208828E+03</totfact>
</mgrwt>
</event>
<event>
 5    0  0.1911311E+001  0.3034853E+03  0.7546771E-02  0.1083511E+00
         21   -1    0    0  502  501  0.00000000000E+00  0.00000000000E+00  0.63252375479E+03  0.63252375479E+03  0.00000000000E+00 0. -1.
         21   -1    0    0  504  502 -0.00000000000E+00 -0.00000000000E+00 -0.28520308917E+03  0.28520308917E+03  0.00000000000E+00 0. -1.
         25    1    1    2    0    0  0.23810245258E+03 -0.65720663556E+02  0.39473123860E+03  0.48213041210E+03  0.12500000000E+03 0.  0.
         21    1    1    2  503  501  0.23340919795E+02 -0.41369415171E+02  0.10452226382E+03  0.11480910540E+03  0.00000000000E+00 0. -1.
         21    1    1    2  504  503 -0.26144337237E+03  0.10709007873E+03 -0.15193283680E+03  0.32078732646E+03  0.00000000000E+00 0. -1.
<mgrwt>
<rscale>  4 0.30348526E+03</rscale>
<asrwt>0</asrwt>
<pdfrwt beam="1">  1       21 0.97311346E-01 0.30348526E+03</pdfrwt>
<pdfrwt beam="2">  1       21 0.43877399E-01 0.30348526E+03</pdfrwt>
<totfact> 0.40620836E+03</totfact>
</mgrwt>
</event>
