<event>
 5    0  0.2349231E+000  0.4711110E+03  0.7546771E-02  0.1021607E+00
         21   -1    0    0  502  501  0.00000000000E+00  0.00000000000E+00  0.13330242573E+03  0.13330242573E+03  0.00000000000E+00 0. -1.
         21   -1    0    0  504  502 -0.00000000000E+00 -0.00000000000E+00 -0.75511912316E+03  0.75511912316E+03  0.00000000000E+00 0. -1.
         25    1    1    2    0    0  0.15200718992E+03  0.15316712413E+03 -0.18852816419E+03  0.31262473094E+03  0.12500000000E+03 0.  0.
         21    1    1    2  503  501 -0.44271162509E+02 -0.36679220186E+02  0.44274721082E+02  0.72564123023E+02  0.00000000000E+00 0. -1.
         21    1    1    2  504  503 -0.10773602741E+03 -0.11648790394E+03 -0.47756325432E+03  0.50323269493E+03  0.00000000000E+00 0. -1.
<mgrwt>
<rscale>  4 0.47111099E+03</rscale>
<asrwt>0</asrwt>
<pdfrwt beam="1">  1       21 0.20508065E-01 0.47111099E+03</pdfrwt>
<pdfrwt beam="2">  1       21 0.11617217E+00 0.47111099E+03</pdfrwt>
<totfact> 0.11140600E+04</totfact>
</mgrwt>
</event>
<event>
 5    0  0.2349231E+000  0.4168132E+03  0.7546771E-02  0.1038109E+00
         21   -1    0    0  503  501  0.00000000000E+00  0.00000000000E+00  0.18829086784E+03  0.18829086784E+03  0.00000000000E+00 0. -1.
         21   -1    0    0  504  502 -0.00000000000E+00 -0.00000000000E+00 -0.64575384485E+03  0.64575384485E+03  0.00000000000E+00 0. -1.
         25    1    1    2    0    0 -0.19348009751E+03 -0.51846423929E+02 -0.35119015017E+03  0.42318095584E+03  0.12500000000E+03 0.  0.
         21    1    1    2  503  502  0.17628972561E+03  0.35171064313E+02 -0.22599410576E+03  0.28877050916E+03  0.00000000000E+00 0. -1.
         21    1    1    2  504  501  0.17190371902E+02  0.16675359616E+02  0.11972127892E+03  0.12209324769E+03  0.00000000000E+00 0. -1.
<mgrwt>
<rscale>  4 0.41681318E+03</rscale>
<asrwt>0</asrwt>
<pdfrwt beam="1">  1       21 0.28967825E-01 0.41681318E+03</pdfrwt>
<pdfrwt beam="2">  1       21 0.99346747E-01 0.41681318E+03</pdfrwt>
<totfact> 0.85276115E+03</totfact>
</mgrwt>
</event>
<event>
 5    0  0.2349231E+000  0.7727063E+03  0.7546771E-02  0.9600386E-01
         21   -1    0    0  502  501  0.00000000000E+00  0.00000000000E+00  0.11659495082E+04  0.11659495082E+04  0.00000000000E+00 0.  1.
         21   -1    0    0  504  502 -0.00000000000E+00 -0.00000000000E+00 -0.53921237704E+03  0.53921237704E+03  0.00000000000E+00 0.  1.
         25    1    1    2    0    0  0.81656295953E+02 -0.18467538957E+03  0.13736579274E+03  0.27434852140E+03  0.12500000000E+03 0.  0.
         21    1    1    2  503  501  0.80245387931E+02 -0.15158887251E+03  0.87647555449E+03  0.89310016581E+03  0.00000000000E+00 0.  1.
         21    1    1    2  504  503 -0.16190168388E+03  0.33626426208E+03 -0.38710421609E+03  0.53771319801E+03  0.00000000000E+00 0.  1.
<mgrwt>
<rscale>  4 0.77270625E+03</rscale>
<asrwt>0</asrwt>
<pdfrwt beam="1">  1       21 0.17937685E+00 0.77270625E+03</pdfrwt>
<pdfrwt beam="2">  1       21 0.82955750E-01 0.77270625E+03</pdfrwt>
<totfact> 0.16646250E+02</totfact>
</mgrwt>
</event>
