<event>
 5    0  0.2630041E+000  0.2784762E+03  0.7546771E-02  0.1096524E+00
         21   -1    0    0  502  501  0.00000000000E+00  0.00000000000E+00  0.79398635622E+03  0.79398635622E+03  0.00000000000E+00 0.  1.
         21   -1    0    0  503  502 -0.00000000000E+00 -0.00000000000E+00 -0.18453377495E+03  0.18453377495E+03  0.00000000000E+00 0.  1.
         25    1    1    2    0    0  0.22155119521E+03 -0.20042078766E+03  0.52967565548E+03  0.62083389423E+03  0.12500000000E+03 0.  0.
         21    1    1    2  503  504 -0.28824058063E+02  0.58324329790E+02  0.97909021474E+02  0.11755309547E+03  0.00000000000E+00 0.  1.
         21    1    1    2  504  501 -0.19272713715E+03  0.14209645787E+03 -0.18132095680E+02  0.24013314146E+03  0.00000000000E+00 0.  1.
<mgrwt>
<rscale>  4 0.27847621E+03</rscale>
<asrwt>0</asrwt>
<pdfrwt beam="1">  1       21 0.12215175E+00 0.27847621E+03</pdfrwt>
<pdfrwt beam="2">  1       21 0.28389812E-01 0.27847621E+03</pdfrwt>
<totfact> 0.56565466E+03</totfact>
</mgrwt>
</event>
<event>
 5    0  0.2509870E+000  0.2453481E+03  0.7546771E-02  0.1116280E+00
         21   -1    0    0  502  501  0.00000000000E+00  0.00000000000E+00  0.12452622904E+03  0.12452622904E+03  0.00000000000E+00 0.  1.
         21   -1    0    0  503  502 -0.00000000000E+00 -0.00000000000E+00 -0.10707843037E+04  0.10707843037E+04  0.00000000000E+00 0.  1.
         25    1    1    2    0    0  0.20607362455E+03  0.45873417580E+02 -0.21896464170E+02  0.24632329228E+03  0.12500000000E+03 0.  0.
         21    1    1    2  503  504 -0.18064161258E+03 -0.45873485386E+02 -0.75156905778E+03  0.77433314373E+03  0.00000000000E+00 0.  1.
         21    1    1    2  504  501 -0.25432011970E+02  0.67805335579E-04 -0.17279255274E+03  0.17465409677E+03  0.00000000000E+00 0.  1.
<mgrwt>
<rscale>  4 0.24534814E+03</rscale>
<asrwt>0</asrwt>
<pdfrwt beam="1">  1       21 0.19157882E-01 0.24534814E+03</pdfrwt>
<pdfrwt beam="2">  1       21 0.16473605E+00 0.24534814E+03</pdfrwt>
<totfact> 0.55846415E+03</totfact>
</mgrwt>
</event>
<event>
 5    0  0.2159162E+000  0.2895980E+03  0.7546771E-02  0.1090559E+00
         21   -1    0    0  502  501  0.00000000000E+00  0.00000000000E+00  0.15381975374E+04  0.15381975374E+04  0.00000000000E+00 0. -1.
         21   -1    0    0  503  502 -0.00000000000E+00 -0.00000000000E+00 -0.11354685508E+03  0.11354685508E+03  0.00000000000E+00 0. -1.
         25    1    1    2    0    0  0.30044946993E+03  0.22372258082E+02  0.98538291926E+03  0.10379667141E+04  0.12500000000E+03 0.  0.
         21    1    1    2  503  504 -0.14553829958E+03  0.13742238060E+03  0.25923597537E+03  0.32752037839E+03  0.00000000000E+00 0. -1.
         21    1    1    2  504  501 -0.15491117034E+03 -0.15979463868E+03  0.18003178771E+03  0.28625730005E+03  0.00000000000E+00 0. -1.
<mgrwt>
<rscale>  4 0.28959800E+03</rscale>
<asrwt>0</asrwt>
<pdfrwt beam="1">  1       21 0.23664576E+00 0.28959800E+03</pdfrwt>
<pdfrwt beam="2">  1       21 0.17468748E-01 0.28959800E+03</pdfrwt>
<totfact> 0.21685893E+03</totfact>
</mgrwt>
</event>
<event>
 5    0  0.5605637E+000  0.2690961E+03  0.7546771E-02  0.1101798E+00
         21   -1    0    0  502  501  0.00000000000E+00  0.00000000000E+00  0.11186995137E+03  0.11186995137E+03  0.00000000000E+00 0. -1.
         21   -1    0    0  503  502 -0.00000000000E+00 -0.00000000000E+00 -0.65454943294E+03  0.65454943294E+03  0.00000000000E+00 0. -1.
         25    1    1    2    0    0 -0.41672615989E+02  0.23462976389E+03 -0.17853583537E+03  0.32293618183E+03  0.12500000000E+03 0.  0.
         21    1    1    2  503  504  0.72717539963E+01 -0.51845483430E+02 -0.28140189195E+02  0.59436544367E+02  0.00000000000E+00 0.  1.
         21    1    1    2  504  501  0.34400861992E+02 -0.18278428046E+03 -0.33600345701E+03  0.38404665812E+03  0.00000000000E+00 0. -1.
<mgrwt>
<rscale>  4 0.26909614E+03</rscale>
<asrwt>0</asrwt>
<pdfrwt beam="1">  1       21 0.17210762E-01 0.26909614E+03</pdfrwt>
<pdfrwt beam="2">  1       21 0.10069991E+00 0.26909614E+03</pdfrwt>
<totfact> 0.23655938E+04</totfact>
</mgrwt>
</event>
<event>
 5    0  0.2159162E+000  0.2397651E+03  0.7546771E-02  0.1119949E+00
         21   -1    0    0  502  501  0.00000000000E+00  0.00000000000E+00  0.70283804840E+03  0.70283804840E+03  0.00000000000E+00 0. -1.
         21   -1    0    0  503  502 -0.00000000000E+00 -0.00000000000E+00 -0.82869245223E+02  0.82869245223E+02  0.00000000000E+00 0. -1.
         25    1    1    2    0    0 -0.23477933022E+02 -0.20325134291E+03  0.18888024853E+03  0.30522626037E+03  0.12500000000E+03 0.  0.
         21    1    1    2  503  504  0.22523923484E+02  0.97658302876E+02  0.15184036190E+03  0.18193396261E+03  0.00000000000E+00 0. -1.
         21    1    1    2  504  501  0.95400953876E+00  0.10559304003E+03  0.27924819276E+03  0.29854707065E+03  0.00000000000E+00 0. -1.
<mgrwt>
<rscale>  4 0.23976514E+03</rscale>
<asrwt>0</asrwt>
<pdfrwt beam="1">  1       21 0.10812893E+00 0.23976514E+03</pdfrwt>
<pdfrwt beam="2">  1       21 0.12749115E-01 0.23976514E+03</pdfrwt>
<totfact> 0.34965645E+04</totfact>
</mgrwt>
</event>
<event>
 5    0  0.2159162E+000  0.2613176E+03  0.7546771E-02  0.1106354E+00
         21   -1    0    0  502  501  0.00000000000E+00  0.00000000000E+00  0.25289449182E+03  0.25289449182E+03  0.00000000000E+00 0.  1.
         21   -1    0    0  503  502 -0.00000000000E+00 -0.00000000000E+00 -0.18429846416E+04  0.18429846416E+04  0.00000000000E+00 0.  1.
         25    1    1    2    0    0  0.48832937960E+02  0.22454763979E+03  0.17364575211E+03  0.31398112298E+03  0.12500000000E+03 0.  0.
         21    1    1    2  503  504 -0.71858939814E+02 -0.21154222050E+03 -0.16540000483E+04  0.16690206644E+04  0.00000000000E+00 0.  1.
         21    1    1    2  504  501  0.23026001854E+02 -0.13005419289E+02 -0.10973585358E+03  0.11287734606E+03  0.00000000000E+00 0.  1.
<mgrwt>
<rscale>  4 0.26131763E+03</rscale>
<asrwt>0</asrwt>
<pdfrwt beam="1">  1       21 0.38906845E-01 0.26131763E+03</pdfrwt>
<pdfrwt beam="2">  1       21 0.28353610E+00 0.26131763E+03</pdfrwt>
<totfact> 0.24782542E+02</totfact>
</mgrwt>
</event>
