<event>
 5    0  0.2159162E+000  0.3833143E+03  0.7546771E-02  0.1049716E+00
         21   -1    0    0  502  501  0.00000000000E+00  0.00000000000E+00  0.21082803662E+03  0.21082803662E+03  0.00000000000E+00 0.  1.
         21   -1    0    0  503  502 -0.00000000000E+00 -0.00000000000E+00 -0.75406081283E+03  0.75406081283E+03  0.00000000000E+00 0.  1.
         25    1    1    2    0    0  0.19968563712E+03 -0.30237471151E+03 -0.11790211388E+03  0.40103706598E+03  0.12500000000E+03 0.  0.
         21    1    1    2  503  504 -0.68482532416E+02  0.50838188606E+02 -0.80072999529E+02  0.11698745198E+03  0.00000000000E+00 0.  1.
         21    1    1    2  504  501 -0.13120310471E+03  0.25153652290E+03 -0.34525766281E+03  0.44686433150E+03  0.00000000000E+00 0.  1.
<mgrwt>
<rscale>  4 0.38331426E+03</rscale>
<asrwt>0</asrwt>
<pdfrwt beam="1">  1       21 0.32435082E-01 0.38331426E+03</pdfrwt>
<pdfrwt beam="2">  1       21 0.11600936E+00 0.38331426E+03</pdfrwt>
<totfact> 0.47085066E+03</totfact>
</mgrwt>
</event>
<event>
 5    0  0.2159162E+000  0.3325326E+03  0.7546771E-02  0.1070022E+00
         21   -1    0    0  502  501  0.00000000000E+00  0.00000000000E+00  0.16796268349E+03  0.16796268349E+03  0.00000000000E+00 0. -1.
         21   -1    0    0  503  502 -0.00000000000E+00 -0.00000000000E+00 -0.99176402774E+03  0.99176402774E+03  0.00000000000E+00 0. -1.
         25    1    1    2    0    0 -0.30538206986E+03  0.18596625654E+03 -0.53833049567E+03  0.65822973172E+03  0.12500000000E+03 0.  0.
         21    1    1    2  503  504  0.44233944632E+02 -0.13270460267E+03 -0.59263468785E+02  0.15191876829E+03  0.00000000000E+00 0. -1.
         21    1    1    2  504  501  0.26114812522E+03 -0.53261653870E+02 -0.22620737980E+03  0.34957821121E+03  0.00000000000E+00 0. -1.
<mgrwt>
<rscale>  4 0.33253261E+03</rscale>
<asrwt>0</asrwt>
<pdfrwt beam="1">  1       21 0.25840413E-01 0.33253261E+03</pdfrwt>
<pdfrwt beam="2">  1       21 0.15257908E+00 0.33253261E+03</pdfrwt>
<totfact> 0.36980537E+03</totfact>
</mgrwt>
</event>
<event>
 5    0  0.2159162E+000  0.2865645E+03  0.7546771E-02  0.1092157E+00
         21   -1    0    0  502  501  0.00000000000E+00  0.00000000000E+00  0.49898989182E+03  0.49898989182E+03  0.00000000000E+00 0. -1.
         21   -1    0    0  503  502 -0.00000000000E+00 -0.00000000000E+00 -0.23242013984E+03  0.23242013984E+03  0.00000000000E+00 0. -1.
         25    1    1    2    0    0 -0.15905786779E+03  0.20296507754E+03  0.35188943596E+03  0.45381207911E+03  0.12500000000E+03 0.  0.
         21    1    1    2  503  504  0.91395222978E+02 -0.86951492281E+02 -0.18196310630E+02  0.12745491169E+03  0.00000000000E+00 0. -1.
         21    1    1    2  504  501  0.67662644810E+02 -0.11601358526E+03 -0.67123373356E+02  0.15014304086E+03  0.00000000000E+00 0. -1.
<mgrwt>
<rscale>  4 0.28656453E+03</rscale>
<asrwt>0</asrwt>
<pdfrwt beam="1">  1       21 0.76767676E-01 0.28656453E+03</pdfrwt>
<pdfrwt beam="2">  1       21 0.35756945E-01 0.28656453E+03</pdfrwt>
<totfact> 0.10785154E+04</totfact>
</mgrwt>
</event>
<event>
 5    0  0.4015229E+000  0.2376009E+03  0.7546771E-02  0.1121401E+00
         21   -1    0    0  502  501  0.00000000000E+00  0.00000000000E+00  0.70272730172E+03  0.70272730172E+03  0.00000000000E+00 0. -1.
         21   -1    0    0  503  502 -0.00000000000E+00 -0.00000000000E+00 -0.11699495159E+03  0.11699495159E+03  0.00000000000E+00 0. -1.
         25    1    1    2    0    0 -0.14872153009E+03  0.13678851058E+03  0.56637056633E+03  0.61419036833E+03  0.12500000000E+03 0.  0.
         21    1    1    2  503  504  0.11343085688E+02 -0.20583285937E+02  0.94304809597E+01  0.25323333588E+02  0.00000000000E+00 0.  1.
         21    1    1    2  504  501  0.13737844440E+03 -0.11620522465E+03  0.99313028478E+01  0.18020855140E+03  0.00000000000E+00 0. -1.
<mgrwt>
<rscale>  4 0.23760091E+03</rscale>
<asrwt>0</asrwt>
<pdfrwt beam="1">  1       21 0.10811189E+00 0.23760091E+03</pdfrwt>
<pdfrwt beam="2">  1       21 0.17999224E-01 0.23760091E+03</pdfrwt>
<totfact> 0.18617739E+04</totfact>
</mgrwt>
</event>
<event>
 5    0  0.2159162E+000  0.2673423E+03  0.7546771E-02  0.1102810E+00
         21   -1    0    0  502  501  0.00000000000E+00  0.00000000000E+00  0.11263208869E+03  0.11263208869E+03  0.00000000000E+00 0.  1.
         21   -1    0    0  503  502 -0.00000000000E+00 -0.00000000000E+00 -0.89265755613E+03  0.89265755613E+03  0.00000000000E+00 0.  1.
         25    1    1    2    0    0 -0.16472164216E+03  0.16400673439E+03 -0.13469877539E+03  0.29631096573E+03  0.12500000000E+03 0.  0.
         21    1    1    2  503  504 -0.39198709256E+02 -0.20606464245E+02 -0.93930850866E+02  0.10384685802E+03  0.00000000000E+00 0.  1.
         21    1    1    2  504  501  0.20392035142E+03 -0.14340027014E+03 -0.55139584118E+03  0.60513182107E+03  0.00000000000E+00 0.  1.
<mgrwt>
<rscale>  4 0.26734233E+03</rscale>
<asrwt>0</asrwt>
<pdfrwt beam="1">  1       21 0.17328013E-01 0.26734233E+03</pdfrwt>
<pdfrwt beam="2">  1       21 0.13733193E+00 0.26734233E+03</pdfrwt>
<totfact> 0.10799061E+04</totfact>
</mgrwt>
</event>
<event>
 5    0  0.2159162E+000  0.3113820E+03  0.7546771E-02  0.1079685E+00
         21   -1    0    0  502  501  0.00000000000E+00  0.00000000000E+00  0.10333114584E+04  0.10333114584E+04  0.00000000000E+00 0. -1.
         21   -1    0    0  503  502 -0.00000000000E+00 -0.00000000000E+00 -0.17319132483E+03  0.17319132483E+03  0.00000000000E+00 0. -1.
         25    1    1    2    0    0  0.39469711688E+02  0.28244628788E+03  0.86114049360E+03  0.91570831240E+03  0.12500000000E+03 0.  0.
         21    1    1    2  503  504 -0.28530618748E+02 -0.21080878901E+03 -0.25613794762E+02  0.21426714217E+03  0.00000000000E+00 0. -1.
         21    1    1    2  504  501 -0.10939092940E+02 -0.71637498871E+02  0.24593434706E+02  0.76527328645E+02  0.00000000000E+00 0. -1.
<mgrwt>
<rscale>  4 0.31138202E+03</rscale>
<asrwt>0</asrwt>
<pdfrwt beam="1">  1       21 0.15897099E+00 0.31138202E+03</pdfrwt>
<pdfrwt beam="2">  1       21 0.26644820E-01 0.31138202E+03</pdfrwt>
<totfact> 0.31519195E+03</totfact>
</mgrwt>
</event>
<event>
 5    0  0.2159162E+000  0.2217566E+03  0.7546771E-02  0.1132580E+00
         21   -1    0    0  502  501  0.00000000000E+00  0.00000000000E+00  0.98815252767E+02  0.98815252767E+02  0.00000000000E+00 0. -1.
         21   -1    0    0  503  502 -0.00000000000E+00 -0.00000000000E+00 -0.69476705664E+03  0.69476705664E+03  0.00000000000E+00 0. -1.
         25    1    1    2    0    0  0.16841409641E+03 -0.13450462686E+03 -0.44890748628E+03  0.51341769910E+03  0.12500000000E+03 0.  0.
         21    1    1    2  503  504 -0.41207083636E+02  0.14462306932E+02 -0.83211945543E+02  0.93975581640E+02  0.00000000000E+00 0. -1.
         21    1    1    2  504  501 -0.12720701278E+03  0.12004231993E+03 -0.63832372053E+02  0.18618902866E+03  0.00000000000E+00 0. -1.
<mgrwt>
<rscale>  4 0.22175662E+03</rscale>
<asrwt>0</asrwt>
<pdfrwt beam="1">  1       21 0.15202347E-01 0.22175662E+03</pdfrwt>
<pdfrwt beam="2">  1       21 0.10688724E+00 0.22175662E+03</pdfrwt>
<totfact> 0.26352464E+04</totfact>
</mgrwt>
</event>
<event>
 5    0  0.2159162E+000  0.4893510E+03  0.7546771E-02  0.1016596E+00
         21   -1    0    0  502  501  0.00000000000E+00  0.00000000000E+00  0.13004523007E+04  0.13004523007E+04  0.00000000000E+00 0. -1.
         21   -1    0    0  503  502 -0.00000000000E+00 -0.00000000000E+00 -0.18821428017E+03  0.18821428017E+03  0.00000000000E+00 0. -1.
         25    1    1    2    0    0  0.17579060294E+03 -0.43924600160E+03  0.71760015321E+03  0.86857029991E+03  0.12500000000E+03 0.  0.
         21    1    1    2  503  504 -0.15958380522E+03  0.39502693051E+03  0.37970008461E+03  0.57068854989E+03  0.00000000000E+00 0. -1.
         21    1    1    2  504  501 -0.16206797718E+02  0.44219071087E+02  0.14937782758E+02  0.49407731114E+02  0.00000000000E+00 0. -1.
<mgrwt>
<rscale>  4 0.48935098E+03</rscale>
<asrwt>0</asrwt>
<pdfrwt beam="1">  1       21 0.20006958E+00 0.48935098E+03</pdfrwt>
<pdfrwt beam="2">  1       21 0.28956044E-01 0.48935098E+03</pdfrwt>
<totfact> 0.12622728E+03</totfact>
</mgrwt>
</event>
<event>
 5    0  0.4783878E+000  0.2974169E+03  0.7546771E-02  0.1086539E+00
         21   -1    0    0  502  501  0.00000000000E+00  0.00000000000E+00  0.53797105924E+03  0.53797105924E+03  0.00000000000E+00 0. -1.
         21   -1    0    0  503  502 -0.00000000000E+00 -0.00000000000E+00 -0.15414731422E+03  0.15414731422E+03  0.00000000000E+00 0. -1.
         25    1    1    2    0    0  0.22731576293E+03 -0.14546255556E+03  0.18136410623E+03  0.34835291039E+03  0.12500000000E+03 0.  0.
         21    1    1    2  503  504 -0.19922498589E+03  0.14935990544E+03  0.18753375695E+03  0.31171763882E+03  0.00000000000E+00 0. -1.
         21    1    1    2  504  501 -0.28090777036E+02 -0.38973498742E+01  0.14925881843E+02  0.32047824252E+02  0.00000000000E+00 0. -1.
<mgrwt>
<rscale>  4 0.29741690E+03</rscale>
<asrwt>0</asrwt>
<pdfrwt beam="1">  1       21 0.82764778E-01 0.29741690E+03</pdfrwt>
<pdfrwt beam="2">  1       21 0.23714972E-01 0.29741690E+03</pdfrwt>
<totfact> 0.20232945E+04</totfact>
</mgrwt>
</event>
<event>
 5    0  0.2159162E+000  0.2723212E+03  0.7546771E-02  0.1099958E+00
         21   -1    0    0  502  501  0.00000000000E+00  0.00000000000E+00  0.12472094646E+04  0.12472094646E+04  0.00000000000E+00 0.  1.
         21   -1    0    0  503  502 -0.00000000000E+00 -0.00000000000E+00 -0.74468277481E+02  0.74468277481E+02  0.00000000000E+00 0.  1.
         25    1    1    2    0    0 -0.15840513797E+03  0.18287061099E+03  0.94668541059E+03  0.98507467469E+03  0.12500000000E+03 0.  0.
         21    1    1    2  503  504  0.97278201266E+02 -0.66922694107E+02  0.11468178652E+03  0.16460135962E+03  0.00000000000E+00 0.  1.
         21    1    1    2  504  501  0.61126936709E+02 -0.11594791689E+03  0.11137398999E+03  0.17200170775E+03  0.00000000000E+00 0.  1.
<mgrwt>
<rscale>  4 0.27232122E+03</rscale>
<asrwt>0</asrwt>
<pdfrwt beam="1">  1       21 0.19187836E+00 0.27232122E+03</pdfrwt>
<pdfrwt beam="2">  1       21 0.11456659E-01 0.27232122E+03</pdfrwt>
<totfact> 0.91263719E+03</totfact>
</mgrwt>
</event>
<event>
 5    0  0.3379573E+000  0.2616761E+03  0.7546771E-02  0.1106140E+00
         21   -1    0    0  502  501  0.00000000000E+00  0.00000000000E+00  0.59709330453E+03  0.59709330453E+03  0.00000000000E+00 0.  1.
         21   -1    0    0  503  502 -0.00000000000E+00 -0.00000000000E+00 -0.10305634111E+03  0.10305634111E+03  0.00000000000E+00 0.  1.
         25    1    1    2    0    0  0.21650515774E+03  0.77297441009E+02  0.23101501292E+03  0.34905918396E+03  0.12500000000E+03 0.  0.
         21    1    1    2  503  504 -0.19593179453E+03 -0.76703965644E+02  0.24988636984E+03  0.32667409491E+03  0.00000000000E+00 0.  1.
         21    1    1    2  504  501 -0.20573363216E+02 -0.59347536502E+00  0.13135580659E+02  0.24416366770E+02  0.00000000000E+00 0.  1.
<mgrwt>
<rscale>  4 0.26167609E+03</rscale>
<asrwt>0</asrwt>
<pdfrwt beam="1">  1       21 0.91860506E-01 0.26167609E+03</pdfrwt>
<pdfrwt beam="2">  1       21 0.15854822E-01 0.26167609E+03</pdfrwt>
<totfact> 0.34341532E+04</totfact>
</mgrwt>
</event>
