<event>
 5    0  0.1911311E+001  0.2824445E+03  0.7546771E-02  0.1094361E+00
         21   -1    0    0  503  501  0.00000000000E+00  0.00000000000E+00  0.77161564633E+02  0.77161564633E+02  0.00000000000E+00 0. -1.
         21   -1    0    0  504  502 -0.00000000000E+00 -0.00000000000E+00 -0.16699705514E+04  0.16699705514E+04  0.00000000000E+00 0. -1.
         25    1    1    2    0    0 -0.15562079984E+03 -0.22104759824E+03 -0.39695702647E+03  0.49626581072E+03  0.12500000000E+03 0.  0.
         21    1    1    2  503  502 -0.15909992211E+02  0.59333322437E+02 -0.69056540505E+03  0.69329225415E+03  0.00000000000E+00 0. -1.
         21    1    1    2  504  501  0.17153079205E+03  0.16171427580E+03 -0.50528655525E+03  0.55757405117E+03  0.00000000000E+00 0. -1.
<mgrwt>
<rscale>  4 0.28244445E+03</rscale>
<asrwt>0</asrwt>
<pdfrwt beam="1">  1       21 0.11871011E-01 0.28244445E+03</pdfrwt>
<pdfrwt beam="2">  1       21 0.25691852E+00 0.28244445E+03</pdfrwt>
<totfact> 0.33381003E+03</totfact>
</mgrwt>
</event>
<event>
 5    0  0.1911311E+001  0.3566286E+03  0.7546771E-02  0.1059927E+00
         21   -1    0    0  504  501  0.00000000000E+00  0.00000000000E+00  0.61219733094E+03  0.61219733094E+03  0.00000000000E+00 0.  1.
         21   -1    0    0  503  502 -0.00000000000E+00 -0.00000000000E+00 -0.46375766072E+03  0.46375766072E+03  0.00000000000E+00 0.  1.
         25    1    1    2    0    0  0.95162466591E+02  0.32182513694E+03 -0.28875005614E+03  0.46003142146E+03  0.12500000000E+03 0.  0.
         21    1    1    2  503  501 -0.53827771957E+02  0.99557748120E+01 -0.11921239420E+02  0.56023766700E+02  0.00000000000E+00 0. -1.
         21    1    1    2  504  502 -0.41334694633E+02 -0.33178091175E+03  0.44911096578E+03  0.55989980350E+03  0.00000000000E+00 0.  1.
<mgrwt>
<rscale>  4 0.35662863E+03</rscale>
<asrwt>0</asrwt>
<pdfrwt beam="1">  1       21 0.94184205E-01 0.35662863E+03</pdfrwt>
<pdfrwt beam="2">  1       21 0.71347332E-01 0.35662863E+03</pdfrwt>
<totfact> 0.15000512E+03</totfact>
</mgrwt>
</event>
<event>
 5    0  0.1911311E+001  0.4154568E+03  0.7546771E-02  0.1038555E+00
         21   -1    0    0  502  501  0.00000000000E+00  0.00000000000E+00  0.46835174788E+03  0.46835174788E+03  0.00000000000E+00 0.  1.
         21   -1    0    0  504  502 -0.00000000000E+00 -0.00000000000E+00 -0.14969949939E+04  0.14969949939E+04  0.00000000000E+00 0. -1.
         25    1    1    2    0    0  0.44172682296E+03  0.65857370890E+02 -0.67926489261E+01  0.46382207742E+03  0.12500000000E+03 0.  0.
         21    1    1    2  503  501 -0.51718270868E+02 -0.85120690162E+02  0.19749032457E+03  0.22118485421E+03  0.00000000000E+00 0.  1.
         21    1    1    2  504  503 -0.39000855209E+03  0.19263319273E+02 -0.12193409217E+04  0.12803398102E+04  0.00000000000E+00 0. -1.
<mgrwt>
<rscale>  4 0.41545684E+03</rscale>
<asrwt>0</asrwt>
<pdfrwt beam="1">  1       21 0.72054116E-01 0.41545684E+03</pdfrwt>
<pdfrwt beam="2">  1       21 0.23030692E+00 0.41545684E+03</pdfrwt>
<totfact> 0.12255628E+02</totfact>
</mgrwt>
</event>
<event>
 5    0  0.3674832E+001  0.2334470E+03  0.7546771E-02  0.1124237E+00
         21   -1    0    0  502  501  0.00000000000E+00  0.00000000000E+00  0.21305037914E+03  0.21305037914E+03  0.00000000000E+00 0. -1.
         21   -1    0    0  504  502 -0.00000000000E+00 -0.00000000000E+00 -0.49844259994E+03  0.49844259994E+03  0.00000000000E+00 0.  1.
         25    1    1    2    0    0  0.11402478094E+03  0.19456484113E+03 -0.36870564607E+03  0.44991774972E+03  0.12500000000E+03 0.  0.
         21    1    1    2  503  501 -0.11241380467E+03 -0.15720502060E+03  0.10333949273E+03  0.21915595529E+03  0.00000000000E+00 0. -1.
         21    1    1    2  504  503 -0.16109762717E+01 -0.37359820522E+02 -0.20026067457E+02  0.42419274060E+02  0.00000000000E+00 0.  1.
<mgrwt>
<rscale>  4 0.23344703E+03</rscale>
<asrwt>0</asrwt>
<pdfrwt beam="1">  1       21 0.32776981E-01 0.23344703E+03</pdfrwt>
<pdfrwt beam="2">  1       21 0.76683477E-01 0.23344703E+03</pdfrwt>
<totfact> 0.13216384E+04</totfact>
</mgrwt>
</event>
