<event>
 5    0  0.1911311E+001  0.3835342E+03  0.7546771E-02  0.1049635E+00
         21   -1    0    0  503  501  0.00000000000E+00  0.00000000000E+00  0.56409729147E+03  0.56409729147E+03  0.00000000000E+00 0.  1.
         21   -1    0    0  501  502 -0.00000000000E+00 -0.00000000000E+00 -0.42368170926E+03  0.42368170926E+03  0.00000000000E+00 0. -1.
         25    1    1    2    0    0  0.35198771271E+03 -0.59279802542E+02  0.33299020278E+03  0.50390169680E+03  0.12500000000E+03 0.  0.
         21    1    1    2  503  504 -0.34922074721E+03  0.10443330053E+03 -0.22487836431E+03  0.42828929858E+03  0.00000000000E+00 0. -1.
         21    1    1    2  504  502 -0.27669654996E+01 -0.45153497987E+02  0.32303743750E+02  0.55588005351E+02  0.00000000000E+00 0. -1.
<mgrwt>
<rscale>  4 0.38353423E+03</rscale>
<asrwt>0</asrwt>
<pdfrwt beam="1">  1       21 0.86784199E-01 0.38353423E+03</pdfrwt>
<pdfrwt beam="2">  1       21 0.65181801E-01 0.38353423E+03</pdfrwt>
<totfact> 0.21978954E+03</totfact>
</mgrwt>
</event>
<event>
 5    0  0.1911311E+001  0.2688234E+03  0.7546771E-02  0.1101955E+00
         21   -1    0    0  503  501  0.00000000000E+00  0.00000000000E+00  0.12620740448E+04  0.12620740448E+04  0.00000000000E+00 0.  1.
         21   -1    0    0  504  502 -0.00000000000E+00 -0.00000000000E+00 -0.96258439569E+02  0.96258439569E+02  0.00000000000E+00 0.  1.
         25    1    1    2    0    0 -0.22369065649E+03  0.97832457425E+02  0.79821708840E+03  0.84402856571E+03  0.12500000000E+03 0.  0.
         21    1    1    2  503  502  0.22550347291E+03 -0.72232441126E+02  0.12015069687E+03  0.26552877773E+03  0.00000000000E+00 0.  1.
         21    1    1    2  504  501 -0.18128164197E+01 -0.25600016299E+02  0.24744781994E+03  0.24877514090E+03  0.00000000000E+00 0.  1.
<mgrwt>
<rscale>  4 0.26882342E+03</rscale>
<asrwt>0</asrwt>
<pdfrwt beam="1">  1       21 0.19416523E+00 0.26882342E+03</pdfrwt>
<pdfrwt beam="2">  1       21 0.14808992E-01 0.26882342E+03</pdfrwt>
<totfact> 0.55434437E+03</totfact>
</mgrwt>
</event>
<event>
 5    0  0.1911311E+001  0.4262631E+03  0.7546771E-02  0.1035047E+00
         21   -1    0    0  504  501  0.00000000000E+00  0.00000000000E+00  0.11270359711E+04  0.11270359711E+04  0.00000000000E+00 0. -1.
         21   -1    0    0  503  502 -0.00000000000E+00 -0.00000000000E+00 -0.12478281439E+04  0.12478281439E+04  0.00000000000E+00 0.  1.
         25    1    1    2    0    0 -0.10073405854E+03  0.38819317761E+03  0.88503174440E+03  0.97966702623E+03  0.12500000000E+03 0.  0.
         21    1    1    2  503  501  0.15948467060E+02 -0.40778880061E+03 -0.11536246962E+04  0.12236813307E+04  0.00000000000E+00 0.  1.
         21    1    1    2  504  502  0.84785591477E+02  0.19595623001E+02  0.14780077908E+03  0.17151575805E+03  0.00000000000E+00 0. -1.
<mgrwt>
<rscale>  4 0.42626309E+03</rscale>
<asrwt>0</asrwt>
<pdfrwt beam="1">  1       21 0.17339015E+00 0.42626309E+03</pdfrwt>
<pdfrwt beam="2">  1       21 0.19197356E+00 0.42626309E+03</pdfrwt>
<totfact> 0.23797181E+01</totfact>
</mgrwt>
</event>
