<event>
 5    0  0.3035775E+000  0.1935792E+03  0.7546771E-02  0.1155272E+00
         21   -1    0    0  502  501  0.00000000000E+00  0.00000000000E+00  0.19801607813E+03  0.19801607813E+03  0.00000000000E+00 0. -1.
         21   -1    0    0  503  502 -0.00000000000E+00 -0.00000000000E+00 -0.34929725746E+03  0.34929725746E+03  0.00000000000E+00 0. -1.
         25    1    1    2    0    0  0.20426475097E+03  0.93412046219E+02 -0.55885184664E+02  0.26305522753E+03  0.12500000000E+03 0.  0.
         21    1    1    2  503  504 -0.11307432519E+03 -0.50032138205E+02  0.25998712900E+02  0.12635248689E+03  0.00000000000E+00 0. -1.
         21    1    1    2  504  501 -0.91190425781E+02 -0.43379908014E+02 -0.12139470757E+03  0.15790562118E+03  0.00000000000E+00 0. -1.
<mgrwt>
<rscale>  4 0.19357917E+03</rscale>
<asrwt>0</asrwt>
<pdfrwt beam="1">  1       21 0.30464012E-01 0.19357917E+03</pdfrwt>
<pdfrwt beam="2">  1       21 0.53738040E-01 0.19357917E+03</pdfrwt>
<totfact> 0.33864321E+04</totfact>
</mgrwt>
</event>
<event>
 5    0  0.1856407E+000  0.3014378E+03  0.7546771E-02  0.1084524E+00
         21   -1    0    0  502  501  0.00000000000E+00  0.00000000000E+00  0.18079397645E+03  0.18079397645E+03  0.00000000000E+00 0. -1.
         21   -1    0    0  503  502 -0.00000000000E+00 -0.00000000000E+00 -0.11382766897E+04  0.11382766897E+04  0.00000000000E+00 0. -1.
         25    1    1    2    0    0 -0.79822098988E+02  0.28470612025E+03 -0.14930999506E+02  0.32136751102E+03  0.12500000000E+03 0.  0.
         21    1    1    2  503  504  0.49254842068E+02 -0.20838120872E+03 -0.45011417792E+03  0.49844913560E+03  0.00000000000E+00 0. -1.
         21    1    1    2  504  501  0.30567256920E+02 -0.76324911526E+02 -0.49243753580E+03  0.49925401950E+03  0.00000000000E+00 0. -1.
<mgrwt>
<rscale>  4 0.30143775E+03</rscale>
<asrwt>0</asrwt>
<pdfrwt beam="1">  1       21 0.27814457E-01 0.30143775E+03</pdfrwt>
<pdfrwt beam="2">  1       21 0.17511949E+00 0.30143775E+03</pdfrwt>
<totfact> 0.22265836E+03</totfact>
</mgrwt>
</event>
<event>
 5    0  0.1856407E+000  0.2744712E+03  0.7546771E-02  0.1098748E+00
         21   -1    0    0  502  501  0.00000000000E+00  0.00000000000E+00  0.32596247662E+03  0.32596247662E+03  0.00000000000E+00 0.  1.
         21   -1    0    0  503  502 -0.00000000000E+00 -0.00000000000E+00 -0.18511242185E+04  0.18511242185E+04  0.00000000000E+00 0. -1.
         25    1    1    2    0    0 -0.12431522953E+03  0.21583271192E+03  0.25322349771E+03  0.37654372339E+03  0.12500000000E+03 0.  0.
         21    1    1    2  503  504  0.12170084957E+03 -0.13337276396E+03 -0.87717274955E+03  0.89556207128E+03  0.00000000000E+00 0. -1.
         21    1    1    2  504  501  0.26143799653E+01 -0.82459947965E+02 -0.90121249007E+03  0.90498090049E+03  0.00000000000E+00 0. -1.
<mgrwt>
<rscale>  4 0.27447118E+03</rscale>
<asrwt>0</asrwt>
<pdfrwt beam="1">  1       21 0.50148073E-01 0.27447118E+03</pdfrwt>
<pdfrwt beam="2">  1       21 0.28478834E+00 0.27447118E+03</pdfrwt>
<totfact> 0.14219789E+02</totfact>
</mgrwt>
</event>
<event>
 5    0  0.1856407E+000  0.3160499E+03  0.7546771E-02  0.1077482E+00
         21   -1    0    0  502  501  0.00000000000E+00  0.00000000000E+00  0.13232911907E+04  0.13232911907E+04  0.00000000000E+00 0. -1.
         21   -1    0    0  503  502 -0.00000000000E+00 -0.00000000000E+00 -0.41371683720E+03  0.41371683720E+03  0.00000000000E+00 0.  1.
         25    1    1    2    0    0  0.83964595461E+02 -0.28033928518E+03  0.12269828119E+04  0.12675772121E+04  0.12500000000E+03 0.  0.
         21    1    1    2  503  504 -0.10194383068E+02  0.45402586576E+02  0.20885447360E+02  0.51005119599E+02  0.00000000000E+00 0. -1.
         21    1    1    2  504  501 -0.73770212393E+02  0.23493669860E+03 -0.33829390571E+03  0.41842569618E+03  0.00000000000E+00 0.  1.
<mgrwt>
<rscale>  4 0.31604990E+03</rscale>
<asrwt>0</asrwt>
<pdfrwt beam="1">  1       21 0.20358326E+00 0.31604990E+03</pdfrwt>
<pdfrwt beam="2">  1       21 0.63648745E-01 0.31604990E+03</pdfrwt>
<totfact> 0.25655412E+02</totfact>
</mgrwt>
</event>
<event>
 5    0  0.1856407E+000  0.2359387E+03  0.7546771E-02  0.1122528E+00
         21   -1    0    0  502  501  0.00000000000E+00  0.00000000000E+00  0.45333723937E+03  0.45333723937E+03  0.00000000000E+00 0. -1.
         21   -1    0    0  503  502 -0.00000000000E+00 -0.00000000000E+00 -0.13652333764E+03  0.13652333764E+03  0.00000000000E+00 0. -1.
         25    1    1    2    0    0  0.19943394115E+03  0.16376257184E+02  0.30681162057E+03  0.38704062991E+03  0.12500000000E+03 0.  0.
         21    1    1    2  503  504 -0.25004319956E+02 -0.99024908739E+01 -0.59457469896E+01  0.27543188799E+02  0.00000000000E+00 0. -1.
         21    1    1    2  504  501 -0.17442962120E+03 -0.64737663101E+01  0.15948028151E+02  0.17527675831E+03  0.00000000000E+00 0. -1.
<mgrwt>
<rscale>  4 0.23593872E+03</rscale>
<asrwt>0</asrwt>
<pdfrwt beam="1">  1       21 0.69744190E-01 0.23593872E+03</pdfrwt>
<pdfrwt beam="2">  1       21 0.21003591E-01 0.23593872E+03</pdfrwt>
<totfact> 0.38509256E+04</totfact>
</mgrwt>
</event>
<event>
 5    0  0.1856407E+000  0.4957311E+03  0.7546771E-02  0.1014899E+00
         21   -1    0    0  502  501  0.00000000000E+00  0.00000000000E+00  0.34049789281E+03  0.34049789281E+03  0.00000000000E+00 0.  1.
         21   -1    0    0  503  502 -0.00000000000E+00 -0.00000000000E+00 -0.71301973051E+03  0.71301973051E+03  0.00000000000E+00 0.  1.
         25    1    1    2    0    0  0.10367997941E+03 -0.46837463521E+03 -0.14093616290E+03  0.51537592013E+03  0.12500000000E+03 0.  0.
         21    1    1    2  503  504 -0.11235067359E+03  0.41164239658E+03 -0.21801197986E+03  0.47916736103E+03  0.00000000000E+00 0.  1.
         21    1    1    2  504  501  0.86706941783E+01  0.56732238632E+02 -0.13573694949E+02  0.58974342152E+02  0.00000000000E+00 0.  1.
<mgrwt>
<rscale>  4 0.49573111E+03</rscale>
<asrwt>0</asrwt>
<pdfrwt beam="1">  1       21 0.52384291E-01 0.49573111E+03</pdfrwt>
<pdfrwt beam="2">  1       21 0.10969534E+00 0.49573111E+03</pdfrwt>
<totfact> 0.19250099E+03</totfact>
</mgrwt>
</event>
<event>
 5    0  0.1856407E+000  0.4278530E+03  0.7546771E-02  0.1034540E+00
         21   -1    0    0  502  501  0.00000000000E+00  0.00000000000E+00  0.12228111569E+04  0.12228111569E+04  0.00000000000E+00 0. -1.
         21   -1    0    0  503  502 -0.00000000000E+00 -0.00000000000E+00 -0.17980101403E+03  0.17980101403E+03  0.00000000000E+00 0. -1.
         25    1    1    2    0    0  0.37393946776E+03  0.16613998977E+03  0.82964845457E+03  0.93347457379E+03  0.12500000000E+03 0.  0.
         21    1    1    2  503  504 -0.34244664011E+03 -0.16490379413E+03  0.21657701341E+03  0.43745692974E+03  0.00000000000E+00 0. -1.
         21    1    1    2  504  501 -0.31492827651E+02 -0.12361956352E+01 -0.32153250907E+01  0.31680667426E+02  0.00000000000E+00 0. -1.
<mgrwt>
<rscale>  4 0.42785304E+03</rscale>
<asrwt>0</asrwt>
<pdfrwt beam="1">  1       21 0.18812479E+00 0.42785304E+03</pdfrwt>
<pdfrwt beam="2">  1       21 0.27661695E-01 0.42785304E+03</pdfrwt>
<totfact> 0.17093138E+03</totfact>
</mgrwt>
</event>
<event>
 5    0  0.3467812E+000  0.2639310E+03  0.7546771E-02  0.1104804E+00
         21   -1    0    0  502  501  0.00000000000E+00  0.00000000000E+00  0.38504993174E+03  0.38504993174E+03  0.00000000000E+00 0.  1.
         21   -1    0    0  503  502 -0.00000000000E+00 -0.00000000000E+00 -0.24034098935E+03  0.24034098935E+03  0.00000000000E+00 0.  1.
         25    1    1    2    0    0 -0.16456541226E+03 -0.16978026621E+03  0.23782361765E+03  0.35789968821E+03  0.12500000000E+03 0.  0.
         21    1    1    2  503  504  0.13860517137E+03  0.17348563459E+03 -0.94281565494E+02  0.24124193775E+03  0.00000000000E+00 0.  1.
         21    1    1    2  504  501  0.25960240891E+02 -0.37053683798E+01  0.11668902362E+01  0.26249295129E+02  0.00000000000E+00 0.  1.
<mgrwt>
<rscale>  4 0.26393101E+03</rscale>
<asrwt>0</asrwt>
<pdfrwt beam="1">  1       21 0.59238451E-01 0.26393101E+03</pdfrwt>
<pdfrwt beam="2">  1       21 0.36975537E-01 0.26393101E+03</pdfrwt>
<totfact> 0.18076051E+04</totfact>
</mgrwt>
</event>
<event>
 5    0  0.1856407E+000  0.2440609E+03  0.7546771E-02  0.1117117E+00
         21   -1    0    0  502  501  0.00000000000E+00  0.00000000000E+00  0.10337387506E+03  0.10337387506E+03  0.00000000000E+00 0.  1.
         21   -1    0    0  503  502 -0.00000000000E+00 -0.00000000000E+00 -0.20821053340E+04  0.20821053340E+04  0.00000000000E+00 0.  1.
         25    1    1    2    0    0  0.43552156827E+02 -0.20660421005E+03 -0.58960001464E+02  0.25235564536E+03  0.12500000000E+03 0.  0.
         21    1    1    2  503  504  0.12067678850E+02  0.19159565966E+02 -0.42726614390E+03  0.42786572142E+03  0.00000000000E+00 0. -1.
         21    1    1    2  504  501 -0.55619835677E+02  0.18744464408E+03 -0.14925053135E+04  0.15052578423E+04  0.00000000000E+00 0.  1.
<mgrwt>
<rscale>  4 0.24406086E+03</rscale>
<asrwt>0</asrwt>
<pdfrwt beam="1">  1       21 0.15903675E-01 0.24406086E+03</pdfrwt>
<pdfrwt beam="2">  1       21 0.32032387E+00 0.24406086E+03</pdfrwt>
<totfact> 0.86109573E+02</totfact>
</mgrwt>
</event>
<event>
 5    0  0.1856407E+000  0.2392205E+03  0.7546771E-02  0.1120313E+00
         21   -1    0    0  502  501  0.00000000000E+00  0.00000000000E+00  0.10377945001E+03  0.10377945001E+03  0.00000000000E+00 0.  1.
         21   -1    0    0  503  502 -0.00000000000E+00 -0.00000000000E+00 -0.84728698187E+03  0.84728698187E+03  0.00000000000E+00 0. -1.
         25    1    1    2    0    0  0.23549012772E+03 -0.23023933206E+02 -0.17190151444E+03  0.31805790734E+03  0.12500000000E+03 0.  0.
         21    1    1    2  503  504 -0.40914261459E+02 -0.41224940773E+01 -0.16756327275E+02  0.44404349470E+02  0.00000000000E+00 0.  1.
         21    1    1    2  504  501 -0.19457586626E+03  0.27146427283E+02 -0.55484969015E+03  0.58860417507E+03  0.00000000000E+00 0. -1.
<mgrwt>
<rscale>  4 0.23922050E+03</rscale>
<asrwt>0</asrwt>
<pdfrwt beam="1">  1       21 0.15966070E-01 0.23922050E+03</pdfrwt>
<pdfrwt beam="2">  1       21 0.13035184E+00 0.23922050E+03</pdfrwt>
<totfact> 0.14587954E+04</totfact>
</mgrwt>
</event>
<event>
 5    0  0.1874076E+000  0.2890056E+03  0.7546771E-02  0.1090869E+00
         21   -1    0    0  502  501  0.00000000000E+00  0.00000000000E+00  0.69381022188E+02  0.69381022188E+02  0.00000000000E+00 0.  1.
         21   -1    0    0  503  502 -0.00000000000E+00 -0.00000000000E+00 -0.12191860549E+04  0.12191860549E+04  0.00000000000E+00 0.  1.
         25    1    1    2    0    0 -0.26053661766E+03 -0.14686123391E+02 -0.52929390039E+03  0.60321807363E+03  0.12500000000E+03 0.  0.
         21    1    1    2  503  504  0.24843105238E+01 -0.22477251621E+02 -0.18183929803E+02  0.29018165729E+02  0.00000000000E+00 0.  1.
         21    1    1    2  504  501  0.25805230714E+03  0.37163375011E+02 -0.60232720253E+03  0.65633083774E+03  0.00000000000E+00 0.  1.
<mgrwt>
<rscale>  4 0.28900561E+03</rscale>
<asrwt>0</asrwt>
<pdfrwt beam="1">  1       21 0.10674004E-01 0.28900561E+03</pdfrwt>
<pdfrwt beam="2">  1       21 0.18756708E+00 0.28900561E+03</pdfrwt>
<totfact> 0.10968982E+04</totfact>
</mgrwt>
</event>
