<LesHouchesEvents version="3.0">
  <!--
  <scalesfunctionalform>
    muR  H_T/2 := sum_i mT(i)/2, i=final state
    muF1 H_T/2 := sum_i mT(i)/2, i=final state
    muF2 H_T/2 := sum_i mT(i)/2, i=final state
    QES  H_T/2 := sum_i mT(i)/2, i=final state
  </scalesfunctionalform>
HERWIG6   
  -->
  <header>
      579
  </header>
  <init>
   2212   2212 0.65000000D+04 0.65000000D+04 -1 -1   247000   247000 -3   1
 0.24107735D+00 0.94718336D-03 0.46019439D-03     66
  </init>
  <event>
  4     66 0.46019439E-03 0.12754072E+03 0.75467711E-02 0.12047516E+00
       -2 -1    0    0    0  501 0.00000000E+00 0.00000000E+00 0.35370862E+02 0.35372310E+02 0.32000000E+00 0.0000E+00 0.9000E+01
        1 -1    0    0  501    0 0.00000000E+00 0.00000000E+00 -.46517572E+03 0.46517583E+03 0.32000000E+00 0.0000E+00 0.9000E+01
       25  1    1    2    0    0 0.73766474E+02 -.10062963E+02 -.21835633E+03 0.26238758E+03 0.12500000E+03 0.0000E+00 0.9000E+01
      -24  1    1    2    0    0 -.73766474E+02 0.10062963E+02 -.21144852E+03 0.23816055E+03 0.80419002E+02 0.0000E+00 0.9000E+01
#aMCatNLO 1  0  0  1  2 0.35568517D+02 0.00000000D+00  -5  5  0 0.00000000D+00 0.00000000D+00 0.00000000D+00 0.00000000D+00 0.00000000D+00
  <mgrwgt>
 0.1832798917D+00    4    2    0
 0.128273364505915D+03 0.000000000000000D+00 0.000000000000000D+00 0.128273364505915D+03
 0.128273364505915D+03 0.000000000000000D+00 0.000000000000000D+00 -.128273364505915D+03
 0.146121543823780D+03 0.737664735761909D+02 -.100629632958678D+02 0.135554312098129D+02
 0.110425185188051D+03 -.737664735761909D+02 0.100629632958678D+02 -.135554312098129D+02
 0.000000000000000D+00 0.000000000000000D+00 0.000000000000000D+00 -.000000000000000D+00
 0.136910666336340D+03 0.000000000000000D+00 0.000000000000000D+00 0.136910666336340D+03
 0.172181244431282D+03 0.000000000000000D+00 0.000000000000000D+00 -.172181244431282D+03
 0.137373472578025D+03 0.542315706589013D+02 -.110298683913230D+02 0.135554312098129D+02
 0.121627190674321D+03 -.897565981707373D+02 0.927151155367633D+01 -.135554312098129D+02
 0.500912475152759D+02 0.355250275118360D+02 0.175835683764671D+01 -.352705780949424D+02
0.304430609873D-03 0.000000000000D+00 0.000000000000D+00 0.261938658491D-02 0.000000000000D+00  5 -2 1 25 -24 21 0 0.54417909D-02 0.71565615D-01 0.16266636D+05 0.16266636D+05 0.16266636D+05 0.12438288D+01  1  2  2  1  5  1       -2 0.217893756090D+00 0.100000000000D+01
-.169121369856D-04 0.000000000000D+00 -.116909370033D-05 0.261938658491D-02 0.000000000000D+00  5 -2 1 25 -24 21 2 0.54417909D-02 0.71565615D-01 0.16266636D+05 0.16266636D+05 0.16266636D+05 0.12438288D+01  1  2  3  1  5  1       -2 -.187273440337D-01 0.100000000000D+01
0.210148073333D-04 0.000000000000D+00 0.000000000000D+00 0.261938658491D-02 0.000000000000D+00  5 -2 1 25 -24 21 2 0.54417909D-02 0.71565615D-01 0.16266636D+05 0.16266636D+05 0.16266636D+05 0.12438288D+01  1  2 15  1  5  1       -2 0.232703606332D-01 0.100000000000D+01
-.353614764293D-04 0.000000000000D+00 0.000000000000D+00 0.261938658491D-02 0.000000000000D+00  5 -2 1 25 -24 21 2 0.54417909D-02 0.71565615D-01 0.16266636D+05 0.16266636D+05 0.16266636D+05 0.12438288D+01  1  2  4  1  5  1       -2 -.391568809545D-01 0.100000000000D+01
  </mgrwgt>
  </event>
  <event>
  4     66 0.46019439E-03 0.16047676E+03 0.75467711E-02 0.10327077E+00
       -4 -1    0    0    0  501 0.00000000E+00 0.00000000E+00 0.59627517E+02 0.59647660E+02 0.15500000E+01 0.0000E+00 0.9000E+01
        3 -1    0    0  501    0 0.00000000E+00 0.00000000E+00 -.48027497E+03 0.48027523E+03 0.50000000E+00 0.0000E+00 0.9000E+01
       25  1    1    2    0    0 -.14543997E+02 -.12123815E+03 -.31258573E+03 0.35811319E+03 0.12500000E+03 0.0000E+00 0.9000E+01
      -24  1    1    2    0    0 0.14543997E+02 0.12123815E+03 -.10806172E+03 0.18180970E+03 0.80419002E+02 0.0000E+00 0.9000E+01
#aMCatNLO 1  0  0  1  2 0.37564030D+03 0.00000000D+00  -5  5  0 0.00000000D+00 0.00000000D+00 0.00000000D+00 0.00000000D+00 0.00000000D+00
  <mgrwgt>
 0.2547395161D-01    5    2    0
 0.169242759660529D+03 0.000000000000000D+00 0.000000000000000D+00 0.169242759660529D+03
 0.169242759660529D+03 0.000000000000000D+00 0.000000000000000D+00 -.169242759660529D+03
 0.182770345809559D+03 -.145439969202346D+02 -.121238145690432D+03 -.535703601861658D+02
 0.155715173511499D+03 0.145439969202346D+02 0.121238145690432D+03 0.535703601861658D+02
 0.000000000000000D+00 -.000000000000000D+00 -.000000000000000D+00 0.000000000000000D+00
 0.678063090029407D+03 0.000000000000000D+00 0.000000000000000D+00 0.678063090029407D+03
 0.335779575725086D+03 0.000000000000000D+00 0.000000000000000D+00 -.335779575725086D+03
 0.149963933294432D+03 0.630115473471341D+02 0.489312779121511D+01 -.535703601861658D+02
 0.355682272059677D+03 0.133743339215289D+03 0.315096173299887D+03 0.535703601861658D+02
 0.508196460400385D+03 -.196754886562423D+03 -.319989301091102D+03 0.342283514304321D+03
0.702778447818D-03 0.000000000000D+00 0.000000000000D+00 0.207104020261D-02 0.000000000000D+00  5 -4 3 25 -24 21 0 0.91750336D-02 0.73890026D-01 0.25752790D+05 0.25752790D+05 0.25752790D+05 0.12219187D+01  1  2  2  1  5  1       -4 0.221599721675D-01 0.100000000000D+01
-.389089687893D-04 0.000000000000D+00 -.269885428543D-05 0.207104020261D-02 0.000000000000D+00  5 -4 3 25 -24 21 2 0.91750336D-02 0.73890026D-01 0.25752790D+05 0.25752790D+05 0.25752790D+05 0.12219187D+01  1  2  3  1  5  1       -4 -.183182978301D-02 0.100000000000D+01
0.483125584543D-04 0.000000000000D+00 0.000000000000D+00 0.207104020261D-02 0.000000000000D+00  5 -4 3 25 -24 21 2 0.91750336D-02 0.73890026D-01 0.25752790D+05 0.25752790D+05 0.25752790D+05 0.12219187D+01  1  2 15  1  5  1       -4 0.227454970471D-02 0.100000000000D+01
0.533115137854D-03 0.000000000000D+00 -.352301338062D-03 0.207104020261D-02 0.000000000000D+00  5 -4 3 25 -24 21 2 0.69534429D-01 0.73890026D-01 0.25752790D+05 0.25752790D+05 0.25752790D+05 0.12219187D+01  1  2  5  1  5  1       -4 0.560556578711D-03 0.100000000000D+01
0.929595400717D-04 0.000000000000D+00 -.868970203334D-04 0.207104020261D-02 0.000000000000D+00  5 21 3 25 -24 4 2 0.69534429D-01 0.73890026D-01 0.25752790D+05 0.25752790D+05 0.25752790D+05 0.12219187D+01  1  2  5  3  5  1       -4 0.231070294132D-02 0.100000000000D+01
  </mgrwgt>
  </event>
  <event>
  5     66 0.46019439E-03 0.10578573E+03 0.75467711E-02 0.12623514E+00
       -4 -1    0    0    0  501 0.00000000E+00 0.00000000E+00 0.28446230E+03 0.28446652E+03 0.15500000E+01 0.0000E+00 0.9000E+01
       21 -1    0    0  501  502 0.00000000E+00 0.00000000E+00 -.73832530E+02 0.73836339E+02 0.75000000E+00 0.0000E+00 0.9000E+01
       25  1    1    2    0    0 0.22248507E+02 0.77388407E+01 0.22069633E+03 0.25472879E+03 0.12500000E+03 0.0000E+00 0.9000E+01
      -24  1    1    2    0    0 -.25893541E+02 -.25215548E+01 -.24323762E+02 0.87952800E+02 0.80419002E+02 0.0000E+00 0.9000E+01
       -3  1    1    2    0  502 0.36450339E+01 -.52172859E+01 0.14257196E+02 0.15621267E+02 0.50000000E+00 0.0000E+00 0.9000E+01
#aMCatNLO 2  0  0  2  2 0.63644595D+01 0.00000000D+00  -5  5  0 0.00000000D+00 0.00000000D+00 0.00000000D+00 0.00000000D+00 0.00000000D+00
  <mgrwgt>
 0.1928102102D-01    1    2    0
 0.140381604828812D+03 0.000000000000000D+00 0.000000000000000D+00 0.140381604828812D+03
 0.140381604828812D+03 0.000000000000000D+00 0.000000000000000D+00 -.140381604828812D+03
 0.156690337117485D+03 0.242812902057918D+02 0.482923542563202D+01 0.911809145443119D+02
 0.124072872540140D+03 -.242812902057918D+02 -.482923542563202D+01 -.911809145443119D+02
 0.000000000000000D+00 0.000000000000000D+00 -.000000000000000D+00 0.000000000000000D+00
 0.148193532162496D+03 0.000000000000000D+00 0.000000000000000D+00 0.148193532162496D+03
 0.141719978375092D+03 0.000000000000000D+00 0.000000000000000D+00 -.141719978375092D+03
 0.156505095462517D+03 0.222485071969518D+02 0.773884074662654D+01 0.911809145443119D+02
 0.124330241064045D+03 -.258935411397148D+02 -.252155483418622D+01 -.911809145443119D+02
 0.907817401102552D+01 0.364503394276300D+01 -.521728591244031D+01 0.647355378740430D+01
0.923916564931D-05 0.000000000000D+00 0.000000000000D+00 0.154734356592D-02 0.583797417709D-06  5 -4 21 25 -24 -3 2 0.43761938D-01 0.11358921D-01 0.11890498D+05 0.11890498D+05 0.11890498D+05 0.12594910D+01  1  2  1  4  5  2        3 0.192810210237D-01 0.100000000000D+01
  </mgrwgt>
  </event>
  <event>
  4     66 0.46019439E-03 0.60241242E+02 0.75467711E-02 0.12060093E+00
       -4 -1    0    0    0  501 0.00000000E+00 0.00000000E+00 0.11568044E+04 0.11568055E+04 0.15500000E+01 0.0000E+00 0.9000E+01
        3 -1    0    0  501    0 0.00000000E+00 0.00000000E+00 -.12635497E+02 0.12645386E+02 0.50000000E+00 0.0000E+00 0.9000E+01
       25  1    1    2    0    0 0.41138840E+02 -.41890054E+02 0.55479702E+03 0.57172713E+03 0.12500000E+03 0.0000E+00 0.9000E+01
      -24  1    1    2    0    0 -.41138840E+02 0.41890054E+02 0.58937191E+03 0.59772372E+03 0.80419002E+02 0.0000E+00 0.9000E+01
#aMCatNLO 1  0  0  1  2 0.48543551D+02 0.00000000D+00  -5  5  0 0.00000000D+00 0.00000000D+00 0.00000000D+00 0.00000000D+00 0.00000000D+00
  <mgrwgt>
 0.1213473607D+00    9    2    0
 0.120926377999042D+03 0.000000000000000D+00 0.000000000000000D+00 0.120926377999042D+03
 0.120926377999042D+03 0.000000000000000D+00 0.000000000000000D+00 -.120926377999042D+03
 0.139858938862028D+03 0.411388395362950D+02 -.418900543864618D+02 -.220984615916777D+02
 0.101993817136056D+03 -.411388395362950D+02 0.418900543864618D+02 0.220984615916777D+02
 0.000000000000000D+00 0.000000000000000D+00 0.000000000000000D+00 0.000000000000000D+00
 0.180639862438499D+03 0.000000000000000D+00 0.000000000000000D+00 0.180639862438499D+03
 0.133619195164406D+03 0.000000000000000D+00 0.000000000000000D+00 -.133619195164406D+03
 0.138541455778957D+03 0.158836981475854D+02 -.531798937361680D+02 -.220984615916777D+02
 0.108134915144203D+03 -.602007049133600D+02 0.333688034260930D+02 0.220984615916777D+02
 0.675826866797452D+02 0.443170067657746D+02 0.198110903100750D+02 0.470206672740928D+02
0.250597269787D-02 0.000000000000D+00 0.000000000000D+00 0.268585297396D-02 0.000000000000D+00  5 -4 3 25 -24 21 0 0.17797075D+00 0.19447632D-02 0.14122129D+05 0.14122129D+05 0.14122129D+05 0.12508194D+01  1  2  2  1  5  1       -4 0.969232338832D-01 0.100000000000D+01
-.139169263419D-03 0.000000000000D+00 -.962359499759D-05 0.268585297396D-02 0.000000000000D+00  5 -4 3 25 -24 21 2 0.17797075D+00 0.19447632D-02 0.14122129D+05 0.14122129D+05 0.14122129D+05 0.12508194D+01  1  2  3  1  5  1       -4 -.842139690894D-02 0.100000000000D+01
0.173422767977D-03 0.000000000000D+00 0.000000000000D+00 0.268585297396D-02 0.000000000000D+00  5 -4 3 25 -24 21 2 0.17797075D+00 0.19447632D-02 0.14122129D+05 0.14122129D+05 0.14122129D+05 0.12508194D+01  1  2 15  1  5  1       -4 0.104941416395D-01 0.100000000000D+01
0.151893342111D-02 0.000000000000D+00 0.000000000000D+00 0.268585297396D-02 0.000000000000D+00  5 -4 3 25 -24 21 2 0.27150379D+00 0.19447632D-02 0.21194122D+05 0.21194122D+05 0.21194122D+05 0.12310629D+01  1  2 12  1  5  1       -4 0.251241390923D-01 0.100000000000D+01
-.186184202032D-02 0.000000000000D+00 0.000000000000D+00 0.268585297396D-02 0.000000000000D+00  5 -4 3 25 -24 21 2 0.17797075D+00 0.19447632D-02 0.14122129D+05 0.14122129D+05 0.14122129D+05 0.12508194D+01  1  2  4  1  5  1       -4 -.112663602937D+00 0.100000000000D+01
-.241429265188D-02 0.000000000000D+00 -.720403673246D-03 0.268585297396D-02 0.000000000000D+00  5 -4 3 25 -24 21 2 0.27735698D+00 0.19447632D-02 0.14122129D+05 0.14122129D+05 0.14122129D+05 0.12508194D+01  1  2  5  1  5  1       -4 -.373816028110D-01 0.100000000000D+01
0.254482880448D-02 0.000000000000D+00 0.654880255781D-03 0.268585297396D-02 0.000000000000D+00  5 -4 3 25 -24 21 2 0.17797075D+00 0.19447632D-02 0.14122129D+05 0.14122129D+05 0.14122129D+05 0.12508194D+01  1  2  6  1  5  1       -4 0.153992432678D+00 0.100000000000D+01
0.752638462852D-04 0.000000000000D+00 0.000000000000D+00 0.268585297396D-02 0.000000000000D+00  5 21 3 25 -24 4 2 0.27150379D+00 0.19447632D-02 0.21194122D+05 0.21194122D+05 0.21194122D+05 0.12310629D+01  1  2 12  3  5  1       -4 0.284077573586D-01 0.100000000000D+01
-.959608539933D-04 0.000000000000D+00 -.370378874105D-04 0.268585297396D-02 0.000000000000D+00  5 21 3 25 -24 4 2 0.27735698D+00 0.19447632D-02 0.14122129D+05 0.14122129D+05 0.14122129D+05 0.12508194D+01  1  2  5  3  5  1       -4 -.351277413161D-01 0.100000000000D+01
  </mgrwgt>
  </event>
  <event>
  4     66 0.46019439E-03 0.12926573E+03 0.75467711E-02 0.11951596E+00
       -2 -1    0    0    0  501 0.00000000E+00 0.00000000E+00 0.50530592E+02 0.50531606E+02 0.32000000E+00 0.0000E+00 0.9000E+01
        1 -1    0    0  501    0 0.00000000E+00 0.00000000E+00 -.54630974E+03 0.54630984E+03 0.32000000E+00 0.0000E+00 0.9000E+01
       25  1    1    2    0    0 0.59271838E+02 -.49639265E+02 -.82032193E+02 0.16831960E+03 0.12500000E+03 0.0000E+00 0.9000E+01
      -24  1    1    2    0    0 -.59271838E+02 0.49639265E+02 -.41374696E+03 0.42852184E+03 0.80419002E+02 0.0000E+00 0.9000E+01
#aMCatNLO 1  0  0  1  2 0.45545550D+02 0.00000000D+00  -5  5  0 0.00000000D+00 0.00000000D+00 0.00000000D+00 0.00000000D+00 0.00000000D+00
  <mgrwgt>
 0.2096789398D+00    4    2    0
 0.166149586671593D+03 0.000000000000000D+00 0.000000000000000D+00 0.166149586671593D+03
 0.166149586671593D+03 0.000000000000000D+00 0.000000000000000D+00 -.166149586671593D+03
 0.179929013134643D+03 0.592718377339487D+02 -.496392648632791D+02 0.103789413733194D+03
 0.152370160208543D+03 -.592718377339487D+02 0.496392648632791D+02 -.103789413733194D+03
 0.000000000000000D+00 0.000000000000000D+00 0.000000000000000D+00 -.000000000000000D+00
 0.172099536411540D+03 0.000000000000000D+00 0.000000000000000D+00 0.172099536411540D+03
 0.285658348910036D+03 0.000000000000000D+00 0.000000000000000D+00 -.285658348910036D+03
 0.173960067786607D+03 0.351862761836209D+02 -.512522072653534D+02 0.103789413733194D+03
 0.161445861995312D+03 -.806300415490926D+02 0.482089659477397D+02 -.103789413733194D+03
 0.122351955539656D+03 0.454437653654717D+02 0.304324131761368D+01 -.113558812498496D+03
0.637751566607D-03 0.000000000000D+00 0.000000000000D+00 0.146606253840D-02 0.000000000000D+00  5 -2 1 25 -24 21 0 0.77740224D-02 0.84047738D-01 0.16709630D+05 0.16709630D+05 0.16709630D+05 0.12425138D+01  1  2  2  1  5  1       -2 0.215252453142D+00 0.100000000000D+01
-.327162593365D-04 0.000000000000D+00 -.244913393961D-05 0.146606253840D-02 0.000000000000D+00  5 -2 1 25 -24 21 2 0.77740224D-02 0.84047738D-01 0.16709630D+05 0.16709630D+05 0.16709630D+05 0.12425138D+01  1  2  3  1  5  1       -2 -.170475775369D-01 0.100000000000D+01
0.435578911453D-04 0.000000000000D+00 0.000000000000D+00 0.146606253840D-02 0.000000000000D+00  5 -2 1 25 -24 21 2 0.77740224D-02 0.84047738D-01 0.16709630D+05 0.16709630D+05 0.16709630D+05 0.12425138D+01  1  2 15  1  5  1       -2 0.226968651582D-01 0.100000000000D+01
-.215378440685D-04 0.000000000000D+00 0.000000000000D+00 0.146606253840D-02 0.000000000000D+00  5 -2 1 25 -24 21 2 0.77740224D-02 0.84047738D-01 0.16709630D+05 0.16709630D+05 0.16709630D+05 0.12425138D+01  1  2  4  1  5  1       -2 -.112228009614D-01 0.100000000000D+01
  </mgrwgt>
  </event>
  <event>
  4     66 0.46019439E-03 0.10408590E+03 0.75467711E-02 0.11286308E+00
       -2 -1    0    0    0  501 0.00000000E+00 0.00000000E+00 0.15827834E+02 0.15831068E+02 0.32000000E+00 0.0000E+00 0.9000E+01
        1 -1    0    0  501    0 0.00000000E+00 0.00000000E+00 -.83975888E+03 0.83975894E+03 0.32000000E+00 0.0000E+00 0.9000E+01
       25  1    1    2    0    0 -.39188618E+01 0.16006904E+02 -.30229986E+03 0.32753898E+03 0.12500000E+03 0.0000E+00 0.9000E+01
      -24  1    1    2    0    0 0.39188618E+01 -.16006904E+02 -.52163119E+03 0.52805103E+03 0.80419002E+02 0.0000E+00 0.9000E+01
#aMCatNLO 1  0  0  1  2 0.17942174D+03 0.00000000D+00  -5  5  0 0.00000000D+00 0.00000000D+00 0.00000000D+00 0.00000000D+00 0.00000000D+00
  <mgrwgt>
 0.2831806840D+00    5    2    0
 0.115295159631140D+03 0.000000000000000D+00 0.000000000000000D+00 0.115295159631140D+03
 0.115295159631140D+03 0.000000000000000D+00 0.000000000000000D+00 -.115295159631140D+03
 0.135152420063685D+03 -.391886179410793D+01 0.160069036116073D+02 0.486785189593733D+02
 0.954378991985951D+02 0.391886179410793D+01 -.160069036116073D+02 -.486785189593733D+02
 0.000000000000000D+00 0.000000000000000D+00 0.000000000000000D+00 0.000000000000000D+00
 0.371643215403636D+03 0.000000000000000D+00 0.000000000000000D+00 0.371643215403636D+03
 0.181766283273561D+03 0.000000000000000D+00 0.000000000000000D+00 -.181766283273561D+03
 0.169364162710980D+03 -.100690135079718D+03 -.234759046756759D+02 0.486785189593733D+02
 0.122807113695973D+03 -.654364672116361D+02 -.443039701465625D+02 -.486785189593733D+02
 0.261238222270244D+03 0.166126602291354D+03 0.677798748222384D+02 0.189876932130075D+03
0.243525567837D-03 0.000000000000D+00 0.000000000000D+00 0.244224159762D-02 0.000000000000D+00  5 -2 1 25 -24 21 0 0.24353049D-02 0.12919393D+00 0.10833874D+05 0.10833874D+05 0.10833874D+05 0.12642610D+01  1  2  2  1  5  1       -2 0.249060193400D+00 0.100000000000D+01
-.133571199100D-04 0.000000000000D+00 -.935202302249D-06 0.244224159762D-02 0.000000000000D+00  5 -2 1 25 -24 21 2 0.24353049D-02 0.12919393D+00 0.10833874D+05 0.10833874D+05 0.10833874D+05 0.12642610D+01  1  2  3  1  5  1       -2 -.218346403563D-01 0.100000000000D+01
0.166952606405D-04 0.000000000000D+00 0.000000000000D+00 0.244224159762D-02 0.000000000000D+00  5 -2 1 25 -24 21 2 0.24353049D-02 0.12919393D+00 0.10833874D+05 0.10833874D+05 0.10833874D+05 0.12642610D+01  1  2 15  1  5  1       -2 0.272914381389D-01 0.100000000000D+01
0.626804289349D-04 0.000000000000D+00 -.917182268658D-04 0.244224159762D-02 0.000000000000D+00  5 -2 1 25 -24 21 2 0.12532348D-01 0.12919393D+00 0.10833874D+05 0.10833874D+05 0.10833874D+05 0.12642610D+01  1  2  5  1  5  1       -2 0.868734969271D-02 0.100000000000D+01
0.942314343099D-05 0.000000000000D+00 -.183413555533D-04 0.244224159762D-02 0.000000000000D+00  5 21 1 25 -24 2 2 0.12532348D-01 0.12919393D+00 0.10833874D+05 0.10833874D+05 0.10833874D+05 0.12642610D+01  1  2  5  3  5  1       -2 0.199763431439D-01 0.100000000000D+01
  </mgrwgt>
  </event>
  <event>
  5     66 0.46019439E-03 0.12507405E+03 0.75467711E-02 0.11898049E+00
       -2 -1    0    0    0  502 0.00000000E+00 0.00000000E+00 0.19268455E+02 0.19271112E+02 0.32000000E+00 0.0000E+00 0.9000E+01
        1 -1    0    0  501    0 0.00000000E+00 0.00000000E+00 -.36740616E+04 0.36740616E+04 0.32000000E+00 0.0000E+00 0.9000E+01
       25  1    1    2    0    0 0.71337511E+02 0.26275647E+01 -.30067292E+04 0.30101730E+04 0.12500000E+03 0.0000E+00 0.9000E+01
      -24  1    1    2    0    0 -.57548107E+02 0.56153741E+02 -.58460948E+03 0.59556737E+03 0.80419002E+02 0.0000E+00 0.9000E+01
       21  1    1    2  501  502 -.13789403E+02 -.58781306E+02 -.63454420E+02 0.87592326E+02 0.75000000E+00 0.0000E+00 0.9000E+01
#aMCatNLO 2  0  0  1  2 0.60377062D+02 0.00000000D+00  -5  5  0 0.00000000D+00 0.00000000D+00 0.00000000D+00 0.00000000D+00 0.00000000D+00
  <mgrwgt>
 0.3090518770D-01    2    2    0
 0.158117525207342D+03 0.000000000000000D+00 0.000000000000000D+00 0.158117525207342D+03
 0.158117525207342D+03 0.000000000000000D+00 0.000000000000000D+00 -.158117525207342D+03
 0.172596919622383D+03 0.638685810463164D+02 -.292109007927977D+02 -.960844643693187D+02
 0.143638130792300D+03 -.638685810463164D+02 0.292109007927977D+02 0.960844643693187D+02
 0.000000000000000D+00 -.000000000000000D+00 -.000000000000000D+00 0.000000000000000D+00
 0.430771822025080D+03 0.000000000000000D+00 0.000000000000000D+00 0.430771822025080D+03
 0.164351482806884D+03 0.000000000000000D+00 0.000000000000000D+00 -.164351482806884D+03
 0.173069837999181D+03 0.713375107186705D+02 0.262756472567202D+01 -.960844643693187D+02
 0.148877357484917D+03 -.575481074634653D+02 0.561537412071156D+02 0.960844643693187D+02
 0.273176109347866D+03 -.137894032552052D+02 -.587813059327876D+02 0.266420339218196D+03
-.607657195401D-02 0.000000000000D+00 0.000000000000D+00 0.154938199640D-02 0.000000000000D+00  5 -2 1 25 -24 21 2 0.29433043D-02 0.54379885D+00 0.25288123D+05 0.25288123D+05 0.25288123D+05 0.12227645D+01  1  2 13  1  5  1       -2 -.107276332733D+00 0.100000000000D+01
0.100988003186D-01 0.000000000000D+00 0.000000000000D+00 0.154938199640D-02 0.547544623400D-05  5 -2 1 25 -24 21 2 0.29645740D-02 0.56523872D+00 0.25288123D+05 0.25288123D+05 0.25288123D+05 0.12227645D+01  1  2  1  1  5  1       -2 0.138181520428D+00 0.100000000000D+01
  </mgrwgt>
  </event>
  <event>
  4     66 0.46019439E-03 0.12332079E+03 0.75467711E-02 0.11619873E+00
       -4 -1    0    0    0  501 0.00000000E+00 0.00000000E+00 0.74551973E+03 0.74552134E+03 0.15500000E+01 0.0000E+00 0.9000E+01
        3 -1    0    0  501    0 0.00000000E+00 0.00000000E+00 -.24514037E+02 0.24519135E+02 0.50000000E+00 0.0000E+00 0.9000E+01
       25  1    1    2    0    0 -.49826989E+02 -.44987080E+02 0.56196166E+03 0.57959682E+03 0.12500000E+03 0.0000E+00 0.9000E+01
      -24  1    1    2    0    0 0.49826989E+02 0.44987080E+02 0.15904404E+03 0.19044366E+03 0.80419002E+02 0.0000E+00 0.9000E+01
#aMCatNLO 1  0  0  1  2 0.10500104D+03 0.00000000D+00  -5  5  0 0.00000000D+00 0.00000000D+00 0.00000000D+00 0.00000000D+00 0.00000000D+00
  <mgrwgt>
 0.7735312234D-01    3    2    0
 0.135197195061770D+03 0.000000000000000D+00 0.000000000000000D+00 0.135197195061770D+03
 0.135197195061770D+03 0.000000000000000D+00 0.000000000000000D+00 -.135197195061770D+03
 0.152131318660720D+03 -.498269892050948D+02 -.449870800903078D+02 0.548850789300061D+02
 0.118263071462819D+03 0.498269892050948D+02 0.449870800903078D+02 -.548850789300061D+02
 0.000000000000000D+00 0.000000000000000D+00 -.000000000000000D+00 -.000000000000000D+00
 0.162601689376550D+03 0.000000000000000D+00 0.000000000000000D+00 0.162601689376550D+03
 0.301920815806458D+03 0.000000000000000D+00 0.000000000000000D+00 -.301920815806458D+03
 0.175228472245087D+03 -.107295051741417D+03 -.235672965781200D+02 0.548850789300061D+02
 0.114837630081233D+03 0.890612456094393D+01 0.602393092959690D+02 -.548850789300061D+02
 0.174456402856689D+03 0.983889271804728D+02 -.366720127178491D+02 -.139319126429908D+03
0.178360676416D-02 0.000000000000D+00 0.000000000000D+00 0.217810127313D-02 0.000000000000D+00  5 -4 3 25 -24 21 0 0.11469586D+00 0.37719064D-02 0.15208016D+05 0.15208016D+05 0.15208016D+05 0.12471412D+01  1  2  2  1  5  1       -4 0.757019661189D-01 0.100000000000D+01
-.980707471977D-04 0.000000000000D+00 -.684951960882D-05 0.217810127313D-02 0.000000000000D+00  5 -4 3 25 -24 21 2 0.11469586D+00 0.37719064D-02 0.15208016D+05 0.15208016D+05 0.15208016D+05 0.12471412D+01  1  2  3  1  5  1       -4 -.647409115113D-02 0.100000000000D+01
0.123082771353D-03 0.000000000000D+00 0.000000000000D+00 0.217810127313D-02 0.000000000000D+00  5 -4 3 25 -24 21 2 0.11469586D+00 0.37719064D-02 0.15208016D+05 0.15208016D+05 0.15208016D+05 0.12471412D+01  1  2 15  1  5  1       -4 0.812524737132D-02 0.100000000000D+01
  </mgrwgt>
  </event>
  <event>
  5     66 -.46019439E-03 0.10405237E+03 0.75467711E-02 0.12639537E+00
       -2 -1    0    0    0  502 0.00000000E+00 0.00000000E+00 0.87145423E+01 0.87204156E+01 0.32000000E+00 0.0000E+00 0.9000E+01
        1 -1    0    0  501    0 0.00000000E+00 0.00000000E+00 -.28460746E+04 0.28460746E+04 0.32000000E+00 0.0000E+00 0.9000E+01
       25  1    1    2    0    0 -.84247113E+01 0.76891450E+01 -.14783760E+04 0.14836950E+04 0.12500000E+03 0.0000E+00 0.9000E+01
      -24  1    1    2    0    0 0.14842078E+02 -.12656633E+02 -.13603258E+04 0.13628404E+04 0.80419002E+02 0.0000E+00 0.9000E+01
       21  1    1    2  501  502 -.64173671E+01 0.49674880E+01 0.13417939E+01 0.82596276E+01 0.75000000E+00 0.0000E+00 0.9000E+01
#aMCatNLO 2  0  0  1  2 0.81153273D+01 0.00000000D+00  -5  5  0 0.00000000D+00 0.00000000D+00 0.00000000D+00 0.00000000D+00 0.00000000D+00
  <mgrwgt>
 -.3017478831D-01    2    2    0
 0.105439266830020D+03 0.000000000000000D+00 0.000000000000000D+00 0.105439266830020D+03
 0.105439266830020D+03 0.000000000000000D+00 0.000000000000000D+00 -.105439266830020D+03
 0.127152676646291D+03 -.122846565759835D+02 0.106770108733867D+02 0.166700878802729D+02
 0.837258570137495D+02 0.122846565759835D+02 -.106770108733867D+02 -.166700878802729D+02
 0.000000000000000D+00 -.000000000000000D+00 0.000000000000000D+00 0.000000000000000D+00
 0.234845238103261D+03 0.000000000000000D+00 0.000000000000000D+00 0.234845238103261D+03
 0.105644623533181D+03 0.000000000000000D+00 0.000000000000000D+00 -.105644623533181D+03
 0.126621445823948D+03 -.842471133243324D+01 0.768914504844855D+01 0.166700878802729D+02
 0.844131828428712D+02 0.148420784314202D+02 -.126566330907167D+02 -.166700878802729D+02
 0.129455232969623D+03 -.641736709898697D+01 0.496748804226811D+01 0.129200614570079D+03
-.207164287826D-01 0.000000000000D+00 0.000000000000D+00 0.308350533316D-02 0.000000000000D+00  5 -2 1 25 -24 21 2 0.13409554D-02 0.43700246D+00 0.11705664D+05 0.11705664D+05 0.11705664D+05 0.12602901D+01  1  2 13  1  5  1       -2 -.383548339420D+01 0.100000000000D+01
0.207336305582D-01 0.000000000000D+00 0.000000000000D+00 0.308350533316D-02 0.530274944866D-03  5 -2 1 25 -24 21 2 0.13411382D-02 0.43785358D+00 0.11705664D+05 0.11705664D+05 0.11705664D+05 0.12602901D+01  1  2  1  1  5  1       -2 0.380530860589D+01 0.100000000000D+01
  </mgrwgt>
  </event>
  <event>
  4     66 0.46019439E-03 0.10557352E+03 0.75467711E-02 0.10660887E+00
       -2 -1    0    0    0  501 0.00000000E+00 0.00000000E+00 0.39514754E+03 0.39514767E+03 0.32000000E+00 0.0000E+00 0.9000E+01
        1 -1    0    0  501    0 0.00000000E+00 0.00000000E+00 -.35808119E+02 0.35809549E+02 0.32000000E+00 0.0000E+00 0.9000E+01
       25  1    1    2    0    0 -.69058806E+01 -.22852641E+02 0.11111935E+03 0.16894509E+03 0.12500000E+03 0.0000E+00 0.9000E+01
      -24  1    1    2    0    0 0.69058806E+01 0.22852641E+02 0.24822007E+03 0.26201212E+03 0.80419002E+02 0.0000E+00 0.9000E+01
#aMCatNLO 1  0  0  1  2 0.30962259D+03 0.00000000D+00  -5  5  0 0.00000000D+00 0.00000000D+00 0.00000000D+00 0.00000000D+00 0.00000000D+00
  <mgrwgt>
 0.1790371220D+00    5    2    0
 0.118953041498737D+03 0.000000000000000D+00 0.000000000000000D+00 0.118953041498737D+03
 0.118953041498737D+03 0.000000000000000D+00 0.000000000000000D+00 -.118953041498737D+03
 0.138199678512484D+03 -.690588057047494D+01 -.228526410127903D+02 -.538907854205232D+02
 0.997064044849905D+02 0.690588057047494D+01 0.228526410127903D+02 0.538907854205232D+02
 0.000000000000000D+00 0.000000000000000D+00 0.000000000000000D+00 0.000000000000000D+00
 0.386311271175868D+03 0.000000000000000D+00 0.000000000000000D+00 0.386311271175868D+03
 0.320662707099573D+03 0.000000000000000D+00 0.000000000000000D+00 -.320662707099573D+03
 0.252199516682439D+03 -.158600414423151D+03 -.141142792966626D+03 -.538907854205232D+02
 0.138268727755141D+03 -.855623601380423D+02 -.492533338467737D+02 0.538907854205232D+02
 0.316505733837862D+03 0.244162774561193D+03 0.190396126813399D+03 0.656485640762956D+02
0.555569321206D-03 0.000000000000D+00 0.000000000000D+00 0.230733185593D-02 0.000000000000D+00  5 -2 1 25 -24 21 0 0.60792049D-01 0.55090613D-02 0.11145769D+05 0.11145769D+05 0.11145769D+05 0.12628003D+01  1  2  2  1  5  1       -2 0.171021153838D+00 0.100000000000D+01
-.303306655689D-04 0.000000000000D+00 -.213353247819D-05 0.230733185593D-02 0.000000000000D+00  5 -2 1 25 -24 21 2 0.60792049D-01 0.55090613D-02 0.11145769D+05 0.11145769D+05 0.11145769D+05 0.12628003D+01  1  2  3  1  5  1       -2 -.148889082949D-01 0.100000000000D+01
0.379857268831D-04 0.000000000000D+00 0.000000000000D+00 0.230733185593D-02 0.000000000000D+00  5 -2 1 25 -24 21 2 0.60792049D-01 0.55090613D-02 0.11145769D+05 0.11145769D+05 0.11145769D+05 0.12628003D+01  1  2 15  1  5  1       -2 0.186466730443D-01 0.100000000000D+01
0.428817597157D-03 0.000000000000D+00 -.222423384361D-03 0.230733185593D-02 0.000000000000D+00  5 -2 1 25 -24 21 2 0.37028432D+00 0.55090613D-02 0.11145769D+05 0.11145769D+05 0.11145769D+05 0.12628003D+01  1  2  5  1  5  1       -2 0.128219283295D-02 0.100000000000D+01
0.800840227748D-04 0.000000000000D+00 -.492544328446D-04 0.230733185593D-02 0.000000000000D+00  5 21 1 25 -24 2 2 0.37028432D+00 0.55090613D-02 0.11145769D+05 0.11145769D+05 0.11145769D+05 0.12628003D+01  1  2  5  3  5  1       -2 0.297601054375D-02 0.100000000000D+01
  </mgrwgt>
  </event>
  <event>
  4     66 0.46019439E-03 0.12034662E+03 0.75467711E-02 0.11170261E+00
       -2 -1    0    0    0  501 0.00000000E+00 0.00000000E+00 0.28795544E+03 0.28795562E+03 0.32000000E+00 0.0000E+00 0.9000E+01
        1 -1    0    0  501    0 0.00000000E+00 0.00000000E+00 -.52914898E+02 0.52915866E+02 0.32000000E+00 0.0000E+00 0.9000E+01
       25  1    1    2    0    0 -.12621662E+02 0.60330744E+02 0.97717129E+02 0.17021381E+03 0.12500000E+03 0.0000E+00 0.9000E+01
      -24  1    1    2    0    0 0.12621662E+02 -.60330744E+02 0.13732342E+03 0.17065767E+03 0.80419002E+02 0.0000E+00 0.9000E+01
#aMCatNLO 1  0  0  2  2 0.18531485D+03 0.00000000D+00  -5  5  0 0.00000000D+00 0.00000000D+00 0.00000000D+00 0.00000000D+00 0.00000000D+00
  <mgrwgt>
 0.2161328112D+00    3    2    0
 0.123439572954232D+03 0.000000000000000D+00 0.000000000000000D+00 0.123439572954232D+03
 0.123439572954232D+03 0.000000000000000D+00 0.000000000000000D+00 -.123439572954232D+03
 0.141986672207858D+03 -.126216618687497D+02 0.603307435344165D+02 -.271313494120205D+02
 0.104892473700606D+03 0.126216618687497D+02 -.603307435344165D+02 0.271313494120205D+02
 0.000000000000000D+00 0.000000000000000D+00 -.000000000000000D+00 0.000000000000000D+00
 0.311431776305355D+03 0.000000000000000D+00 0.000000000000000D+00 0.311431776305355D+03
 0.209000376957909D+03 0.000000000000000D+00 0.000000000000000D+00 -.209000376957909D+03
 0.211379435530661D+03 -.108944741680414D+03 0.128262227115123D+03 -.271313494120205D+02
 0.973128169058631D+02 -.424969132262905D+02 -.214585792890279D+02 0.271313494120205D+02
 0.211739900826740D+03 0.151441654906704D+03 -.106803647826095D+03 0.102431399347446D+03
0.613793828334D-03 0.000000000000D+00 0.000000000000D+00 0.260678973812D-02 0.000000000000D+00  5 -2 1 25 -24 21 0 0.44300926D-01 0.81408417D-02 0.14483309D+05 0.14483309D+05 0.14483309D+05 0.12495618D+01  1  2  2  2  5  2        1 0.211619087019D+00 0.100000000000D+01
-.340729599020D-04 0.000000000000D+00 -.235712991643D-05 0.260678973812D-02 0.000000000000D+00  5 -2 1 25 -24 21 2 0.44300926D-01 0.81408417D-02 0.14483309D+05 0.14483309D+05 0.14483309D+05 0.12495618D+01  1  2  3  2  5  2        1 -.183424624090D-01 0.100000000000D+01
0.424576542985D-04 0.000000000000D+00 0.000000000000D+00 0.260678973812D-02 0.000000000000D+00  5 -2 1 25 -24 21 2 0.44300926D-01 0.81408417D-02 0.14483309D+05 0.14483309D+05 0.14483309D+05 0.12495618D+01  1  2 15  2  5  2        1 0.228561865534D-01 0.100000000000D+01
  </mgrwgt>
  </event>
  <event>
  4     66 0.46019439E-03 0.76877234E+02 0.75467711E-02 0.12250646E+00
       -2 -1    0    0    0  501 0.00000000E+00 0.00000000E+00 0.19281244E+02 0.19283900E+02 0.32000000E+00 0.0000E+00 0.9000E+01
        1 -1    0    0  501    0 0.00000000E+00 0.00000000E+00 -.88625927E+03 0.88625933E+03 0.32000000E+00 0.0000E+00 0.9000E+01
       25  1    1    2    0    0 -.53157748E+02 -.58245894E+02 -.45181774E+03 0.47537627E+03 0.12500000E+03 0.0000E+00 0.9000E+01
      -24  1    1    2    0    0 0.53157748E+02 0.58245894E+02 -.41516029E+03 0.43016696E+03 0.80419002E+02 0.0000E+00 0.9000E+01
#aMCatNLO 1  0  0  1  2 0.28092689D+01 0.00000000D+00  -5  5  0 0.00000000D+00 0.00000000D+00 0.00000000D+00 0.00000000D+00 0.00000000D+00
  <mgrwgt>
 0.2309880754D+00    8    2    0
 0.130726470102779D+03 0.000000000000000D+00 0.000000000000000D+00 0.130726470102779D+03
 0.130726470102779D+03 0.000000000000000D+00 0.000000000000000D+00 -.130726470102779D+03
 0.148239725142921D+03 -.531577477333539D+02 -.582458942807969D+02 0.114754418562424D+02
 0.113213215062638D+03 0.531577477333539D+02 0.582458942807969D+02 -.114754418562424D+02
 0.000000000000000D+00 -.000000000000000D+00 0.000000000000000D+00 -.000000000000000D+00
 0.131816987620197D+03 0.000000000000000D+00 0.000000000000000D+00 0.131816987620197D+03
 0.132555853655562D+03 0.000000000000000D+00 0.000000000000000D+00 -.132555853655562D+03
 0.148250265503810D+03 -.519837541048564D+02 -.593223799701248D+02 0.114754418562424D+02
 0.113217766833004D+03 0.540543329079835D+02 0.574237764376297D+02 -.114754418562424D+02
 0.290480893894561D+01 -.207057880312710D+01 0.189860353249508D+01 -.738866035365197D+00
0.242774770923D-03 0.000000000000D+00 0.000000000000D+00 0.259316126708D-02 0.000000000000D+00  5 -2 1 25 -24 21 0 0.29665540D-02 0.13634779D+00 0.16955298D+05 0.16955298D+05 0.16955298D+05 0.12418013D+01  1  2  2  1  5  1       -2 0.173657588589D+00 0.100000000000D+01
-.134872327946D-04 0.000000000000D+00 -.932319044411D-06 0.259316126708D-02 0.000000000000D+00  5 -2 1 25 -24 21 2 0.29665540D-02 0.13634779D+00 0.16955298D+05 0.16955298D+05 0.16955298D+05 0.12418013D+01  1  2  3  1  5  1       -2 -.148770663550D-01 0.100000000000D+01
0.167256970092D-04 0.000000000000D+00 0.000000000000D+00 0.259316126708D-02 0.000000000000D+00  5 -2 1 25 -24 21 2 0.29665540D-02 0.13634779D+00 0.16955298D+05 0.16955298D+05 0.16955298D+05 0.12418013D+01  1  2 15  1  5  1       -2 0.184492481170D-01 0.100000000000D+01
0.108583863988D-05 0.000000000000D+00 0.000000000000D+00 0.259316126708D-02 0.000000000000D+00  5 -2 1 25 -24 21 2 0.30118288D-02 0.13634779D+00 0.17325067D+05 0.17325067D+05 0.17325067D+05 0.12407504D+01  1  2 12  1  5  1       -2 0.117008617106D-02 0.100000000000D+01
-.816365538974D-03 0.000000000000D+00 0.000000000000D+00 0.259316126708D-02 0.000000000000D+00  5 -2 1 25 -24 21 2 0.29665540D-02 0.13634779D+00 0.16955298D+05 0.16955298D+05 0.16955298D+05 0.12418013D+01  1  2  4  1  5  1       -2 -.900490447387D+00 0.100000000000D+01
0.815836492075D-03 0.000000000000D+00 0.000000000000D+00 0.259316126708D-02 0.269816032334D-02  5 -2 1 25 -24 21 2 0.29913009D-02 0.13825584D+00 0.17325067D+05 0.17325067D+05 0.17325067D+05 0.12407504D+01  1  2 11  1  5  1       -2 0.868678058643D+00 0.100000000000D+01
0.410910744444D-07 0.000000000000D+00 0.000000000000D+00 0.259316126708D-02 0.000000000000D+00  5 21 1 25 -24 2 2 0.30118288D-02 0.13634779D+00 0.17325067D+05 0.17325067D+05 0.17325067D+05 0.12407504D+01  1  2 12  3  5  1       -2 0.867385174453D-03 0.100000000000D+01
0.400018122593D-05 0.000000000000D+00 0.000000000000D+00 0.259316126708D-02 0.418165872384D-05  5 21 1 25 -24 2 2 0.29913009D-02 0.13825584D+00 0.17325067D+05 0.17325067D+05 0.17325067D+05 0.12407504D+01  1  2 11  3  5  1       -2 0.835332224807D-01 0.100000000000D+01
  </mgrwgt>
  </event>
  <event>
  4     66 0.46019439E-03 0.10344735E+03 0.75467711E-02 0.11275424E+00
       -2 -1    0    0    0  501 0.00000000E+00 0.00000000E+00 0.33675371E+02 0.33676891E+02 0.32000000E+00 0.0000E+00 0.9000E+01
        1 -1    0    0  501    0 0.00000000E+00 0.00000000E+00 -.31789981E+03 0.31789997E+03 0.32000000E+00 0.0000E+00 0.9000E+01
       25  1    1    2    0    0 -.11198659E+02 -.44318102E+01 -.17595859E+03 0.21617464E+03 0.12500000E+03 0.0000E+00 0.9000E+01
      -24  1    1    2    0    0 0.11198659E+02 0.44318102E+01 -.10826585E+03 0.13540222E+03 0.80419002E+02 0.0000E+00 0.9000E+01
#aMCatNLO 1  0  0  1  2 0.18193415D+03 0.00000000D+00  -5  5  0 0.00000000D+00 0.00000000D+00 0.00000000D+00 0.00000000D+00 0.00000000D+00
  <mgrwgt>
 0.1340934406D+00    5    2    0
 0.103468302202625D+03 0.000000000000000D+00 0.000000000000000D+00 0.103468302202625D+03
 0.103468302202625D+03 0.000000000000000D+00 0.000000000000000D+00 -.103468302202625D+03
 0.125595330120063D+03 -.111986589979265D+02 -.443181019147451D+01 -.203372639319888D+01
 0.813412742851870D+02 0.111986589979265D+02 0.443181019147451D+01 0.203372639319888D+01
 0.000000000000000D+00 -.000000000000000D+00 -.000000000000000D+00 0.000000000000000D+00
 0.263839624267338D+03 0.000000000000000D+00 0.000000000000000D+00 0.263839624267338D+03
 0.203409099349766D+03 0.000000000000000D+00 0.000000000000000D+00 -.203409099349766D+03
 0.159699794840238D+03 0.321506666130565D+02 0.940277781578809D+02 -.203372639319888D+01
 0.115841117962535D+03 0.411596466856359D+02 0.724823847435403D+02 0.203372639319888D+01
 0.191707810814332D+03 -.733103132986924D+02 -.166510162901421D+03 0.604305249175727D+02
0.909112833856D-04 0.000000000000D+00 0.000000000000D+00 0.321496377130D-02 0.000000000000D+00  5 -2 1 25 -24 21 0 0.51809556D-02 0.48907792D-01 0.10701355D+05 0.10701355D+05 0.10701355D+05 0.12648960D+01  1  2  2  1  5  1       -2 0.110975400009D+00 0.100000000000D+01
-.505062660301D-05 0.000000000000D+00 -.349123265691D-06 0.321496377130D-02 0.000000000000D+00  5 -2 1 25 -24 21 2 0.51809556D-02 0.48907792D-01 0.10701355D+05 0.10701355D+05 0.10701355D+05 0.12648960D+01  1  2  3  1  5  1       -2 -.986424448927D-02 0.100000000000D+01
0.628395942020D-05 0.000000000000D+00 0.000000000000D+00 0.321496377130D-02 0.000000000000D+00  5 -2 1 25 -24 21 2 0.51809556D-02 0.48907792D-01 0.10701355D+05 0.10701355D+05 0.10701355D+05 0.12648960D+01  1  2 15  1  5  1       -2 0.122730340122D-01 0.100000000000D+01
0.402031059779D-04 0.000000000000D+00 -.332234522361D-04 0.321496377130D-02 0.000000000000D+00  5 -2 1 25 -24 21 2 0.25605262D-01 0.48907792D-01 0.10701355D+05 0.10701355D+05 0.10701355D+05 0.12648960D+01  1  2  5  1  5  1       -2 0.616459186135D-02 0.100000000000D+01
0.695344109418D-05 0.000000000000D+00 -.646527686969D-05 0.321496377130D-02 0.000000000000D+00  5 21 1 25 -24 2 2 0.25605262D-01 0.48907792D-01 0.10701355D+05 0.10701355D+05 0.10701355D+05 0.12648960D+01  1  2  5  3  5  1       -2 0.145446591875D-01 0.100000000000D+01
  </mgrwgt>
  </event>
  <event>
  4     66 0.46019439E-03 0.88110120E+02 0.75467711E-02 0.11557893E+00
       -2 -1    0    0    0  501 0.00000000E+00 0.00000000E+00 0.22526301E+02 0.22528574E+02 0.32000000E+00 0.0000E+00 0.9000E+01
        1 -1    0    0  501    0 0.00000000E+00 0.00000000E+00 -.96645656E+03 0.96645661E+03 0.32000000E+00 0.0000E+00 0.9000E+01
       25  1    1    2    0    0 -.22604002E+02 -.96642283E+02 -.40964950E+03 0.43964575E+03 0.12500000E+03 0.0000E+00 0.9000E+01
      -24  1    1    2    0    0 0.22604002E+02 0.96642283E+02 -.53428075E+03 0.54933943E+03 0.80419002E+02 0.0000E+00 0.9000E+01
#aMCatNLO 1  0  0  1  2 0.86367499D+02 0.00000000D+00  -5  5  0 0.00000000D+00 0.00000000D+00 0.00000000D+00 0.00000000D+00 0.00000000D+00
  <mgrwgt>
 0.2067039009D+00    9    2    0
 0.147552841853865D+03 0.000000000000000D+00 0.000000000000000D+00 0.147552841853865D+03
 0.147552841853865D+03 0.000000000000000D+00 0.000000000000000D+00 -.147552841853865D+03
 0.163068951083905D+03 -.226040024833517D+02 -.966422831455052D+02 0.334037570905068D+02
 0.132036732623825D+03 0.226040024833517D+02 0.966422831455052D+02 -.334037570905068D+02
 0.000000000000000D+00 0.000000000000000D+00 0.000000000000000D+00 0.000000000000000D+00
 0.247872144497594D+03 0.000000000000000D+00 0.000000000000000D+00 0.247872144497594D+03
 0.173553548391744D+03 0.000000000000000D+00 0.000000000000000D+00 -.173553548391744D+03
 0.192057640644405D+03 -.635090253005032D+02 -.126932777671939D+03 0.334037570905068D+02
 0.115426845742587D+03 -.589992697523496D+01 0.755348968201965D+02 -.334037570905068D+02
 0.113941206502346D+03 0.694089522757382D+02 0.513978808517430D+02 0.743185961058507D+02
0.439989033282D-03 0.000000000000D+00 0.000000000000D+00 0.231621140602D-02 0.000000000000D+00  5 -2 1 25 -24 21 0 0.34657636D-02 0.14868580D+00 0.20642863D+05 0.20642863D+05 0.20642863D+05 0.12323163D+01  1  2  2  1  5  1       -2 0.218563917703D+00 0.100000000000D+01
-.244227686058D-04 0.000000000000D+00 -.168967373958D-05 0.231621140602D-02 0.000000000000D+00  5 -2 1 25 -24 21 2 0.34657636D-02 0.14868580D+00 0.20642863D+05 0.20642863D+05 0.20642863D+05 0.12323163D+01  1  2  3  1  5  1       -2 -.184236581875D-01 0.100000000000D+01
0.302894712067D-04 0.000000000000D+00 0.000000000000D+00 0.231621140602D-02 0.000000000000D+00  5 -2 1 25 -24 21 2 0.34657636D-02 0.14868580D+00 0.20642863D+05 0.20642863D+05 0.20642863D+05 0.12323163D+01  1  2 15  1  5  1       -2 0.228492876136D-01 0.100000000000D+01
0.101594674631D-03 0.000000000000D+00 0.000000000000D+00 0.231621140602D-02 0.000000000000D+00  5 -2 1 25 -24 21 2 0.59544834D-02 0.14868580D+00 0.37246242D+05 0.37246242D+05 0.37246242D+05 0.12051588D+01  1  2 12  1  5  1       -2 0.327663660712D-01 0.100000000000D+01
-.243473088485D-03 0.000000000000D+00 0.000000000000D+00 0.231621140602D-02 0.000000000000D+00  5 -2 1 25 -24 21 2 0.34657636D-02 0.14868580D+00 0.20642863D+05 0.20642863D+05 0.20642863D+05 0.12323163D+01  1  2  4  1  5  1       -2 -.183667340608D+00 0.100000000000D+01
-.243271702514D-03 0.000000000000D+00 -.125326664313D-03 0.231621140602D-02 0.000000000000D+00  5 -2 1 25 -24 21 2 0.68704029D-02 0.14868580D+00 0.20642863D+05 0.20642863D+05 0.20642863D+05 0.12323163D+01  1  2  5  1  5  1       -2 -.656186410699D-01 0.100000000000D+01
0.284352101670D-03 0.000000000000D+00 0.100793045132D-03 0.231621140602D-02 0.000000000000D+00  5 -2 1 25 -24 21 2 0.34657636D-02 0.14868580D+00 0.20642863D+05 0.20642863D+05 0.20642863D+05 0.12323163D+01  1  2  6  1  5  1       -2 0.214504997801D+00 0.100000000000D+01
0.610710314532D-05 0.000000000000D+00 0.000000000000D+00 0.231621140602D-02 0.000000000000D+00  5 21 1 25 -24 2 2 0.59544834D-02 0.14868580D+00 0.37246242D+05 0.37246242D+05 0.37246242D+05 0.12051588D+01  1  2 12  3  5  1       -2 0.337393282265D-01 0.100000000000D+01
-.105554115591D-04 0.000000000000D+00 -.928342797505D-05 0.231621140602D-02 0.000000000000D+00  5 21 1 25 -24 2 2 0.68704029D-02 0.14868580D+00 0.20642863D+05 0.20642863D+05 0.20642863D+05 0.12323163D+01  1  2  5  3  5  1       -2 -.480103566733D-01 0.100000000000D+01
  </mgrwgt>
  </event>
  <event>
  4     66 0.46019439E-03 0.66372666E+02 0.75467711E-02 0.12316679E+00
       -4 -1    0    0    0  501 0.00000000E+00 0.00000000E+00 0.43395837E+02 0.43423509E+02 0.15500000E+01 0.0000E+00 0.9000E+01
        3 -1    0    0  501    0 0.00000000E+00 0.00000000E+00 -.47183666E+03 0.47183692E+03 0.50000000E+00 0.0000E+00 0.9000E+01
       25  1    1    2    0    0 -.71928923E+01 -.63308061E+02 -.37327027E+03 0.39876728E+03 0.12500000E+03 0.0000E+00 0.9000E+01
      -24  1    1    2    0    0 0.71928923E+01 0.63308061E+02 -.55170545E+02 0.11649315E+03 0.80419002E+02 0.0000E+00 0.9000E+01
#aMCatNLO 1  0  0  1  2 0.11054028D+02 0.00000000D+00  -5  5  0 0.00000000D+00 0.00000000D+00 0.00000000D+00 0.00000000D+00 0.00000000D+00
  <mgrwgt>
 0.2723064562D-01    6    2    0
 0.143118635689568D+03 0.000000000000000D+00 0.000000000000000D+00 0.143118635689568D+03
 0.143118635689568D+03 0.000000000000000D+00 0.000000000000000D+00 -.143118635689568D+03
 0.159115476355191D+03 -.719289226994361D+01 -.633080614791141D+02 -.750538904274055D+02
 0.127121795023945D+03 0.719289226994361D+01 0.633080614791141D+02 0.750538904274055D+02
 0.000000000000000D+00 0.000000000000000D+00 -.000000000000000D+00 -.000000000000000D+00
 0.148530558148248D+03 0.000000000000000D+00 0.000000000000000D+00 0.148530558148248D+03
 0.148983376688277D+03 0.000000000000000D+00 0.000000000000000D+00 -.148983376688277D+03
 0.157233867751678D+03 -.101660401817110D+02 -.579746007048518D+02 -.750538904274055D+02
 0.129216768581558D+03 0.478374403149593D+01 0.676297763787626D+02 0.750538904274055D+02
 0.110632985032897D+02 0.538229615021504D+01 -.965517567391076D+01 -.452818540029303D+00
0.233703580100D-03 0.000000000000D+00 0.000000000000D+00 0.185491032365D-02 0.000000000000D+00  5 -4 3 25 -24 21 0 0.66784316D-02 0.72592404D-01 0.14750406D+05 0.14750406D+05 0.14750406D+05 0.12486541D+01  1  2  2  1  5  1       -4 0.123769404246D-01 0.100000000000D+01
-.125581158924D-04 0.000000000000D+00 -.897483283149D-06 0.185491032365D-02 0.000000000000D+00  5 -4 3 25 -24 21 2 0.66784316D-02 0.72592404D-01 0.14750406D+05 0.14750406D+05 0.14750406D+05 0.12486541D+01  1  2  3  1  5  1       -4 -.103694745546D-02 0.100000000000D+01
0.159677621879D-04 0.000000000000D+00 0.000000000000D+00 0.185491032365D-02 0.000000000000D+00  5 -4 3 25 -24 21 2 0.66784316D-02 0.72592404D-01 0.14750406D+05 0.14750406D+05 0.14750406D+05 0.12486541D+01  1  2 15  1  5  1       -4 0.131848841912D-02 0.100000000000D+01
0.403275170547D-03 0.000000000000D+00 0.000000000000D+00 0.185491032365D-02 0.000000000000D+00  5 -4 3 25 -24 21 2 0.70625357D-02 0.72592404D-01 0.16180278D+05 0.16180278D+05 0.16180278D+05 0.12440899D+01  1  2 12  1  5  1       -4 0.304105135382D-01 0.100000000000D+01
-.299821921469D-03 0.000000000000D+00 0.000000000000D+00 0.185491032365D-02 0.000000000000D+00  5 -4 3 25 -24 21 2 0.66784316D-02 0.72592404D-01 0.14750406D+05 0.14750406D+05 0.14750406D+05 0.12486541D+01  1  2  4  1  5  1       -4 -.247568649009D-01 0.100000000000D+01
0.435827201727D-05 0.000000000000D+00 0.000000000000D+00 0.185491032365D-02 0.000000000000D+00  5 21 3 25 -24 4 2 0.70625357D-02 0.72592404D-01 0.16180278D+05 0.16180278D+05 0.16180278D+05 0.12440899D+01  1  2 12  3  5  1       -4 0.891851559219D-02 0.100000000000D+01
  </mgrwgt>
  </event>
  <event>
  4     66 0.46019439E-03 0.81373788E+02 0.75467711E-02 0.11635909E+00
       -2 -1    0    0    0  501 0.00000000E+00 0.00000000E+00 0.15912617E+02 0.15915834E+02 0.32000000E+00 0.0000E+00 0.9000E+01
        1 -1    0    0  501    0 0.00000000E+00 0.00000000E+00 -.22438123E+04 0.22438123E+04 0.32000000E+00 0.0000E+00 0.9000E+01
       25  1    1    2    0    0 -.63220333E+02 -.89190841E+02 -.18633510E+04 0.18707362E+04 0.12500000E+03 0.0000E+00 0.9000E+01
      -24  1    1    2    0    0 0.63220333E+02 0.89190841E+02 -.36454864E+03 0.38899196E+03 0.80419002E+02 0.0000E+00 0.9000E+01
#aMCatNLO 1  0  0  2  1 0.61054994D+02 0.00000000D+00  -5  5  0 0.00000000D+00 0.00000000D+00 0.00000000D+00 0.00000000D+00 0.00000000D+00
  <mgrwgt>
 0.3321301986D+00    9    2    0
 0.188967158075984D+03 0.000000000000000D+00 0.000000000000000D+00 0.188967158075984D+03
 0.188967158075984D+03 0.000000000000000D+00 0.000000000000000D+00 -.188967158075984D+03
 0.201082734320650D+03 -.632203333868948D+02 -.891908414651003D+02 -.113390693123670D+03
 0.176851581831318D+03 0.632203333868948D+02 0.891908414651003D+02 0.113390693123670D+03
 0.000000000000000D+00 0.000000000000000D+00 -.000000000000000D+00 -.000000000000000D+00
 0.221931038331277D+03 0.000000000000000D+00 0.000000000000000D+00 0.221931038331277D+03
 0.221958207478585D+03 0.000000000000000D+00 0.000000000000000D+00 -.221958207478585D+03
 0.204909744229831D+03 -.910405033822536D+02 -.722300542514992D+02 -.113390693123670D+03
 0.177924501408014D+03 0.389097082707731D+02 0.104012006817180D+03 0.113390693123670D+03
 0.610550001720161D+02 0.521307951114805D+02 -.317819525656803D+02 -.271691473084367D-01
0.138281810088D-02 0.000000000000D+00 0.000000000000D+00 0.145021731596D-02 0.000000000000D+00  5 -2 1 25 -24 21 0 0.24483442D-02 0.34520214D+00 0.22767706D+05 0.22767706D+05 0.22767706D+05 0.12276768D+01  1  2  2  2  5  2        1 0.164832205976D+00 0.100000000000D+01
-.720935464377D-04 0.000000000000D+00 -.531038561176D-05 0.145021731596D-02 0.000000000000D+00  5 -2 1 25 -24 21 2 0.24483442D-02 0.34520214D+00 0.22767706D+05 0.22767706D+05 0.22767706D+05 0.12276768D+01  1  2  3  2  5  2        1 -.129521392511D-01 0.100000000000D+01
0.950584558558D-04 0.000000000000D+00 0.000000000000D+00 0.145021731596D-02 0.000000000000D+00  5 -2 1 25 -24 21 2 0.24483442D-02 0.34520214D+00 0.22767706D+05 0.22767706D+05 0.22767706D+05 0.12276768D+01  1  2 15  2  5  2        1 0.170779552134D-01 0.100000000000D+01
0.717888472380D-03 0.000000000000D+00 0.000000000000D+00 0.145021731596D-02 0.000000000000D+00  5 -2 1 25 -24 21 2 0.24483442D-02 0.43070458D+00 0.34011413D+05 0.34011413D+05 0.34011413D+05 0.12092193D+01  1  2 12  2  5  2        1 0.535553722486D-01 0.100000000000D+01
-.735134944282D-03 0.000000000000D+00 0.000000000000D+00 0.145021731596D-02 0.000000000000D+00  5 -2 1 25 -24 21 2 0.24483442D-02 0.34520214D+00 0.22767706D+05 0.22767706D+05 0.22767706D+05 0.12276768D+01  1  2  4  2  5  2        1 -.132072434180D+00 0.100000000000D+01
-.209393391165D-02 0.000000000000D+00 -.754027289655D-03 0.145021731596D-02 0.000000000000D+00  5 -2 1 25 -24 21 2 0.24483442D-02 0.43395163D+00 0.22767706D+05 0.22767706D+05 0.22767706D+05 0.12276768D+01  1  2  5  2  5  2        1 -.157181681783D+00 0.100000000000D+01
0.222721985296D-02 0.000000000000D+00 0.734711876065D-03 0.145021731596D-02 0.000000000000D+00  5 -2 1 25 -24 21 2 0.24483442D-02 0.34520214D+00 0.22767706D+05 0.22767706D+05 0.22767706D+05 0.12276768D+01  1  2  6  2  5  2        1 0.400136532378D+00 0.100000000000D+01
0.221851070687D-04 0.000000000000D+00 0.000000000000D+00 0.145021731596D-02 0.000000000000D+00  5 -2 21 25 -24 -1 2 0.24483442D-02 0.43070458D+00 0.34011413D+05 0.34011413D+05 0.34011413D+05 0.12092193D+01  1  2 12  4  5  2        1 0.804993025675D-03 0.100000000000D+01
-.554392652384D-04 0.000000000000D+00 -.238930694653D-04 0.145021731596D-02 0.000000000000D+00  5 -2 21 25 -24 -1 2 0.24483442D-02 0.43395163D+00 0.22767706D+05 0.22767706D+05 0.22767706D+05 0.12276768D+01  1  2  5  4  5  2        1 -.207060500669D-02 0.100000000000D+01
  </mgrwgt>
  </event>
  <event>
  4     66 0.46019439E-03 0.13386369E+03 0.75467711E-02 0.11690421E+00
       -2 -1    0    0    0  501 0.00000000E+00 0.00000000E+00 0.53284772E+02 0.53285733E+02 0.32000000E+00 0.0000E+00 0.9000E+01
        1 -1    0    0  501    0 0.00000000E+00 0.00000000E+00 -.37767421E+03 0.37767435E+03 0.32000000E+00 0.0000E+00 0.9000E+01
       25  1    1    2    0    0 -.78784454E+02 0.30966032E+02 -.10984024E+03 0.18669698E+03 0.12500000E+03 0.0000E+00 0.9000E+01
      -24  1    1    2    0    0 0.78784454E+02 -.30966032E+02 -.21454920E+03 0.24426310E+03 0.80419002E+02 0.0000E+00 0.9000E+01
#aMCatNLO 1  0  0  1  2 0.78306910D+02 0.00000000D+00  -5  5  0 0.00000000D+00 0.00000000D+00 0.00000000D+00 0.00000000D+00 0.00000000D+00
  <mgrwgt>
 0.2162204422D+00    4    2    0
 0.141860919482316D+03 0.000000000000000D+00 0.000000000000000D+00 0.141860919482316D+03
 0.141860919482316D+03 0.000000000000000D+00 0.000000000000000D+00 -.141860919482316D+03
 0.157999585576982D+03 -.787844540939924D+02 0.309660317890430D+02 0.466152733645265D+02
 0.125722253387650D+03 0.787844540939924D+02 -.309660317890430D+02 -.466152733645265D+02
 0.000000000000000D+00 -.000000000000000D+00 0.000000000000000D+00 -.000000000000000D+00
 0.168497933098682D+03 0.000000000000000D+00 0.000000000000000D+00 0.168497933098682D+03
 0.219025046098880D+03 0.000000000000000D+00 0.000000000000000D+00 -.219025046098880D+03
 0.141079575295880D+03 -.387854314061163D+02 0.245184250199282D+02 0.466152733645265D+02
 0.153250263718899D+03 0.116094402431658D+03 -.369801756178663D+02 -.466152733645265D+02
 0.931931401827837D+02 -.773089710255414D+02 0.124617505979380D+02 -.505271130001977D+02
0.515939824728D-03 0.000000000000D+00 0.000000000000D+00 0.223986412970D-02 0.000000000000D+00  5 -2 1 25 -24 21 0 0.81977416D-02 0.58103809D-01 0.17919487D+05 0.17919487D+05 0.17919487D+05 0.12391127D+01  1  2  2  1  5  1       -2 0.258186292916D+00 0.100000000000D+01
-.285459852500D-04 0.000000000000D+00 -.198134477703D-05 0.223986412970D-02 0.000000000000D+00  5 -2 1 25 -24 21 2 0.81977416D-02 0.58103809D-01 0.17919487D+05 0.17919487D+05 0.17919487D+05 0.12391127D+01  1  2  3  1  5  1       -2 -.219331390105D-01 0.100000000000D+01
0.355945328567D-04 0.000000000000D+00 0.000000000000D+00 0.223986412970D-02 0.000000000000D+00  5 -2 1 25 -24 21 2 0.81977416D-02 0.58103809D-01 0.17919487D+05 0.17919487D+05 0.17919487D+05 0.12391127D+01  1  2 15  1  5  1       -2 0.273488488950D-01 0.100000000000D+01
-.616671115462D-04 0.000000000000D+00 0.000000000000D+00 0.223986412970D-02 0.000000000000D+00  5 -2 1 25 -24 21 2 0.81977416D-02 0.58103809D-01 0.17919487D+05 0.17919487D+05 0.17919487D+05 0.12391127D+01  1  2  4  1  5  1       -2 -.473815605969D-01 0.100000000000D+01
  </mgrwgt>
  </event>
  <event>
  4     66 0.46019439E-03 0.85664858E+02 0.75467711E-02 0.12364777E+00
       -4 -1    0    0    0  501 0.00000000E+00 0.00000000E+00 0.13722375E+03 0.13723250E+03 0.15500000E+01 0.0000E+00 0.9000E+01
        3 -1    0    0  501    0 0.00000000E+00 0.00000000E+00 -.10541635E+03 0.10541754E+03 0.50000000E+00 0.0000E+00 0.9000E+01
       25  1    1    2    0    0 0.16376679E+02 0.20695849E+02 0.74460602E+02 0.14787121E+03 0.12500000E+03 0.0000E+00 0.9000E+01
      -24  1    1    2    0    0 -.16376679E+02 -.20695849E+02 -.42653205E+02 0.94778825E+02 0.80419002E+02 0.0000E+00 0.9000E+01
#aMCatNLO 1  0  0  1  2 0.33576002D+02 0.00000000D+00  -5  5  0 0.00000000D+00 0.00000000D+00 0.00000000D+00 0.00000000D+00 0.00000000D+00
  <mgrwgt>
 0.4694500032D-01    6    2    0
 0.120278145703996D+03 0.000000000000000D+00 0.000000000000000D+00 0.120278145703996D+03
 0.120278145703996D+03 0.000000000000000D+00 0.000000000000000D+00 -.120278145703996D+03
 0.139312742537919D+03 0.163766789487514D+02 0.206958488798777D+02 0.555565159021618D+02
 0.101243548870073D+03 -.163766789487514D+02 -.206958488798777D+02 -.555565159021618D+02
 0.000000000000000D+00 -.000000000000000D+00 -.000000000000000D+00 -.000000000000000D+00
 0.138040973530578D+03 0.000000000000000D+00 0.000000000000000D+00 0.138040973530578D+03
 0.138425428830192D+03 0.000000000000000D+00 0.000000000000000D+00 -.138425428830192D+03
 0.144222747474487D+03 0.321590065233054D+02 0.324726458628882D+02 0.555565159021618D+02
 0.986654516296175D+02 -.524922068647265D+01 -.123925224996125D+02 -.555565159021618D+02
 0.335782032566661D+02 -.269097858368328D+02 -.200801233632757D+02 -.384455299614013D+00
0.295180848018D-03 0.000000000000D+00 0.000000000000D+00 0.226510247046D-02 0.000000000000D+00  5 -4 3 25 -24 21 0 0.21112110D-01 0.16218665D-01 0.11277856D+05 0.11277856D+05 0.11277856D+05 0.12621955D+01  1  2  2  1  5  1       -4 0.362802312973D-01 0.100000000000D+01
-.160898375812D-04 0.000000000000D+00 -.113357217929D-05 0.226510247046D-02 0.000000000000D+00  5 -4 3 25 -24 21 2 0.21112110D-01 0.16218665D-01 0.11277856D+05 0.11277856D+05 0.11277856D+05 0.12621955D+01  1  2  3  1  5  1       -4 -.315055292761D-02 0.100000000000D+01
0.202236398101D-04 0.000000000000D+00 0.000000000000D+00 0.226510247046D-02 0.000000000000D+00  5 -4 3 25 -24 21 2 0.21112110D-01 0.16218665D-01 0.11277856D+05 0.11277856D+05 0.11277856D+05 0.12621955D+01  1  2 15  1  5  1       -4 0.395999321244D-02 0.100000000000D+01
0.155049026369D-03 0.000000000000D+00 0.000000000000D+00 0.226510247046D-02 0.000000000000D+00  5 -4 3 25 -24 21 2 0.25600666D-01 0.16218665D-01 0.15401569D+05 0.15401569D+05 0.15401569D+05 0.12465166D+01  1  2 12  1  5  1       -4 0.214840464902D-01 0.100000000000D+01
-.136296953725D-03 0.000000000000D+00 0.000000000000D+00 0.226510247046D-02 0.000000000000D+00  5 -4 3 25 -24 21 2 0.21112110D-01 0.16218665D-01 0.11277856D+05 0.11277856D+05 0.11277856D+05 0.12621955D+01  1  2  4  1  5  1       -4 -.266883220179D-01 0.100000000000D+01
0.431306573543D-05 0.000000000000D+00 0.000000000000D+00 0.226510247046D-02 0.000000000000D+00  5 21 3 25 -24 4 2 0.25600666D-01 0.16218665D-01 0.15401569D+05 0.15401569D+05 0.15401569D+05 0.12465166D+01  1  2 12  3  5  1       -4 0.150596042688D-01 0.100000000000D+01
  </mgrwgt>
  </event>
  <event>
  4     66 0.46019439E-03 0.10461235E+03 0.75467711E-02 0.12282933E+00
       -2 -1    0    0    0  501 0.00000000E+00 0.00000000E+00 0.49194713E+02 0.49195754E+02 0.32000000E+00 0.0000E+00 0.9000E+01
        1 -1    0    0  501    0 0.00000000E+00 0.00000000E+00 -.22861109E+03 0.22861131E+03 0.32000000E+00 0.0000E+00 0.9000E+01
       25  1    1    2    0    0 -.19279414E+02 -.22125063E+01 -.13027439E+03 0.18158471E+03 0.12500000E+03 0.0000E+00 0.9000E+01
      -24  1    1    2    0    0 0.19279414E+02 0.22125063E+01 -.49141987E+02 0.96222356E+02 0.80419002E+02 0.0000E+00 0.9000E+01
#aMCatNLO 1  0  0  1  1 0.44929617D+02 0.00000000D+00  -5  5  0 0.00000000D+00 0.00000000D+00 0.00000000D+00 0.00000000D+00 0.00000000D+00
  <mgrwgt>
 0.1178825635D+00    4    2    0
 0.106050142483101D+03 0.000000000000000D+00 0.000000000000000D+00 0.106050142483101D+03
 0.106050142483101D+03 0.000000000000000D+00 0.000000000000000D+00 -.106050142483101D+03
 0.127638477564991D+03 -.192794142589947D+02 -.221250629704720D+01 -.170290914855799D+02
 0.844618074012105D+02 0.192794142589947D+02 0.221250629704720D+01 0.170290914855799D+02
 0.000000000000000D+00 0.000000000000000D+00 -.000000000000000D+00 -.000000000000000D+00
 0.125908086818267D+03 0.000000000000000D+00 0.000000000000000D+00 0.125908086818267D+03
 0.137233867229401D+03 0.000000000000000D+00 0.000000000000000D+00 -.137233867229401D+03
 0.134420954892041D+03 -.463527325709040D+02 0.232966531378160D+01 -.170290914855799D+02
 0.823858746646359D+02 0.204240674577143D+01 0.510441061701986D+01 0.170290914855799D+02
 0.463351244909902D+02 0.443103258251326D+02 -.743407593080147D+01 -.113257804111341D+02
0.177813556814D-03 0.000000000000D+00 0.000000000000D+00 0.306189241881D-02 0.000000000000D+00  5 -2 1 25 -24 21 0 0.75685147D-02 0.35171034D-01 0.10943744D+05 0.10943744D+05 0.10943744D+05 0.12637411D+01  1  2  2  1  5  1       -2 0.183673770513D+00 0.100000000000D+01
-.987629290708D-05 0.000000000000D+00 -.682850877551D-06 0.306189241881D-02 0.000000000000D+00  5 -2 1 25 -24 21 2 0.75685147D-02 0.35171034D-01 0.10943744D+05 0.10943744D+05 0.10943744D+05 0.12637411D+01  1  2  3  1  5  1       -2 -.162926766255D-01 0.100000000000D+01
0.122804146927D-04 0.000000000000D+00 0.000000000000D+00 0.306189241881D-02 0.000000000000D+00  5 -2 1 25 -24 21 2 0.75685147D-02 0.35171034D-01 0.10943744D+05 0.10943744D+05 0.10943744D+05 0.12637411D+01  1  2 15  1  5  1       -2 0.202586969928D-01 0.100000000000D+01
-.422854283433D-04 0.000000000000D+00 0.000000000000D+00 0.306189241881D-02 0.000000000000D+00  5 -2 1 25 -24 21 2 0.75685147D-02 0.35171034D-01 0.10943744D+05 0.10943744D+05 0.10943744D+05 0.12637411D+01  1  2  4  1  5  1       -2 -.697572273778D-01 0.100000000000D+01
  </mgrwgt>
  </event>
  <event>
  4     66 0.46019439E-03 0.69976282E+02 0.75467711E-02 0.12606195E+00
       -2 -1    0    0    0  501 0.00000000E+00 0.00000000E+00 0.40741616E+02 0.40742873E+02 0.32000000E+00 0.0000E+00 0.9000E+01
        1 -1    0    0  501    0 0.00000000E+00 0.00000000E+00 -.30883521E+03 0.30883538E+03 0.32000000E+00 0.0000E+00 0.9000E+01
       25  1    1    2    0    0 0.88444822E+01 -.28800360E+02 -.10805395E+03 0.16795339E+03 0.12500000E+03 0.0000E+00 0.9000E+01
      -24  1    1    2    0    0 -.88444822E+01 0.28800360E+02 -.16003964E+03 0.18162486E+03 0.80419002E+02 0.0000E+00 0.9000E+01
#aMCatNLO 1  0  0  2  1 0.54161908D+01 0.00000000D+00  -5  5  0 0.00000000D+00 0.00000000D+00 0.00000000D+00 0.00000000D+00 0.00000000D+00
  <mgrwgt>
 0.3595796092D+00   11    2    0
 0.112172609319404D+03 0.000000000000000D+00 0.000000000000000D+00 0.112172609319404D+03
 0.112172609319404D+03 0.000000000000000D+00 0.000000000000000D+00 -.112172609319404D+03
 0.132582636555984D+03 0.884448218752146D+01 -.288003603465715D+02 0.323337268943514D+02
 0.917625820828228D+02 -.884448218752146D+01 0.288003603465715D+02 -.323337268943514D+02
 0.000000000000000D+00 -.000000000000000D+00 -.000000000000000D+00 -.000000000000000D+00
 0.114846679239822D+03 0.000000000000000D+00 0.000000000000000D+00 0.114846679239822D+03
 0.114981784892282D+03 0.000000000000000D+00 0.000000000000000D+00 -.114981784892282D+03
 0.132485500305057D+03 0.116736648104075D+02 -.273068388155243D+02 0.323337268943514D+02
 0.919250882341146D+02 -.688390717819266D+01 0.298353451389914D+02 -.323337268943514D+02
 0.541787559293313D+01 -.478975763221486D+01 -.252850632346713D+01 -.135105652460180D+00
0.158352107792D-03 0.000000000000D+00 0.000000000000D+00 0.274715592582D-02 0.000000000000D+00  5 -2 1 25 -24 21 0 0.62680504D-02 0.47513219D-01 0.11497923D+05 0.11497923D+05 0.11497923D+05 0.12612054D+01  1  2  2  2  5  2        1 0.150933871227D+00 0.100000000000D+01
-.877560421029D-05 0.000000000000D+00 -.608113788990D-06 0.274715592582D-02 0.000000000000D+00  5 -2 1 25 -24 21 2 0.62680504D-02 0.47513219D-01 0.11497923D+05 0.11497923D+05 0.11497923D+05 0.12612054D+01  1  2  3  2  5  2        1 -.133048968546D-01 0.100000000000D+01
0.109533121521D-04 0.000000000000D+00 0.000000000000D+00 0.274715592582D-02 0.000000000000D+00  5 -2 1 25 -24 21 2 0.62680504D-02 0.47513219D-01 0.11497923D+05 0.11497923D+05 0.11497923D+05 0.12612054D+01  1  2 15  2  5  2        1 0.166065703178D-01 0.100000000000D+01
0.187447811694D-03 0.000000000000D+00 0.000000000000D+00 0.274715592582D-02 0.000000000000D+00  5 -2 1 25 -24 21 2 0.62680504D-02 0.49255741D-01 0.12094103D+05 0.12094103D+05 0.12094103D+05 0.12586267D+01  1  2 12  2  5  2        1 0.271325780418D+00 0.100000000000D+01
-.393783069477D-03 0.000000000000D+00 0.000000000000D+00 0.274715592582D-02 0.000000000000D+00  5 -2 1 25 -24 21 2 0.62680504D-02 0.47513219D-01 0.11497923D+05 0.11497923D+05 0.11497923D+05 0.12612054D+01  1  2  4  2  5  2        1 -.597023634718D+00 0.100000000000D+01
-.356034807952D-02 0.000000000000D+00 -.556639841212D-03 0.274715592582D-02 0.000000000000D+00  5 -2 1 25 -24 21 2 0.62680504D-02 0.49752741D-01 0.11497923D+05 0.11497923D+05 0.11497923D+05 0.12612054D+01  1  2  5  2  5  2        1 -.510051084936D+01 0.100000000000D+01
0.358277470252D-02 0.000000000000D+00 0.556049962174D-03 0.274715592582D-02 0.000000000000D+00  5 -2 1 25 -24 21 2 0.62680504D-02 0.47513219D-01 0.11497923D+05 0.11497923D+05 0.11497923D+05 0.12612054D+01  1  2  6  2  5  2        1 0.543192773147D+01 0.100000000000D+01
0.248394638401D-03 0.000000000000D+00 0.000000000000D+00 0.274715592582D-02 0.791699240904D-03  5 -2 1 25 -24 21 2 0.64174737D-02 0.48703108D-01 0.12094103D+05 0.12094103D+05 0.12094103D+05 0.12586267D+01  1  2 11  2  5  2        1 0.351810052112D+00 0.100000000000D+01
0.270861301448D-05 0.000000000000D+00 0.000000000000D+00 0.274715592582D-02 0.000000000000D+00  5 -2 21 25 -24 -1 2 0.62680504D-02 0.49255741D-01 0.12094103D+05 0.12094103D+05 0.12094103D+05 0.12586267D+01  1  2 12  4  5  2        1 0.179437962973D-01 0.100000000000D+01
-.283120772736D-04 0.000000000000D+00 -.449174009383D-05 0.274715592582D-02 0.000000000000D+00  5 -2 21 25 -24 -1 2 0.62680504D-02 0.49752741D-01 0.11497923D+05 0.11497923D+05 0.11497923D+05 0.12612054D+01  1  2  5  4  5  2        1 -.184335263881D+00 0.100000000000D+01
0.217153175999D-05 0.000000000000D+00 0.000000000000D+00 0.274715592582D-02 0.358698780541D-05  5 -2 21 25 -24 -1 2 0.64174737D-02 0.48703108D-01 0.12094103D+05 0.12094103D+05 0.12094103D+05 0.12586267D+01  1  2 11  4  5  2        1 0.142064521506D-01 0.100000000000D+01
  </mgrwgt>
  </event>
  <event>
  5     66 0.46019439E-03 0.11154701E+03 0.75467711E-02 0.11397097E+00
       21 -1    0    0  502  501 0.00000000E+00 0.00000000E+00 0.21807305E+02 0.21820198E+02 0.75000000E+00 0.0000E+00 0.9000E+01
        1 -1    0    0  501    0 0.00000000E+00 0.00000000E+00 -.22098087E+04 0.22098088E+04 0.32000000E+00 0.0000E+00 0.9000E+01
       25  1    1    2    0    0 -.59661253E+02 0.21363915E+02 -.60125811E+03 0.61737525E+03 0.12500000E+03 0.0000E+00 0.9000E+01
      -24  1    1    2    0    0 -.40302379E+02 0.95229348E+02 -.96361443E+03 0.97247770E+03 0.80419002E+02 0.0000E+00 0.9000E+01
        2  1    1    2  502    0 0.99963632E+02 -.11659326E+03 -.62312890E+03 0.64177601E+03 0.32000000E+00 0.0000E+00 0.9000E+01
#aMCatNLO 2  0  0  1  2 0.15357967D+03 0.00000000D+00  -5  5  0 0.00000000D+00 0.00000000D+00 0.00000000D+00 0.00000000D+00 0.00000000D+00
  <mgrwgt>
 0.3787135218D-01    1    2    0
 0.117494302131294D+03 0.000000000000000D+00 0.000000000000000D+00 0.117494302131294D+03
 0.117494302131294D+03 0.000000000000000D+00 0.000000000000000D+00 -.117494302131294D+03
 0.136979893941942D+03 -.504597430042620D+01 -.423369870857755D+02 0.363401845372866D+02
 0.980087103206458D+02 0.504597430042620D+01 0.423369870857755D+02 -.363401845372866D+02
 0.000000000000000D+00 0.000000000000000D+00 -.000000000000000D+00 0.000000000000000D+00
 0.245138320853596D+03 0.000000000000000D+00 0.000000000000000D+00 0.245138320853596D+03
 0.196641281103381D+03 0.000000000000000D+00 0.000000000000000D+00 -.196641281103381D+03
 0.144780837670343D+03 -.596612529023194D+02 0.213639145862254D+02 0.363401845372866D+02
 0.135943868580542D+03 -.403023792590117D+02 0.952293477040139D+02 -.363401845372866D+02
 0.161054895706093D+03 0.999636321613310D+02 -.116593262290239D+03 0.484970397502146D+02
0.179186987511D-04 0.000000000000D+00 0.000000000000D+00 0.260026337915D-02 0.204125701240D-06  5 21 1 25 -24 2 2 0.33559610D-02 0.33997132D+00 0.45097252D+05 0.45097252D+05 0.45097252D+05 0.11967462D+01  1  2  1  3  5  1       -2 0.378713521803D-01 0.100000000000D+01
  </mgrwgt>
  </event>
  <event>
  4     66 0.46019439E-03 0.11718274E+03 0.75467711E-02 0.12180143E+00
       -4 -1    0    0    0  501 0.00000000E+00 0.00000000E+00 0.11425024E+03 0.11426076E+03 0.15500000E+01 0.0000E+00 0.9000E+01
        3 -1    0    0  501    0 0.00000000E+00 0.00000000E+00 -.15608217E+03 0.15608298E+03 0.50000000E+00 0.0000E+00 0.9000E+01
       25  1    1    2    0    0 -.19361118E+01 -.55350222E+02 0.40530329E+02 0.14260120E+03 0.12500000E+03 0.0000E+00 0.9000E+01
      -24  1    1    2    0    0 0.19361118E+01 0.55350222E+02 -.82362261E+02 0.12774253E+03 0.80419002E+02 0.0000E+00 0.9000E+01
#aMCatNLO 1  0  0  1  2 0.36222095D+02 0.00000000D+00  -5  5  0 0.00000000D+00 0.00000000D+00 0.00000000D+00 0.00000000D+00 0.00000000D+00
  <mgrwgt>
 0.1296498960D-01    4    2    0
 0.133543834214899D+03 0.000000000000000D+00 0.000000000000000D+00 0.133543834214899D+03
 0.133543834214899D+03 0.000000000000000D+00 0.000000000000000D+00 -.133543834214899D+03
 0.150687613445643D+03 -.193611183094483D+01 -.553502216377976D+02 0.633589873780220D+02
 0.116400054984154D+03 0.193611183094483D+01 0.553502216377976D+02 -.633589873780220D+02
 0.000000000000000D+00 -.000000000000000D+00 0.000000000000000D+00 -.000000000000000D+00
 0.150700929932445D+03 0.000000000000000D+00 0.000000000000000D+00 0.150700929932445D+03
 0.155351115364460D+03 0.000000000000000D+00 0.000000000000000D+00 -.155351115364460D+03
 0.154457391708602D+03 0.173493682962644D+02 -.625837358390879D+02 0.633589873780220D+02
 0.115075283155702D+03 0.165655927604417D+02 0.498630594119674D+02 -.633589873780220D+02
 0.365193704326008D+02 -.339149610567061D+02 0.127206764271205D+02 -.465018543201507D+01
0.379792730999D-03 0.000000000000D+00 0.000000000000D+00 0.205809945546D-02 0.000000000000D+00  5 -4 3 25 -24 21 0 0.17577831D-01 0.24013513D-01 0.13731794D+05 0.13731794D+05 0.13731794D+05 0.12522199D+01  1  2  2  1  5  1       -4 0.332006117531D-01 0.100000000000D+01
-.206613935262D-04 0.000000000000D+00 -.145850408876D-05 0.205809945546D-02 0.000000000000D+00  5 -4 3 25 -24 21 2 0.17577831D-01 0.24013513D-01 0.13731794D+05 0.13731794D+05 0.13731794D+05 0.12522199D+01  1  2  3  1  5  1       -4 -.283217621782D-02 0.100000000000D+01
0.260134809928D-04 0.000000000000D+00 0.000000000000D+00 0.205809945546D-02 0.000000000000D+00  5 -4 3 25 -24 21 2 0.17577831D-01 0.24013513D-01 0.13731794D+05 0.13731794D+05 0.13731794D+05 0.12522199D+01  1  2 15  1  5  1       -4 0.356581767425D-02 0.100000000000D+01
-.152975724001D-03 0.000000000000D+00 0.000000000000D+00 0.205809945546D-02 0.000000000000D+00  5 -4 3 25 -24 21 2 0.17577831D-01 0.24013513D-01 0.13731794D+05 0.13731794D+05 0.13731794D+05 0.12522199D+01  1  2  4  1  5  1       -4 -.209692636109D-01 0.100000000000D+01
  </mgrwgt>
  </event>
  <event>
  4     66 0.46019439E-03 0.14113896E+03 0.75467711E-02 0.12109357E+00
       -4 -1    0    0    0  501 0.00000000E+00 0.00000000E+00 0.89526770E+01 0.90858641E+01 0.15500000E+01 0.0000E+00 0.9000E+01
        3 -1    0    0  501    0 0.00000000E+00 0.00000000E+00 -.22689099E+04 0.22689100E+04 0.50000000E+00 0.0000E+00 0.9000E+01
       25  1    1    2    0    0 0.30399374E+02 -.90626175E+02 -.14409623E+04 0.14495291E+04 0.12500000E+03 0.0000E+00 0.9000E+01
      -24  1    1    2    0    0 -.30399374E+02 0.90626175E+02 -.81899491E+03 0.82846672E+03 0.80419002E+02 0.0000E+00 0.9000E+01
#aMCatNLO 1  0  0  1  1 0.13073519D+01 0.00000000D+00  -5  5  0 0.00000000D+00 0.00000000D+00 0.00000000D+00 0.00000000D+00 0.00000000D+00
  <mgrwgt>
 0.9013136051D-02    6    2    0
 0.143054450105002D+03 0.000000000000000D+00 0.000000000000000D+00 0.143054450105002D+03
 0.143054450105002D+03 0.000000000000000D+00 0.000000000000000D+00 -.143054450105002D+03
 0.159058468223466D+03 0.303993743917915D+02 -.906261751110948D+02 -.231812582686168D+02
 0.127050431986538D+03 -.303993743917915D+02 0.906261751110948D+02 0.231812582686168D+02
 0.000000000000000D+00 -.000000000000000D+00 0.000000000000000D+00 -.000000000000000D+00
 0.143356621200152D+03 0.000000000000000D+00 0.000000000000000D+00 0.143356621200152D+03
 0.144477041081793D+03 0.000000000000000D+00 0.000000000000000D+00 -.144477041081793D+03
 0.159226456407536D+03 0.311249270174974D+02 -.906748730538965D+02 -.231812582686168D+02
 0.126885430707266D+03 -.298205099289145D+02 0.905873226453956D+02 0.231812582686168D+02
 0.172177516714322D+01 -.130441708858289D+01 0.875504085008797D-01 -.112041988164050D+01
0.756441466286D-03 0.000000000000D+00 0.000000000000D+00 0.241166312090D-02 0.000000000000D+00  5 -4 3 25 -24 21 0 0.13875843D-02 0.34907331D+00 0.19920206D+05 0.19920206D+05 0.19920206D+05 0.12340172D+01  1  2  2  1  5  1       -4 0.693146632603D-02 0.100000000000D+01
-.420152407320D-04 0.000000000000D+00 -.290493440615D-05 0.241166312090D-02 0.000000000000D+00  5 -4 3 25 -24 21 2 0.13875843D-02 0.34907331D+00 0.19920206D+05 0.19920206D+05 0.19920206D+05 0.12340172D+01  1  2  3  1  5  1       -4 -.586271918828D-03 0.100000000000D+01
0.522403597437D-04 0.000000000000D+00 0.000000000000D+00 0.241166312090D-02 0.000000000000D+00  5 -4 3 25 -24 21 2 0.13875843D-02 0.34907331D+00 0.19920206D+05 0.19920206D+05 0.19920206D+05 0.12340172D+01  1  2 15  1  5  1       -4 0.728951099971D-03 0.100000000000D+01
-.163568541168D-02 0.000000000000D+00 0.000000000000D+00 0.241166312090D-02 0.000000000000D+00  5 -4 3 25 -24 21 2 0.13875843D-02 0.34907331D+00 0.19920206D+05 0.19920206D+05 0.19920206D+05 0.12340172D+01  1  2  4  1  5  1       -4 -.228240135768D-01 0.100000000000D+01
0.163577017034D-02 0.000000000000D+00 0.000000000000D+00 0.241166312090D-02 0.114520802483D-01  5 -4 3 25 -24 21 2 0.13905153D-02 0.35254464D+00 0.20105432D+05 0.20105432D+05 0.20105432D+05 0.12335747D+01  1  2 11  1  5  1       -4 0.218351097447D-01 0.100000000000D+01
0.723581983474D-05 0.000000000000D+00 0.000000000000D+00 0.241166312090D-02 0.454099077802D-05  5 21 3 25 -24 4 2 0.13905153D-02 0.35254464D+00 0.20105432D+05 0.20105432D+05 0.20105432D+05 0.12335747D+01  1  2 11  3  5  1       -4 0.292789437633D-02 0.100000000000D+01
  </mgrwgt>
  </event>
  <event>
  4     66 0.46019439E-03 0.48646438E+02 0.75467711E-02 0.12523441E+00
       -2 -1    0    0    0  501 0.00000000E+00 0.00000000E+00 0.40434506E+01 0.40560933E+01 0.32000000E+00 0.0000E+00 0.9000E+01
        1 -1    0    0  501    0 0.00000000E+00 0.00000000E+00 -.29162148E+04 0.29162148E+04 0.32000000E+00 0.0000E+00 0.9000E+01
       25  1    1    2    0    0 -.23056086E+02 -.13185105E+02 -.20394944E+04 0.20434940E+04 0.12500000E+03 0.0000E+00 0.9000E+01
      -24  1    1    2    0    0 0.23056086E+02 0.13185105E+02 -.87267694E+03 0.87677688E+03 0.80419002E+02 0.0000E+00 0.9000E+01
#aMCatNLO 1  0  0  2  1 0.16057027D+02 0.00000000D+00  -5  5  0 0.00000000D+00 0.00000000D+00 0.00000000D+00 0.00000000D+00 0.00000000D+00
  <mgrwgt>
 0.7600834914D+00    9    2    0
 0.108674081229674D+03 0.000000000000000D+00 0.000000000000000D+00 0.108674081229674D+03
 0.108674081229674D+03 0.000000000000000D+00 0.000000000000000D+00 -.108674081229674D+03
 0.129741165354073D+03 -.230560864856802D+02 -.131851052289803D+02 -.224129396442882D+02
 0.876069971052740D+02 0.230560864856802D+02 0.131851052289803D+02 0.224129396442882D+02
 0.000000000000000D+00 -.000000000000000D+00 0.000000000000000D+00 -.000000000000000D+00
 0.115604504834516D+03 0.000000000000000D+00 0.000000000000000D+00 0.115604504834516D+03
 0.118686012892982D+03 0.000000000000000D+00 0.000000000000000D+00 -.118686012892982D+03
 0.130966695883081D+03 -.224891044065274D+02 -.227854284582337D+02 -.224129396442882D+02
 0.869737818624541D+02 0.234357611628054D+02 0.675633127582201D+01 0.224129396442882D+02
 0.163500399819631D+02 -.946656756277992D+00 0.160290971824117D+02 -.308150805846534D+01
0.737464743171D-03 0.000000000000D+00 0.000000000000D+00 0.294056225313D-02 0.000000000000D+00  5 -2 1 25 -24 21 0 0.62304318D-03 0.44864940D+00 0.11287155D+05 0.11287155D+05 0.11287155D+05 0.12621532D+01  1  2  2  2  5  2        1 0.227078278878D+00 0.100000000000D+01
-.409447236634D-04 0.000000000000D+00 -.283205879270D-05 0.294056225313D-02 0.000000000000D+00  5 -2 1 25 -24 21 2 0.62304318D-03 0.44864940D+00 0.11287155D+05 0.11287155D+05 0.11287155D+05 0.12621532D+01  1  2  3  2  5  2        1 -.200842875442D-01 0.100000000000D+01
0.510411216097D-04 0.000000000000D+00 0.000000000000D+00 0.294056225313D-02 0.000000000000D+00  5 -2 1 25 -24 21 2 0.62304318D-03 0.44864940D+00 0.11287155D+05 0.11287155D+05 0.11287155D+05 0.12621532D+01  1  2 15  2  5  2        1 0.250367928091D-01 0.100000000000D+01
0.974278030081D-03 0.000000000000D+00 0.000000000000D+00 0.294056225313D-02 0.000000000000D+00  5 -2 1 25 -24 21 2 0.62304318D-03 0.50317529D+00 0.13124905D+05 0.13124905D+05 0.13124905D+05 0.12544887D+01  1  2 12  2  5  2        1 0.268306486718D+00 0.100000000000D+01
-.858467436176D-03 0.000000000000D+00 0.000000000000D+00 0.294056225313D-02 0.000000000000D+00  5 -2 1 25 -24 21 2 0.62304318D-03 0.44864940D+00 0.11287155D+05 0.11287155D+05 0.11287155D+05 0.12621532D+01  1  2  4  2  5  2        1 -.421097159604D+00 0.100000000000D+01
-.326848919037D-02 0.000000000000D+00 -.663977533182D-03 0.294056225313D-02 0.000000000000D+00  5 -2 1 25 -24 21 2 0.62304318D-03 0.49972791D+00 0.11287155D+05 0.11287155D+05 0.11287155D+05 0.12621532D+01  1  2  5  2  5  2        1 -.945757757081D+00 0.100000000000D+01
0.332457773708D-02 0.000000000000D+00 0.660136575195D-03 0.294056225313D-02 0.000000000000D+00  5 -2 1 25 -24 21 2 0.62304318D-03 0.44864940D+00 0.11287155D+05 0.11287155D+05 0.11287155D+05 0.12621532D+01  1  2  6  2  5  2        1 0.163077850478D+01 0.100000000000D+01
0.177939670231D-04 0.000000000000D+00 0.000000000000D+00 0.294056225313D-02 0.000000000000D+00  5 -2 21 25 -24 -1 2 0.62304318D-03 0.50317529D+00 0.13124905D+05 0.13124905D+05 0.13124905D+05 0.12544887D+01  1  2 12  4  5  2        1 0.180881613450D-02 0.100000000000D+01
-.541172358764D-04 0.000000000000D+00 -.115055186975D-04 0.294056225313D-02 0.000000000000D+00  5 -2 21 25 -24 -1 2 0.62304318D-03 0.49972791D+00 0.11287155D+05 0.11287155D+05 0.11287155D+05 0.12621532D+01  1  2  5  4  5  2        1 -.598618368654D-02 0.100000000000D+01
  </mgrwgt>
  </event>
  <event>
  5     66 0.46019439E-03 0.11439345E+03 0.75467711E-02 0.12474368E+00
       -2 -1    0    0    0  501 0.00000000E+00 0.00000000E+00 0.15729338E+03 0.15729370E+03 0.32000000E+00 0.0000E+00 0.9000E+01
        1 -1    0    0  502    0 0.00000000E+00 0.00000000E+00 -.88307944E+02 0.88308524E+02 0.32000000E+00 0.0000E+00 0.9000E+01
       25  1    1    2    0    0 0.48827501E+02 0.20373872E+02 0.41530292E+02 0.14194712E+03 0.12500000E+03 0.0000E+00 0.9000E+01
      -24  1    1    2    0    0 -.43239284E+02 -.18329326E+02 0.22333973E+02 0.95768586E+02 0.80419002E+02 0.0000E+00 0.9000E+01
       21  1    1    2  502  501 -.55882174E+01 -.20445461E+01 0.51211661E+01 0.78865191E+01 0.75000000E+00 0.0000E+00 0.9000E+01
#aMCatNLO 2  0  0  2  1 0.59504909D+01 0.00000000D+00  -5  5  0 0.00000000D+00 0.00000000D+00 0.00000000D+00 0.00000000D+00 0.00000000D+00
  <mgrwgt>
 0.1254778762D+00    2    2    0
 0.114449447481821D+03 0.000000000000000D+00 0.000000000000000D+00 0.114449447481821D+03
 0.114449447481821D+03 0.000000000000000D+00 0.000000000000000D+00 -.114449447481821D+03
 0.134453441050868D+03 0.455293701774337D+02 0.191671936423867D+02 0.352462048179465D+01
 0.944454539127732D+02 -.455293701774337D+02 -.191671936423867D+02 -.352462048179465D+01
 0.000000000000000D+00 -.000000000000000D+00 -.000000000000000D+00 0.000000000000000D+00
 0.119404915205738D+03 0.000000000000000D+00 0.000000000000000D+00 0.119404915205738D+03
 0.116288488111061D+03 0.000000000000000D+00 0.000000000000000D+00 -.116288488111061D+03
 0.135781598465346D+03 0.488275011887941D+02 0.203738719914062D+02 0.352462048179465D+01
 0.931946283739681D+02 -.432392838308518D+02 -.183293258917465D+02 -.352462048179465D+01
 0.671717647748496D+01 -.558821735794228D+01 -.204454609965968D+01 0.311642709467689D+01
-.940751633254D-04 0.000000000000D+00 0.000000000000D+00 0.289737793789D-02 0.000000000000D+00  5 -2 1 25 -24 21 2 0.23190624D-01 0.13368671D-01 0.13085861D+05 0.13085861D+05 0.13085861D+05 0.12546387D+01  1  2  8  2  5  2        1 -.857503137391D-01 0.100000000000D+01
0.255093856083D-03 0.000000000000D+00 0.000000000000D+00 0.289737793789D-02 0.684750686835D-03  5 -2 1 25 -24 21 2 0.24194739D-01 0.13583487D-01 0.13784438D+05 0.13784438D+05 0.13784438D+05 0.12520285D+01  1  2  1  2  5  2        1 0.211228189967D+00 0.100000000000D+01
  </mgrwgt>
  </event>
  <event>
  4     66 0.46019439E-03 0.11360417E+03 0.75467711E-02 0.11356598E+00
       -2 -1    0    0    0  501 0.00000000E+00 0.00000000E+00 0.23882537E+03 0.23882558E+03 0.32000000E+00 0.0000E+00 0.9000E+01
        1 -1    0    0  501    0 0.00000000E+00 0.00000000E+00 -.54894399E+02 0.54895332E+02 0.32000000E+00 0.0000E+00 0.9000E+01
       25  1    1    2    0    0 0.46035017E+02 0.12112551E+02 0.12607805E+03 0.18381135E+03 0.12500000E+03 0.0000E+00 0.9000E+01
      -24  1    1    2    0    0 -.46035017E+02 -.12112551E+02 0.57852918E+02 0.10990957E+03 0.80419002E+02 0.0000E+00 0.9000E+01
#aMCatNLO 1  0  0  1  1 0.15830315D+03 0.00000000D+00  -5  5  0 0.00000000D+00 0.00000000D+00 0.00000000D+00 0.00000000D+00 0.00000000D+00
  <mgrwgt>
 0.2487809319D+00    3    2    0
 0.114500408333186D+03 0.000000000000000D+00 0.000000000000000D+00 0.114500408333186D+03
 0.114500408333186D+03 0.000000000000000D+00 0.000000000000000D+00 -.114500408333186D+03
 0.134495498697801D+03 0.460350171512225D+02 0.121125508048912D+02 0.140748882359965D+02
 0.945053179685712D+02 -.460350171512225D+02 -.121125508048912D+02 -.140748882359965D+02
 0.000000000000000D+00 0.000000000000000D+00 -.000000000000000D+00 -.000000000000000D+00
 0.175620504368770D+03 0.000000000000000D+00 0.000000000000000D+00 0.175620504368770D+03
 0.311190479237796D+03 0.000000000000000D+00 0.000000000000000D+00 -.311190479237796D+03
 0.139758856608636D+03 -.287482791742719D+02 0.536933139805661D+02 0.140748882359965D+02
 0.138631626387251D+03 -.109606475021786D+03 0.232342427216086D+02 -.140748882359965D+02
 0.208420500610680D+03 0.138354754196058D+03 -.769275567021747D+02 -.135569974869026D+03
0.523223886390D-03 0.000000000000D+00 0.000000000000D+00 0.286125180067D-02 0.000000000000D+00  5 -2 1 25 -24 21 0 0.36742452D-01 0.84453805D-02 0.12905908D+05 0.12905908D+05 0.12905908D+05 0.12553366D+01  1  2  2  1  5  1       -2 0.243591956387D+00 0.100000000000D+01
-.290658112708D-04 0.000000000000D+00 -.200931749175D-05 0.286125180067D-02 0.000000000000D+00  5 -2 1 25 -24 21 2 0.36742452D-01 0.84453805D-02 0.12905908D+05 0.12905908D+05 0.12905908D+05 0.12553366D+01  1  2  3  1  5  1       -2 -.213244668268D-01 0.100000000000D+01
0.361385219202D-04 0.000000000000D+00 0.000000000000D+00 0.286125180067D-02 0.000000000000D+00  5 -2 1 25 -24 21 2 0.36742452D-01 0.84453805D-02 0.12905908D+05 0.12905908D+05 0.12905908D+05 0.12553366D+01  1  2 15  1  5  1       -2 0.265134423629D-01 0.100000000000D+01
  </mgrwgt>
  </event>
  <event>
  4     66 0.46019439E-03 0.18939313E+03 0.75467711E-02 0.11327437E+00
       -4 -1    0    0    0  501 0.00000000E+00 0.00000000E+00 0.56110271E+03 0.56110485E+03 0.15500000E+01 0.0000E+00 0.9000E+01
        3 -1    0    0  501    0 0.00000000E+00 0.00000000E+00 -.63963213E+02 0.63965167E+02 0.50000000E+00 0.0000E+00 0.9000E+01
       25  1    1    2    0    0 0.23514363E+02 -.15625893E+03 0.25680031E+03 0.32640646E+03 0.12500000E+03 0.0000E+00 0.9000E+01
      -24  1    1    2    0    0 -.23514363E+02 0.15625893E+03 0.24033918E+03 0.29866355E+03 0.80419002E+02 0.0000E+00 0.9000E+01
#aMCatNLO 1  0  0  1  2 0.59623891D+02 0.00000000D+00  -5  5  0 0.00000000D+00 0.00000000D+00 0.00000000D+00 0.00000000D+00 0.00000000D+00
  <mgrwgt>
 0.4535423307D-01    4    2    0
 0.189449760576413D+03 0.000000000000000D+00 0.000000000000000D+00 0.189449760576413D+03
 0.189449760576413D+03 0.000000000000000D+00 0.000000000000000D+00 -.189449760576413D+03
 0.201534473718523D+03 0.235143634539636D+02 -.156258931201623D+03 -.462225357193439D+01
 0.177365047434303D+03 -.235143634539636D+02 0.156258931201623D+03 0.462225357193439D+01
 0.000000000000000D+00 -.000000000000000D+00 0.000000000000000D+00 -.000000000000000D+00
 0.207840805965482D+03 0.000000000000000D+00 0.000000000000000D+00 0.207840805965482D+03
 0.247121289274874D+03 0.000000000000000D+00 0.000000000000000D+00 -.247121289274874D+03
 0.228870006605131D+03 0.275623010285558D+02 -.189671912146635D+03 -.462225357193439D+01
 0.154692055506804D+03 -.203913791790443D+02 0.130480812802660D+03 0.462225357193439D+01
 0.714000331284203D+02 -.717092184951146D+01 0.591910993439746D+02 -.392804833093924D+02
0.311504117322D-02 0.000000000000D+00 0.000000000000D+00 0.219652464826D-02 0.000000000000D+00  5 -4 3 25 -24 21 0 0.86323808D-01 0.98408093D-02 0.35869759D+05 0.35869759D+05 0.35869759D+05 0.12068366D+01  1  2  2  1  5  1       -4 0.584073957306D-01 0.100000000000D+01
-.173057824153D-03 0.000000000000D+00 -.119625783144D-04 0.219652464826D-02 0.000000000000D+00  5 -4 3 25 -24 21 2 0.86323808D-01 0.98408093D-02 0.35869759D+05 0.35869759D+05 0.35869759D+05 0.12068366D+01  1  2  3  1  5  1       -4 -.472598419479D-02 0.100000000000D+01
0.214216213552D-03 0.000000000000D+00 0.000000000000D+00 0.219652464826D-02 0.000000000000D+00  5 -4 3 25 -24 21 2 0.86323808D-01 0.98408093D-02 0.35869759D+05 0.35869759D+05 0.35869759D+05 0.12068366D+01  1  2 15  1  5  1       -4 0.584996630157D-02 0.100000000000D+01
-.519143891647D-03 0.000000000000D+00 0.000000000000D+00 0.219652464826D-02 0.000000000000D+00  5 -4 3 25 -24 21 2 0.86323808D-01 0.98408093D-02 0.35869759D+05 0.35869759D+05 0.35869759D+05 0.12068366D+01  1  2  4  1  5  1       -4 -.141771447709D-01 0.100000000000D+01
  </mgrwgt>
  </event>
  <event>
  4     66 0.46019439E-03 0.10997340E+03 0.75467711E-02 0.12413108E+00
       -2 -1    0    0    0  501 0.00000000E+00 0.00000000E+00 0.42555770E+01 0.42675914E+01 0.32000000E+00 0.0000E+00 0.9000E+01
        1 -1    0    0  501    0 0.00000000E+00 0.00000000E+00 -.28719255E+04 0.28719255E+04 0.32000000E+00 0.0000E+00 0.9000E+01
       25  1    1    2    0    0 0.29925762E+01 -.38372933E+02 -.18557073E+04 0.18603107E+04 0.12500000E+03 0.0000E+00 0.9000E+01
      -24  1    1    2    0    0 -.29925762E+01 0.38372933E+02 -.10119626E+04 0.10158824E+04 0.80419002E+02 0.0000E+00 0.9000E+01
#aMCatNLO 1  0  0  1  2 0.21216083D+02 0.00000000D+00  -5  5  0 0.00000000D+00 0.00000000D+00 0.00000000D+00 0.00000000D+00 0.00000000D+00
  <mgrwgt>
 0.3797409202D+00    4    2    0
 0.110630030156874D+03 0.000000000000000D+00 0.000000000000000D+00 0.110630030156874D+03
 0.110630030156874D+03 0.000000000000000D+00 0.000000000000000D+00 -.110630030156874D+03
 0.131324646330809D+03 0.299257619617888D+01 -.383729328173175D+02 -.118205434993429D+02
 0.899354139829394D+02 -.299257619617888D+01 0.383729328173175D+02 0.118205434993429D+02
 0.000000000000000D+00 0.000000000000000D+00 0.000000000000000D+00 -.000000000000000D+00
 0.112542377028433D+03 0.000000000000000D+00 0.000000000000000D+00 0.112542377028433D+03
 0.191234867345736D+03 0.000000000000000D+00 0.000000000000000D+00 -.191234867345736D+03
 0.133010250350198D+03 -.876958012700466D+01 -.430127412983468D+02 -.118205434993429D+02
 0.892646615436826D+02 -.109664734300883D+02 0.352274758963083D+02 0.118205434993429D+02
 0.815023324802880D+02 0.197360535570930D+02 0.778526540203845D+01 -.786924903173028D+02
0.123729564070D-02 0.000000000000D+00 0.000000000000D+00 0.296587272435D-02 0.000000000000D+00  5 -2 1 25 -24 21 0 0.65562971D-03 0.44183562D+00 0.12094149D+05 0.12094149D+05 0.12094149D+05 0.12586265D+01  1  2  2  1  5  1       -2 0.379790124072D+00 0.100000000000D+01
-.687356848681D-04 0.000000000000D+00 -.475154104773D-05 0.296587272435D-02 0.000000000000D+00  5 -2 1 25 -24 21 2 0.65562971D-03 0.44183562D+00 0.12094149D+05 0.12094149D+05 0.12094149D+05 0.12586265D+01  1  2  3  1  5  1       -2 -.334230598003D-01 0.100000000000D+01
0.855980356657D-04 0.000000000000D+00 0.000000000000D+00 0.296587272435D-02 0.000000000000D+00  5 -2 1 25 -24 21 2 0.65562971D-03 0.44183562D+00 0.12094149D+05 0.12094149D+05 0.12094149D+05 0.12586265D+01  1  2 15  1  5  1       -2 0.416224595758D-01 0.100000000000D+01
-.169635401893D-04 0.000000000000D+00 0.000000000000D+00 0.296587272435D-02 0.000000000000D+00  5 -2 1 25 -24 21 2 0.65562971D-03 0.44183562D+00 0.12094149D+05 0.12094149D+05 0.12094149D+05 0.12586265D+01  1  2  4  1  5  1       -2 -.824860360757D-02 0.100000000000D+01
  </mgrwgt>
  </event>
  <event>
  4     66 0.46019439E-03 0.14881142E+03 0.75467711E-02 0.10094608E+00
       -2 -1    0    0    0  501 0.00000000E+00 0.00000000E+00 0.14123033E+02 0.14126658E+02 0.32000000E+00 0.0000E+00 0.9000E+01
        1 -1    0    0  501    0 0.00000000E+00 0.00000000E+00 -.16451637E+04 0.16451638E+04 0.32000000E+00 0.0000E+00 0.9000E+01
       25  1    1    2    0    0 0.10042118E+03 -.35369673E+02 -.71686416E+03 0.73542821E+03 0.12500000E+03 0.0000E+00 0.9000E+01
      -24  1    1    2    0    0 -.10042118E+03 0.35369673E+02 -.91417655E+03 0.92386222E+03 0.80419002E+02 0.0000E+00 0.9000E+01
#aMCatNLO 1  0  0  1  2 0.47468408D+03 0.00000000D+00  -5  5  0 0.00000000D+00 0.00000000D+00 0.00000000D+00 0.00000000D+00 0.00000000D+00
  <mgrwgt>
 0.2870656412D+00    3    2    0
 0.152439281771466D+03 0.000000000000000D+00 0.000000000000000D+00 0.152439281771466D+03
 0.152439281771466D+03 0.000000000000000D+00 0.000000000000000D+00 -.152439281771466D+03
 0.167458022248344D+03 0.100421175683934D+03 -.353696728046742D+02 0.328901647194690D+02
 0.137420541294588D+03 -.100421175683934D+03 0.353696728046742D+02 -.328901647194690D+02
 0.000000000000000D+00 0.000000000000000D+00 -.000000000000000D+00 -.000000000000000D+00
 0.513325696965747D+03 0.000000000000000D+00 0.000000000000000D+00 0.513325696965747D+03
 0.525678569761013D+03 0.000000000000000D+00 0.000000000000000D+00 -.525678569761013D+03
 0.145772392293245D+03 -.673726501785581D+02 -.193737645784636D+01 0.328901647194690D+02
 0.418387086575585D+03 -.398160743728051D+03 0.946931754536030D+02 -.328901647194690D+02
 0.474844787857931D+03 0.465533393906609D+03 -.927557989957566D+02 -.123528727952656D+02
0.821341150595D-03 0.000000000000D+00 0.000000000000D+00 0.228829352606D-02 0.000000000000D+00  5 -2 1 25 -24 21 0 0.21730555D-02 0.25310240D+00 0.22144840D+05 0.22144840D+05 0.22144840D+05 0.12289849D+01  1  2  2  1  5  1       -2 0.281287651362D+00 0.100000000000D+01
-.455978770262D-04 0.000000000000D+00 -.315416628238D-05 0.228829352606D-02 0.000000000000D+00  5 -2 1 25 -24 21 2 0.21730555D-02 0.25310240D+00 0.22144840D+05 0.22144840D+05 0.22144840D+05 0.12289849D+01  1  2  3  1  5  1       -2 -.235865691068D-01 0.100000000000D+01
0.567679657534D-04 0.000000000000D+00 0.000000000000D+00 0.228829352606D-02 0.000000000000D+00  5 -2 1 25 -24 21 2 0.21730555D-02 0.25310240D+00 0.22144840D+05 0.22144840D+05 0.22144840D+05 0.12289849D+01  1  2 15  1  5  1       -2 0.293645589361D-01 0.100000000000D+01
  </mgrwgt>
  </event>
  <event>
  4     66 0.46019439E-03 0.11298682E+03 0.75467711E-02 0.85286011E-01
       -4 -1    0    0    0  501 0.00000000E+00 0.00000000E+00 0.35190407E+03 0.35190748E+03 0.15500000E+01 0.0000E+00 0.9000E+01
        3 -1    0    0  501    0 0.00000000E+00 0.00000000E+00 -.38200645E+02 0.38203917E+02 0.50000000E+00 0.0000E+00 0.9000E+01
       25  1    1    2    0    0 0.21851024E+02 -.40657513E+02 0.14042541E+03 0.19358408E+03 0.12500000E+03 0.0000E+00 0.9000E+01
      -24  1    1    2    0    0 -.21851024E+02 0.40657513E+02 0.17327801E+03 0.19652732E+03 0.80419002E+02 0.0000E+00 0.9000E+01
#aMCatNLO 1  0  0  1  2 0.21698459D+04 0.00000000D+00  -5  5  0 0.00000000D+00 0.00000000D+00 0.00000000D+00 0.00000000D+00 0.00000000D+00
  <mgrwgt>
 0.8655889883D-01    3    2    0
 0.115949412517917D+03 0.000000000000000D+00 0.000000000000000D+00 0.115949412517917D+03
 0.115949412517917D+03 0.000000000000000D+00 0.000000000000000D+00 -.115949412517917D+03
 0.135694626932467D+03 0.218510238516445D+02 -.406575129644437D+02 -.256423706884202D+02
 0.962041981033672D+02 -.218510238516445D+02 0.406575129644437D+02 0.256423706884202D+02
 0.000000000000000D+00 0.000000000000000D+00 0.000000000000000D+00 -.000000000000000D+00
 0.149436287500449D+04 0.000000000000000D+00 0.000000000000000D+00 0.149436287500449D+04
 0.400994598824903D+04 0.000000000000000D+00 0.000000000000000D+00 -.400994598824903D+04
 0.108152341501535D+04 -.107190321070816D+04 -.665873330707728D+02 -.256423706884202D+02
 0.110067923061376D+04 -.109733320807804D+04 0.151608715038730D+02 0.256423706884202D+02
 0.332210621762441D+04 0.216923641878620D+04 0.514264615668998D+02 -.251558311324454D+04
0.779883294669D-03 0.000000000000D+00 0.000000000000D+00 0.274610373140D-02 0.000000000000D+00  5 -4 3 25 -24 21 0 0.54139601D-01 0.58775365D-02 0.12766022D+05 0.12766022D+05 0.12766022D+05 0.12558866D+01  1  2  2  1  5  1       -4 0.847398901840D-01 0.100000000000D+01
-.432915588785D-04 0.000000000000D+00 -.299495719952D-05 0.274610373140D-02 0.000000000000D+00  5 -4 3 25 -24 21 2 0.54139601D-01 0.58775365D-02 0.12766022D+05 0.12766022D+05 0.12766022D+05 0.12558866D+01  1  2  3  1  5  1       -4 -.741929033587D-02 0.100000000000D+01
0.539054742475D-04 0.000000000000D+00 0.000000000000D+00 0.274610373140D-02 0.000000000000D+00  5 -4 3 25 -24 21 2 0.54139601D-01 0.58775365D-02 0.12766022D+05 0.12766022D+05 0.12766022D+05 0.12558866D+01  1  2 15  1  5  1       -4 0.923829897782D-02 0.100000000000D+01
  </mgrwgt>
  </event>
  <event>
  4     66 0.46019439E-03 0.12011210E+03 0.75467711E-02 0.12130944E+00
       -4 -1    0    0    0  501 0.00000000E+00 0.00000000E+00 0.31568816E+03 0.31569197E+03 0.15500000E+01 0.0000E+00 0.9000E+01
        3 -1    0    0  501    0 0.00000000E+00 0.00000000E+00 -.45711831E+02 0.45714565E+02 0.50000000E+00 0.0000E+00 0.9000E+01
       25  1    1    2    0    0 -.57749558E+02 0.20226579E+02 0.15970664E+03 0.21183800E+03 0.12500000E+03 0.0000E+00 0.9000E+01
      -24  1    1    2    0    0 0.57749558E+02 -.20226579E+02 0.11026969E+03 0.14956853E+03 0.80419002E+02 0.0000E+00 0.9000E+01
#aMCatNLO 1  0  0  1  1 0.37252616D+02 0.00000000D+00  -5  5  0 0.00000000D+00 0.00000000D+00 0.00000000D+00 0.00000000D+00 0.00000000D+00
  <mgrwgt>
 0.5559347608D-01    3    2    0
 0.120132699295659D+03 0.000000000000000D+00 0.000000000000000D+00 0.120132699295659D+03
 0.120132699295659D+03 0.000000000000000D+00 0.000000000000000D+00 -.120132699295659D+03
 0.139190341593139D+03 -.577495579589881D+02 0.202265787212791D+02 0.219664780700136D+01
 0.101075056998179D+03 0.577495579589881D+02 -.202265787212791D+02 -.219664780700136D+01
 0.000000000000000D+00 -.000000000000000D+00 0.000000000000000D+00 -.000000000000000D+00
 0.124043231113761D+03 0.000000000000000D+00 0.000000000000000D+00 0.124043231113761D+03
 0.261738632731354D+03 0.000000000000000D+00 0.000000000000000D+00 -.261738632731354D+03
 0.131798979686605D+03 -.368780215981807D+02 0.195232504426450D+02 0.219664780700136D+01
 0.111337235603108D+03 0.741095047922201D+02 -.207778756189223D+02 -.219664780700136D+01
 0.142645648555402D+03 -.372314831940394D+02 0.125462517627734D+01 -.137695401617593D+03
0.528572263295D-03 0.000000000000D+00 0.000000000000D+00 0.277994462772D-02 0.000000000000D+00  5 -4 3 25 -24 21 0 0.48567912D-01 0.70330924D-02 0.14426916D+05 0.14426916D+05 0.14426916D+05 0.12497558D+01  1  2  2  1  5  1       -4 0.544412966661D-01 0.100000000000D+01
-.293651246882D-04 0.000000000000D+00 -.202985666733D-05 0.277994462772D-02 0.000000000000D+00  5 -4 3 25 -24 21 2 0.48567912D-01 0.70330924D-02 0.14426916D+05 0.14426916D+05 0.14426916D+05 0.12497558D+01  1  2  3  1  5  1       -4 -.472396054980D-02 0.100000000000D+01
0.365273123822D-04 0.000000000000D+00 0.000000000000D+00 0.277994462772D-02 0.000000000000D+00  5 -4 3 25 -24 21 2 0.48567912D-01 0.70330924D-02 0.14426916D+05 0.14426916D+05 0.14426916D+05 0.12497558D+01  1  2 15  1  5  1       -4 0.587613996247D-02 0.100000000000D+01
  </mgrwgt>
  </event>
  <event>
  4     66 0.46019439E-03 0.84029046E+02 0.75467711E-02 0.11684117E+00
       -2 -1    0    0    0  501 0.00000000E+00 0.00000000E+00 0.45553171E+02 0.45554295E+02 0.32000000E+00 0.0000E+00 0.9000E+01
        1 -1    0    0  501    0 0.00000000E+00 0.00000000E+00 -.37160535E+03 0.37160549E+03 0.32000000E+00 0.0000E+00 0.9000E+01
       25  1    1    2    0    0 -.39222101E+02 0.50867406E+02 -.11221192E+03 0.17983988E+03 0.12500000E+03 0.0000E+00 0.9000E+01
      -24  1    1    2    0    0 0.39222101E+02 -.50867406E+02 -.21384026E+03 0.23731991E+03 0.80419002E+02 0.0000E+00 0.9000E+01
#aMCatNLO 1  0  0  2  1 0.96527638D+02 0.00000000D+00  -5  5  0 0.00000000D+00 0.00000000D+00 0.00000000D+00 0.00000000D+00 0.00000000D+00
  <mgrwgt>
 0.1323184334D+00    7    2    0
 0.130107899205870D+03 0.000000000000000D+00 0.000000000000000D+00 0.130107899205870D+03
 0.130107899205870D+03 0.000000000000000D+00 0.000000000000000D+00 -.130107899205870D+03
 0.147704417367959D+03 -.392221005739300D+02 0.508674058562908D+02 0.454502888662792D+02
 0.112511381043781D+03 0.392221005739300D+02 -.508674058562908D+02 -.454502888662792D+02
 0.000000000000000D+00 -.000000000000000D+00 0.000000000000000D+00 -.000000000000000D+00
 0.166896831281871D+03 0.000000000000000D+00 0.000000000000000D+00 0.166896831281871D+03
 0.221592541411530D+03 0.000000000000000D+00 0.000000000000000D+00 -.221592541411530D+03
 0.134460833357776D+03 0.709142145698927D+00 0.197099991541511D+02 0.454502888662792D+02
 0.143081679886688D+03 0.753929207837788D+02 -.790906435837317D+02 -.454502888662792D+02
 0.110946859448937D+03 -.761020629294777D+02 0.593806444295806D+02 -.546957101296585D+02
0.263776534230D-03 0.000000000000D+00 0.000000000000D+00 0.233652217121D-02 0.000000000000D+00  5 -2 1 25 -24 21 0 0.70082773D-02 0.57170151D-01 0.14818251D+05 0.14818251D+05 0.14818251D+05 0.12484265D+01  1  2  2  2  5  2        1 0.170360526842D+00 0.100000000000D+01
-.145753243971D-04 0.000000000000D+00 -.101297134540D-05 0.233652217121D-02 0.000000000000D+00  5 -2 1 25 -24 21 2 0.70082773D-02 0.57170151D-01 0.14818251D+05 0.14818251D+05 0.14818251D+05 0.12484265D+01  1  2  3  2  5  2        1 -.146715849918D-01 0.100000000000D+01
0.182163608994D-04 0.000000000000D+00 0.000000000000D+00 0.233652217121D-02 0.000000000000D+00  5 -2 1 25 -24 21 2 0.70082773D-02 0.57170151D-01 0.14818251D+05 0.14818251D+05 0.14818251D+05 0.12484265D+01  1  2 15  2  5  2        1 0.183366681862D-01 0.100000000000D+01
0.127588768451D-04 0.000000000000D+00 0.000000000000D+00 0.233652217121D-02 0.000000000000D+00  5 -2 1 25 -24 21 2 0.70082773D-02 0.10081981D+00 0.32174509D+05 0.32174509D+05 0.32174509D+05 0.12117217D+01  1  2 12  2  5  2        1 0.585633512565D-02 0.100000000000D+01
-.119583230191D-03 0.000000000000D+00 -.102051044055D-03 0.233652217121D-02 0.000000000000D+00  5 -2 1 25 -24 21 2 0.70082773D-02 0.11786688D+00 0.14818251D+05 0.14818251D+05 0.14818251D+05 0.12484265D+01  1  2  5  2  5  2        1 -.459562969029D-01 0.100000000000D+01
0.797823050915D-06 0.000000000000D+00 0.000000000000D+00 0.233652217121D-02 0.000000000000D+00  5 -2 21 25 -24 -1 2 0.70082773D-02 0.10081981D+00 0.32174509D+05 0.32174509D+05 0.32174509D+05 0.12117217D+01  1  2 12  4  5  2        1 0.858436080135D-03 0.100000000000D+01
-.309991105519D-05 0.000000000000D+00 -.798401080691D-05 0.233652217121D-02 0.000000000000D+00  5 -2 21 25 -24 -1 2 0.70082773D-02 0.11786688D+00 0.14818251D+05 0.14818251D+05 0.14818251D+05 0.12484265D+01  1  2  5  4  5  2        1 -.246565098064D-02 0.100000000000D+01
  </mgrwgt>
  </event>
  <event>
  4     66 0.46019439E-03 0.10444764E+03 0.75467711E-02 0.11063166E+00
       -4 -1    0    0    0  501 0.00000000E+00 0.00000000E+00 0.96543143E+03 0.96543267E+03 0.15500000E+01 0.0000E+00 0.9000E+01
        3 -1    0    0  501    0 0.00000000E+00 0.00000000E+00 -.50854434E+02 0.50856892E+02 0.50000000E+00 0.0000E+00 0.9000E+01
       25  1    1    2    0    0 0.94435523E+02 0.15085728E+03 0.29396470E+03 0.36567230E+03 0.12500000E+03 0.0000E+00 0.9000E+01
      -24  1    1    2    0    0 -.94435523E+02 -.15085728E+03 0.62061229E+03 0.65061726E+03 0.80419002E+02 0.0000E+00 0.9000E+01
#aMCatNLO 1  0  0  2  1 0.98973708D+02 0.00000000D+00  -5  5  0 0.00000000D+00 0.00000000D+00 0.00000000D+00 0.00000000D+00 0.00000000D+00
  <mgrwgt>
 0.2930907056D-01    7    2    0
 0.221581474361213D+03 0.000000000000000D+00 0.000000000000000D+00 0.221581474361213D+03
 0.221581474361213D+03 0.000000000000000D+00 0.000000000000000D+00 -.221581474361213D+03
 0.231913773205273D+03 0.944355228192429D+02 0.150857280194024D+03 -.805171487611481D+02
 0.211249175517154D+03 -.944355228192429D+02 -.150857280194024D+03 0.805171487611481D+02
 0.000000000000000D+00 -.000000000000000D+00 -.000000000000000D+00 -.000000000000000D+00
 0.237912852960184D+03 0.000000000000000D+00 0.000000000000000D+00 0.237912852960184D+03
 0.452281702730959D+03 0.000000000000000D+00 0.000000000000000D+00 -.452281702730959D+03
 0.260457416952740D+03 0.148673430382067D+03 0.153708379405606D+03 -.805171487611481D+02
 0.193623186049363D+03 -.498361836208232D+02 -.148512847185092D+03 0.805171487611481D+02
 0.236113952689040D+03 -.988372467612435D+02 -.519553222051409D+01 -.214368849770774D+03
0.635427610335D-02 0.000000000000D+00 0.000000000000D+00 0.184269822927D-02 0.000000000000D+00  5 -4 3 25 -24 21 0 0.14852820D+00 0.78240438D-02 0.42599051D+05 0.42599051D+05 0.42599051D+05 0.11992338D+01  1  2  2  2  5  2        3 0.477250266892D-01 0.100000000000D+01
-.350851864832D-03 0.000000000000D+00 -.244020933562D-04 0.184269822927D-02 0.000000000000D+00  5 -4 3 25 -24 21 2 0.14852820D+00 0.78240438D-02 0.42599051D+05 0.42599051D+05 0.42599051D+05 0.11992338D+01  1  2  3  2  5  2        3 -.378975891823D-02 0.100000000000D+01
0.436580623498D-03 0.000000000000D+00 0.000000000000D+00 0.184269822927D-02 0.000000000000D+00  5 -4 3 25 -24 21 2 0.14852820D+00 0.78240438D-02 0.42599051D+05 0.42599051D+05 0.42599051D+05 0.11992338D+01  1  2 15  2  5  2        3 0.471576604622D-02 0.100000000000D+01
0.966524798338D-02 0.000000000000D+00 0.000000000000D+00 0.184269822927D-02 0.000000000000D+00  5 -4 3 25 -24 21 2 0.14852820D+00 0.15968522D-01 0.68319785D+05 0.68319785D+05 0.68319785D+05 0.11790837D+01  1  2 12  2  5  2        3 0.308673380830D-01 0.100000000000D+01
-.135829211166D-01 0.000000000000D+00 -.255089791238D-02 0.184269822927D-02 0.000000000000D+00  5 -4 3 25 -24 21 2 0.14852820D+00 0.17030109D-01 0.42599051D+05 0.42599051D+05 0.42599051D+05 0.11992338D+01  1  2  5  2  5  2        3 -.394562132992D-01 0.100000000000D+01
0.745662623419D-03 0.000000000000D+00 0.000000000000D+00 0.184269822927D-02 0.000000000000D+00  5 -4 21 25 -24 -3 2 0.14852820D+00 0.15968522D-01 0.68319785D+05 0.68319785D+05 0.68319785D+05 0.11790837D+01  1  2 12  4  5  2        3 0.494625085013D-01 0.100000000000D+01
-.984047271746D-03 0.000000000000D+00 -.214897918151D-03 0.184269822927D-02 0.000000000000D+00  5 -4 21 25 -24 -3 2 0.14852820D+00 0.17030109D-01 0.42599051D+05 0.42599051D+05 0.42599051D+05 0.11992338D+01  1  2  5  4  5  2        3 -.602155965378D-01 0.100000000000D+01
  </mgrwgt>
  </event>
  <event>
  4     66 0.46019439E-03 0.12032507E+03 0.75467711E-02 0.10098088E+00
       -2 -1    0    0    0  501 0.00000000E+00 0.00000000E+00 0.58464258E+02 0.58465134E+02 0.32000000E+00 0.0000E+00 0.9000E+01
        1 -1    0    0  501    0 0.00000000E+00 0.00000000E+00 -.27133924E+03 0.27133943E+03 0.32000000E+00 0.0000E+00 0.9000E+01
       25  1    1    2    0    0 0.15934328E+02 -.59499126E+02 -.16997591E+03 0.21979731E+03 0.12500000E+03 0.0000E+00 0.9000E+01
      -24  1    1    2    0    0 -.15934328E+02 0.59499126E+02 -.42899074E+02 0.11000725E+03 0.80419002E+02 0.0000E+00 0.9000E+01
#aMCatNLO 1  0  0  2  1 0.48874072D+03 0.00000000D+00  -5  5  0 0.00000000D+00 0.00000000D+00 0.00000000D+00 0.00000000D+00 0.00000000D+00
  <mgrwgt>
 0.2271400981D+00    3    2    0
 0.125951669070449D+03 0.000000000000000D+00 0.000000000000000D+00 0.125951669070449D+03
 0.125951669070449D+03 0.000000000000000D+00 0.000000000000000D+00 -.125951669070449D+03
 0.144128847890737D+03 0.159343278282140D+02 -.594991264030283D+02 -.367977709685080D+02
 0.107774490250160D+03 -.159343278282140D+02 0.594991264030283D+02 0.367977709685080D+02
 0.000000000000000D+00 -.000000000000000D+00 0.000000000000000D+00 0.000000000000000D+00
 0.529569485628397D+03 0.000000000000000D+00 0.000000000000000D+00 0.529569485628397D+03
 0.509425078858506D+03 0.000000000000000D+00 0.000000000000000D+00 -.509425078858506D+03
 0.434056709360008D+03 0.975823531367760D+02 -.402372756717545D+03 -.367977709685080D+02
 0.115782163108005D+03 0.156350516942998D+02 -.730736789128891D+02 0.367977709685080D+02
 0.489155692018890D+03 -.113217404831076D+03 0.475446435630435D+03 0.201444067698909D+02
0.342827693754D-03 0.000000000000D+00 0.000000000000D+00 0.247978353384D-02 0.000000000000D+00  5 -2 1 25 -24 21 0 0.89945832D-02 0.41744580D-01 0.14478124D+05 0.14478124D+05 0.14478124D+05 0.12495796D+01  1  2  2  2  5  2        1 0.222330571382D+00 0.100000000000D+01
-.189976169483D-04 0.000000000000D+00 -.131654861262D-05 0.247978353384D-02 0.000000000000D+00  5 -2 1 25 -24 21 2 0.89945832D-02 0.41744580D-01 0.14478124D+05 0.14478124D+05 0.14478124D+05 0.12495796D+01  1  2  3  2  5  2        1 -.192375715480D-01 0.100000000000D+01
0.237471533443D-04 0.000000000000D+00 0.000000000000D+00 0.247978353384D-02 0.000000000000D+00  5 -2 1 25 -24 21 2 0.89945832D-02 0.41744580D-01 0.14478124D+05 0.14478124D+05 0.14478124D+05 0.12495796D+01  1  2 15  2  5  2        1 0.240470982633D-01 0.100000000000D+01
  </mgrwgt>
  </event>
  <event>
  4     66 0.46019439E-03 0.88984016E+02 0.75467711E-02 0.12617164E+00
       -2 -1    0    0    0  501 0.00000000E+00 0.00000000E+00 0.54728065E+01 0.54821539E+01 0.32000000E+00 0.0000E+00 0.9000E+01
        1 -1    0    0  501    0 0.00000000E+00 0.00000000E+00 -.23378223E+04 0.23378223E+04 0.32000000E+00 0.0000E+00 0.9000E+01
       25  1    1    2    0    0 -.35225167E+02 -.37326424E+01 -.10616675E+04 0.10695876E+04 0.12500000E+03 0.0000E+00 0.9000E+01
      -24  1    1    2    0    0 0.35225167E+02 0.37326424E+01 -.12706820E+04 0.12737169E+04 0.80419002E+02 0.0000E+00 0.9000E+01
#aMCatNLO 1  0  0  2  1 0.96288028D+00 0.00000000D+00  -5  5  0 0.00000000D+00 0.00000000D+00 0.00000000D+00 0.00000000D+00 0.00000000D+00
  <mgrwgt>
 0.1090391880D+01   10    2    0
 0.113161065075079D+03 0.000000000000000D+00 0.000000000000000D+00 0.113161065075079D+03
 0.113161065075079D+03 0.000000000000000D+00 0.000000000000000D+00 -.113161065075079D+03
 0.133392811832574D+03 -.352251667755328D+02 -.373264235975229D+01 0.302307336207789D+02
 0.929293183175845D+02 0.352251667755328D+02 0.373264235975229D+01 -.302307336207789D+02
 0.000000000000000D+00 -.000000000000000D+00 -.000000000000000D+00 -.000000000000000D+00
 0.113543200513901D+03 0.000000000000000D+00 0.000000000000000D+00 0.113543200513901D+03
 0.113770270082967D+03 0.000000000000000D+00 0.000000000000000D+00 -.113770270082967D+03
 0.133243997087077D+03 -.346580013578172D+02 -.372672059215237D+01 0.302307336207789D+02
 0.930801813255307D+02 0.356208291598509D+02 0.373677346615402D+01 -.302307336207789D+02
 0.989292184261363D+00 -.962827802033699D+00 -.100528740016466D-01 -.227069569066137D+00
0.363225228082D-03 0.000000000000D+00 0.000000000000D+00 0.275291732539D-02 0.000000000000D+00  5 -2 1 25 -24 21 0 0.84269095D-03 0.35966569D+00 0.11858857D+05 0.11858857D+05 0.11858857D+05 0.12596268D+01  1  2  2  2  5  2        1 0.174766920908D+00 0.100000000000D+01
-.201430067549D-04 0.000000000000D+00 -.139488051523D-05 0.275291732539D-02 0.000000000000D+00  5 -2 1 25 -24 21 2 0.84269095D-03 0.35966569D+00 0.11858857D+05 0.11858857D+05 0.11858857D+05 0.12596268D+01  1  2  3  2  5  2        1 -.153776966554D-01 0.100000000000D+01
0.250984460001D-04 0.000000000000D+00 0.000000000000D+00 0.275291732539D-02 0.000000000000D+00  5 -2 1 25 -24 21 2 0.84269095D-03 0.35966569D+00 0.11858857D+05 0.11858857D+05 0.11858857D+05 0.12596268D+01  1  2 15  2  5  2        1 0.191608082054D-01 0.100000000000D+01
-.801909215326D-02 0.000000000000D+00 0.000000000000D+00 0.275291732539D-02 0.000000000000D+00  5 -2 1 25 -24 21 2 0.84269095D-03 0.35966569D+00 0.11858857D+05 0.11858857D+05 0.11858857D+05 0.12596268D+01  1  2  4  2  5  2        1 -.612198407541D+01 0.100000000000D+01
-.597909752259D-01 0.000000000000D+00 -.569090784265D-02 0.275291732539D-02 0.000000000000D+00  5 -2 1 25 -24 21 2 0.84269095D-03 0.36212173D+00 0.11858857D+05 0.11858857D+05 0.11858857D+05 0.12596268D+01  1  2  5  2  5  2        1 -.445841031170D+02 0.100000000000D+01
0.598284507970D-01 0.000000000000D+00 0.569077606000D-02 0.275291732539D-02 0.000000000000D+00  5 -2 1 25 -24 21 2 0.84269095D-03 0.35966569D+00 0.11858857D+05 0.11858857D+05 0.11858857D+05 0.12596268D+01  1  2  6  2  5  2        1 0.456745995726D+02 0.100000000000D+01
0.801926017754D-02 0.000000000000D+00 0.000000000000D+00 0.275291732539D-02 0.251089190603D-01  5 -2 1 25 -24 21 2 0.84553665D-03 0.36160196D+00 0.11964681D+05 0.11964681D+05 0.11964681D+05 0.12591742D+01  1  2 11  2  5  2        1 0.597712223545D+01 0.100000000000D+01
0.819918627317D-10 0.000000000000D+00 0.000000000000D+00 0.275291732539D-02 0.000000000000D+00  5 -2 21 25 -24 -1 2 0.84269095D-03 0.36220658D+00 0.11964681D+05 0.11964681D+05 0.11964681D+05 0.12591742D+01  1  2 12  4  5  2        1 0.435835269968D-07 0.100000000000D+01
-.754237619736D-04 0.000000000000D+00 -.718816488526D-05 0.275291732539D-02 0.000000000000D+00  5 -2 21 25 -24 -1 2 0.84269095D-03 0.36212173D+00 0.11858857D+05 0.11858857D+05 0.11858857D+05 0.12596268D+01  1  2  5  4  5  2        1 -.401957290503D-01 0.100000000000D+01
0.120061987695D-04 0.000000000000D+00 0.000000000000D+00 0.275291732539D-02 0.251026814049D-04  5 -2 21 25 -24 -1 2 0.84553665D-03 0.36160196D+00 0.11964681D+05 0.11964681D+05 0.11964681D+05 0.12591742D+01  1  2 11  4  5  2        1 0.640291749629D-02 0.100000000000D+01
  </mgrwgt>
  </event>
  <event>
  4     66 0.46019439E-03 0.11440578E+03 0.75467711E-02 0.12330172E+00
       -2 -1    0    0    0  501 0.00000000E+00 0.00000000E+00 0.65130060E+02 0.65130846E+02 0.32000000E+00 0.0000E+00 0.9000E+01
        1 -1    0    0  501    0 0.00000000E+00 0.00000000E+00 -.27002184E+03 0.27002203E+03 0.32000000E+00 0.0000E+00 0.9000E+01
       25  1    1    2    0    0 0.26086392E+02 0.41982609E+02 -.32004417E+02 0.13817497E+03 0.12500000E+03 0.0000E+00 0.9000E+01
      -24  1    1    2    0    0 -.26086392E+02 -.41982609E+02 -.17288736E+03 0.19697790E+03 0.80419002E+02 0.0000E+00 0.9000E+01
#aMCatNLO 1  0  0  2  1 0.23156761D+02 0.00000000D+00  -5  5  0 0.00000000D+00 0.00000000D+00 0.00000000D+00 0.00000000D+00 0.00000000D+00
  <mgrwgt>
 0.1867459006D+00    4    2    0
 0.132614863022448D+03 0.000000000000000D+00 0.000000000000000D+00 0.132614863022448D+03
 0.132614863022448D+03 0.000000000000000D+00 0.000000000000000D+00 -.132614863022448D+03
 0.149878734953755D+03 0.260863915365532D+02 0.419826092804673D+02 0.662992902370996D+02
 0.115350991091141D+03 -.260863915365532D+02 -.419826092804673D+02 -.662992902370996D+02
 0.000000000000000D+00 -.000000000000000D+00 -.000000000000000D+00 0.000000000000000D+00
 0.186114193817634D+03 0.000000000000000D+00 0.000000000000000D+00 0.186114193817634D+03
 0.135649007142659D+03 0.000000000000000D+00 0.000000000000000D+00 -.135649007142659D+03
 0.154558809393984D+03 0.293185534908701D+02 0.548475350088374D+02 0.662992902370996D+02
 0.111679886473956D+03 -.236760430807040D+02 -.323887354887858D+02 -.662992902370996D+02
 0.555245050923531D+02 -.564251041016612D+01 -.224587995200516D+02 0.504651866749747D+02
0.377761720665D-03 0.000000000000D+00 0.000000000000D+00 0.201123679829D-02 0.000000000000D+00  5 -2 1 25 -24 21 0 0.10020084D-01 0.41541896D-01 0.13088682D+05 0.13088682D+05 0.13088682D+05 0.12546279D+01  1  2  2  2  5  2        1 0.207560960527D+00 0.100000000000D+01
-.204301231798D-04 0.000000000000D+00 -.145070447430D-05 0.201123679829D-02 0.000000000000D+00  5 -2 1 25 -24 21 2 0.10020084D-01 0.41541896D-01 0.13088682D+05 0.13088682D+05 0.13088682D+05 0.12546279D+01  1  2  3  2  5  2        1 -.176696753929D-01 0.100000000000D+01
0.258399378432D-04 0.000000000000D+00 0.000000000000D+00 0.201123679829D-02 0.000000000000D+00  5 -2 1 25 -24 21 2 0.10020084D-01 0.41541896D-01 0.13088682D+05 0.13088682D+05 0.13088682D+05 0.12546279D+01  1  2 15  2  5  2        1 0.223485345557D-01 0.100000000000D+01
-.294767106119D-04 0.000000000000D+00 0.000000000000D+00 0.201123679829D-02 0.000000000000D+00  5 -2 1 25 -24 21 2 0.10020084D-01 0.41541896D-01 0.13088682D+05 0.13088682D+05 0.13088682D+05 0.12546279D+01  1  2  4  2  5  2        1 -.254939191300D-01 0.100000000000D+01
  </mgrwgt>
  </event>
  <event>
  4     66 0.46019439E-03 0.12824827E+03 0.75467711E-02 0.10984140E+00
       -2 -1    0    0    0  501 0.00000000E+00 0.00000000E+00 0.80025345E+01 0.80089299E+01 0.32000000E+00 0.0000E+00 0.9000E+01
        1 -1    0    0  501    0 0.00000000E+00 0.00000000E+00 -.20985049E+04 0.20985049E+04 0.32000000E+00 0.0000E+00 0.9000E+01
       25  1    1    2    0    0 -.29467437E+02 -.69655324E+02 -.13388054E+04 0.13467535E+04 0.12500000E+03 0.0000E+00 0.9000E+01
      -24  1    1    2    0    0 0.29467437E+02 0.69655324E+02 -.75169699E+03 0.75976034E+03 0.80419002E+02 0.0000E+00 0.9000E+01
#aMCatNLO 1  0  0  1  2 0.21525941D+03 0.00000000D+00  -5  5  0 0.00000000D+00 0.00000000D+00 0.00000000D+00 0.00000000D+00 0.00000000D+00
  <mgrwgt>
 0.3083512355D+00    5    2    0
 0.129615275036409D+03 0.000000000000000D+00 0.000000000000000D+00 0.129615275036409D+03
 0.129615275036409D+03 0.000000000000000D+00 0.000000000000000D+00 -.129615275036409D+03
 0.147278671659718D+03 -.294674366354461D+02 -.696553238728687D+02 -.185960522733409D+02
 0.111951878413100D+03 0.294674366354461D+02 0.696553238728687D+02 0.185960522733409D+02
 0.000000000000000D+00 0.000000000000000D+00 -.000000000000000D+00 0.000000000000000D+00
 0.332063068373358D+03 0.000000000000000D+00 0.000000000000000D+00 0.332063068373358D+03
 0.239289851811179D+03 0.000000000000000D+00 0.000000000000000D+00 -.239289851811179D+03
 0.184400461144607D+03 -.133839995117527D+03 -.109349264803646D+02 -.185960522733409D+02
 0.152552194718954D+03 -.537665208592837D+02 0.116483064149835D+03 0.185960522733409D+02
 0.234400264320977D+03 0.187606515976811D+03 -.105548137669470D+03 0.927732165621785D+02
0.594069146183D-03 0.000000000000D+00 0.000000000000D+00 0.257847861819D-02 0.000000000000D+00  5 -2 1 25 -24 21 0 0.12316530D-02 0.32284740D+00 0.16447620D+05 0.16447620D+05 0.16447620D+05 0.12432868D+01  1  2  2  1  5  1       -2 0.237195784586D+00 0.100000000000D+01
-.329993304642D-04 0.000000000000D+00 -.228138194334D-05 0.257847861819D-02 0.000000000000D+00  5 -2 1 25 -24 21 2 0.12316530D-02 0.32284740D+00 0.16447620D+05 0.16447620D+05 0.16447620D+05 0.12432868D+01  1  2  3  1  5  1       -2 -.203665624903D-01 0.100000000000D+01
0.410718411010D-04 0.000000000000D+00 0.000000000000D+00 0.257847861819D-02 0.000000000000D+00  5 -2 1 25 -24 21 2 0.12316530D-02 0.32284740D+00 0.16447620D+05 0.16447620D+05 0.16447620D+05 0.12432868D+01  1  2 15  1  5  1       -2 0.253487633418D-01 0.100000000000D+01
0.419965501842D-03 0.000000000000D+00 -.263007308901D-03 0.257847861819D-02 0.000000000000D+00  5 -2 1 25 -24 21 2 0.78984153D-02 0.32284740D+00 0.16447620D+05 0.16447620D+05 0.16447620D+05 0.12432868D+01  1  2  5  1  5  1       -2 0.167079450142D-01 0.100000000000D+01
0.753590486461D-04 0.000000000000D+00 -.598777566298D-04 0.257847861819D-02 0.000000000000D+00  5 21 1 25 -24 2 2 0.78984153D-02 0.32284740D+00 0.16447620D+05 0.16447620D+05 0.16447620D+05 0.12432868D+01  1  2  5  3  5  1       -2 0.494653050419D-01 0.100000000000D+01
  </mgrwgt>
  </event>
  <event>
  4     66 0.46019439E-03 0.31494025E+03 0.75467711E-02 0.99558901E-01
       -2 -1    0    0    0  501 0.00000000E+00 0.00000000E+00 0.22727055E+03 0.22727077E+03 0.32000000E+00 0.0000E+00 0.9000E+01
        1 -1    0    0  501    0 0.00000000E+00 0.00000000E+00 -.43656582E+03 0.43656593E+03 0.32000000E+00 0.0000E+00 0.9000E+01
       25  1    1    2    0    0 -.18333169E+03 -.23363131E+03 -.10116804E+03 0.33771892E+03 0.12500000E+03 0.0000E+00 0.9000E+01
      -24  1    1    2    0    0 0.18333169E+03 0.23363131E+03 -.10812723E+03 0.32611779E+03 0.80419002E+02 0.0000E+00 0.9000E+01
#aMCatNLO 1  0  0  1  2 0.40417470D+03 0.00000000D+00  -5  5  0 0.00000000D+00 0.00000000D+00 0.00000000D+00 0.00000000D+00 0.00000000D+00
  <mgrwgt>
 0.3048336175D+00    5    2    0
 0.314989945103646D+03 0.000000000000000D+00 0.000000000000000D+00 0.314989945103646D+03
 0.314989945103646D+03 0.000000000000000D+00 0.000000000000000D+00 -.314989945103646D+03
 0.322258259686367D+03 -.183331686715870D+03 -.233631310254803D+03 0.559369740195480D+01
 0.307721630520925D+03 0.183331686715870D+03 0.233631310254803D+03 -.559369740195480D+01
 0.000000000000000D+00 0.000000000000000D+00 0.000000000000000D+00 0.000000000000000D+00
 0.723539627593938D+03 0.000000000000000D+00 0.000000000000000D+00 0.723539627593938D+03
 0.491161919785164D+03 0.000000000000000D+00 0.000000000000000D+00 -.491161919785164D+03
 0.564774821357218D+03 -.275720073807783D+03 -.476752294475741D+03 0.559369740195480D+01
 0.183711552150632D+03 0.132146764664197D+03 0.989376651098289D+02 -.559369740195480D+01
 0.466215173871251D+03 0.143573309143586D+03 0.377814629365912D+03 0.232377707808774D+03
0.799707271268D-02 0.000000000000D+00 0.000000000000D+00 0.199779920905D-02 0.000000000000D+00  5 -2 1 25 -24 21 0 0.34964726D-01 0.67163998D-01 0.99187359D+05 0.99187359D+05 0.99187359D+05 0.11638973D+01  1  2  2  1  5  1       -2 0.293537506514D+00 0.100000000000D+01
-.444281803922D-03 0.000000000000D+00 -.307108648943D-04 0.199779920905D-02 0.000000000000D+00  5 -2 1 25 -24 21 2 0.34964726D-01 0.67163998D-01 0.99187359D+05 0.99187359D+05 0.99187359D+05 0.11638973D+01  1  2  3  1  5  1       -2 -.220912567003D-01 0.100000000000D+01
0.547139987671D-03 0.000000000000D+00 0.000000000000D+00 0.199779920905D-02 0.000000000000D+00  5 -2 1 25 -24 21 2 0.34964726D-01 0.67163998D-01 0.99187359D+05 0.99187359D+05 0.99187359D+05 0.11638973D+01  1  2 15  1  5  1       -2 0.272057280130D-01 0.100000000000D+01
0.225065113945D-03 0.000000000000D+00 -.227345535690D-02 0.199779920905D-02 0.000000000000D+00  5 -2 1 25 -24 21 2 0.11551920D+00 0.67163998D-01 0.99187359D+05 0.99187359D+05 0.99187359D+05 0.11638973D+01  1  2  5  1  5  1       -2 0.886282508911D-03 0.100000000000D+01
0.120857866495D-03 0.000000000000D+00 -.314715803995D-03 0.199779920905D-02 0.000000000000D+00  5 21 1 25 -24 2 2 0.11551920D+00 0.67163998D-01 0.99187359D+05 0.99187359D+05 0.99187359D+05 0.11638973D+01  1  2  5  3  5  1       -2 0.529535719136D-02 0.100000000000D+01
  </mgrwgt>
  </event>
  <event>
  4     66 0.46019439E-03 0.59938594E+02 0.75467711E-02 0.12299596E+00
       -2 -1    0    0    0  501 0.00000000E+00 0.00000000E+00 0.50181536E+02 0.50182556E+02 0.32000000E+00 0.0000E+00 0.9000E+01
        1 -1    0    0  501    0 0.00000000E+00 0.00000000E+00 -.37349528E+03 0.37349541E+03 0.32000000E+00 0.0000E+00 0.9000E+01
       25  1    1    2    0    0 0.43869252E+02 0.32259815E+02 -.29093949E+03 0.32130358E+03 0.12500000E+03 0.0000E+00 0.9000E+01
      -24  1    1    2    0    0 -.43869252E+02 -.32259815E+02 -.32374253E+02 0.10237439E+03 0.80419002E+02 0.0000E+00 0.9000E+01
#aMCatNLO 1  0  0  1  2 0.22657276D+02 0.00000000D+00  -5  5  0 0.00000000D+00 0.00000000D+00 0.00000000D+00 0.00000000D+00 0.00000000D+00
  <mgrwgt>
 0.2153194095D+00    9    2    0
 0.136904389352040D+03 0.000000000000000D+00 0.000000000000000D+00 0.136904389352040D+03
 0.136904389352040D+03 0.000000000000000D+00 0.000000000000000D+00 -.136904389352040D+03
 0.153627344855828D+03 0.438692515128422D+02 0.322598153621998D+02 -.707895060863631D+02
 0.120181433848253D+03 -.438692515128422D+02 -.322598153621998D+02 0.707895060863631D+02
 0.000000000000000D+00 -.000000000000000D+00 -.000000000000000D+00 0.000000000000000D+00
 0.153233186738137D+03 0.000000000000000D+00 0.000000000000000D+00 0.153233186738137D+03
 0.145463785268347D+03 0.000000000000000D+00 0.000000000000000D+00 -.145463785268347D+03
 0.158649382269584D+03 0.537569254327373D+02 0.405421421558915D+02 -.707895060863631D+02
 0.116095225416799D+03 -.363879813483936D+02 -.259931924096383D+02 0.707895060863631D+02
 0.239523643201008D+02 -.173689440843437D+02 -.145489497462532D+02 0.776940146979025D+01
0.332808490840D-03 0.000000000000D+00 0.000000000000D+00 0.192711780850D-02 0.000000000000D+00  5 -2 1 25 -24 21 0 0.77203253D-02 0.57460901D-01 0.13626660D+05 0.13626660D+05 0.13626660D+05 0.12526048D+01  1  2  2  1  5  1       -2 0.183689291175D+00 0.100000000000D+01
-.179182353093D-04 0.000000000000D+00 -.127807223531D-05 0.192711780850D-02 0.000000000000D+00  5 -2 1 25 -24 21 2 0.77203253D-02 0.57460901D-01 0.13626660D+05 0.13626660D+05 0.13626660D+05 0.12526048D+01  1  2  3  1  5  1       -2 -.155171807196D-01 0.100000000000D+01
0.226908696513D-04 0.000000000000D+00 0.000000000000D+00 0.192711780850D-02 0.000000000000D+00  5 -2 1 25 -24 21 2 0.77203253D-02 0.57460901D-01 0.13626660D+05 0.13626660D+05 0.13626660D+05 0.12526048D+01  1  2 15  1  5  1       -2 0.196502791142D-01 0.100000000000D+01
0.396305990705D-03 0.000000000000D+00 0.000000000000D+00 0.192711780850D-02 0.000000000000D+00  5 -2 1 25 -24 21 2 0.88599128D-02 0.57460901D-01 0.16467797D+05 0.16467797D+05 0.16467797D+05 0.12432268D+01  1  2 12  1  5  1       -2 0.274896596630D+00 0.100000000000D+01
-.375181674638D-03 0.000000000000D+00 0.000000000000D+00 0.192711780850D-02 0.000000000000D+00  5 -2 1 25 -24 21 2 0.77203253D-02 0.57460901D-01 0.13626660D+05 0.13626660D+05 0.13626660D+05 0.12526048D+01  1  2  4  1  5  1       -2 -.324907098691D+00 0.100000000000D+01
-.946005094196D-03 0.000000000000D+00 -.241352693224D-03 0.192711780850D-02 0.000000000000D+00  5 -2 1 25 -24 21 2 0.91710619D-02 0.57460901D-01 0.13626660D+05 0.13626660D+05 0.13626660D+05 0.12526048D+01  1  2  5  1  5  1       -2 -.627961795022D+00 0.100000000000D+01
0.976585274231D-03 0.000000000000D+00 0.237818121173D-03 0.192711780850D-02 0.000000000000D+00  5 -2 1 25 -24 21 2 0.77203253D-02 0.57460901D-01 0.13626660D+05 0.13626660D+05 0.13626660D+05 0.12526048D+01  1  2  6  1  5  1       -2 0.845722244780D+00 0.100000000000D+01
0.842973506661D-05 0.000000000000D+00 0.000000000000D+00 0.192711780850D-02 0.000000000000D+00  5 21 1 25 -24 2 2 0.88599128D-02 0.57460901D-01 0.16467797D+05 0.16467797D+05 0.16467797D+05 0.12432268D+01  1  2 12  3  5  1       -2 0.944814527170D-01 0.100000000000D+01
-.219543408943D-04 0.000000000000D+00 -.614754639657D-05 0.192711780850D-02 0.000000000000D+00  5 21 1 25 -24 2 2 0.91710619D-02 0.57460901D-01 0.13626660D+05 0.13626660D+05 0.13626660D+05 0.12526048D+01  1  2  5  3  5  1       -2 -.234734380480D+00 0.100000000000D+01
  </mgrwgt>
  </event>
  <event>
  4     66 0.46019439E-03 0.11372313E+03 0.75467711E-02 0.11848540E+00
       -2 -1    0    0    0  501 0.00000000E+00 0.00000000E+00 0.10161342E+02 0.10166379E+02 0.32000000E+00 0.0000E+00 0.9000E+01
        1 -1    0    0  501    0 0.00000000E+00 0.00000000E+00 -.12755247E+04 0.12755247E+04 0.32000000E+00 0.0000E+00 0.9000E+01
       25  1    1    2    0    0 0.24717084E+02 -.41002390E+02 -.77552725E+03 0.78699405E+03 0.12500000E+03 0.0000E+00 0.9000E+01
      -24  1    1    2    0    0 -.24717084E+02 0.41002390E+02 -.48983607E+03 0.49869702E+03 0.80419002E+02 0.0000E+00 0.9000E+01
#aMCatNLO 1  0  0  1  2 0.84322339D+02 0.00000000D+00  -5  5  0 0.00000000D+00 0.00000000D+00 0.00000000D+00 0.00000000D+00 0.00000000D+00
  <mgrwgt>
 0.2879453204D+00    3    2    0
 0.113860906280565D+03 0.000000000000000D+00 0.000000000000000D+00 0.113860906280565D+03
 0.113860906280565D+03 0.000000000000000D+00 0.000000000000000D+00 -.113860906280565D+03
 0.133968299469285D+03 0.247170843073537D+02 -.410023899563079D+02 -.551135409007032D+01
 0.937535130918444D+02 -.247170843073537D+02 0.410023899563079D+02 0.551135409007032D+01
 0.000000000000000D+00 0.000000000000000D+00 -.000000000000000D+00 -.000000000000000D+00
 0.143361440342364D+03 0.000000000000000D+00 0.000000000000000D+00 0.143361440342364D+03
 0.202415735216454D+03 0.000000000000000D+00 0.000000000000000D+00 -.202415735216454D+03
 0.128178805838190D+03 -.179225768611640D+02 -.212887876792921D+02 -.551135409007032D+01
 0.114653401115733D+03 -.586156093227815D+02 0.566747011712248D+02 0.551135409007032D+01
 0.102944968604895D+03 0.765381861839455D+02 -.353859134919327D+02 -.590542948740895D+02
0.296437005753D-03 0.000000000000D+00 0.000000000000D+00 0.290767543885D-02 0.000000000000D+00  5 -2 1 25 -24 21 0 0.15636739D-02 0.19623495D+00 0.12932951D+05 0.12932951D+05 0.12932951D+05 0.12552310D+01  1  2  2  1  5  1       -2 0.281914690100D+00 0.100000000000D+01
-.164686931887D-04 0.000000000000D+00 -.113839615575D-05 0.290767543885D-02 0.000000000000D+00  5 -2 1 25 -24 21 2 0.15636739D-02 0.19623495D+00 0.12932951D+05 0.12932951D+05 0.12932951D+05 0.12552310D+01  1  2  3  1  5  1       -2 -.246769643771D-01 0.100000000000D+01
0.204933616279D-04 0.000000000000D+00 0.000000000000D+00 0.290767543885D-02 0.000000000000D+00  5 -2 1 25 -24 21 2 0.15636739D-02 0.19623495D+00 0.12932951D+05 0.12932951D+05 0.12932951D+05 0.12552310D+01  1  2 15  1  5  1       -2 0.307075946504D-01 0.100000000000D+01
  </mgrwgt>
  </event>
  <event>
  4     66 0.46019439E-03 0.11902136E+03 0.75467711E-02 0.10572563E+00
       -2 -1    0    0    0  501 0.00000000E+00 0.00000000E+00 0.29335477E+02 0.29337222E+02 0.32000000E+00 0.0000E+00 0.9000E+01
        1 -1    0    0  501    0 0.00000000E+00 0.00000000E+00 -.48752250E+03 0.48752261E+03 0.32000000E+00 0.0000E+00 0.9000E+01
       25  1    1    2    0    0 -.29539171E+02 0.51160749E+02 -.24088457E+03 0.27774154E+03 0.12500000E+03 0.0000E+00 0.9000E+01
      -24  1    1    2    0    0 0.29539171E+02 -.51160749E+02 -.21730245E+03 0.23911829E+03 0.80419002E+02 0.0000E+00 0.9000E+01
#aMCatNLO 1  0  0  1  2 0.32439572D+03 0.00000000D+00  -5  5  0 0.00000000D+00 0.00000000D+00 0.00000000D+00 0.00000000D+00 0.00000000D+00
  <mgrwgt>
 0.2038572399D+00    5    2    0
 0.119591735292705D+03 0.000000000000000D+00 0.000000000000000D+00 0.119591735292705D+03
 0.119591735292705D+03 0.000000000000000D+00 0.000000000000000D+00 -.119591735292705D+03
 0.138735583367188D+03 -.295391711892332D+02 0.511607493652620D+02 0.115142165201143D+02
 0.100447887218222D+03 0.295391711892332D+02 -.511607493652620D+02 -.115142165201143D+02
 0.000000000000000D+00 0.000000000000000D+00 0.000000000000000D+00 0.000000000000000D+00
 0.554995705061513D+03 0.000000000000000D+00 0.000000000000000D+00 0.554995705061513D+03
 0.275947086958123D+03 0.000000000000000D+00 0.000000000000000D+00 -.275947086958123D+03
 0.244849900663044D+03 -.209110279387240D+03 -.216052708203557D+02 0.115142165201143D+02
 0.158190195104120D+03 -.915392559109168D+02 -.100224295048220D+03 -.115142165201143D+02
 0.427902696252472D+03 0.300649535298157D+03 0.121829565868576D+03 0.279048618103391D+03
0.197081115118D-03 0.000000000000D+00 0.000000000000D+00 0.276873799909D-02 0.000000000000D+00  5 -2 1 25 -24 21 0 0.45132926D-02 0.75003604D-01 0.14166085D+05 0.14166085D+05 0.14166085D+05 0.12506645D+01  1  2  2  1  5  1       -2 0.174876585011D+00 0.100000000000D+01
-.109486465812D-04 0.000000000000D+00 -.756843374701D-06 0.276873799909D-02 0.000000000000D+00  5 -2 1 25 -24 21 2 0.45132926D-02 0.75003604D-01 0.14166085D+05 0.14166085D+05 0.14166085D+05 0.12506645D+01  1  2  3  1  5  1       -2 -.151959798791D-01 0.100000000000D+01
0.136247667265D-04 0.000000000000D+00 0.000000000000D+00 0.276873799909D-02 0.000000000000D+00  5 -2 1 25 -24 21 2 0.45132926D-02 0.75003604D-01 0.14166085D+05 0.14166085D+05 0.14166085D+05 0.12506645D+01  1  2 15  1  5  1       -2 0.189102533813D-01 0.100000000000D+01
0.259364982074D-03 0.000000000000D+00 -.130770636173D-03 0.276873799909D-02 0.000000000000D+00  5 -2 1 25 -24 21 2 0.47351993D-01 0.75003604D-01 0.14166085D+05 0.14166085D+05 0.14166085D+05 0.12506645D+01  1  2  5  1  5  1       -2 0.734078451777D-02 0.100000000000D+01
0.502332062738D-04 0.000000000000D+00 -.363832905495D-04 0.276873799909D-02 0.000000000000D+00  5 21 1 25 -24 2 2 0.47351993D-01 0.75003604D-01 0.14166085D+05 0.14166085D+05 0.14166085D+05 0.12506645D+01  1  2  5  3  5  1       -2 0.179255969034D-01 0.100000000000D+01
  </mgrwgt>
  </event>
  <event>
  4     66 0.46019439E-03 0.12648364E+03 0.75467711E-02 0.11051599E+00
       -2 -1    0    0    0  501 0.00000000E+00 0.00000000E+00 0.13317452E+03 0.13317490E+03 0.32000000E+00 0.0000E+00 0.9000E+01
        1 -1    0    0  501    0 0.00000000E+00 0.00000000E+00 -.16155627E+03 0.16155659E+03 0.32000000E+00 0.0000E+00 0.9000E+01
       25  1    1    2    0    0 -.72319030E+02 0.70425981E+01 0.58353155E+02 0.15591578E+03 0.12500000E+03 0.0000E+00 0.9000E+01
      -24  1    1    2    0    0 0.72319030E+02 -.70425981E+01 -.86734911E+02 0.13881571E+03 0.80419002E+02 0.0000E+00 0.9000E+01
#aMCatNLO 1  0  0  1  2 0.20283231D+03 0.00000000D+00  -5  5  0 0.00000000D+00 0.00000000D+00 0.00000000D+00 0.00000000D+00 0.00000000D+00
  <mgrwgt>
 0.1734170500D+00    5    2    0
 0.146680884803752D+03 0.000000000000000D+00 0.000000000000000D+00 0.146680884803752D+03
 0.146680884803752D+03 0.000000000000000D+00 0.000000000000000D+00 -.146680884803752D+03
 0.162289230870593D+03 -.723190304900338D+02 0.704259807334011D+01 0.737099321525087D+02
 0.131072538736911D+03 0.723190304900338D+02 -.704259807334011D+01 -.737099321525087D+02
 0.000000000000000D+00 -.000000000000000D+00 -.000000000000000D+00 0.000000000000000D+00
 0.351799225562488D+03 0.000000000000000D+00 0.000000000000000D+00 0.351799225562488D+03
 0.237617394630938D+03 0.000000000000000D+00 0.000000000000000D+00 -.237617394630938D+03
 0.151626752750970D+03 0.202742933317797D+02 0.390060390423512D+02 0.737099321525087D+02
 0.205027246397064D+03 0.171455735420832D+03 0.271796339961746D+02 -.737099321525087D+02
 0.232762621045393D+03 -.191730028752611D+03 -.661856730385258D+02 0.114181830931550D+03
0.477897751398D-03 0.000000000000D+00 0.000000000000D+00 0.187721306435D-02 0.000000000000D+00  5 -2 1 25 -24 21 0 0.20488441D-01 0.24854865D-01 0.15998112D+05 0.15998112D+05 0.15998112D+05 0.12446456D+01  1  2  2  1  5  1       -2 0.156196920848D+00 0.100000000000D+01
-.258413975767D-04 0.000000000000D+00 -.183525319874D-05 0.187721306435D-02 0.000000000000D+00  5 -2 1 25 -24 21 2 0.20488441D-01 0.24854865D-01 0.15998112D+05 0.15998112D+05 0.15998112D+05 0.12446456D+01  1  2  3  1  5  1       -2 -.130841320471D-01 0.100000000000D+01
0.329487409126D-04 0.000000000000D+00 0.000000000000D+00 0.187721306435D-02 0.000000000000D+00  5 -2 1 25 -24 21 2 0.20488441D-01 0.24854865D-01 0.15998112D+05 0.15998112D+05 0.15998112D+05 0.12446456D+01  1  2 15  1  5  1       -2 0.166827539263D-01 0.100000000000D+01
0.957233629612D-04 0.000000000000D+00 -.144611939869D-03 0.187721306435D-02 0.000000000000D+00  5 -2 1 25 -24 21 2 0.75327523D-01 0.24854865D-01 0.15998112D+05 0.15998112D+05 0.15998112D+05 0.12446456D+01  1  2  5  1  5  1       -2 0.409765232035D-02 0.100000000000D+01
0.182976911322D-04 0.000000000000D+00 -.222021753570D-04 0.187721306435D-02 0.000000000000D+00  5 21 1 25 -24 2 2 0.75327523D-01 0.24854865D-01 0.15998112D+05 0.15998112D+05 0.15998112D+05 0.12446456D+01  1  2  5  3  5  1       -2 0.952385500158D-02 0.100000000000D+01
  </mgrwgt>
  </event>
  <event>
  4     66 0.46019439E-03 0.26811984E+03 0.75467711E-02 0.92838216E-01
       -2 -1    0    0    0  501 0.00000000E+00 0.00000000E+00 0.35299599E+02 0.35301050E+02 0.32000000E+00 0.0000E+00 0.9000E+01
        1 -1    0    0  501    0 0.00000000E+00 0.00000000E+00 -.22174563E+04 0.22174563E+04 0.32000000E+00 0.0000E+00 0.9000E+01
       25  1    1    2    0    0 -.17184338E+03 -.17715785E+03 -.80134857E+03 0.84776151E+03 0.12500000E+03 0.0000E+00 0.9000E+01
      -24  1    1    2    0    0 0.17184338E+03 0.17715785E+03 -.13808081E+04 0.14049958E+04 0.80419002E+02 0.0000E+00 0.9000E+01
#aMCatNLO 1  0  0  1  2 0.95636440D+03 0.00000000D+00  -5  5  0 0.00000000D+00 0.00000000D+00 0.00000000D+00 0.00000000D+00 0.00000000D+00
  <mgrwgt>
 0.2710067745D+00    5    2    0
 0.279780230682122D+03 0.000000000000000D+00 0.000000000000000D+00 0.279780230682122D+03
 0.279780230682122D+03 0.000000000000000D+00 0.000000000000000D+00 -.279780230682122D+03
 0.287963246350618D+03 -.171843381012193D+03 -.177157854566074D+03 0.798922913467299D+02
 0.271597215013625D+03 0.171843381012193D+03 0.177157854566074D+03 -.798922913467299D+02
 0.000000000000000D+00 -.000000000000000D+00 -.000000000000000D+00 0.000000000000000D+00
 0.153381580487867D+04 0.000000000000000D+00 0.000000000000000D+00 0.153381580487867D+04
 0.787390018704470D+03 0.000000000000000D+00 0.000000000000000D+00 -.787390018704470D+03
 0.219151038427856D+03 -.119051327009921D+03 0.108840162461077D+03 0.798922913467299D+02
 0.888883604349360D+03 0.292652768409303D+03 0.831635993119874D+03 -.798922913467299D+02
 0.121317118080592D+04 -.173601441399382D+03 -.940476155580950D+03 0.746425786174200D+03
0.718911581474D-02 0.000000000000D+00 0.000000000000D+00 0.186570443809D-02 0.000000000000D+00  5 -2 1 25 -24 21 0 0.54308209D-02 0.34114723D+00 0.71888248D+05 0.71888248D+05 0.71888248D+05 0.11769737D+01  1  2  2  1  5  1       -2 0.265567528477D+00 0.100000000000D+01
-.398515289647D-03 0.000000000000D+00 -.276080976663D-04 0.186570443809D-02 0.000000000000D+00  5 -2 1 25 -24 21 2 0.54308209D-02 0.34114723D+00 0.71888248D+05 0.71888248D+05 0.71888248D+05 0.11769737D+01  1  2  3  1  5  1       -2 -.203928528388D-01 0.100000000000D+01
0.493994293329D-03 0.000000000000D+00 0.000000000000D+00 0.186570443809D-02 0.000000000000D+00  5 -2 1 25 -24 21 2 0.54308209D-02 0.34114723D+00 0.71888248D+05 0.71888248D+05 0.71888248D+05 0.11769737D+01  1  2 15  1  5  1       -2 0.252787112284D-01 0.100000000000D+01
0.169159260734D+00 0.000000000000D+00 -.364677834239D-01 0.186570443809D-02 0.000000000000D+00  5 -2 1 25 -24 21 2 0.48075036D+00 0.34114723D+00 0.71888248D+05 0.71888248D+05 0.71888248D+05 0.11769737D+01  1  2  5  1  5  1       -2 0.137200123960D-03 0.100000000000D+01
0.486926676832D-01 0.000000000000D+00 -.132172180760D-01 0.186570443809D-02 0.000000000000D+00  5 21 1 25 -24 2 2 0.48075036D+00 0.34114723D+00 0.71888248D+05 0.71888248D+05 0.71888248D+05 0.11769737D+01  1  2  5  3  5  1       -2 0.416187494660D-03 0.100000000000D+01
  </mgrwgt>
  </event>
  <event>
  4     66 0.46019439E-03 0.12826471E+03 0.75467711E-02 0.10270108E+00
       -2 -1    0    0    0  501 0.00000000E+00 0.00000000E+00 0.18293852E+02 0.18296650E+02 0.32000000E+00 0.0000E+00 0.9000E+01
        1 -1    0    0  501    0 0.00000000E+00 0.00000000E+00 -.10541577E+04 0.10541577E+04 0.32000000E+00 0.0000E+00 0.9000E+01
       25  1    1    2    0    0 -.30375190E+02 0.69294131E+02 -.37555552E+03 0.40297801E+03 0.12500000E+03 0.0000E+00 0.9000E+01
      -24  1    1    2    0    0 0.30375190E+02 -.69294131E+02 -.66030832E+03 0.66947638E+03 0.80419002E+02 0.0000E+00 0.9000E+01
#aMCatNLO 1  0  0  1  2 0.41659258D+03 0.00000000D+00  -5  5  0 0.00000000D+00 0.00000000D+00 0.00000000D+00 0.00000000D+00 0.00000000D+00
  <mgrwgt>
 0.2952039253D+00    5    2    0
 0.138874515215035D+03 0.000000000000000D+00 0.000000000000000D+00 0.138874515215035D+03
 0.138874515215035D+03 0.000000000000000D+00 0.000000000000000D+00 -.138874515215035D+03
 0.155360232611509D+03 -.303751901296356D+02 0.692941306255610D+02 0.527965260461166D+02
 0.122388797818561D+03 0.303751901296356D+02 -.692941306255610D+02 -.527965260461166D+02
 0.000000000000000D+00 -.000000000000000D+00 0.000000000000000D+00 0.000000000000000D+00
 0.100719282468919D+04 0.000000000000000D+00 0.000000000000000D+00 0.100719282468919D+04
 0.307673216483029D+03 0.000000000000000D+00 0.000000000000000D+00 -.307673216483029D+03
 0.173947284929786D+03 0.929782883573980D+02 -.565705105689754D+02 0.527965260461166D+02
 0.326746134262180D+03 0.198614155932321D+03 -.240958013358472D+03 -.527965260461166D+02
 0.814172621980255D+03 -.291592444289719D+03 0.297528523927447D+03 0.699519608206164D+03
0.453028266504D-03 0.000000000000D+00 0.000000000000D+00 0.218618333157D-02 0.000000000000D+00  5 -2 1 25 -24 21 0 0.28146577D-02 0.16217832D+00 0.16451836D+05 0.16451836D+05 0.16451836D+05 0.12432742D+01  1  2  2  1  5  1       -2 0.262585473716D+00 0.100000000000D+01
-.249749553554D-04 0.000000000000D+00 -.173974782846D-05 0.218618333157D-02 0.000000000000D+00  5 -2 1 25 -24 21 2 0.28146577D-02 0.16217832D+00 0.16451836D+05 0.16451836D+05 0.16451836D+05 0.12432742D+01  1  2  3  1  5  1       -2 -.223760790288D-01 0.100000000000D+01
0.313196838036D-04 0.000000000000D+00 0.000000000000D+00 0.218618333157D-02 0.000000000000D+00  5 -2 1 25 -24 21 2 0.28146577D-02 0.16217832D+00 0.16451836D+05 0.16451836D+05 0.16451836D+05 0.12432742D+01  1  2 15  1  5  1       -2 0.280605794875D-01 0.100000000000D+01
0.906119669012D-03 0.000000000000D+00 -.468171704888D-03 0.218618333157D-02 0.000000000000D+00  5 -2 1 25 -24 21 2 0.48047339D-01 0.16217832D+00 0.16451836D+05 0.16451836D+05 0.16451836D+05 0.12432742D+01  1  2  5  1  5  1       -2 0.795418422501D-02 0.100000000000D+01
0.172364762695D-03 0.000000000000D+00 -.146546673013D-03 0.218618333157D-02 0.000000000000D+00  5 21 1 25 -24 2 2 0.48047339D-01 0.16217832D+00 0.16451836D+05 0.16451836D+05 0.16451836D+05 0.12432742D+01  1  2  5  3  5  1       -2 0.189797669239D-01 0.100000000000D+01
  </mgrwgt>
  </event>
  <event>
  4     66 0.46019439E-03 0.69424269E+02 0.75467711E-02 0.12247123E+00
       -2 -1    0    0    0  501 0.00000000E+00 0.00000000E+00 0.48475672E+01 0.48581177E+01 0.32000000E+00 0.0000E+00 0.9000E+01
        1 -1    0    0  501    0 0.00000000E+00 0.00000000E+00 -.26496362E+04 0.26496362E+04 0.32000000E+00 0.0000E+00 0.9000E+01
       25  1    1    2    0    0 0.27305372E+02 -.32068625E+02 -.18050008E+04 0.18098141E+04 0.12500000E+03 0.0000E+00 0.9000E+01
      -24  1    1    2    0    0 -.27305372E+02 0.32068625E+02 -.83978783E+03 0.84468029E+03 0.80419002E+02 0.0000E+00 0.9000E+01
#aMCatNLO 1  0  0  1  2 0.37866092D+02 0.00000000D+00  -5  5  0 0.00000000D+00 0.00000000D+00 0.00000000D+00 0.00000000D+00 0.00000000D+00
  <mgrwgt>
 0.2069515882D+00    9    2    0
 0.113394525119545D+03 0.000000000000000D+00 0.000000000000000D+00 0.113394525119545D+03
 0.113394525119545D+03 0.000000000000000D+00 0.000000000000000D+00 -.113394525119545D+03
 0.133584618150878D+03 0.273053715929549D+02 -.320686253568997D+02 -.211156377219640D+02
 0.932044320882130D+02 -.273053715929549D+02 0.320686253568997D+02 0.211156377219640D+02
 0.000000000000000D+00 -.000000000000000D+00 -.000000000000000D+00 0.000000000000000D+00
 0.147022638975449D+03 0.000000000000000D+00 0.000000000000000D+00 0.147022638975449D+03
 0.126145728282671D+03 0.000000000000000D+00 0.000000000000000D+00 -.126145728282671D+03
 0.136589535108344D+03 0.465150293212536D+02 -.205470920558405D+02 -.211156377219640D+02
 0.933389629084916D+02 -.140419460352801D+02 0.400237384260801D+02 0.211156377219640D+02
 0.432398692412841D+02 -.324730832859735D+02 -.194766463702396D+02 0.208769106927775D+02
0.467387816793D-03 0.000000000000D+00 0.000000000000D+00 0.283854343311D-02 0.000000000000D+00  5 -2 1 25 -24 21 0 0.74659263D-03 0.40763716D+00 0.12397289D+05 0.12397289D+05 0.12397289D+05 0.12573696D+01  1  2  2  1  5  1       -2 0.167746397250D+00 0.100000000000D+01
-.259554671856D-04 0.000000000000D+00 -.179489228253D-05 0.283854343311D-02 0.000000000000D+00  5 -2 1 25 -24 21 2 0.74659263D-03 0.40763716D+00 0.12397289D+05 0.12397289D+05 0.12397289D+05 0.12573696D+01  1  2  3  1  5  1       -2 -.147275534616D-01 0.100000000000D+01
0.323384257700D-04 0.000000000000D+00 0.000000000000D+00 0.283854343311D-02 0.000000000000D+00  5 -2 1 25 -24 21 2 0.74659263D-03 0.40763716D+00 0.12397289D+05 0.12397289D+05 0.12397289D+05 0.12573696D+01  1  2 15  1  5  1       -2 0.183493477882D-01 0.100000000000D+01
0.281534649414D-03 0.000000000000D+00 0.000000000000D+00 0.283854343311D-02 0.000000000000D+00  5 -2 1 25 -24 21 2 0.10003364D-02 0.40763716D+00 0.17388741D+05 0.17388741D+05 0.17388741D+05 0.12405720D+01  1  2 12  1  5  1       -2 0.102639099147D+00 0.100000000000D+01
-.309294163508D-03 0.000000000000D+00 0.000000000000D+00 0.283854343311D-02 0.000000000000D+00  5 -2 1 25 -24 21 2 0.74659263D-03 0.40763716D+00 0.12397289D+05 0.12397289D+05 0.12397289D+05 0.12573696D+01  1  2  4  1  5  1       -2 -.175498529688D+00 0.100000000000D+01
-.471841284995D-03 0.000000000000D+00 -.173302186104D-03 0.283854343311D-02 0.000000000000D+00  5 -2 1 25 -24 21 2 0.11183267D-02 0.40763716D+00 0.12397289D+05 0.12397289D+05 0.12397289D+05 0.12573696D+01  1  2  5  1  5  1       -2 -.150764135128D+00 0.100000000000D+01
0.512686311975D-03 0.000000000000D+00 0.160057030844D-03 0.283854343311D-02 0.000000000000D+00  5 -2 1 25 -24 21 2 0.74659263D-03 0.40763716D+00 0.12397289D+05 0.12397289D+05 0.12397289D+05 0.12573696D+01  1  2  6  1  5  1       -2 0.290906536749D+00 0.100000000000D+01
0.106872454701D-04 0.000000000000D+00 0.000000000000D+00 0.283854343311D-02 0.000000000000D+00  5 21 1 25 -24 2 2 0.10003364D-02 0.40763716D+00 0.17388741D+05 0.17388741D+05 0.17388741D+05 0.12405720D+01  1  2 12  3  5  1       -2 0.910518783956D-01 0.100000000000D+01
-.166305267890D-04 0.000000000000D+00 -.831071909750D-05 0.283854343311D-02 0.000000000000D+00  5 21 1 25 -24 2 2 0.11183267D-02 0.40763716D+00 0.12397289D+05 0.12397289D+05 0.12397289D+05 0.12573696D+01  1  2  5  3  5  1       -2 -.122751452872D+00 0.100000000000D+01
  </mgrwgt>
  </event>
  <event>
  4     66 0.46019439E-03 0.10426710E+03 0.75467711E-02 0.12654949E+00
       -4 -1    0    0    0  501 0.00000000E+00 0.00000000E+00 0.46124230E+02 0.46150267E+02 0.15500000E+01 0.0000E+00 0.9000E+01
        3 -1    0    0  501    0 0.00000000E+00 0.00000000E+00 -.28320574E+03 0.28320618E+03 0.50000000E+00 0.0000E+00 0.9000E+01
       25  1    1    2    0    0 -.93180870E+01 -.14860234E+02 -.73067190E+02 0.14584741E+03 0.12500000E+03 0.0000E+00 0.9000E+01
      -24  1    1    2    0    0 0.93180870E+01 0.14860234E+02 -.16401432E+03 0.18350904E+03 0.80419002E+02 0.0000E+00 0.9000E+01
#aMCatNLO 1  0  0  1  2 0.61215412D+01 0.00000000D+00  -5  5  0 0.00000000D+00 0.00000000D+00 0.00000000D+00 0.00000000D+00 0.00000000D+00
  <mgrwgt>
 0.2976967188D-01    6    2    0
 0.114311009805139D+03 0.000000000000000D+00 0.000000000000000D+00 0.114311009805139D+03
 0.114311009805139D+03 0.000000000000000D+00 0.000000000000000D+00 -.114311009805139D+03
 0.134339229443039D+03 -.931808697220714D+01 -.148602335185420D+02 0.459823366337786D+02
 0.942827901672404D+02 0.931808697220714D+01 0.148602335185420D+02 -.459823366337786D+02
 0.000000000000000D+00 0.000000000000000D+00 -.000000000000000D+00 -.000000000000000D+00
 0.114956333318056D+03 0.000000000000000D+00 0.000000000000000D+00 0.114956333318056D+03
 0.129853364506219D+03 0.000000000000000D+00 0.000000000000000D+00 -.129853364506219D+03
 0.134142557621024D+03 -.109211651349078D+02 -.116438238952578D+02 0.459823366337786D+02
 0.945614019370903D+02 0.819051700246810D+01 0.171225854025480D+02 -.459823366337786D+02
 0.161057382661608D+02 0.273064813243973D+01 -.547876150729026D+01 -.148970311881634D+02
0.235967526599D-03 0.000000000000D+00 0.000000000000D+00 0.250323465573D-02 0.000000000000D+00  5 -4 3 25 -24 21 0 0.70980722D-02 0.43572151D-01 0.10871629D+05 0.10871629D+05 0.10871629D+05 0.12640817D+01  1  2  2  1  5  1       -4 0.309315753317D-01 0.100000000000D+01
-.129744961257D-04 0.000000000000D+00 -.906177433817D-06 0.250323465573D-02 0.000000000000D+00  5 -4 3 25 -24 21 2 0.70980722D-02 0.43572151D-01 0.10871629D+05 0.10871629D+05 0.10871629D+05 0.12640817D+01  1  2  3  1  5  1       -4 -.271763141028D-02 0.100000000000D+01
0.161821886335D-04 0.000000000000D+00 0.000000000000D+00 0.250323465573D-02 0.000000000000D+00  5 -4 3 25 -24 21 2 0.70980722D-02 0.43572151D-01 0.10871629D+05 0.10871629D+05 0.10871629D+05 0.12640817D+01  1  2 15  1  5  1       -4 0.338951306404D-02 0.100000000000D+01
-.237861445075D-04 0.000000000000D+00 0.000000000000D+00 0.250323465573D-02 0.000000000000D+00  5 -4 3 25 -24 21 2 0.70980722D-02 0.43572151D-01 0.10871629D+05 0.10871629D+05 0.10871629D+05 0.12640817D+01  1  2  4  1  5  1       -4 -.498223382372D-02 0.100000000000D+01
0.443107624134D-05 0.000000000000D+00 0.000000000000D+00 0.250323465573D-02 0.571365121451D-03  5 -4 3 25 -24 21 2 0.71381431D-02 0.49496461D-01 0.11531045D+05 0.11531045D+05 0.11531045D+05 0.12610582D+01  1  2 11  1  5  1       -4 0.717253258557D-03 0.100000000000D+01
0.544415199949D-06 0.000000000000D+00 0.000000000000D+00 0.250323465573D-02 0.642836887364D-06  5 21 3 25 -24 4 2 0.71381431D-02 0.49496461D-01 0.11531045D+05 0.11531045D+05 0.11531045D+05 0.12610582D+01  1  2 11  3  5  1       -4 0.243119546242D-02 0.100000000000D+01
  </mgrwgt>
  </event>
  <event>
  4     66 0.46019439E-03 0.55950863E+02 0.75467711E-02 0.12152698E+00
       -2 -1    0    0    0  501 0.00000000E+00 0.00000000E+00 0.39373093E+02 0.39374394E+02 0.32000000E+00 0.0000E+00 0.9000E+01
        1 -1    0    0  501    0 0.00000000E+00 0.00000000E+00 -.58879610E+03 0.58879619E+03 0.32000000E+00 0.0000E+00 0.9000E+01
       25  1    1    2    0    0 -.56599067E+02 0.68760909E+02 -.16451766E+03 0.22499462E+03 0.12500000E+03 0.0000E+00 0.9000E+01
      -24  1    1    2    0    0 0.56599067E+02 -.68760909E+02 -.38490535E+03 0.40317597E+03 0.80419002E+02 0.0000E+00 0.9000E+01
#aMCatNLO 1  0  0  2  1 0.36525081D+01 0.00000000D+00  -5  5  0 0.00000000D+00 0.00000000D+00 0.00000000D+00 0.00000000D+00 0.00000000D+00
  <mgrwgt>
 0.3161355627D+00   11    2    0
 0.152260171004346D+03 0.000000000000000D+00 0.000000000000000D+00 0.152260171004346D+03
 0.152260171004346D+03 0.000000000000000D+00 0.000000000000000D+00 -.152260171004346D+03
 0.167296578728740D+03 -.565990670174212D+02 0.687609089298087D+02 0.665704759652933D+02
 0.137223763279952D+03 0.565990670174212D+02 -.687609089298087D+02 -.665704759652933D+02
 0.000000000000000D+00 0.000000000000000D+00 0.000000000000000D+00 -.000000000000000D+00
 0.152762739315740D+03 0.000000000000000D+00 0.000000000000000D+00 0.152762739315740D+03
 0.159055282324359D+03 0.000000000000000D+00 0.000000000000000D+00 -.159055282324359D+03
 0.167645907407985D+03 -.584736278463115D+02 0.680393771788947D+02 0.665704759652933D+02
 0.136896338450933D+03 0.550649086876046D+02 -.693514173458771D+02 -.665704759652933D+02
 0.727577578118193D+01 0.340871915870691D+01 0.131204016698244D+01 -.629254300861922D+01
0.321157117192D-03 0.000000000000D+00 0.000000000000D+00 0.197268027966D-02 0.000000000000D+00  5 -2 1 25 -24 21 0 0.60575057D-02 0.90584123D-01 0.18697287D+05 0.18697287D+05 0.18697287D+05 0.12370594D+01  1  2  2  2  5  2        1 0.143912938710D+00 0.100000000000D+01
-.175912570453D-04 0.000000000000D+00 -.123332789263D-05 0.197268027966D-02 0.000000000000D+00  5 -2 1 25 -24 21 2 0.60575057D-02 0.90584123D-01 0.18697287D+05 0.18697287D+05 0.18697287D+05 0.12370594D+01  1  2  3  2  5  2        1 -.120631378401D-01 0.100000000000D+01
0.221332280000D-04 0.000000000000D+00 0.000000000000D+00 0.197268027966D-02 0.000000000000D+00  5 -2 1 25 -24 21 2 0.60575057D-02 0.90584123D-01 0.18697287D+05 0.18697287D+05 0.18697287D+05 0.12370594D+01  1  2 15  2  5  2        1 0.151777772062D-01 0.100000000000D+01
0.193129034045D-03 0.000000000000D+00 0.000000000000D+00 0.197268027966D-02 0.000000000000D+00  5 -2 1 25 -24 21 2 0.60575057D-02 0.94772451D-01 0.19200907D+05 0.19200907D+05 0.19200907D+05 0.12357803D+01  1  2 12  2  5  2        1 0.124341390523D+00 0.100000000000D+01
-.792208029564D-02 0.000000000000D+00 0.000000000000D+00 0.197268027966D-02 0.000000000000D+00  5 -2 1 25 -24 21 2 0.60575057D-02 0.90584123D-01 0.18697287D+05 0.18697287D+05 0.18697287D+05 0.12370594D+01  1  2  4  2  5  2        1 -.543253653452D+01 0.100000000000D+01
-.135489780188D-01 0.000000000000D+00 -.109257402549D-02 0.197268027966D-02 0.000000000000D+00  5 -2 1 25 -24 21 2 0.60575057D-02 0.94793572D-01 0.18697287D+05 0.18697287D+05 0.18697287D+05 0.12370594D+01  1  2  5  2  5  2        1 -.873333905059D+01 0.100000000000D+01
0.135857142170D-01 0.000000000000D+00 0.109144788499D-02 0.197268027966D-02 0.000000000000D+00  5 -2 1 25 -24 21 2 0.60575057D-02 0.90584123D-01 0.18697287D+05 0.18697287D+05 0.18697287D+05 0.12370594D+01  1  2  6  2  5  2        1 0.931635202839D+01 0.100000000000D+01
0.773253683949D-02 0.000000000000D+00 0.000000000000D+00 0.197268027966D-02 0.120543835806D-02  5 -2 1 25 -24 21 2 0.60774998D-02 0.94626737D-01 0.19200907D+05 0.19200907D+05 0.19200907D+05 0.12357803D+01  1  2 11  2  5  2        1 0.496403548532D+01 0.100000000000D+01
0.366358578250D-05 0.000000000000D+00 0.000000000000D+00 0.197268027966D-02 0.000000000000D+00  5 -2 21 25 -24 -1 2 0.60575057D-02 0.94772451D-01 0.19200907D+05 0.19200907D+05 0.19200907D+05 0.12357803D+01  1  2 12  4  5  2        1 0.595771275560D-02 0.100000000000D+01
-.107125453199D-03 0.000000000000D+00 -.870283372841D-05 0.197268027966D-02 0.000000000000D+00  5 -2 21 25 -24 -1 2 0.60575057D-02 0.94793572D-01 0.18697287D+05 0.18697287D+05 0.18697287D+05 0.12370594D+01  1  2  5  4  5  2        1 -.174507419072D+00 0.100000000000D+01
0.608453645085D-04 0.000000000000D+00 0.000000000000D+00 0.197268027966D-02 0.929269787000D-05  5 -2 21 25 -24 -1 2 0.60774998D-02 0.94626737D-01 0.19200907D+05 0.19200907D+05 0.19200907D+05 0.12357803D+01  1  2 11  4  5  2        1 0.988043718612D-01 0.100000000000D+01
  </mgrwgt>
  </event>
  <event>
  5     66 0.46019439E-03 0.11425930E+03 0.75467711E-02 0.12428987E+00
       -2 -1    0    0    0  501 0.00000000E+00 0.00000000E+00 0.83087550E+01 0.83149149E+01 0.32000000E+00 0.0000E+00 0.9000E+01
        1 -1    0    0  502    0 0.00000000E+00 0.00000000E+00 -.18102180E+04 0.18102181E+04 0.32000000E+00 0.0000E+00 0.9000E+01
       25  1    1    2    0    0 -.41299661E+02 0.33277832E+02 -.10037607E+04 0.10129035E+04 0.12500000E+03 0.0000E+00 0.9000E+01
      -24  1    1    2    0    0 0.41326016E+02 -.21840579E+02 -.76324501E+03 0.76889207E+03 0.80419002E+02 0.0000E+00 0.9000E+01
       21  1    1    2  502  501 -.26355129E-01 -.11437253E+02 -.34903609E+02 0.36737391E+02 0.75000000E+00 0.0000E+00 0.9000E+01
#aMCatNLO 2  0  0  2  1 0.11437283D+02 0.00000000D+00  -5  5  0 0.00000000D+00 0.00000000D+00 0.00000000D+00 0.00000000D+00 0.00000000D+00
  <mgrwgt>
 0.1015384269D+00    1    2    0
 0.114406799702553D+03 0.000000000000000D+00 0.000000000000000D+00 0.114406799702553D+03
 0.114406799702553D+03 0.000000000000000D+00 0.000000000000000D+00 -.114406799702553D+03
 0.134418250222624D+03 -.413152197307181D+02 0.265259348561547D+02 0.571781352630200D+01
 0.943953491824813D+02 0.413152197307181D+02 -.265259348561547D+02 -.571781352630200D+01
 0.000000000000000D+00 -.000000000000000D+00 -.000000000000000D+00 0.000000000000000D+00
 0.128743233119802D+03 0.000000000000000D+00 0.000000000000000D+00 0.128743233119802D+03
 0.116853691270541D+03 0.000000000000000D+00 0.000000000000000D+00 -.116853691270541D+03
 0.135907209235485D+03 -.412996611759013D+02 0.332778322222461D+02 0.571781352630200D+01
 0.931920590405223D+02 0.413260163052606D+02 -.218405791740381D+02 -.571781352630200D+01
 0.164976561143364D+02 -.263551293592737D-01 -.114372530482080D+02 0.118895418492605D+02
0.112959538120D-03 0.000000000000D+00 0.000000000000D+00 0.289453900348D-02 0.185648547570D-03  5 -2 1 25 -24 21 2 0.12786541D-02 0.27847554D+00 0.14428892D+05 0.14428892D+05 0.14428892D+05 0.12497490D+01  1  2  1  2  5  2        1 0.101538426883D+00 0.100000000000D+01
  </mgrwgt>
  </event>
  <event>
  4     66 0.46019439E-03 0.11280592E+03 0.75467711E-02 0.11716361E+00
       -2 -1    0    0    0  501 0.00000000E+00 0.00000000E+00 0.36207030E+02 0.36208444E+02 0.32000000E+00 0.0000E+00 0.9000E+01
        1 -1    0    0  501    0 0.00000000E+00 0.00000000E+00 -.45495379E+03 0.45495391E+03 0.32000000E+00 0.0000E+00 0.9000E+01
       25  1    1    2    0    0 0.37051206E+02 -.26798903E+02 -.35413579E+03 0.37832279E+03 0.12500000E+03 0.0000E+00 0.9000E+01
      -24  1    1    2    0    0 -.37051206E+02 0.26798903E+02 -.64610973E+02 0.11283956E+03 0.80419002E+02 0.0000E+00 0.9000E+01
#aMCatNLO 1  0  0  1  2 0.10342601D+03 0.00000000D+00  -5  5  0 0.00000000D+00 0.00000000D+00 0.00000000D+00 0.00000000D+00 0.00000000D+00
  <mgrwgt>
 0.2648704019D+00    3    2    0
 0.128346797128582D+03 0.000000000000000D+00 0.000000000000000D+00 0.128346797128582D+03
 0.128346797128582D+03 0.000000000000000D+00 0.000000000000000D+00 -.128346797128582D+03
 0.146184764749338D+03 0.370512058135017D+02 -.267989029630009D+02 -.604484275441844D+02
 0.110508829507826D+03 -.370512058135017D+02 0.267989029630009D+02 0.604484275441844D+02
 0.000000000000000D+00 0.000000000000000D+00 0.000000000000000D+00 -.000000000000000D+00
 0.155188846419758D+03 0.000000000000000D+00 0.000000000000000D+00 0.155188846419758D+03
 0.297405460006373D+03 0.000000000000000D+00 0.000000000000000D+00 -.297405460006373D+03
 0.148017569239984D+03 -.155462102636813D+02 -.488723209760537D+02 -.604484275441844D+02
 0.128728778211973D+03 -.798220425499802D+02 0.884937942239726D+01 0.604484275441844D+02
 0.175847958974173D+03 0.953682528136616D+02 0.400229415536565D+02 -.142216613586615D+03
0.367550841263D-03 0.000000000000D+00 0.000000000000D+00 0.212708357646D-02 0.000000000000D+00  5 -2 1 25 -24 21 0 0.55704297D-02 0.69993009D-01 0.12725176D+05 0.12725176D+05 0.12725176D+05 0.12560485D+01  1  2  2  1  5  1       -2 0.259178931518D+00 0.100000000000D+01
-.200059130067D-04 0.000000000000D+00 -.141149200881D-05 0.212708357646D-02 0.000000000000D+00  5 -2 1 25 -24 21 2 0.55704297D-02 0.69993009D-01 0.12725176D+05 0.12725176D+05 0.12725176D+05 0.12560485D+01  1  2  3  1  5  1       -2 -.222563258837D-01 0.100000000000D+01
0.251218994179D-04 0.000000000000D+00 0.000000000000D+00 0.212708357646D-02 0.000000000000D+00  5 -2 1 25 -24 21 2 0.55704297D-02 0.69993009D-01 0.12725176D+05 0.12725176D+05 0.12725176D+05 0.12560485D+01  1  2 15  1  5  1       -2 0.279477962379D-01 0.100000000000D+01
  </mgrwgt>
  </event>
  <event>
  4     66 0.46019439E-03 0.18828802E+03 0.75467711E-02 0.99625412E-01
       -2 -1    0    0    0  501 0.00000000E+00 0.00000000E+00 0.10395623E+03 0.10395672E+03 0.32000000E+00 0.0000E+00 0.9000E+01
        1 -1    0    0  501    0 0.00000000E+00 0.00000000E+00 -.50254862E+03 0.50254872E+03 0.32000000E+00 0.0000E+00 0.9000E+01
       25  1    1    2    0    0 0.12276512E+03 -.97379900E+02 -.36353456E+02 0.20371719E+03 0.12500000E+03 0.0000E+00 0.9000E+01
      -24  1    1    2    0    0 -.12276512E+03 0.97379900E+02 -.36223893E+03 0.40278826E+03 0.80419002E+02 0.0000E+00 0.9000E+01
#aMCatNLO 1  0  0  2  1 0.52916422D+03 0.00000000D+00  -5  5  0 0.00000000D+00 0.00000000D+00 0.00000000D+00 0.00000000D+00 0.00000000D+00
  <mgrwgt>
 0.2198198915D+00    5    2    0
 0.228567803423989D+03 0.000000000000000D+00 0.000000000000000D+00 0.228567803423989D+03
 0.228567803423989D+03 0.000000000000000D+00 0.000000000000000D+00 -.228567803423989D+03
 0.238584288585552D+03 0.122765118403907D+03 -.973798999710765D+02 0.129396072369960D+03
 0.218551318262427D+03 -.122765118403907D+03 0.973798999710765D+02 -.129396072369960D+03
 0.000000000000000D+00 -.000000000000000D+00 0.000000000000000D+00 -.000000000000000D+00
 0.571217817066442D+03 0.000000000000000D+00 0.000000000000000D+00 0.571217817066442D+03
 0.665568626720456D+03 0.000000000000000D+00 0.000000000000000D+00 -.665568626720456D+03
 0.539755023160247D+03 0.450790643616547D+03 -.236124833742082D+03 0.129396072369960D+03
 0.159521559304858D+03 0.365709865070652D+02 0.299855186683651D+02 -.129396072369960D+03
 0.537509861321794D+03 -.487361630123612D+03 0.206139315073717D+03 -.943508096540146D+02
0.169765891714D-02 0.000000000000D+00 0.000000000000D+00 0.144935509556D-02 0.000000000000D+00  5 -2 1 25 -24 21 0 0.15993312D-01 0.77315218D-01 0.35452379D+05 0.35452379D+05 0.35452379D+05 0.12073596D+01  1  2  2  2  5  2        1 0.204863670320D+00 0.100000000000D+01
-.900047918871D-04 0.000000000000D+00 -.651945724566D-05 0.144935509556D-02 0.000000000000D+00  5 -2 1 25 -24 21 2 0.15993312D-01 0.77315218D-01 0.35452379D+05 0.35452379D+05 0.35452379D+05 0.12073596D+01  1  2  3  2  5  2        1 -.158326435155D-01 0.100000000000D+01
0.116921225884D-03 0.000000000000D+00 0.000000000000D+00 0.144935509556D-02 0.000000000000D+00  5 -2 1 25 -24 21 2 0.15993312D-01 0.77315218D-01 0.35452379D+05 0.35452379D+05 0.35452379D+05 0.12073596D+01  1  2 15  2  5  2        1 0.205674836862D-01 0.100000000000D+01
0.149883938935D-02 0.000000000000D+00 -.849805913541D-03 0.144935509556D-02 0.000000000000D+00  5 -2 1 25 -24 21 2 0.15993312D-01 0.38997072D+00 0.35452379D+05 0.35452379D+05 0.35452379D+05 0.12073596D+01  1  2  5  2  5  2        1 0.925129862629D-02 0.100000000000D+01
0.270191991833D-03 0.000000000000D+00 -.167681980889D-03 0.144935509556D-02 0.000000000000D+00  5 -2 21 25 -24 -1 2 0.15993312D-01 0.38997072D+00 0.35452379D+05 0.35452379D+05 0.35452379D+05 0.12073596D+01  1  2  5  4  5  2        1 0.970082341539D-03 0.100000000000D+01
  </mgrwgt>
  </event>
  <event>
  4     66 0.46019439E-03 0.48935455E+02 0.75467711E-02 0.11708543E+00
       -2 -1    0    0    0  501 0.00000000E+00 0.00000000E+00 0.76534161E+03 0.76534168E+03 0.32000000E+00 0.0000E+00 0.9000E+01
        1 -1    0    0  501    0 0.00000000E+00 0.00000000E+00 -.24412530E+02 0.24414628E+02 0.32000000E+00 0.0000E+00 0.9000E+01
       25  1    1    2    0    0 -.83317038E+02 0.11142708E+02 0.50024392E+03 0.52243169E+03 0.12500000E+03 0.0000E+00 0.9000E+01
      -24  1    1    2    0    0 0.83317038E+02 -.11142708E+02 0.24068516E+03 0.26732462E+03 0.80419002E+02 0.0000E+00 0.9000E+01
#aMCatNLO 1  0  0  1  2 0.76486828D+02 0.00000000D+00  -5  5  0 0.00000000D+00 0.00000000D+00 0.00000000D+00 0.00000000D+00 0.00000000D+00
  <mgrwgt>
 0.2081773255D+00    9    2    0
 0.136692281799173D+03 0.000000000000000D+00 0.000000000000000D+00 0.136692281799173D+03
 0.136692281799173D+03 0.000000000000000D+00 0.000000000000000D+00 -.136692281799173D+03
 0.153441186574725D+03 -.833170378692282D+02 0.111427077639733D+02 0.292114532648403D+02
 0.119943377023620D+03 0.833170378692282D+02 -.111427077639733D+02 -.292114532648403D+02
 0.000000000000000D+00 0.000000000000000D+00 0.000000000000000D+00 0.000000000000000D+00
 0.191324608589861D+03 0.000000000000000D+00 0.000000000000000D+00 0.191324608589861D+03
 0.171557792079080D+03 0.000000000000000D+00 0.000000000000000D+00 -.171557792079080D+03
 0.180886846007607D+03 -.127434502065673D+03 -.147977701357057D+01 0.292114532648403D+02
 0.102995796019588D+03 0.538982933243877D+02 -.195597295025351D+02 -.292114532648403D+02
 0.789997586417453D+02 0.735362087412853D+02 0.210395065161056D+02 0.197668165107809D+02
0.133614126732D-02 0.000000000000D+00 0.000000000000D+00 0.243309699616D-02 0.000000000000D+00  5 -2 1 25 -24 21 0 0.11774503D+00 0.37559404D-02 0.17817821D+05 0.17817821D+05 0.17817821D+05 0.12393885D+01  1  2  2  1  5  1       -2 0.163321044995D+00 0.100000000000D+01
-.741791404021D-04 0.000000000000D+00 -.513113428060D-05 0.243309699616D-02 0.000000000000D+00  5 -2 1 25 -24 21 2 0.11774503D+00 0.37559404D-02 0.17817821D+05 0.17817821D+05 0.17817821D+05 0.12393885D+01  1  2  3  1  5  1       -2 -.139279264469D-01 0.100000000000D+01
0.922735943645D-04 0.000000000000D+00 0.000000000000D+00 0.243309699616D-02 0.000000000000D+00  5 -2 1 25 -24 21 2 0.11774503D+00 0.37559404D-02 0.17817821D+05 0.17817821D+05 0.17817821D+05 0.12393885D+01  1  2 15  1  5  1       -2 0.173253535743D-01 0.100000000000D+01
0.229073064427D-03 0.000000000000D+00 0.000000000000D+00 0.243309699616D-02 0.000000000000D+00  5 -2 1 25 -24 21 2 0.17491022D+00 0.37559404D-02 0.31287583D+05 0.31287583D+05 0.31287583D+05 0.12129876D+01  1  2 12  1  5  1       -2 0.152931214430D-01 0.100000000000D+01
-.465870404440D-03 0.000000000000D+00 0.000000000000D+00 0.243309699616D-02 0.000000000000D+00  5 -2 1 25 -24 21 2 0.11774503D+00 0.37559404D-02 0.17817821D+05 0.17817821D+05 0.17817821D+05 0.12393885D+01  1  2  4  1  5  1       -2 -.874721477179D-01 0.100000000000D+01
-.699814477422D-03 0.000000000000D+00 -.388711632111D-03 0.243309699616D-02 0.000000000000D+00  5 -2 1 25 -24 21 2 0.19237405D+00 0.37559404D-02 0.17817821D+05 0.17817821D+05 0.17817821D+05 0.12393885D+01  1  2  5  1  5  1       -2 -.371827209008D-01 0.100000000000D+01
0.831029884876D-03 0.000000000000D+00 0.346155023462D-03 0.243309699616D-02 0.000000000000D+00  5 -2 1 25 -24 21 2 0.11774503D+00 0.37559404D-02 0.17817821D+05 0.17817821D+05 0.17817821D+05 0.12393885D+01  1  2  6  1  5  1       -2 0.156034743042D+00 0.100000000000D+01
0.108187902153D-04 0.000000000000D+00 0.000000000000D+00 0.243309699616D-02 0.000000000000D+00  5 21 1 25 -24 2 2 0.17491022D+00 0.37559404D-02 0.31287583D+05 0.31287583D+05 0.31287583D+05 0.12129876D+01  1  2 12  3  5  1       -2 0.822245859809D-02 0.100000000000D+01
-.217203992067D-04 0.000000000000D+00 -.216019260090D-04 0.243309699616D-02 0.000000000000D+00  5 21 1 25 -24 2 2 0.19237405D+00 0.37559404D-02 0.17817821D+05 0.17817821D+05 0.17817821D+05 0.12393885D+01  1  2  5  3  5  1       -2 -.134366010610D-01 0.100000000000D+01
  </mgrwgt>
  </event>
  <event>
  5     66 0.46019439E-03 0.14691619E+03 0.75467711E-02 0.11547383E+00
       -2 -1    0    0    0  501 0.00000000E+00 0.00000000E+00 0.25227819E+02 0.25229849E+02 0.32000000E+00 0.0000E+00 0.9000E+01
        1 -1    0    0  502    0 0.00000000E+00 0.00000000E+00 -.15844511E+04 0.15844511E+04 0.32000000E+00 0.0000E+00 0.9000E+01
       25  1    1    2    0    0 -.47498767E+02 0.14174313E+03 -.66031627E+03 0.68846919E+03 0.12500000E+03 0.0000E+00 0.9000E+01
      -24  1    1    2    0    0 0.47345727E+02 -.58234698E+02 -.63339693E+03 0.64287774E+03 0.80419002E+02 0.0000E+00 0.9000E+01
       21  1    1    2  502  501 0.15303982E+00 -.83508428E+02 -.26551007E+03 0.27833404E+03 0.75000000E+00 0.0000E+00 0.9000E+01
#aMCatNLO 2  0  0  2  2 0.83508568D+02 0.00000000D+00  -5  5  0 0.00000000D+00 0.00000000D+00 0.00000000D+00 0.00000000D+00 0.00000000D+00
  <mgrwgt>
 0.3907079222D-01    1    2    0
 0.151506691545298D+03 0.000000000000000D+00 0.000000000000000D+00 0.151506691545298D+03
 0.151506691545298D+03 0.000000000000000D+00 0.000000000000000D+00 -.151506691545298D+03
 0.166617878965841D+03 -.474082977021140D+02 0.923772284961534D+02 0.368160094990306D+02
 0.136395504124755D+03 0.474082977021140D+02 -.923772284961534D+02 -.368160094990306D+02
 0.000000000000000D+00 0.000000000000000D+00 -.000000000000000D+00 0.000000000000000D+00
 0.210705024829200D+03 0.000000000000000D+00 0.000000000000000D+00 0.210705024829200D+03
 0.189711871299258D+03 0.000000000000000D+00 0.000000000000000D+00 -.189711871299258D+03
 0.198312039564466D+03 -.474987669918649D+02 0.141743125459537D+03 0.368160094990306D+02
 0.115997984532611D+03 0.473457271687125D+02 -.582346977728090D+02 -.368160094990306D+02
 0.861068720313817D+02 0.153039823152419D+00 -.835084276867284D+02 0.209931535299421D+02
0.168882245461D-03 0.000000000000D+00 0.000000000000D+00 0.226782698307D-02 0.268545958841D-05  5 -2 1 25 -24 21 2 0.38813295D-02 0.24375985D+00 0.37708547D+05 0.37708547D+05 0.37708547D+05 0.12046107D+01  1  2  1  2  5  2        1 0.390707922238D-01 0.100000000000D+01
  </mgrwgt>
  </event>
  <event>
  4     66 0.46019439E-03 0.11197341E+03 0.75467711E-02 0.11564634E+00
       -2 -1    0    0    0  501 0.00000000E+00 0.00000000E+00 0.47424922E+02 0.47426002E+02 0.32000000E+00 0.0000E+00 0.9000E+01
        1 -1    0    0  501    0 0.00000000E+00 0.00000000E+00 -.26760075E+03 0.26760094E+03 0.32000000E+00 0.0000E+00 0.9000E+01
       25  1    1    2    0    0 0.29960130E+02 0.31817920E+02 -.14696050E+03 0.19781905E+03 0.12500000E+03 0.0000E+00 0.9000E+01
      -24  1    1    2    0    0 -.29960130E+02 -.31817920E+02 -.73215329E+02 0.11720789E+03 0.80419002E+02 0.0000E+00 0.9000E+01
#aMCatNLO 1  0  0  1  2 0.12705730D+03 0.00000000D+00  -5  5  0 0.00000000D+00 0.00000000D+00 0.00000000D+00 0.00000000D+00 0.00000000D+00
  <mgrwgt>
 0.2454424662D+00    3    2    0
 0.112654982561508D+03 0.000000000000000D+00 0.000000000000000D+00 0.112654982561508D+03
 0.112654982561508D+03 0.000000000000000D+00 0.000000000000000D+00 -.112654982561508D+03
 0.132977616850297D+03 0.299601301612933D+02 0.318179197475146D+02 -.121678743765472D+02
 0.923323482727201D+02 -.299601301612933D+02 -.318179197475146D+02 0.121678743765472D+02
 0.000000000000000D+00 0.000000000000000D+00 -.000000000000000D+00 -.000000000000000D+00
 0.152063828551393D+03 0.000000000000000D+00 0.000000000000000D+00 0.152063828551393D+03
 0.306884693688366D+03 0.000000000000000D+00 0.000000000000000D+00 -.306884693688366D+03
 0.167641450219792D+03 0.172079707688299D+02 0.109701797646942D+03 -.121678743765472D+02
 0.910246252360500D+02 -.377380711105890D+02 0.156858938859569D+02 0.121678743765472D+02
 0.200282446783918D+03 0.205301003417591D+02 -.125387691532899D+03 -.154820865136973D+03
0.265307313671D-03 0.000000000000D+00 0.000000000000D+00 0.291355576442D-02 0.000000000000D+00  5 -2 1 25 -24 21 0 0.72962397D-02 0.41169444D-01 0.12538045D+05 0.12538045D+05 0.12538045D+05 0.12567977D+01  1  2  2  1  5  1       -2 0.240257489818D+00 0.100000000000D+01
-.147386352483D-04 0.000000000000D+00 -.101884994152D-05 0.291355576442D-02 0.000000000000D+00  5 -2 1 25 -24 21 2 0.72962397D-02 0.41169444D-01 0.12538045D+05 0.12538045D+05 0.12538045D+05 0.12567977D+01  1  2  3  1  5  1       -2 -.210821923399D-01 0.100000000000D+01
0.183634705864D-04 0.000000000000D+00 0.000000000000D+00 0.291355576442D-02 0.000000000000D+00  5 -2 1 25 -24 21 2 0.72962397D-02 0.41169444D-01 0.12538045D+05 0.12538045D+05 0.12538045D+05 0.12567977D+01  1  2 15  1  5  1       -2 0.262671687310D-01 0.100000000000D+01
  </mgrwgt>
  </event>
  <event>
  4     66 0.46019439E-03 0.11511519E+03 0.75467711E-02 0.11760275E+00
       -2 -1    0    0    0  501 0.00000000E+00 0.00000000E+00 0.71975275E+01 0.72046376E+01 0.32000000E+00 0.0000E+00 0.9000E+01
        1 -1    0    0  501    0 0.00000000E+00 0.00000000E+00 -.18450289E+04 0.18450290E+04 0.32000000E+00 0.0000E+00 0.9000E+01
       25  1    1    2    0    0 -.24494119E+02 -.44732338E+02 -.11239132E+04 0.11319924E+04 0.12500000E+03 0.0000E+00 0.9000E+01
      -24  1    1    2    0    0 0.24494119E+02 0.44732338E+02 -.71391823E+03 0.72024121E+03 0.80419002E+02 0.0000E+00 0.9000E+01
#aMCatNLO 1  0  0  2  2 0.94599086D+02 0.00000000D+00  -5  5  0 0.00000000D+00 0.00000000D+00 0.00000000D+00 0.00000000D+00 0.00000000D+00
  <mgrwgt>
 0.2594402559D+00    3    2    0
 0.115266027223802D+03 0.000000000000000D+00 0.000000000000000D+00 0.115266027223802D+03
 0.115266027223802D+03 0.000000000000000D+00 0.000000000000000D+00 -.115266027223802D+03
 0.135128306392686D+03 -.244941191738431D+02 -.447323376039433D+02 -.580648662618003D+01
 0.954037480549173D+02 0.244941191738431D+02 0.447323376039433D+02 0.580648662618003D+01
 0.000000000000000D+00 -.000000000000000D+00 -.000000000000000D+00 0.000000000000000D+00
 0.176830622993528D+03 0.000000000000000D+00 0.000000000000000D+00 0.176830622993528D+03
 0.167421908339059D+03 0.000000000000000D+00 0.000000000000000D+00 -.167421908339059D+03
 0.128999353623405D+03 0.223520088880519D+02 -.219660111760134D+02 -.580648662618003D+01
 0.120187353706170D+03 0.627317212541768D+02 0.633150842854190D+02 0.580648662618003D+01
 0.950658240030126D+02 -.850837301422287D+02 -.413490731094056D+02 0.940871465446867D+01
0.378911144724D-03 0.000000000000D+00 0.000000000000D+00 0.287487558184D-02 0.000000000000D+00  5 -2 1 25 -24 21 0 0.11078610D-02 0.28385116D+00 0.13251507D+05 0.13251507D+05 0.13251507D+05 0.12540058D+01  1  2  2  2  5  2        1 0.254035262101D+00 0.100000000000D+01
-.210505752656D-04 0.000000000000D+00 -.145511856534D-05 0.287487558184D-02 0.000000000000D+00  5 -2 1 25 -24 21 2 0.11078610D-02 0.28385116D+00 0.13251507D+05 0.13251507D+05 0.13251507D+05 0.12540058D+01  1  2  3  2  5  2        1 -.221931891720D-01 0.100000000000D+01
0.261772935601D-04 0.000000000000D+00 0.000000000000D+00 0.287487558184D-02 0.000000000000D+00  5 -2 1 25 -24 21 2 0.11078610D-02 0.28385116D+00 0.13251507D+05 0.13251507D+05 0.13251507D+05 0.12540058D+01  1  2 15  2  5  2        1 0.275981829788D-01 0.100000000000D+01
  </mgrwgt>
  </event>
  <event>
  4     66 0.46019439E-03 0.10762101E+03 0.75467711E-02 0.12177675E+00
       -2 -1    0    0    0  501 0.00000000E+00 0.00000000E+00 0.27691564E+02 0.27693412E+02 0.32000000E+00 0.0000E+00 0.9000E+01
        1 -1    0    0  501    0 0.00000000E+00 0.00000000E+00 -.41836532E+03 0.41836544E+03 0.32000000E+00 0.0000E+00 0.9000E+01
       25  1    1    2    0    0 0.37522758E+01 0.31219303E+02 -.23765365E+03 0.27035714E+03 0.12500000E+03 0.0000E+00 0.9000E+01
      -24  1    1    2    0    0 -.37522758E+01 -.31219303E+02 -.15302010E+03 0.17570171E+03 0.80419002E+02 0.0000E+00 0.9000E+01
#aMCatNLO 1  0  0  1  2 0.52056585D+02 0.00000000D+00  -5  5  0 0.00000000D+00 0.00000000D+00 0.00000000D+00 0.00000000D+00 0.00000000D+00
  <mgrwgt>
 0.2921548164D+00    3    2    0
 0.107636561925252D+03 0.000000000000000D+00 0.000000000000000D+00 0.107636561925252D+03
 0.107636561925252D+03 0.000000000000000D+00 0.000000000000000D+00 -.107636561925252D+03
 0.128906713725504D+03 0.375227578581219D+01 0.312193030721645D+02 -.179342845540576D+01
 0.863664101249997D+02 -.375227578581219D+01 -.312193030721645D+02 0.179342845540576D+01
 0.000000000000000D+00 0.000000000000000D+00 -.000000000000000D+00 -.000000000000000D+00
 0.111456199653768D+03 0.000000000000000D+00 0.000000000000000D+00 0.111456199653768D+03
 0.105519954491024D+04 0.000000000000000D+00 0.000000000000000D+00 -.105519954491024D+04
 0.134665710901106D+03 -.252833570694320D+02 0.432132984412812D+02 -.179342845540576D+01
 0.868120664417738D+02 -.228299417106401D+02 -.233387296437602D+02 0.179342845540576D+01
 0.945177967221129D+03 0.481132987800721D+02 -.198745687975210D+02 -.943743345256472D+03
0.245406845450D-03 0.000000000000D+00 0.000000000000D+00 0.307866894197D-02 0.000000000000D+00  5 -2 1 25 -24 21 0 0.42603922D-02 0.64364047D-01 0.11582282D+05 0.11582282D+05 0.11582282D+05 0.12608315D+01  1  2  2  1  5  1       -2 0.286000736285D+00 0.100000000000D+01
-.136337132901D-04 0.000000000000D+00 -.942426903634D-06 0.307866894197D-02 0.000000000000D+00  5 -2 1 25 -24 21 2 0.42603922D-02 0.64364047D-01 0.11582282D+05 0.11582282D+05 0.11582282D+05 0.12608315D+01  1  2  3  1  5  1       -2 -.252585672100D-01 0.100000000000D+01
0.169554758699D-04 0.000000000000D+00 0.000000000000D+00 0.307866894197D-02 0.000000000000D+00  5 -2 1 25 -24 21 2 0.42603922D-02 0.64364047D-01 0.11582282D+05 0.11582282D+05 0.11582282D+05 0.12608315D+01  1  2 15  1  5  1       -2 0.314126472901D-01 0.100000000000D+01
  </mgrwgt>
  </event>
  <event>
  4     66 0.46019439E-03 0.67492143E+02 0.75467711E-02 0.11825579E+00
       -2 -1    0    0    0  501 0.00000000E+00 0.00000000E+00 0.84959993E+01 0.85020235E+01 0.32000000E+00 0.0000E+00 0.9000E+01
        1 -1    0    0  501    0 0.00000000E+00 0.00000000E+00 -.27900214E+04 0.27900215E+04 0.32000000E+00 0.0000E+00 0.9000E+01
       25  1    1    2    0    0 -.41121465E+02 -.95701447E+02 -.19352243E+04 0.19420524E+04 0.12500000E+03 0.0000E+00 0.9000E+01
      -24  1    1    2    0    0 0.41121465E+02 0.95701447E+02 -.84630119E+03 0.85647105E+03 0.80419002E+02 0.0000E+00 0.9000E+01
#aMCatNLO 1  0  0  1  2 0.34666853D+02 0.00000000D+00  -5  5  0 0.00000000D+00 0.00000000D+00 0.00000000D+00 0.00000000D+00 0.00000000D+00
  <mgrwgt>
 0.1680128116D+00    7    2    0
 0.153988555699973D+03 0.000000000000000D+00 0.000000000000000D+00 0.153988555699973D+03
 0.153988555699973D+03 0.000000000000000D+00 0.000000000000000D+00 -.153988555699973D+03
 0.168856193109782D+03 -.411214645102803D+02 -.957014470336325D+02 -.451405820047374D+02
 0.139120918290164D+03 0.411214645102803D+02 0.957014470336325D+02 0.451405820047374D+02
 0.000000000000000D+00 0.000000000000000D+00 -.000000000000000D+00 0.000000000000000D+00
 0.359134320359435D+03 0.000000000000000D+00 0.000000000000000D+00 0.359134320359435D+03
 0.156432569650150D+03 0.000000000000000D+00 0.000000000000000D+00 -.156432569650150D+03
 0.161441536957313D+03 -.475859190434515D+02 -.783343987032723D+02 -.451405820047374D+02
 0.148480536853380D+03 0.354926443241057D+02 0.110823526045030D+03 0.451405820047374D+02
 0.205644816198891D+03 0.120932747193458D+02 -.324891273417577D+02 0.202701750709285D+03
0.140894853032D-02 0.000000000000D+00 0.000000000000D+00 0.219103894836D-02 0.000000000000D+00  5 -2 1 25 -24 21 0 0.13075416D-02 0.42923453D+00 0.21653788D+05 0.21653788D+05 0.21653788D+05 0.12300455D+01  1  2  2  1  5  1       -2 0.183057377963D+00 0.100000000000D+01
-.780786655789D-04 0.000000000000D+00 -.541073334110D-05 0.219103894836D-02 0.000000000000D+00  5 -2 1 25 -24 21 2 0.13075416D-02 0.42923453D+00 0.21653788D+05 0.21653788D+05 0.21653788D+05 0.12300455D+01  1  2  3  1  5  1       -2 -.153485310016D-01 0.100000000000D+01
0.971922703895D-04 0.000000000000D+00 0.000000000000D+00 0.219103894836D-02 0.000000000000D+00  5 -2 1 25 -24 21 2 0.13075416D-02 0.42923453D+00 0.21653788D+05 0.21653788D+05 0.21653788D+05 0.12300455D+01  1  2 15  1  5  1       -2 0.191058410659D-01 0.100000000000D+01
0.114007270193D-01 0.000000000000D+00 0.000000000000D+00 0.219103894836D-02 0.000000000000D+00  5 -2 1 25 -24 21 2 0.30448311D-02 0.42923453D+00 0.27410372D+05 0.27410372D+05 0.27410372D+05 0.12190349D+01  1  2 12  1  5  1       -2 0.639360175408D+00 0.100000000000D+01
-.115633872991D-01 0.000000000000D+00 -.387059382400D-03 0.219103894836D-02 0.000000000000D+00  5 -2 1 25 -24 21 2 0.31082440D-02 0.42923453D+00 0.21653788D+05 0.21653788D+05 0.21653788D+05 0.12300455D+01  1  2  5  1  5  1       -2 -.644321896760D+00 0.100000000000D+01
0.105028471731D-02 0.000000000000D+00 0.000000000000D+00 0.219103894836D-02 0.000000000000D+00  5 21 1 25 -24 2 2 0.30448311D-02 0.42923453D+00 0.27410372D+05 0.27410372D+05 0.27410372D+05 0.12190349D+01  1  2 12  3  5  1       -2 0.114356154367D+01 0.100000000000D+01
-.106969724890D-02 0.000000000000D+00 -.366218759271D-04 0.219103894836D-02 0.000000000000D+00  5 21 1 25 -24 2 2 0.31082440D-02 0.42923453D+00 0.21653788D+05 0.21653788D+05 0.21653788D+05 0.12300455D+01  1  2  5  3  5  1       -2 -.115740169875D+01 0.100000000000D+01
  </mgrwgt>
  </event>
  <event>
  5     66 0.46019439E-03 0.11717318E+03 0.75467711E-02 0.12058192E+00
       21 -1    0    0  502  501 0.00000000E+00 0.00000000E+00 0.22022383E+02 0.22035151E+02 0.75000000E+00 0.0000E+00 0.9000E+01
        1 -1    0    0  501    0 0.00000000E+00 0.00000000E+00 -.96545319E+03 0.96545325E+03 0.32000000E+00 0.0000E+00 0.9000E+01
       25  1    1    2    0    0 -.12657309E+02 0.32305747E+02 -.43844458E+03 0.45723355E+03 0.12500000E+03 0.0000E+00 0.9000E+01
      -24  1    1    2    0    0 0.63500789E+02 -.40604553E+02 -.34507659E+03 0.36225150E+03 0.80419002E+02 0.0000E+00 0.9000E+01
        2  1    1    2  502    0 -.50843480E+02 0.82988056E+01 -.15990964E+03 0.16800335E+03 0.32000000E+00 0.0000E+00 0.9000E+01
#aMCatNLO 2  0  0  1  2 0.51516305D+02 0.00000000D+00  -5  5  0 0.00000000D+00 0.00000000D+00 0.00000000D+00 0.00000000D+00 0.00000000D+00
  <mgrwgt>
 0.6790668021D-01    1    2    0
 0.117256547011975D+03 0.000000000000000D+00 0.000000000000000D+00 0.117256547011975D+03
 0.117256547011975D+03 0.000000000000000D+00 0.000000000000000D+00 -.117256547011975D+03
 0.136781648763211D+03 -.412148181264703D+02 0.369669781970118D+02 -.435898246911797D+01
 0.977314452607398D+02 0.412148181264703D+02 -.369669781970118D+02 0.435898246911797D+01
 0.000000000000000D+00 -.000000000000000D+00 0.000000000000000D+00 0.000000000000000D+00
 0.147069823991347D+03 0.000000000000000D+00 0.000000000000000D+00 0.147069823991347D+03
 0.144609986743557D+03 0.000000000000000D+00 0.000000000000000D+00 -.144609986743557D+03
 0.129799343116428D+03 -.126573085824687D+02 0.323057469305106D+02 -.435898246911797D+01
 0.110305469257871D+03 0.635007888177050D+02 -.406045525180588D+02 0.435898246911797D+01
 0.515749983606050D+02 -.508434802352363D+02 0.829880558754819D+01 0.245983724778997D+01
0.455099295278D-05 0.000000000000D+00 0.000000000000D+00 0.283462039802D-02 0.352720026723D-06  5 21 1 25 -24 2 2 0.33890336D-02 0.14853174D+00 0.21237487D+05 0.21237487D+05 0.21237487D+05 0.12309659D+01  1  2  1  3  5  1       -2 0.679066802073D-01 0.100000000000D+01
  </mgrwgt>
  </event>
  <event>
  4     66 0.46019439E-03 0.10532366E+03 0.75467711E-02 0.11026628E+00
       -2 -1    0    0    0  501 0.00000000E+00 0.00000000E+00 0.25573106E+03 0.25573126E+03 0.32000000E+00 0.0000E+00 0.9000E+01
        1 -1    0    0  501    0 0.00000000E+00 0.00000000E+00 -.47649752E+02 0.47650826E+02 0.32000000E+00 0.0000E+00 0.9000E+01
       25  1    1    2    0    0 -.22400075E+01 0.22681630E+02 0.16812113E+03 0.21073487E+03 0.12500000E+03 0.0000E+00 0.9000E+01
      -24  1    1    2    0    0 0.22400075E+01 -.22681630E+02 0.39960183E+02 0.92647214E+02 0.80419002E+02 0.0000E+00 0.9000E+01
#aMCatNLO 1  0  0  1  2 0.22603587D+03 0.00000000D+00  -5  5  0 0.00000000D+00 0.00000000D+00 0.00000000D+00 0.00000000D+00 0.00000000D+00
  <mgrwgt>
 0.2666205150D+00    3    2    0
 0.110388925637094D+03 0.000000000000000D+00 0.000000000000000D+00 0.110388925637094D+03
 0.110388925637094D+03 0.000000000000000D+00 0.000000000000000D+00 -.110388925637094D+03
 0.131128741684710D+03 -.224000754593984D+01 0.226816303646626D+02 0.324079142496154D+02
 0.896491095894768D+02 0.224000754593984D+01 -.226816303646626D+02 -.324079142496154D+02
 0.000000000000000D+00 -.000000000000000D+00 0.000000000000000D+00 -.000000000000000D+00
 0.182087631061268D+03 0.000000000000000D+00 0.000000000000000D+00 0.182087631061268D+03
 0.687893618417756D+03 0.000000000000000D+00 0.000000000000000D+00 -.687893618417756D+03
 0.175591653066543D+03 0.114326449623337D+03 -.329638989980463D+02 0.324079142496154D+02
 0.140375235611737D+03 0.896587884344209D+02 -.644128835648698D+02 -.324079142496154D+02
 0.554014360800744D+03 -.203985238057758D+03 0.973767825629160D+02 -.505805987356487D+03
0.530847648135D-03 0.000000000000D+00 0.000000000000D+00 0.278377020660D-02 0.000000000000D+00  5 -2 1 25 -24 21 0 0.39343338D-01 0.73308291D-02 0.11093074D+05 0.11093074D+05 0.11093074D+05 0.12630438D+01  1  2  2  1  5  1       -2 0.261112931620D+00 0.100000000000D+01
-.294124223814D-04 0.000000000000D+00 -.203859474423D-05 0.278377020660D-02 0.000000000000D+00  5 -2 1 25 -24 21 2 0.39343338D-01 0.73308291D-02 0.11093074D+05 0.11093074D+05 0.11093074D+05 0.12630438D+01  1  2  3  1  5  1       -2 -.230794844725D-01 0.100000000000D+01
0.364312693025D-04 0.000000000000D+00 0.000000000000D+00 0.278377020660D-02 0.000000000000D+00  5 -2 1 25 -24 21 2 0.39343338D-01 0.73308291D-02 0.11093074D+05 0.11093074D+05 0.11093074D+05 0.12630438D+01  1  2 15  1  5  1       -2 0.285870678476D-01 0.100000000000D+01
  </mgrwgt>
  </event>
  <event>
  4     66 0.46019439E-03 0.15542675E+03 0.75467711E-02 0.10003578E+00
       -2 -1    0    0    0  501 0.00000000E+00 0.00000000E+00 0.19827918E+02 0.19830500E+02 0.32000000E+00 0.0000E+00 0.9000E+01
        1 -1    0    0  501    0 0.00000000E+00 0.00000000E+00 -.12240451E+04 0.12240452E+04 0.32000000E+00 0.0000E+00 0.9000E+01
       25  1    1    2    0    0 0.96078484E+02 0.64009896E+02 -.61639132E+03 0.63944632E+03 0.12500000E+03 0.0000E+00 0.9000E+01
      -24  1    1    2    0    0 -.96078484E+02 -.64009896E+02 -.58782589E+03 0.60442935E+03 0.80419002E+02 0.0000E+00 0.9000E+01
#aMCatNLO 1  0  0  1  2 0.51159868D+03 0.00000000D+00  -5  5  0 0.00000000D+00 0.00000000D+00 0.00000000D+00 0.00000000D+00 0.00000000D+00
  <mgrwgt>
 0.3608539930D+00    3    2    0
 0.155794411247495D+03 0.000000000000000D+00 0.000000000000000D+00 0.155794411247495D+03
 0.155794411247495D+03 0.000000000000000D+00 0.000000000000000D+00 -.155794411247495D+03
 0.170489713813710D+03 0.960784835897023D+02 0.640098961392815D+02 0.106489766467286D+02
 0.141099108681279D+03 -.960784835897023D+02 -.640098961392815D+02 -.106489766467286D+02
 0.000000000000000D+00 -.000000000000000D+00 -.000000000000000D+00 -.000000000000000D+00
 0.426426506239930D+03 0.000000000000000D+00 0.000000000000000D+00 0.426426506239930D+03
 0.815063034109076D+03 0.000000000000000D+00 0.000000000000000D+00 -.815063034109076D+03
 0.508946259275301D+03 0.461921716383091D+03 0.172963065596094D+03 0.106489766467286D+02
 0.900702744795840D+02 0.283949882430058D+02 -.269399764200724D+02 -.106489766467286D+02
 0.642473006594120D+03 -.490316704626097D+03 -.146023089176022D+03 -.388636527869146D+03
0.896522936266D-03 0.000000000000D+00 0.000000000000D+00 0.235565775677D-02 0.000000000000D+00  5 -2 1 25 -24 21 0 0.30506508D-02 0.18831484D+00 0.24157475D+05 0.24157475D+05 0.24157475D+05 0.12248971D+01  1  2  2  1  5  1       -2 0.353820067059D+00 0.100000000000D+01
-.498064917391D-04 0.000000000000D+00 -.344288413517D-05 0.235565775677D-02 0.000000000000D+00  5 -2 1 25 -24 21 2 0.30506508D-02 0.18831484D+00 0.24157475D+05 0.24157475D+05 0.24157475D+05 0.12248971D+01  1  2  3  1  5  1       -2 -.294921353923D-01 0.100000000000D+01
0.616854272899D-04 0.000000000000D+00 0.000000000000D+00 0.235565775677D-02 0.000000000000D+00  5 -2 1 25 -24 21 2 0.30506508D-02 0.18831484D+00 0.24157475D+05 0.24157475D+05 0.24157475D+05 0.12248971D+01  1  2 15  1  5  1       -2 0.365260613595D-01 0.100000000000D+01
  </mgrwgt>
  </event>
  <event>
  5     66 0.46019439E-03 0.13877740E+03 0.75467711E-02 0.12050849E+00
       -4 -1    0    0    0  502 0.00000000E+00 0.00000000E+00 0.49048522E+02 0.49073007E+02 0.15500000E+01 0.0000E+00 0.9000E+01
        3 -1    0    0  501    0 0.00000000E+00 0.00000000E+00 -.47712377E+03 0.47712403E+03 0.50000000E+00 0.0000E+00 0.9000E+01
       25  1    1    2    0    0 0.76417554E+02 0.50299709E+02 -.14885543E+03 0.21483166E+03 0.12500000E+03 0.0000E+00 0.9000E+01
      -24  1    1    2    0    0 -.68771336E+02 -.62809298E+02 -.25203467E+03 0.28046960E+03 0.80419002E+02 0.0000E+00 0.9000E+01
       21  1    1    2  501  502 -.76462178E+01 0.12509589E+02 -.27185141E+02 0.30895774E+02 0.75000000E+00 0.0000E+00 0.9000E+01
#aMCatNLO 2  0  0  1  1 0.14661326D+02 0.00000000D+00  -5  5  0 0.00000000D+00 0.00000000D+00 0.00000000D+00 0.00000000D+00 0.00000000D+00
  <mgrwgt>
 0.1869313271D-01    2    2    0
 0.145254527078653D+03 0.000000000000000D+00 0.000000000000000D+00 0.145254527078653D+03
 0.145254527078653D+03 0.000000000000000D+00 0.000000000000000D+00 -.145254527078653D+03
 0.161016142619679D+03 0.721870163780909D+02 0.572210775408189D+02 0.426143301674189D+02
 0.129492911537626D+03 -.721870163780909D+02 -.572210775408189D+02 -.426143301674189D+02
 0.000000000000000D+00 -.000000000000000D+00 0.000000000000000D+00 -.000000000000000D+00
 0.151146373746233D+03 0.000000000000000D+00 0.000000000000000D+00 0.151146373746233D+03
 0.154855681263393D+03 0.000000000000000D+00 0.000000000000000D+00 -.154855681263393D+03
 0.160657039910509D+03 0.764175541902570D+02 0.502997092314473D+02 0.426143301674189D+02
 0.130221740706879D+03 -.687713363762591D+02 -.628092983224996D+02 -.426143301674189D+02
 0.151232743922385D+02 -.764621781399793D+01 0.125095890910524D+02 -.370930751716028D+01
-.597699569262D-07 0.000000000000D+00 0.000000000000D+00 0.225839783423D-02 0.000000000000D+00  5 -4 3 25 -24 21 2 0.72531658D-02 0.68850173D-01 0.19259166D+05 0.19259166D+05 0.19259166D+05 0.12356348D+01  1  2  8  1  5  1       -4 -.483106569860D-05 0.100000000000D+01
0.282866190076D-03 0.000000000000D+00 0.000000000000D+00 0.225839783423D-02 0.851183618114D-04  5 -4 3 25 -24 21 2 0.75473703D-02 0.73401089D-01 0.21405923D+05 0.21405923D+05 0.21405923D+05 0.12305911D+01  1  2  1  1  5  1       -4 0.186979637753D-01 0.100000000000D+01
  </mgrwgt>
  </event>
  <event>
  4     66 0.46019439E-03 0.18758908E+03 0.75467711E-02 0.10034706E+00
       -2 -1    0    0    0  501 0.00000000E+00 0.00000000E+00 0.15101013E+04 0.15101014E+04 0.32000000E+00 0.0000E+00 0.9000E+01
        1 -1    0    0  501    0 0.00000000E+00 0.00000000E+00 -.11392080E+03 0.11392125E+03 0.32000000E+00 0.0000E+00 0.9000E+01
       25  1    1    2    0    0 -.15885228E+03 -.34734000E+03 0.46650923E+03 0.61573938E+03 0.12500000E+03 0.0000E+00 0.9000E+01
      -24  1    1    2    0    0 0.15885228E+03 0.34734000E+03 0.92967131E+03 0.10082832E+04 0.80419002E+02 0.0000E+00 0.9000E+01
#aMCatNLO 1  0  0  2  1 0.25193154D+03 0.00000000D+00  -5  5  0 0.00000000D+00 0.00000000D+00 0.00000000D+00 0.00000000D+00 0.00000000D+00
  <mgrwgt>
 0.1343498332D+00    9    2    0
 0.414767811694759D+03 0.000000000000000D+00 0.000000000000000D+00 0.414767811694759D+03
 0.414767811694759D+03 0.000000000000000D+00 0.000000000000000D+00 -.414767811694759D+03
 0.420287637358309D+03 -.158852277118267D+03 -.347339999072206D+03 -.123034861787589D+03
 0.409247986031209D+03 0.158852277118267D+03 0.347339999072206D+03 0.123034861787589D+03
 0.000000000000000D+00 -.000000000000000D+00 0.000000000000000D+00 -.000000000000000D+00
 0.525950872053996D+03 0.000000000000000D+00 0.000000000000000D+00 0.525950872053996D+03
 0.605056109011927D+03 0.000000000000000D+00 0.000000000000000D+00 -.605056109011927D+03
 0.459120609082846D+03 -.511537218486638D+02 -.421203576920404D+03 -.123034861787589D+03
 0.407827400968214D+03 0.258917109444214D+03 0.278711905465267D+03 0.123034861787589D+03
 0.264058971014862D+03 -.207763387595550D+03 0.142491671455137D+03 -.791052369579306D+02
0.503245099654D-01 0.000000000000D+00 0.000000000000D+00 0.178435111272D-02 0.000000000000D+00  5 -2 1 25 -24 21 0 0.23232332D+00 0.17526313D-01 0.15689182D+06 0.15689182D+06 0.15689182D+06 0.11460199D+01  1  2  2  2  5  2        1 0.120391026480D+00 0.100000000000D+01
-.278859349890D-02 0.000000000000D+00 -.193259369015D-03 0.178435111272D-02 0.000000000000D+00  5 -2 1 25 -24 21 2 0.23232332D+00 0.17526313D-01 0.15689182D+06 0.15689182D+06 0.15689182D+06 0.11460199D+01  1  2  3  2  5  2        1 -.876161394455D-02 0.100000000000D+01
0.344418589856D-02 0.000000000000D+00 0.000000000000D+00 0.178435111272D-02 0.000000000000D+00  5 -2 1 25 -24 21 2 0.23232332D+00 0.17526313D-01 0.15689182D+06 0.15689182D+06 0.15689182D+06 0.11460199D+01  1  2 15  2  5  2        1 0.108214507451D-01 0.100000000000D+01
0.854580668070D-02 0.000000000000D+00 0.000000000000D+00 0.178435111272D-02 0.000000000000D+00  5 -2 1 25 -24 21 2 0.23232332D+00 0.27042216D-01 0.29326860D+06 0.29326860D+06 0.29326860D+06 0.11229418D+01  1  2 12  2  5  2        1 0.143518636821D-01 0.100000000000D+01
-.249572854610D-01 0.000000000000D+00 0.000000000000D+00 0.178435111272D-02 0.000000000000D+00  5 -2 1 25 -24 21 2 0.23232332D+00 0.17526313D-01 0.15689182D+06 0.15689182D+06 0.15689182D+06 0.11460199D+01  1  2  4  2  5  2        1 -.784144768318D-01 0.100000000000D+01
-.262532568971D-01 0.000000000000D+00 -.211514341483D-01 0.178435111272D-02 0.000000000000D+00  5 -2 1 25 -24 21 2 0.23232332D+00 0.32915046D-01 0.15689182D+06 0.15689182D+06 0.15689182D+06 0.11460199D+01  1  2  5  2  5  2        1 -.364653973222D-01 0.100000000000D+01
0.358310670016D-01 0.000000000000D+00 0.175493648705D-01 0.178435111272D-02 0.000000000000D+00  5 -2 1 25 -24 21 2 0.23232332D+00 0.17526313D-01 0.15689182D+06 0.15689182D+06 0.15689182D+06 0.11460199D+01  1  2  6  2  5  2        1 0.112579325891D+00 0.100000000000D+01
0.431903796372D-03 0.000000000000D+00 0.000000000000D+00 0.178435111272D-02 0.000000000000D+00  5 -2 21 25 -24 -1 2 0.23232332D+00 0.27042216D-01 0.29326860D+06 0.29326860D+06 0.29326860D+06 0.11229418D+01  1  2 12  4  5  2        1 0.480483352635D-02 0.100000000000D+01
-.609146788717D-03 0.000000000000D+00 -.145068373379D-02 0.178435111272D-02 0.000000000000D+00  5 -2 21 25 -24 -1 2 0.23232332D+00 0.32915046D-01 0.15689182D+06 0.15689182D+06 0.15689182D+06 0.11460199D+01  1  2  5  4  5  2        1 -.495717904183D-02 0.100000000000D+01
  </mgrwgt>
  </event>
  <event>
  4     66 0.46019439E-03 0.22478655E+03 0.75467711E-02 0.10571013E+00
       -4 -1    0    0    0  501 0.00000000E+00 0.00000000E+00 0.19275887E+04 0.19275893E+04 0.15500000E+01 0.0000E+00 0.9000E+01
        3 -1    0    0  501    0 0.00000000E+00 0.00000000E+00 -.96045998E+02 0.96047299E+02 0.50000000E+00 0.0000E+00 0.9000E+01
       25  1    1    2    0    0 0.93799044E+02 -.32571383E+03 0.35477788E+03 0.50633991E+03 0.12500000E+03 0.0000E+00 0.9000E+01
      -24  1    1    2    0    0 -.93799044E+02 0.32571383E+03 0.14767648E+04 0.15172967E+04 0.80419002E+02 0.0000E+00 0.9000E+01
#aMCatNLO 1  0  0  1  2 0.17772540D+02 0.00000000D+00  -5  5  0 0.00000000D+00 0.00000000D+00 0.00000000D+00 0.00000000D+00 0.00000000D+00
  <mgrwgt>
 0.1825228178D-01    9    2    0
 0.430277962097895D+03 0.000000000000000D+00 0.000000000000000D+00 0.430277962097895D+03
 0.430277962097895D+03 0.000000000000000D+00 0.000000000000000D+00 -.430277962097895D+03
 0.435598815623009D+03 0.937990437536916D+02 -.325713829132164D+03 -.243379475459876D+03
 0.424957108572781D+03 -.937990437536916D+02 0.325713829132164D+03 0.243379475459876D+03
 0.000000000000000D+00 -.000000000000000D+00 0.000000000000000D+00 0.000000000000000D+00
 0.500281499670639D+03 0.000000000000000D+00 0.000000000000000D+00 0.500281499670639D+03
 0.431499219904957D+03 0.000000000000000D+00 0.000000000000000D+00 -.431499219904957D+03
 0.439892611463222D+03 0.102248705740123D+03 -.328925740432819D+03 -.243379475459876D+03
 0.420846815921648D+03 -.856359058317580D+02 0.322610832233310D+03 0.243379475459876D+03
 0.710412921907258D+02 -.166127999083655D+02 0.631490819950858D+01 0.687822797656815D+02
0.424855418889D-01 0.000000000000D+00 0.000000000000D+00 0.133268559658D-02 0.000000000000D+00  5 -4 3 25 -24 21 0 0.29655225D+00 0.14776455D-01 0.12589223D+06 0.12589223D+06 0.12589223D+06 0.11544958D+01  1  2  2  1  5  1       -4 0.129776058494D-01 0.100000000000D+01
-.225358749390D-02 0.000000000000D+00 -.163155667554D-03 0.133268559658D-02 0.000000000000D+00  5 -4 3 25 -24 21 2 0.29655225D+00 0.14776455D-01 0.12589223D+06 0.12589223D+06 0.12589223D+06 0.11544958D+01  1  2  3  1  5  1       -4 -.917513718573D-03 0.100000000000D+01
0.291000497848D-02 0.000000000000D+00 0.000000000000D+00 0.133268559658D-02 0.000000000000D+00  5 -4 3 25 -24 21 2 0.29655225D+00 0.14776455D-01 0.12589223D+06 0.12589223D+06 0.12589223D+06 0.11544958D+01  1  2 15  1  5  1       -4 0.118476406889D-02 0.100000000000D+01
0.670980126517D+00 0.000000000000D+00 0.000000000000D+00 0.133268559658D-02 0.000000000000D+00  5 -4 3 25 -24 21 2 0.34517791D+00 0.14776455D-01 0.13232797D+06 0.13232797D+06 0.13232797D+06 0.11525592D+01  1  2 12  1  5  1       -4 0.137392819483D+00 0.100000000000D+01
-.668704875826D+00 0.000000000000D+00 0.000000000000D+00 0.133268559658D-02 0.000000000000D+00  5 -4 3 25 -24 21 2 0.29655225D+00 0.14776455D-01 0.12589223D+06 0.12589223D+06 0.12589223D+06 0.11544958D+01  1  2  4  1  5  1       -4 -.272252973940D+00 0.100000000000D+01
-.731292982167D+00 0.000000000000D+00 -.244794717297D-01 0.133268559658D-02 0.000000000000D+00  5 -4 3 25 -24 21 2 0.34510060D+00 0.14776455D-01 0.12589223D+06 0.12589223D+06 0.12589223D+06 0.11544958D+01  1  2  5  1  5  1       -4 -.150548942300D+00 0.100000000000D+01
0.726912501159D+00 0.000000000000D+00 0.242007943907D-01 0.133268559658D-02 0.000000000000D+00  5 -4 3 25 -24 21 2 0.29655225D+00 0.14776455D-01 0.12589223D+06 0.12589223D+06 0.12589223D+06 0.11544958D+01  1  2  6  1  5  1       -4 0.295951319318D+00 0.100000000000D+01
0.154570597854D-01 0.000000000000D+00 0.000000000000D+00 0.133268559658D-02 0.000000000000D+00  5 21 3 25 -24 4 2 0.34517791D+00 0.14776455D-01 0.13232797D+06 0.13232797D+06 0.13232797D+06 0.11525592D+01  1  2 12  3  5  1       -4 0.633387698118D-01 0.100000000000D+01
-.166531874064D-01 0.000000000000D+00 -.563250175868D-03 0.133268559658D-02 0.000000000000D+00  5 21 3 25 -24 4 2 0.34510060D+00 0.14776455D-01 0.12589223D+06 0.12589223D+06 0.12589223D+06 0.11544958D+01  1  2  5  3  5  1       -4 -.688735667929D-01 0.100000000000D+01
  </mgrwgt>
  </event>
  <event>
  4     66 0.46019439E-03 0.13991217E+03 0.75467711E-02 0.11103182E+00
       -4 -1    0    0    0  501 0.00000000E+00 0.00000000E+00 0.37149737E+03 0.37150061E+03 0.15500000E+01 0.0000E+00 0.9000E+01
        3 -1    0    0  501    0 0.00000000E+00 0.00000000E+00 -.57886632E+02 0.57888791E+02 0.50000000E+00 0.0000E+00 0.9000E+01
       25  1    1    2    0    0 -.40164208E+02 -.84757932E+02 0.23742088E+03 0.28423713E+03 0.12500000E+03 0.0000E+00 0.9000E+01
      -24  1    1    2    0    0 0.40164208E+02 0.84757932E+02 0.76189863E+02 0.14515227E+03 0.80419002E+02 0.0000E+00 0.9000E+01
#aMCatNLO 1  0  0  2  2 0.17801340D+03 0.00000000D+00  -5  5  0 0.00000000D+00 0.00000000D+00 0.00000000D+00 0.00000000D+00 0.00000000D+00
  <mgrwgt>
 0.4999336902D-01    3    2    0
 0.146648864276100D+03 0.000000000000000D+00 0.000000000000000D+00 0.146648864276100D+03
 0.146648864276100D+03 0.000000000000000D+00 0.000000000000000D+00 -.146648864276100D+03
 0.162260618398498D+03 -.401642076712837D+02 -.847579318169024D+02 0.436627724649088D+02
 0.131037110153703D+03 0.401642076712837D+02 0.847579318169024D+02 -.436627724649088D+02
 0.000000000000000D+00 -.000000000000000D+00 0.000000000000000D+00 0.000000000000000D+00
 0.294056988063595D+03 0.000000000000000D+00 0.000000000000000D+00 0.294056988063595D+03
 0.236211394589785D+03 0.000000000000000D+00 0.000000000000000D+00 -.236211394589785D+03
 0.195172121115750D+03 0.457511424834874D+02 -.135895371970329D+03 0.436627724649088D+02
 0.147920183115804D+03 0.107216581110963D+03 0.448478723486014D+02 -.436627724649088D+02
 0.187176078421827D+03 -.152967723594450D+03 0.910474996217279D+02 0.578455934738100D+02
0.947846116632D-03 0.000000000000D+00 0.000000000000D+00 0.224087031193D-02 0.000000000000D+00  5 -4 3 25 -24 21 0 0.57153857D-01 0.89060505D-02 0.19575416D+05 0.19575416D+05 0.19575416D+05 0.12348533D+01  1  2  2  2  5  2        3 0.489859413347D-01 0.100000000000D+01
-.525165297553D-04 0.000000000000D+00 -.363997866148D-05 0.224087031193D-02 0.000000000000D+00  5 -4 3 25 -24 21 2 0.57153857D-01 0.89060505D-02 0.19575416D+05 0.19575416D+05 0.19575416D+05 0.12348533D+01  1  2  3  2  5  2        3 -.413866601808D-02 0.100000000000D+01
0.653000223203D-04 0.000000000000D+00 0.000000000000D+00 0.224087031193D-02 0.000000000000D+00  5 -4 3 25 -24 21 2 0.57153857D-01 0.89060505D-02 0.19575416D+05 0.19575416D+05 0.19575416D+05 0.12348533D+01  1  2 15  2  5  2        3 0.514609370833D-02 0.100000000000D+01
  </mgrwgt>
  </event>
  <event>
  4     66 0.46019439E-03 0.73875732E+02 0.75467711E-02 0.12520261E+00
       -2 -1    0    0    0  501 0.00000000E+00 0.00000000E+00 0.56971241E+01 0.57061040E+01 0.32000000E+00 0.0000E+00 0.9000E+01
        1 -1    0    0  501    0 0.00000000E+00 0.00000000E+00 -.24577202E+04 0.24577202E+04 0.32000000E+00 0.0000E+00 0.9000E+01
       25  1    1    2    0    0 0.21251072E+02 0.32310333E+02 -.97933641E+03 0.98803865E+03 0.12500000E+03 0.0000E+00 0.9000E+01
      -24  1    1    2    0    0 -.21251072E+02 -.32310333E+02 -.14726867E+04 0.14753877E+04 0.80419002E+02 0.0000E+00 0.9000E+01
#aMCatNLO 1  0  0  2  1 0.91394574D+01 0.00000000D+00  -5  5  0 0.00000000D+00 0.00000000D+00 0.00000000D+00 0.00000000D+00 0.00000000D+00
  <mgrwgt>
 0.5673770253D+00   11    2    0
 0.118376616247266D+03 0.000000000000000D+00 0.000000000000000D+00 0.118376616247266D+03
 0.118376616247266D+03 0.000000000000000D+00 0.000000000000000D+00 -.118376616247266D+03
 0.137716973185879D+03 0.212510718673511D+02 0.323103328224862D+02 0.429581079758995D+02
 0.990362593086528D+02 -.212510718673511D+02 -.323103328224862D+02 -.429581079758995D+02
 0.000000000000000D+00 0.000000000000000D+00 0.000000000000000D+00 -.000000000000000D+00
 0.121634023448188D+03 0.000000000000000D+00 0.000000000000000D+00 0.121634023448188D+03
 0.125053887531357D+03 0.000000000000000D+00 0.000000000000000D+00 -.125053887531357D+03
 0.136327265036799D+03 0.182210119927236D+02 0.279771133876557D+02 0.429581079758995D+02
 0.100602308418074D+03 -.234584410768630D+02 -.354670411234001D+02 -.429581079758995D+02
 0.975833752467154D+01 0.523742908413934D+01 0.748992773574445D+01 -.341986408316911D+01
0.384920088353D-03 0.000000000000D+00 0.000000000000D+00 0.249583492908D-02 0.000000000000D+00  5 -2 1 25 -24 21 0 0.87717300D-03 0.37811149D+00 0.12108801D+05 0.12108801D+05 0.12108801D+05 0.12585650D+01  1  2  2  2  5  2        1 0.146536937065D+00 0.100000000000D+01
-.212457898146D-04 0.000000000000D+00 -.147819449106D-05 0.249583492908D-02 0.000000000000D+00  5 -2 1 25 -24 21 2 0.87717300D-03 0.37811149D+00 0.12108801D+05 0.12108801D+05 0.12108801D+05 0.12585650D+01  1  2  3  2  5  2        1 -.128115207355D-01 0.100000000000D+01
0.266311643008D-04 0.000000000000D+00 0.000000000000D+00 0.249583492908D-02 0.000000000000D+00  5 -2 1 25 -24 21 2 0.87717300D-03 0.37811149D+00 0.12108801D+05 0.12108801D+05 0.12108801D+05 0.12585650D+01  1  2 15  2  5  2        1 0.160589799968D-01 0.100000000000D+01
0.105119029158D-02 0.000000000000D+00 0.000000000000D+00 0.249583492908D-02 0.000000000000D+00  5 -2 1 25 -24 21 2 0.87717300D-03 0.40441956D+00 0.13166519D+05 0.13166519D+05 0.13166519D+05 0.12543294D+01  1  2 12  2  5  2        1 0.487562310040D+00 0.100000000000D+01
-.986283278081D-03 0.000000000000D+00 0.000000000000D+00 0.249583492908D-02 0.000000000000D+00  5 -2 1 25 -24 21 2 0.87717300D-03 0.37811149D+00 0.12108801D+05 0.12108801D+05 0.12108801D+05 0.12585650D+01  1  2  4  2  5  2        1 -.594743183399D+00 0.100000000000D+01
-.388350796730D-02 0.000000000000D+00 -.632800825117D-03 0.249583492908D-02 0.000000000000D+00  5 -2 1 25 -24 21 2 0.87717300D-03 0.40349425D+00 0.12108801D+05 0.12108801D+05 0.12108801D+05 0.12585650D+01  1  2  5  2  5  2        1 -.182926973886D+01 0.100000000000D+01
0.391768418135D-02 0.000000000000D+00 0.631467483886D-03 0.249583492908D-02 0.000000000000D+00  5 -2 1 25 -24 21 2 0.87717300D-03 0.37811149D+00 0.12108801D+05 0.12108801D+05 0.12108801D+05 0.12585650D+01  1  2  6  2  5  2        1 0.236242062838D+01 0.100000000000D+01
0.104370008796D-06 0.000000000000D+00 0.000000000000D+00 0.249583492908D-02 0.251265664894D-03  5 -2 1 25 -24 21 2 0.90131045D-03 0.39943963D+00 0.13166519D+05 0.13166519D+05 0.13166519D+05 0.12543294D+01  1  2 11  2  5  2        1 0.489072205137D-04 0.100000000000D+01
0.128938575834D-04 0.000000000000D+00 0.000000000000D+00 0.249583492908D-02 0.000000000000D+00  5 -2 21 25 -24 -1 2 0.87717300D-03 0.40441956D+00 0.13166519D+05 0.13166519D+05 0.13166519D+05 0.12543294D+01  1  2 12  4  5  2        1 0.357849125691D-02 0.100000000000D+01
-.421051755631D-04 0.000000000000D+00 -.701114516315D-05 0.249583492908D-02 0.000000000000D+00  5 -2 21 25 -24 -1 2 0.87717300D-03 0.40349425D+00 0.12108801D+05 0.12108801D+05 0.12108801D+05 0.12585650D+01  1  2  5  4  5  2        1 -.120051719962D-01 0.100000000000D+01
0.134905141036D-08 0.000000000000D+00 0.000000000000D+00 0.249583492908D-02 0.240979148972D-05  5 -2 21 25 -24 -1 2 0.90131045D-03 0.39943963D+00 0.13166519D+05 0.13166519D+05 0.13166519D+05 0.12543294D+01  1  2 11  4  5  2        1 0.386291576111D-06 0.100000000000D+01
  </mgrwgt>
  </event>
  <event>
  4     66 0.46019439E-03 0.63554763E+02 0.75467711E-02 0.11966669E+00
       -4 -1    0    0    0  501 0.00000000E+00 0.00000000E+00 0.52677530E+02 0.52700329E+02 0.15500000E+01 0.0000E+00 0.9000E+01
        3 -1    0    0  501    0 0.00000000E+00 0.00000000E+00 -.37860925E+03 0.37860958E+03 0.50000000E+00 0.0000E+00 0.9000E+01
       25  1    1    2    0    0 0.25844680E+02 -.88313401E+02 -.22202536E+03 0.27090121E+03 0.12500000E+03 0.0000E+00 0.9000E+01
      -24  1    1    2    0    0 -.25844680E+02 0.88313401E+02 -.10390637E+03 0.16040871E+03 0.80419002E+02 0.0000E+00 0.9000E+01
#aMCatNLO 1  0  0  1  2 0.27550774D+02 0.00000000D+00  -5  5  0 0.00000000D+00 0.00000000D+00 0.00000000D+00 0.00000000D+00 0.00000000D+00
  <mgrwgt>
 0.2428002336D-01    9    2    0
 0.141241595165043D+03 0.000000000000000D+00 0.000000000000000D+00 0.141241595165043D+03
 0.141241595165043D+03 0.000000000000000D+00 0.000000000000000D+00 -.141241595165043D+03
 0.157451027016418D+03 0.258446804230945D+02 -.883134011446770D+02 -.264314505960681D+02
 0.125032163313667D+03 -.258446804230945D+02 0.883134011446770D+02 0.264314505960681D+02
 0.000000000000000D+00 0.000000000000000D+00 0.000000000000000D+00 0.000000000000000D+00
 0.176708417001652D+03 0.000000000000000D+00 0.000000000000000D+00 0.176708417001652D+03
 0.147365202151732D+03 0.000000000000000D+00 0.000000000000000D+00 -.147365202151732D+03
 0.163904402846623D+03 0.170557049988865D+02 -.101242948489694D+03 -.264314505960681D+02
 0.119919130326312D+03 -.325440254469121D+02 0.784579294332112D+02 0.264314505960681D+02
 0.402500859804490D+02 0.154883204480256D+02 0.227850190564823D+02 0.293432148499198D+02
0.391642650109D-03 0.000000000000D+00 0.000000000000D+00 0.240953456734D-02 0.000000000000D+00  5 -4 3 25 -24 21 0 0.81060146D-02 0.58249357D-01 0.19240894D+05 0.19240894D+05 0.19240894D+05 0.12356804D+01  1  2  2  1  5  1       -4 0.244214166334D-01 0.100000000000D+01
-.217492819363D-04 0.000000000000D+00 -.150401089830D-05 0.240953456734D-02 0.000000000000D+00  5 -4 3 25 -24 21 2 0.81060146D-02 0.58249357D-01 0.19240894D+05 0.19240894D+05 0.19240894D+05 0.12356804D+01  1  2  3  1  5  1       -4 -.207079978747D-02 0.100000000000D+01
0.270318987536D-04 0.000000000000D+00 0.000000000000D+00 0.240953456734D-02 0.000000000000D+00  5 -4 3 25 -24 21 2 0.81060146D-02 0.58249357D-01 0.19240894D+05 0.19240894D+05 0.19240894D+05 0.12356804D+01  1  2 15  1  5  1       -4 0.257377003792D-02 0.100000000000D+01
0.649000875671D-03 0.000000000000D+00 0.000000000000D+00 0.240953456734D-02 0.000000000000D+00  5 -4 3 25 -24 21 2 0.10285731D-01 0.58249357D-01 0.23451849D+05 0.23451849D+05 0.23451849D+05 0.12262854D+01  1  2 12  1  5  1       -4 0.414961347379D-01 0.100000000000D+01
-.661711673964D-03 0.000000000000D+00 0.000000000000D+00 0.240953456734D-02 0.000000000000D+00  5 -4 3 25 -24 21 2 0.81060146D-02 0.58249357D-01 0.19240894D+05 0.19240894D+05 0.19240894D+05 0.12356804D+01  1  2  4  1  5  1       -4 -.630031096120D-01 0.100000000000D+01
-.997056138156D-03 0.000000000000D+00 -.197292160307D-03 0.240953456734D-02 0.000000000000D+00  5 -4 3 25 -24 21 2 0.10557102D-01 0.58249357D-01 0.19240894D+05 0.19240894D+05 0.19240894D+05 0.12356804D+01  1  2  5  1  5  1       -4 -.609754182661D-01 0.100000000000D+01
0.102006323740D-02 0.000000000000D+00 0.190601607229D-03 0.240953456734D-02 0.000000000000D+00  5 -4 3 25 -24 21 2 0.81060146D-02 0.58249357D-01 0.19240894D+05 0.19240894D+05 0.19240894D+05 0.12356804D+01  1  2  6  1  5  1       -4 0.971225965714D-01 0.100000000000D+01
0.211885875236D-04 0.000000000000D+00 0.000000000000D+00 0.240953456734D-02 0.000000000000D+00  5 21 3 25 -24 4 2 0.10285731D-01 0.58249357D-01 0.23451849D+05 0.23451849D+05 0.23451849D+05 0.12262854D+01  1  2 12  3  5  1       -4 0.351714722787D-01 0.100000000000D+01
-.315237024514D-04 0.000000000000D+00 -.695347069095D-05 0.240953456734D-02 0.000000000000D+00  5 21 3 25 -24 4 2 0.10557102D-01 0.58249357D-01 0.19240894D+05 0.19240894D+05 0.19240894D+05 0.12356804D+01  1  2  5  3  5  1       -4 -.504560392332D-01 0.100000000000D+01
  </mgrwgt>
  </event>
  <event>
  4     66 0.46019439E-03 0.12681637E+03 0.75467711E-02 0.11027073E+00
       -2 -1    0    0    0  501 0.00000000E+00 0.00000000E+00 0.18982854E+03 0.18982881E+03 0.32000000E+00 0.0000E+00 0.9000E+01
        1 -1    0    0  501    0 0.00000000E+00 0.00000000E+00 -.10558269E+03 0.10558317E+03 0.32000000E+00 0.0000E+00 0.9000E+01
       25  1    1    2    0    0 0.73081705E+02 -.46115452E+01 -.18187073E+02 0.14600675E+03 0.12500000E+03 0.0000E+00 0.9000E+01
      -24  1    1    2    0    0 -.73081705E+02 0.46115452E+01 0.10243293E+03 0.14940523E+03 0.80419002E+02 0.0000E+00 0.9000E+01
#aMCatNLO 1  0  0  2  2 0.20763432D+03 0.00000000D+00  -5  5  0 0.00000000D+00 0.00000000D+00 0.00000000D+00 0.00000000D+00 0.00000000D+00
  <mgrwgt>
 0.2078950529D+00    5    2    0
 0.141572309066271D+03 0.000000000000000D+00 0.000000000000000D+00 0.141572309066271D+03
 0.141572309066271D+03 0.000000000000000D+00 0.000000000000000D+00 -.141572309066271D+03
 0.157743875571806D+03 0.730817050044445D+02 -.461154520831227D+01 -.624173719796698D+02
 0.125400742560736D+03 -.730817050044445D+02 0.461154520831227D+01 0.624173719796698D+02
 0.000000000000000D+00 0.000000000000000D+00 -.000000000000000D+00 -.000000000000000D+00
 0.246541163419642D+03 0.000000000000000D+00 0.000000000000000D+00 0.246541163419642D+03
 0.327397843011199D+03 0.000000000000000D+00 0.000000000000000D+00 -.327397843011199D+03
 0.146571642270243D+03 -.151619748560295D+02 0.416225000620173D+02 -.624173719796698D+02
 0.204544983999903D+03 -.168757486747065D+03 0.547395365993859D+02 0.624173719796698D+02
 0.222822380160696D+03 0.183919461603095D+03 -.963620366614032D+02 -.808566795915563D+02
0.567290547915D-03 0.000000000000D+00 0.000000000000D+00 0.204865389957D-02 0.000000000000D+00  5 -2 1 25 -24 21 0 0.29204449D-01 0.16243548D-01 0.16082391D+05 0.16082391D+05 0.16082391D+05 0.12443876D+01  1  2  2  2  5  2        1 0.171725436665D+00 0.100000000000D+01
-.310518866774D-04 0.000000000000D+00 -.217854507502D-05 0.204865389957D-02 0.000000000000D+00  5 -2 1 25 -24 21 2 0.29204449D-01 0.16243548D-01 0.16082391D+05 0.16082391D+05 0.16082391D+05 0.12443876D+01  1  2  3  2  5  2        1 -.145555439881D-01 0.100000000000D+01
0.391974703312D-04 0.000000000000D+00 0.000000000000D+00 0.204865389957D-02 0.000000000000D+00  5 -2 1 25 -24 21 2 0.29204449D-01 0.16243548D-01 0.16082391D+05 0.16082391D+05 0.16082391D+05 0.12443876D+01  1  2 15  2  5  2        1 0.183737790092D-01 0.100000000000D+01
0.222105246511D-03 0.000000000000D+00 -.256877256736D-03 0.204865389957D-02 0.000000000000D+00  5 -2 1 25 -24 21 2 0.29204449D-01 0.62444788D-01 0.16082391D+05 0.16082391D+05 0.16082391D+05 0.12443876D+01  1  2  5  2  5  2        1 0.193503377909D-01 0.100000000000D+01
0.401445320249D-04 0.000000000000D+00 -.410591150633D-04 0.204865389957D-02 0.000000000000D+00  5 -2 21 25 -24 -1 2 0.29204449D-01 0.62444788D-01 0.16082391D+05 0.16082391D+05 0.16082391D+05 0.12443876D+01  1  2  5  4  5  2        1 0.130010433870D-01 0.100000000000D+01
  </mgrwgt>
  </event>
  <event>
  4     66 0.46019439E-03 0.11319560E+03 0.75467711E-02 0.11556885E+00
       -2 -1    0    0    0  501 0.00000000E+00 0.00000000E+00 0.10634709E+02 0.10639522E+02 0.32000000E+00 0.0000E+00 0.9000E+01
        1 -1    0    0  501    0 0.00000000E+00 0.00000000E+00 -.12337219E+04 0.12337219E+04 0.32000000E+00 0.0000E+00 0.9000E+01
       25  1    1    2    0    0 -.45397072E+02 -.10738517E+02 -.62410007E+03 0.63820224E+03 0.12500000E+03 0.0000E+00 0.9000E+01
      -24  1    1    2    0    0 0.45397072E+02 0.10738517E+02 -.59898713E+03 0.60615922E+03 0.80419002E+02 0.0000E+00 0.9000E+01
#aMCatNLO 1  0  0  1  2 0.12674354D+03 0.00000000D+00  -5  5  0 0.00000000D+00 0.00000000D+00 0.00000000D+00 0.00000000D+00 0.00000000D+00
  <mgrwgt>
 0.2387361805D+00    3    2    0
 0.114556946546282D+03 0.000000000000000D+00 0.000000000000000D+00 0.114556946546282D+03
 0.114556946546282D+03 0.000000000000000D+00 0.000000000000000D+00 -.114556946546282D+03
 0.134542168572800D+03 -.453970715645238D+02 -.107385172430068D+02 0.173316261516010D+02
 0.945717245197646D+02 0.453970715645238D+02 0.107385172430068D+02 -.173316261516010D+02
 0.000000000000000D+00 0.000000000000000D+00 -.000000000000000D+00 -.000000000000000D+00
 0.184351044875946D+03 0.000000000000000D+00 0.000000000000000D+00 0.184351044875946D+03
 0.206074861669023D+03 0.000000000000000D+00 0.000000000000000D+00 -.206074861669023D+03
 0.151395736200271D+03 -.557469921436665D+02 0.623502729865484D+02 0.173316261516010D+02
 0.110438374787295D+03 0.379764455812908D+02 0.631412938356579D+02 -.173316261516010D+02
 0.128591795557403D+03 0.177705465623757D+02 -.125491566822206D+03 -.217238167930768D+02
0.246004176324D-03 0.000000000000D+00 0.000000000000D+00 0.284076642594D-02 0.000000000000D+00  5 -2 1 25 -24 21 0 0.16364825D-02 0.18980374D+00 0.12813244D+05 0.12813244D+05 0.12813244D+05 0.12557002D+01  1  2  2  1  5  1       -2 0.233680833568D+00 0.100000000000D+01
-.136645238556D-04 0.000000000000D+00 -.944720811473D-06 0.284076642594D-02 0.000000000000D+00  5 -2 1 25 -24 21 2 0.16364825D-02 0.18980374D+00 0.12813244D+05 0.12813244D+05 0.12813244D+05 0.12557002D+01  1  2  3  1  5  1       -2 -.204666622965D-01 0.100000000000D+01
0.170397155780D-04 0.000000000000D+00 0.000000000000D+00 0.284076642594D-02 0.000000000000D+00  5 -2 1 25 -24 21 2 0.16364825D-02 0.18980374D+00 0.12813244D+05 0.12813244D+05 0.12813244D+05 0.12557002D+01  1  2 15  1  5  1       -2 0.255220092591D-01 0.100000000000D+01
  </mgrwgt>
  </event>
  <event>
  5     66 0.46019439E-03 0.13579012E+03 0.75467711E-02 0.11667347E+00
       21 -1    0    0  502  501 0.00000000E+00 0.00000000E+00 0.46760862E+02 0.46766876E+02 0.75000000E+00 0.0000E+00 0.9000E+01
        1 -1    0    0  501    0 0.00000000E+00 0.00000000E+00 -.78910682E+03 0.78910688E+03 0.32000000E+00 0.0000E+00 0.9000E+01
       25  1    1    2    0    0 0.95200308E+02 -.12057175E+02 -.23679082E+03 0.28443517E+03 0.12500000E+03 0.0000E+00 0.9000E+01
      -24  1    1    2    0    0 -.53842751E+02 0.79681960E+02 -.40158275E+03 0.42069488E+03 0.80419002E+02 0.0000E+00 0.9000E+01
        2  1    1    2  502    0 -.41357558E+02 -.67624785E+02 -.10397239E+03 0.13074372E+03 0.32000000E+00 0.0000E+00 0.9000E+01
#aMCatNLO 2  0  0  1  2 0.79268904D+02 0.00000000D+00  -5  5  0 0.00000000D+00 0.00000000D+00 0.00000000D+00 0.00000000D+00 0.00000000D+00
  <mgrwgt>
 0.5936421037D-01    2    2    0
 0.144398760648712D+03 0.000000000000000D+00 0.000000000000000D+00 0.144398760648712D+03
 0.144398760648712D+03 0.000000000000000D+00 0.000000000000000D+00 -.144398760648712D+03
 0.160253786004346D+03 0.723366449638176D+02 -.494421277094132D+02 0.487766515012181D+02
 0.128543735293079D+03 -.723366449638176D+02 0.494421277094132D+02 -.487766515012181D+02
 0.000000000000000D+00 -.000000000000000D+00 -.000000000000000D+00 0.000000000000000D+00
 0.209789022389696D+03 0.000000000000000D+00 0.000000000000000D+00 0.209789022389696D+03
 0.175899279691070D+03 0.000000000000000D+00 0.000000000000000D+00 -.175899279691070D+03
 0.164962528882769D+03 0.952003084437246D+02 -.120571752888779D+02 0.487766515012181D+02
 0.134516297365021D+03 -.538427509419391D+02 0.796819599517813D+02 -.487766515012181D+02
 0.862094758329769D+02 -.413575575017855D+02 -.676247846629034D+02 0.338897426986260D+02
-.355963574030D-05 0.000000000000D+00 0.000000000000D+00 0.220337486201D-02 0.000000000000D+00  5 21 1 25 -24 2 2 0.75376630D-02 0.99660446D-01 0.32800230D+05 0.32800230D+05 0.32800230D+05 0.12108518D+01  1  2 13  3  5  1       -2 -.243767366784D-01 0.100000000000D+01
0.150403947653D-04 0.000000000000D+00 0.000000000000D+00 0.220337486201D-02 0.188548102164D-06  5 21 1 25 -24 2 2 0.71944349D-02 0.12140132D+00 0.32800230D+05 0.32800230D+05 0.32800230D+05 0.12108518D+01  1  2  1  3  5  1       -2 0.837409470524D-01 0.100000000000D+01
  </mgrwgt>
  </event>
  <event>
  4     66 0.46019439E-03 0.44559543E+02 0.75467711E-02 0.12312868E+00
       -2 -1    0    0    0  501 0.00000000E+00 0.00000000E+00 0.42352279E+02 0.42353488E+02 0.32000000E+00 0.0000E+00 0.9000E+01
        1 -1    0    0  501    0 0.00000000E+00 0.00000000E+00 -.34865480E+03 0.34865495E+03 0.32000000E+00 0.0000E+00 0.9000E+01
       25  1    1    2    0    0 0.49629672E+02 0.26776919E+02 -.22503650E+03 0.26352710E+03 0.12500000E+03 0.0000E+00 0.9000E+01
      -24  1    1    2    0    0 -.49629672E+02 -.26776919E+02 -.81266020E+02 0.12748133E+03 0.80419002E+02 0.0000E+00 0.9000E+01
#aMCatNLO 1  0  0  1  2 0.18853424D+02 0.00000000D+00  -5  5  0 0.00000000D+00 0.00000000D+00 0.00000000D+00 0.00000000D+00 0.00000000D+00
  <mgrwgt>
 0.1794517332D+00    9    2    0
 0.121517860369164D+03 0.000000000000000D+00 0.000000000000000D+00 0.121517860369164D+03
 0.121517860369164D+03 0.000000000000000D+00 0.000000000000000D+00 -.121517860369164D+03
 0.140358267898166D+03 0.496296720555159D+02 0.267769188711604D+02 -.299221595945622D+02
 0.102677452840162D+03 -.496296720555159D+02 -.267769188711604D+02 0.299221595945622D+02
 0.000000000000000D+00 -.000000000000000D+00 -.000000000000000D+00 0.000000000000000D+00
 0.144478193457707D+03 0.000000000000000D+00 0.000000000000000D+00 0.144478193457707D+03
 0.125815763374886D+03 0.000000000000000D+00 0.000000000000000D+00 -.125815763374886D+03
 0.143216578674407D+03 0.506821966934545D+02 0.377089871347172D+02 -.299221595945622D+02
 0.100549319576951D+03 -.488753696635969D+02 -.189423419476474D+02 0.299221595945622D+02
 0.265280585812342D+02 -.180682702985760D+01 -.187666451870698D+02 0.186624300828215D+02
0.220532062101D-03 0.000000000000D+00 0.000000000000D+00 0.261010227449D-02 0.000000000000D+00  5 -2 1 25 -24 21 0 0.65158395D-02 0.53639304D-01 0.13847701D+05 0.13847701D+05 0.13847701D+05 0.12517994D+01  1  2  2  1  5  1       -2 0.171873465443D+00 0.100000000000D+01
-.122364088783D-04 0.000000000000D+00 -.846901185894D-06 0.261010227449D-02 0.000000000000D+00  5 -2 1 25 -24 21 2 0.65158395D-02 0.53639304D-01 0.13847701D+05 0.13847701D+05 0.13847701D+05 0.12517994D+01  1  2  3  1  5  1       -2 -.149437841211D-01 0.100000000000D+01
0.152179865452D-04 0.000000000000D+00 0.000000000000D+00 0.261010227449D-02 0.000000000000D+00  5 -2 1 25 -24 21 2 0.65158395D-02 0.53639304D-01 0.13847701D+05 0.13847701D+05 0.13847701D+05 0.12517994D+01  1  2 15  1  5  1       -2 0.185850528494D-01 0.100000000000D+01
0.435675066454D-03 0.000000000000D+00 0.000000000000D+00 0.261010227449D-02 0.000000000000D+00  5 -2 1 25 -24 21 2 0.78471678D-02 0.53639304D-01 0.16243913D+05 0.16243913D+05 0.16243913D+05 0.12438974D+01  1  2 12  1  5  1       -2 0.397567277751D+00 0.100000000000D+01
-.442357151040D-03 0.000000000000D+00 0.000000000000D+00 0.261010227449D-02 0.000000000000D+00  5 -2 1 25 -24 21 2 0.65158395D-02 0.53639304D-01 0.13847701D+05 0.13847701D+05 0.13847701D+05 0.12517994D+01  1  2  4  1  5  1       -2 -.540231193264D+00 0.100000000000D+01
-.734566889801D-03 0.000000000000D+00 -.136661784585D-03 0.261010227449D-02 0.000000000000D+00  5 -2 1 25 -24 21 2 0.80099859D-02 0.53639304D-01 0.13847701D+05 0.13847701D+05 0.13847701D+05 0.12517994D+01  1  2  5  1  5  1       -2 -.654353809879D+00 0.100000000000D+01
0.749610647902D-03 0.000000000000D+00 0.133800171942D-03 0.261010227449D-02 0.000000000000D+00  5 -2 1 25 -24 21 2 0.65158395D-02 0.53639304D-01 0.13847701D+05 0.13847701D+05 0.13847701D+05 0.12517994D+01  1  2  6  1  5  1       -2 0.915466278430D+00 0.100000000000D+01
0.117840131748D-04 0.000000000000D+00 0.000000000000D+00 0.261010227449D-02 0.000000000000D+00  5 21 1 25 -24 2 2 0.78471678D-02 0.53639304D-01 0.16243913D+05 0.16243913D+05 0.16243913D+05 0.12438974D+01  1  2 12  3  5  1       -2 0.177662804812D+00 0.100000000000D+01
-.198757014942D-04 0.000000000000D+00 -.400695375290D-05 0.261010227449D-02 0.000000000000D+00  5 21 1 25 -24 2 2 0.80099859D-02 0.53639304D-01 0.13847701D+05 0.13847701D+05 0.13847701D+05 0.12517994D+01  1  2  5  3  5  1       -2 -.292174358776D+00 0.100000000000D+01
  </mgrwgt>
  </event>
  <event>
  5     66 -.46019439E-03 0.19366227E+03 0.75467711E-02 0.11458935E+00
       -2 -1    0    0    0  502 0.00000000E+00 0.00000000E+00 0.16215385E+03 0.16215416E+03 0.32000000E+00 0.0000E+00 0.9000E+01
        1 -1    0    0  501    0 0.00000000E+00 0.00000000E+00 -.28083240E+03 0.28083258E+03 0.32000000E+00 0.0000E+00 0.9000E+01
       25  1    1    2    0    0 -.15087400E+03 0.21454559E+02 -.12003020E+03 0.23077156E+03 0.12500000E+03 0.0000E+00 0.9000E+01
      -24  1    1    2    0    0 0.17203493E+03 -.19112687E+02 -.97599850E-01 0.19086262E+03 0.80419002E+02 0.0000E+00 0.9000E+01
       21  1    1    2  501  502 -.21160932E+02 -.23418716E+01 0.14492498E+01 0.21352569E+02 0.75000000E+00 0.0000E+00 0.9000E+01
#aMCatNLO 2  0  0  1  2 0.21290124D+02 0.00000000D+00  -5  5  0 0.00000000D+00 0.00000000D+00 0.00000000D+00 0.00000000D+00 0.00000000D+00
  <mgrwgt>
 -.2572392669D-01    2    2    0
 0.201799044417086D+03 0.000000000000000D+00 0.000000000000000D+00 0.201799044417086D+03
 0.201799044417086D+03 0.000000000000000D+00 0.000000000000000D+00 -.201799044417086D+03
 0.213144222081433D+03 -.161830099264210D+03 0.202420514932639D+02 -.566280648634523D+02
 0.190453866752739D+03 0.161830099264210D+03 -.202420514932639D+02 0.566280648634523D+02
 0.000000000000000D+00 -.000000000000000D+00 -.000000000000000D+00 0.000000000000000D+00
 0.217355806779812D+03 0.000000000000000D+00 0.000000000000000D+00 0.217355806779812D+03
 0.209497523666649D+03 0.000000000000000D+00 0.000000000000000D+00 -.209497523666649D+03
 0.205073157006827D+03 -.150874000124862D+03 0.214545585107339D+02 -.566280648634523D+02
 0.199086077324861D+03 0.172034931629988D+03 -.191126868628206D+02 0.566280648634523D+02
 0.226940961147734D+02 -.211609315051262D+02 -.234187164791334D+01 0.785828311316347D+01
-.196623656710D-02 0.000000000000D+00 0.000000000000D+00 0.199669773880D-02 0.000000000000D+00  5 -2 1 25 -24 21 2 0.25361772D-01 0.41616137D-01 0.41871869D+05 0.41871869D+05 0.41871869D+05 0.11999885D+01  1  2 13  1  5  1       -2 -.342369852619D+00 0.100000000000D+01
0.185098844730D-02 0.000000000000D+00 0.000000000000D+00 0.199669773880D-02 0.339252278894D-04  5 -2 1 25 -24 21 2 0.24946055D-01 0.43203761D-01 0.41871869D+05 0.41871869D+05 0.41871869D+05 0.11999885D+01  1  2  1  1  5  1       -2 0.316645925934D+00 0.100000000000D+01
  </mgrwgt>
  </event>
  <event>
  5     66 0.46019439E-03 0.10714643E+03 0.75467711E-02 0.12119932E+00
       -2 -1    0    0    0  501 0.00000000E+00 0.00000000E+00 0.45740191E+03 0.45740202E+03 0.32000000E+00 0.0000E+00 0.9000E+01
       21 -1    0    0  501  502 0.00000000E+00 0.00000000E+00 -.55800120E+02 0.55805160E+02 0.75000000E+00 0.0000E+00 0.9000E+01
       25  1    1    2    0    0 0.48514988E+02 0.41549377E+02 0.14697216E+03 0.20323846E+03 0.12500000E+03 0.0000E+00 0.9000E+01
      -24  1    1    2    0    0 -.12437035E+02 0.63855090E+01 0.23184182E+03 0.24579117E+03 0.80419002E+02 0.0000E+00 0.9000E+01
       -1  1    1    2    0  502 -.36077953E+02 -.47934886E+02 0.22787812E+02 0.64177556E+02 0.32000000E+00 0.0000E+00 0.9000E+01
#aMCatNLO 2  0  0  2  1 0.59994766D+02 0.00000000D+00  -5  5  0 0.00000000D+00 0.00000000D+00 0.00000000D+00 0.00000000D+00 0.00000000D+00
  <mgrwgt>
 0.7704718407D-01    2    2    0
 0.116756374159018D+03 0.000000000000000D+00 0.000000000000000D+00 0.116756374159018D+03
 0.116756374159018D+03 0.000000000000000D+00 0.000000000000000D+00 -.116756374159018D+03
 0.136365119530720D+03 0.269293442348796D+02 0.128696628090217D+02 -.456029387527708D+02
 0.971476287873155D+02 -.269293442348796D+02 -.128696628090217D+02 0.456029387527708D+02
 0.000000000000000D+00 -.000000000000000D+00 -.000000000000000D+00 -.000000000000000D+00
 0.133211675692469D+03 0.000000000000000D+00 0.000000000000000D+00 0.133211675692469D+03
 0.191607032168248D+03 0.000000000000000D+00 0.000000000000000D+00 -.191607032168248D+03
 0.147596350837806D+03 0.485149879445966D+02 0.415493766798409D+02 -.456029387527708D+02
 0.935002596021572D+02 -.124370351640600D+02 0.638550896477539D+01 0.456029387527708D+02
 0.837220974207546D+02 -.360779527805366D+02 -.479348856446163D+02 -.583953564757787D+02
-.165883642865D-04 0.000000000000D+00 0.000000000000D+00 0.247608034062D-02 0.000000000000D+00  5 -2 21 25 -24 -1 2 0.61677170D-01 0.87570263D-02 0.19880245D+05 0.19880245D+05 0.19880245D+05 0.12341133D+01  1  2 13  4  5  2        1 -.523655991449D-01 0.100000000000D+01
0.522238135407D-04 0.000000000000D+00 0.000000000000D+00 0.247608034062D-02 0.459085167408D-06  5 -2 21 25 -24 -1 2 0.70369770D-01 0.85850117D-02 0.19880245D+05 0.19880245D+05 0.19880245D+05 0.12341133D+01  1  2  1  4  5  2        1 0.129412783216D+00 0.100000000000D+01
  </mgrwgt>
  </event>
  <event>
  4     66 0.46019439E-03 0.12695492E+03 0.75467711E-02 0.12137891E+00
       -2 -1    0    0    0  501 0.00000000E+00 0.00000000E+00 0.18288218E+02 0.18291017E+02 0.32000000E+00 0.0000E+00 0.9000E+01
        1 -1    0    0  501    0 0.00000000E+00 0.00000000E+00 -.88176163E+03 0.88176169E+03 0.32000000E+00 0.0000E+00 0.9000E+01
       25  1    1    2    0    0 -.66274640E+02 0.31691076E+02 -.48216812E+03 0.50349553E+03 0.12500000E+03 0.0000E+00 0.9000E+01
      -24  1    1    2    0    0 0.66274640E+02 -.31691076E+02 -.38130529E+03 0.39655718E+03 0.80419002E+02 0.0000E+00 0.9000E+01
#aMCatNLO 1  0  0  2  1 0.24251415D+02 0.00000000D+00  -5  5  0 0.00000000D+00 0.00000000D+00 0.00000000D+00 0.00000000D+00 0.00000000D+00
  <mgrwgt>
 0.2224459519D+00    4    2    0
 0.126992656829784D+03 0.000000000000000D+00 0.000000000000000D+00 0.126992656829784D+03
 0.126992656829784D+03 0.000000000000000D+00 0.000000000000000D+00 -.126992656829784D+03
 0.145020833171319D+03 -.662746400889523D+02 0.316910764964015D+02 0.306427891721030D+01
 0.108964480488249D+03 0.662746400889523D+02 -.316910764964015D+02 -.306427891721030D+01
 0.000000000000000D+00 0.000000000000000D+00 0.000000000000000D+00 0.000000000000000D+00
 0.209598550163313D+03 0.000000000000000D+00 0.000000000000000D+00 0.209598550163313D+03
 0.129362709979511D+03 0.000000000000000D+00 0.000000000000000D+00 -.129362709979511D+03
 0.143201531875480D+03 -.674379521924305D+02 0.180114277694238D+02 0.306427891721030D+01
 0.111938960152251D+03 0.653830380574607D+02 -.421756253621779D+02 -.306427891721030D+01
 0.838207681150939D+02 0.205491413496983D+01 0.241641975927541D+02 0.802358401838018D+02
0.298631480723D-03 0.000000000000D+00 0.000000000000D+00 0.266310498922D-02 0.000000000000D+00  5 -2 1 25 -24 21 0 0.28137918D-02 0.13565586D+00 0.16117552D+05 0.16117552D+05 0.16117552D+05 0.12442804D+01  1  2  2  2  5  2        1 0.232352984171D+00 0.100000000000D+01
-.165906360362D-04 0.000000000000D+00 -.114682351745D-05 0.266310498922D-02 0.000000000000D+00  5 -2 1 25 -24 21 2 0.28137918D-02 0.13565586D+00 0.16117552D+05 0.16117552D+05 0.16117552D+05 0.12442804D+01  1  2  3  2  5  2        1 -.199853723621D-01 0.100000000000D+01
0.206117579979D-04 0.000000000000D+00 0.000000000000D+00 0.266310498922D-02 0.000000000000D+00  5 -2 1 25 -24 21 2 0.28137918D-02 0.13565586D+00 0.16117552D+05 0.16117552D+05 0.16117552D+05 0.12442804D+01  1  2 15  2  5  2        1 0.248292866968D-01 0.100000000000D+01
-.122453353036D-04 0.000000000000D+00 0.000000000000D+00 0.266310498922D-02 0.000000000000D+00  5 -2 1 25 -24 21 2 0.28137918D-02 0.13565586D+00 0.16117552D+05 0.16117552D+05 0.16117552D+05 0.12442804D+01  1  2  4  2  5  2        1 -.147509465705D-01 0.100000000000D+01
  </mgrwgt>
  </event>
  <event>
  4     66 0.46019439E-03 0.12385952E+03 0.75467711E-02 0.10725955E+00
       -2 -1    0    0    0  501 0.00000000E+00 0.00000000E+00 0.46522695E+02 0.46523796E+02 0.32000000E+00 0.0000E+00 0.9000E+01
        1 -1    0    0  501    0 0.00000000E+00 0.00000000E+00 -.35704716E+03 0.35704730E+03 0.32000000E+00 0.0000E+00 0.9000E+01
       25  1    1    2    0    0 0.20103155E+02 -.65058447E+02 -.12144644E+03 0.18711220E+03 0.12500000E+03 0.0000E+00 0.9000E+01
      -24  1    1    2    0    0 -.20103155E+02 0.65058447E+02 -.18907803E+03 0.21645890E+03 0.80419002E+02 0.0000E+00 0.9000E+01
#aMCatNLO 1  0  0  2  1 0.28022648D+03 0.00000000D+00  -5  5  0 0.00000000D+00 0.00000000D+00 0.00000000D+00 0.00000000D+00 0.00000000D+00
  <mgrwgt>
 0.2832303916D+00    3    2    0
 0.128883851074966D+03 0.000000000000000D+00 0.000000000000000D+00 0.128883851074966D+03
 0.128883851074966D+03 0.000000000000000D+00 0.000000000000000D+00 -.128883851074966D+03
 0.146647488585112D+03 0.201031552677586D+02 -.650584466056546D+02 0.352668056656709D+02
 0.111120213564820D+03 -.201031552677586D+02 0.650584466056546D+02 -.352668056656709D+02
 0.000000000000000D+00 -.000000000000000D+00 0.000000000000000D+00 0.000000000000000D+00
 0.497677084609940D+03 0.000000000000000D+00 0.000000000000000D+00 0.497677084609940D+03
 0.254259515008576D+03 0.000000000000000D+00 0.000000000000000D+00 -.254259515008576D+03
 0.255970955946307D+03 0.190822187017953D+03 -.110631259813360D+03 0.352668056656709D+02
 0.124779711874211D+03 0.799235757672913D+02 0.383566812400449D+02 -.352668056656709D+02
 0.371185931797999D+03 -.270745762785244D+03 0.722745785733155D+02 0.243417569601363D+03
0.421394612173D-03 0.000000000000D+00 0.000000000000D+00 0.246233066815D-02 0.000000000000D+00  5 -2 1 25 -24 21 0 0.71574334D-02 0.54930428D-01 0.15341180D+05 0.15341180D+05 0.15341180D+05 0.12467106D+01  1  2  2  2  5  2        1 0.277329229840D+00 0.100000000000D+01
-.233658058523D-04 0.000000000000D+00 -.161826626649D-05 0.246233066815D-02 0.000000000000D+00  5 -2 1 25 -24 21 2 0.71574334D-02 0.54930428D-01 0.15341180D+05 0.15341180D+05 0.15341180D+05 0.12467106D+01  1  2  3  2  5  2        1 -.239011451448D-01 0.100000000000D+01
0.291347930539D-04 0.000000000000D+00 0.000000000000D+00 0.246233066815D-02 0.000000000000D+00  5 -2 1 25 -24 21 2 0.71574334D-02 0.54930428D-01 0.15341180D+05 0.15341180D+05 0.15341180D+05 0.12467106D+01  1  2 15  2  5  2        1 0.298023069244D-01 0.100000000000D+01
  </mgrwgt>
  </event>
  <event>
  5     66 0.46019439E-03 0.24561993E+03 0.75467711E-02 0.10894960E+00
       21 -1    0    0  502  501 0.00000000E+00 0.00000000E+00 0.21210335E+04 0.21210336E+04 0.75000000E+00 0.0000E+00 0.9000E+01
        1 -1    0    0  501    0 0.00000000E+00 0.00000000E+00 -.50663290E+02 0.50664301E+02 0.32000000E+00 0.0000E+00 0.9000E+01
       25  1    1    2    0    0 -.20172808E+03 -.24064185E+02 0.44028600E+03 0.50074950E+03 0.12500000E+03 0.0000E+00 0.9000E+01
      -24  1    1    2    0    0 0.22327812E+03 0.10607846E+03 0.14331331E+04 0.14565176E+04 0.80419002E+02 0.0000E+00 0.9000E+01
        2  1    1    2  502    0 -.21550045E+02 -.82014279E+02 0.19695106E+03 0.21443080E+03 0.32000000E+00 0.0000E+00 0.9000E+01
#aMCatNLO 2  0  0  1  1 0.84798269D+02 0.00000000D+00  -5  5  0 0.00000000D+00 0.00000000D+00 0.00000000D+00 0.00000000D+00 0.00000000D+00
  <mgrwgt>
 0.2047652637D-01    1    2    0
 0.280180550390158D+03 0.000000000000000D+00 0.000000000000000D+00 0.280180550390158D+03
 0.280180550390158D+03 0.000000000000000D+00 0.000000000000000D+00 -.280180550390158D+03
 0.288351874231943D+03 -.212479272298136D+03 -.649806388858635D+02 -.134728908504128D+03
 0.272009226548374D+03 0.212479272298136D+03 0.649806388858635D+02 0.134728908504128D+03
 0.000000000000000D+00 -.000000000000000D+00 -.000000000000000D+00 -.000000000000000D+00
 0.313801685402527D+03 0.000000000000000D+00 0.000000000000000D+00 0.313801685402527D+03
 0.342444261350893D+03 0.000000000000000D+00 0.000000000000000D+00 -.342444261350893D+03
 0.273952881512076D+03 -.201728078114500D+03 -.240641850534380D+02 -.134728908504128D+03
 0.292788073171913D+03 0.223278123600134D+03 0.106078464224556D+03 0.134728908504128D+03
 0.895049920694308D+02 -.215500454856343D+02 -.820142791711177D+02 -.286425759483664D+02
0.710214486046D-03 0.000000000000D+00 0.000000000000D+00 0.156934909040D-02 0.326645481866D-07  5 21 1 25 -24 2 2 0.32631264D+00 0.77944334D-02 0.85053874D+05 0.85053874D+05 0.85053874D+05 0.11700859D+01  1  2  1  3  5  1       -2 0.204765263736D-01 0.100000000000D+01
  </mgrwgt>
  </event>
  <event>
  5     66 0.46019439E-03 0.10436447E+03 0.75467711E-02 0.12027778E+00
       -2 -1    0    0    0  502 0.00000000E+00 0.00000000E+00 0.95337143E+02 0.95337680E+02 0.32000000E+00 0.0000E+00 0.9000E+01
        1 -1    0    0  501    0 0.00000000E+00 0.00000000E+00 -.31817821E+03 0.31817837E+03 0.32000000E+00 0.0000E+00 0.9000E+01
       25  1    1    2    0    0 0.91025715E+01 -.50116803E+02 -.14822765E+03 0.20047690E+03 0.12500000E+03 0.0000E+00 0.9000E+01
      -24  1    1    2    0    0 -.22459380E+02 -.23292973E+02 -.10172342E+03 0.13364826E+03 0.80419002E+02 0.0000E+00 0.9000E+01
       21  1    1    2  501  502 0.13356809E+02 0.73409776E+02 0.27110003E+02 0.79390896E+02 0.75000000E+00 0.0000E+00 0.9000E+01
#aMCatNLO 2  0  0  1  2 0.74615009D+02 0.00000000D+00  -5  5  0 0.00000000D+00 0.00000000D+00 0.00000000D+00 0.00000000D+00 0.00000000D+00
  <mgrwgt>
 0.3852609265D-01    2    2    0
 0.104399093110217D+03 0.000000000000000D+00 0.000000000000000D+00 0.104399093110217D+03
 0.104399093110217D+03 0.000000000000000D+00 0.000000000000000D+00 -.104399093110217D+03
 0.126328843103259D+03 0.172102722507177D+02 -.555642189517846D+01 0.262855560847971D+01
 0.824693431171757D+02 -.172102722507177D+02 0.555642189517846D+01 -.262855560847971D+01
 0.000000000000000D+00 0.000000000000000D+00 0.000000000000000D+00 0.000000000000000D+00
 0.251134363682245D+03 0.000000000000000D+00 0.000000000000000D+00 0.251134363682245D+03
 0.120787559648013D+03 0.000000000000000D+00 0.000000000000000D+00 -.120787559648013D+03
 0.135005407382352D+03 0.910257154964328D+01 -.501168026620974D+02 0.262855560847971D+01
 0.867243428080219D+02 -.224593804844990D+02 -.232929732919266D+02 -.262855560847971D+01
 0.150192173139884D+03 0.133568089348558D+02 0.734097759540240D+02 0.130346804034232D+03
-.203689168389D-04 0.000000000000D+00 0.000000000000D+00 0.318171402737D-02 0.000000000000D+00  5 -2 1 25 -24 21 2 0.14476799D-01 0.42308627D-01 0.21945359D+05 0.21945359D+05 0.21945359D+05 0.12294125D+01  1  2 13  1  5  1       -2 -.932694438685D-02 0.100000000000D+01
0.127934752597D-03 0.000000000000D+00 0.000000000000D+00 0.318171402737D-02 0.665137474533D-05  5 -2 1 25 -24 21 2 0.14667200D-01 0.48950194D-01 0.21945359D+05 0.21945359D+05 0.21945359D+05 0.12294125D+01  1  2  1  1  5  1       -2 0.478530370368D-01 0.100000000000D+01
  </mgrwgt>
  </event>
  <event>
  4     66 0.46019439E-03 0.21276917E+03 0.75467711E-02 0.10788872E+00
       -4 -1    0    0    0  501 0.00000000E+00 0.00000000E+00 0.96754651E+02 0.96767066E+02 0.15500000E+01 0.0000E+00 0.9000E+01
        3 -1    0    0  501    0 0.00000000E+00 0.00000000E+00 -.59709669E+03 0.59709690E+03 0.50000000E+00 0.0000E+00 0.9000E+01
       25  1    1    2    0    0 -.11723344E+03 -.14351555E+03 -.42132896E+03 0.47695229E+03 0.12500000E+03 0.0000E+00 0.9000E+01
      -24  1    1    2    0    0 0.11723344E+03 0.14351555E+03 -.79013076E+02 0.21691167E+03 0.80419002E+02 0.0000E+00 0.9000E+01
#aMCatNLO 1  0  0  1  2 0.16896553D+03 0.00000000D+00  -5  5  0 0.00000000D+00 0.00000000D+00 0.00000000D+00 0.00000000D+00 0.00000000D+00
  <mgrwgt>
 0.1992660937D-01    3    2    0
 0.240366930259566D+03 0.000000000000000D+00 0.000000000000000D+00 0.240366930259566D+03
 0.240366930259566D+03 0.000000000000000D+00 0.000000000000000D+00 -.240366930259566D+03
 0.249891726407419D+03 -.117233438084687D+03 -.143515550859410D+03 -.111716080235766D+03
 0.230842134111714D+03 0.117233438084687D+03 0.143515550859410D+03 0.111716080235766D+03
 0.000000000000000D+00 0.000000000000000D+00 -.000000000000000D+00 -.000000000000000D+00
 0.319489714481626D+03 0.000000000000000D+00 0.000000000000000D+00 0.319489714481626D+03
 0.365081765013565D+03 0.000000000000000D+00 0.000000000000000D+00 -.365081765013565D+03
 0.227195502062819D+03 -.138860110416739D+03 -.650398593893255D+02 -.111716080235766D+03
 0.282367444256988D+03 0.939693162916152D+02 0.227932978382451D+03 0.111716080235766D+03
 0.175008533175385D+03 0.448907941251237D+02 -.162893118993125D+03 -.455920505319393D+02
0.221545606175D-02 0.000000000000D+00 0.000000000000D+00 0.164260964307D-02 0.000000000000D+00  5 -4 3 25 -24 21 0 0.14886302D-01 0.91862000D-01 0.45270718D+05 0.45270718D+05 0.45270718D+05 0.11965792D+01  1  2  2  1  5  1       -4 0.195348233716D-01 0.100000000000D+01
-.120855029910D-03 0.000000000000D+00 -.850793462008D-05 0.164260964307D-02 0.000000000000D+00  5 -4 3 25 -24 21 2 0.14886302D-01 0.91862000D-01 0.45270718D+05 0.45270718D+05 0.45270718D+05 0.11965792D+01  1  2  3  1  5  1       -4 -.152578724614D-02 0.100000000000D+01
0.151887736530D-03 0.000000000000D+00 0.000000000000D+00 0.164260964307D-02 0.000000000000D+00  5 -4 3 25 -24 21 2 0.14886302D-01 0.91862000D-01 0.45270718D+05 0.45270718D+05 0.45270718D+05 0.11965792D+01  1  2 15  1  5  1       -4 0.191757323974D-02 0.100000000000D+01
  </mgrwgt>
  </event>
  <event>
  4     66 0.46019439E-03 0.16693206E+03 0.75467711E-02 0.11011918E+00
       -4 -1    0    0    0  501 0.00000000E+00 0.00000000E+00 0.10084287E+03 0.10085478E+03 0.15500000E+01 0.0000E+00 0.9000E+01
        3 -1    0    0  501    0 0.00000000E+00 0.00000000E+00 -.33313019E+03 0.33313056E+03 0.50000000E+00 0.0000E+00 0.9000E+01
       25  1    1    2    0    0 -.63264237E+01 0.13026234E+03 -.34694371E+02 0.18394837E+03 0.12500000E+03 0.0000E+00 0.9000E+01
      -24  1    1    2    0    0 0.63264237E+01 -.13026234E+03 -.19759295E+03 0.25003698E+03 0.80419002E+02 0.0000E+00 0.9000E+01
#aMCatNLO 1  0  0  2  1 0.16701425D+03 0.00000000D+00  -5  5  0 0.00000000D+00 0.00000000D+00 0.00000000D+00 0.00000000D+00 0.00000000D+00
  <mgrwgt>
 0.3590849282D-01    3    2    0
 0.183293398492827D+03 0.000000000000000D+00 0.000000000000000D+00 0.183293398492827D+03
 0.183293398492827D+03 0.000000000000000D+00 0.000000000000000D+00 -.183293398492827D+03
 0.195784006612011D+03 -.632642366701477D+01 0.130262343279664D+03 0.754855981756028D+02
 0.170802790373643D+03 0.632642366701477D+01 -.130262343279664D+03 -.754855981756028D+02
 0.000000000000000D+00 -.000000000000000D+00 0.000000000000000D+00 0.000000000000000D+00
 0.522775946009702D+03 0.000000000000000D+00 0.000000000000000D+00 0.522775946009702D+03
 0.223119768222769D+03 0.000000000000000D+00 0.000000000000000D+00 -.223119768222769D+03
 0.186836328843782D+03 0.685271960785853D+02 0.942802293246062D+02 0.754855981756028D+02
 0.216003143137283D+03 0.819988895015285D+02 -.166638076319317D+03 -.754855981756028D+02
 0.343056242251406D+03 -.150526085580114D+03 0.723578469947103D+02 0.299656177786933D+03
0.127991662457D-02 0.000000000000D+00 0.000000000000D+00 0.186568180306D-02 0.000000000000D+00  5 -4 3 25 -24 21 0 0.15515233D-01 0.51251743D-01 0.27866313D+05 0.27866313D+05 0.27866313D+05 0.12182757D+01  1  2  2  2  5  2        3 0.351828964200D-01 0.100000000000D+01
-.703506470397D-04 0.000000000000D+00 -.491521684813D-05 0.186568180306D-02 0.000000000000D+00  5 -4 3 25 -24 21 2 0.15515233D-01 0.51251743D-01 0.27866313D+05 0.27866313D+05 0.27866313D+05 0.12182757D+01  1  2  3  2  5  2        3 -.287018045129D-02 0.100000000000D+01
0.881356529812D-04 0.000000000000D+00 0.000000000000D+00 0.186568180306D-02 0.000000000000D+00  5 -4 3 25 -24 21 2 0.15515233D-01 0.51251743D-01 0.27866313D+05 0.27866313D+05 0.27866313D+05 0.12182757D+01  1  2 15  2  5  2        3 0.359577685341D-02 0.100000000000D+01
  </mgrwgt>
  </event>
  <event>
  5     66 0.46019439E-03 0.14438471E+03 0.75467711E-02 0.10753358E+00
       21 -1    0    0  502  501 0.00000000E+00 0.00000000E+00 0.67903626E+03 0.67903667E+03 0.75000000E+00 0.0000E+00 0.9000E+01
        1 -1    0    0  501    0 0.00000000E+00 0.00000000E+00 -.31922200E+03 0.31922216E+03 0.32000000E+00 0.0000E+00 0.9000E+01
       25  1    1    2    0    0 0.34355184E+01 0.17444927E+02 -.95617534E+02 0.15837879E+03 0.12500000E+03 0.0000E+00 0.9000E+01
      -24  1    1    2    0    0 -.17494354E+03 0.17297893E+03 -.58710629E+02 0.26540744E+03 0.80419002E+02 0.0000E+00 0.9000E+01
        2  1    1    2  502    0 0.17150802E+03 -.19042386E+03 0.51414242E+03 0.57447261E+03 0.32000000E+00 0.0000E+00 0.9000E+01
#aMCatNLO 2  0  0  1  1 0.25627378D+03 0.00000000D+00  -5  5  0 0.00000000D+00 0.00000000D+00 0.00000000D+00 0.00000000D+00 0.00000000D+00
  <mgrwgt>
 0.3120848108D-01    1    2    0
 0.150084423328389D+03 0.000000000000000D+00 0.000000000000000D+00 0.150084423328389D+03
 0.150084423328389D+03 0.000000000000000D+00 0.000000000000000D+00 -.150084423328389D+03
 0.165338811229777D+03 0.769911660136566D+02 -.642232670150790D+02 -.407388614058275D+02
 0.134830035427001D+03 -.769911660136566D+02 0.642232670150790D+02 0.407388614058275D+02
 0.000000000000000D+00 0.000000000000000D+00 -.000000000000000D+00 0.000000000000000D+00
 0.994613585499888D+03 0.000000000000000D+00 0.000000000000000D+00 0.994613585499888D+03
 0.217937445270685D+03 0.000000000000000D+00 0.000000000000000D+00 -.217937445270685D+03
 0.132667942938039D+03 0.343551837922037D+01 0.174449267190672D+02 -.407388614058275D+02
 0.262018749677461D+03 -.174943541230159D+03 0.172978934501799D+03 0.407388614058275D+02
 0.817864338155073D+03 0.171508022850939D+03 -.190423861220866D+03 0.776676140229204D+03
0.373474191738D-03 0.000000000000D+00 0.000000000000D+00 0.224646790747D-02 0.278859017337D-06  5 21 1 25 -24 2 2 0.10446715D+00 0.49111115D-01 0.10283703D+06 0.10283703D+06 0.10283703D+06 0.11624572D+01  1  2  1  3  5  1       -2 0.312084810833D-01 0.100000000000D+01
  </mgrwgt>
  </event>
  <event>
  4     66 0.46019439E-03 0.12956664E+03 0.75467711E-02 0.10892011E+00
       -2 -1    0    0    0  501 0.00000000E+00 0.00000000E+00 0.58952609E+02 0.58953478E+02 0.32000000E+00 0.0000E+00 0.9000E+01
        1 -1    0    0  501    0 0.00000000E+00 0.00000000E+00 -.41185221E+03 0.41185233E+03 0.32000000E+00 0.0000E+00 0.9000E+01
       25  1    1    2    0    0 -.75860383E+02 -.17286963E+02 -.32301200E+03 0.35498646E+03 0.12500000E+03 0.0000E+00 0.9000E+01
      -24  1    1    2    0    0 0.75860383E+02 0.17286963E+02 -.29887599E+02 0.11581935E+03 0.80419002E+02 0.0000E+00 0.9000E+01
#aMCatNLO 1  0  0  2  2 0.23452731D+03 0.00000000D+00  -5  5  0 0.00000000D+00 0.00000000D+00 0.00000000D+00 0.00000000D+00 0.00000000D+00
  <mgrwgt>
 0.1929196388D+00    5    2    0
 0.155820396789673D+03 0.000000000000000D+00 0.000000000000000D+00 0.155820396789673D+03
 0.155820396789673D+03 0.000000000000000D+00 0.000000000000000D+00 -.155820396789673D+03
 0.170513248679260D+03 -.758603828754601D+02 -.172869626793901D+02 -.860007628249034D+02
 0.141127544900086D+03 0.758603828754601D+02 0.172869626793901D+02 0.860007628249034D+02
 0.000000000000000D+00 0.000000000000000D+00 -.000000000000000D+00 -.000000000000000D+00
 0.266572374946803D+03 0.000000000000000D+00 0.000000000000000D+00 0.266572374946803D+03
 0.387178341362143D+03 0.000000000000000D+00 0.000000000000000D+00 -.387178341362143D+03
 0.205870018269001D+03 -.877981185144464D+02 0.107948245010916D+03 -.860007628249034D+02
 0.184159523145108D+03 0.655432636884419D+02 0.125520768756668D+03 0.860007628249034D+02
 0.263721174894837D+03 0.222548548260045D+02 -.233469013767584D+03 -.120605966415340D+03
0.456912009118D-03 0.000000000000D+00 0.000000000000D+00 0.170249898192D-02 0.000000000000D+00  5 -2 1 25 -24 21 0 0.90697086D-02 0.63361955D-01 0.16787515D+05 0.16787515D+05 0.16787515D+05 0.12422867D+01  1  2  2  2  5  2        1 0.174969465192D+00 0.100000000000D+01
-.243333091550D-04 0.000000000000D+00 -.175466242271D-05 0.170249898192D-02 0.000000000000D+00  5 -2 1 25 -24 21 2 0.90697086D-02 0.63361955D-01 0.16787515D+05 0.16787515D+05 0.16787515D+05 0.12422867D+01  1  2  3  2  5  2        1 -.143805175205D-01 0.100000000000D+01
0.315148069192D-04 0.000000000000D+00 0.000000000000D+00 0.170249898192D-02 0.000000000000D+00  5 -2 1 25 -24 21 2 0.90697086D-02 0.63361955D-01 0.16787515D+05 0.16787515D+05 0.16787515D+05 0.12422867D+01  1  2 15  2  5  2        1 0.186246445221D-01 0.100000000000D+01
0.142292735920D-03 0.000000000000D+00 -.190458427554D-03 0.170249898192D-02 0.000000000000D+00  5 -2 1 25 -24 21 2 0.90697086D-02 0.22759585D+00 0.16787515D+05 0.16787515D+05 0.16787515D+05 0.12422867D+01  1  2  5  2  5  2        1 0.113152671109D-01 0.100000000000D+01
0.267674211831D-04 0.000000000000D+00 -.286133501040D-04 0.170249898192D-02 0.000000000000D+00  5 -2 21 25 -24 -1 2 0.90697086D-02 0.22759585D+00 0.16787515D+05 0.16787515D+05 0.16787515D+05 0.12422867D+01  1  2  5  4  5  2        1 0.239077945818D-02 0.100000000000D+01
  </mgrwgt>
  </event>
  <event>
  4     66 0.46019439E-03 0.12211074E+03 0.75467711E-02 0.11108824E+00
       -4 -1    0    0    0  501 0.00000000E+00 0.00000000E+00 0.11746724E+03 0.11747746E+03 0.15500000E+01 0.0000E+00 0.9000E+01
        3 -1    0    0  501    0 0.00000000E+00 0.00000000E+00 -.12895542E+03 0.12895639E+03 0.50000000E+00 0.0000E+00 0.9000E+01
       25  1    1    2    0    0 0.59029004E+02 0.27055930E+02 0.86639425E+01 0.14112587E+03 0.12500000E+03 0.0000E+00 0.9000E+01
      -24  1    1    2    0    0 -.59029004E+02 -.27055930E+02 -.20152125E+02 0.10530798E+03 0.80419002E+02 0.0000E+00 0.9000E+01
#aMCatNLO 1  0  0  1  2 0.19527278D+03 0.00000000D+00  -5  5  0 0.00000000D+00 0.00000000D+00 0.00000000D+00 0.00000000D+00 0.00000000D+00
  <mgrwgt>
 0.3697852825D-01    5    2    0
 0.123082963326832D+03 0.000000000000000D+00 0.000000000000000D+00 0.123082963326832D+03
 0.123082963326832D+03 0.000000000000000D+00 0.000000000000000D+00 -.123082963326832D+03
 0.141683799295723D+03 0.590290043368702D+02 0.270559301842446D+02 0.152594977549623D+02
 0.104482127357942D+03 -.590290043368702D+02 -.270559301842446D+02 -.152594977549623D+02
 0.000000000000000D+00 -.000000000000000D+00 -.000000000000000D+00 0.000000000000000D+00
 0.402885286456157D+03 0.000000000000000D+00 0.000000000000000D+00 0.402885286456157D+03
 0.195892224655644D+03 0.000000000000000D+00 0.000000000000000D+00 -.195892224655644D+03
 0.216981203616300D+03 0.101614210068514D+03 0.144559824167008D+03 0.152594977549623D+02
 0.972307003397013D+02 -.350791285573175D+02 0.390281385938883D+02 -.152594977549623D+02
 0.284565607155800D+03 -.665350815111970D+02 -.183587962760897D+03 0.206993061800513D+03
0.295920763732D-03 0.000000000000D+00 0.000000000000D+00 0.269101449259D-02 0.000000000000D+00  5 -4 3 25 -24 21 0 0.18072744D-01 0.19840156D-01 0.14911032D+05 0.14911032D+05 0.14911032D+05 0.12481172D+01  1  2  2  1  5  1       -4 0.348223505513D-01 0.100000000000D+01
-.164387853444D-04 0.000000000000D+00 -.113641365046D-05 0.269101449259D-02 0.000000000000D+00  5 -4 3 25 -24 21 2 0.18072744D-01 0.19840156D-01 0.14911032D+05 0.14911032D+05 0.14911032D+05 0.12481172D+01  1  2  3  1  5  1       -4 -.301344370551D-02 0.100000000000D+01
0.204464395256D-04 0.000000000000D+00 0.000000000000D+00 0.269101449259D-02 0.000000000000D+00  5 -4 3 25 -24 21 2 0.18072744D-01 0.19840156D-01 0.14911032D+05 0.14911032D+05 0.14911032D+05 0.12481172D+01  1  2 15  1  5  1       -4 0.374809897433D-02 0.100000000000D+01
0.415872211194D-04 0.000000000000D+00 -.105561332387D-03 0.269101449259D-02 0.000000000000D+00  5 -4 3 25 -24 21 2 0.87833850D-01 0.19840156D-01 0.14911032D+05 0.14911032D+05 0.14911032D+05 0.12481172D+01  1  2  5  1  5  1       -4 0.334111050990D-03 0.100000000000D+01
0.556981553036D-05 0.000000000000D+00 -.203045546132D-04 0.269101449259D-02 0.000000000000D+00  5 21 3 25 -24 4 2 0.87833850D-01 0.19840156D-01 0.14911032D+05 0.14911032D+05 0.14911032D+05 0.12481172D+01  1  2  5  3  5  1       -4 0.108741138220D-02 0.100000000000D+01
  </mgrwgt>
  </event>
  <event>
  4     66 0.46019439E-03 0.12754515E+03 0.75467711E-02 0.10744671E+00
       -2 -1    0    0    0  501 0.00000000E+00 0.00000000E+00 0.37553692E+02 0.37555055E+02 0.32000000E+00 0.0000E+00 0.9000E+01
        1 -1    0    0  501    0 0.00000000E+00 0.00000000E+00 -.49028750E+03 0.49028761E+03 0.32000000E+00 0.0000E+00 0.9000E+01
       25  1    1    2    0    0 -.26392760E+02 -.69622454E+02 -.34379720E+03 0.37331672E+03 0.12500000E+03 0.0000E+00 0.9000E+01
      -24  1    1    2    0    0 0.26392760E+02 0.69622454E+02 -.10893661E+03 0.15452594E+03 0.80419002E+02 0.0000E+00 0.9000E+01
#aMCatNLO 1  0  0  2  2 0.27223717D+03 0.00000000D+00  -5  5  0 0.00000000D+00 0.00000000D+00 0.00000000D+00 0.00000000D+00 0.00000000D+00
  <mgrwgt>
 0.2212148027D+00    5    2    0
 0.135692642124791D+03 0.000000000000000D+00 0.000000000000000D+00 0.135692642124791D+03
 0.135692642124791D+03 0.000000000000000D+00 0.000000000000000D+00 -.135692642124791D+03
 0.152564935091876D+03 -.263927596550836D+02 -.696224535197947D+02 -.459042004969196D+02
 0.118820349157705D+03 0.263927596550836D+02 0.696224535197947D+02 0.459042004969196D+02
 0.000000000000000D+00 0.000000000000000D+00 -.000000000000000D+00 -.000000000000000D+00
 0.274899447457442D+03 0.000000000000000D+00 0.000000000000000D+00 0.274899447457442D+03
 0.416242693310134D+03 0.000000000000000D+00 0.000000000000000D+00 -.416242693310134D+03
 0.159947710958905D+03 -.718156336186768D+02 0.518998014030871D+02 -.459042004969196D+02
 0.224451884118403D+03 -.235009377179441D+02 0.203105742491556D+03 0.459042004969196D+02
 0.306742545690269D+03 0.953165713366209D+02 -.255005543894643D+03 -.141343245852693D+03
0.339199741494D-03 0.000000000000D+00 0.000000000000D+00 0.228758527585D-02 0.000000000000D+00  5 -2 1 25 -24 21 0 0.57776039D-02 0.75428959D-01 0.16267766D+05 0.16267766D+05 0.16267766D+05 0.12438254D+01  1  2  2  2  5  2        1 0.207270162272D+00 0.100000000000D+01
-.187565778205D-04 0.000000000000D+00 -.130261632068D-05 0.228758527585D-02 0.000000000000D+00  5 -2 1 25 -24 21 2 0.57776039D-02 0.75428959D-01 0.16267766D+05 0.16267766D+05 0.16267766D+05 0.12438254D+01  1  2  3  2  5  2        1 -.177318371025D-01 0.100000000000D+01
0.234058383827D-04 0.000000000000D+00 0.000000000000D+00 0.228758527585D-02 0.000000000000D+00  5 -2 1 25 -24 21 2 0.57776039D-02 0.75428959D-01 0.16267766D+05 0.16267766D+05 0.16267766D+05 0.12438254D+01  1  2 15  2  5  2        1 0.221270914887D-01 0.100000000000D+01
0.169121221769D-03 0.000000000000D+00 -.160677714091D-03 0.228758527585D-02 0.000000000000D+00  5 -2 1 25 -24 21 2 0.57776039D-02 0.34868474D+00 0.16267766D+05 0.16267766D+05 0.16267766D+05 0.12438254D+01  1  2  5  2  5  2        1 0.847896407599D-02 0.100000000000D+01
0.291836382422D-04 0.000000000000D+00 -.298143806210D-04 0.228758527585D-02 0.000000000000D+00  5 -2 21 25 -24 -1 2 0.57776039D-02 0.34868474D+00 0.16267766D+05 0.16267766D+05 0.16267766D+05 0.12438254D+01  1  2  5  4  5  2        1 0.107042198694D-02 0.100000000000D+01
  </mgrwgt>
  </event>
  <event>
  4     66 0.46019439E-03 0.11863493E+03 0.75467711E-02 0.11541824E+00
       -2 -1    0    0    0  501 0.00000000E+00 0.00000000E+00 0.40514781E+02 0.40516044E+02 0.32000000E+00 0.0000E+00 0.9000E+01
        1 -1    0    0  501    0 0.00000000E+00 0.00000000E+00 -.34867043E+03 0.34867057E+03 0.32000000E+00 0.0000E+00 0.9000E+01
       25  1    1    2    0    0 -.34096744E+01 -.58214554E+02 -.16736171E+03 0.21687670E+03 0.12500000E+03 0.0000E+00 0.9000E+01
      -24  1    1    2    0    0 0.34096744E+01 0.58214554E+02 -.14079394E+03 0.17230992E+03 0.80419002E+02 0.0000E+00 0.9000E+01
#aMCatNLO 1  0  0  2  2 0.12257484D+03 0.00000000D+00  -5  5  0 0.00000000D+00 0.00000000D+00 0.00000000D+00 0.00000000D+00 0.00000000D+00
  <mgrwgt>
 0.2185208016D+00    3    2    0
 0.118855291644297D+03 0.000000000000000D+00 0.000000000000000D+00 0.118855291644297D+03
 0.118855291644297D+03 0.000000000000000D+00 0.000000000000000D+00 -.118855291644297D+03
 0.138117757620646D+03 -.340967443075139D+01 -.582145537232428D+02 0.713826486168785D+01
 0.995928256679475D+02 0.340967443075139D+01 0.582145537232428D+02 -.713826486168785D+01
 0.000000000000000D+00 -.000000000000000D+00 -.000000000000000D+00 0.000000000000000D+00
 0.251120936459500D+03 0.000000000000000D+00 0.000000000000000D+00 0.251120936459500D+03
 0.165722228501848D+03 0.000000000000000D+00 0.000000000000000D+00 -.165722228501848D+03
 0.125512886594067D+03 0.735444769920168D+01 0.484169133455669D+01 0.713826486168785D+01
 0.141939749077957D+03 0.132715254332072D+02 0.115985293039173D+03 -.713826486168785D+01
 0.149390529289325D+03 -.206259731324088D+02 -.120826984373730D+03 0.853987079576519D+02
0.256633517832D-03 0.000000000000D+00 0.000000000000D+00 0.279674727609D-02 0.000000000000D+00  5 -2 1 25 -24 21 0 0.62331517D-02 0.53641713D-01 0.14074246D+05 0.14074246D+05 0.14074246D+05 0.12509889D+01  1  2  2  2  5  2        1 0.214039625340D+00 0.100000000000D+01
-.142573579571D-04 0.000000000000D+00 -.985540281633D-06 0.279674727609D-02 0.000000000000D+00  5 -2 1 25 -24 21 2 0.62331517D-02 0.53641713D-01 0.14074246D+05 0.14074246D+05 0.14074246D+05 0.12509889D+01  1  2  3  2  5  2        1 -.186091597086D-01 0.100000000000D+01
0.176905991346D-04 0.000000000000D+00 0.000000000000D+00 0.279674727609D-02 0.000000000000D+00  5 -2 1 25 -24 21 2 0.62331517D-02 0.53641713D-01 0.14074246D+05 0.14074246D+05 0.14074246D+05 0.12509889D+01  1  2 15  2  5  2        1 0.230903359254D-01 0.100000000000D+01
  </mgrwgt>
  </event>
  <event>
  4     66 0.46019439E-03 0.73356202E+02 0.75467711E-02 0.12222156E+00
       -2 -1    0    0    0  501 0.00000000E+00 0.00000000E+00 0.10519776E+03 0.10519824E+03 0.32000000E+00 0.0000E+00 0.9000E+01
        1 -1    0    0  501    0 0.00000000E+00 0.00000000E+00 -.24840455E+03 0.24840475E+03 0.32000000E+00 0.0000E+00 0.9000E+01
       25  1    1    2    0    0 0.76470325E+02 0.14742094E+02 -.18290217E+03 0.23482598E+03 0.12500000E+03 0.0000E+00 0.9000E+01
      -24  1    1    2    0    0 -.76470325E+02 -.14742094E+02 0.39695375E+02 0.11877701E+03 0.80419002E+02 0.0000E+00 0.9000E+01
#aMCatNLO 1  0  0  2  1 0.80946331D+01 0.00000000D+00  -5  5  0 0.00000000D+00 0.00000000D+00 0.00000000D+00 0.00000000D+00 0.00000000D+00
  <mgrwgt>
 0.2858134257D+00   11    2    0
 0.161653096330066D+03 0.000000000000000D+00 0.000000000000000D+00 0.161653096330066D+03
 0.161653096330066D+03 0.000000000000000D+00 0.000000000000000D+00 -.161653096330066D+03
 0.175815806871240D+03 0.764703252110870D+02 0.147420940816649D+02 -.960268606692065D+02
 0.147490385788891D+03 -.764703252110870D+02 -.147420940816649D+02 0.960268606692065D+02
 0.000000000000000D+00 -.000000000000000D+00 0.000000000000000D+00 -.000000000000000D+00
 0.165057276673318D+03 0.000000000000000D+00 0.000000000000000D+00 0.165057276673318D+03
 0.166588402045954D+03 0.000000000000000D+00 0.000000000000000D+00 -.166588402045954D+03
 0.177774265422991D+03 0.808942800726399D+02 0.146166661120142D+02 -.960268606692065D+02
 0.145633244225625D+03 -.728028984091273D+02 -.148460729675280D+02 0.960268606692065D+02
 0.823816907065604D+01 -.809138166351254D+01 0.229406855513792D+00 -.153112537263611D+01
0.424845302997D-03 0.000000000000D+00 0.000000000000D+00 0.156692590839D-02 0.000000000000D+00  5 -2 1 25 -24 21 0 0.16184323D-01 0.38216138D-01 0.16799134D+05 0.16799134D+05 0.16799134D+05 0.12422529D+01  1  2  2  2  5  2        1 0.120824461565D+00 0.100000000000D+01
-.222020401940D-04 0.000000000000D+00 -.163151782785D-05 0.156692590839D-02 0.000000000000D+00  5 -2 1 25 -24 21 2 0.16184323D-01 0.38216138D-01 0.16799134D+05 0.16799134D+05 0.16799134D+05 0.12422529D+01  1  2  3  2  5  2        1 -.974399290336D-02 0.100000000000D+01
0.290015703011D-04 0.000000000000D+00 0.000000000000D+00 0.156692590839D-02 0.000000000000D+00  5 -2 1 25 -24 21 2 0.16184323D-01 0.38216138D-01 0.16799134D+05 0.16799134D+05 0.16799134D+05 0.12422529D+01  1  2 15  2  5  2        1 0.127281588868D-01 0.100000000000D+01
0.105558700511D-02 0.000000000000D+00 0.000000000000D+00 0.156692590839D-02 0.000000000000D+00  5 -2 1 25 -24 21 2 0.16184323D-01 0.39774897D-01 0.17847858D+05 0.17847858D+05 0.17847858D+05 0.12393068D+01  1  2 12  2  5  2        1 0.439508290491D+00 0.100000000000D+01
-.919735391870D-03 0.000000000000D+00 0.000000000000D+00 0.156692590839D-02 0.000000000000D+00  5 -2 1 25 -24 21 2 0.16184323D-01 0.38216138D-01 0.16799134D+05 0.16799134D+05 0.16799134D+05 0.12422529D+01  1  2  4  2  5  2        1 -.403651874018D+00 0.100000000000D+01
-.867874177701D-02 0.000000000000D+00 -.141900562932D-02 0.156692590839D-02 0.000000000000D+00  5 -2 1 25 -24 21 2 0.16184323D-01 0.40136368D-01 0.16799134D+05 0.16799134D+05 0.16799134D+05 0.12422529D+01  1  2  5  2  5  2        1 -.358524157008D+01 0.100000000000D+01
0.873950745347D-02 0.000000000000D+00 0.141730208250D-02 0.156692590839D-02 0.000000000000D+00  5 -2 1 25 -24 21 2 0.16184323D-01 0.38216138D-01 0.16799134D+05 0.16799134D+05 0.16799134D+05 0.12422529D+01  1  2  6  2  5  2        1 0.383557987740D+01 0.100000000000D+01
0.734237708145D-05 0.000000000000D+00 0.000000000000D+00 0.156692590839D-02 0.196077410492D-03  5 -2 1 25 -24 21 2 0.16525142D-01 0.39382885D-01 0.17847858D+05 0.17847858D+05 0.17847858D+05 0.12393068D+01  1  2 11  2  5  2        1 0.299016252671D-02 0.100000000000D+01
0.151364831946D-04 0.000000000000D+00 0.000000000000D+00 0.156692590839D-02 0.000000000000D+00  5 -2 21 25 -24 -1 2 0.16184323D-01 0.39774897D-01 0.17847858D+05 0.17847858D+05 0.17847858D+05 0.12393068D+01  1  2 12  4  5  2        1 0.338620649305D-01 0.100000000000D+01
-.730239148441D-04 0.000000000000D+00 -.121361992567D-04 0.156692590839D-02 0.000000000000D+00  5 -2 21 25 -24 -1 2 0.16184323D-01 0.40136368D-01 0.16799134D+05 0.16799134D+05 0.16799134D+05 0.12422529D+01  1  2  5  4  5  2        1 -.161178969583D+00 0.100000000000D+01
0.620554840499D-07 0.000000000000D+00 0.000000000000D+00 0.156692590839D-02 0.105098723156D-05  5 -2 21 25 -24 -1 2 0.16525142D-01 0.39382885D-01 0.17847858D+05 0.17847858D+05 0.17847858D+05 0.12393068D+01  1  2 11  4  5  2        1 0.136816494958D-03 0.100000000000D+01
  </mgrwgt>
  </event>
  <event>
  4     66 0.46019439E-03 0.14851663E+03 0.75467711E-02 0.11073371E+00
       -4 -1    0    0    0  501 0.00000000E+00 0.00000000E+00 0.67971801E+02 0.67989472E+02 0.15500000E+01 0.0000E+00 0.9000E+01
        3 -1    0    0  501    0 0.00000000E+00 0.00000000E+00 -.32446916E+03 0.32446954E+03 0.50000000E+00 0.0000E+00 0.9000E+01
       25  1    1    2    0    0 -.10603155E+03 -.24547959E+01 -.14294262E+03 0.21750014E+03 0.12500000E+03 0.0000E+00 0.9000E+01
      -24  1    1    2    0    0 0.10603155E+03 0.24547959E+01 -.11355473E+03 0.17495888E+03 0.80419002E+02 0.0000E+00 0.9000E+01
#aMCatNLO 1  0  0  1  2 0.17473676D+03 0.00000000D+00  -5  5  0 0.00000000D+00 0.00000000D+00 0.00000000D+00 0.00000000D+00 0.00000000D+00
  <mgrwgt>
 0.2856310940D-01    5    2    0
 0.148520356094197D+03 0.000000000000000D+00 0.000000000000000D+00 0.148520356094197D+03
 0.148520356094197D+03 0.000000000000000D+00 0.000000000000000D+00 -.148520356094197D+03
 0.163935387889268D+03 -.106031551008215D+03 -.245479590813387D+01 -.104669491565070D+01
 0.133105324299125D+03 0.106031551008215D+03 0.245479590813387D+01 0.104669491565070D+01
 0.000000000000000D+00 -.000000000000000D+00 -.000000000000000D+00 0.000000000000000D+00
 0.294833744864395D+03 0.000000000000000D+00 0.000000000000000D+00 0.294833744864395D+03
 0.234613513701834D+03 0.000000000000000D+00 0.000000000000000D+00 -.234613513701834D+03
 0.170901202757950D+03 -.798463287540521D+02 0.848863317523339D+02 -.104669491565070D+01
 0.173723405411367D+03 0.130026474818369D+03 0.824901564394991D+02 0.104669491565070D+01
 0.184822650396912D+03 -.501801460643173D+02 -.167376488191833D+03 0.602202311625607D+02
0.451600011884D-03 0.000000000000D+00 0.000000000000D+00 0.242135734691D-02 0.000000000000D+00  5 -4 3 25 -24 21 0 0.10458589D-01 0.49919721D-01 0.22057189D+05 0.22057189D+05 0.22057189D+05 0.12291722D+01  1  2  2  1  5  1       -4 0.253869838719D-01 0.100000000000D+01
-.250888895299D-04 0.000000000000D+00 -.173426295465D-05 0.242135734691D-02 0.000000000000D+00  5 -4 3 25 -24 21 2 0.10458589D-01 0.49919721D-01 0.22057189D+05 0.22057189D+05 0.22057189D+05 0.12291722D+01  1  2  3  1  5  1       -4 -.213090497298D-02 0.100000000000D+01
0.311541435952D-04 0.000000000000D+00 0.000000000000D+00 0.242135734691D-02 0.000000000000D+00  5 -4 3 25 -24 21 2 0.10458589D-01 0.49919721D-01 0.22057189D+05 0.22057189D+05 0.22057189D+05 0.12291722D+01  1  2 15  1  5  1       -4 0.264605252603D-02 0.100000000000D+01
0.206738227140D-04 0.000000000000D+00 -.128289578361D-03 0.242135734691D-02 0.000000000000D+00  5 -4 3 25 -24 21 2 0.32186463D-01 0.49919721D-01 0.22057189D+05 0.22057189D+05 0.22057189D+05 0.12291722D+01  1  2  5  1  5  1       -4 0.234446479999D-03 0.100000000000D+01
0.874780046051D-05 0.000000000000D+00 -.164878843288D-04 0.242135734691D-02 0.000000000000D+00  5 21 3 25 -24 4 2 0.32186463D-01 0.49919721D-01 0.22057189D+05 0.22057189D+05 0.22057189D+05 0.12291722D+01  1  2  5  3  5  1       -4 0.242653149839D-02 0.100000000000D+01
  </mgrwgt>
  </event>
  <event>
  4     66 0.46019439E-03 0.19971040E+03 0.75467711E-02 0.90422013E-01
       -2 -1    0    0    0  501 0.00000000E+00 0.00000000E+00 0.45166042E+02 0.45167176E+02 0.32000000E+00 0.0000E+00 0.9000E+01
        1 -1    0    0  501    0 0.00000000E+00 0.00000000E+00 -.95098501E+03 0.95098506E+03 0.32000000E+00 0.0000E+00 0.9000E+01
       25  1    1    2    0    0 -.15752985E+03 -.64450751E+02 -.60997409E+03 0.64549435E+03 0.12500000E+03 0.0000E+00 0.9000E+01
      -24  1    1    2    0    0 0.15752985E+03 0.64450751E+02 -.29584487E+03 0.35065789E+03 0.80419002E+02 0.0000E+00 0.9000E+01
#aMCatNLO 1  0  0  1  2 0.12545256D+04 0.00000000D+00  -5  5  0 0.00000000D+00 0.00000000D+00 0.00000000D+00 0.00000000D+00 0.00000000D+00
  <mgrwgt>
 0.3079137974D+00    5    2    0
 0.207250621723561D+03 0.000000000000000D+00 0.000000000000000D+00 0.207250621723561D+03
 0.207250621723561D+03 0.000000000000000D+00 0.000000000000000D+00 -.207250621723561D+03
 0.218297372716960D+03 -.157529851629531D+03 -.644507511449671D+02 -.553099399525519D+02
 0.196203870730162D+03 0.157529851629531D+03 0.644507511449671D+02 0.553099399525519D+02
 0.000000000000000D+00 -.000000000000000D+00 0.000000000000000D+00 0.000000000000000D+00
 0.375799736069576D+04 0.000000000000000D+00 0.000000000000000D+00 0.375799736069576D+04
 0.787643807481481D+03 0.000000000000000D+00 0.000000000000000D+00 -.787643807481481D+03
 0.260413206353121D+03 0.183154539439936D+03 -.124840951887203D+03 -.553099399525519D+02
 0.106081566270550D+04 0.105211408067006D+04 -.941245243556369D+02 0.553099399525519D+02
 0.322441229911862D+04 -.123526862011000D+04 0.218965476242840D+03 0.297035355321428D+04
0.167211782483D-02 0.000000000000D+00 0.000000000000D+00 0.199797657480D-02 0.000000000000D+00  5 -2 1 25 -24 21 0 0.69487132D-02 0.14630548D+00 0.39884242D+05 0.39884242D+05 0.39884242D+05 0.12021281D+01  1  2  2  1  5  1       -2 0.301021402795D+00 0.100000000000D+01
-.927403037793D-04 0.000000000000D+00 -.642137272610D-05 0.199797657480D-02 0.000000000000D+00  5 -2 1 25 -24 21 2 0.69487132D-02 0.14630548D+00 0.39884242D+05 0.39884242D+05 0.39884242D+05 0.12021281D+01  1  2  3  1  5  1       -2 -.241268435725D-01 0.100000000000D+01
0.114976853638D-03 0.000000000000D+00 0.000000000000D+00 0.199797657480D-02 0.000000000000D+00  5 -2 1 25 -24 21 2 0.69487132D-02 0.14630548D+00 0.39884242D+05 0.39884242D+05 0.39884242D+05 0.12021281D+01  1  2 15  1  5  1       -2 0.299117907656D-01 0.100000000000D+01
0.151966944024D-01 0.000000000000D+00 -.561073098401D-02 0.199797657480D-02 0.000000000000D+00  5 -2 1 25 -24 21 2 0.40502949D+00 0.14630548D+00 0.39884242D+05 0.39884242D+05 0.39884242D+05 0.12021281D+01  1  2  5  1  5  1       -2 0.304756056736D-03 0.100000000000D+01
0.355115198716D-02 0.000000000000D+00 -.199760169114D-02 0.199797657480D-02 0.000000000000D+00  5 21 1 25 -24 2 2 0.40502949D+00 0.14630548D+00 0.39884242D+05 0.39884242D+05 0.39884242D+05 0.12021281D+01  1  2  5  3  5  1       -2 0.802691387833D-03 0.100000000000D+01
  </mgrwgt>
  </event>
  <event>
  5     66 0.46019439E-03 0.11034067E+03 0.75467711E-02 0.11977068E+00
       21 -1    0    0  502  501 0.00000000E+00 0.00000000E+00 0.57255083E+02 0.57259995E+02 0.75000000E+00 0.0000E+00 0.9000E+01
        3 -1    0    0  501    0 0.00000000E+00 0.00000000E+00 -.49599053E+03 0.49599078E+03 0.50000000E+00 0.0000E+00 0.9000E+01
       25  1    1    2    0    0 0.34253338E+02 -.73091829E+02 -.12246342E+03 0.19271221E+03 0.12500000E+03 0.0000E+00 0.9000E+01
      -24  1    1    2    0    0 0.10508520E+02 0.15107394E+02 -.24422203E+03 0.25777952E+03 0.80419002E+02 0.0000E+00 0.9000E+01
        4  1    1    2  502    0 -.44761858E+02 0.57984434E+02 -.72049996E+02 0.10275905E+03 0.15500000E+01 0.0000E+00 0.9000E+01
#aMCatNLO 2  0  0  1  2 0.73251748D+02 0.00000000D+00  -5  5  0 0.00000000D+00 0.00000000D+00 0.00000000D+00 0.00000000D+00 0.00000000D+00
  <mgrwgt>
 0.9150466988D-02    2    2    0
 0.125617232128556D+03 0.000000000000000D+00 0.000000000000000D+00 0.125617232128556D+03
 0.125617232128556D+03 0.000000000000000D+00 0.000000000000000D+00 -.125617232128556D+03
 0.143842804946976D+03 0.772508403937612D+01 -.387271742265886D+02 0.592138631404985D+02
 0.107391659310135D+03 -.772508403937612D+01 0.387271742265886D+02 -.592138631404985D+02
 0.000000000000000D+00 -.000000000000000D+00 0.000000000000000D+00 0.000000000000000D+00
 0.178785714456592D+03 0.000000000000000D+00 0.000000000000000D+00 0.178785714456592D+03
 0.158830947349759D+03 0.000000000000000D+00 0.000000000000000D+00 -.158830947349759D+03
 0.160146770567728D+03 0.342533376299082D+02 -.730918285204468D+02 0.592138631404985D+02
 0.101548805539366D+03 0.105085202790164D+02 0.151073944022511D+02 -.592138631404985D+02
 0.759210856992579D+02 -.447618579089246D+02 0.579844341181957D+02 0.199547671068328D+02
-.126177273215D-05 0.000000000000D+00 0.000000000000D+00 0.216260750044D-02 0.000000000000D+00  5 21 3 25 -24 4 2 0.93442243D-02 0.60347004D-01 0.23187223D+05 0.23187223D+05 0.23187223D+05 0.12268182D+01  1  2 13  3  5  1       -4 -.230578650764D-02 0.100000000000D+01
0.927482868699D-05 0.000000000000D+00 0.000000000000D+00 0.216260750044D-02 0.216180104312D-06  5 21 3 25 -24 4 2 0.88084523D-02 0.76303001D-01 0.23187223D+05 0.23187223D+05 0.23187223D+05 0.12268182D+01  1  2  1  3  5  1       -4 0.114562534958D-01 0.100000000000D+01
  </mgrwgt>
  </event>
  <event>
  4     66 0.46019439E-03 0.14004000E+03 0.75467711E-02 0.11379979E+00
       -2 -1    0    0    0  501 0.00000000E+00 0.00000000E+00 0.73032296E+03 0.73032303E+03 0.32000000E+00 0.0000E+00 0.9000E+01
        1 -1    0    0  501    0 0.00000000E+00 0.00000000E+00 -.27407125E+02 0.27408993E+02 0.32000000E+00 0.0000E+00 0.9000E+01
       25  1    1    2    0    0 0.90402704E+02 -.25684996E+02 0.33808775E+03 0.37250597E+03 0.12500000E+03 0.0000E+00 0.9000E+01
      -24  1    1    2    0    0 -.90402704E+02 0.25684996E+02 0.36482808E+03 0.38522606E+03 0.80419002E+02 0.0000E+00 0.9000E+01
#aMCatNLO 1  0  0  2  2 0.12331885D+03 0.00000000D+00  -5  5  0 0.00000000D+00 0.00000000D+00 0.00000000D+00 0.00000000D+00 0.00000000D+00
  <mgrwgt>
 0.2323859487D+00    3    2    0
 0.141480695038321D+03 0.000000000000000D+00 0.000000000000000D+00 0.141480695038321D+03
 0.141480695038321D+03 0.000000000000000D+00 0.000000000000000D+00 -.141480695038321D+03
 0.157662733236446D+03 0.904027040422644D+02 -.256849963905879D+02 -.200042373973344D+02
 0.125298656840196D+03 -.904027040422644D+02 0.256849963905879D+02 0.200042373973344D+02
 0.000000000000000D+00 -.000000000000000D+00 -.000000000000000D+00 0.000000000000000D+00
 0.249377300097619D+03 0.000000000000000D+00 0.000000000000000D+00 0.249377300097619D+03
 0.194334167576977D+03 0.000000000000000D+00 0.000000000000000D+00 -.194334167576977D+03
 0.198866312629157D+03 0.152643446880552D+03 0.149204192063385D+02 -.200042373973344D+02
 0.109799665532182D+03 -.493606223544574D+02 0.524605570265904D+02 0.200042373973344D+02
 0.135045489513258D+03 -.103282824526094D+03 -.673809762329289D+02 0.550431325206421D+02
0.194965132318D-02 0.000000000000D+00 0.000000000000D+00 0.244091681312D-02 0.000000000000D+00  5 -2 1 25 -24 21 0 0.11235753D+00 0.42166299D-02 0.19611202D+05 0.19611202D+05 0.19611202D+05 0.12347658D+01  1  2  2  2  5  2        1 0.227723876774D+00 0.100000000000D+01
-.108300166305D-03 0.000000000000D+00 -.748717443599D-05 0.244091681312D-02 0.000000000000D+00  5 -2 1 25 -24 21 2 0.11235753D+00 0.42166299D-02 0.19611202D+05 0.19611202D+05 0.19611202D+05 0.12347658D+01  1  2  3  2  5  2        1 -.192863437354D-01 0.100000000000D+01
0.134479475855D-03 0.000000000000D+00 0.000000000000D+00 0.244091681312D-02 0.000000000000D+00  5 -2 1 25 -24 21 2 0.11235753D+00 0.42166299D-02 0.19611202D+05 0.19611202D+05 0.19611202D+05 0.12347658D+01  1  2 15  2  5  2        1 0.239484156414D-01 0.100000000000D+01
  </mgrwgt>
  </event>
  <event>
  4     66 0.46019439E-03 0.45706619E+02 0.75467711E-02 0.12411446E+00
       -2 -1    0    0    0  501 0.00000000E+00 0.00000000E+00 0.17958079E+02 0.17960929E+02 0.32000000E+00 0.0000E+00 0.9000E+01
        1 -1    0    0  501    0 0.00000000E+00 0.00000000E+00 -.10020710E+04 0.10020710E+04 0.32000000E+00 0.0000E+00 0.9000E+01
       25  1    1    2    0    0 -.31419170E+02 -.29123881E+01 -.25418647E+03 0.28501124E+03 0.12500000E+03 0.0000E+00 0.9000E+01
      -24  1    1    2    0    0 0.31419170E+02 0.29123881E+01 -.72992641E+03 0.73502070E+03 0.80419002E+02 0.0000E+00 0.9000E+01
#aMCatNLO 1  0  0  2  1 0.25343833D+02 0.00000000D+00  -5  5  0 0.00000000D+00 0.00000000D+00 0.00000000D+00 0.00000000D+00 0.00000000D+00
  <mgrwgt>
 0.2034951966D+00    9    2    0
 0.134151962838030D+03 0.000000000000000D+00 0.000000000000000D+00 0.134151962838030D+03
 0.134151962838030D+03 0.000000000000000D+00 0.000000000000000D+00 -.134151962838030D+03
 0.151218027045913D+03 -.314191703743340D+02 -.291238809716729D+01 0.790331919652655D+02
 0.117085898630147D+03 0.314191703743340D+02 0.291238809716729D+01 -.790331919652655D+02
 0.000000000000000D+00 -.000000000000000D+00 0.000000000000000D+00 -.000000000000000D+00
 0.136586673097530D+03 0.000000000000000D+00 0.000000000000000D+00 0.136586673097530D+03
 0.222135921384413D+03 0.000000000000000D+00 0.000000000000000D+00 -.222135921384413D+03
 0.150512134577005D+03 -.237050477597972D+02 -.148569153397903D+02 0.790331919652655D+02
 0.118986114790060D+03 0.374546573392067D+02 -.643294410413406D+01 -.790331919652655D+02
 0.892243451148782D+02 -.137496095794095D+02 0.212898594439243D+02 -.855492482868824D+02
0.299410446648D-03 0.000000000000D+00 0.000000000000D+00 0.177223387862D-02 0.000000000000D+00  5 -2 1 25 -24 21 0 0.27630046D-02 0.15416499D+00 0.11589485D+05 0.11589485D+05 0.11589485D+05 0.12607997D+01  1  2  2  2  5  2        1 0.192728138414D+00 0.100000000000D+01
-.156546387666D-04 0.000000000000D+00 -.114981495171D-05 0.177223387862D-02 0.000000000000D+00  5 -2 1 25 -24 21 2 0.27630046D-02 0.15416499D+00 0.11589485D+05 0.11589485D+05 0.11589485D+05 0.12607997D+01  1  2  3  2  5  2        1 -.160181888014D-01 0.100000000000D+01
0.205003558863D-04 0.000000000000D+00 0.000000000000D+00 0.177223387862D-02 0.000000000000D+00  5 -2 1 25 -24 21 2 0.27630046D-02 0.15416499D+00 0.11589485D+05 0.11589485D+05 0.11589485D+05 0.12607997D+01  1  2 15  2  5  2        1 0.209764387399D-01 0.100000000000D+01
0.176190760624D-02 0.000000000000D+00 0.000000000000D+00 0.177223387862D-02 0.000000000000D+00  5 -2 1 25 -24 21 2 0.27630046D-02 0.25587970D+00 0.14687324D+05 0.14687324D+05 0.14687324D+05 0.12488668D+01  1  2 12  2  5  2        1 0.643579134684D+00 0.100000000000D+01
-.163516197192D-02 0.000000000000D+00 0.000000000000D+00 0.177223387862D-02 0.000000000000D+00  5 -2 1 25 -24 21 2 0.27630046D-02 0.15416499D+00 0.11589485D+05 0.11589485D+05 0.11589485D+05 0.12607997D+01  1  2  4  2  5  2        1 -.167313558476D+01 0.100000000000D+01
-.181135748090D-02 0.000000000000D+00 -.119199592902D-03 0.177223387862D-02 0.000000000000D+00  5 -2 1 25 -24 21 2 0.27630046D-02 0.25668075D+00 0.11589485D+05 0.11589485D+05 0.11589485D+05 0.12607997D+01  1  2  5  2  5  2        1 -.668332252129D+00 0.100000000000D+01
0.166500085082D-02 0.000000000000D+00 0.105226362419D-03 0.177223387862D-02 0.000000000000D+00  5 -2 1 25 -24 21 2 0.27630046D-02 0.15416499D+00 0.11589485D+05 0.11589485D+05 0.11589485D+05 0.12607997D+01  1  2  6  2  5  2        1 0.170366741645D+01 0.100000000000D+01
0.100395228543D-03 0.000000000000D+00 0.000000000000D+00 0.177223387862D-02 0.000000000000D+00  5 -2 21 25 -24 -1 2 0.27630046D-02 0.25587970D+00 0.14687324D+05 0.14687324D+05 0.14687324D+05 0.12488668D+01  1  2 12  4  5  2        1 0.373493542300D-01 0.100000000000D+01
-.982270446629D-04 0.000000000000D+00 -.682556152849D-05 0.177223387862D-02 0.000000000000D+00  5 -2 21 25 -24 -1 2 0.27630046D-02 0.25668075D+00 0.11589485D+05 0.11589485D+05 0.11589485D+05 0.12607997D+01  1  2  5  4  5  2        1 -.373192601769D-01 0.100000000000D+01
  </mgrwgt>
  </event>
  <event>
  4     66 0.46019439E-03 0.54893444E+02 0.75467711E-02 0.12122912E+00
       -4 -1    0    0    0  501 0.00000000E+00 0.00000000E+00 0.14678810E+03 0.14679628E+03 0.15500000E+01 0.0000E+00 0.9000E+01
        3 -1    0    0  501    0 0.00000000E+00 0.00000000E+00 -.10904505E+03 0.10904620E+03 0.50000000E+00 0.0000E+00 0.9000E+01
       25  1    1    2    0    0 -.53436480E+02 0.49160183E+02 0.17419047E+02 0.14560427E+03 0.12500000E+03 0.0000E+00 0.9000E+01
      -24  1    1    2    0    0 0.53436480E+02 -.49160183E+02 0.20324005E+02 0.11023821E+03 0.80419002E+02 0.0000E+00 0.9000E+01
#aMCatNLO 1  0  0  1  2 0.27186895D+02 0.00000000D+00  -5  5  0 0.00000000D+00 0.00000000D+00 0.00000000D+00 0.00000000D+00 0.00000000D+00
  <mgrwgt>
 0.4898803648D-01    6    2    0
 0.126521575338709D+03 0.000000000000000D+00 0.000000000000000D+00 0.126521575338709D+03
 0.126521575338709D+03 0.000000000000000D+00 0.000000000000000D+00 -.126521575338709D+03
 0.144616876517803D+03 -.534364803306106D+02 0.491601829226691D+02 -.410608799849121D+01
 0.108426274159615D+03 0.534364803306106D+02 -.491601829226691D+02 0.410608799849121D+01
 0.000000000000000D+00 0.000000000000000D+00 -.000000000000000D+00 -.000000000000000D+00
 0.139922110602151D+03 0.000000000000000D+00 0.000000000000000D+00 0.139922110602151D+03
 0.141831165522756D+03 0.000000000000000D+00 0.000000000000000D+00 -.141831165522756D+03
 0.152969640909963D+03 -.618765956574194D+02 0.626828364970826D+02 -.410608799849121D+01
 0.101529795961899D+03 0.474817298912892D+02 -.396195517588676D+02 0.410608799849121D+01
 0.272538392530443D+02 0.143948657661302D+02 -.230632847382150D+02 -.190905492060524D+01
0.313494185333D-03 0.000000000000D+00 0.000000000000D+00 0.266919079783D-02 0.000000000000D+00  5 -4 3 25 -24 21 0 0.22583502D-01 0.16776879D-01 0.15990497D+05 0.15990497D+05 0.15990497D+05 0.12446690D+01  1  2  2  1  5  1       -4 0.333140990424D-01 0.100000000000D+01
-.174163375023D-04 0.000000000000D+00 -.120390021659D-05 0.266919079783D-02 0.000000000000D+00  5 -4 3 25 -24 21 2 0.22583502D-01 0.16776879D-01 0.15990497D+05 0.15990497D+05 0.15990497D+05 0.12446690D+01  1  2  3  1  5  1       -4 -.286723425111D-02 0.100000000000D+01
0.216894158810D-04 0.000000000000D+00 0.000000000000D+00 0.266919079783D-02 0.000000000000D+00  5 -4 3 25 -24 21 2 0.22583502D-01 0.16776879D-01 0.15990497D+05 0.15990497D+05 0.15990497D+05 0.12446690D+01  1  2 15  1  5  1       -4 0.357070687751D-02 0.100000000000D+01
0.217060927004D-03 0.000000000000D+00 0.000000000000D+00 0.266919079783D-02 0.000000000000D+00  5 -4 3 25 -24 21 2 0.26196766D-01 0.16776879D-01 0.19817340D+05 0.19817340D+05 0.19817340D+05 0.12342650D+01  1  2 12  1  5  1       -4 0.272767097244D-01 0.100000000000D+01
-.167767700009D-03 0.000000000000D+00 0.000000000000D+00 0.266919079783D-02 0.000000000000D+00  5 -4 3 25 -24 21 2 0.22583502D-01 0.16776879D-01 0.15990497D+05 0.15990497D+05 0.15990497D+05 0.12446690D+01  1  2  4  1  5  1       -4 -.276194289202D-01 0.100000000000D+01
0.490896772486D-05 0.000000000000D+00 0.000000000000D+00 0.266919079783D-02 0.000000000000D+00  5 21 3 25 -24 4 2 0.26196766D-01 0.16776879D-01 0.19817340D+05 0.19817340D+05 0.19817340D+05 0.12342650D+01  1  2 12  3  5  1       -4 0.153131840043D-01 0.100000000000D+01
  </mgrwgt>
  </event>
  <event>
  4     66 0.46019439E-03 0.10641187E+03 0.75467711E-02 0.11560378E+00
       -4 -1    0    0    0  501 0.00000000E+00 0.00000000E+00 0.77456834E+02 0.77472341E+02 0.15500000E+01 0.0000E+00 0.9000E+01
        3 -1    0    0  501    0 0.00000000E+00 0.00000000E+00 -.16764987E+03 0.16765062E+03 0.50000000E+00 0.0000E+00 0.9000E+01
       25  1    1    2    0    0 0.27177746E+02 -.12814337E+01 -.96128761E+02 0.16001878E+03 0.12500000E+03 0.0000E+00 0.9000E+01
      -24  1    1    2    0    0 -.27177746E+02 0.12814337E+01 0.59357237E+01 0.85104176E+02 0.80419002E+02 0.0000E+00 0.9000E+01
#aMCatNLO 1  0  0  1  2 0.13369141D+03 0.00000000D+00  -5  5  0 0.00000000D+00 0.00000000D+00 0.00000000D+00 0.00000000D+00 0.00000000D+00
  <mgrwgt>
 0.3774091476D-01    5    2    0
 0.113963240113029D+03 0.000000000000000D+00 0.000000000000000D+00 0.113963240113029D+03
 0.113963240113029D+03 0.000000000000000D+00 0.000000000000000D+00 -.113963240113029D+03
 0.134052577772582D+03 0.271777456651534D+02 -.128143374039140D+01 -.400602256059965D+02
 0.938739024534756D+02 -.271777456651534D+02 0.128143374039140D+01 0.400602256059965D+02
 0.000000000000000D+00 0.000000000000000D+00 0.000000000000000D+00 0.000000000000000D+00
 0.319457011782487D+03 0.000000000000000D+00 0.000000000000000D+00 0.319457011782487D+03
 0.155973095500772D+03 0.000000000000000D+00 0.000000000000000D+00 -.155973095500772D+03
 0.141436072797004D+03 -.399821545911740D+02 -.342894783699532D+02 -.400602256059965D+02
 0.122806002502516D+03 -.800009773093884D+02 -.246803616305944D+02 0.400602256059965D+02
 0.211188031983739D+03 0.119983131900562D+03 0.589698400005476D+02 0.163483916281715D+03
0.266000645647D-03 0.000000000000D+00 0.000000000000D+00 0.260531109147D-02 0.000000000000D+00  5 -4 3 25 -24 21 0 0.11917686D-01 0.25793538D-01 0.11323487D+05 0.11323487D+05 0.11323487D+05 0.12619884D+01  1  2  2  1  5  1       -4 0.393385471580D-01 0.100000000000D+01
-.146933601226D-04 0.000000000000D+00 -.102151251886D-05 0.260531109147D-02 0.000000000000D+00  5 -4 3 25 -24 21 2 0.11917686D-01 0.25793538D-01 0.11323487D+05 0.11323487D+05 0.11323487D+05 0.12619884D+01  1  2  3  1  5  1       -4 -.346072812577D-02 0.100000000000D+01
0.182151577580D-04 0.000000000000D+00 0.000000000000D+00 0.260531109147D-02 0.000000000000D+00  5 -4 3 25 -24 21 2 0.11917686D-01 0.25793538D-01 0.11323487D+05 0.11323487D+05 0.11323487D+05 0.12619884D+01  1  2 15  1  5  1       -4 0.429021736637D-02 0.100000000000D+01
-.328958248121D-04 0.000000000000D+00 -.816293949363D-04 0.260531109147D-02 0.000000000000D+00  5 -4 3 25 -24 21 2 0.44292176D-01 0.25793538D-01 0.11323487D+05 0.11323487D+05 0.11323487D+05 0.12619884D+01  1  2  5  1  5  1       -4 -.704180118810D-03 0.100000000000D+01
-.319981857430D-05 0.000000000000D+00 -.126573018109D-04 0.260531109147D-02 0.000000000000D+00  5 21 3 25 -24 4 2 0.44292176D-01 0.25793538D-01 0.11323487D+05 0.11323487D+05 0.11323487D+05 0.12619884D+01  1  2  5  3  5  1       -4 -.172294151560D-02 0.100000000000D+01
  </mgrwgt>
  </event>
  <event>
  4     66 0.46019439E-03 0.32455069E+02 0.75467711E-02 0.12220460E+00
       -4 -1    0    0    0  501 0.00000000E+00 0.00000000E+00 0.39231622E+03 0.39231928E+03 0.15500000E+01 0.0000E+00 0.9000E+01
        3 -1    0    0  501    0 0.00000000E+00 0.00000000E+00 -.40093483E+02 0.40096601E+02 0.50000000E+00 0.0000E+00 0.9000E+01
       25  1    1    2    0    0 0.66672705E+02 0.20824972E+02 0.18143130E+03 0.23113036E+03 0.12500000E+03 0.0000E+00 0.9000E+01
      -24  1    1    2    0    0 -.66672705E+02 -.20824972E+02 0.17079144E+03 0.20128552E+03 0.80419002E+02 0.0000E+00 0.9000E+01
#aMCatNLO 1  0  0  1  2 0.17141633D+02 0.00000000D+00  -5  5  0 0.00000000D+00 0.00000000D+00 0.00000000D+00 0.00000000D+00 0.00000000D+00
  <mgrwgt>
 0.4942802638D-01    9    2    0
 0.125421927755971D+03 0.000000000000000D+00 0.000000000000000D+00 0.125421927755971D+03
 0.125421927755971D+03 0.000000000000000D+00 0.000000000000000D+00 -.125421927755971D+03
 0.143675881050819D+03 0.666727048843408D+02 0.208249716767551D+02 -.117826047119084D+02
 0.107167974461122D+03 -.666727048843408D+02 -.208249716767551D+02 0.117826047119084D+02
 0.000000000000000D+00 -.000000000000000D+00 0.000000000000000D+00 0.000000000000000D+00
 0.167942277883975D+03 0.000000000000000D+00 0.000000000000000D+00 0.167942277883975D+03
 0.127454018133063D+03 0.000000000000000D+00 0.000000000000000D+00 -.127454018133063D+03
 0.147587351521574D+03 0.757445809284757D+02 0.167617127801807D+02 -.117826047119084D+02
 0.103841516026677D+03 -.601004646295892D+02 -.237686531772106D+02 0.117826047119084D+02
 0.439674284687865D+02 -.156441162988865D+02 0.700694039702990D+01 0.404882597509110D+02
0.494114169061D-03 0.000000000000D+00 0.000000000000D+00 0.266807971202D-02 0.000000000000D+00  5 -4 3 25 -24 21 0 0.60356817D-01 0.61687036D-02 0.15588798D+05 0.15588798D+05 0.15588798D+05 0.12459208D+01  1  2  2  1  5  1       -4 0.404405798884D-01 0.100000000000D+01
-.274501023978D-04 0.000000000000D+00 -.189752851244D-05 0.266807971202D-02 0.000000000000D+00  5 -4 3 25 -24 21 2 0.60356817D-01 0.61687036D-02 0.15588798D+05 0.15588798D+05 0.15588798D+05 0.12459208D+01  1  2  3  1  5  1       -4 -.348750541695D-02 0.100000000000D+01
0.341072238606D-04 0.000000000000D+00 0.000000000000D+00 0.266807971202D-02 0.000000000000D+00  5 -4 3 25 -24 21 2 0.60356817D-01 0.61687036D-02 0.15588798D+05 0.15588798D+05 0.15588798D+05 0.12459208D+01  1  2 15  1  5  1       -4 0.433328540081D-02 0.100000000000D+01
0.210475375553D-02 0.000000000000D+00 0.000000000000D+00 0.266807971202D-02 0.000000000000D+00  5 -4 3 25 -24 21 2 0.81187478D-01 0.61687036D-02 0.17879538D+05 0.17879538D+05 0.17879538D+05 0.12392209D+01  1  2 12  1  5  1       -4 0.141342733183D+00 0.100000000000D+01
-.206285859816D-02 0.000000000000D+00 0.000000000000D+00 0.266807971202D-02 0.000000000000D+00  5 -4 3 25 -24 21 2 0.60356817D-01 0.61687036D-02 0.15588798D+05 0.15588798D+05 0.15588798D+05 0.12459208D+01  1  2  4  1  5  1       -4 -.262083923449D+00 0.100000000000D+01
-.242413497151D-02 0.000000000000D+00 -.213285691132D-03 0.266807971202D-02 0.000000000000D+00  5 -4 3 25 -24 21 2 0.81478036D-01 0.61687036D-02 0.15588798D+05 0.15588798D+05 0.15588798D+05 0.12459208D+01  1  2  5  1  5  1       -4 -.161326420421D+00 0.100000000000D+01
0.238902918631D-02 0.000000000000D+00 0.204031503125D-03 0.266807971202D-02 0.000000000000D+00  5 -4 3 25 -24 21 2 0.60356817D-01 0.61687036D-02 0.15588798D+05 0.15588798D+05 0.15588798D+05 0.12459208D+01  1  2  6  1  5  1       -4 0.303523539103D+00 0.100000000000D+01
0.806700273407D-04 0.000000000000D+00 0.000000000000D+00 0.266807971202D-02 0.000000000000D+00  5 21 3 25 -24 4 2 0.81187478D-01 0.61687036D-02 0.17879538D+05 0.17879538D+05 0.17879538D+05 0.12392209D+01  1  2 12  3  5  1       -4 0.130391755324D+00 0.100000000000D+01
-.889353349829D-04 0.000000000000D+00 -.824579635013D-05 0.266807971202D-02 0.000000000000D+00  5 21 3 25 -24 4 2 0.81478036D-01 0.61687036D-02 0.15588798D+05 0.15588798D+05 0.15588798D+05 0.12459208D+01  1  2  5  3  5  1       -4 -.143706017231D+00 0.100000000000D+01
  </mgrwgt>
  </event>
  <event>
  4     66 0.46019439E-03 0.11162859E+03 0.75467711E-02 0.12453446E+00
       -2 -1    0    0    0  501 0.00000000E+00 0.00000000E+00 0.24416770E+02 0.24418866E+02 0.32000000E+00 0.0000E+00 0.9000E+01
        1 -1    0    0  501    0 0.00000000E+00 0.00000000E+00 -.55959982E+03 0.55959991E+03 0.32000000E+00 0.0000E+00 0.9000E+01
       25  1    1    2    0    0 0.31713658E+02 0.28804801E+02 -.39773731E+03 0.41911268E+03 0.12500000E+03 0.0000E+00 0.9000E+01
      -24  1    1    2    0    0 -.31713658E+02 -.28804801E+02 -.13744574E+03 0.16490609E+03 0.80419002E+02 0.0000E+00 0.9000E+01
#aMCatNLO 1  0  0  1  1 0.13552482D+02 0.00000000D+00  -5  5  0 0.00000000D+00 0.00000000D+00 0.00000000D+00 0.00000000D+00 0.00000000D+00
  <mgrwgt>
 0.1878353740D+00    4    2    0
 0.116894220437308D+03 0.000000000000000D+00 0.000000000000000D+00 0.116894220437308D+03
 0.116894220437308D+03 0.000000000000000D+00 0.000000000000000D+00 -.116894220437308D+03
 0.136479842402555D+03 0.317136581814314D+02 0.288048013818799D+02 -.341507640372517D+02
 0.973085984720611D+02 -.317136581814314D+02 -.288048013818799D+02 0.341507640372517D+02
 0.000000000000000D+00 0.000000000000000D+00 0.000000000000000D+00 -.000000000000000D+00
 0.119519780296806D+03 0.000000000000000D+00 0.000000000000000D+00 0.119519780296806D+03
 0.135991829383503D+03 0.000000000000000D+00 0.000000000000000D+00 -.135991829383503D+03
 0.134418808548301D+03 0.243178535377446D+02 0.261874665925055D+02 -.341507640372517D+02
 0.997621148090034D+02 -.370938861423421D+02 -.307088346135955D+02 0.341507640372517D+02
 0.213306863230050D+02 0.127760326045975D+02 0.452136802108996D+01 -.164720490866971D+02
0.254258756526D-03 0.000000000000D+00 0.000000000000D+00 0.263735829621D-02 0.000000000000D+00  5 -2 1 25 -24 21 0 0.37565944D-02 0.86092448D-01 0.12460941D+05 0.12460941D+05 0.12460941D+05 0.12571101D+01  1  2  2  1  5  1       -2 0.246087638977D+00 0.100000000000D+01
-.140889992399D-04 0.000000000000D+00 -.976420572926D-06 0.263735829621D-02 0.000000000000D+00  5 -2 1 25 -24 21 2 0.37565944D-02 0.86092448D-01 0.12460941D+05 0.12460941D+05 0.12460941D+05 0.12571101D+01  1  2  3  1  5  1       -2 -.215496724694D-01 0.100000000000D+01
0.175268454388D-04 0.000000000000D+00 0.000000000000D+00 0.263735829621D-02 0.000000000000D+00  5 -2 1 25 -24 21 2 0.37565944D-02 0.86092448D-01 0.12460941D+05 0.12460941D+05 0.12460941D+05 0.12571101D+01  1  2 15  1  5  1       -2 0.268079919799D-01 0.100000000000D+01
-.415226996275D-04 0.000000000000D+00 0.000000000000D+00 0.263735829621D-02 0.000000000000D+00  5 -2 1 25 -24 21 2 0.37565944D-02 0.86092448D-01 0.12460941D+05 0.12460941D+05 0.12460941D+05 0.12571101D+01  1  2  4  1  5  1       -2 -.635105845195D-01 0.100000000000D+01
  </mgrwgt>
  </event>
  <event>
  4     66 0.46019439E-03 0.10310597E+03 0.75467711E-02 0.11449241E+00
       -2 -1    0    0    0  501 0.00000000E+00 0.00000000E+00 0.20047905E+02 0.20050458E+02 0.32000000E+00 0.0000E+00 0.9000E+01
        1 -1    0    0  501    0 0.00000000E+00 0.00000000E+00 -.54427962E+03 0.54427971E+03 0.32000000E+00 0.0000E+00 0.9000E+01
       25  1    1    2    0    0 0.34506913E+01 0.81165092E+01 -.27281905E+03 0.30022162E+03 0.12500000E+03 0.0000E+00 0.9000E+01
      -24  1    1    2    0    0 -.34506913E+01 -.81165092E+01 -.25141266E+03 0.26410855E+03 0.80419002E+02 0.0000E+00 0.9000E+01
#aMCatNLO 1  0  0  1  1 0.15419602D+03 0.00000000D+00  -5  5  0 0.00000000D+00 0.00000000D+00 0.00000000D+00 0.00000000D+00 0.00000000D+00
  <mgrwgt>
 0.2517399701D+00    3    2    0
 0.104462495576737D+03 0.000000000000000D+00 0.000000000000000D+00 0.104462495576737D+03
 0.104462495576737D+03 0.000000000000000D+00 0.000000000000000D+00 -.104462495576737D+03
 0.126378935527432D+03 0.345069134229016D+01 0.811650915190042D+01 0.163966567779606D+02
 0.825460556260408D+02 -.345069134229016D+01 -.811650915190042D+01 -.163966567779606D+02
 0.000000000000000D+00 -.000000000000000D+00 -.000000000000000D+00 -.000000000000000D+00
 0.187812266225089D+03 0.000000000000000D+00 0.000000000000000D+00 0.187812266225089D+03
 0.232353205249761D+03 0.000000000000000D+00 0.000000000000000D+00 -.232353205249761D+03
 0.163526279572406D+03 0.518250625305400D+02 0.903391202691504D+02 0.163966567779606D+02
 0.961390129289360D+02 0.263651842676038D+02 0.425619613930167D+02 -.163966567779606D+02
 0.160500178973508D+03 -.781902467981437D+02 -.132901081662167D+03 -.445409390246713D+02
0.185141904909D-03 0.000000000000D+00 0.000000000000D+00 0.311679990507D-02 0.000000000000D+00  5 -2 1 25 -24 21 0 0.30844967D-02 0.83735530D-01 0.10630840D+05 0.10630840D+05 0.10630840D+05 0.12652375D+01  1  2  2  1  5  1       -2 0.246661133652D+00 0.100000000000D+01
-.102835247933D-04 0.000000000000D+00 -.710993663832D-06 0.311679990507D-02 0.000000000000D+00  5 -2 1 25 -24 21 2 0.30844967D-02 0.83735530D-01 0.10630840D+05 0.10630840D+05 0.10630840D+05 0.12652375D+01  1  2  3  1  5  1       -2 -.219321960928D-01 0.100000000000D+01
0.126648795757D-04 0.000000000000D+00 0.000000000000D+00 0.311679990507D-02 0.000000000000D+00  5 -2 1 25 -24 21 2 0.30844967D-02 0.83735530D-01 0.10630840D+05 0.10630840D+05 0.10630840D+05 0.12652375D+01  1  2 15  1  5  1       -2 0.270110324941D-01 0.100000000000D+01
  </mgrwgt>
  </event>
  <event>
  4     66 0.46019439E-03 0.11238982E+03 0.75467711E-02 0.11449459E+00
       -2 -1    0    0    0  501 0.00000000E+00 0.00000000E+00 0.48488735E+03 0.48488746E+03 0.32000000E+00 0.0000E+00 0.9000E+01
        1 -1    0    0  501    0 0.00000000E+00 0.00000000E+00 -.61355268E+02 0.61356102E+02 0.32000000E+00 0.0000E+00 0.9000E+01
       25  1    1    2    0    0 -.12957724E+03 0.45508723E+02 0.22108430E+03 0.28872923E+03 0.12500000E+03 0.0000E+00 0.9000E+01
      -24  1    1    2    0    0 0.12957724E+03 -.45508723E+02 0.20244779E+03 0.25751432E+03 0.80419002E+02 0.0000E+00 0.9000E+01
#aMCatNLO 1  0  0  2  1 0.61312163D+02 0.00000000D+00  -5  5  0 0.00000000D+00 0.00000000D+00 0.00000000D+00 0.00000000D+00 0.00000000D+00
  <mgrwgt>
 0.2276990160D+00    9    2    0
 0.172483767807341D+03 0.000000000000000D+00 0.000000000000000D+00 0.172483767807341D+03
 0.172483767807341D+03 0.000000000000000D+00 0.000000000000000D+00 -.172483767807341D+03
 0.185757167620619D+03 -.129577240003800D+03 0.455087226432726D+02 -.440685361795102D+01
 0.159210367994064D+03 0.129577240003800D+03 -.455087226432726D+02 0.440685361795102D+01
 0.000000000000000D+00 -.000000000000000D+00 -.000000000000000D+00 -.000000000000000D+00
 0.200014381004450D+03 0.000000000000000D+00 0.000000000000000D+00 0.200014381004450D+03
 0.213039896440947D+03 0.000000000000000D+00 0.000000000000000D+00 -.213039896440947D+03
 0.172741999271082D+03 -.102179401304747D+03 0.612759977671825D+02 -.440685361795102D+01
 0.177631775432029D+03 0.155319968481099D+03 -.306939525148634D+02 0.440685361795102D+01
 0.626805027422857D+02 -.531405671763521D+02 -.305820452523190D+02 -.130255154364964D+02
0.152395828059D-02 0.000000000000D+00 0.000000000000D+00 0.226676895182D-02 0.000000000000D+00  5 -2 1 25 -24 21 0 0.74598126D-01 0.94393443D-02 0.29731114D+05 0.29731114D+05 0.29731114D+05 0.12153090D+01  1  2  2  2  5  2        1 0.151808696698D+00 0.100000000000D+01
-.846643378173D-04 0.000000000000D+00 -.585240106489D-05 0.226676895182D-02 0.000000000000D+00  5 -2 1 25 -24 21 2 0.74598126D-01 0.94393443D-02 0.29731114D+05 0.29731114D+05 0.29731114D+05 0.12153090D+01  1  2  3  2  5  2        1 -.124565423833D-01 0.100000000000D+01
0.104779841493D-03 0.000000000000D+00 0.000000000000D+00 0.226676895182D-02 0.000000000000D+00  5 -2 1 25 -24 21 2 0.74598126D-01 0.94393443D-02 0.29731114D+05 0.29731114D+05 0.29731114D+05 0.12153090D+01  1  2 15  2  5  2        1 0.154161075386D-01 0.100000000000D+01
0.104540011559D-02 0.000000000000D+00 0.000000000000D+00 0.226676895182D-02 0.000000000000D+00  5 -2 1 25 -24 21 2 0.74598126D-01 0.12264283D-01 0.42348504D+05 0.42348504D+05 0.42348504D+05 0.11994922D+01  1  2 12  2  5  2        1 0.106288682071D+00 0.100000000000D+01
-.108819180078D-02 0.000000000000D+00 0.000000000000D+00 0.226676895182D-02 0.000000000000D+00  5 -2 1 25 -24 21 2 0.74598126D-01 0.94393443D-02 0.29731114D+05 0.29731114D+05 0.29731114D+05 0.12153090D+01  1  2  4  2  5  2        1 -.160104096212D+00 0.100000000000D+01
-.223131473516D-02 0.000000000000D+00 -.888381870175D-03 0.226676895182D-02 0.000000000000D+00  5 -2 1 25 -24 21 2 0.74598126D-01 0.13487286D-01 0.29731114D+05 0.29731114D+05 0.29731114D+05 0.12153090D+01  1  2  5  2  5  2        1 -.204555706168D+00 0.100000000000D+01
0.244473039103D-02 0.000000000000D+00 0.834668074775D-03 0.226676895182D-02 0.000000000000D+00  5 -2 1 25 -24 21 2 0.74598126D-01 0.94393443D-02 0.29731114D+05 0.29731114D+05 0.29731114D+05 0.12153090D+01  1  2  6  2  5  2        1 0.359689670016D+00 0.100000000000D+01
0.366004549253D-04 0.000000000000D+00 0.000000000000D+00 0.226676895182D-02 0.000000000000D+00  5 -2 21 25 -24 -1 2 0.74598126D-01 0.12264283D-01 0.42348504D+05 0.42348504D+05 0.42348504D+05 0.11994922D+01  1  2 12  4  5  2        1 0.402952737983D-01 0.100000000000D+01
-.719090404447D-04 0.000000000000D+00 -.389186253472D-04 0.226676895182D-02 0.000000000000D+00  5 -2 21 25 -24 -1 2 0.74598126D-01 0.13487286D-01 0.29731114D+05 0.29731114D+05 0.29731114D+05 0.12153090D+01  1  2  5  4  5  2        1 -.686830693725D-01 0.100000000000D+01
  </mgrwgt>
  </event>
  <event>
  4     66 0.46019439E-03 0.13442722E+03 0.75467711E-02 0.11723538E+00
       -2 -1    0    0    0  501 0.00000000E+00 0.00000000E+00 0.99225786E+02 0.99226302E+02 0.32000000E+00 0.0000E+00 0.9000E+01
        1 -1    0    0  501    0 0.00000000E+00 0.00000000E+00 -.19530076E+03 0.19530103E+03 0.32000000E+00 0.0000E+00 0.9000E+01
       25  1    1    2    0    0 -.60815814E+02 0.60133738E+02 -.91688762E+02 0.17704931E+03 0.12500000E+03 0.0000E+00 0.9000E+01
      -24  1    1    2    0    0 0.60815814E+02 -.60133738E+02 -.43862174E+01 0.11747802E+03 0.80419002E+02 0.0000E+00 0.9000E+01
#aMCatNLO 1  0  0  1  1 0.72270486D+02 0.00000000D+00  -5  5  0 0.00000000D+00 0.00000000D+00 0.00000000D+00 0.00000000D+00 0.00000000D+00
  <mgrwgt>
 0.2594048209D+00    3    2    0
 0.139208427843974D+03 0.000000000000000D+00 0.000000000000000D+00 0.139208427843974D+03
 0.139208427843974D+03 0.000000000000000D+00 0.000000000000000D+00 -.139208427843974D+03
 0.155654601734921D+03 -.608158139085583D+02 0.601337375805703D+02 -.358988220487468D+02
 0.122762253953027D+03 0.608158139085583D+02 -.601337375805703D+02 0.358988220487468D+02
 0.000000000000000D+00 -.000000000000000D+00 -.000000000000000D+00 -.000000000000000D+00
 0.152949474387874D+03 0.000000000000000D+00 0.000000000000000D+00 0.152949474387874D+03
 0.286878254577320D+03 0.000000000000000D+00 0.000000000000000D+00 -.286878254577320D+03
 0.154616695663361D+03 -.262082546214569D+02 0.794085923755464D+02 -.358988220487468D+02
 0.133027126987523D+03 0.893464780084598D+02 -.442434402276794D+02 0.358988220487468D+02
 0.152183906314310D+03 -.631382233870029D+02 -.351651521478671D+02 -.133928780189446D+03
0.601487015104D-03 0.000000000000D+00 0.000000000000D+00 0.235907648071D-02 0.000000000000D+00  5 -2 1 25 -24 21 0 0.15265565D-01 0.30046331D-01 0.18070679D+05 0.18070679D+05 0.18070679D+05 0.12387059D+01  1  2  2  1  5  1       -2 0.254122342935D+00 0.100000000000D+01
-.333663188824D-04 0.000000000000D+00 -.230986851317D-05 0.235907648071D-02 0.000000000000D+00  5 -2 1 25 -24 21 2 0.15265565D-01 0.30046331D-01 0.18070679D+05 0.18070679D+05 0.18070679D+05 0.12387059D+01  1  2  3  1  5  1       -2 -.216302368105D-01 0.100000000000D+01
0.415149510437D-04 0.000000000000D+00 0.000000000000D+00 0.235907648071D-02 0.000000000000D+00  5 -2 1 25 -24 21 2 0.15265565D-01 0.30046331D-01 0.18070679D+05 0.18070679D+05 0.18070679D+05 0.12387059D+01  1  2 15  1  5  1       -2 0.269127147473D-01 0.100000000000D+01
  </mgrwgt>
  </event>
  <event>
  4     66 0.46019439E-03 0.57240215E+02 0.75467711E-02 0.12102497E+00
       -4 -1    0    0    0  501 0.00000000E+00 0.00000000E+00 0.36806818E+03 0.36807144E+03 0.15500000E+01 0.0000E+00 0.9000E+01
        3 -1    0    0  501    0 0.00000000E+00 0.00000000E+00 -.39139224E+02 0.39142418E+02 0.50000000E+00 0.0000E+00 0.9000E+01
       25  1    1    2    0    0 0.31102546E+02 0.51558793E+02 0.20749848E+03 0.24961230E+03 0.12500000E+03 0.0000E+00 0.9000E+01
      -24  1    1    2    0    0 -.31102546E+02 -.51558793E+02 0.12143047E+03 0.15760156E+03 0.80419002E+02 0.0000E+00 0.9000E+01
#aMCatNLO 1  0  0  2  1 0.41779104D+02 0.00000000D+00  -5  5  0 0.00000000D+00 0.00000000D+00 0.00000000D+00 0.00000000D+00 0.00000000D+00
  <mgrwgt>
 0.4958824558D-01    9    2    0
 0.120030069219453D+03 0.000000000000000D+00 0.000000000000000D+00 0.120030069219453D+03
 0.120030069219453D+03 0.000000000000000D+00 0.000000000000000D+00 -.120030069219453D+03
 0.139104006494467D+03 0.311025463859614D+02 0.515587930631608D+02 0.996228332220791D+01
 0.100956131944440D+03 -.311025463859614D+02 -.515587930631608D+02 -.996228332220791D+01
 0.000000000000000D+00 0.000000000000000D+00 0.000000000000000D+00 -.000000000000000D+00
 0.133476721342562D+03 0.000000000000000D+00 0.000000000000000D+00 0.133476721342562D+03
 0.159315524830390D+03 0.000000000000000D+00 0.000000000000000D+00 -.159315524830390D+03
 0.131366074810482D+03 0.267226989325348D+02 0.286128622105921D+02 0.996228332220791D+01
 0.112302477867551D+03 -.345559419504536D+02 -.696510614976264D+02 -.996228332220791D+01
 0.491236934949189D+02 0.783324301791885D+01 0.410381992870344D+02 -.258388034878284D+02
0.386173832468D-03 0.000000000000D+00 0.000000000000D+00 0.276611793097D-02 0.000000000000D+00  5 -4 3 25 -24 21 0 0.56626370D-01 0.60219158D-02 0.14305381D+05 0.14305381D+05 0.14305381D+05 0.12501769D+01  1  2  2  2  5  2        3 0.372105586217D-01 0.100000000000D+01
-.214537736618D-04 0.000000000000D+00 -.148300919858D-05 0.276611793097D-02 0.000000000000D+00  5 -4 3 25 -24 21 2 0.56626370D-01 0.60219158D-02 0.14305381D+05 0.14305381D+05 0.14305381D+05 0.12501769D+01  1  2  3  2  5  2        3 -.323094799808D-02 0.100000000000D+01
0.266764967235D-04 0.000000000000D+00 0.000000000000D+00 0.276611793097D-02 0.000000000000D+00  5 -4 3 25 -24 21 2 0.56626370D-01 0.60219158D-02 0.14305381D+05 0.14305381D+05 0.14305381D+05 0.12501769D+01  1  2 15  2  5  2        3 0.401749244880D-02 0.100000000000D+01
0.367217885094D-03 0.000000000000D+00 0.000000000000D+00 0.276611793097D-02 0.000000000000D+00  5 -4 3 25 -24 21 2 0.56626370D-01 0.82447369D-02 0.20253077D+05 0.20253077D+05 0.20253077D+05 0.12332253D+01  1  2 12  2  5  2        3 0.334792057443D-01 0.100000000000D+01
-.410320197041D-03 0.000000000000D+00 0.000000000000D+00 0.276611793097D-02 0.000000000000D+00  5 -4 3 25 -24 21 2 0.56626370D-01 0.60219158D-02 0.14305381D+05 0.14305381D+05 0.14305381D+05 0.12501769D+01  1  2  4  2  5  2        3 -.617944069002D-01 0.100000000000D+01
-.632895429461D-03 0.000000000000D+00 -.213533221198D-03 0.276611793097D-02 0.000000000000D+00  5 -4 3 25 -24 21 2 0.56626370D-01 0.88678785D-02 0.14305381D+05 0.14305381D+05 0.14305381D+05 0.12501769D+01  1  2  5  2  5  2        3 -.510617296036D-01 0.100000000000D+01
0.679091762679D-03 0.000000000000D+00 0.198481245966D-03 0.276611793097D-02 0.000000000000D+00  5 -4 3 25 -24 21 2 0.56626370D-01 0.60219158D-02 0.14305381D+05 0.14305381D+05 0.14305381D+05 0.12501769D+01  1  2  6  2  5  2        3 0.102271526014D+00 0.100000000000D+01
0.146755894236D-04 0.000000000000D+00 0.000000000000D+00 0.276611793097D-02 0.000000000000D+00  5 -4 21 25 -24 -3 2 0.56626370D-01 0.82447369D-02 0.20253077D+05 0.20253077D+05 0.20253077D+05 0.12332253D+01  1  2 12  4  5  2        3 0.312230289024D-01 0.100000000000D+01
-.224412120096D-04 0.000000000000D+00 -.992193694960D-05 0.276611793097D-02 0.000000000000D+00  5 -4 21 25 -24 -3 2 0.56626370D-01 0.88678785D-02 0.14305381D+05 0.14305381D+05 0.14305381D+05 0.12501769D+01  1  2  5  4  5  2        3 -.425264816465D-01 0.100000000000D+01
  </mgrwgt>
  </event>
  <event>
  5     66 0.46019439E-03 0.14724167E+03 0.75467711E-02 0.11558394E+00
       21 -1    0    0  502  501 0.00000000E+00 0.00000000E+00 0.16951684E+03 0.16951850E+03 0.75000000E+00 0.0000E+00 0.9000E+01
        1 -1    0    0  501    0 0.00000000E+00 0.00000000E+00 -.81690544E+03 0.81690550E+03 0.32000000E+00 0.0000E+00 0.9000E+01
       25  1    1    2    0    0 0.88073203E+02 0.11376373E+02 -.15059469E+03 0.21491875E+03 0.12500000E+03 0.0000E+00 0.9000E+01
      -24  1    1    2    0    0 -.11179307E+03 0.65203350E+02 -.61226089E+03 0.63093564E+03 0.80419002E+02 0.0000E+00 0.9000E+01
        2  1    1    2  502    0 0.23719864E+02 -.76579723E+02 0.11546699E+03 0.14056961E+03 0.32000000E+00 0.0000E+00 0.9000E+01
#aMCatNLO 2  0  0  1  2 0.80169109D+02 0.00000000D+00  -5  5  0 0.00000000D+00 0.00000000D+00 0.00000000D+00 0.00000000D+00 0.00000000D+00
  <mgrwgt>
 0.1580012326D+00    2    2    0
 0.178251182685911D+03 0.000000000000000D+00 0.000000000000000D+00 0.178251182685911D+03
 0.178251182685911D+03 0.000000000000000D+00 0.000000000000000D+00 -.178251182685911D+03
 0.191095114360920D+03 0.100368411020158D+03 -.283187782562984D+02 0.100082823701034D+03
 0.165407251010902D+03 -.100368411020158D+03 0.283187782562984D+02 -.100082823701034D+03
 0.000000000000000D+00 0.000000000000000D+00 -.000000000000000D+00 0.000000000000000D+00
 0.746307645097676D+03 0.000000000000000D+00 0.000000000000000D+00 0.746307645097676D+03
 0.185553524869397D+03 0.000000000000000D+00 0.000000000000000D+00 -.185553524869397D+03
 0.183106205867363D+03 0.880732034086561D+02 0.113763732580414D+02 0.100082823701034D+03
 0.182299079385149D+03 -.111793067452275D+03 0.652033500668581D+02 -.100082823701034D+03
 0.566455884714561D+03 0.237198640436188D+02 -.765797233248995D+02 0.560754120228278D+03
-.364486701986D-03 0.000000000000D+00 0.000000000000D+00 0.157783329906D-02 0.000000000000D+00  5 21 1 25 -24 2 2 0.25651095D-01 0.12073189D+00 0.37224363D+05 0.37224363D+05 0.37224363D+05 0.12051849D+01  1  2 13  3  5  1       -2 -.202413181803D+00 0.100000000000D+01
0.712309886953D-03 0.000000000000D+00 0.000000000000D+00 0.157783329906D-02 0.690704709421D-06  5 21 1 25 -24 2 2 0.26079641D-01 0.12567786D+00 0.37224363D+05 0.37224363D+05 0.37224363D+05 0.12051849D+01  1  2  1  3  5  1       -2 0.360414414450D+00 0.100000000000D+01
  </mgrwgt>
  </event>
  <event>
  5     66 0.46019439E-03 0.10818797E+03 0.75467711E-02 0.12279471E+00
       -2 -1    0    0    0  502 0.00000000E+00 0.00000000E+00 0.28224447E+02 0.28226261E+02 0.32000000E+00 0.0000E+00 0.9000E+01
        1 -1    0    0  501    0 0.00000000E+00 0.00000000E+00 -.73631329E+03 0.73631336E+03 0.32000000E+00 0.0000E+00 0.9000E+01
       25  1    1    2    0    0 -.70385415E+00 -.16812421E+02 -.29425347E+03 0.32014569E+03 0.12500000E+03 0.0000E+00 0.9000E+01
      -24  1    1    2    0    0 0.37621346E+02 0.30442472E+02 -.14522508E+03 0.17291515E+03 0.80419002E+02 0.0000E+00 0.9000E+01
       21  1    1    2  501  502 -.36917492E+02 -.13630051E+02 -.26861029E+03 0.27147879E+03 0.75000000E+00 0.0000E+00 0.9000E+01
#aMCatNLO 2  0  0  1  2 0.39353265D+02 0.00000000D+00  -5  5  0 0.00000000D+00 0.00000000D+00 0.00000000D+00 0.00000000D+00 0.00000000D+00
  <mgrwgt>
 0.1386186521D-01    1    2    0
 0.110021486640688D+03 0.000000000000000D+00 0.000000000000000D+00 0.110021486640688D+03
 0.110021486640688D+03 0.000000000000000D+00 0.000000000000000D+00 -.110021486640688D+03
 0.130830567496724D+03 -.222159968822233D+02 -.247547701557461D+02 -.196287602405286D+02
 0.892124057846523D+02 0.222159968822233D+02 0.247547701557461D+02 0.196287602405286D+02
 0.000000000000000D+00 -.000000000000000D+00 -.000000000000000D+00 -.000000000000000D+00
 0.117748632594248D+03 0.000000000000000D+00 0.000000000000000D+00 0.117748632594248D+03
 0.176495312165844D+03 0.000000000000000D+00 0.000000000000000D+00 -.176495312165844D+03
 0.127645764328055D+03 -.703854149223385D+00 -.168124213499958D+02 -.196287602405286D+02
 0.958885498021073D+02 0.376213461785619D+02 0.304424721715127D+02 0.196287602405286D+02
 0.707096306299305D+02 -.369174920293385D+02 -.136300508215168D+02 -.587466795715962D+02
0.166678397879D-04 0.000000000000D+00 0.000000000000D+00 0.293063422367D-02 0.172924623713D-04  5 -2 1 25 -24 21 2 0.43422971D-02 0.11327728D+00 0.16814153D+05 0.16814153D+05 0.16814153D+05 0.12422092D+01  1  2  1  1  5  1       -2 0.138618652120D-01 0.100000000000D+01
  </mgrwgt>
  </event>
  <event>
  4     66 -.46019439E-03 0.97812754E+02 0.75467711E-02 0.12573389E+00
       -2 -1    0    0    0  501 0.00000000E+00 0.00000000E+00 0.59380836E+01 0.59466997E+01 0.32000000E+00 0.0000E+00 0.9000E+01
        1 -1    0    0  501    0 0.00000000E+00 0.00000000E+00 -.23448407E+04 0.23448407E+04 0.32000000E+00 0.0000E+00 0.9000E+01
       25  1    1    2    0    0 -.17476997E+02 -.38004183E+02 -.97411626E+03 0.98299402E+03 0.12500000E+03 0.0000E+00 0.9000E+01
      -24  1    1    2    0    0 0.17476997E+02 0.38004183E+02 -.13647864E+04 0.13677934E+04 0.80419002E+02 0.0000E+00 0.9000E+01
#aMCatNLO 1  0  0  1  2 0.10562432D+01 0.00000000D+00  -5  5  0 0.00000000D+00 0.00000000D+00 0.00000000D+00 0.00000000D+00 0.00000000D+00
  <mgrwgt>
 -.5924489684D+00   10    2    0
 0.118042420183197D+03 0.000000000000000D+00 0.000000000000000D+00 0.118042420183197D+03
 0.118042420183197D+03 0.000000000000000D+00 0.000000000000000D+00 -.118042420183197D+03
 0.137437532616966D+03 -.174769972131471D+02 -.380041829492742D+02 0.389141621856292D+02
 0.986473077494274D+02 0.174769972131471D+02 0.380041829492742D+02 -.389141621856292D+02
 0.000000000000000D+00 -.000000000000000D+00 -.000000000000000D+00 0.000000000000000D+00
 0.118837408706622D+03 0.000000000000000D+00 0.000000000000000D+00 0.118837408706622D+03
 0.118394962049230D+03 0.000000000000000D+00 0.000000000000000D+00 -.118394962049230D+03
 0.137285060906274D+03 -.169480019085026D+02 -.376913937224321D+02 0.389141621856292D+02
 0.988021422636158D+02 0.178571983120883D+02 0.382289917646611D+02 -.389141621856292D+02
 0.114516758596237D+01 -.909196403585674D+00 -.537598042229049D+00 0.442446657391883D+00
0.400741449797D-03 0.000000000000D+00 0.000000000000D+00 0.255798466958D-02 0.000000000000D+00  5 -2 1 25 -24 21 0 0.91421578D-03 0.36074539D+00 0.12372215D+05 0.12372215D+05 0.12372215D+05 0.12574723D+01  1  2  2  1  5  1       -2 0.170066306626D+00 0.100000000000D+01
-.221677764928D-04 0.000000000000D+00 -.153895268487D-05 0.255798466958D-02 0.000000000000D+00  5 -2 1 25 -24 21 2 0.91421578D-03 0.36074539D+00 0.12372215D+05 0.12372215D+05 0.12372215D+05 0.12574723D+01  1  2  3  1  5  1       -2 -.148755487124D-01 0.100000000000D+01
0.276665494946D-04 0.000000000000D+00 0.000000000000D+00 0.255798466958D-02 0.000000000000D+00  5 -2 1 25 -24 21 2 0.91421578D-03 0.36074539D+00 0.12372215D+05 0.12372215D+05 0.12372215D+05 0.12574723D+01  1  2 15  1  5  1       -2 0.185654661776D-01 0.100000000000D+01
-.801877488032D-02 0.000000000000D+00 0.000000000000D+00 0.255798466958D-02 0.000000000000D+00  5 -2 1 25 -24 21 2 0.91421578D-03 0.36074539D+00 0.12372215D+05 0.12372215D+05 0.12372215D+05 0.12574723D+01  1  2  4  1  5  1       -2 -.538094907193D+01 0.100000000000D+01
-.440722012668D-01 0.000000000000D+00 -.442763434143D-02 0.255798466958D-02 0.000000000000D+00  5 -2 1 25 -24 21 2 0.92373168D-03 0.36074539D+00 0.12372215D+05 0.12372215D+05 0.12372215D+05 0.12574723D+01  1  2  5  1  5  1       -2 -.291423443371D+02 0.100000000000D+01
0.441159216264D-01 0.000000000000D+00 0.442739697269D-02 0.255798466958D-02 0.000000000000D+00  5 -2 1 25 -24 21 2 0.91421578D-03 0.36074539D+00 0.12372215D+05 0.12372215D+05 0.12372215D+05 0.12574723D+01  1  2  6  1  5  1       -2 0.296037151654D+02 0.100000000000D+01
0.801897041287D-02 0.000000000000D+00 0.000000000000D+00 0.255798466958D-02 0.193215332899D-01  5 -2 1 25 -24 21 2 0.92037281D-03 0.36182278D+00 0.12491041D+05 0.12491041D+05 0.12491041D+05 0.12569879D+01  1  2 11  1  5  1       -2 0.527164479864D+01 0.100000000000D+01
0.192612523082D-09 0.000000000000D+00 0.000000000000D+00 0.255798466958D-02 0.000000000000D+00  5 21 1 25 -24 2 2 0.92173134D-03 0.36074539D+00 0.12491041D+05 0.12491041D+05 0.12491041D+05 0.12569879D+01  1  2 12  3  5  1       -2 0.303431798695D-05 0.100000000000D+01
-.840794434543D-04 0.000000000000D+00 -.846454517149D-05 0.255798466958D-02 0.000000000000D+00  5 21 1 25 -24 2 2 0.92373168D-03 0.36074539D+00 0.12372215D+05 0.12372215D+05 0.12372215D+05 0.12574723D+01  1  2  5  3  5  1       -2 -.132113358001D+01 0.100000000000D+01
0.129808358821D-04 0.000000000000D+00 0.000000000000D+00 0.255798466958D-02 0.241310419140D-04  5 21 1 25 -24 2 2 0.92037281D-03 0.36182278D+00 0.12491041D+05 0.12491041D+05 0.12491041D+05 0.12569879D+01  1  2 11  3  5  1       -2 0.202858798170D+00 0.100000000000D+01
  </mgrwgt>
  </event>
  <event>
  4     66 0.46019439E-03 0.11047868E+03 0.75467711E-02 0.11697321E+00
       -4 -1    0    0    0  501 0.00000000E+00 0.00000000E+00 0.57415902E+03 0.57416111E+03 0.15500000E+01 0.0000E+00 0.9000E+01
        3 -1    0    0  501    0 0.00000000E+00 0.00000000E+00 -.52332883E+02 0.52335271E+02 0.50000000E+00 0.0000E+00 0.9000E+01
       25  1    1    2    0    0 -.23678581E+01 0.39790258E+02 0.52044722E+03 0.53673008E+03 0.12500000E+03 0.0000E+00 0.9000E+01
      -24  1    1    2    0    0 0.23678581E+01 -.39790258E+02 0.13789161E+01 0.89766301E+02 0.80419002E+02 0.0000E+00 0.9000E+01
#aMCatNLO 1  0  0  1  2 0.10908822D+03 0.00000000D+00  -5  5  0 0.00000000D+00 0.00000000D+00 0.00000000D+00 0.00000000D+00 0.00000000D+00
  <mgrwgt>
 0.2524438589D-01    4    2    0
 0.173345897687198D+03 0.000000000000000D+00 0.000000000000000D+00 0.173345897687198D+03
 0.173345897687198D+03 0.000000000000000D+00 0.000000000000000D+00 -.173345897687198D+03
 0.186553282701516D+03 -.236785810844775D+01 0.397902583912127D+02 0.132620721879540D+03
 0.160138512672880D+03 0.236785810844775D+01 -.397902583912127D+02 -.132620721879540D+03
 0.000000000000000D+00 0.000000000000000D+00 0.000000000000000D+00 -.000000000000000D+00
 0.217610174010579D+03 0.000000000000000D+00 0.000000000000000D+00 0.217610174010579D+03
 0.264628938324096D+03 0.000000000000000D+00 0.000000000000000D+00 -.264628938324096D+03
 0.194458152685393D+03 -.602549654376285D+02 0.311457286650232D+02 0.132620721879540D+03
 0.168991212247508D+03 -.476368555095124D+02 -.472576764962826D+02 -.132620721879540D+03
 0.118789747401774D+03 0.107891820947141D+03 0.161119478312594D+02 -.470187643135171D+02
0.136028536208D-02 0.000000000000D+00 0.000000000000D+00 0.102394817049D-02 0.000000000000D+00  5 -4 3 25 -24 21 0 0.88332502D-01 0.80515574D-02 0.12205538D+05 0.12205538D+05 0.12205538D+05 0.12581606D+01  1  2  2  1  5  1       -4 0.310912411098D-01 0.100000000000D+01
-.569263410396D-04 0.000000000000D+00 -.522385396175D-05 0.102394817049D-02 0.000000000000D+00  5 -4 3 25 -24 21 2 0.88332502D-01 0.80515574D-02 0.12205538D+05 0.12205538D+05 0.12205538D+05 0.12581606D+01  1  2  3  1  5  1       -4 -.205965019994D-02 0.100000000000D+01
0.926976462620D-04 0.000000000000D+00 0.000000000000D+00 0.102394817049D-02 0.000000000000D+00  5 -4 3 25 -24 21 2 0.88332502D-01 0.80515574D-02 0.12205538D+05 0.12205538D+05 0.12205538D+05 0.12581606D+01  1  2 15  1  5  1       -4 0.335389069753D-02 0.100000000000D+01
-.197371597584D-03 0.000000000000D+00 0.000000000000D+00 0.102394817049D-02 0.000000000000D+00  5 -4 3 25 -24 21 2 0.88332502D-01 0.80515574D-02 0.12205538D+05 0.12205538D+05 0.12205538D+05 0.12581606D+01  1  2  4  1  5  1       -4 -.714109572127D-02 0.100000000000D+01
  </mgrwgt>
  </event>
  <event>
  4     66 0.46019439E-03 0.16020909E+03 0.75467711E-02 0.10276246E+00
       -2 -1    0    0    0  501 0.00000000E+00 0.00000000E+00 0.62054767E+02 0.62055592E+02 0.32000000E+00 0.0000E+00 0.9000E+01
        1 -1    0    0  501    0 0.00000000E+00 0.00000000E+00 -.47554659E+03 0.47554670E+03 0.32000000E+00 0.0000E+00 0.9000E+01
       25  1    1    2    0    0 0.41868486E+02 -.11433324E+03 -.12611698E+03 0.21530340E+03 0.12500000E+03 0.0000E+00 0.9000E+01
      -24  1    1    2    0    0 -.41868486E+02 0.11433324E+03 -.28737484E+03 0.32229889E+03 0.80419002E+02 0.0000E+00 0.9000E+01
#aMCatNLO 1  0  0  1  2 0.39473922D+03 0.00000000D+00  -5  5  0 0.00000000D+00 0.00000000D+00 0.00000000D+00 0.00000000D+00 0.00000000D+00
  <mgrwgt>
 0.2642672042D+00    5    2    0
 0.171785282712657D+03 0.000000000000000D+00 0.000000000000000D+00 0.171785282712657D+03
 0.171785282712657D+03 0.000000000000000D+00 0.000000000000000D+00 -.171785282712657D+03
 0.185112652643624D+03 0.418684863142466D+02 -.114333240507322D+03 0.617789133734781D+02
 0.158457912781690D+03 -.418684863142466D+02 0.114333240507322D+03 -.617789133734781D+02
 0.000000000000000D+00 -.000000000000000D+00 0.000000000000000D+00 0.000000000000000D+00
 0.491932419315779D+03 0.000000000000000D+00 0.000000000000000D+00 0.491932419315779D+03
 0.430824813482487D+03 0.000000000000000D+00 0.000000000000000D+00 -.430824813482487D+03
 0.358845436830926D+03 0.282988859432482D+03 -.171013797203248D+03 0.617789133734781D+02
 0.164470702176053D+03 0.101276122867650D+03 0.806840053492779D+02 -.617789133734781D+02
 0.399441093791287D+03 -.384264982300132D+03 0.903297918539700D+02 0.611076058332922D+02
0.759246606677D-03 0.000000000000D+00 0.000000000000D+00 0.199701466939D-02 0.000000000000D+00  5 -2 1 25 -24 21 0 0.95469590D-02 0.73161085D-01 0.25666954D+05 0.25666954D+05 0.25666954D+05 0.12220736D+01  1  2  2  1  5  1       -2 0.225326084336D+00 0.100000000000D+01
-.419307502156D-04 0.000000000000D+00 -.291570688386D-05 0.199701466939D-02 0.000000000000D+00  5 -2 1 25 -24 21 2 0.95469590D-02 0.73161085D-01 0.25666954D+05 0.25666954D+05 0.25666954D+05 0.12220736D+01  1  2  3  1  5  1       -2 -.185847188135D-01 0.100000000000D+01
0.523214169606D-04 0.000000000000D+00 0.000000000000D+00 0.199701466939D-02 0.000000000000D+00  5 -2 1 25 -24 21 2 0.95469590D-02 0.73161085D-01 0.25666954D+05 0.25666954D+05 0.25666954D+05 0.12220736D+01  1  2 15  1  5  1       -2 0.231901126771D-01 0.100000000000D+01
0.741423142750D-03 0.000000000000D+00 -.355458365505D-03 0.199701466939D-02 0.000000000000D+00  5 -2 1 25 -24 21 2 0.66479757D-01 0.73161085D-01 0.25666954D+05 0.25666954D+05 0.25666954D+05 0.12220736D+01  1  2  5  1  5  1       -2 0.103185769361D-01 0.100000000000D+01
0.142819188054D-03 0.000000000000D+00 -.843368759232D-04 0.199701466939D-02 0.000000000000D+00  5 21 1 25 -24 2 2 0.66479757D-01 0.73161085D-01 0.25666954D+05 0.25666954D+05 0.25666954D+05 0.12220736D+01  1  2  5  3  5  1       -2 0.240171490838D-01 0.100000000000D+01
  </mgrwgt>
  </event>
  <event>
  4     66 0.46019439E-03 0.11519575E+03 0.75467711E-02 0.11590205E+00
       -2 -1    0    0    0  501 0.00000000E+00 0.00000000E+00 0.18773223E+02 0.18775950E+02 0.32000000E+00 0.0000E+00 0.9000E+01
        1 -1    0    0  501    0 0.00000000E+00 0.00000000E+00 -.74441251E+03 0.74441258E+03 0.32000000E+00 0.0000E+00 0.9000E+01
       25  1    1    2    0    0 -.50766490E+02 0.64580919E+01 -.50680010E+03 0.52449050E+03 0.12500000E+03 0.0000E+00 0.9000E+01
      -24  1    1    2    0    0 0.50766490E+02 -.64580919E+01 -.21883918E+03 0.23869803E+03 0.80419002E+02 0.0000E+00 0.9000E+01
#aMCatNLO 1  0  0  2  2 0.11920881D+03 0.00000000D+00  -5  5  0 0.00000000D+00 0.00000000D+00 0.00000000D+00 0.00000000D+00 0.00000000D+00
  <mgrwgt>
 0.1769070523D+00    5    2    0
 0.118220510963715D+03 0.000000000000000D+00 0.000000000000000D+00 0.118220510963715D+03
 0.118220510963715D+03 0.000000000000000D+00 0.000000000000000D+00 -.118220510963715D+03
 0.137586406041854D+03 -.507664897444990D+02 0.645809191329020D+01 -.261930466989850D+02
 0.988546158855749D+02 0.507664897444990D+02 -.645809191329020D+01 0.261930466989850D+02
 0.000000000000000D+00 -.000000000000000D+00 0.000000000000000D+00 -.000000000000000D+00
 0.148868293583268D+03 0.000000000000000D+00 0.000000000000000D+00 0.148868293583268D+03
 0.348076325147992D+03 0.000000000000000D+00 0.000000000000000D+00 -.348076325147992D+03
 0.128449147810230D+03 0.106883197401575D+02 -.859463198347641D+01 -.261930466989850D+02
 0.136343407714425D+03 0.105097760592388D+03 -.197659782429664D+02 0.261930466989850D+02
 0.232152063206604D+03 -.115786080332545D+03 0.283606102264428D+02 -.199208031564724D+03
0.197498559251D-03 0.000000000000D+00 0.000000000000D+00 0.269910534896D-02 0.000000000000D+00  5 -2 1 25 -24 21 0 0.28884033D-02 0.11452522D+00 0.13270060D+05 0.13270060D+05 0.13270060D+05 0.12539355D+01  1  2  2  2  5  2        1 0.189815818436D+00 0.100000000000D+01
-.109631802246D-04 0.000000000000D+00 -.758446470087D-06 0.269910534896D-02 0.000000000000D+00  5 -2 1 25 -24 21 2 0.28884033D-02 0.11452522D+00 0.13270060D+05 0.13270060D+05 0.13270060D+05 0.12539355D+01  1  2  3  2  5  2        1 -.165674409017D-01 0.100000000000D+01
0.136641062752D-04 0.000000000000D+00 0.000000000000D+00 0.269910534896D-02 0.000000000000D+00  5 -2 1 25 -24 21 2 0.28884033D-02 0.11452522D+00 0.13270060D+05 0.13270060D+05 0.13270060D+05 0.12539355D+01  1  2 15  2  5  2        1 0.206490515115D-01 0.100000000000D+01
-.127737935664D-03 0.000000000000D+00 -.739447724812D-04 0.269910534896D-02 0.000000000000D+00  5 -2 1 25 -24 21 2 0.28884033D-02 0.36390374D+00 0.13270060D+05 0.13270060D+05 0.13270060D+05 0.12539355D+01  1  2  5  2  5  2        1 -.157964889549D-01 0.100000000000D+01
-.137283346387D-04 0.000000000000D+00 -.983220121774D-05 0.269910534896D-02 0.000000000000D+00  5 -2 21 25 -24 -1 2 0.28884033D-02 0.36390374D+00 0.13270060D+05 0.13270060D+05 0.13270060D+05 0.12539355D+01  1  2  5  4  5  2        1 -.119388783806D-02 0.100000000000D+01
  </mgrwgt>
  </event>
  <event>
  4     66 0.46019439E-03 0.10690432E+03 0.75467711E-02 0.12344554E+00
       -4 -1    0    0    0  501 0.00000000E+00 0.00000000E+00 0.69997059E+03 0.69997230E+03 0.15500000E+01 0.0000E+00 0.9000E+01
        3 -1    0    0  501    0 0.00000000E+00 0.00000000E+00 -.18747290E+02 0.18753956E+02 0.50000000E+00 0.0000E+00 0.9000E+01
       25  1    1    2    0    0 -.49594935E+01 0.28573895E+02 0.27308410E+03 0.30172999E+03 0.12500000E+03 0.0000E+00 0.9000E+01
      -24  1    1    2    0    0 0.49594935E+01 -.28573895E+02 0.40813920E+03 0.41699627E+03 0.80419002E+02 0.0000E+00 0.9000E+01
#aMCatNLO 1  0  0  1  2 0.34072543D+02 0.00000000D+00  -5  5  0 0.00000000D+00 0.00000000D+00 0.00000000D+00 0.00000000D+00 0.00000000D+00
  <mgrwgt>
 0.7302745238D-01    4    2    0
 0.114566852598692D+03 0.000000000000000D+00 0.000000000000000D+00 0.114566852598692D+03
 0.114566852598692D+03 0.000000000000000D+00 0.000000000000000D+00 -.114566852598692D+03
 0.134550346597841D+03 -.495949346920397D+01 0.285738945078811D+02 -.404688985120746D+02
 0.945833585995429D+02 0.495949346920397D+01 -.285738945078811D+02 0.404688985120746D+02
 0.000000000000000D+00 -.000000000000000D+00 0.000000000000000D+00 -.000000000000000D+00
 0.122734091880309D+03 0.000000000000000D+00 0.000000000000000D+00 0.122734091880309D+03
 0.157843864034741D+03 0.000000000000000D+00 0.000000000000000D+00 -.157843864034741D+03
 0.131880790995876D+03 0.357585446628847D+01 0.108177886720527D+02 -.404688985120746D+02
 0.997723830360342D+02 0.111858448375263D+02 -.415265889618781D+02 0.404688985120746D+02
 0.489247818831393D+02 -.147616993038148D+02 0.307088002898254D+02 -.351097721544321D+02
0.118589431228D-02 0.000000000000D+00 0.000000000000D+00 0.258918839162D-02 0.000000000000D+00  5 -4 3 25 -24 21 0 0.10768843D+00 0.28848432D-02 0.11428534D+05 0.11428534D+05 0.11428534D+05 0.12615152D+01  1  2  2  1  5  1       -4 0.860580665501D-01 0.100000000000D+01
-.654991581559D-04 0.000000000000D+00 -.455414641228D-05 0.258918839162D-02 0.000000000000D+00  5 -4 3 25 -24 21 2 0.10768843D+00 0.28848432D-02 0.11428534D+05 0.11428534D+05 0.11428534D+05 0.12615152D+01  1  2  3  1  5  1       -4 -.756425782251D-02 0.100000000000D+01
0.811673854739D-04 0.000000000000D+00 0.000000000000D+00 0.258918839162D-02 0.000000000000D+00  5 -4 3 25 -24 21 2 0.10768843D+00 0.28848432D-02 0.11428534D+05 0.11428534D+05 0.11428534D+05 0.12615152D+01  1  2 15  1  5  1       -4 0.937372399569D-02 0.100000000000D+01
-.128500745501D-03 0.000000000000D+00 0.000000000000D+00 0.258918839162D-02 0.000000000000D+00  5 -4 3 25 -24 21 2 0.10768843D+00 0.28848432D-02 0.11428534D+05 0.11428534D+05 0.11428534D+05 0.12615152D+01  1  2  4  1  5  1       -4 -.148400803417D-01 0.100000000000D+01
  </mgrwgt>
  </event>
  <event>
  4     66 0.46019439E-03 0.11922294E+03 0.75467711E-02 0.11329240E+00
       -2 -1    0    0    0  501 0.00000000E+00 0.00000000E+00 0.80724341E+02 0.80724976E+02 0.32000000E+00 0.0000E+00 0.9000E+01
        1 -1    0    0  501    0 0.00000000E+00 0.00000000E+00 -.17641803E+03 0.17641832E+03 0.32000000E+00 0.0000E+00 0.9000E+01
       25  1    1    2    0    0 0.38565825E+02 -.45270700E+02 -.49989082E+02 0.14717563E+03 0.12500000E+03 0.0000E+00 0.9000E+01
      -24  1    1    2    0    0 -.38565825E+02 0.45270700E+02 -.45704603E+02 0.10996766E+03 0.80419002E+02 0.0000E+00 0.9000E+01
#aMCatNLO 1  0  0  1  2 0.15706504D+03 0.00000000D+00  -5  5  0 0.00000000D+00 0.00000000D+00 0.00000000D+00 0.00000000D+00 0.00000000D+00
  <mgrwgt>
 0.1819977543D+00    3    2    0
 0.119337118628250D+03 0.000000000000000D+00 0.000000000000000D+00 0.119337118628250D+03
 0.119337118628250D+03 0.000000000000000D+00 0.000000000000000D+00 -.119337118628250D+03
 0.138521811854666D+03 0.385658248944251D+02 -.452706996423886D+02 0.515104490377087D+01
 0.100152425401835D+03 -.385658248944251D+02 0.452706996423886D+02 -.515104490377087D+01
 0.000000000000000D+00 0.000000000000000D+00 0.000000000000000D+00 -.000000000000000D+00
 0.196893961321613D+03 0.000000000000000D+00 0.000000000000000D+00 0.196893961321613D+03
 0.256995518964104D+03 0.000000000000000D+00 0.000000000000000D+00 -.256995518964104D+03
 0.181748787555272D+03 -.282775537847204D+01 -.131807026799523D+03 0.515104490377087D+01
 0.103969284660995D+03 -.649476670194710D+02 -.988248367951034D+01 -.515104490377087D+01
 0.168171408069450D+03 0.677754223979430D+02 0.141689510479033D+03 -.601015576424917D+02
0.268458303471D-03 0.000000000000D+00 0.000000000000D+00 0.279152251196D-02 0.000000000000D+00  5 -2 1 25 -24 21 0 0.12419201D-01 0.27141306D-01 0.14214109D+05 0.14214109D+05 0.14214109D+05 0.12504958D+01  1  2  2  1  5  1       -2 0.178221006213D+00 0.100000000000D+01
-.149143335770D-04 0.000000000000D+00 -.103095057202D-05 0.279152251196D-02 0.000000000000D+00  5 -2 1 25 -24 21 2 0.12419201D-01 0.27141306D-01 0.14214109D+05 0.14214109D+05 0.14214109D+05 0.12504958D+01  1  2  3  1  5  1       -2 -.154828300308D-01 0.100000000000D+01
0.185524075228D-04 0.000000000000D+00 0.000000000000D+00 0.279152251196D-02 0.000000000000D+00  5 -2 1 25 -24 21 2 0.12419201D-01 0.27141306D-01 0.14214109D+05 0.14214109D+05 0.14214109D+05 0.12504958D+01  1  2 15  1  5  1       -2 0.192595781001D-01 0.100000000000D+01
  </mgrwgt>
  </event>
  <event>
  4     66 0.46019439E-03 0.11759722E+03 0.75467711E-02 0.11528220E+00
       -2 -1    0    0    0  501 0.00000000E+00 0.00000000E+00 0.23438848E+02 0.23441032E+02 0.32000000E+00 0.0000E+00 0.9000E+01
        1 -1    0    0  501    0 0.00000000E+00 0.00000000E+00 -.69897009E+03 0.69897016E+03 0.32000000E+00 0.0000E+00 0.9000E+01
       25  1    1    2    0    0 0.51739997E+02 0.22022583E+02 -.24399022E+03 0.27985398E+03 0.12500000E+03 0.0000E+00 0.9000E+01
      -24  1    1    2    0    0 -.51739997E+02 -.22022583E+02 -.43154102E+03 0.44255721E+03 0.80419002E+02 0.0000E+00 0.9000E+01
#aMCatNLO 1  0  0  1  2 0.12752063D+03 0.00000000D+00  -5  5  0 0.00000000D+00 0.00000000D+00 0.00000000D+00 0.00000000D+00 0.00000000D+00
  <mgrwgt>
 0.3331106635D+00    3    2    0
 0.127999488745061D+03 0.000000000000000D+00 0.000000000000000D+00 0.127999488745061D+03
 0.127999488745061D+03 0.000000000000000D+00 0.000000000000000D+00 -.127999488745061D+03
 0.145885857150542D+03 0.517399967800428D+02 0.220225827523539D+02 0.499566001511841D+02
 0.110113120339581D+03 -.517399967800428D+02 -.220225827523539D+02 -.499566001511841D+02
 0.000000000000000D+00 -.000000000000000D+00 -.000000000000000D+00 -.000000000000000D+00
 0.159574722698659D+03 0.000000000000000D+00 0.000000000000000D+00 0.159574722698659D+03
 0.388289366866332D+03 0.000000000000000D+00 0.000000000000000D+00 -.388289366866332D+03
 0.190278025676564D+03 0.115693368662521D+03 0.685573453703099D+02 0.499566001511841D+02
 0.957236986771406D+02 -.125806483010358D+02 0.647116092535311D+01 -.499566001511841D+02
 0.261862365211287D+03 -.103112720361485D+03 -.750285062956630D+02 -.228714644167673D+03
0.428626269762D-03 0.000000000000D+00 0.000000000000D+00 0.229380215157D-02 0.000000000000D+00  5 -2 1 25 -24 21 0 0.36061503D-02 0.10753403D+00 0.13829105D+05 0.13829105D+05 0.13829105D+05 0.12518666D+01  1  2  2  1  5  1       -2 0.326017896246D+00 0.100000000000D+01
-.236045630787D-04 0.000000000000D+00 -.164603773578D-05 0.229380215157D-02 0.000000000000D+00  5 -2 1 25 -24 21 2 0.36061503D-02 0.10753403D+00 0.13829105D+05 0.13829105D+05 0.13829105D+05 0.12518666D+01  1  2  3  1  5  1       -2 -.281368032271D-01 0.100000000000D+01
0.295548364770D-04 0.000000000000D+00 0.000000000000D+00 0.229380215157D-02 0.000000000000D+00  5 -2 1 25 -24 21 2 0.36061503D-02 0.10753403D+00 0.13829105D+05 0.13829105D+05 0.13829105D+05 0.12518666D+01  1  2 15  1  5  1       -2 0.352295704686D-01 0.100000000000D+01
  </mgrwgt>
  </event>
  <event>
  5     66 0.46019439E-03 0.10902637E+03 0.75467711E-02 0.11478123E+00
       21 -1    0    0  502  501 0.00000000E+00 0.00000000E+00 0.13300333E+03 0.13300544E+03 0.75000000E+00 0.0000E+00 0.9000E+01
        1 -1    0    0  501    0 0.00000000E+00 0.00000000E+00 -.30864959E+03 0.30864976E+03 0.32000000E+00 0.0000E+00 0.9000E+01
       25  1    1    2    0    0 0.11338725E+03 0.14119652E+02 -.73473704E+02 0.18460612E+03 0.12500000E+03 0.0000E+00 0.9000E+01
      -24  1    1    2    0    0 0.19840470E+02 0.39334152E+02 -.48997699E+02 0.10396543E+03 0.80419002E+02 0.0000E+00 0.9000E+01
        2  1    1    2  502    0 -.13322772E+03 -.53453804E+02 -.53174860E+02 0.15308365E+03 0.32000000E+00 0.0000E+00 0.9000E+01
#aMCatNLO 2  0  0  1  2 0.14355116D+03 0.00000000D+00  -5  5  0 0.00000000D+00 0.00000000D+00 0.00000000D+00 0.00000000D+00 0.00000000D+00
  <mgrwgt>
 0.3806420252D-01    1    2    0
 0.109164277000319D+03 0.000000000000000D+00 0.000000000000000D+00 0.109164277000319D+03
 0.109164277000319D+03 0.000000000000000D+00 0.000000000000000D+00 -.109164277000319D+03
 0.130136760621501D+03 0.301717973685306D+02 -.192681635141428D+02 0.538302734550687D+01
 0.881917933791372D+02 -.301717973685306D+02 0.192681635141428D+02 -.538302734550687D+01
 0.000000000000000D+00 -.000000000000000D+00 -.000000000000000D+00 0.000000000000000D+00
 0.209230234948635D+03 0.000000000000000D+00 0.000000000000000D+00 0.209230234948635D+03
 0.196204213111407D+03 0.000000000000000D+00 0.000000000000000D+00 -.196204213111407D+03
 0.169440287388828D+03 0.113387254268560D+03 0.141196521360474D+02 0.538302734550687D+01
 0.918532126265920D+02 0.198404700492947D+02 0.393341515769179D+02 -.538302734550687D+01
 0.144140948044622D+03 -.133227724317855D+03 -.534538037129652D+02 0.130260218372284D+02
0.129236188488D-04 0.000000000000D+00 0.000000000000D+00 0.302869914912D-02 0.239585894981D-06  5 21 1 25 -24 2 2 0.20462208D-01 0.47484686D-01 0.40925545D+05 0.40925545D+05 0.40925545D+05 0.12009927D+01  1  2  1  3  5  1       -2 0.380642025174D-01 0.100000000000D+01
  </mgrwgt>
  </event>
  <event>
  4     66 0.46019439E-03 0.81734808E+02 0.75467711E-02 0.11712443E+00
       -2 -1    0    0    0  501 0.00000000E+00 0.00000000E+00 0.28825936E+03 0.28825954E+03 0.32000000E+00 0.0000E+00 0.9000E+01
        1 -1    0    0  501    0 0.00000000E+00 0.00000000E+00 -.99921244E+02 0.99921756E+02 0.32000000E+00 0.0000E+00 0.9000E+01
       25  1    1    2    0    0 0.74206220E+02 0.10961268E+03 0.78280099E+02 0.19817739E+03 0.12500000E+03 0.0000E+00 0.9000E+01
      -24  1    1    2    0    0 -.74206220E+02 -.10961268E+03 0.11005802E+03 0.19000391E+03 0.80419002E+02 0.0000E+00 0.9000E+01
#aMCatNLO 1  0  0  2  1 0.15674608D+02 0.00000000D+00  -5  5  0 0.00000000D+00 0.00000000D+00 0.00000000D+00 0.00000000D+00 0.00000000D+00
  <mgrwgt>
 0.1499696152D+00    9    2    0
 0.169715550843854D+03 0.000000000000000D+00 0.000000000000000D+00 0.169715550843854D+03
 0.169715550843854D+03 0.000000000000000D+00 0.000000000000000D+00 -.169715550843854D+03
 0.183205452034545D+03 0.742062199602921D+02 0.109612679425118D+03 -.204385685319009D+02
 0.156225649653162D+03 -.742062199602921D+02 -.109612679425118D+03 0.204385685319009D+02
 0.000000000000000D+00 0.000000000000000D+00 -.000000000000000D+00 -.000000000000000D+00
 0.173053578519818D+03 0.000000000000000D+00 0.000000000000000D+00 0.173053578519818D+03
 0.189351634832073D+03 0.000000000000000D+00 0.000000000000000D+00 -.189351634832073D+03
 0.185185370824370D+03 0.688645150909258D+02 0.116226352627181D+03 -.204385685319009D+02
 0.154607457402501D+03 -.787133320230575D+02 -.104032332513937D+03 0.204385685319009D+02
 0.226123851250210D+02 0.984881693213167D+01 -.121940201132439D+02 -.162980563122548D+02
0.887495378244D-03 0.000000000000D+00 0.000000000000D+00 0.225116125454D-02 0.000000000000D+00  5 -2 1 25 -24 21 0 0.44347648D-01 0.15372552D-01 0.28382938D+05 0.28382938D+05 0.28382938D+05 0.12174321D+01  1  2  2  2  5  2        1 0.134499688970D+00 0.100000000000D+01
-.493020584149D-04 0.000000000000D+00 -.340821593536D-05 0.225116125454D-02 0.000000000000D+00  5 -2 1 25 -24 21 2 0.44347648D-01 0.15372552D-01 0.28382938D+05 0.28382938D+05 0.28382938D+05 0.12174321D+01  1  2  3  2  5  2        1 -.110741334597D-01 0.100000000000D+01
0.611058032620D-04 0.000000000000D+00 0.000000000000D+00 0.225116125454D-02 0.000000000000D+00  5 -2 1 25 -24 21 2 0.44347648D-01 0.15372552D-01 0.28382938D+05 0.28382938D+05 0.28382938D+05 0.12174321D+01  1  2 15  2  5  2        1 0.137254679062D-01 0.100000000000D+01
0.434607738217D-02 0.000000000000D+00 0.000000000000D+00 0.225116125454D-02 0.000000000000D+00  5 -2 1 25 -24 21 2 0.44347648D-01 0.17290968D-01 0.31148577D+05 0.31148577D+05 0.31148577D+05 0.12131896D+01  1  2 12  2  5  2        1 0.833739425224D+00 0.100000000000D+01
-.441633551432D-02 0.000000000000D+00 0.000000000000D+00 0.225116125454D-02 0.000000000000D+00  5 -2 1 25 -24 21 2 0.44347648D-01 0.15372552D-01 0.28382938D+05 0.28382938D+05 0.28382938D+05 0.12174321D+01  1  2  4  2  5  2        1 -.991988782226D+00 0.100000000000D+01
-.824188702479D-02 0.000000000000D+00 -.122547568932D-02 0.225116125454D-02 0.000000000000D+00  5 -2 1 25 -24 21 2 0.44347648D-01 0.17454688D-01 0.28382938D+05 0.28382938D+05 0.28382938D+05 0.12174321D+01  1  2  5  2  5  2        1 -.157042663473D+01 0.100000000000D+01
0.833999875475D-02 0.000000000000D+00 0.121565503437D-02 0.225116125454D-02 0.000000000000D+00  5 -2 1 25 -24 21 2 0.44347648D-01 0.15372552D-01 0.28382938D+05 0.28382938D+05 0.28382938D+05 0.12174321D+01  1  2  6  2  5  2        1 0.187331446664D+01 0.100000000000D+01
0.810707316461D-04 0.000000000000D+00 0.000000000000D+00 0.225116125454D-02 0.000000000000D+00  5 -2 21 25 -24 -1 2 0.44347648D-01 0.17290968D-01 0.31148577D+05 0.31148577D+05 0.31148577D+05 0.12131896D+01  1  2 12  4  5  2        1 0.142370275362D+00 0.100000000000D+01
-.157714472295D-03 0.000000000000D+00 -.243858324043D-04 0.225116125454D-02 0.000000000000D+00  5 -2 21 25 -24 -1 2 0.44347648D-01 0.17454688D-01 0.28382938D+05 0.28382938D+05 0.28382938D+05 0.12174321D+01  1  2  5  4  5  2        1 -.274190158507D+00 0.100000000000D+01
  </mgrwgt>
  </event>
  <event>
  5     66 -.46019439E-03 0.14292354E+03 0.75467711E-02 0.12000541E+00
       -2 -1    0    0    0  502 0.00000000E+00 0.00000000E+00 0.40003781E+03 0.40003794E+03 0.32000000E+00 0.0000E+00 0.9000E+01
        1 -1    0    0  501    0 0.00000000E+00 0.00000000E+00 -.73344406E+02 0.73345104E+02 0.32000000E+00 0.0000E+00 0.9000E+01
       25  1    1    2    0    0 0.58464479E+02 0.88001382E+02 0.65850686E+02 0.17641897E+03 0.12500000E+03 0.0000E+00 0.9000E+01
      -24  1    1    2    0    0 -.46359416E+02 -.79586108E+02 0.25106950E+03 0.27926019E+03 0.80419002E+02 0.0000E+00 0.9000E+01
       21  1    1    2  501  502 -.12105063E+02 -.84152744E+01 0.97732236E+01 0.17703892E+02 0.75000000E+00 0.0000E+00 0.9000E+01
#aMCatNLO 2  0  0  1  2 0.14742774D+02 0.00000000D+00  -5  5  0 0.00000000D+00 0.00000000D+00 0.00000000D+00 0.00000000D+00 0.00000000D+00
  <mgrwgt>
 -.9559295075D-01    3    2    0
 0.163544900754894D+03 0.000000000000000D+00 0.000000000000000D+00 0.163544900754894D+03
 0.163544900754894D+03 0.000000000000000D+00 0.000000000000000D+00 -.163544900754894D+03
 0.177543784247071D+03 0.518187279440994D+02 0.833813468626665D+02 -.791148895871917D+02
 0.149546017262717D+03 -.518187279440994D+02 -.833813468626665D+02 0.791148895871917D+02
 0.000000000000000D+00 -.000000000000000D+00 -.000000000000000D+00 -.000000000000000D+00
 0.169524042647899D+03 0.000000000000000D+00 0.000000000000000D+00 0.169524042647899D+03
 0.173058331962720D+03 0.000000000000000D+00 0.000000000000000D+00 -.173058331962720D+03
 0.181786974875578D+03 0.584644785720795D+02 0.880013819511671D+02 -.791148895871917D+02
 0.145634905335840D+03 -.463594157312601D+02 -.795861075594933D+02 0.791148895871917D+02
 0.151604943992011D+02 -.121050628408193D+02 -.841527439167381D+01 -.353428931482160D+01
-.136180301289D-02 0.000000000000D+00 0.000000000000D+00 0.181324141877D-02 0.000000000000D+00  5 -2 1 25 -24 21 2 0.63189650D-01 0.10662941D-01 0.22602539D+05 0.22602539D+05 0.22602539D+05 0.12280197D+01  1  2 13  1  5  1       -2 -.245986743324D+00 0.100000000000D+01
-.149049630474D-04 0.000000000000D+00 0.000000000000D+00 0.181324141877D-02 0.000000000000D+00  5 -2 1 25 -24 21 2 0.59370442D-01 0.10662941D-01 0.20427140D+05 0.20427140D+05 0.20427140D+05 0.12328170D+01  1  2  8  1  5  1       -2 -.307955269886D-02 0.100000000000D+01
0.866760644681D-03 0.000000000000D+00 0.000000000000D+00 0.181324141877D-02 0.672763286013D-04  5 -2 1 25 -24 21 2 0.61541004D-01 0.11283206D-01 0.22602539D+05 0.22602539D+05 0.22602539D+05 0.12280197D+01  1  2  1  1  5  1       -2 0.153473345275D+00 0.100000000000D+01
  </mgrwgt>
  </event>
  <event>
  5     66 -.46019439E-03 0.16612444E+03 0.75467711E-02 0.11763933E+00
       -4 -1    0    0    0  501 0.00000000E+00 0.00000000E+00 0.17168453E+03 0.17169153E+03 0.15500000E+01 0.0000E+00 0.9000E+01
        3 -1    0    0  502    0 0.00000000E+00 0.00000000E+00 -.17674738E+03 0.17674809E+03 0.50000000E+00 0.0000E+00 0.9000E+01
       25  1    1    2    0    0 -.55542279E+02 0.12218154E+03 -.33264999E+02 0.18639966E+03 0.12500000E+03 0.0000E+00 0.9000E+01
      -24  1    1    2    0    0 0.46952560E+02 -.11629430E+03 0.28032784E+02 0.15159802E+03 0.80419002E+02 0.0000E+00 0.9000E+01
       21  1    1    2  502  501 0.85897195E+01 -.58872350E+01 0.16936593E+00 0.10441935E+02 0.75000000E+00 0.0000E+00 0.9000E+01
#aMCatNLO 2  0  0  2  1 0.10413588D+02 0.00000000D+00  -5  5  0 0.00000000D+00 0.00000000D+00 0.00000000D+00 0.00000000D+00 0.00000000D+00
  <mgrwgt>
 -.2819039434D-01    3    2    0
 0.168898353475288D+03 0.000000000000000D+00 0.000000000000000D+00 0.168898353475288D+03
 0.168898353475288D+03 0.000000000000000D+00 0.000000000000000D+00 -.168898353475288D+03
 0.182453524169964D+03 -.508599330838769D+02 0.118972344877335D+03 -.303831671017313D+02
 0.155343182780611D+03 0.508599330838769D+02 -.118972344877335D+03 0.303831671017313D+02
 0.000000000000000D+00 0.000000000000000D+00 -.000000000000000D+00 0.000000000000000D+00
 0.174353526575541D+03 0.000000000000000D+00 0.000000000000000D+00 0.174353526575541D+03
 0.174022505132319D+03 0.000000000000000D+00 0.000000000000000D+00 -.174022505132319D+03
 0.185906992625410D+03 -.555422790788581D+02 0.122181538288805D+03 -.303831671017313D+02
 0.152050191118842D+03 0.469525595529580D+02 -.116294303270624D+03 0.303831671017313D+02
 0.104188479636085D+02 0.858971952590004D+01 -.588723501818018D+01 0.331021443221649D+00
-.164359841300D-02 0.000000000000D+00 0.000000000000D+00 0.221731595455D-02 0.000000000000D+00  5 -4 3 25 -24 21 2 0.25585189D-01 0.27603452D-01 0.29378752D+05 0.29378752D+05 0.29378752D+05 0.12158534D+01  1  2 13  2  5  2        3 -.890498446667D-01 0.100000000000D+01
-.553067844895D-03 0.000000000000D+00 0.000000000000D+00 0.221731595455D-02 0.000000000000D+00  5 -4 3 25 -24 21 2 0.25585189D-01 0.26389763D-01 0.27597330D+05 0.27597330D+05 0.27597330D+05 0.12187219D+01  1  2  8  2  5  2        3 -.325420810590D-01 0.100000000000D+01
0.177919027149D-02 0.000000000000D+00 0.000000000000D+00 0.221731595455D-02 0.161303067974D-03  5 -4 3 25 -24 21 2 0.26411554D-01 0.27190393D-01 0.29378752D+05 0.29378752D+05 0.29378752D+05 0.12158534D+01  1  2  1  2  5  2        3 0.934015313862D-01 0.100000000000D+01
  </mgrwgt>
  </event>
  <event>
  4     66 0.46019439E-03 0.10675648E+03 0.75467711E-02 0.10248218E+00
       -2 -1    0    0    0  501 0.00000000E+00 0.00000000E+00 0.97988193E+01 0.98040430E+01 0.32000000E+00 0.0000E+00 0.9000E+01
        1 -1    0    0  501    0 0.00000000E+00 0.00000000E+00 -.15163290E+04 0.15163290E+04 0.32000000E+00 0.0000E+00 0.9000E+01
       25  1    1    2    0    0 -.35156374E+01 0.28255765E+02 -.12320157E+04 0.12386680E+04 0.12500000E+03 0.0000E+00 0.9000E+01
      -24  1    1    2    0    0 0.35156374E+01 -.28255765E+02 -.27451440E+03 0.28746499E+03 0.80419002E+02 0.0000E+00 0.9000E+01
#aMCatNLO 1  0  0  1  1 0.43590064D+03 0.00000000D+00  -5  5  0 0.00000000D+00 0.00000000D+00 0.00000000D+00 0.00000000D+00 0.00000000D+00
  <mgrwgt>
 0.2980327975D+00    5    2    0
 0.121910808245051D+03 0.000000000000000D+00 0.000000000000000D+00 0.121910808245051D+03
 0.121910808245051D+03 0.000000000000000D+00 0.000000000000000D+00 -.121910808245051D+03
 0.140690488606167D+03 -.351563738614826D+01 0.282557649683607D+02 -.579488190049116D+02
 0.103131127883935D+03 0.351563738614826D+01 -.282557649683607D+02 0.579488190049116D+02
 0.000000000000000D+00 -.000000000000000D+00 -.000000000000000D+00 0.000000000000000D+00
 0.715916436839566D+03 0.000000000000000D+00 0.000000000000000D+00 0.715916436839566D+03
 0.351624404243332D+03 0.000000000000000D+00 0.000000000000000D+00 -.351624404243332D+03
 0.335763687173138D+03 0.630237623296401D+02 0.299636769075249D+03 -.579488190049116D+02
 0.163694367262047D+03 0.407792593217561D+02 0.123723952022462D+03 0.579488190049116D+02
 0.568082786647712D+03 -.103803021651396D+03 -.423360721097711D+03 0.364292032596234D+03
0.348515116041D-03 0.000000000000D+00 0.000000000000D+00 0.220850732331D-02 0.000000000000D+00  5 -2 1 25 -24 21 0 0.15079151D-02 0.23328178D+00 0.11396947D+05 0.11396947D+05 0.11396947D+05 0.12616570D+01  1  2  2  1  5  1       -2 0.242386902368D+00 0.100000000000D+01
-.189471594278D-04 0.000000000000D+00 -.133838981174D-05 0.220850732331D-02 0.000000000000D+00  5 -2 1 25 -24 21 2 0.15079151D-02 0.23328178D+00 0.11396947D+05 0.11396947D+05 0.11396947D+05 0.12616570D+01  1  2  3  1  5  1       -2 -.209755929872D-01 0.100000000000D+01
0.238632546806D-04 0.000000000000D+00 0.000000000000D+00 0.220850732331D-02 0.000000000000D+00  5 -2 1 25 -24 21 2 0.15079151D-02 0.23328178D+00 0.11396947D+05 0.11396947D+05 0.11396947D+05 0.12616570D+01  1  2 15  1  5  1       -2 0.264179925988D-01 0.100000000000D+01
0.200527055425D-02 0.000000000000D+00 -.570953786023D-03 0.220850732331D-02 0.000000000000D+00  5 -2 1 25 -24 21 2 0.41815901D-01 0.23328178D+00 0.11396947D+05 0.11396947D+05 0.11396947D+05 0.12616570D+01  1  2  5  1  5  1       -2 0.117779891842D-01 0.100000000000D+01
0.509945343052D-03 0.000000000000D+00 -.191789192241D-03 0.220850732331D-02 0.000000000000D+00  5 21 1 25 -24 2 2 0.41815901D-01 0.23328178D+00 0.11396947D+05 0.11396947D+05 0.11396947D+05 0.12616570D+01  1  2  5  3  5  1       -2 0.384255063615D-01 0.100000000000D+01
  </mgrwgt>
  </event>
  <event>
  4     66 0.46019439E-03 0.16428538E+03 0.75467711E-02 0.10843545E+00
       -2 -1    0    0    0  501 0.00000000E+00 0.00000000E+00 0.91806372E+02 0.91806929E+02 0.32000000E+00 0.0000E+00 0.9000E+01
        1 -1    0    0  501    0 0.00000000E+00 0.00000000E+00 -.30122176E+03 0.30122193E+03 0.32000000E+00 0.0000E+00 0.9000E+01
       25  1    1    2    0    0 -.49578890E+02 0.11696032E+03 -.14373211E+03 0.22895786E+03 0.12500000E+03 0.0000E+00 0.9000E+01
      -24  1    1    2    0    0 0.49578890E+02 -.11696032E+03 -.65683272E+02 0.16407099E+03 0.80419002E+02 0.0000E+00 0.9000E+01
#aMCatNLO 1  0  0  1  1 0.21273375D+03 0.00000000D+00  -5  5  0 0.00000000D+00 0.00000000D+00 0.00000000D+00 0.00000000D+00 0.00000000D+00
  <mgrwgt>
 0.2002407409D+00    5    2    0
 0.166295579031353D+03 0.000000000000000D+00 0.000000000000000D+00 0.166295579031353D+03
 0.166295579031353D+03 0.000000000000000D+00 0.000000000000000D+00 -.166295579031353D+03
 0.180062908414028D+03 -.495788899826983D+02 0.116960319481318D+03 -.256879022388037D+02
 0.152528249648678D+03 0.495788899826983D+02 -.116960319481318D+03 0.256879022388037D+02
 0.000000000000000D+00 0.000000000000000D+00 -.000000000000000D+00 0.000000000000000D+00
 0.542735812967709D+03 0.000000000000000D+00 0.000000000000000D+00 0.542735812967709D+03
 0.230165864237221D+03 0.000000000000000D+00 0.000000000000000D+00 -.230165864237221D+03
 0.274657774653038D+03 -.169523554345201D+03 0.174395497012103D+03 -.256879022388037D+02
 0.120149175698870D+03 -.223470273561424D+02 -.825187888523630D+02 0.256879022388037D+02
 0.378094726853022D+03 0.191870581701344D+03 -.918767081597398D+02 0.312569948730487D+03
0.735111759197D-03 0.000000000000D+00 0.000000000000D+00 0.224928109474D-02 0.000000000000D+00  5 -2 1 25 -24 21 0 0.14124113D-01 0.46341865D-01 0.26989684D+05 0.26989684D+05 0.26989684D+05 0.12197480D+01  1  2  2  1  5  1       -2 0.208011471797D+00 0.100000000000D+01
-.408321977555D-04 0.000000000000D+00 -.282302271469D-05 0.224928109474D-02 0.000000000000D+00  5 -2 1 25 -24 21 2 0.14124113D-01 0.46341865D-01 0.26989684D+05 0.26989684D+05 0.26989684D+05 0.12197480D+01  1  2  3  1  5  1       -2 -.171900399635D-01 0.100000000000D+01
0.507793160364D-04 0.000000000000D+00 0.000000000000D+00 0.224928109474D-02 0.000000000000D+00  5 -2 1 25 -24 21 2 0.14124113D-01 0.46341865D-01 0.26989684D+05 0.26989684D+05 0.26989684D+05 0.12197480D+01  1  2 15  1  5  1       -2 0.213776999518D-01 0.100000000000D+01
-.127574357522D-03 0.000000000000D+00 -.244339861768D-03 0.224928109474D-02 0.000000000000D+00  5 -2 1 25 -24 21 2 0.60960844D-01 0.46341865D-01 0.26989684D+05 0.26989684D+05 0.26989684D+05 0.12197480D+01  1  2  5  1  5  1       -2 -.377475909904D-02 0.100000000000D+01
-.227817484570D-04 0.000000000000D+00 -.430252744179D-04 0.224928109474D-02 0.000000000000D+00  5 21 1 25 -24 2 2 0.60960844D-01 0.46341865D-01 0.26989684D+05 0.26989684D+05 0.26989684D+05 0.12197480D+01  1  2  5  3  5  1       -2 -.818363177035D-02 0.100000000000D+01
  </mgrwgt>
  </event>
  <event>
  4     66 0.46019439E-03 0.48805720E+02 0.75467711E-02 0.11840995E+00
       -2 -1    0    0    0  501 0.00000000E+00 0.00000000E+00 0.13309961E+03 0.13309999E+03 0.32000000E+00 0.0000E+00 0.9000E+01
        1 -1    0    0  501    0 0.00000000E+00 0.00000000E+00 -.93100786E+02 0.93101336E+02 0.32000000E+00 0.0000E+00 0.9000E+01
       25  1    1    2    0    0 -.14508697E+02 0.30605671E+02 0.49022498E+02 0.13847532E+03 0.12500000E+03 0.0000E+00 0.9000E+01
      -24  1    1    2    0    0 0.14508697E+02 -.30605671E+02 -.90236765E+01 0.87726006E+02 0.80419002E+02 0.0000E+00 0.9000E+01
#aMCatNLO 1  0  0  2  1 0.92552330D+02 0.00000000D+00  -5  5  0 0.00000000D+00 0.00000000D+00 0.00000000D+00 0.00000000D+00 0.00000000D+00
  <mgrwgt>
 0.7399576207D-01    7    2    0
 0.111318388809141D+03 0.000000000000000D+00 0.000000000000000D+00 0.111318388809141D+03
 0.111318388809141D+03 0.000000000000000D+00 0.000000000000000D+00 -.111318388809141D+03
 0.131885035846521D+03 -.145086970279648D+02 0.306056709849200D+02 0.249289649675149D+02
 0.907517417717620D+02 0.145086970279648D+02 -.306056709849200D+02 -.249289649675149D+02
 0.000000000000000D+00 0.000000000000000D+00 0.000000000000000D+00 -.000000000000000D+00
 0.131977168976222D+03 0.000000000000000D+00 0.000000000000000D+00 0.131977168976222D+03
 0.308022434832019D+03 0.000000000000000D+00 0.000000000000000D+00 -.308022434832019D+03
 0.141230344101468D+03 -.607966695569963D+02 0.182257275435263D+01 0.249289649675149D+02
 0.998776576251567D+02 -.177994373736597D+02 -.506957322971773D+02 -.249289649675149D+02
 0.198891602081616D+03 0.785961069306560D+02 0.488731595428247D+02 -.176045265855797D+03
0.243240374781D-03 0.000000000000D+00 0.000000000000D+00 0.285068274824D-02 0.000000000000D+00  5 -2 1 25 -24 21 0 0.20476935D-01 0.14323270D-01 0.11747117D+05 0.11747117D+05 0.11747117D+05 0.12601096D+01  1  2  2  2  5  2        1 0.158592869119D+00 0.100000000000D+01
-.135016298763D-04 0.000000000000D+00 -.934107085822D-06 0.285068274824D-02 0.000000000000D+00  5 -2 1 25 -24 21 2 0.20476935D-01 0.14323270D-01 0.11747117D+05 0.11747117D+05 0.11747117D+05 0.12601096D+01  1  2  3  2  5  2        1 -.139781872841D-01 0.100000000000D+01
0.168226554458D-04 0.000000000000D+00 0.000000000000D+00 0.285068274824D-02 0.000000000000D+00  5 -2 1 25 -24 21 2 0.20476935D-01 0.14323270D-01 0.11747117D+05 0.11747117D+05 0.11747117D+05 0.12601096D+01  1  2 15  2  5  2        1 0.174164327265D-01 0.100000000000D+01
0.129075608835D-04 0.000000000000D+00 0.000000000000D+00 0.285068274824D-02 0.000000000000D+00  5 -2 1 25 -24 21 2 0.20476935D-01 0.38528348D-01 0.26942216D+05 0.26942216D+05 0.26942216D+05 0.12198292D+01  1  2 12  2  5  2        1 0.368290272068D-02 0.100000000000D+01
-.247090036631D-03 0.000000000000D+00 -.101482814629D-03 0.285068274824D-02 0.000000000000D+00  5 -2 1 25 -24 21 2 0.20476935D-01 0.45644092D-01 0.11747117D+05 0.11747117D+05 0.11747117D+05 0.12601096D+01  1  2  5  2  5  2        1 -.601324915940D-01 0.100000000000D+01
0.142370427044D-05 0.000000000000D+00 0.000000000000D+00 0.285068274824D-02 0.000000000000D+00  5 -2 21 25 -24 -1 2 0.20476935D-01 0.38528348D-01 0.26942216D+05 0.26942216D+05 0.26942216D+05 0.12198292D+01  1  2 12  4  5  2        1 0.221592148260D-02 0.100000000000D+01
-.285183067197D-04 0.000000000000D+00 -.135348547687D-04 0.285068274824D-02 0.000000000000D+00  5 -2 21 25 -24 -1 2 0.20476935D-01 0.45644092D-01 0.11747117D+05 0.11747117D+05 0.11747117D+05 0.12601096D+01  1  2  5  4  5  2        1 -.338016851027D-01 0.100000000000D+01
  </mgrwgt>
  </event>
  <event>
  4     66 0.46019439E-03 0.58536019E+02 0.75467711E-02 0.12589507E+00
       -2 -1    0    0    0  501 0.00000000E+00 0.00000000E+00 0.17717263E+02 0.17720153E+02 0.32000000E+00 0.0000E+00 0.9000E+01
        1 -1    0    0  501    0 0.00000000E+00 0.00000000E+00 -.62009252E+03 0.62009260E+03 0.32000000E+00 0.0000E+00 0.9000E+01
       25  1    1    2    0    0 -.14609560E+02 0.14309509E+02 -.36453875E+03 0.38591670E+03 0.12500000E+03 0.0000E+00 0.9000E+01
      -24  1    1    2    0    0 0.14609560E+02 -.14309509E+02 -.23783651E+03 0.25189606E+03 0.80419002E+02 0.0000E+00 0.9000E+01
#aMCatNLO 1  0  0  2  1 0.11786702D+02 0.00000000D+00  -5  5  0 0.00000000D+00 0.00000000D+00 0.00000000D+00 0.00000000D+00 0.00000000D+00
  <mgrwgt>
 0.2429859916D+00    6    2    0
 0.104820275703847D+03 0.000000000000000D+00 0.000000000000000D+00 0.104820275703847D+03
 0.104820275703847D+03 0.000000000000000D+00 0.000000000000000D+00 -.104820275703847D+03
 0.126661908880579D+03 -.146095602978031D+02 0.143095090326251D+02 -.194577547954009D+00
 0.829786425271143D+02 0.146095602978031D+02 -.143095090326251D+02 0.194577547954009D+00
 0.000000000000000D+00 0.000000000000000D+00 -.000000000000000D+00 0.000000000000000D+00
 0.111285094055875D+03 0.000000000000000D+00 0.000000000000000D+00 0.111285094055875D+03
 0.110499399986737D+03 0.000000000000000D+00 0.000000000000000D+00 -.110499399986737D+03
 0.127753852051655D+03 -.217256894720623D+02 0.149667388090214D+02 -.194577547954009D+00
 0.822177820770914D+02 0.998893816220194D+01 -.138827587054982D+02 0.194577547954009D+00
 0.118128599138660D+02 0.117367513098603D+02 -.108398010352326D+01 0.785694069138442D+00
0.114616375613D-03 0.000000000000D+00 0.000000000000D+00 0.316902691601D-02 0.000000000000D+00  5 -2 1 25 -24 21 0 0.27259614D-02 0.95399078D-01 0.10987251D+05 0.10987251D+05 0.10987251D+05 0.12635368D+01  1  2  2  2  5  2        1 0.153816668022D+00 0.100000000000D+01
-.636757642292D-05 0.000000000000D+00 -.440157061539D-06 0.316902691601D-02 0.000000000000D+00  5 -2 1 25 -24 21 2 0.27259614D-02 0.95399078D-01 0.10987251D+05 0.10987251D+05 0.10987251D+05 0.12635368D+01  1  2  3  2  5  2        1 -.136429002626D-01 0.100000000000D+01
0.792684605515D-05 0.000000000000D+00 0.000000000000D+00 0.316902691601D-02 0.000000000000D+00  5 -2 1 25 -24 21 2 0.27259614D-02 0.95399078D-01 0.10987251D+05 0.10987251D+05 0.10987251D+05 0.12635368D+01  1  2 15  2  5  2        1 0.169837255094D-01 0.100000000000D+01
0.218745514946D-03 0.000000000000D+00 0.000000000000D+00 0.316902691601D-02 0.000000000000D+00  5 -2 1 25 -24 21 2 0.27259614D-02 0.10334520D+00 0.12294148D+05 0.12294148D+05 0.12294148D+05 0.12577934D+01  1  2 12  2  5  2        1 0.417802688414D+00 0.100000000000D+01
-.161084876771D-03 0.000000000000D+00 0.000000000000D+00 0.316902691601D-02 0.000000000000D+00  5 -2 1 25 -24 21 2 0.27259614D-02 0.95399078D-01 0.10987251D+05 0.10987251D+05 0.10987251D+05 0.12635368D+01  1  2  4  2  5  2        1 -.345133652371D+00 0.100000000000D+01
0.292195386487D-05 0.000000000000D+00 0.000000000000D+00 0.316902691601D-02 0.000000000000D+00  5 -2 21 25 -24 -1 2 0.27259614D-02 0.10334520D+00 0.12294148D+05 0.12294148D+05 0.12294148D+05 0.12577934D+01  1  2 12  4  5  2        1 0.131594622974D-01 0.100000000000D+01
  </mgrwgt>
  </event>
  <event>
  4     66 0.46019439E-03 0.10830300E+03 0.75467711E-02 0.12220104E+00
       -2 -1    0    0    0  501 0.00000000E+00 0.00000000E+00 0.40036442E+02 0.40037721E+02 0.32000000E+00 0.0000E+00 0.9000E+01
        1 -1    0    0  501    0 0.00000000E+00 0.00000000E+00 -.29764938E+03 0.29764955E+03 0.32000000E+00 0.0000E+00 0.9000E+01
       25  1    1    2    0    0 0.79558930E+01 -.32665015E+02 -.13277266E+03 0.18542890E+03 0.12500000E+03 0.0000E+00 0.9000E+01
      -24  1    1    2    0    0 -.79558930E+01 0.32665015E+02 -.12484028E+03 0.15225837E+03 0.80419002E+02 0.0000E+00 0.9000E+01
#aMCatNLO 1  0  0  1  1 0.46011759D+02 0.00000000D+00  -5  5  0 0.00000000D+00 0.00000000D+00 0.00000000D+00 0.00000000D+00 0.00000000D+00
  <mgrwgt>
 0.2312298296D+00    4    2    0
 0.109165319660536D+03 0.000000000000000D+00 0.000000000000000D+00 0.109165319660536D+03
 0.109165319660536D+03 0.000000000000000D+00 0.000000000000000D+00 -.109165319660536D+03
 0.130137602969253D+03 0.795589300088026D+01 -.326650153019489D+02 0.134348892241372D+02
 0.881930363518197D+02 -.795589300088026D+01 0.326650153019489D+02 -.134348892241372D+02
 0.000000000000000D+00 -.000000000000000D+00 -.000000000000000D+00 -.000000000000000D+00
 0.119753670337820D+03 0.000000000000000D+00 0.000000000000000D+00 0.119753670337820D+03
 0.176183079520103D+03 0.000000000000000D+00 0.000000000000000D+00 -.176183079520103D+03
 0.127753221397560D+03 0.208153446604418D+02 -.906149853258517D+01 0.134348892241372D+02
 0.953730882371172D+02 0.119743655739411D+01 0.494659469002725D+02 -.134348892241372D+02
 0.728104402232464D+02 -.220127812178359D+02 -.404044483676873D+02 -.564294091822829D+02
0.249050667368D-03 0.000000000000D+00 0.000000000000D+00 0.299638975271D-02 0.000000000000D+00  5 -2 1 25 -24 21 0 0.61595642D-02 0.45792324D-01 0.11729539D+05 0.11729539D+05 0.11729539D+05 0.12601861D+01  1  2  2  1  5  1       -2 0.255245336643D+00 0.100000000000D+01
-.138350901265D-04 0.000000000000D+00 -.956420139238D-06 0.299638975271D-02 0.000000000000D+00  5 -2 1 25 -24 21 2 0.61595642D-02 0.45792324D-01 0.11729539D+05 0.11729539D+05 0.11729539D+05 0.12601861D+01  1  2  3  1  5  1       -2 -.225175661627D-01 0.100000000000D+01
0.172231414061D-04 0.000000000000D+00 0.000000000000D+00 0.299638975271D-02 0.000000000000D+00  5 -2 1 25 -24 21 2 0.61595642D-02 0.45792324D-01 0.11729539D+05 0.11729539D+05 0.11729539D+05 0.12601861D+01  1  2 15  1  5  1       -2 0.280318539740D-01 0.100000000000D+01
-.181434960462D-04 0.000000000000D+00 0.000000000000D+00 0.299638975271D-02 0.000000000000D+00  5 -2 1 25 -24 21 2 0.61595642D-02 0.45792324D-01 0.11729539D+05 0.11729539D+05 0.11729539D+05 0.12601861D+01  1  2  4  1  5  1       -2 -.295297948123D-01 0.100000000000D+01
  </mgrwgt>
  </event>
  <event>
  4     66 0.46019439E-03 0.14443299E+03 0.75467711E-02 0.11326683E+00
       -4 -1    0    0    0  501 0.00000000E+00 0.00000000E+00 0.17031508E+03 0.17032213E+03 0.15500000E+01 0.0000E+00 0.9000E+01
        3 -1    0    0  501    0 0.00000000E+00 0.00000000E+00 -.12913676E+03 0.12913773E+03 0.50000000E+00 0.0000E+00 0.9000E+01
       25  1    1    2    0    0 -.10028618E+03 0.29540061E+01 0.56539091E+02 0.16996386E+03 0.12500000E+03 0.0000E+00 0.9000E+01
      -24  1    1    2    0    0 0.10028618E+03 -.29540061E+01 -.15360773E+02 0.12949600E+03 0.80419002E+02 0.0000E+00 0.9000E+01
#aMCatNLO 1  0  0  1  1 0.12814787D+03 0.00000000D+00  -5  5  0 0.00000000D+00 0.00000000D+00 0.00000000D+00 0.00000000D+00 0.00000000D+00
  <mgrwgt>
 0.3759503229D-01    5    2    0
 0.148307578513259D+03 0.000000000000000D+00 0.000000000000000D+00 0.148307578513259D+03
 0.148307578513259D+03 0.000000000000000D+00 0.000000000000000D+00 -.148307578513259D+03
 0.163744726327002D+03 -.100286180748690D+03 0.295400612180869D+01 0.334856864731502D+02
 0.132870430699517D+03 0.100286180748690D+03 -.295400612180869D+01 -.334856864731502D+02
 0.000000000000000D+00 0.000000000000000D+00 0.000000000000000D+00 0.000000000000000D+00
 0.227823320882172D+03 0.000000000000000D+00 0.000000000000000D+00 0.227823320882172D+03
 0.223510746783797D+03 0.000000000000000D+00 0.000000000000000D+00 -.223510746783797D+03
 0.216172802808118D+03 -.169896362855406D+03 -.334606539661714D+02 0.334856864731502D+02
 0.106940844724336D+03 0.563468905782667D+02 -.259396422405327D+02 -.334856864731502D+02
 0.128220420133514D+03 0.113549472277139D+03 0.594002962067041D+02 0.431257409837482D+01
0.584235930867D-03 0.000000000000D+00 0.000000000000D+00 0.231060358463D-02 0.000000000000D+00  5 -4 3 25 -24 21 0 0.26202936D-01 0.19867811D-01 0.20860889D+05 0.20860889D+05 0.20860889D+05 0.12318161D+01  1  2  2  1  5  1       -4 0.360178439733D-01 0.100000000000D+01
-.324298955078D-04 0.000000000000D+00 -.224361980738D-05 0.231060358463D-02 0.000000000000D+00  5 -4 3 25 -24 21 2 0.26202936D-01 0.19867811D-01 0.20860889D+05 0.20860889D+05 0.20860889D+05 0.12318161D+01  1  2  3  1  5  1       -4 -.303365911665D-02 0.100000000000D+01
0.403032844738D-04 0.000000000000D+00 0.000000000000D+00 0.231060358463D-02 0.000000000000D+00  5 -4 3 25 -24 21 2 0.26202936D-01 0.19867811D-01 0.20860889D+05 0.20860889D+05 0.20860889D+05 0.12318161D+01  1  2 15  1  5  1       -4 0.377017639004D-02 0.100000000000D+01
-.628015031615D-04 0.000000000000D+00 -.157258552232D-03 0.231060358463D-02 0.000000000000D+00  5 -4 3 25 -24 21 2 0.58694062D-01 0.19867811D-01 0.20860889D+05 0.20860889D+05 0.20860889D+05 0.12318161D+01  1  2  5  1  5  1       -4 -.120073413817D-02 0.100000000000D+01
0.443877243506D-05 0.000000000000D+00 -.137661971978D-04 0.231060358463D-02 0.000000000000D+00  5 21 3 25 -24 4 2 0.58694062D-01 0.19867811D-01 0.20860889D+05 0.20860889D+05 0.20860889D+05 0.12318161D+01  1  2  5  3  5  1       -4 0.204140518169D-02 0.100000000000D+01
  </mgrwgt>
  </event>
  <event>
  4     66 0.46019439E-03 0.24515834E+03 0.75467711E-02 0.98948801E-01
       -2 -1    0    0    0  501 0.00000000E+00 0.00000000E+00 0.13122695E+03 0.13122734E+03 0.32000000E+00 0.0000E+00 0.9000E+01
        1 -1    0    0  501    0 0.00000000E+00 0.00000000E+00 -.47614543E+03 0.47614554E+03 0.32000000E+00 0.0000E+00 0.9000E+01
       25  1    1    2    0    0 -.16401299E+03 -.14914240E+03 -.23801463E+03 0.34845327E+03 0.12500000E+03 0.0000E+00 0.9000E+01
      -24  1    1    2    0    0 0.16401299E+03 0.14914240E+03 -.10690384E+03 0.25891961E+03 0.80419002E+02 0.0000E+00 0.9000E+01
#aMCatNLO 1  0  0  1  2 0.50582101D+03 0.00000000D+00  -5  5  0 0.00000000D+00 0.00000000D+00 0.00000000D+00 0.00000000D+00 0.00000000D+00
  <mgrwgt>
 0.2746599546D+00    5    2    0
 0.249966527308665D+03 0.000000000000000D+00 0.000000000000000D+00 0.249966527308665D+03
 0.249966527308665D+03 0.000000000000000D+00 0.000000000000000D+00 -.249966527308665D+03
 0.259125537661201D+03 -.164012985067863D+03 -.149142404893423D+03 -.487578512646055D+02
 0.240807516956130D+03 0.164012985067863D+03 0.149142404893423D+03 0.487578512646055D+02
 0.000000000000000D+00 0.000000000000000D+00 -.000000000000000D+00 0.000000000000000D+00
 0.137161589376623D+04 0.000000000000000D+00 0.000000000000000D+00 0.137161589376623D+04
 0.418548911010639D+03 0.000000000000000D+00 0.000000000000000D+00 -.418548911010639D+03
 0.315094032824320D+03 -.278350413716291D+03 0.616682142235540D+02 -.487578512646055D+02
 0.396093676527208D+03 0.371945196079935D+02 0.382965043158849D+03 0.487578512646055D+02
 0.107897709542534D+04 0.241155894108298D+03 -.444633257382403D+03 0.953066982755595D+03
0.307596332230D-02 0.000000000000D+00 0.000000000000D+00 0.198585354082D-02 0.000000000000D+00  5 -2 1 25 -24 21 0 0.20188800D-01 0.73253181D-01 0.60102614D+05 0.60102614D+05 0.60102614D+05 0.11844467D+01  1  2  2  1  5  1       -2 0.269763488811D+00 0.100000000000D+01
-.170808470406D-03 0.000000000000D+00 -.118125090774D-04 0.198585354082D-02 0.000000000000D+00  5 -2 1 25 -24 21 2 0.20188800D-01 0.73253181D-01 0.60102614D+05 0.60102614D+05 0.60102614D+05 0.11844467D+01  1  2  3  1  5  1       -2 -.210156310816D-01 0.100000000000D+01
0.211706993730D-03 0.000000000000D+00 0.000000000000D+00 0.198585354082D-02 0.000000000000D+00  5 -2 1 25 -24 21 2 0.20188800D-01 0.73253181D-01 0.60102614D+05 0.60102614D+05 0.60102614D+05 0.11844467D+01  1  2 15  1  5  1       -2 0.260476314029D-01 0.100000000000D+01
0.533239039634D-03 0.000000000000D+00 -.159306645551D-02 0.198585354082D-02 0.000000000000D+00  5 -2 1 25 -24 21 2 0.16139326D+00 0.73253181D-01 0.60102614D+05 0.60102614D+05 0.60102614D+05 0.11844467D+01  1  2  5  1  5  1       -2 0.847217053164D-03 0.100000000000D+01
-.557640771529D-04 0.000000000000D+00 -.401975401319D-03 0.198585354082D-02 0.000000000000D+00  5 21 1 25 -24 2 2 0.16139326D+00 0.73253181D-01 0.60102614D+05 0.60102614D+05 0.60102614D+05 0.11844467D+01  1  2  5  3  5  1       -2 -.982751619495D-03 0.100000000000D+01
  </mgrwgt>
  </event>
  <event>
  4     66 0.46019439E-03 0.10329609E+03 0.75467711E-02 0.12728318E+00
       -2 -1    0    0    0  501 0.00000000E+00 0.00000000E+00 0.18573533E+03 0.18573560E+03 0.32000000E+00 0.0000E+00 0.9000E+01
        1 -1    0    0  501    0 0.00000000E+00 0.00000000E+00 -.65488692E+02 0.65489474E+02 0.32000000E+00 0.0000E+00 0.9000E+01
       25  1    1    2    0    0 0.10666173E+02 -.12023599E+01 0.11455862E+03 0.16989376E+03 0.12500000E+03 0.0000E+00 0.9000E+01
      -24  1    1    2    0    0 -.10666173E+02 0.12023599E+01 0.56880122E+01 0.81331312E+02 0.80419002E+02 0.0000E+00 0.9000E+01
#aMCatNLO 1  0  0  2  2 0.67926213D+00 0.00000000D+00  -5  5  0 0.00000000D+00 0.00000000D+00 0.00000000D+00 0.00000000D+00 0.00000000D+00
  <mgrwgt>
 0.1870754218D+00    8    2    0
 0.110289148903932D+03 0.000000000000000D+00 0.000000000000000D+00 0.110289148903932D+03
 0.110289148903932D+03 0.000000000000000D+00 0.000000000000000D+00 -.110289148903932D+03
 0.131047727913383D+03 0.106661726738496D+02 -.120235985679252D+01 0.378588705923261D+02
 0.895305698944815D+02 -.106661726738496D+02 0.120235985679252D+01 -.378588705923261D+02
 0.000000000000000D+00 -.000000000000000D+00 -.000000000000000D+00 0.000000000000000D+00
 0.111998506886260D+03 0.000000000000000D+00 0.000000000000000D+00 0.111998506886260D+03
 0.110357173537371D+03 0.000000000000000D+00 0.000000000000000D+00 -.110357173537371D+03
 0.131079942078158D+03 0.110628007819738D+02 -.112763981175213D+01 0.378588705923261D+02
 0.894994016076439D+02 -.103952805589625D+02 0.125339272766286D+01 -.378588705923261D+02
 0.177633673782943D+01 -.667520223011275D+00 -.125752915910732D+00 0.164133334888847D+01
0.254015170397D-03 0.000000000000D+00 0.000000000000D+00 0.270651017181D-02 0.000000000000D+00  5 -2 1 25 -24 21 0 0.28574747D-01 0.10075265D-01 0.10670082D+05 0.10670082D+05 0.10670082D+05 0.12650471D+01  1  2  2  2  5  2        1 0.146592082048D+00 0.100000000000D+01
-.140383278735D-04 0.000000000000D+00 -.975485138053D-06 0.270651017181D-02 0.000000000000D+00  5 -2 1 25 -24 21 2 0.28574747D-01 0.10075265D-01 0.10670082D+05 0.10670082D+05 0.10670082D+05 0.12650471D+01  1  2  3  2  5  2        1 -.129652132724D-01 0.100000000000D+01
0.174054233720D-04 0.000000000000D+00 0.000000000000D+00 0.270651017181D-02 0.000000000000D+00  5 -2 1 25 -24 21 2 0.28574747D-01 0.10075265D-01 0.10670082D+05 0.10670082D+05 0.10670082D+05 0.12650471D+01  1  2 15  2  5  2        1 0.160749220383D-01 0.100000000000D+01
-.281136759810D-03 0.000000000000D+00 0.000000000000D+00 0.270651017181D-02 0.000000000000D+00  5 -2 1 25 -24 21 2 0.28574747D-01 0.10075265D-01 0.10670082D+05 0.10670082D+05 0.10670082D+05 0.12650471D+01  1  2  4  2  5  2        1 -.259646168866D+00 0.100000000000D+01
0.145958289846D-10 0.000000000000D+00 0.000000000000D+00 0.270651017181D-02 0.000000000000D+00  5 -2 1 25 -24 21 2 0.28574747D-01 0.10238534D-01 0.10670082D+05 0.10670082D+05 0.10670082D+05 0.12650471D+01  1  2  5  2  5  2        1 0.131983763467D-07 0.100000000000D+01
-.145939433606D-10 0.000000000000D+00 0.000000000000D+00 0.270651017181D-02 0.000000000000D+00  5 -2 1 25 -24 21 2 0.28574747D-01 0.10075265D-01 0.10670082D+05 0.10670082D+05 0.10670082D+05 0.12650471D+01  1  2  6  2  5  2        1 -.134783565294D-07 0.100000000000D+01
0.281171095598D-03 0.000000000000D+00 0.000000000000D+00 0.270651017181D-02 0.500457867544D-01  5 -2 1 25 -24 21 2 0.29017623D-01 0.10081479D-01 0.10740285D+05 0.10740285D+05 0.10740285D+05 0.12647085D+01  1  2 11  2  5  2        1 0.252412978345D+00 0.100000000000D+01
0.411126063770D-05 0.000000000000D+00 0.000000000000D+00 0.270651017181D-02 0.582692060414D-05  5 -2 21 25 -24 -1 2 0.29017623D-01 0.10081479D-01 0.10740285D+05 0.10740285D+05 0.10740285D+05 0.12647085D+01  1  2 11  4  5  2        1 0.446068217420D-01 0.100000000000D+01
  </mgrwgt>
  </event>
  <event>
  4     66 0.46019439E-03 0.10326601E+03 0.75467711E-02 0.11579391E+00
       -2 -1    0    0    0  501 0.00000000E+00 0.00000000E+00 0.81893022E+03 0.81893028E+03 0.32000000E+00 0.0000E+00 0.9000E+01
        1 -1    0    0  501    0 0.00000000E+00 0.00000000E+00 -.13282129E+02 0.13285983E+02 0.32000000E+00 0.0000E+00 0.9000E+01
       25  1    1    2    0    0 0.10451377E+02 -.23491593E+00 0.54474559E+03 0.55900093E+03 0.12500000E+03 0.0000E+00 0.9000E+01
      -24  1    1    2    0    0 -.10451377E+02 0.23491593E+00 0.26090250E+03 0.27321533E+03 0.80419002E+02 0.0000E+00 0.9000E+01
#aMCatNLO 1  0  0  2  2 0.13460214D+03 0.00000000D+00  -5  5  0 0.00000000D+00 0.00000000D+00 0.00000000D+00 0.00000000D+00 0.00000000D+00
  <mgrwgt>
 0.2031252678D+00    5    2    0
 0.104301325865479D+03 0.000000000000000D+00 0.000000000000000D+00 0.104301325865479D+03
 0.104301325865479D+03 0.000000000000000D+00 0.000000000000000D+00 -.104301325865479D+03
 0.126251631793135D+03 0.104513771344993D+02 -.234915925923647D+00 0.143243869303204D+02
 0.823510199378238D+02 -.104513771344993D+02 0.234915925923647D+00 -.143243869303204D+02
 0.000000000000000D+00 0.000000000000000D+00 0.000000000000000D+00 -.000000000000000D+00
 0.162395462177132D+03 0.000000000000000D+00 0.000000000000000D+00 0.162395462177132D+03
 0.242497788724801D+03 0.000000000000000D+00 0.000000000000000D+00 -.242497788724801D+03
 0.143644052595551D+03 -.677941771429166D+02 -.144005323047041D+02 0.143243869303204D+02
 0.104615492073256D+03 -.646549054226876D+02 -.957811939854421D+01 -.143243869303204D+02
 0.156633706233126D+03 0.132449082565604D+03 0.239786517032483D+02 -.801023265476690D+02
0.723357087429D-03 0.000000000000D+00 0.000000000000D+00 0.313738267787D-02 0.000000000000D+00  5 -2 1 25 -24 21 0 0.12598957D+00 0.20437057D-02 0.10663869D+05 0.10663869D+05 0.10663869D+05 0.12650772D+01  1  2  2  2  5  2        1 0.170841942471D+00 0.100000000000D+01
-.401816423982D-04 0.000000000000D+00 -.277788168002D-05 0.313738267787D-02 0.000000000000D+00  5 -2 1 25 -24 21 2 0.12598957D+00 0.20437057D-02 0.10663869D+05 0.10663869D+05 0.10663869D+05 0.12650772D+01  1  2  3  2  5  2        1 -.151881027504D-01 0.100000000000D+01
0.496007746531D-04 0.000000000000D+00 0.000000000000D+00 0.313738267787D-02 0.000000000000D+00  5 -2 1 25 -24 21 2 0.12598957D+00 0.20437057D-02 0.10663869D+05 0.10663869D+05 0.10663869D+05 0.12650772D+01  1  2 15  2  5  2        1 0.187484039219D-01 0.100000000000D+01
0.109531697121D-03 0.000000000000D+00 -.324816892883D-03 0.313738267787D-02 0.000000000000D+00  5 -2 1 25 -24 21 2 0.12598957D+00 0.75114112D-02 0.10663869D+05 0.10663869D+05 0.10663869D+05 0.12650772D+01  1  2  5  2  5  2        1 0.701904148055D-02 0.100000000000D+01
0.249160805268D-04 0.000000000000D+00 -.498539289788D-04 0.313738267787D-02 0.000000000000D+00  5 -2 21 25 -24 -1 2 0.12598957D+00 0.75114112D-02 0.10663869D+05 0.10663869D+05 0.10663869D+05 0.12650772D+01  1  2  5  4  5  2        1 0.217039826860D-01 0.100000000000D+01
  </mgrwgt>
  </event>
  <event>
  4     66 0.46019439E-03 0.13379408E+03 0.75467711E-02 0.11321964E+00
       -2 -1    0    0    0  501 0.00000000E+00 0.00000000E+00 0.29856181E+02 0.29857896E+02 0.32000000E+00 0.0000E+00 0.9000E+01
        1 -1    0    0  501    0 0.00000000E+00 0.00000000E+00 -.10524632E+04 0.10524633E+04 0.32000000E+00 0.0000E+00 0.9000E+01
       25  1    1    2    0    0 -.11921938E+03 -.76149957E+02 -.47813561E+03 0.51405324E+03 0.12500000E+03 0.0000E+00 0.9000E+01
      -24  1    1    2    0    0 0.11921938E+03 0.76149957E+02 -.54447142E+03 0.56826791E+03 0.80419002E+02 0.0000E+00 0.9000E+01
#aMCatNLO 1  0  0  2  1 0.83433839D+02 0.00000000D+00  -5  5  0 0.00000000D+00 0.00000000D+00 0.00000000D+00 0.00000000D+00 0.00000000D+00
  <mgrwgt>
 0.2831053401D+00    9    2    0
 0.177266709159618D+03 0.000000000000000D+00 0.000000000000000D+00 0.177266709159618D+03
 0.177266709159618D+03 0.000000000000000D+00 0.000000000000000D+00 -.177266709159618D+03
 0.190181971265295D+03 -.119219377002564D+03 -.761499567546501D+02 0.230674321878077D+02
 0.164351447053940D+03 0.119219377002564D+03 0.761499567546501D+02 -.230674321878077D+02
 0.000000000000000D+00 0.000000000000000D+00 0.000000000000000D+00 -.000000000000000D+00
 0.203532507860767D+03 0.000000000000000D+00 0.000000000000000D+00 0.203532507860767D+03
 0.263343571729725D+03 0.000000000000000D+00 0.000000000000000D+00 -.263343571729725D+03
 0.223539205965950D+03 -.167243931628096D+03 -.764338767152691D+02 0.230674321878077D+02
 0.140679341422550D+03 0.838115502587310D+02 0.759406265723486D+02 -.230674321878077D+02
 0.102657532201993D+03 0.834323813693650D+02 0.493250142920478D+00 -.598110638689575D+02
0.767376131902D-03 0.000000000000D+00 0.000000000000D+00 0.221022606170D-02 0.000000000000D+00  5 -2 1 25 -24 21 0 0.45933942D-02 0.16191755D+00 0.30888491D+05 0.30888491D+05 0.30888491D+05 0.12135703D+01  1  2  2  2  5  2        1 0.217867345390D+00 0.100000000000D+01
-.426281861625D-04 0.000000000000D+00 -.294692640128D-05 0.221022606170D-02 0.000000000000D+00  5 -2 1 25 -24 21 2 0.45933942D-02 0.16191755D+00 0.30888491D+05 0.30888491D+05 0.30888491D+05 0.12135703D+01  1  2  3  2  5  2        1 -.178242225702D-01 0.100000000000D+01
0.527417273233D-04 0.000000000000D+00 0.000000000000D+00 0.221022606170D-02 0.000000000000D+00  5 -2 1 25 -24 21 2 0.45933942D-02 0.16191755D+00 0.30888491D+05 0.30888491D+05 0.30888491D+05 0.12135703D+01  1  2 15  2  5  2        1 0.220530210449D-01 0.100000000000D+01
0.436706145500D-03 0.000000000000D+00 0.000000000000D+00 0.221022606170D-02 0.000000000000D+00  5 -2 1 25 -24 21 2 0.45933942D-02 0.24787481D+00 0.49407271D+05 0.49407271D+05 0.49407271D+05 0.11927950D+01  1  2 12  2  5  2        1 0.737628498168D-01 0.100000000000D+01
-.631941606151D-03 0.000000000000D+00 0.000000000000D+00 0.221022606170D-02 0.000000000000D+00  5 -2 1 25 -24 21 2 0.45933942D-02 0.16191755D+00 0.30888491D+05 0.30888491D+05 0.30888491D+05 0.12135703D+01  1  2  4  2  5  2        1 -.264235212741D+00 0.100000000000D+01
-.853226221727D-03 0.000000000000D+00 -.319024738297D-03 0.221022606170D-02 0.000000000000D+00  5 -2 1 25 -24 21 2 0.45933942D-02 0.25749537D+00 0.30888491D+05 0.30888491D+05 0.30888491D+05 0.12135703D+01  1  2  5  2  5  2        1 -.136308574848D+00 0.100000000000D+01
0.930758844127D-03 0.000000000000D+00 0.287525682904D-03 0.221022606170D-02 0.000000000000D+00  5 -2 1 25 -24 21 2 0.45933942D-02 0.16191755D+00 0.30888491D+05 0.30888491D+05 0.30888491D+05 0.12135703D+01  1  2  6  2  5  2        1 0.389180359063D+00 0.100000000000D+01
0.217715444832D-04 0.000000000000D+00 0.000000000000D+00 0.221022606170D-02 0.000000000000D+00  5 -2 21 25 -24 -1 2 0.45933942D-02 0.24787481D+00 0.49407271D+05 0.49407271D+05 0.49407271D+05 0.11927950D+01  1  2 12  4  5  2        1 0.359896328995D-02 0.100000000000D+01
-.321995941835D-04 0.000000000000D+00 -.169676351323D-04 0.221022606170D-02 0.000000000000D+00  5 -2 21 25 -24 -1 2 0.45933942D-02 0.25749537D+00 0.30888491D+05 0.30888491D+05 0.30888491D+05 0.12135703D+01  1  2  5  4  5  2        1 -.498918831995D-02 0.100000000000D+01
  </mgrwgt>
  </event>
  <event>
  4     66 0.46019439E-03 0.13969215E+03 0.75467711E-02 0.11057229E+00
       -2 -1    0    0    0  501 0.00000000E+00 0.00000000E+00 0.91215623E+02 0.91216184E+02 0.32000000E+00 0.0000E+00 0.9000E+01
        1 -1    0    0  501    0 0.00000000E+00 0.00000000E+00 -.21682192E+03 0.21682216E+03 0.32000000E+00 0.0000E+00 0.9000E+01
       25  1    1    2    0    0 -.93154517E+02 0.76571171E+01 -.52407410E+02 0.16464487E+03 0.12500000E+03 0.0000E+00 0.9000E+01
      -24  1    1    2    0    0 0.93154517E+02 -.76571171E+01 -.73198888E+02 0.14339347E+03 0.80419002E+02 0.0000E+00 0.9000E+01
#aMCatNLO 1  0  0  2  2 0.18804921D+03 0.00000000D+00  -5  5  0 0.00000000D+00 0.00000000D+00 0.00000000D+00 0.00000000D+00 0.00000000D+00
  <mgrwgt>
 0.2000202045D+00    5    2    0
 0.140633101864322D+03 0.000000000000000D+00 0.000000000000000D+00 0.140633101864322D+03
 0.140633101864322D+03 0.000000000000000D+00 0.000000000000000D+00 -.140633101864322D+03
 0.156912668915443D+03 -.931545165326432D+02 0.765711712104623D+01 0.161304145368794D+02
 0.124353534813201D+03 0.931545165326432D+02 -.765711712104623D+01 -.161304145368794D+02
 0.000000000000000D+00 -.000000000000000D+00 -.000000000000000D+00 -.000000000000000D+00
 0.231944910002031D+03 0.000000000000000D+00 0.000000000000000D+00 0.231944910002031D+03
 0.309998723757724D+03 0.000000000000000D+00 0.000000000000000D+00 -.309998723757724D+03
 0.129494923753537D+03 -.874457211638554D+01 0.284126285884296D+02 0.161304145368794D+02
 0.208843935535851D+03 0.191354357150372D+03 0.164891837932798D+02 -.161304145368794D+02
 0.203604774470368D+03 -.182609785033986D+03 -.449018123817094D+02 -.780538137556926D+02
0.431102830539D-03 0.000000000000D+00 0.000000000000D+00 0.246476967090D-02 0.000000000000D+00  5 -2 1 25 -24 21 0 0.14033234D-01 0.33357280D-01 0.19513897D+05 0.19513897D+05 0.19513897D+05 0.12350042D+01  1  2  2  2  5  2        1 0.183891315103D+00 0.100000000000D+01
-.239488448596D-04 0.000000000000D+00 -.165554838125D-05 0.246476967090D-02 0.000000000000D+00  5 -2 1 25 -24 21 2 0.14033234D-01 0.33357280D-01 0.19513897D+05 0.19513897D+05 0.19513897D+05 0.12350042D+01  1  2  3  2  5  2        1 -.155812320678D-01 0.100000000000D+01
0.297682950896D-04 0.000000000000D+00 0.000000000000D+00 0.246476967090D-02 0.000000000000D+00  5 -2 1 25 -24 21 2 0.14033234D-01 0.33357280D-01 0.19513897D+05 0.19513897D+05 0.19513897D+05 0.12350042D+01  1  2 15  2  5  2        1 0.193673939922D-01 0.100000000000D+01
0.582125859458D-04 0.000000000000D+00 -.179978842887D-03 0.246476967090D-02 0.000000000000D+00  5 -2 1 25 -24 21 2 0.14033234D-01 0.11196153D+00 0.19513897D+05 0.19513897D+05 0.19513897D+05 0.12350042D+01  1  2  5  2  5  2        1 0.795001163882D-02 0.100000000000D+01
0.149340817873D-04 0.000000000000D+00 -.253142514838D-04 0.246476967090D-02 0.000000000000D+00  5 -2 21 25 -24 -1 2 0.14033234D-01 0.11196153D+00 0.19513897D+05 0.19513897D+05 0.19513897D+05 0.12350042D+01  1  2  5  4  5  2        1 0.439271578746D-02 0.100000000000D+01
  </mgrwgt>
  </event>
  <event>
  4     66 0.46019439E-03 0.10069713E+03 0.75467711E-02 0.12660254E+00
       -2 -1    0    0    0  501 0.00000000E+00 0.00000000E+00 0.47434184E+01 0.47542000E+01 0.32000000E+00 0.0000E+00 0.9000E+01
        1 -1    0    0  501    0 0.00000000E+00 0.00000000E+00 -.25816286E+04 0.25816287E+04 0.32000000E+00 0.0000E+00 0.9000E+01
       25  1    1    2    0    0 0.26964312E+02 -.11566198E+02 -.18553052E+04 0.18597428E+04 0.12500000E+03 0.0000E+00 0.9000E+01
      -24  1    1    2    0    0 -.26964312E+02 0.11566198E+02 -.72158004E+03 0.72664009E+03 0.80419002E+02 0.0000E+00 0.9000E+01
#aMCatNLO 1  0  0  2  2 0.21023977D+00 0.00000000D+00  -5  5  0 0.00000000D+00 0.00000000D+00 0.00000000D+00 0.00000000D+00 0.00000000D+00
  <mgrwgt>
 0.7003315473D+00    9    2    0
 0.110723588545672D+03 0.000000000000000D+00 0.000000000000000D+00 0.110723588545672D+03
 0.110723588545672D+03 0.000000000000000D+00 0.000000000000000D+00 -.110723588545672D+03
 0.131400718337785D+03 0.269643122119265D+02 -.115661977455881D+02 -.279338095564064D+02
 0.900464587535591D+02 -.269643122119265D+02 0.115661977455881D+02 0.279338095564064D+02
 0.000000000000000D+00 0.000000000000000D+00 0.000000000000000D+00 -.000000000000000D+00
 0.110787438923195D+03 0.000000000000000D+00 0.000000000000000D+00 0.110787438923195D+03
 0.110896837614881D+03 0.000000000000000D+00 0.000000000000000D+00 -.110896837614881D+03
 0.131408622814735D+03 0.269494145929890D+02 -.116900593166488D+02 -.279338095564064D+02
 0.900386540763665D+02 -.269745205225424D+02 0.114813239549461D+02 0.279338095564064D+02
 0.236999646975315D+00 0.251059295533280D-01 0.208735361702671D+00 -.109398691685697D+00
0.209962795987D-03 0.000000000000D+00 0.000000000000D+00 0.283194467513D-02 0.000000000000D+00  5 -2 1 25 -24 21 0 0.73058755D-03 0.39717447D+00 0.11449146D+05 0.11449146D+05 0.11449146D+05 0.12614230D+01  1  2  2  2  5  2        1 0.860418371156D-01 0.100000000000D+01
-.116480097923D-04 0.000000000000D+00 -.806312421063D-06 0.283194467513D-02 0.000000000000D+00  5 -2 1 25 -24 21 2 0.73058755D-03 0.39717447D+00 0.11449146D+05 0.11449146D+05 0.11449146D+05 0.12614230D+01  1  2  3  2  5  2        1 -.759522294369D-02 0.100000000000D+01
0.145304960372D-04 0.000000000000D+00 0.000000000000D+00 0.283194467513D-02 0.000000000000D+00  5 -2 1 25 -24 21 2 0.73058755D-03 0.39717447D+00 0.11449146D+05 0.11449146D+05 0.11449146D+05 0.12614230D+01  1  2 15  2  5  2        1 0.947478228921D-02 0.100000000000D+01
-.246572913091D-01 0.000000000000D+00 0.000000000000D+00 0.283194467513D-02 0.000000000000D+00  5 -2 1 25 -24 21 2 0.73058755D-03 0.39717447D+00 0.11449146D+05 0.11449146D+05 0.11449146D+05 0.12614230D+01  1  2  4  2  5  2        1 -.160780792616D+02 0.100000000000D+01
-.163560351748D+00 0.000000000000D+00 -.118794188843D-01 0.283194467513D-02 0.000000000000D+00  5 -2 1 25 -24 21 2 0.73058755D-03 0.39787796D+00 0.11449146D+05 0.11449146D+05 0.11449146D+05 0.12614230D+01  1  2  5  2  5  2        1 -.105921800273D+03 0.100000000000D+01
0.163581136888D+00 0.000000000000D+00 0.118794002827D-01 0.283194467513D-02 0.000000000000D+00  5 -2 1 25 -24 21 2 0.73058755D-03 0.39717447D+00 0.11449146D+05 0.11449146D+05 0.11449146D+05 0.12614230D+01  1  2  6  2  5  2        1 0.106665020566D+03 0.100000000000D+01
0.246573274636D-01 0.000000000000D+00 0.000000000000D+00 0.283194467513D-02 0.543634091975D+00  5 -2 1 25 -24 21 2 0.73100886D-03 0.39779593D+00 0.11471640D+05 0.11471640D+05 0.11471640D+05 0.12613225D+01  1  2 11  2  5  2        1 0.159655455530D+02 0.100000000000D+01
-.541138581897D-04 0.000000000000D+00 -.393131066375D-05 0.283194467513D-02 0.000000000000D+00  5 -2 21 25 -24 -1 2 0.73058755D-03 0.39787796D+00 0.11449146D+05 0.11449146D+05 0.11449146D+05 0.12614230D+01  1  2  5  4  5  2        1 -.218393352235D-01 0.100000000000D+01
0.882836736459D-05 0.000000000000D+00 0.000000000000D+00 0.283194467513D-02 0.159035484306D-03  5 -2 21 25 -24 -1 2 0.73100886D-03 0.39779593D+00 0.11471640D+05 0.11471640D+05 0.11471640D+05 0.12613225D+01  1  2 11  4  5  2        1 0.356290245084D-02 0.100000000000D+01
  </mgrwgt>
  </event>
  <event>
  4     66 0.46019439E-03 0.10610302E+03 0.75467711E-02 0.12089850E+00
       -2 -1    0    0    0  501 0.00000000E+00 0.00000000E+00 0.12981130E+02 0.12985074E+02 0.32000000E+00 0.0000E+00 0.9000E+01
        1 -1    0    0  501    0 0.00000000E+00 0.00000000E+00 -.96789582E+03 0.96789588E+03 0.32000000E+00 0.0000E+00 0.9000E+01
       25  1    1    2    0    0 -.20921056E+01 0.25941414E+02 -.71974386E+03 0.73098123E+03 0.12500000E+03 0.0000E+00 0.9000E+01
      -24  1    1    2    0    0 0.20921056E+01 -.25941414E+02 -.23517083E+03 0.24989972E+03 0.80419002E+02 0.0000E+00 0.9000E+01
#aMCatNLO 1  0  0  1  1 0.64547204D+02 0.00000000D+00  -5  5  0 0.00000000D+00 0.00000000D+00 0.00000000D+00 0.00000000D+00 0.00000000D+00
  <mgrwgt>
 0.3217325078D+00    3    2    0
 0.112099696463075D+03 0.000000000000000D+00 0.000000000000000D+00 0.112099696463075D+03
 0.112099696463075D+03 0.000000000000000D+00 0.000000000000000D+00 -.112099696463075D+03
 0.132522998966499D+03 -.209210561807059D+01 0.259414136430429D+02 -.354966393811857D+02
 0.916763939596508D+02 0.209210561807059D+01 -.259414136430429D+02 0.354966393811857D+02
 0.000000000000000D+00 0.000000000000000D+00 0.000000000000000D+00 -.000000000000000D+00
 0.123220724408609D+03 0.000000000000000D+00 0.000000000000000D+00 0.123220724408609D+03
 0.275245050783260D+03 0.000000000000000D+00 0.000000000000000D+00 -.275245050783260D+03
 0.132420152108942D+03 -.252712590898848D+02 -.338359885464872D+01 -.354966393811857D+02
 0.100885890158448D+03 -.147546432725455D+02 -.472550100331583D+02 0.354966393811857D+02
 0.165159732924479D+03 0.400259023624303D+02 0.506386088878071D+02 -.152024326374651D+03
0.289118962642D-03 0.000000000000D+00 0.000000000000D+00 0.270599295287D-02 0.000000000000D+00  5 -2 1 25 -24 21 0 0.19974044D-02 0.14890736D+00 0.11257850D+05 0.11257850D+05 0.11257850D+05 0.12622866D+01  1  2  2  1  5  1       -2 0.315166542734D+00 0.100000000000D+01
-.160031355344D-04 0.000000000000D+00 -.111029294332D-05 0.270599295287D-02 0.000000000000D+00  5 -2 1 25 -24 21 2 0.19974044D-02 0.14890736D+00 0.11257850D+05 0.11257850D+05 0.11257850D+05 0.12622866D+01  1  2  3  1  5  1       -2 -.277961433365D-01 0.100000000000D+01
0.197833732279D-04 0.000000000000D+00 0.000000000000D+00 0.270599295287D-02 0.000000000000D+00  5 -2 1 25 -24 21 2 0.19974044D-02 0.14890736D+00 0.11257850D+05 0.11257850D+05 0.11257850D+05 0.12622866D+01  1  2 15  1  5  1       -2 0.343621083969D-01 0.100000000000D+01
  </mgrwgt>
  </event>
  <event>
  4     66 0.46019439E-03 0.10922441E+03 0.75467711E-02 0.11065976E+00
       -2 -1    0    0    0  501 0.00000000E+00 0.00000000E+00 0.30670983E+02 0.30672652E+02 0.32000000E+00 0.0000E+00 0.9000E+01
        1 -1    0    0  501    0 0.00000000E+00 0.00000000E+00 -.41157901E+03 0.41157914E+03 0.32000000E+00 0.0000E+00 0.9000E+01
       25  1    1    2    0    0 -.32796240E+02 0.15736308E+02 -.27592934E+03 0.30509871E+03 0.12500000E+03 0.0000E+00 0.9000E+01
      -24  1    1    2    0    0 0.32796240E+02 -.15736308E+02 -.10497869E+03 0.13715308E+03 0.80419002E+02 0.0000E+00 0.9000E+01
#aMCatNLO 1  0  0  2  1 0.21533720D+03 0.00000000D+00  -5  5  0 0.00000000D+00 0.00000000D+00 0.00000000D+00 0.00000000D+00 0.00000000D+00
  <mgrwgt>
 0.2270514189D+00    3    2    0
 0.112356261302930D+03 0.000000000000000D+00 0.000000000000000D+00 0.112356261302930D+03
 0.112356261302930D+03 0.000000000000000D+00 0.000000000000000D+00 -.112356261302930D+03
 0.132732927319207D+03 -.327962401035658D+02 0.157363079723602D+02 -.258805958431081D+02
 0.919795952866534D+02 0.327962401035658D+02 -.157363079723602D+02 0.258805958431081D+02
 0.000000000000000D+00 0.000000000000000D+00 -.000000000000000D+00 0.000000000000000D+00
 0.338157512522993D+03 0.000000000000000D+00 0.000000000000000D+00 0.338157512522993D+03
 0.219122758271344D+03 0.000000000000000D+00 0.000000000000000D+00 -.219122758271344D+03
 0.200763341035458D+03 -.407765728652133D+02 0.149493762304295D+03 -.258805958431081D+02
 0.110469411577784D+03 0.279517767756431D+02 0.654611936483107D+02 0.258805958431081D+02
 0.246047518181095D+03 0.128247960895702D+02 -.214954955952606D+03 0.119034754251649D+03
0.217186379740D-03 0.000000000000D+00 0.000000000000D+00 0.281766819469D-02 0.000000000000D+00  5 -2 1 25 -24 21 0 0.47187507D-02 0.63319986D-01 0.11929972D+05 0.11929972D+05 0.11929972D+05 0.12593221D+01  1  2  2  2  5  2        1 0.222265034566D+00 0.100000000000D+01
-.120541853917D-04 0.000000000000D+00 -.834052884687D-06 0.281766819469D-02 0.000000000000D+00  5 -2 1 25 -24 21 2 0.47187507D-02 0.63319986D-01 0.11929972D+05 0.11929972D+05 0.11929972D+05 0.12593221D+01  1  2  3  2  5  2        1 -.195636591536D-01 0.100000000000D+01
0.150033251210D-04 0.000000000000D+00 0.000000000000D+00 0.281766819469D-02 0.000000000000D+00  5 -2 1 25 -24 21 2 0.47187507D-02 0.63319986D-01 0.11929972D+05 0.11929972D+05 0.11929972D+05 0.12593221D+01  1  2 15  2  5  2        1 0.243500435162D-01 0.100000000000D+01
  </mgrwgt>
  </event>
  <event>
  5     66 0.46019439E-03 0.15423228E+03 0.75467711E-02 0.11673208E+00
       21 -1    0    0  502  501 0.00000000E+00 0.00000000E+00 0.77071215E+02 0.77074864E+02 0.75000000E+00 0.0000E+00 0.9000E+01
        1 -1    0    0  501    0 0.00000000E+00 0.00000000E+00 -.10500020E+04 0.10500020E+04 0.32000000E+00 0.0000E+00 0.9000E+01
       25  1    1    2    0    0 0.46809172E+02 0.98799532E+02 -.72970959E+02 0.18138965E+03 0.12500000E+03 0.0000E+00 0.9000E+01
      -24  1    1    2    0    0 -.41788904E+01 -.12216654E+03 -.22135892E+03 0.26534716E+03 0.80419002E+02 0.0000E+00 0.9000E+01
        2  1    1    2  502    0 -.42630282E+02 0.23367010E+02 -.67860086E+03 0.68034005E+03 0.32000000E+00 0.0000E+00 0.9000E+01
#aMCatNLO 2  0  0  1  1 0.48614381D+02 0.00000000D+00  -5  5  0 0.00000000D+00 0.00000000D+00 0.00000000D+00 0.00000000D+00 0.00000000D+00
  <mgrwgt>
 0.5714626497D-01    1    2    0
 0.166268115187187D+03 0.000000000000000D+00 0.000000000000000D+00 0.166268115187187D+03
 0.166268115187187D+03 0.000000000000000D+00 0.000000000000000D+00 -.166268115187187D+03
 0.180037718630576D+03 0.240309733053887D+02 0.111284985392998D+03 0.618606860435480D+02
 0.152498511743797D+03 -.240309733053887D+02 -.111284985392998D+03 -.618606860435480D+02
 0.000000000000000D+00 -.000000000000000D+00 0.000000000000000D+00 -.000000000000000D+00
 0.169952945904426D+03 0.000000000000000D+00 0.000000000000000D+00 0.169952945904426D+03
 0.476172577689168D+03 0.000000000000000D+00 0.000000000000000D+00 -.476172577689168D+03
 0.177212275435408D+03 0.468091719503172D+02 0.987995319247118D+02 0.618606860435480D+02
 0.158858703037092D+03 -.417889043453259D+01 -.122166541954883D+03 -.618606860435480D+02
 0.310054545121094D+03 -.426302815157846D+02 0.233670100301708D+02 -.306219631784743D+03
0.392020219827D-04 0.000000000000D+00 0.000000000000D+00 0.200430620026D-02 0.598992565539D-07  5 21 1 25 -24 2 2 0.11857389D-01 0.16153897D+00 0.32579940D+05 0.32579940D+05 0.32579940D+05 0.12111559D+01  1  2  1  3  5  1       -2 0.571462649719D-01 0.100000000000D+01
  </mgrwgt>
  </event>
  <event>
  4     66 0.46019439E-03 0.10783896E+03 0.75467711E-02 0.12352671E+00
       -2 -1    0    0    0  501 0.00000000E+00 0.00000000E+00 0.46216964E+02 0.46218072E+02 0.32000000E+00 0.0000E+00 0.9000E+01
        1 -1    0    0  501    0 0.00000000E+00 0.00000000E+00 -.29279330E+03 0.29279348E+03 0.32000000E+00 0.0000E+00 0.9000E+01
       25  1    1    2    0    0 -.14273967E+02 0.28811618E+02 -.81649127E+02 0.15272667E+03 0.12500000E+03 0.0000E+00 0.9000E+01
      -24  1    1    2    0    0 0.14273967E+02 -.28811618E+02 -.16492721E+03 0.18628488E+03 0.80419002E+02 0.0000E+00 0.9000E+01
#aMCatNLO 1  0  0  1  1 0.31756361D+02 0.00000000D+00  -5  5  0 0.00000000D+00 0.00000000D+00 0.00000000D+00 0.00000000D+00 0.00000000D+00
  <mgrwgt>
 0.9631375965D-01    4    2    0
 0.116328134760845D+03 0.000000000000000D+00 0.000000000000000D+00 0.116328134760845D+03
 0.116328134760845D+03 0.000000000000000D+00 0.000000000000000D+00 -.116328134760845D+03
 0.136009065914037D+03 -.142739674183861D+02 0.288116180007689D+02 0.428906811921359D+02
 0.966472036076541D+02 0.142739674183861D+02 -.288116180007689D+02 -.428906811921359D+02
 0.000000000000000D+00 0.000000000000000D+00 0.000000000000000D+00 -.000000000000000D+00
 0.129939662821049D+03 0.000000000000000D+00 0.000000000000000D+00 0.129939662821049D+03
 0.137523184969102D+03 0.000000000000000D+00 0.000000000000000D+00 -.137523184969102D+03
 0.137505729285314D+03 -.313419269795363D+02 0.214685506350560D+02 0.428906811921359D+02
 0.973078269252071D+02 0.217072227070136D+01 -.340187398096043D+02 -.428906811921359D+02
 0.326492915796301D+02 0.291712047088349D+02 0.125501891745484D+02 -.758352214805223D+01
0.238683697673D-03 0.000000000000D+00 0.000000000000D+00 0.252516083869D-02 0.000000000000D+00  5 -2 1 25 -24 21 0 0.71104008D-02 0.45045222D-01 0.11629241D+05 0.11629241D+05 0.11629241D+05 0.12606247D+01  1  2  2  1  5  1       -2 0.200712240804D+00 0.100000000000D+01
-.131676302127D-04 0.000000000000D+00 -.916608245924D-06 0.252516083869D-02 0.000000000000D+00  5 -2 1 25 -24 21 2 0.71104008D-02 0.45045222D-01 0.11629241D+05 0.11629241D+05 0.11629241D+05 0.12606247D+01  1  2  3  1  5  1       -2 -.175966630797D-01 0.100000000000D+01
0.163574156661D-04 0.000000000000D+00 0.000000000000D+00 0.252516083869D-02 0.000000000000D+00  5 -2 1 25 -24 21 2 0.71104008D-02 0.45045222D-01 0.11629241D+05 0.11629241D+05 0.11629241D+05 0.12606247D+01  1  2 15  1  5  1       -2 0.218593572026D-01 0.100000000000D+01
-.813114491136D-04 0.000000000000D+00 0.000000000000D+00 0.252516083869D-02 0.000000000000D+00  5 -2 1 25 -24 21 2 0.71104008D-02 0.45045222D-01 0.11629241D+05 0.11629241D+05 0.11629241D+05 0.12606247D+01  1  2  4  1  5  1       -2 -.108661175281D+00 0.100000000000D+01
  </mgrwgt>
  </event>
  <event>
  5     66 0.46019439E-03 0.12720174E+03 0.75467711E-02 0.11410492E+00
       -2 -1    0    0    0  501 0.00000000E+00 0.00000000E+00 0.12208759E+03 0.12208801E+03 0.32000000E+00 0.0000E+00 0.9000E+01
        1 -1    0    0  502    0 0.00000000E+00 0.00000000E+00 -.41202194E+03 0.41202206E+03 0.32000000E+00 0.0000E+00 0.9000E+01
       25  1    1    2    0    0 0.53897302E+02 -.69082894E+02 -.78149223E+02 0.17149247E+03 0.12500000E+03 0.0000E+00 0.9000E+01
      -24  1    1    2    0    0 -.90578404E+02 -.59494657E+02 -.18037252E+03 0.22526767E+03 0.80419002E+02 0.0000E+00 0.9000E+01
       21  1    1    2  502  501 0.36681102E+02 0.12857755E+03 -.31412608E+02 0.13734993E+03 0.75000000E+00 0.0000E+00 0.9000E+01
#aMCatNLO 2  0  0  2  2 0.13370748D+03 0.00000000D+00  -5  5  0 0.00000000D+00 0.00000000D+00 0.00000000D+00 0.00000000D+00 0.00000000D+00
  <mgrwgt>
 0.1439586382D-01    1    2    0
 0.134821572584359D+03 0.000000000000000D+00 0.000000000000000D+00 0.134821572584359D+03
 0.134821572584359D+03 0.000000000000000D+00 0.000000000000000D+00 -.134821572584359D+03
 0.151802875854463D+03 0.738731548316802D+02 0.938072675977970D+00 0.442830682378125D+02
 0.117840269314255D+03 -.738731548316802D+02 -.938072675977970D+00 -.442830682378125D+02
 0.000000000000000D+00 0.000000000000000D+00 0.000000000000000D+00 0.000000000000000D+00
 0.265809390284304D+03 0.000000000000000D+00 0.000000000000000D+00 0.265809390284304D+03
 0.189242636185956D+03 0.000000000000000D+00 0.000000000000000D+00 -.189242636185956D+03
 0.158944504649190D+03 0.538973020240645D+02 -.690828941211096D+02 0.442830682378125D+02
 0.142029107997619D+03 -.905784040343447D+02 -.594946565185910D+02 -.442830682378125D+02
 0.154078413823450D+03 0.366811020102802D+02 0.128577550639701D+03 0.765667540983481D+02
0.839923749683D-04 0.000000000000D+00 0.000000000000D+00 0.231225530941D-02 0.130796231331D-05  5 -2 1 25 -24 21 2 0.18782666D-01 0.63387755D-01 0.44375059D+05 0.44375059D+05 0.44375059D+05 0.11974493D+01  1  2  1  2  5  2        1 0.143958638212D-01 0.100000000000D+01
  </mgrwgt>
  </event>
  <event>
  4     66 0.46019439E-03 0.11377821E+03 0.75467711E-02 0.12072860E+00
       -2 -1    0    0    0  501 0.00000000E+00 0.00000000E+00 0.63549031E+01 0.63629548E+01 0.32000000E+00 0.0000E+00 0.9000E+01
        1 -1    0    0  501    0 0.00000000E+00 0.00000000E+00 -.25821190E+04 0.25821190E+04 0.32000000E+00 0.0000E+00 0.9000E+01
       25  1    1    2    0    0 -.15200251E+02 0.45532640E+02 -.20553960E+04 0.20597529E+04 0.12500000E+03 0.0000E+00 0.9000E+01
      -24  1    1    2    0    0 0.15200251E+02 -.45532640E+02 -.52036815E+03 0.52872914E+03 0.80419002E+02 0.0000E+00 0.9000E+01
#aMCatNLO 1  0  0  2  1 0.55180000D+02 0.00000000D+00  -5  5  0 0.00000000D+00 0.00000000D+00 0.00000000D+00 0.00000000D+00 0.00000000D+00
  <mgrwgt>
 0.1552737659D+00    4    2    0
 0.128138841200822D+03 0.000000000000000D+00 0.000000000000000D+00 0.128138841200822D+03
 0.128138841200822D+03 0.000000000000000D+00 0.000000000000000D+00 -.128138841200822D+03
 0.146005757976035D+03 -.152002507367441D+02 0.455326403845361D+02 -.582100712876140D+02
 0.110271924425608D+03 0.152002507367441D+02 -.455326403845361D+02 0.582100712876140D+02
 0.000000000000000D+00 -.000000000000000D+00 -.000000000000000D+00 0.000000000000000D+00
 0.172452977769796D+03 0.000000000000000D+00 0.000000000000000D+00 0.172452977769796D+03
 0.149472089524562D+03 0.000000000000000D+00 0.000000000000000D+00 -.149472089524562D+03
 0.151258362936467D+03 0.124483790535024D+02 0.609156615153383D+02 -.582100712876140D+02
 0.110892515284460D+03 0.357708251388626D+02 -.340876760915079D+02 0.582100712876140D+02
 0.597741890734300D+02 -.482192041923650D+02 -.268279854238303D+02 0.229808882452335D+02
0.911283304033D-03 0.000000000000D+00 0.000000000000D+00 0.216581771142D-02 0.000000000000D+00  5 -2 1 25 -24 21 0 0.97829829D-03 0.39724970D+00 0.12945482D+05 0.12945482D+05 0.12945482D+05 0.12551822D+01  1  2  2  2  5  2        1 0.246751983308D+00 0.100000000000D+01
-.497571729659D-04 0.000000000000D+00 -.349956783389D-05 0.216581771142D-02 0.000000000000D+00  5 -2 1 25 -24 21 2 0.97829829D-03 0.39724970D+00 0.12945482D+05 0.12945482D+05 0.12945482D+05 0.12551822D+01  1  2  3  2  5  2        1 -.212264052412D-01 0.100000000000D+01
0.623127451340D-04 0.000000000000D+00 0.000000000000D+00 0.216581771142D-02 0.000000000000D+00  5 -2 1 25 -24 21 2 0.97829829D-03 0.39724970D+00 0.12945482D+05 0.12945482D+05 0.12945482D+05 0.12551822D+01  1  2 15  2  5  2        1 0.265826111305D-01 0.100000000000D+01
-.226991197635D-03 0.000000000000D+00 0.000000000000D+00 0.216581771142D-02 0.000000000000D+00  5 -2 1 25 -24 21 2 0.97829829D-03 0.39724970D+00 0.12945482D+05 0.12945482D+05 0.12945482D+05 0.12551822D+01  1  2  4  2  5  2        1 -.968344232598D-01 0.100000000000D+01
  </mgrwgt>
  </event>
  <event>
  4     66 0.46019439E-03 0.76131333E+02 0.75467711E-02 0.11531521E+00
       -2 -1    0    0    0  501 0.00000000E+00 0.00000000E+00 0.39225260E+02 0.39226565E+02 0.32000000E+00 0.0000E+00 0.9000E+01
        1 -1    0    0  501    0 0.00000000E+00 0.00000000E+00 -.92570535E+03 0.92570541E+03 0.32000000E+00 0.0000E+00 0.9000E+01
       25  1    1    2    0    0 -.11061583E+03 0.10677050E+03 -.57783016E+03 0.61085882E+03 0.12500000E+03 0.0000E+00 0.9000E+01
      -24  1    1    2    0    0 0.11061583E+03 -.10677050E+03 -.30864993E+03 0.35407316E+03 0.80419002E+02 0.0000E+00 0.9000E+01
#aMCatNLO 1  0  0  1  2 0.19842268D+02 0.00000000D+00  -5  5  0 0.00000000D+00 0.00000000D+00 0.00000000D+00 0.00000000D+00 0.00000000D+00
  <mgrwgt>
 0.1661025882D+00    9    2    0
 0.190556263912284D+03 0.000000000000000D+00 0.000000000000000D+00 0.190556263912284D+03
 0.190556263912284D+03 0.000000000000000D+00 0.000000000000000D+00 -.190556263912284D+03
 0.202570804732948D+03 -.110615833484606D+03 0.106770500289903D+03 -.421204057495163D+02
 0.178541723091620D+03 0.110615833484606D+03 -.106770500289903D+03 0.421204057495163D+02
 0.000000000000000D+00 -.000000000000000D+00 -.000000000000000D+00 0.000000000000000D+00
 0.201992351717762D+03 0.000000000000000D+00 0.000000000000000D+00 0.201992351717762D+03
 0.199619951575695D+03 0.000000000000000D+00 0.000000000000000D+00 -.199619951575695D+03
 0.203264161648596D+03 -.103691393044833D+03 0.114740079478030D+03 -.421204057495163D+02
 0.178364551198743D+03 0.116705442423283D+03 -.997617576942194D+02 0.421204057495163D+02
 0.199835904461179D+02 -.130140493784499D+02 -.149783217838102D+02 0.237240014206684D+01
0.683635768860D-03 0.000000000000D+00 0.000000000000D+00 0.209239519311D-02 0.000000000000D+00  5 -2 1 25 -24 21 0 0.60347601D-02 0.14241631D+00 0.34530113D+05 0.34530113D+05 0.34530113D+05 0.12085400D+01  1  2  2  1  5  1       -2 0.159619979507D+00 0.100000000000D+01
-.379505472010D-04 0.000000000000D+00 -.262534135785D-05 0.209239519311D-02 0.000000000000D+00  5 -2 1 25 -24 21 2 0.60347601D-02 0.14241631D+00 0.34530113D+05 0.34530113D+05 0.34530113D+05 0.12085400D+01  1  2  3  1  5  1       -2 -.129420341610D-01 0.100000000000D+01
0.470437440666D-04 0.000000000000D+00 0.000000000000D+00 0.209239519311D-02 0.000000000000D+00  5 -2 1 25 -24 21 2 0.60347601D-02 0.14241631D+00 0.34530113D+05 0.34530113D+05 0.34530113D+05 0.12085400D+01  1  2 15  1  5  1       -2 0.160430293547D-01 0.100000000000D+01
0.108701164765D-02 0.000000000000D+00 0.000000000000D+00 0.209239519311D-02 0.000000000000D+00  5 -2 1 25 -24 21 2 0.65328102D-02 0.14241631D+00 0.38418811D+05 0.38418811D+05 0.38418811D+05 0.12037831D+01  1  2 12  1  5  1       -2 0.325970459662D+00 0.100000000000D+01
-.911663519827D-03 0.000000000000D+00 0.000000000000D+00 0.209239519311D-02 0.000000000000D+00  5 -2 1 25 -24 21 2 0.60347601D-02 0.14241631D+00 0.34530113D+05 0.34530113D+05 0.34530113D+05 0.12085400D+01  1  2  4  1  5  1       -2 -.310898821944D+00 0.100000000000D+01
-.377079448265D-02 0.000000000000D+00 -.774644809744D-03 0.209239519311D-02 0.000000000000D+00  5 -2 1 25 -24 21 2 0.67089187D-02 0.14241631D+00 0.34530113D+05 0.34530113D+05 0.34530113D+05 0.12085400D+01  1  2  5  1  5  1       -2 -.109319749127D+01 0.100000000000D+01
0.383562565278D-02 0.000000000000D+00 0.770321130886D-03 0.209239519311D-02 0.000000000000D+00  5 -2 1 25 -24 21 2 0.60347601D-02 0.14241631D+00 0.34530113D+05 0.34530113D+05 0.34530113D+05 0.12085400D+01  1  2  6  1  5  1       -2 0.130803906368D+01 0.100000000000D+01
0.144067366147D-04 0.000000000000D+00 0.000000000000D+00 0.209239519311D-02 0.000000000000D+00  5 21 1 25 -24 2 2 0.65328102D-02 0.14241631D+00 0.38418811D+05 0.38418811D+05 0.38418811D+05 0.12037831D+01  1  2 12  3  5  1       -2 0.727098190830D-01 0.100000000000D+01
-.615006706202D-04 0.000000000000D+00 -.132183253342D-04 0.209239519311D-02 0.000000000000D+00  5 21 1 25 -24 2 2 0.67089187D-02 0.14241631D+00 0.34530113D+05 0.34530113D+05 0.34530113D+05 0.12085400D+01  1  2  5  3  5  1       -2 -.299241415697D+00 0.100000000000D+01
  </mgrwgt>
  </event>
  <event>
  4     66 0.46019439E-03 0.18114588E+03 0.75467711E-02 0.11156140E+00
       -2 -1    0    0    0  501 0.00000000E+00 0.00000000E+00 0.39775072E+02 0.39776359E+02 0.32000000E+00 0.0000E+00 0.9000E+01
        1 -1    0    0  501    0 0.00000000E+00 0.00000000E+00 -.94947346E+03 0.94947352E+03 0.32000000E+00 0.0000E+00 0.9000E+01
       25  1    1    2    0    0 0.64136957E+02 -.13346876E+03 -.66115580E+03 0.68896985E+03 0.12500000E+03 0.0000E+00 0.9000E+01
      -24  1    1    2    0    0 -.64136957E+02 0.13346876E+03 -.24854259E+03 0.30028002E+03 0.80419002E+02 0.0000E+00 0.9000E+01
#aMCatNLO 1  0  0  2  2 0.11328119D+03 0.00000000D+00  -5  5  0 0.00000000D+00 0.00000000D+00 0.00000000D+00 0.00000000D+00 0.00000000D+00
  <mgrwgt>
 0.2510377434D+00    7    2    0
 0.194334861749512D+03 0.000000000000000D+00 0.000000000000000D+00 0.194334861749512D+03
 0.194334861749512D+03 0.000000000000000D+00 0.000000000000000D+00 -.194334861749512D+03
 0.206115794881100D+03 0.641369571657942D+02 -.133468760795681D+03 -.702229415265855D+02
 0.182553928617925D+03 -.641369571657942D+02 0.133468760795681D+03 0.702229415265855D+02
 0.000000000000000D+00 -.000000000000000D+00 -.000000000000000D+00 -.000000000000000D+00
 0.256266979102486D+03 0.000000000000000D+00 0.000000000000000D+00 0.256266979102486D+03
 0.262000914762938D+03 0.000000000000000D+00 0.000000000000000D+00 -.262000914762938D+03
 0.219821317305311D+03 0.121685541745488D+03 -.113832240403601D+03 -.702229415265855D+02
 0.185020358906371D+03 -.144738041563547D+02 0.150414642678394D+03 0.702229415265855D+02
 0.113426217653742D+03 -.107211737589133D+03 -.365824022747935D+02 -.573393566045193D+01
0.937029187259D-03 0.000000000000D+00 0.000000000000D+00 0.191097343235D-02 0.000000000000D+00  5 -2 1 25 -24 21 0 0.61193450D-02 0.14607294D+00 0.32813831D+05 0.32813831D+05 0.32813831D+05 0.12108331D+01  1  2  2  2  5  2        1 0.205337594696D+00 0.100000000000D+01
-.517445500513D-04 0.000000000000D+00 -.359843880453D-05 0.191097343235D-02 0.000000000000D+00  5 -2 1 25 -24 21 2 0.61193450D-02 0.14607294D+00 0.32813831D+05 0.32813831D+05 0.32813831D+05 0.12108331D+01  1  2  3  2  5  2        1 -.166244970753D-01 0.100000000000D+01
0.644615239726D-04 0.000000000000D+00 0.000000000000D+00 0.191097343235D-02 0.000000000000D+00  5 -2 1 25 -24 21 2 0.61193450D-02 0.14607294D+00 0.32813831D+05 0.32813831D+05 0.32813831D+05 0.12108331D+01  1  2 15  2  5  2        1 0.207102084314D-01 0.100000000000D+01
-.368366872259D-03 0.000000000000D+00 0.000000000000D+00 0.191097343235D-02 0.000000000000D+00  5 -2 1 25 -24 21 2 0.61193450D-02 0.14607294D+00 0.32813831D+05 0.32813831D+05 0.32813831D+05 0.12108331D+01  1  2  4  2  5  2        1 -.118348965919D+00 0.100000000000D+01
-.598874417686D-03 0.000000000000D+00 -.388336187219D-03 0.191097343235D-02 0.000000000000D+00  5 -2 1 25 -24 21 2 0.61193450D-02 0.23652126D+00 0.32813831D+05 0.32813831D+05 0.32813831D+05 0.12108331D+01  1  2  5  2  5  2        1 -.755320178582D-01 0.100000000000D+01
0.739574285914D-03 0.000000000000D+00 0.347226525288D-03 0.191097343235D-02 0.000000000000D+00  5 -2 1 25 -24 21 2 0.61193450D-02 0.14607294D+00 0.32813831D+05 0.32813831D+05 0.32813831D+05 0.12108331D+01  1  2  6  2  5  2        1 0.237610541418D+00 0.100000000000D+01
-.160138060440D-04 0.000000000000D+00 -.212713187440D-04 0.191097343235D-02 0.000000000000D+00  5 -2 21 25 -24 -1 2 0.61193450D-02 0.23652126D+00 0.32813831D+05 0.32813831D+05 0.32813831D+05 0.12108331D+01  1  2  5  4  5  2        1 -.211512028511D-02 0.100000000000D+01
  </mgrwgt>
  </event>
  <event>
  4     66 0.46019439E-03 0.10901378E+03 0.75467711E-02 0.12189599E+00
       -4 -1    0    0    0  501 0.00000000E+00 0.00000000E+00 0.34465180E+02 0.34500016E+02 0.15500000E+01 0.0000E+00 0.9000E+01
        3 -1    0    0  501    0 0.00000000E+00 0.00000000E+00 -.41502745E+03 0.41502775E+03 0.50000000E+00 0.0000E+00 0.9000E+01
       25  1    1    2    0    0 -.15449734E+02 0.32253112E+02 -.12958298E+03 0.18356390E+03 0.12500000E+03 0.0000E+00 0.9000E+01
      -24  1    1    2    0    0 0.15449734E+02 -.32253112E+02 -.25097928E+03 0.26596386E+03 0.80419002E+02 0.0000E+00 0.9000E+01
#aMCatNLO 1  0  0  1  2 0.48909994D+02 0.00000000D+00  -5  5  0 0.00000000D+00 0.00000000D+00 0.00000000D+00 0.00000000D+00 0.00000000D+00
  <mgrwgt>
 0.1108893895D-01    4    2    0
 0.119632323632786D+03 0.000000000000000D+00 0.000000000000000D+00 0.119632323632786D+03
 0.119632323632786D+03 0.000000000000000D+00 0.000000000000000D+00 -.119632323632786D+03
 0.138769676664855D+03 -.154497335798475D+02 0.322531120592690D+02 0.485084081007868D+02
 0.100494970600717D+03 0.154497335798475D+02 -.322531120592690D+02 -.485084081007868D+02
 0.000000000000000D+00 0.000000000000000D+00 -.000000000000000D+00 -.000000000000000D+00
 0.143267704081016D+03 0.000000000000000D+00 0.000000000000000D+00 0.143267704081016D+03
 0.150367425369988D+03 0.000000000000000D+00 0.000000000000000D+00 -.150367425369988D+03
 0.148309394757922D+03 -.161759334568722D+02 0.612858066259015D+02 0.485084081007868D+02
 0.959031333966441D+02 0.149529217493510D+02 -.123911063109505D+02 -.485084081007868D+02
 0.494226012964381D+02 0.122301170752120D+01 -.488947003149510D+02 -.709972128897152D+01
0.195457807109D-03 0.000000000000D+00 0.000000000000D+00 0.239397560540D-02 0.000000000000D+00  5 -4 3 25 -24 21 0 0.53050382D-02 0.63853079D-01 0.11884005D+05 0.11884005D+05 0.11884005D+05 0.12595188D+01  1  2  2  1  5  1       -4 0.192740097017D-01 0.100000000000D+01
-.107447029631D-04 0.000000000000D+00 -.750609444522D-06 0.239397560540D-02 0.000000000000D+00  5 -4 3 25 -24 21 2 0.53050382D-02 0.63853079D-01 0.11884005D+05 0.11884005D+05 0.11884005D+05 0.12595188D+01  1  2  3  1  5  1       -4 -.168082606396D-02 0.100000000000D+01
0.134072992910D-04 0.000000000000D+00 0.000000000000D+00 0.239397560540D-02 0.000000000000D+00  5 -4 3 25 -24 21 2 0.53050382D-02 0.63853079D-01 0.11884005D+05 0.11884005D+05 0.11884005D+05 0.12595188D+01  1  2 15  1  5  1       -4 0.209734398178D-02 0.100000000000D+01
-.549857699541D-04 0.000000000000D+00 0.000000000000D+00 0.239397560540D-02 0.000000000000D+00  5 -4 3 25 -24 21 2 0.53050382D-02 0.63853079D-01 0.11884005D+05 0.11884005D+05 0.11884005D+05 0.12595188D+01  1  2  4  1  5  1       -4 -.860158867150D-02 0.100000000000D+01
  </mgrwgt>
  </event>
  <event>
  4     66 0.46019439E-03 0.24583562E+03 0.75467711E-02 0.11125981E+00
       -2 -1    0    0    0  501 0.00000000E+00 0.00000000E+00 0.43226169E+03 0.43226181E+03 0.32000000E+00 0.0000E+00 0.9000E+01
        1 -1    0    0  501    0 0.00000000E+00 0.00000000E+00 -.14798163E+03 0.14798197E+03 0.32000000E+00 0.0000E+00 0.9000E+01
       25  1    1    2    0    0 -.21038023E+03 -.72221421E+02 0.21535203E+03 0.33388213E+03 0.12500000E+03 0.0000E+00 0.9000E+01
      -24  1    1    2    0    0 0.21038023E+03 0.72221421E+02 0.68928029E+02 0.24636166E+03 0.80419002E+02 0.0000E+00 0.9000E+01
#aMCatNLO 1  0  0  1  2 0.10447062D+02 0.00000000D+00  -5  5  0 0.00000000D+00 0.00000000D+00 0.00000000D+00 0.00000000D+00 0.00000000D+00
  <mgrwgt>
 0.2216789061D+00    4    2    0
 0.252916830333677D+03 0.000000000000000D+00 0.000000000000000D+00 0.252916830333677D+03
 0.252916830333677D+03 0.000000000000000D+00 0.000000000000000D+00 -.252916830333677D+03
 0.261968999809259D+03 -.210380232767344D+03 -.722214212554636D+02 0.593883897210748D+02
 0.243864660858096D+03 0.210380232767344D+03 0.722214212554636D+02 -.593883897210748D+02
 0.000000000000000D+00 -.000000000000000D+00 -.000000000000000D+00 -.000000000000000D+00
 0.253592816580338D+03 0.000000000000000D+00 0.000000000000000D+00 0.253592816580338D+03
 0.296834187679579D+03 0.000000000000000D+00 0.000000000000000D+00 -.296834187679579D+03
 0.257922926179117D+03 -.206631443911783D+03 -.683791006234195D+02 0.593883897210748D+02
 0.248018605393283D+03 0.213927059356841D+03 0.758567406901362D+02 -.593883897210748D+02
 0.444854726875172D+02 -.729561544505835D+01 -.747764006671662D+01 -.432413710992412D+02
0.577199551270D-02 0.000000000000D+00 0.000000000000D+00 0.194776865904D-02 0.000000000000D+00  5 -2 1 25 -24 21 0 0.66501834D-01 0.22766440D-01 0.60435154D+05 0.60435154D+05 0.60435154D+05 0.11842142D+01  1  2  2  1  5  1       -2 0.233602973393D+00 0.100000000000D+01
-.320352006290D-03 0.000000000000D+00 -.221659825701D-04 0.194776865904D-02 0.000000000000D+00  5 -2 1 25 -24 21 2 0.66501834D-01 0.22766440D-01 0.60435154D+05 0.60435154D+05 0.60435154D+05 0.11842142D+01  1  2  3  1  5  1       -2 -.181819456223D-01 0.100000000000D+01
0.396405778896D-03 0.000000000000D+00 0.000000000000D+00 0.194776865904D-02 0.000000000000D+00  5 -2 1 25 -24 21 2 0.66501834D-01 0.22766440D-01 0.60435154D+05 0.60435154D+05 0.60435154D+05 0.11842142D+01  1  2 15  1  5  1       -2 0.224984647348D-01 0.100000000000D+01
-.286146738927D-03 0.000000000000D+00 0.000000000000D+00 0.194776865904D-02 0.000000000000D+00  5 -2 1 25 -24 21 2 0.66501834D-01 0.22766440D-01 0.60435154D+05 0.60435154D+05 0.60435154D+05 0.11842142D+01  1  2  4  1  5  1       -2 -.162405864331D-01 0.100000000000D+01
  </mgrwgt>
  </event>
  <event>
  4     66 0.46019439E-03 0.10645392E+03 0.75467711E-02 0.12087050E+00
       -4 -1    0    0    0  501 0.00000000E+00 0.00000000E+00 0.42550160E+03 0.42550443E+03 0.15500000E+01 0.0000E+00 0.9000E+01
        3 -1    0    0  501    0 0.00000000E+00 0.00000000E+00 -.32147013E+02 0.32150901E+02 0.50000000E+00 0.0000E+00 0.9000E+01
       25  1    1    2    0    0 0.21848912E+02 -.16476678E+02 0.32277092E+03 0.34721020E+03 0.12500000E+03 0.0000E+00 0.9000E+01
      -24  1    1    2    0    0 -.21848912E+02 0.16476678E+02 0.70583671E+02 0.11044513E+03 0.80419002E+02 0.0000E+00 0.9000E+01
#aMCatNLO 1  0  0  1  2 0.65009071D+02 0.00000000D+00  -5  5  0 0.00000000D+00 0.00000000D+00 0.00000000D+00 0.00000000D+00 0.00000000D+00
  <mgrwgt>
 0.3150685875D-01    4    2    0
 0.116962135916484D+03 0.000000000000000D+00 0.000000000000000D+00 0.116962135916484D+03
 0.116962135916484D+03 0.000000000000000D+00 0.000000000000000D+00 -.116962135916484D+03
 0.136536385253398D+03 0.218489122460186D+02 -.164766776572423D+02 0.476269737135330D+02
 0.973878865795690D+02 -.218489122460186D+02 0.164766776572423D+02 -.476269737135330D+02
 0.000000000000000D+00 -.000000000000000D+00 0.000000000000000D+00 -.000000000000000D+00
 0.153243139885095D+03 0.000000000000000D+00 0.000000000000000D+00 0.153243139885095D+03
 0.154568955867979D+03 0.000000000000000D+00 0.000000000000000D+00 -.154568955867979D+03
 0.149034474911917D+03 0.581101346375818D+02 -.306783040529176D+02 0.476269737135330D+02
 0.937550312814417D+02 0.242203699970634D+01 0.697101483831913D+01 -.476269737135330D+02
 0.650225895597153D+02 -.605321716372881D+02 0.237072892145985D+02 -.132581598288388D+01
0.549600372615D-03 0.000000000000D+00 0.000000000000D+00 0.243973183321D-02 0.000000000000D+00  5 -4 3 25 -24 21 0 0.65462301D-01 0.49462106D-02 0.11332436D+05 0.11332436D+05 0.11332436D+05 0.12619479D+01  1  2  2  1  5  1       -4 0.521304297587D-01 0.100000000000D+01
-.302043610610D-04 0.000000000000D+00 -.211061014394D-05 0.243973183321D-02 0.000000000000D+00  5 -4 3 25 -24 21 2 0.65462301D-01 0.49462106D-02 0.11332436D+05 0.11332436D+05 0.11332436D+05 0.12619479D+01  1  2  3  1  5  1       -4 -.456243610773D-02 0.100000000000D+01
0.377353612942D-04 0.000000000000D+00 0.000000000000D+00 0.243973183321D-02 0.000000000000D+00  5 -4 3 25 -24 21 2 0.65462301D-01 0.49462106D-02 0.11332436D+05 0.11332436D+05 0.11332436D+05 0.12619479D+01  1  2 15  1  5  1       -4 0.570001049051D-02 0.100000000000D+01
-.144063714436D-03 0.000000000000D+00 0.000000000000D+00 0.243973183321D-02 0.000000000000D+00  5 -4 3 25 -24 21 2 0.65462301D-01 0.49462106D-02 0.11332436D+05 0.11332436D+05 0.11332436D+05 0.12619479D+01  1  2  4  1  5  1       -4 -.217611453931D-01 0.100000000000D+01
  </mgrwgt>
  </event>
  <event>
  4     66 0.46019439E-03 0.73908555E+02 0.75467711E-02 0.12297226E+00
       -2 -1    0    0    0  501 0.00000000E+00 0.00000000E+00 0.79012458E+01 0.79077231E+01 0.32000000E+00 0.0000E+00 0.9000E+01
        1 -1    0    0  501    0 0.00000000E+00 0.00000000E+00 -.21066578E+04 0.21066579E+04 0.32000000E+00 0.0000E+00 0.9000E+01
       25  1    1    2    0    0 -.67578893E+02 0.31949001E+02 -.10441163E+04 0.10542255E+04 0.12500000E+03 0.0000E+00 0.9000E+01
      -24  1    1    2    0    0 0.67578893E+02 -.31949001E+02 -.10546403E+04 0.10603401E+04 0.80419002E+02 0.0000E+00 0.9000E+01
#aMCatNLO 1  0  0  1  2 0.15251288D+01 0.00000000D+00  -5  5  0 0.00000000D+00 0.00000000D+00 0.00000000D+00 0.00000000D+00 0.00000000D+00
  <mgrwgt>
 0.2656453713D+00    8    2    0
 0.129042998331710D+03 0.000000000000000D+00 0.000000000000000D+00 0.129042998331710D+03
 0.129042998331710D+03 0.000000000000000D+00 0.000000000000000D+00 -.129042998331710D+03
 0.146784728150497D+03 -.675788931373677D+02 0.319490005210536D+02 0.182513283420482D+02
 0.111301268512923D+03 0.675788931373677D+02 -.319490005210536D+02 -.182513283420482D+02
 0.000000000000000D+00 0.000000000000000D+00 -.000000000000000D+00 -.000000000000000D+00
 0.129617585572744D+03 0.000000000000000D+00 0.000000000000000D+00 0.129617585572744D+03
 0.130061274207345D+03 0.000000000000000D+00 0.000000000000000D+00 -.130061274207345D+03
 0.147086135827901D+03 -.678366687243376D+02 0.327781442872975D+02 0.182513283420482D+02
 0.111004367080860D+03 0.673838926363786D+02 -.313217749109399D+02 -.182513283420482D+02
 0.158835687132784D+01 0.452776087959002D+00 -.145636937635763D+01 -.443688634601560D+00
0.525676041521D-03 0.000000000000D+00 0.000000000000D+00 0.258781171346D-02 0.000000000000D+00  5 -2 1 25 -24 21 0 0.12160764D-02 0.32410171D+00 0.16312430D+05 0.16312430D+05 0.16312430D+05 0.12436910D+01  1  2  2  1  5  1       -2 0.211202057210D+00 0.100000000000D+01
-.292004543105D-04 0.000000000000D+00 -.201873441312D-05 0.258781171346D-02 0.000000000000D+00  5 -2 1 25 -24 21 2 0.12160764D-02 0.32410171D+00 0.16312430D+05 0.16312430D+05 0.16312430D+05 0.12436910D+01  1  2  3  1  5  1       -2 -.181465711857D-01 0.100000000000D+01
0.363219709726D-04 0.000000000000D+00 0.000000000000D+00 0.258781171346D-02 0.000000000000D+00  5 -2 1 25 -24 21 2 0.12160764D-02 0.32410171D+00 0.16312430D+05 0.16312430D+05 0.16312430D+05 0.12436910D+01  1  2 15  1  5  1       -2 0.225722252418D-01 0.100000000000D+01
0.192077447327D-07 0.000000000000D+00 0.000000000000D+00 0.258781171346D-02 0.000000000000D+00  5 -2 1 25 -24 21 2 0.12262598D-02 0.32410171D+00 0.16508158D+05 0.16508158D+05 0.16508158D+05 0.12431070D+01  1  2 12  1  5  1       -2 0.117848259165D-04 0.100000000000D+01
-.266401819710D-02 0.000000000000D+00 0.000000000000D+00 0.258781171346D-02 0.000000000000D+00  5 -2 1 25 -24 21 2 0.12160764D-02 0.32410171D+00 0.16312430D+05 0.16312430D+05 0.16312430D+05 0.12436910D+01  1  2  4  1  5  1       -2 -.165554944248D+01 0.100000000000D+01
0.266409939029D-02 0.000000000000D+00 0.000000000000D+00 0.258781171346D-02 0.916959915359D-02  5 -2 1 25 -24 21 2 0.12214912D-02 0.32665919D+00 0.16508158D+05 0.16508158D+05 0.16508158D+05 0.12431070D+01  1  2 11  1  5  1       -2 0.160414957136D+01 0.100000000000D+01
0.155803142515D-08 0.000000000000D+00 0.000000000000D+00 0.258781171346D-02 0.000000000000D+00  5 21 1 25 -24 2 2 0.12262598D-02 0.32410171D+00 0.16508158D+05 0.16508158D+05 0.16508158D+05 0.12431070D+01  1  2 12  3  5  1       -2 0.216852355808D-04 0.100000000000D+01
0.741783173965D-05 0.000000000000D+00 0.000000000000D+00 0.258781171346D-02 0.761413262270D-05  5 21 1 25 -24 2 2 0.12214912D-02 0.32665919D+00 0.16508158D+05 0.16508158D+05 0.16508158D+05 0.12431070D+01  1  2 11  3  5  1       -2 0.101384061137D+00 0.100000000000D+01
  </mgrwgt>
  </event>
  <event>
  5     66 0.46019439E-03 0.11640867E+03 0.75467711E-02 0.11090750E+00
       21 -1    0    0  502  501 0.00000000E+00 0.00000000E+00 0.35557318E+03 0.35557397E+03 0.75000000E+00 0.0000E+00 0.9000E+01
        1 -1    0    0  501    0 0.00000000E+00 0.00000000E+00 -.81211899E+03 0.81211906E+03 0.32000000E+00 0.0000E+00 0.9000E+01
       25  1    1    2    0    0 -.41069672E+02 -.28608416E+02 -.27172664E+03 0.30325819E+03 0.12500000E+03 0.0000E+00 0.9000E+01
      -24  1    1    2    0    0 -.98932102E+02 -.11980048E+03 -.47699992E+03 0.50807072E+03 0.80419002E+02 0.0000E+00 0.9000E+01
        2  1    1    2  502    0 0.14000177E+03 0.14840890E+03 0.29218074E+03 0.35636412E+03 0.32000000E+00 0.0000E+00 0.9000E+01
#aMCatNLO 2  0  0  1  2 0.20402377D+03 0.00000000D+00  -5  5  0 0.00000000D+00 0.00000000D+00 0.00000000D+00 0.00000000D+00 0.00000000D+00
  <mgrwgt>
 0.1050163416D+00    1    2    0
 0.118361132239683D+03 0.000000000000000D+00 0.000000000000000D+00 0.118361132239683D+03
 0.118361132239683D+03 0.000000000000000D+00 0.000000000000000D+00 -.118361132239683D+03
 0.137704019284487D+03 0.287733667617497D+02 0.454287064326548D+02 0.211121511019599D+02
 0.990182451948782D+02 -.287733667617497D+02 -.454287064326548D+02 -.211121511019599D+02
 0.000000000000000D+00 0.000000000000000D+00 0.000000000000000D+00 0.000000000000000D+00
 0.177502386456534D+04 0.000000000000000D+00 0.000000000000000D+00 0.177502386456534D+04
 0.162684109409054D+03 0.000000000000000D+00 0.000000000000000D+00 -.162684109409054D+03
 0.136293368615901D+03 -.410696716031848D+02 -.286084162253774D+02 0.211121511019599D+02
 0.176217637457597D+03 -.989321024300331D+02 -.119800484061577D+03 -.211121511019599D+02
 0.162519696790090D+04 0.140001774033218D+03 0.148408900286954D+03 0.161233975515629D+04
0.981396773283D-03 0.000000000000D+00 0.000000000000D+00 0.273821111953D-02 0.134442601559D-05  5 21 1 25 -24 2 2 0.54703626D-01 0.12494144D+00 0.65951484D+05 0.65951484D+05 0.65951484D+05 0.11805527D+01  1  2  1  3  5  1       -2 0.105016341570D+00 0.100000000000D+01
  </mgrwgt>
  </event>
  <event>
  4     66 0.46019439E-03 0.17259955E+03 0.75467711E-02 0.11148905E+00
       -2 -1    0    0    0  501 0.00000000E+00 0.00000000E+00 0.90689331E+02 0.90689895E+02 0.32000000E+00 0.0000E+00 0.9000E+01
        1 -1    0    0  501    0 0.00000000E+00 0.00000000E+00 -.43431591E+03 0.43431603E+03 0.32000000E+00 0.0000E+00 0.9000E+01
       25  1    1    2    0    0 -.13188033E+03 -.39089926E+02 -.52512456E+02 0.19313985E+03 0.12500000E+03 0.0000E+00 0.9000E+01
      -24  1    1    2    0    0 0.13188033E+03 0.39089926E+02 -.29111413E+03 0.33186608E+03 0.80419002E+02 0.0000E+00 0.9000E+01
#aMCatNLO 1  0  0  2  2 0.12915511D+03 0.00000000D+00  -5  5  0 0.00000000D+00 0.00000000D+00 0.00000000D+00 0.00000000D+00 0.00000000D+00
  <mgrwgt>
 0.2680333993D+00    3    2    0
 0.198464099366435D+03 0.000000000000000D+00 0.000000000000000D+00 0.198464099366435D+03
 0.198464099366435D+03 0.000000000000000D+00 0.000000000000000D+00 -.198464099366435D+03
 0.209999918785242D+03 -.131880327522367D+03 -.390899264778277D+02 0.977472390932833D+02
 0.186928279947628D+03 0.131880327522367D+03 0.390899264778277D+02 -.977472390932833D+02
 0.000000000000000D+00 0.000000000000000D+00 0.000000000000000D+00 0.000000000000000D+00
 0.357320105173558D+03 0.000000000000000D+00 0.000000000000000D+00 0.357320105173558D+03
 0.236767187472090D+03 0.000000000000000D+00 0.000000000000000D+00 -.236767187472090D+03
 0.251035161998764D+03 -.163843419029847D+03 -.104854488935839D+03 0.977472390932833D+02
 0.166377149630869D+03 0.107386022758175D+03 -.113074900284341D+02 -.977472390932833D+02
 0.176674981016016D+03 0.564573962716717D+02 0.116161978964273D+03 0.120552917701468D+03
0.143946548764D-02 0.000000000000D+00 0.000000000000D+00 0.166808780602D-02 0.000000000000D+00  5 -2 1 25 -24 21 0 0.13952257D-01 0.66817885D-01 0.29790604D+05 0.29790604D+05 0.29790604D+05 0.12152178D+01  1  2  2  2  5  2        1 0.262405819052D+00 0.100000000000D+01
-.780745028579D-04 0.000000000000D+00 -.552792649252D-05 0.166808780602D-02 0.000000000000D+00  5 -2 1 25 -24 21 2 0.13952257D-01 0.66817885D-01 0.29790604D+05 0.29790604D+05 0.29790604D+05 0.12152178D+01  1  2  3  2  5  2        1 -.210179168952D-01 0.100000000000D+01
0.989790737420D-04 0.000000000000D+00 0.000000000000D+00 0.166808780602D-02 0.000000000000D+00  5 -2 1 25 -24 21 2 0.13952257D-01 0.66817885D-01 0.29790604D+05 0.29790604D+05 0.29790604D+05 0.12152178D+01  1  2 15  2  5  2        1 0.266454971870D-01 0.100000000000D+01
  </mgrwgt>
  </event>
  <event>
  4     66 0.46019439E-03 0.67376826E+02 0.75467711E-02 0.12204491E+00
       -2 -1    0    0    0  501 0.00000000E+00 0.00000000E+00 0.11045614E+02 0.11050248E+02 0.32000000E+00 0.0000E+00 0.9000E+01
        1 -1    0    0  501    0 0.00000000E+00 0.00000000E+00 -.13618842E+04 0.13618842E+04 0.32000000E+00 0.0000E+00 0.9000E+01
       25  1    1    2    0    0 -.52538783E+02 0.39548872E+02 -.75084637E+03 0.76401551E+03 0.12500000E+03 0.0000E+00 0.9000E+01
      -24  1    1    2    0    0 0.52538783E+02 -.39548872E+02 -.59999222E+03 0.60891898E+03 0.80419002E+02 0.0000E+00 0.9000E+01
#aMCatNLO 1  0  0  1  2 0.23432824D+02 0.00000000D+00  -5  5  0 0.00000000D+00 0.00000000D+00 0.00000000D+00 0.00000000D+00 0.00000000D+00
  <mgrwgt>
 0.2356779056D+00    6    2    0
 0.122662359103751D+03 0.000000000000000D+00 0.000000000000000D+00 0.122662359103751D+03
 0.122662359103751D+03 0.000000000000000D+00 0.000000000000000D+00 -.122662359103751D+03
 0.141326976580013D+03 -.525387833590922D+02 0.395488718721363D+02 0.488643899330797D+01
 0.103997741627490D+03 0.525387833590922D+02 -.395488718721363D+02 -.488643899330797D+01
 0.000000000000000D+00 -.000000000000000D+00 -.000000000000000D+00 -.000000000000000D+00
 0.134666589721798D+03 0.000000000000000D+00 0.000000000000000D+00 0.134666589721798D+03
 0.135213926415705D+03 0.000000000000000D+00 0.000000000000000D+00 -.135213926415705D+03
 0.142962888978324D+03 -.462045886006561D+02 0.515232600990787D+02 0.488643899330797D+01
 0.103478411565593D+03 0.571615100942682D+02 -.308099039835439D+02 -.488643899330797D+01
 0.234392155935866D+02 -.109569214936120D+02 -.207133561155347D+02 -.547336693907098D+00
0.214297982970D-03 0.000000000000D+00 0.000000000000D+00 0.273104201955D-02 0.000000000000D+00  5 -2 1 25 -24 21 0 0.16996846D-02 0.20952101D+00 0.15021610D+05 0.15021610D+05 0.15021610D+05 0.12477513D+01  1  2  2  1  5  1       -2 0.159039361566D+00 0.100000000000D+01
-.119054339313D-04 0.000000000000D+00 -.822960680559D-06 0.273104201955D-02 0.000000000000D+00  5 -2 1 25 -24 21 2 0.16996846D-02 0.20952101D+00 0.15021610D+05 0.15021610D+05 0.15021610D+05 0.12477513D+01  1  2  3  1  5  1       -2 -.137558618617D-01 0.100000000000D+01
0.148118635638D-04 0.000000000000D+00 0.000000000000D+00 0.273104201955D-02 0.000000000000D+00  5 -2 1 25 -24 21 2 0.16996846D-02 0.20952101D+00 0.15021610D+05 0.15021610D+05 0.15021610D+05 0.12477513D+01  1  2 15  1  5  1       -2 0.171140296334D-01 0.100000000000D+01
0.164929095067D-03 0.000000000000D+00 0.000000000000D+00 0.273104201955D-02 0.000000000000D+00  5 -2 1 25 -24 21 2 0.19447053D-02 0.20952101D+00 0.18181172D+05 0.18181172D+05 0.18181172D+05 0.12384109D+01  1  2 12  1  5  1       -2 0.155120094876D+00 0.100000000000D+01
-.129901405806D-03 0.000000000000D+00 0.000000000000D+00 0.273104201955D-02 0.000000000000D+00  5 -2 1 25 -24 21 2 0.16996846D-02 0.20952101D+00 0.15021610D+05 0.15021610D+05 0.15021610D+05 0.12477513D+01  1  2  4  1  5  1       -2 -.150091613982D+00 0.100000000000D+01
0.344483527983D-05 0.000000000000D+00 0.000000000000D+00 0.273104201955D-02 0.000000000000D+00  5 21 1 25 -24 2 2 0.19447053D-02 0.20952101D+00 0.18181172D+05 0.18181172D+05 0.18181172D+05 0.12384109D+01  1  2 12  3  5  1       -2 0.682518954017D-01 0.100000000000D+01
  </mgrwgt>
  </event>
  <event>
  4     66 0.46019439E-03 0.12885372E+03 0.75467711E-02 0.11935267E+00
       -2 -1    0    0    0  501 0.00000000E+00 0.00000000E+00 0.24357841E+02 0.24359943E+02 0.32000000E+00 0.0000E+00 0.9000E+01
        1 -1    0    0  501    0 0.00000000E+00 0.00000000E+00 -.73082676E+03 0.73082683E+03 0.32000000E+00 0.0000E+00 0.9000E+01
       25  1    1    2    0    0 -.20520491E+02 0.73836146E+02 -.30154534E+03 0.33530204E+03 0.12500000E+03 0.0000E+00 0.9000E+01
      -24  1    1    2    0    0 0.20520491E+02 -.73836146E+02 -.40492358E+03 0.41988473E+03 0.80419002E+02 0.0000E+00 0.9000E+01
#aMCatNLO 1  0  0  1  1 0.49100620D+02 0.00000000D+00  -5  5  0 0.00000000D+00 0.00000000D+00 0.00000000D+00 0.00000000D+00 0.00000000D+00
  <mgrwgt>
 0.2609034304D+00    4    2    0
 0.133424818346956D+03 0.000000000000000D+00 0.000000000000000D+00 0.133424818346956D+03
 0.133424818346956D+03 0.000000000000000D+00 0.000000000000000D+00 -.133424818346956D+03
 0.150583889948267D+03 -.205204914889076D+02 0.738361455944310D+02 0.343167735191339D+02
 0.116265746745645D+03 0.205204914889076D+02 -.738361455944310D+02 -.343167735191339D+02
 0.000000000000000D+00 0.000000000000000D+00 0.000000000000000D+00 -.000000000000000D+00
 0.141441853775653D+03 0.000000000000000D+00 0.000000000000000D+00 0.141441853775653D+03
 0.239991724799329D+03 0.000000000000000D+00 0.000000000000000D+00 -.239991724799329D+03
 0.140920515911426D+03 -.272396134877701D+02 0.481035790458032D+02 0.343167735191339D+02
 0.130408803288400D+03 0.148346892767412D+02 -.956113542945667D+02 -.343167735191339D+02
 0.110104259375155D+03 0.124049242110289D+02 0.475077752487635D+02 -.985498710236755D+02
0.401007964403D-03 0.000000000000D+00 0.000000000000D+00 0.242410932505D-02 0.000000000000D+00  5 -2 1 25 -24 21 0 0.37475272D-02 0.11243505D+00 0.16603281D+05 0.16603281D+05 0.16603281D+05 0.12428259D+01  1  2  2  1  5  1       -2 0.271797177747D+00 0.100000000000D+01
-.222453028056D-04 0.000000000000D+00 -.153997617113D-05 0.242410932505D-02 0.000000000000D+00  5 -2 1 25 -24 21 2 0.37475272D-02 0.11243505D+00 0.16603281D+05 0.16603281D+05 0.16603281D+05 0.12428259D+01  1  2  3  1  5  1       -2 -.232890014734D-01 0.100000000000D+01
0.276768207066D-04 0.000000000000D+00 0.000000000000D+00 0.242410932505D-02 0.000000000000D+00  5 -2 1 25 -24 21 2 0.37475272D-02 0.11243505D+00 0.16603281D+05 0.16603281D+05 0.16603281D+05 0.12428259D+01  1  2 15  1  5  1       -2 0.289753537565D-01 0.100000000000D+01
-.158370609639D-04 0.000000000000D+00 0.000000000000D+00 0.242410932505D-02 0.000000000000D+00  5 -2 1 25 -24 21 2 0.37475272D-02 0.11243505D+00 0.16603281D+05 0.16603281D+05 0.16603281D+05 0.12428259D+01  1  2  4  1  5  1       -2 -.165800995987D-01 0.100000000000D+01
  </mgrwgt>
  </event>
  <event>
  5     66 -.46019439E-03 0.13777061E+03 0.75467711E-02 0.11988424E+00
       -2 -1    0    0    0  501 0.00000000E+00 0.00000000E+00 0.66050914E+03 0.66050922E+03 0.32000000E+00 0.0000E+00 0.9000E+01
        1 -1    0    0  502    0 0.00000000E+00 0.00000000E+00 -.40262755E+02 0.40264026E+02 0.32000000E+00 0.0000E+00 0.9000E+01
       25  1    1    2    0    0 0.10338522E+03 0.70862166E+01 0.20201782E+03 0.25918125E+03 0.12500000E+03 0.0000E+00 0.9000E+01
      -24  1    1    2    0    0 -.79113283E+02 -.16996199E+02 0.36192022E+03 0.37947496E+03 0.80419002E+02 0.0000E+00 0.9000E+01
       21  1    1    2  502  501 -.24271935E+02 0.99099828E+01 0.56308345E+02 0.62117041E+02 0.75000000E+00 0.0000E+00 0.9000E+01
#aMCatNLO 2  0  0  2  1 0.26217067D+02 0.00000000D+00  -5  5  0 0.00000000D+00 0.00000000D+00 0.00000000D+00 0.00000000D+00 0.00000000D+00
  <mgrwgt>
 -.8159781576D-01    2    2    0
 0.149305306070490D+03 0.000000000000000D+00 0.000000000000000D+00 0.149305306070490D+03
 0.149305306070490D+03 0.000000000000000D+00 0.000000000000000D+00 -.149305306070490D+03
 0.164639295676502D+03 0.897240772230175D+02 0.126639207113703D+02 -.571866484378021D+02
 0.133971316464477D+03 -.897240772230175D+02 -.126639207113703D+02 0.571866484378021D+02
 0.000000000000000D+00 -.000000000000000D+00 0.000000000000000D+00 0.000000000000000D+00
 0.164633650785790D+03 0.000000000000000D+00 0.000000000000000D+00 0.164633650785790D+03
 0.161526221290725D+03 0.000000000000000D+00 0.000000000000000D+00 -.161526221290725D+03
 0.172145376328125D+03 0.103385218317572D+03 0.708621655265339D+01 -.571866484378021D+02
 0.127613914220407D+03 -.791132833191052D+02 -.169961993164666D+02 0.571866484378021D+02
 0.264005815279828D+02 -.242719349984667D+02 0.990998276381321D+01 0.310742949506478D+01
-.138362355090D-02 0.000000000000D+00 0.000000000000D+00 0.209150811829D-02 0.000000000000D+00  5 -2 1 25 -24 21 2 0.92152762D-01 0.64626440D-02 0.22902198D+05 0.22902198D+05 0.22902198D+05 0.12273996D+01  1  2 13  2  5  2        1 -.215735688534D+00 0.100000000000D+01
0.101562116321D-02 0.000000000000D+00 0.000000000000D+00 0.209150811829D-02 0.245991945079D-04  5 -2 1 25 -24 21 2 0.10161357D+00 0.61941712D-02 0.22902198D+05 0.22902198D+05 0.22902198D+05 0.12273996D+01  1  2  1  2  5  2        1 0.134137872770D+00 0.100000000000D+01
  </mgrwgt>
  </event>
  <event>
  4     66 0.46019439E-03 0.60404460E+03 0.75467711E-02 0.98781341E-01
       -2 -1    0    0    0  501 0.00000000E+00 0.00000000E+00 0.37670199E+03 0.37670212E+03 0.32000000E+00 0.0000E+00 0.9000E+01
        1 -1    0    0  501    0 0.00000000E+00 0.00000000E+00 -.98508464E+03 0.98508469E+03 0.32000000E+00 0.0000E+00 0.9000E+01
       25  1    1    2    0    0 -.49669780E+03 -.32730633E+03 -.39417425E+03 0.72445598E+03 0.12500000E+03 0.0000E+00 0.9000E+01
      -24  1    1    2    0    0 0.49669780E+03 0.32730633E+03 -.21420840E+03 0.63733083E+03 0.80419002E+02 0.0000E+00 0.9000E+01
#aMCatNLO 1  0  0  1  1 0.18425982D+02 0.00000000D+00  -5  5  0 0.00000000D+00 0.00000000D+00 0.00000000D+00 0.00000000D+00 0.00000000D+00
  <mgrwgt>
 0.5987870598D-01    4    2    0
 0.609166207758369D+03 0.000000000000000D+00 0.000000000000000D+00 0.609166207758369D+03
 0.609166207758369D+03 0.000000000000000D+00 0.000000000000000D+00 -.609166207758369D+03
 0.612924535095389D+03 -.496697796689238D+03 -.327306326329730D+03 -.788248262319180D+02
 0.605407880421348D+03 0.496697796689238D+03 0.327306326329730D+03 0.788248262319180D+02
 0.000000000000000D+00 0.000000000000000D+00 -.000000000000000D+00 -.000000000000000D+00
 0.614969930473905D+03 0.000000000000000D+00 0.000000000000000D+00 0.614969930473905D+03
 0.624038512631050D+03 0.000000000000000D+00 0.000000000000000D+00 -.624038512631050D+03
 0.612017817842961D+03 -.500924464697501D+03 -.319064471219048D+03 -.788248262319180D+02
 0.606453926399262D+03 0.492516263152547D+03 0.335460170795982D+03 0.788248262319180D+02
 0.205366988627318D+02 0.840820154495359D+01 -.163956995769345D+02 -.906858215714446D+01
0.242151261300D-01 0.000000000000D+00 0.000000000000D+00 0.189111949054D-02 0.000000000000D+00  5 -2 1 25 -24 21 0 0.57954166D-01 0.15155150D+00 0.36486987D+06 0.36486987D+06 0.36486987D+06 0.11152130D+01  1  2  2  1  5  1       -2 0.953903227584D-01 0.100000000000D+01
-.134516818420D-02 0.000000000000D+00 -.929924603282D-04 0.189111949054D-02 0.000000000000D+00  5 -2 1 25 -24 21 2 0.57954166D-01 0.15155150D+00 0.36486987D+06 0.36486987D+06 0.36486987D+06 0.11152130D+01  1  2  3  1  5  1       -2 -.659036999788D-02 0.100000000000D+01
0.165745741063D-02 0.000000000000D+00 0.000000000000D+00 0.189111949054D-02 0.000000000000D+00  5 -2 1 25 -24 21 2 0.57954166D-01 0.15155150D+00 0.36486987D+06 0.36486987D+06 0.36486987D+06 0.11152130D+01  1  2 15  1  5  1       -2 0.812036570601D-02 0.100000000000D+01
-.756060716143D-02 0.000000000000D+00 0.000000000000D+00 0.189111949054D-02 0.000000000000D+00  5 -2 1 25 -24 21 2 0.57954166D-01 0.15155150D+00 0.36486987D+06 0.36486987D+06 0.36486987D+06 0.11152130D+01  1  2  4  1  5  1       -2 -.370416124821D-01 0.100000000000D+01
  </mgrwgt>
  </event>
  <event>
  4     66 0.46019439E-03 0.53794881E+02 0.75467711E-02 0.12337457E+00
       -2 -1    0    0    0  501 0.00000000E+00 0.00000000E+00 0.23120085E+03 0.23120108E+03 0.32000000E+00 0.0000E+00 0.9000E+01
        1 -1    0    0  501    0 0.00000000E+00 0.00000000E+00 -.77245255E+02 0.77245917E+02 0.32000000E+00 0.0000E+00 0.9000E+01
       25  1    1    2    0    0 -.61892267E+02 -.27148520E+02 0.28695927E+02 0.14496948E+03 0.12500000E+03 0.0000E+00 0.9000E+01
      -24  1    1    2    0    0 0.61892267E+02 0.27148520E+02 0.12525967E+03 0.16347751E+03 0.80419002E+02 0.0000E+00 0.9000E+01
#aMCatNLO 1  0  0  1  2 0.45684782D+01 0.00000000D+00  -5  5  0 0.00000000D+00 0.00000000D+00 0.00000000D+00 0.00000000D+00 0.00000000D+00
  <mgrwgt>
 0.1760384833D+00    8    2    0
 0.133638711812506D+03 0.000000000000000D+00 0.000000000000000D+00 0.133638711812506D+03
 0.133638711812506D+03 0.000000000000000D+00 0.000000000000000D+00 -.133638711812506D+03
 0.150770319715308D+03 -.618922672485944D+02 -.271485195101237D+02 -.503884356801555D+02
 0.116507103909705D+03 0.618922672485944D+02 0.271485195101237D+02 0.503884356801555D+02
 0.000000000000000D+00 0.000000000000000D+00 0.000000000000000D+00 -.000000000000000D+00
 0.135643109996113D+03 0.000000000000000D+00 0.000000000000000D+00 0.135643109996113D+03
 0.136286982607343D+03 0.000000000000000D+00 0.000000000000000D+00 -.136286982607343D+03
 0.151946477576756D+03 -.642144718599960D+02 -.282884994552973D+02 -.503884356801555D+02
 0.115369986884966D+03 0.601134890164692D+02 0.262753098448005D+02 0.503884356801555D+02
 0.461362814173465D+01 0.410098284352679D+01 0.201318961049684D+01 -.643872611230253D+00
0.428102363456D-03 0.000000000000D+00 0.000000000000D+00 0.224723154645D-02 0.000000000000D+00  5 -2 1 25 -24 21 0 0.35569430D-01 0.11883953D-01 0.15270556D+05 0.15270556D+05 0.15270556D+05 0.12469384D+01  1  2  2  1  5  1       -2 0.135629791512D+00 0.100000000000D+01
-.236061805714D-04 0.000000000000D+00 -.164402579761D-05 0.224723154645D-02 0.000000000000D+00  5 -2 1 25 -24 21 2 0.35569430D-01 0.11883953D-01 0.15270556D+05 0.15270556D+05 0.15270556D+05 0.12469384D+01  1  2  3  1  5  1       -2 -.116284873274D-01 0.100000000000D+01
0.294980131060D-04 0.000000000000D+00 0.000000000000D+00 0.224723154645D-02 0.000000000000D+00  5 -2 1 25 -24 21 2 0.35569430D-01 0.11883953D-01 0.15270556D+05 0.15270556D+05 0.15270556D+05 0.12469384D+01  1  2 15  1  5  1       -2 0.145308246943D-01 0.100000000000D+01
0.869569636103D-04 0.000000000000D+00 0.000000000000D+00 0.224723154645D-02 0.000000000000D+00  5 -2 1 25 -24 21 2 0.36449307D-01 0.11883953D-01 0.15838395D+05 0.15838395D+05 0.15838395D+05 0.12451388D+01  1  2 12  1  5  1       -2 0.408689960695D-01 0.100000000000D+01
-.944132171356D-03 0.000000000000D+00 0.000000000000D+00 0.224723154645D-02 0.000000000000D+00  5 -2 1 25 -24 21 2 0.35569430D-01 0.11883953D-01 0.15270556D+05 0.15270556D+05 0.15270556D+05 0.12469384D+01  1  2  4  1  5  1       -2 -.465082818323D+00 0.100000000000D+01
0.886228927639D-03 0.000000000000D+00 0.000000000000D+00 0.224723154645D-02 0.890573426993D-03  5 -2 1 25 -24 21 2 0.36102923D-01 0.12119453D-01 0.15838395D+05 0.15838395D+05 0.15838395D+05 0.12451388D+01  1  2 11  1  5  1       -2 0.413211034306D+00 0.100000000000D+01
0.184212767939D-05 0.000000000000D+00 0.000000000000D+00 0.224723154645D-02 0.000000000000D+00  5 21 1 25 -24 2 2 0.36449307D-01 0.11883953D-01 0.15838395D+05 0.15838395D+05 0.15838395D+05 0.12451388D+01  1  2 12  3  5  1       -2 0.111874737070D-01 0.100000000000D+01
0.618770599925D-05 0.000000000000D+00 0.000000000000D+00 0.224723154645D-02 0.247400795521D-05  5 21 1 25 -24 2 2 0.36102923D-01 0.12119453D-01 0.15838395D+05 0.15838395D+05 0.15838395D+05 0.12451388D+01  1  2 11  3  5  1       -2 0.373216686294D-01 0.100000000000D+01
  </mgrwgt>
  </event>
  <event>
  5     66 0.46019439E-03 0.10951085E+03 0.75467711E-02 0.12201387E+00
       -2 -1    0    0    0  501 0.00000000E+00 0.00000000E+00 0.10749496E+03 0.10749544E+03 0.32000000E+00 0.0000E+00 0.9000E+01
       21 -1    0    0  501  502 0.00000000E+00 0.00000000E+00 -.25381198E+03 0.25381309E+03 0.75000000E+00 0.0000E+00 0.9000E+01
       25  1    1    2    0    0 -.10731384E+02 0.48911506E+01 -.52613963E+02 0.13613345E+03 0.12500000E+03 0.0000E+00 0.9000E+01
      -24  1    1    2    0    0 0.56769733E+02 -.31316740E+01 0.21756746E+02 0.10086219E+03 0.80419002E+02 0.0000E+00 0.9000E+01
       -1  1    1    2    0  502 -.46038349E+02 -.17594766E+01 -.11545980E+03 0.12431288E+03 0.32000000E+00 0.0000E+00 0.9000E+01
#aMCatNLO 2  0  0  2  1 0.46071959D+02 0.00000000D+00  -5  5  0 0.00000000D+00 0.00000000D+00 0.00000000D+00 0.00000000D+00 0.00000000D+00
  <mgrwgt>
 0.3266406565D-01    2    2    0
 0.115208657892055D+03 0.000000000000000D+00 0.000000000000000D+00 0.115208657892055D+03
 0.115208657892055D+03 0.000000000000000D+00 0.000000000000000D+00 -.115208657892055D+03
 0.135080827686381D+03 -.369928649720366D+02 0.388749903557212D+01 -.351887098491397D+02
 0.953364880977288D+02 0.369928649720366D+02 -.388749903557212D+01 0.351887098491397D+02
 0.000000000000000D+00 -.000000000000000D+00 -.000000000000000D+00 -.000000000000000D+00
 0.122534724675330D+03 0.000000000000000D+00 0.000000000000000D+00 0.122534724675330D+03
 0.222660924529307D+03 0.000000000000000D+00 0.000000000000000D+00 -.222660924529307D+03
 0.130392987724144D+03 -.107313835355350D+02 0.489115060032688D+01 -.351887098491397D+02
 0.104585234219777D+03 0.567697329515612D+02 -.313167402464911D+01 0.351887098491397D+02
 0.110217427260715D+03 -.460383494160262D+02 -.175947657567778D+01 -.100126199853977D+03
-.342468041485D-04 0.000000000000D+00 0.000000000000D+00 0.265297065247D-02 0.000000000000D+00  5 -2 21 25 -24 -1 2 0.15549023D-01 0.39126905D-01 0.18240496D+05 0.18240496D+05 0.18240496D+05 0.12382534D+01  1  2 13  4  5  2        1 -.844146923686D-01 0.100000000000D+01
0.523601524014D-04 0.000000000000D+00 0.000000000000D+00 0.265297065247D-02 0.983783412174D-06  5 -2 21 25 -24 -1 2 0.16537778D-01 0.39048047D-01 0.18240496D+05 0.18240496D+05 0.18240496D+05 0.12382534D+01  1  2  1  4  5  2        1 0.117078758019D+00 0.100000000000D+01
  </mgrwgt>
  </event>
  <event>
  5     66 0.46019439E-03 0.10759692E+03 0.75467711E-02 0.12489876E+00
       21 -1    0    0  502  501 0.00000000E+00 0.00000000E+00 0.14205716E+02 0.14225501E+02 0.75000000E+00 0.0000E+00 0.9000E+01
        1 -1    0    0  501    0 0.00000000E+00 0.00000000E+00 -.14791369E+04 0.14791369E+04 0.32000000E+00 0.0000E+00 0.9000E+01
       25  1    1    2    0    0 -.60661450E+01 0.21149863E+02 -.10556061E+04 0.10632090E+04 0.12500000E+03 0.0000E+00 0.9000E+01
      -24  1    1    2    0    0 0.13418992E+02 -.36291334E+02 -.18712458E+03 0.20731608E+03 0.80419002E+02 0.0000E+00 0.9000E+01
        2  1    1    2  502    0 -.73528474E+01 0.15141471E+02 -.22220046E+03 0.22283733E+03 0.32000000E+00 0.0000E+00 0.9000E+01
#aMCatNLO 2  0  0  1  1 0.16832365D+02 0.00000000D+00  -5  5  0 0.00000000D+00 0.00000000D+00 0.00000000D+00 0.00000000D+00 0.00000000D+00
  <mgrwgt>
 0.7298686913D-01    1    2    0
 0.131881636116044D+03 0.000000000000000D+00 0.000000000000000D+00 0.131881636116044D+03
 0.131881636116044D+03 0.000000000000000D+00 0.000000000000000D+00 -.131881636116044D+03
 0.149241490594896D+03 -.101988370820436D+02 0.296601765373849D+02 -.752614121906538D+02
 0.114521781637193D+03 0.101988370820436D+02 -.296601765373849D+02 0.752614121906538D+02
 0.000000000000000D+00 -.000000000000000D+00 0.000000000000000D+00 -.000000000000000D+00
 0.135176985308442D+03 0.000000000000000D+00 0.000000000000000D+00 0.135176985308442D+03
 0.155549415920769D+03 0.000000000000000D+00 0.000000000000000D+00 -.155549415920769D+03
 0.147558107096934D+03 -.606614498447369D+01 0.211498626502890D+02 -.752614121906538D+02
 0.116741708075429D+03 0.134189923781574D+02 -.362913340705671D+02 0.752614121906538D+02
 0.264265860568483D+02 -.735284739368370D+01 0.151414714202781D+02 -.203724306123278D+02
0.519382118840D-05 0.000000000000D+00 0.000000000000D+00 0.184483407416D-02 0.267260231950D-06  5 21 1 25 -24 2 2 0.21870040D-02 0.22755944D+00 0.13571928D+05 0.13571928D+05 0.13571928D+05 0.12528065D+01  1  2  1  3  5  1       -2 0.729868691278D-01 0.100000000000D+01
  </mgrwgt>
  </event>
  <event>
  4     66 0.46019439E-03 0.73226843E+02 0.75467711E-02 0.11834194E+00
       -4 -1    0    0    0  501 0.00000000E+00 0.00000000E+00 0.26672420E+03 0.26672870E+03 0.15500000E+01 0.0000E+00 0.9000E+01
        3 -1    0    0  501    0 0.00000000E+00 0.00000000E+00 -.87771194E+02 0.87772618E+02 0.50000000E+00 0.0000E+00 0.9000E+01
       25  1    1    2    0    0 -.54405164E+02 0.96119115E+02 0.12112489E+03 0.20614326E+03 0.12500000E+03 0.0000E+00 0.9000E+01
      -24  1    1    2    0    0 0.54405164E+02 -.96119115E+02 0.57828118E+02 0.14835806E+03 0.80419002E+02 0.0000E+00 0.9000E+01
#aMCatNLO 1  0  0  1  2 0.25055220D+02 0.00000000D+00  -5  5  0 0.00000000D+00 0.00000000D+00 0.00000000D+00 0.00000000D+00 0.00000000D+00
  <mgrwgt>
 0.3805373064D-01    9    2    0
 0.153008992994193D+03 0.000000000000000D+00 0.000000000000000D+00 0.153008992994193D+03
 0.153008992994193D+03 0.000000000000000D+00 0.000000000000000D+00 -.153008992994193D+03
 0.167971812934419D+03 -.544051637096086D+02 0.961191153221237D+02 0.197667339714566D+02
 0.138046173053967D+03 0.544051637096086D+02 -.961191153221237D+02 -.197667339714566D+02
 0.000000000000000D+00 -.000000000000000D+00 0.000000000000000D+00 0.000000000000000D+00
 0.186778916694861D+03 0.000000000000000D+00 0.000000000000000D+00 0.186778916694861D+03
 0.158239890152519D+03 0.000000000000000D+00 0.000000000000000D+00 -.158239890152519D+03
 0.163396663725643D+03 -.409161779689416D+02 0.949137098905441D+02 0.197667339714566D+02
 0.143645307010339D+03 0.658719525730310D+02 -.971438127934150D+02 -.197667339714566D+02
 0.379768361113982D+02 -.249557746040895D+02 0.223010290287092D+01 0.285390265423417D+02
0.702054699271D-03 0.000000000000D+00 0.000000000000D+00 0.234947151598D-02 0.000000000000D+00  5 -4 3 25 -24 21 0 0.41034948D-01 0.13503717D-01 0.23017190D+05 0.23017190D+05 0.23017190D+05 0.12271641D+01  1  2  2  1  5  1       -4 0.359955168201D-01 0.100000000000D+01
-.389996139083D-04 0.000000000000D+00 -.269607490045D-05 0.234947151598D-02 0.000000000000D+00  5 -4 3 25 -24 21 2 0.41034948D-01 0.13503717D-01 0.23017190D+05 0.23017190D+05 0.23017190D+05 0.12271641D+01  1  2  3  1  5  1       -4 -.301122372287D-02 0.100000000000D+01
0.484422325056D-04 0.000000000000D+00 0.000000000000D+00 0.234947151598D-02 0.000000000000D+00  5 -4 3 25 -24 21 2 0.41034948D-01 0.13503717D-01 0.23017190D+05 0.23017190D+05 0.23017190D+05 0.12271641D+01  1  2 15  1  5  1       -4 0.374030368744D-02 0.100000000000D+01
0.142999939785D-02 0.000000000000D+00 0.000000000000D+00 0.234947151598D-02 0.000000000000D+00  5 -4 3 25 -24 21 2 0.50685365D-01 0.13503717D-01 0.27147608D+05 0.27147608D+05 0.27147608D+05 0.12194788D+01  1  2 12  1  5  1       -4 0.721808948633D-01 0.100000000000D+01
-.145111425670D-02 0.000000000000D+00 0.000000000000D+00 0.234947151598D-02 0.000000000000D+00  5 -4 3 25 -24 21 2 0.41034948D-01 0.13503717D-01 0.23017190D+05 0.23017190D+05 0.23017190D+05 0.12271641D+01  1  2  4  1  5  1       -4 -.112042895723D+00 0.100000000000D+01
-.223960167506D-02 0.000000000000D+00 -.390713183083D-03 0.234947151598D-02 0.000000000000D+00  5 -4 3 25 -24 21 2 0.51375175D-01 0.13503717D-01 0.23017190D+05 0.23017190D+05 0.23017190D+05 0.12271641D+01  1  2  5  1  5  1       -4 -.109956983675D+00 0.100000000000D+01
0.227927107057D-02 0.000000000000D+00 0.381050331220D-03 0.234947151598D-02 0.000000000000D+00  5 -4 3 25 -24 21 2 0.41034948D-01 0.13503717D-01 0.23017190D+05 0.23017190D+05 0.23017190D+05 0.12271641D+01  1  2  6  1  5  1       -4 0.175986232445D+00 0.100000000000D+01
0.426613924705D-04 0.000000000000D+00 0.000000000000D+00 0.234947151598D-02 0.000000000000D+00  5 21 3 25 -24 4 2 0.50685365D-01 0.13503717D-01 0.27147608D+05 0.27147608D+05 0.27147608D+05 0.12194788D+01  1  2 12  3  5  1       -4 0.512210227298D-01 0.100000000000D+01
-.645316122832D-04 0.000000000000D+00 -.122151042683D-04 0.234947151598D-02 0.000000000000D+00  5 21 3 25 -24 4 2 0.51375175D-01 0.13503717D-01 0.23017190D+05 0.23017190D+05 0.23017190D+05 0.12271641D+01  1  2  5  3  5  1       -4 -.760591367865D-01 0.100000000000D+01
  </mgrwgt>
  </event>
  <event>
  5     66 0.46019439E-03 0.14814498E+03 0.75467711E-02 0.11652362E+00
       21 -1    0    0  502  501 0.00000000E+00 0.00000000E+00 0.48340738E+03 0.48340796E+03 0.75000000E+00 0.0000E+00 0.9000E+01
        1 -1    0    0  501    0 0.00000000E+00 0.00000000E+00 -.70904904E+02 0.70905626E+02 0.32000000E+00 0.0000E+00 0.9000E+01
       25  1    1    2    0    0 0.14221593E+03 -.72457846E+01 0.19359901E+03 0.27089379E+03 0.12500000E+03 0.0000E+00 0.9000E+01
      -24  1    1    2    0    0 -.79764419E+02 0.39282093E+01 0.11061381E+03 0.15836800E+03 0.80419002E+02 0.0000E+00 0.9000E+01
        2  1    1    2  502    0 -.62451510E+02 0.33175753E+01 0.10828967E+03 0.12505180E+03 0.32000000E+00 0.0000E+00 0.9000E+01
#aMCatNLO 2  0  0  1  2 0.62539567D+02 0.00000000D+00  -5  5  0 0.00000000D+00 0.00000000D+00 0.00000000D+00 0.00000000D+00 0.00000000D+00
  <mgrwgt>
 0.1414837173D-01    2    2    0
 0.148162963205749D+03 0.000000000000000D+00 0.000000000000000D+00 0.148162963205749D+03
 0.148162963205749D+03 0.000000000000000D+00 0.000000000000000D+00 -.148162963205749D+03
 0.163615178535893D+03 0.105411881570787D+03 -.529066453186645D+01 0.229580919277411D+01
 0.132710747875606D+03 -.105411881570787D+03 0.529066453186645D+01 -.229580919277411D+01
 0.000000000000000D+00 -.000000000000000D+00 0.000000000000000D+00 0.000000000000000D+00
 0.199599982498583D+03 0.000000000000000D+00 0.000000000000000D+00 0.199599982498583D+03
 0.171724327310525D+03 0.000000000000000D+00 0.000000000000000D+00 -.171724327310525D+03
 0.189494439992471D+03 0.142215929677393D+03 -.724578458177130D+01 0.229580919277411D+01
 0.113359075957379D+03 -.797644192567416D+02 0.392820930264482D+01 -.229580919277411D+01
 0.684707938592574D+02 -.624515104206519D+02 0.331757527912648D+01 0.278756551880573D+02
-.144943945343D-04 0.000000000000D+00 0.000000000000D+00 0.242393198760D-02 0.000000000000D+00  5 21 1 25 -24 2 2 0.77547525D-01 0.94118249D-02 0.33371238D+05 0.33371238D+05 0.33371238D+05 0.12100739D+01  1  2 13  3  5  1       -2 -.232012539245D-01 0.100000000000D+01
0.258817241132D-04 0.000000000000D+00 0.000000000000D+00 0.242393198760D-02 0.218480557795D-06  5 21 1 25 -24 2 2 0.74370312D-01 0.10908524D-01 0.33371238D+05 0.33371238D+05 0.33371238D+05 0.12100739D+01  1  2  1  3  5  1       -2 0.373496256497D-01 0.100000000000D+01
  </mgrwgt>
  </event>
  <event>
  4     66 0.46019439E-03 0.11332276E+03 0.75467711E-02 0.12080847E+00
       -2 -1    0    0    0  501 0.00000000E+00 0.00000000E+00 0.25244486E+02 0.25246514E+02 0.32000000E+00 0.0000E+00 0.9000E+01
        1 -1    0    0  501    0 0.00000000E+00 0.00000000E+00 -.51520056E+03 0.51520066E+03 0.32000000E+00 0.0000E+00 0.9000E+01
       25  1    1    2    0    0 0.36400116E+02 -.29650094E+02 -.25819070E+03 0.29067427E+03 0.12500000E+03 0.0000E+00 0.9000E+01
      -24  1    1    2    0    0 -.36400116E+02 0.29650094E+02 -.23176538E+03 0.24977290E+03 0.80419002E+02 0.0000E+00 0.9000E+01
#aMCatNLO 1  0  0  1  2 0.54778993D+02 0.00000000D+00  -5  5  0 0.00000000D+00 0.00000000D+00 0.00000000D+00 0.00000000D+00 0.00000000D+00
  <mgrwgt>
 0.2439538150D+00    4    2    0
 0.114046255352825D+03 0.000000000000000D+00 0.000000000000000D+00 0.114046255352825D+03
 0.114046255352825D+03 0.000000000000000D+00 0.000000000000000D+00 -.114046255352825D+03
 0.134120969812537D+03 0.364001158998745D+02 -.296500942873374D+02 0.126229162511375D+02
 0.939715408931133D+02 -.364001158998745D+02 0.296500942873374D+02 -.126229162511375D+02
 0.000000000000000D+00 -.000000000000000D+00 -.000000000000000D+00 -.000000000000000D+00
 0.127945403819864D+03 0.000000000000000D+00 0.000000000000000D+00 0.127945403819864D+03
 0.187687288390834D+03 0.000000000000000D+00 0.000000000000000D+00 -.187687288390834D+03
 0.140161644037965D+03 0.614785469414133D+02 -.901868675110011D+01 0.126229162511375D+02
 0.944165551069434D+02 -.191752622780576D+02 0.438205571139438D+02 -.126229162511375D+02
 0.810544930657897D+02 -.423032846633557D+02 -.348018703628437D+02 -.597418845709696D+02
0.263668781106D-03 0.000000000000D+00 0.000000000000D+00 0.287881091457D-02 0.000000000000D+00  5 -2 1 25 -24 21 0 0.38839308D-02 0.79261788D-01 0.12842048D+05 0.12842048D+05 0.12842048D+05 0.12555868D+01  1  2  2  1  5  1       -2 0.271138569719D+00 0.100000000000D+01
-.146475442801D-04 0.000000000000D+00 -.101255754503D-05 0.287881091457D-02 0.000000000000D+00  5 -2 1 25 -24 21 2 0.38839308D-02 0.79261788D-01 0.12842048D+05 0.12842048D+05 0.12842048D+05 0.12555868D+01  1  2  3  1  5  1       -2 -.237460244285D-01 0.100000000000D+01
0.182192008358D-04 0.000000000000D+00 0.000000000000D+00 0.287881091457D-02 0.000000000000D+00  5 -2 1 25 -24 21 2 0.38839308D-02 0.79261788D-01 0.12842048D+05 0.12842048D+05 0.12842048D+05 0.12555868D+01  1  2 15  1  5  1       -2 0.295362539852D-01 0.100000000000D+01
-.203403539469D-04 0.000000000000D+00 0.000000000000D+00 0.287881091457D-02 0.000000000000D+00  5 -2 1 25 -24 21 2 0.38839308D-02 0.79261788D-01 0.12842048D+05 0.12842048D+05 0.12842048D+05 0.12555868D+01  1  2  4  1  5  1       -2 -.329749842344D-01 0.100000000000D+01
  </mgrwgt>
  </event>
  <event>
  4     66 0.46019439E-03 0.12374115E+03 0.75467711E-02 0.11539495E+00
       -2 -1    0    0    0  501 0.00000000E+00 0.00000000E+00 0.12365462E+02 0.12369602E+02 0.32000000E+00 0.0000E+00 0.9000E+01
        1 -1    0    0  501    0 0.00000000E+00 0.00000000E+00 -.12697671E+04 0.12697671E+04 0.32000000E+00 0.0000E+00 0.9000E+01
       25  1    1    2    0    0 0.20307317E+02 0.64774207E+02 -.62017517E+03 0.63627849E+03 0.12500000E+03 0.0000E+00 0.9000E+01
      -24  1    1    2    0    0 -.20307317E+02 -.64774207E+02 -.63722645E+03 0.64585823E+03 0.80419002E+02 0.0000E+00 0.9000E+01
#aMCatNLO 1  0  0  1  2 0.11656133D+03 0.00000000D+00  -5  5  0 0.00000000D+00 0.00000000D+00 0.00000000D+00 0.00000000D+00 0.00000000D+00
  <mgrwgt>
 0.2237546553D+00    5    2    0
 0.125315349417587D+03 0.000000000000000D+00 0.000000000000000D+00 0.125315349417587D+03
 0.125315349417587D+03 0.000000000000000D+00 0.000000000000000D+00 -.125315349417587D+03
 0.143584827355029D+03 0.203073165932392D+02 0.647742074616096D+02 0.195836050582034D+02
 0.107045871480146D+03 -.203073165932392D+02 -.647742074616096D+02 -.195836050582034D+02
 0.000000000000000D+00 -.000000000000000D+00 0.000000000000000D+00 0.000000000000000D+00
 0.203768696243617D+03 0.000000000000000D+00 0.000000000000000D+00 0.203768696243617D+03
 0.190011335266779D+03 0.000000000000000D+00 0.000000000000000D+00 -.190011335266779D+03
 0.142853004708646D+03 0.636634174868108D+02 0.185858182793437D+02 0.195836050582034D+02
 0.133556637749497D+03 0.161110105189697D+02 -.103571604629656D+03 -.195836050582034D+02
 0.117370389052253D+03 -.797744280057805D+02 0.849857863503119D+02 0.137573609768375D+02
0.276410060975D-03 0.000000000000D+00 0.000000000000D+00 0.263301033676D-02 0.000000000000D+00  5 -2 1 25 -24 21 0 0.19027004D-02 0.19534910D+00 0.15311873D+05 0.15311873D+05 0.15311873D+05 0.12468050D+01  1  2  2  1  5  1       -2 0.200732446243D+00 0.100000000000D+01
-.153531307882D-04 0.000000000000D+00 -.106148741458D-05 0.263301033676D-02 0.000000000000D+00  5 -2 1 25 -24 21 2 0.19027004D-02 0.19534910D+00 0.15311873D+05 0.15311873D+05 0.15311873D+05 0.12468050D+01  1  2  3  1  5  1       -2 -.173323615851D-01 0.100000000000D+01
0.191377485200D-04 0.000000000000D+00 0.000000000000D+00 0.263301033676D-02 0.000000000000D+00  5 -2 1 25 -24 21 2 0.19027004D-02 0.19534910D+00 0.15311873D+05 0.15311873D+05 0.15311873D+05 0.12468050D+01  1  2 15  1  5  1       -2 0.216048688601D-01 0.100000000000D+01
-.548294528069D-05 0.000000000000D+00 -.761658105165D-04 0.263301033676D-02 0.000000000000D+00  5 -2 1 25 -24 21 2 0.49205781D-02 0.19534910D+00 0.15311873D+05 0.15311873D+05 0.15311873D+05 0.12468050D+01  1  2  5  1  5  1       -2 -.153332687578D-02 0.100000000000D+01
0.403008512308D-05 0.000000000000D+00 -.801091384950D-05 0.263301033676D-02 0.000000000000D+00  5 21 1 25 -24 2 2 0.49205781D-02 0.19534910D+00 0.15311873D+05 0.15311873D+05 0.15311873D+05 0.12468050D+01  1  2  5  3  5  1       -2 0.202830287041D-01 0.100000000000D+01
  </mgrwgt>
  </event>
  <event>
  5     66 0.46019439E-03 0.11534438E+03 0.75467711E-02 0.11724064E+00
       21 -1    0    0  502  501 0.00000000E+00 0.00000000E+00 0.28479946E+02 0.28489820E+02 0.75000000E+00 0.0000E+00 0.9000E+01
        1 -1    0    0  501    0 0.00000000E+00 0.00000000E+00 -.20616685E+04 0.20616685E+04 0.32000000E+00 0.0000E+00 0.9000E+01
       25  1    1    2    0    0 0.21869336E+02 0.77880007E+02 -.14837546E+04 0.14912063E+04 0.12500000E+03 0.0000E+00 0.9000E+01
      -24  1    1    2    0    0 0.59621125E+02 -.20753338E+02 -.43699903E+03 0.44879923E+03 0.80419002E+02 0.0000E+00 0.9000E+01
        2  1    1    2  502    0 -.81490462E+02 -.57126669E+02 -.11243496E+03 0.15015284E+03 0.32000000E+00 0.0000E+00 0.9000E+01
#aMCatNLO 2  0  0  1  2 0.99519604D+02 0.00000000D+00  -5  5  0 0.00000000D+00 0.00000000D+00 0.00000000D+00 0.00000000D+00 0.00000000D+00
  <mgrwgt>
 0.2084915705D+00    2    2    0
 0.126908287958327D+03 0.000000000000000D+00 0.000000000000000D+00 0.126908287958327D+03
 0.126908287958327D+03 0.000000000000000D+00 0.000000000000000D+00 -.126908287958327D+03
 0.144948449465818D+03 -.249944339673732D+02 0.450274370743642D+02 -.522767748021001D+02
 0.108868126450836D+03 0.249944339673732D+02 -.450274370743642D+02 0.522767748021001D+02
 0.000000000000000D+00 -.000000000000000D+00 -.000000000000000D+00 0.000000000000000D+00
 0.403379437880144D+03 0.000000000000000D+00 0.000000000000000D+00 0.403379437880144D+03
 0.145586207279822D+03 0.000000000000000D+00 0.000000000000000D+00 -.145586207279822D+03
 0.157801852082888D+03 0.218693362998868D+02 0.778800068495289D+02 -.522767748021001D+02
 0.114827944218280D+03 0.596211253757702D+02 -.207533381469846D+02 0.522767748021001D+02
 0.276335848858798D+03 -.814904616756570D+02 -.571266687025444D+02 0.257793230600321D+03
-.250585652148D-05 0.000000000000D+00 0.000000000000D+00 0.226807890702D-02 0.000000000000D+00  5 21 1 25 -24 2 2 0.42341259D-02 0.27648783D+00 0.30738619D+05 0.30738619D+05 0.30738619D+05 0.12137913D+01  1  2 13  3  5  1       -2 -.689268392844D-02 0.100000000000D+01
0.122583126636D-03 0.000000000000D+00 0.000000000000D+00 0.226807890702D-02 0.548260121678D-06  5 21 1 25 -24 2 2 0.43822890D-02 0.31718034D+00 0.30738619D+05 0.30738619D+05 0.30738619D+05 0.12137913D+01  1  2  1  3  5  1       -2 0.215384254431D+00 0.100000000000D+01
  </mgrwgt>
  </event>
  <event>
  4     66 0.46019439E-03 0.55742405E+02 0.75467711E-02 0.12325648E+00
       -2 -1    0    0    0  501 0.00000000E+00 0.00000000E+00 0.16440616E+03 0.16440648E+03 0.32000000E+00 0.0000E+00 0.9000E+01
        1 -1    0    0  501    0 0.00000000E+00 0.00000000E+00 -.91680459E+02 0.91681018E+02 0.32000000E+00 0.0000E+00 0.9000E+01
       25  1    1    2    0    0 0.19763102E+02 0.35206741E+02 -.12751348E+02 0.13197610E+03 0.12500000E+03 0.0000E+00 0.9000E+01
      -24  1    1    2    0    0 -.19763102E+02 -.35206741E+02 0.85477053E+02 0.12411139E+03 0.80419002E+02 0.0000E+00 0.9000E+01
#aMCatNLO 1  0  0  1  2 0.29695952D+02 0.00000000D+00  -5  5  0 0.00000000D+00 0.00000000D+00 0.00000000D+00 0.00000000D+00 0.00000000D+00
  <mgrwgt>
 0.2015721182D+00    9    2    0
 0.122771918868385D+03 0.000000000000000D+00 0.000000000000000D+00 0.122771918868385D+03
 0.122771918868385D+03 0.000000000000000D+00 0.000000000000000D+00 -.122771918868385D+03
 0.141419880328218D+03 0.197631023101450D+02 0.352067407342250D+02 -.523878587651682D+02
 0.104123957408552D+03 -.197631023101450D+02 -.352067407342250D+02 0.523878587651682D+02
 0.000000000000000D+00 -.000000000000000D+00 0.000000000000000D+00 0.000000000000000D+00
 0.147101721967869D+03 0.000000000000000D+00 0.000000000000000D+00 0.147101721967869D+03
 0.133073827943689D+03 0.000000000000000D+00 0.000000000000000D+00 -.133073827943689D+03
 0.139579594372253D+03 0.268330486577972D+02 0.198232923312922D+02 -.523878587651682D+02
 0.107753431746087D+03 -.144322675276222D+02 -.468060680542594D+02 0.523878587651682D+02
 0.328425237932178D+02 -.124007811301750D+02 0.269827757229672D+02 0.140278940241799D+02
0.312810793979D-03 0.000000000000D+00 0.000000000000D+00 0.229959019066D-02 0.000000000000D+00  5 -2 1 25 -24 21 0 0.25293323D-01 0.14104753D-01 0.12248259D+05 0.12248259D+05 0.12248259D+05 0.12579832D+01  1  2  2  1  5  1       -2 0.145071393435D+00 0.100000000000D+01
-.171508989745D-04 0.000000000000D+00 -.120127581385D-05 0.229959019066D-02 0.000000000000D+00  5 -2 1 25 -24 21 2 0.25293323D-01 0.14104753D-01 0.12248259D+05 0.12248259D+05 0.12248259D+05 0.12579832D+01  1  2  3  1  5  1       -2 -.125874166370D-01 0.100000000000D+01
0.214100005819D-04 0.000000000000D+00 0.000000000000D+00 0.229959019066D-02 0.000000000000D+00  5 -2 1 25 -24 21 2 0.25293323D-01 0.14104753D-01 0.12248259D+05 0.12248259D+05 0.12248259D+05 0.12579832D+01  1  2 15  1  5  1       -2 0.157132636559D-01 0.100000000000D+01
0.276044958675D-03 0.000000000000D+00 0.000000000000D+00 0.229959019066D-02 0.000000000000D+00  5 -2 1 25 -24 21 2 0.31205918D-01 0.14104753D-01 0.16031661D+05 0.16031661D+05 0.16031661D+05 0.12445427D+01  1  2 12  1  5  1       -2 0.137848050447D+00 0.100000000000D+01
-.280452965997D-03 0.000000000000D+00 0.000000000000D+00 0.229959019066D-02 0.000000000000D+00  5 -2 1 25 -24 21 2 0.25293323D-01 0.14104753D-01 0.12248259D+05 0.12248259D+05 0.12248259D+05 0.12579832D+01  1  2  4  1  5  1       -2 -.205830512752D+00 0.100000000000D+01
-.547574034258D-03 0.000000000000D+00 -.159732650060D-03 0.229959019066D-02 0.000000000000D+00  5 -2 1 25 -24 21 2 0.32615951D-01 0.14104753D-01 0.12248259D+05 0.12248259D+05 0.12248259D+05 0.12579832D+01  1  2  5  1  5  1       -2 -.255739761198D+00 0.100000000000D+01
0.574543547195D-03 0.000000000000D+00 0.154704917633D-03 0.229959019066D-02 0.000000000000D+00  5 -2 1 25 -24 21 2 0.25293323D-01 0.14104753D-01 0.12248259D+05 0.12248259D+05 0.12248259D+05 0.12579832D+01  1  2  6  1  5  1       -2 0.421669967002D+00 0.100000000000D+01
0.820133366271D-05 0.000000000000D+00 0.000000000000D+00 0.229959019066D-02 0.000000000000D+00  5 21 1 25 -24 2 2 0.31205918D-01 0.14104753D-01 0.16031661D+05 0.16031661D+05 0.16031661D+05 0.12445427D+01  1  2 12  3  5  1       -2 0.539251180387D-01 0.100000000000D+01
-.160119460605D-04 0.000000000000D+00 -.547360382807D-05 0.229959019066D-02 0.000000000000D+00  5 21 1 25 -24 2 2 0.32615951D-01 0.14104753D-01 0.12248259D+05 0.12248259D+05 0.12248259D+05 0.12579832D+01  1  2  5  3  5  1       -2 -.984979837411D-01 0.100000000000D+01
  </mgrwgt>
  </event>
  <event>
  4     66 0.46019439E-03 0.11766355E+03 0.75467711E-02 0.12032080E+00
       -2 -1    0    0    0  501 0.00000000E+00 0.00000000E+00 0.19815784E+02 0.19818368E+02 0.32000000E+00 0.0000E+00 0.9000E+01
        1 -1    0    0  501    0 0.00000000E+00 0.00000000E+00 -.75514638E+03 0.75514644E+03 0.32000000E+00 0.0000E+00 0.9000E+01
       25  1    1    2    0    0 0.56340949E+02 -.17018510E+01 -.52857523E+03 0.54607140E+03 0.12500000E+03 0.0000E+00 0.9000E+01
      -24  1    1    2    0    0 -.56340949E+02 0.17018510E+01 -.20675537E+03 0.22889342E+03 0.80419002E+02 0.0000E+00 0.9000E+01
#aMCatNLO 1  0  0  1  2 0.53973561D+02 0.00000000D+00  -5  5  0 0.00000000D+00 0.00000000D+00 0.00000000D+00 0.00000000D+00 0.00000000D+00
  <mgrwgt>
 0.1838856879D+00    4    2    0
 0.122330883126707D+03 0.000000000000000D+00 0.000000000000000D+00 0.122330883126707D+03
 0.122330883126707D+03 0.000000000000000D+00 0.000000000000000D+00 -.122330883126707D+03
 0.141046075504056D+03 0.563409494151305D+02 -.170185100236932D+01 -.330423446090515D+02
 0.103615690749357D+03 -.563409494151305D+02 0.170185100236932D+01 0.330423446090515D+02
 0.000000000000000D+00 0.000000000000000D+00 -.000000000000000D+00 -.000000000000000D+00
 0.141596254537431D+03 0.000000000000000D+00 0.000000000000000D+00 0.141596254537431D+03
 0.169886610526941D+03 0.000000000000000D+00 0.000000000000000D+00 -.169886610526941D+03
 0.134585371657223D+03 0.331032482574544D+02 0.173378395901844D+02 -.330423446090515D+02
 0.115959085773333D+03 -.748526725553868D+02 0.168693358810993D+02 0.330423446090515D+02
 0.609384076338164D+02 0.417494242979324D+02 -.342071754712837D+02 -.282903559895099D+02
0.271542080229D-03 0.000000000000D+00 0.000000000000D+00 0.256669093405D-02 0.000000000000D+00  5 -2 1 25 -24 21 0 0.30487861D-02 0.11617657D+00 0.13844710D+05 0.13844710D+05 0.13844710D+05 0.12518102D+01  1  2  2  1  5  1       -2 0.236487226067D+00 0.100000000000D+01
-.150579154561D-04 0.000000000000D+00 -.104279308675D-05 0.256669093405D-02 0.000000000000D+00  5 -2 1 25 -24 21 2 0.30487861D-02 0.11617657D+00 0.13844710D+05 0.13844710D+05 0.13844710D+05 0.12518102D+01  1  2  3  1  5  1       -2 -.205500273270D-01 0.100000000000D+01
0.187439984753D-04 0.000000000000D+00 0.000000000000D+00 0.256669093405D-02 0.000000000000D+00  5 -2 1 25 -24 21 2 0.30487861D-02 0.11617657D+00 0.13844710D+05 0.13844710D+05 0.13844710D+05 0.12518102D+01  1  2 15  1  5  1       -2 0.255805447976D-01 0.100000000000D+01
-.422295604376D-04 0.000000000000D+00 0.000000000000D+00 0.256669093405D-02 0.000000000000D+00  5 -2 1 25 -24 21 2 0.30487861D-02 0.11617657D+00 0.13844710D+05 0.13844710D+05 0.13844710D+05 0.12518102D+01  1  2  4  1  5  1       -2 -.576320556141D-01 0.100000000000D+01
  </mgrwgt>
  </event>
  <event>
  4     66 0.46019439E-03 0.18747633E+03 0.75467711E-02 0.10642197E+00
       -2 -1    0    0    0  501 0.00000000E+00 0.00000000E+00 0.41062584E+02 0.41063831E+02 0.32000000E+00 0.0000E+00 0.9000E+01
        1 -1    0    0  501    0 0.00000000E+00 0.00000000E+00 -.85603225E+03 0.85603231E+03 0.32000000E+00 0.0000E+00 0.9000E+01
       25  1    1    2    0    0 -.13724546E+03 -.73580452E+02 -.43886279E+03 0.48215759E+03 0.12500000E+03 0.0000E+00 0.9000E+01
      -24  1    1    2    0    0 0.13724546E+03 0.73580452E+02 -.37610687E+03 0.41493854E+03 0.80419002E+02 0.0000E+00 0.9000E+01
#aMCatNLO 1  0  0  1  1 0.24457508D+03 0.00000000D+00  -5  5  0 0.00000000D+00 0.00000000D+00 0.00000000D+00 0.00000000D+00 0.00000000D+00
  <mgrwgt>
 0.3320724755D+00    3    2    0
 0.187487284517589D+03 0.000000000000000D+00 0.000000000000000D+00 0.187487284517589D+03
 0.187487284517589D+03 0.000000000000000D+00 0.000000000000000D+00 -.187487284517589D+03
 0.199698491359152D+03 -.137245455220097D+03 -.735804517839064D+02 -.202227293556136D+01
 0.175276077676025D+03 0.137245455220097D+03 0.735804517839064D+02 0.202227293556136D+01
 0.000000000000000D+00 0.000000000000000D+00 0.000000000000000D+00 -.000000000000000D+00
 0.266778993635872D+03 0.000000000000000D+00 0.000000000000000D+00 0.266778993635872D+03
 0.572135249211423D+03 0.000000000000000D+00 0.000000000000000D+00 -.572135249211423D+03
 0.339849238807039D+03 -.282449725530841D+03 -.141741201058305D+03 -.202227293556136D+01
 0.107836920928822D+03 0.610534631506637D+02 0.378149522083930D+02 0.202227293556136D+01
 0.391228083111434D+03 0.221396262380177D+03 0.103926248849912D+03 -.305356255575551D+03
0.132001984288D-02 0.000000000000D+00 0.000000000000D+00 0.220455810716D-02 0.000000000000D+00  5 -2 1 25 -24 21 0 0.63174211D-02 0.13169737D+00 0.35147375D+05 0.35147375D+05 0.35147375D+05 0.12077461D+01  1  2  2  1  5  1       -2 0.325814842535D+00 0.100000000000D+01
-.733344354113D-04 0.000000000000D+00 -.506922376587D-05 0.220455810716D-02 0.000000000000D+00  5 -2 1 25 -24 21 2 0.63174211D-02 0.13169737D+00 0.35147375D+05 0.35147375D+05 0.35147375D+05 0.12077461D+01  1  2  3  1  5  1       -2 -.264027811939D-01 0.100000000000D+01
0.907151792811D-04 0.000000000000D+00 0.000000000000D+00 0.220455810716D-02 0.000000000000D+00  5 -2 1 25 -24 21 2 0.63174211D-02 0.13169737D+00 0.35147375D+05 0.35147375D+05 0.35147375D+05 0.12077461D+01  1  2 15  1  5  1       -2 0.326604141164D-01 0.100000000000D+01
  </mgrwgt>
  </event>
  <event>
  4     66 -.46019439E-03 0.30574434E+02 0.75467711E-02 0.12479826E+00
       -2 -1    0    0    0  501 0.00000000E+00 0.00000000E+00 0.22132999E+02 0.22135312E+02 0.32000000E+00 0.0000E+00 0.9000E+01
        1 -1    0    0  501    0 0.00000000E+00 0.00000000E+00 -.67393698E+03 0.67393705E+03 0.32000000E+00 0.0000E+00 0.9000E+01
       25  1    1    2    0    0 -.31493770E+02 -.43153731E+02 -.48132673E+03 0.50015450E+03 0.12500000E+03 0.0000E+00 0.9000E+01
      -24  1    1    2    0    0 0.31493770E+02 0.43153731E+02 -.17047725E+03 0.19591786E+03 0.80419002E+02 0.0000E+00 0.9000E+01
#aMCatNLO 1  0  0  1  2 0.16809040D+01 0.00000000D+00  -5  5  0 0.00000000D+00 0.00000000D+00 0.00000000D+00 0.00000000D+00 0.00000000D+00
  <mgrwgt>
 -.1005893041D+00   11    2    0
 0.122135490231009D+03 0.000000000000000D+00 0.000000000000000D+00 0.122135490231009D+03
 0.122135490231009D+03 0.000000000000000D+00 0.000000000000000D+00 -.122135490231009D+03
 0.140880623255629D+03 -.314937702977588D+02 -.431537313591755D+02 -.369898352403259D+02
 0.103390357206390D+03 0.314937702977588D+02 0.431537313591755D+02 0.369898352403259D+02
 0.000000000000000D+00 -.000000000000000D+00 0.000000000000000D+00 0.000000000000000D+00
 0.126038205855835D+03 0.000000000000000D+00 0.000000000000000D+00 0.126038205855835D+03
 0.122319507917449D+03 0.000000000000000D+00 0.000000000000000D+00 -.122319507917449D+03
 0.140859688662122D+03 -.306747404367617D+02 -.436722369248553D+02 -.369898352403259D+02
 0.103417075141104D+03 0.320949674122782D+02 0.427731297904252D+02 0.369898352403259D+02
 0.408094997005822D+01 -.142022697551651D+01 0.899107134430082D+00 0.371869793838520D+01
0.131114630630D-03 0.000000000000D+00 0.000000000000D+00 0.252523196478D-02 0.000000000000D+00  5 -2 1 25 -24 21 0 0.34052606D-02 0.10368280D+00 0.13512300D+05 0.13512300D+05 0.13512300D+05 0.12530272D+01  1  2  2  1  5  1       -2 0.114155832387D+00 0.100000000000D+01
-.726248662882D-05 0.000000000000D+00 -.503514704892D-06 0.252523196478D-02 0.000000000000D+00  5 -2 1 25 -24 21 2 0.34052606D-02 0.10368280D+00 0.13512300D+05 0.13512300D+05 0.13512300D+05 0.12530272D+01  1  2  3  1  5  1       -2 -.992780700671D-02 0.100000000000D+01
0.904564764450D-05 0.000000000000D+00 0.000000000000D+00 0.252523196478D-02 0.000000000000D+00  5 -2 1 25 -24 21 2 0.34052606D-02 0.10368280D+00 0.13512300D+05 0.13512300D+05 0.13512300D+05 0.12530272D+01  1  2 15  1  5  1       -2 0.123653851160D-01 0.100000000000D+01
0.391662846110D-06 0.000000000000D+00 0.000000000000D+00 0.252523196478D-02 0.000000000000D+00  5 -2 1 25 -24 21 2 0.35165928D-02 0.10368280D+00 0.13709208D+05 0.13709208D+05 0.13709208D+05 0.12523023D+01  1  2 12  1  5  1       -2 0.510297861935D-03 0.100000000000D+01
-.522553805571D-02 0.000000000000D+00 0.000000000000D+00 0.252523196478D-02 0.000000000000D+00  5 -2 1 25 -24 21 2 0.34052606D-02 0.10368280D+00 0.13512300D+05 0.13512300D+05 0.13512300D+05 0.12530272D+01  1  2  4  1  5  1       -2 -.714330173325D+01 0.100000000000D+01
-.782511854340D-02 0.000000000000D+00 -.460681142096D-03 0.252523196478D-02 0.000000000000D+00  5 -2 1 25 -24 21 2 0.35190264D-02 0.10368280D+00 0.13512300D+05 0.13512300D+05 0.13512300D+05 0.12530272D+01  1  2  5  1  5  1       -2 -.101919623825D+02 0.100000000000D+01
0.783627465548D-02 0.000000000000D+00 0.460432493236D-03 0.252523196478D-02 0.000000000000D+00  5 -2 1 25 -24 21 2 0.34052606D-02 0.10368280D+00 0.13512300D+05 0.13512300D+05 0.13512300D+05 0.12530272D+01  1  2  6  1  5  1       -2 0.107121742741D+02 0.100000000000D+01
0.522777109866D-02 0.000000000000D+00 0.000000000000D+00 0.252523196478D-02 0.747913028657D-02  5 -2 1 25 -24 21 2 0.35140722D-02 0.10383901D+00 0.13709208D+05 0.13709208D+05 0.13709208D+05 0.12523023D+01  1  2 11  1  5  1       -2 0.680407436126D+01 0.100000000000D+01
0.120383826649D-07 0.000000000000D+00 0.000000000000D+00 0.252523196478D-02 0.000000000000D+00  5 21 1 25 -24 2 2 0.35165928D-02 0.10368280D+00 0.13709208D+05 0.13709208D+05 0.13709208D+05 0.12523023D+01  1  2 12  3  5  1       -2 0.300111196138D-03 0.100000000000D+01
-.457471487039D-04 0.000000000000D+00 -.270376349372D-05 0.252523196478D-02 0.000000000000D+00  5 21 1 25 -24 2 2 0.35190264D-02 0.10368280D+00 0.13512300D+05 0.13512300D+05 0.13512300D+05 0.12530272D+01  1  2  5  3  5  1       -2 -.114018122047D+01 0.100000000000D+01
0.297596535390D-04 0.000000000000D+00 0.000000000000D+00 0.252523196478D-02 0.421346437139D-04  5 21 1 25 -24 2 2 0.35140722D-02 0.10383901D+00 0.13709208D+05 0.13709208D+05 0.13709208D+05 0.12523023D+01  1  2 11  3  5  1       -2 0.741203577244D+00 0.100000000000D+01
  </mgrwgt>
  </event>
  <event>
  5     66 0.46019439E-03 0.10927425E+03 0.75467711E-02 0.11442395E+00
       -2 -1    0    0    0  502 0.00000000E+00 0.00000000E+00 0.61515110E+02 0.61515942E+02 0.32000000E+00 0.0000E+00 0.9000E+01
        1 -1    0    0  501    0 0.00000000E+00 0.00000000E+00 -.70183234E+03 0.70183242E+03 0.32000000E+00 0.0000E+00 0.9000E+01
       25  1    1    2    0    0 -.59507095E+02 0.10144005E+03 -.24621597E+03 0.30013077E+03 0.12500000E+03 0.0000E+00 0.9000E+01
      -24  1    1    2    0    0 -.46202773E+02 0.33976142E+01 -.12514770E+03 0.15580566E+03 0.80419002E+02 0.0000E+00 0.9000E+01
       21  1    1    2  501  502 0.10570987E+03 -.10483766E+03 -.26895357E+03 0.30741193E+03 0.75000000E+00 0.0000E+00 0.9000E+01
#aMCatNLO 2  0  0  1  2 0.14888086D+03 0.00000000D+00  -5  5  0 0.00000000D+00 0.00000000D+00 0.00000000D+00 0.00000000D+00 0.00000000D+00
  <mgrwgt>
 0.1007080806D-01    1    2    0
 0.109317818931781D+03 0.000000000000000D+00 0.000000000000000D+00 0.109317818931781D+03
 0.109317818931781D+03 0.000000000000000D+00 0.000000000000000D+00 -.109317818931781D+03
 0.130260845729965D+03 0.655014689974175D+01 0.359278400711685D+02 -.302883041752542D+01
 0.883747921335961D+02 -.655014689974175D+01 -.359278400711685D+02 0.302883041752542D+01
 0.000000000000000D+00 0.000000000000000D+00 -.000000000000000D+00 -.000000000000000D+00
 0.192397456437781D+03 0.000000000000000D+00 0.000000000000000D+00 0.192397456437781D+03
 0.224396159623100D+03 0.000000000000000D+00 0.000000000000000D+00 -.224396159623100D+03
 0.171654744252073D+03 -.595070951033304D+02 0.101440046544300D+03 -.302883041752542D+01
 0.928581165871405D+02 -.462027733540384D+02 0.339761422731769D+01 0.302883041752542D+01
 0.152280755221667D+03 0.105709868457369D+03 -.104837660771618D+03 -.319987031853197D+02
0.393520636080D-04 0.000000000000D+00 0.000000000000D+00 0.302859969525D-02 0.153848125527D-05  5 -2 1 25 -24 21 2 0.94638901D-02 0.10797379D+00 0.42707858D+05 0.42707858D+05 0.42707858D+05 0.11991221D+01  1  2  1  1  5  1       -2 0.100708080591D-01 0.100000000000D+01
  </mgrwgt>
  </event>
  <event>
  4     66 0.46019439E-03 0.16310898E+03 0.75467711E-02 0.11060487E+00
       -2 -1    0    0    0  501 0.00000000E+00 0.00000000E+00 0.30237039E+02 0.30238732E+02 0.32000000E+00 0.0000E+00 0.9000E+01
        1 -1    0    0  501    0 0.00000000E+00 0.00000000E+00 -.10659476E+04 0.10659476E+04 0.32000000E+00 0.0000E+00 0.9000E+01
       25  1    1    2    0    0 0.11857777E+03 -.41167466E+02 -.32632206E+03 0.37130383E+03 0.12500000E+03 0.0000E+00 0.9000E+01
      -24  1    1    2    0    0 -.11857777E+03 0.41167466E+02 -.70938850E+03 0.72488255E+03 0.80419002E+02 0.0000E+00 0.9000E+01
#aMCatNLO 1  0  0  1  1 0.16043515D+03 0.00000000D+00  -5  5  0 0.00000000D+00 0.00000000D+00 0.00000000D+00 0.00000000D+00 0.00000000D+00
  <mgrwgt>
 0.2033597759D+00    5    2    0
 0.179532874700620D+03 0.000000000000000D+00 0.000000000000000D+00 0.179532874700620D+03
 0.179532874700620D+03 0.000000000000000D+00 0.000000000000000D+00 -.179532874700620D+03
 0.192285113059333D+03 0.118577771349272D+03 -.411674664828596D+02 0.747871416051111D+02
 0.166780636341906D+03 -.118577771349272D+03 0.411674664828596D+02 -.747871416051111D+02
 0.000000000000000D+00 0.000000000000000D+00 0.000000000000000D+00 0.000000000000000D+00
 0.286545949796739D+03 0.000000000000000D+00 0.000000000000000D+00 0.286545949796739D+03
 0.268211506001666D+03 0.000000000000000D+00 0.000000000000000D+00 -.268211506001666D+03
 0.219586441352910D+03 0.103428749041008D+03 -.127681566987503D+03 0.747871416051111D+02
 0.173691639695796D+03 -.131100661191473D+03 -.303491323029068D+02 -.747871416051111D+02
 0.161479374749699D+03 0.276719121504654D+02 0.158030699290410D+03 0.183344437950730D+02
0.677481896756D-03 0.000000000000D+00 0.000000000000D+00 0.187129117345D-02 0.000000000000D+00  5 -2 1 25 -24 21 0 0.46519860D-02 0.16399207D+00 0.26604539D+05 0.26604539D+05 0.26604539D+05 0.12204118D+01  1  2  2  1  5  1       -2 0.184253153185D+00 0.100000000000D+01
-.372166678044D-04 0.000000000000D+00 -.260170886862D-05 0.187129117345D-02 0.000000000000D+00  5 -2 1 25 -24 21 2 0.46519860D-02 0.16399207D+00 0.26604539D+05 0.26604539D+05 0.26604539D+05 0.12204118D+01  1  2  3  1  5  1       -2 -.150753533900D-01 0.100000000000D+01
0.466134025242D-04 0.000000000000D+00 0.000000000000D+00 0.187129117345D-02 0.000000000000D+00  5 -2 1 25 -24 21 2 0.46519860D-02 0.16399207D+00 0.26604539D+05 0.26604539D+05 0.26604539D+05 0.12204118D+01  1  2 15  1  5  1       -2 0.188816881579D-01 0.100000000000D+01
-.106970598402D-04 0.000000000000D+00 -.185483611317D-03 0.187129117345D-02 0.000000000000D+00  5 -2 1 25 -24 21 2 0.11389093D-01 0.16399207D+00 0.26604539D+05 0.26604539D+05 0.26604539D+05 0.12204118D+01  1  2  5  1  5  1       -2 -.108738439602D-02 0.100000000000D+01
0.105246999672D-04 0.000000000000D+00 -.182220937425D-04 0.187129117345D-02 0.000000000000D+00  5 21 1 25 -24 2 2 0.11389093D-01 0.16399207D+00 0.26604539D+05 0.26604539D+05 0.26604539D+05 0.12204118D+01  1  2  5  3  5  1       -2 0.163876723542D-01 0.100000000000D+01
  </mgrwgt>
  </event>
  <event>
  5     66 0.46019439E-03 0.11132196E+03 0.75467711E-02 0.11997907E+00
       -2 -1    0    0    0  502 0.00000000E+00 0.00000000E+00 0.81081029E+02 0.81081660E+02 0.32000000E+00 0.0000E+00 0.9000E+01
        1 -1    0    0  501    0 0.00000000E+00 0.00000000E+00 -.36717173E+03 0.36717187E+03 0.32000000E+00 0.0000E+00 0.9000E+01
       25  1    1    2    0    0 -.22434045E+02 0.67416601E+02 -.21823532E+03 0.26134257E+03 0.12500000E+03 0.0000E+00 0.9000E+01
      -24  1    1    2    0    0 -.29470460E+02 -.22164708E+02 0.24408341E+01 0.88503988E+02 0.80419002E+02 0.0000E+00 0.9000E+01
       21  1    1    2  501  502 0.51904505E+02 -.45251893E+02 -.70296216E+02 0.98406971E+02 0.75000000E+00 0.0000E+00 0.9000E+01
#aMCatNLO 2  0  0  1  1 0.68860812D+02 0.00000000D+00  -5  5  0 0.00000000D+00 0.00000000D+00 0.00000000D+00 0.00000000D+00 0.00000000D+00
  <mgrwgt>
 0.3924046500D-01    1    2    0
 0.133307485774293D+03 0.000000000000000D+00 0.000000000000000D+00 0.133307485774293D+03
 0.133307485774293D+03 0.000000000000000D+00 0.000000000000000D+00 -.133307485774293D+03
 0.150481660188502D+03 0.739684801099892D+01 0.414091404618912D+02 -.724589523716522D+02
 0.116133311360085D+03 -.739684801099892D+01 -.414091404618912D+02 0.724589523716522D+02
 0.000000000000000D+00 0.000000000000000D+00 -.000000000000000D+00 -.000000000000000D+00
 0.166552023678336D+03 0.000000000000000D+00 0.000000000000000D+00 0.166552023678336D+03
 0.178743769350530D+03 0.000000000000000D+00 0.000000000000000D+00 -.178743769350530D+03
 0.161008025481757D+03 -.224340450395641D+02 0.674166011743365D+02 -.724589523716522D+02
 0.114356014442781D+03 -.294704598948937D+02 -.221647084269835D+02 0.724589523716522D+02
 0.699317531043271D+02 0.519045049344578D+02 -.452518927473530D+02 -.121917456721945D+02
0.966909986629D-04 0.000000000000D+00 0.000000000000D+00 0.189921517223D-02 0.352666132537D-05  5 -2 1 25 -24 21 2 0.12473918D-01 0.56487356D-01 0.22667291D+05 0.22667291D+05 0.22667291D+05 0.12278850D+01  1  2  1  1  5  1       -2 0.392404650021D-01 0.100000000000D+01
  </mgrwgt>
  </event>
  <event>
  4     66 0.46019439E-03 0.44495817E+02 0.75467711E-02 0.12401115E+00
       -2 -1    0    0    0  501 0.00000000E+00 0.00000000E+00 0.21190709E+03 0.21190733E+03 0.32000000E+00 0.0000E+00 0.9000E+01
        1 -1    0    0  501    0 0.00000000E+00 0.00000000E+00 -.62478443E+02 0.62479262E+02 0.32000000E+00 0.0000E+00 0.9000E+01
       25  1    1    2    0    0 0.17537700E+02 -.44781040E+02 0.10746551E+03 0.17171706E+03 0.12500000E+03 0.0000E+00 0.9000E+01
      -24  1    1    2    0    0 -.17537700E+02 0.44781040E+02 0.41963137E+02 0.10266953E+03 0.80419002E+02 0.0000E+00 0.9000E+01
#aMCatNLO 1  0  0  2  1 0.15474147D+02 0.00000000D+00  -5  5  0 0.00000000D+00 0.00000000D+00 0.00000000D+00 0.00000000D+00 0.00000000D+00
  <mgrwgt>
 0.2860156091D+00    6    2    0
 0.115064201403984D+03 0.000000000000000D+00 0.000000000000000D+00 0.115064201403984D+03
 0.115064201403984D+03 0.000000000000000D+00 0.000000000000000D+00 -.115064201403984D+03
 0.134961319564734D+03 0.175376995307357D+02 -.447810398703141D+02 0.166326588961951D+02
 0.951670832432346D+02 -.175376995307357D+02 0.447810398703141D+02 -.166326588961951D+02
 0.000000000000000D+00 0.000000000000000D+00 -.000000000000000D+00 0.000000000000000D+00
 0.123256585410971D+03 0.000000000000000D+00 0.000000000000000D+00 0.123256585410971D+03
 0.122870446492277D+03 0.000000000000000D+00 0.000000000000000D+00 -.122870446492277D+03
 0.132269567545751D+03 0.113631839635550D+02 -.382684100400493D+02 0.166326588961951D+02
 0.983784998997939D+02 -.220096759141453D+02 0.494979000803098D+02 -.166326588961951D+02
 0.154789644577026D+02 0.106464919505903D+02 -.112294900402604D+02 0.386138918693108D+00
0.338578014329D-03 0.000000000000D+00 0.000000000000D+00 0.283423785155D-02 0.000000000000D+00  5 -2 1 25 -24 21 0 0.32601172D-01 0.96121498D-02 0.12954404D+05 0.12954404D+05 0.12954404D+05 0.12551474D+01  1  2  2  2  5  2        1 0.165392284648D+00 0.100000000000D+01
-.188071751331D-04 0.000000000000D+00 -.130022872466D-05 0.283423785155D-02 0.000000000000D+00  5 -2 1 25 -24 21 2 0.32601172D-01 0.96121498D-02 0.12954404D+05 0.12954404D+05 0.12954404D+05 0.12551474D+01  1  2  3  2  5  2        1 -.144733657988D-01 0.100000000000D+01
0.234641135965D-04 0.000000000000D+00 0.000000000000D+00 0.283423785155D-02 0.000000000000D+00  5 -2 1 25 -24 21 2 0.32601172D-01 0.96121498D-02 0.12954404D+05 0.12954404D+05 0.12954404D+05 0.12551474D+01  1  2 15  2  5  2        1 0.180571881116D-01 0.100000000000D+01
0.561708856999D-03 0.000000000000D+00 0.000000000000D+00 0.283423785155D-02 0.000000000000D+00  5 -2 1 25 -24 21 2 0.32601172D-01 0.10583501D-01 0.14842070D+05 0.14842070D+05 0.14842070D+05 0.12483469D+01  1  2 12  2  5  2        1 0.378497149095D+00 0.100000000000D+01
-.430809834092D-03 0.000000000000D+00 0.000000000000D+00 0.283423785155D-02 0.000000000000D+00  5 -2 1 25 -24 21 2 0.32601172D-01 0.96121498D-02 0.12954404D+05 0.12954404D+05 0.12954404D+05 0.12551474D+01  1  2  4  2  5  2        1 -.331536675465D+00 0.100000000000D+01
0.882782826798D-05 0.000000000000D+00 0.000000000000D+00 0.283423785155D-02 0.000000000000D+00  5 -2 21 25 -24 -1 2 0.32601172D-01 0.10583501D-01 0.14842070D+05 0.14842070D+05 0.14842070D+05 0.12483469D+01  1  2 12  4  5  2        1 0.700790285303D-01 0.100000000000D+01
  </mgrwgt>
  </event>
  <event>
  4     66 0.46019439E-03 0.17636175E+03 0.75467711E-02 0.11300018E+00
       -4 -1    0    0    0  501 0.00000000E+00 0.00000000E+00 0.79097011E+02 0.79112197E+02 0.15500000E+01 0.0000E+00 0.9000E+01
        3 -1    0    0  501    0 0.00000000E+00 0.00000000E+00 -.55573053E+03 0.55573076E+03 0.50000000E+00 0.0000E+00 0.9000E+01
       25  1    1    2    0    0 0.13968651E+03 -.26712487E+02 -.42206585E+03 0.46259103E+03 0.12500000E+03 0.0000E+00 0.9000E+01
      -24  1    1    2    0    0 -.13968651E+03 0.26712487E+02 -.54567668E+02 0.17225192E+03 0.80419002E+02 0.0000E+00 0.9000E+01
#aMCatNLO 1  0  0  1  1 0.87275586D+02 0.00000000D+00  -5  5  0 0.00000000D+00 0.00000000D+00 0.00000000D+00 0.00000000D+00 0.00000000D+00
  <mgrwgt>
 0.2478386708D-01    3    2    0
 0.209670016120974D+03 0.000000000000000D+00 0.000000000000000D+00 0.209670016120974D+03
 0.209670016120974D+03 0.000000000000000D+00 0.000000000000000D+00 -.209670016120974D+03
 0.220589298018136D+03 0.139686511039037D+03 -.267124870142039D+02 -.113175792780041D+03
 0.198750734223812D+03 -.139686511039037D+03 0.267124870142039D+02 0.113175792780041D+03
 0.000000000000000D+00 0.000000000000000D+00 0.000000000000000D+00 -.000000000000000D+00
 0.217658302657583D+03 0.000000000000000D+00 0.000000000000000D+00 0.217658302657583D+03
 0.758961041455853D+03 0.000000000000000D+00 0.000000000000000D+00 -.758961041455853D+03
 0.201690736977047D+03 0.100681401934005D+03 -.459200241240901D+02 -.113175792780041D+03
 0.226635179332856D+03 -.178978503543990D+03 0.736367806386889D+01 0.113175792780041D+03
 0.548293427803533D+03 0.782971016099853D+02 0.385563460602213D+02 -.541302738798270D+03
0.168590342144D-02 0.000000000000D+00 0.000000000000D+00 0.154203246964D-02 0.000000000000D+00  5 -4 3 25 -24 21 0 0.12169956D-01 0.85498191D-01 0.31103466D+05 0.31103466D+05 0.31103466D+05 0.12132554D+01  1  2  2  1  5  1       -4 0.242442546880D-01 0.100000000000D+01
-.902531236770D-04 0.000000000000D+00 -.647431304688D-05 0.154203246964D-02 0.000000000000D+00  5 -4 3 25 -24 21 2 0.12169956D-01 0.85498191D-01 0.31103466D+05 0.31103466D+05 0.31103466D+05 0.12132554D+01  1  2  3  1  5  1       -4 -.191048149632D-02 0.100000000000D+01
0.115744971756D-03 0.000000000000D+00 0.000000000000D+00 0.154203246964D-02 0.000000000000D+00  5 -4 3 25 -24 21 2 0.12169956D-01 0.85498191D-01 0.31103466D+05 0.31103466D+05 0.31103466D+05 0.12132554D+01  1  2 15  1  5  1       -4 0.245009388952D-02 0.100000000000D+01
  </mgrwgt>
  </event>
  <event>
  5     66 0.46019439E-03 0.11059780E+03 0.75467711E-02 0.12431250E+00
       -2 -1    0    0    0  501 0.00000000E+00 0.00000000E+00 0.19133569E+03 0.19133596E+03 0.32000000E+00 0.0000E+00 0.9000E+01
        1 -1    0    0  502    0 0.00000000E+00 0.00000000E+00 -.82393951E+02 0.82394572E+02 0.32000000E+00 0.0000E+00 0.9000E+01
       25  1    1    2    0    0 0.19614943E+02 0.24215363E+02 0.62250302E+02 0.14307771E+03 0.12500000E+03 0.0000E+00 0.9000E+01
      -24  1    1    2    0    0 -.20589783E+02 -.42203841E+02 0.15189602E+02 0.94355939E+02 0.80419002E+02 0.0000E+00 0.9000E+01
       21  1    1    2  502  501 0.97483970E+00 0.17988478E+02 0.31501835E+02 0.36296884E+02 0.75000000E+00 0.0000E+00 0.9000E+01
#aMCatNLO 2  0  0  2  2 0.18014873D+02 0.00000000D+00  -5  5  0 0.00000000D+00 0.00000000D+00 0.00000000D+00 0.00000000D+00 0.00000000D+00
  <mgrwgt>
 0.4270611703D-01    1    2    0
 0.111862931185278D+03 0.000000000000000D+00 0.000000000000000D+00 0.111862931185278D+03
 0.111862931185278D+03 0.000000000000000D+00 0.000000000000000D+00 -.111862931185278D+03
 0.132329460956569D+03 0.201852745578241D+02 0.347395537075301D+02 0.164864895075615D+02
 0.913964014139866D+02 -.201852745578241D+02 -.347395537075301D+02 -.164864895075615D+02
 0.000000000000000D+00 0.000000000000000D+00 0.000000000000000D+00 0.000000000000000D+00
 0.136383432569400D+03 0.000000000000000D+00 0.000000000000000D+00 0.136383432569400D+03
 0.115583402839939D+03 0.000000000000000D+00 0.000000000000000D+00 -.115583402839939D+03
 0.129876611146919D+03 0.196149428707168D+02 0.242153629521325D+02 0.164864895075615D+02
 0.945733769222391D+02 -.205897825716111D+02 -.422038408853532D+02 -.164864895075615D+02
 0.275168473401818D+02 0.974839700894316D+00 0.179884779332207D+02 0.208000297294610D+02
0.666790912679D-04 0.000000000000D+00 0.000000000000D+00 0.290815055038D-02 0.760584324085D-04  5 -2 1 25 -24 21 2 0.29435055D-01 0.12675512D-01 0.14395936D+05 0.14395936D+05 0.14395936D+05 0.12498628D+01  1  2  1  2  5  2        1 0.427061170326D-01 0.100000000000D+01
  </mgrwgt>
  </event>
  <event>
  4     66 0.46019439E-03 0.10305480E+03 0.75467711E-02 0.10315611E+00
       -2 -1    0    0    0  501 0.00000000E+00 0.00000000E+00 0.70157987E+01 0.70230927E+01 0.32000000E+00 0.0000E+00 0.9000E+01
        1 -1    0    0  501    0 0.00000000E+00 0.00000000E+00 -.20973023E+04 0.20973023E+04 0.32000000E+00 0.0000E+00 0.9000E+01
       25  1    1    2    0    0 -.77563761E+01 0.27503195E+01 -.17536544E+04 0.17581230E+04 0.12500000E+03 0.0000E+00 0.9000E+01
      -24  1    1    2    0    0 0.77563761E+01 -.27503195E+01 -.33663205E+03 0.34620236E+03 0.80419002E+02 0.0000E+00 0.9000E+01
#aMCatNLO 1  0  0  1  2 0.41320611D+03 0.00000000D+00  -5  5  0 0.00000000D+00 0.00000000D+00 0.00000000D+00 0.00000000D+00 0.00000000D+00
  <mgrwgt>
 0.3268945646D+00    5    2    0
 0.121334046448244D+03 0.000000000000000D+00 0.000000000000000D+00 0.121334046448244D+03
 0.121334046448244D+03 0.000000000000000D+00 0.000000000000000D+00 -.121334046448244D+03
 0.140202996082953D+03 -.775637614085625D+01 0.275031953441540D+01 -.629615317654888D+02
 0.102465096813535D+03 0.775637614085625D+01 -.275031953441540D+01 0.629615317654888D+02
 0.000000000000000D+00 0.000000000000000D+00 -.000000000000000D+00 0.000000000000000D+00
 0.685766077001266D+03 0.000000000000000D+00 0.000000000000000D+00 0.685766077001266D+03
 0.335266739762538D+03 0.000000000000000D+00 0.000000000000000D+00 -.335266739762538D+03
 0.289649340730058D+03 -.185882815134784D+03 0.172496855451536D+03 -.629615317654888D+02
 0.189544870634955D+03 -.113249586134415D+03 0.112562954775443D+03 0.629615317654888D+02
 0.541838605398791D+03 0.299132401269199D+03 -.285059810226979D+03 0.350499337238729D+03
0.580829867211D-03 0.000000000000D+00 0.000000000000D+00 0.211394539653D-02 0.000000000000D+00  5 -2 1 25 -24 21 0 0.10799166D-02 0.32266245D+00 0.10620291D+05 0.10620291D+05 0.10620291D+05 0.12652888D+01  1  2  2  1  5  1       -2 0.278969936780D+00 0.100000000000D+01
-.312222601697D-04 0.000000000000D+00 -.223053962611D-05 0.211394539653D-02 0.000000000000D+00  5 -2 1 25 -24 21 2 0.10799166D-02 0.32266245D+00 0.10620291D+05 0.10620291D+05 0.10620291D+05 0.12652888D+01  1  2  3  1  5  1       -2 -.240077882794D-01 0.100000000000D+01
0.397723105979D-04 0.000000000000D+00 0.000000000000D+00 0.211394539653D-02 0.000000000000D+00  5 -2 1 25 -24 21 2 0.10799166D-02 0.32266245D+00 0.10620291D+05 0.10620291D+05 0.10620291D+05 0.12652888D+01  1  2 15  1  5  1       -2 0.305821938266D-01 0.100000000000D+01
0.928277533989D-02 0.000000000000D+00 -.208842910468D-02 0.211394539653D-02 0.000000000000D+00  5 -2 1 25 -24 21 2 0.67130406D-01 0.32266245D+00 0.10620291D+05 0.10620291D+05 0.10620291D+05 0.12652888D+01  1  2  5  1  5  1       -2 0.920293026991D-02 0.100000000000D+01
0.261816521295D-02 0.000000000000D+00 -.745976260575D-03 0.211394539653D-02 0.000000000000D+00  5 21 1 25 -24 2 2 0.67130406D-01 0.32266245D+00 0.10620291D+05 0.10620291D+05 0.10620291D+05 0.12652888D+01  1  2  5  3  5  1       -2 0.321472920039D-01 0.100000000000D+01
  </mgrwgt>
  </event>
  <event>
  4     66 0.46019439E-03 0.27845647E+03 0.75467711E-02 0.10780952E+00
       -2 -1    0    0    0  501 0.00000000E+00 0.00000000E+00 0.32351315E+03 0.32351331E+03 0.32000000E+00 0.0000E+00 0.9000E+01
        1 -1    0    0  501    0 0.00000000E+00 0.00000000E+00 -.24502104E+03 0.24502125E+03 0.32000000E+00 0.0000E+00 0.9000E+01
       25  1    1    2    0    0 -.11438220E+03 0.23124924E+03 0.82352572E+02 0.29827243E+03 0.12500000E+03 0.0000E+00 0.9000E+01
      -24  1    1    2    0    0 0.11438220E+03 -.23124924E+03 -.38604694E+01 0.27026213E+03 0.80419002E+02 0.0000E+00 0.9000E+01
#aMCatNLO 1  0  0  1  2 0.68437447D+02 0.00000000D+00  -5  5  0 0.00000000D+00 0.00000000D+00 0.00000000D+00 0.00000000D+00 0.00000000D+00
  <mgrwgt>
 0.2445879706D+00    4    2    0
 0.281545082496659D+03 0.000000000000000D+00 0.000000000000000D+00 0.281545082496659D+03
 0.281545082496659D+03 0.000000000000000D+00 0.000000000000000D+00 -.281545082496659D+03
 0.289676803324830D+03 -.114382204191915D+03 0.231249235776117D+03 0.415710560565068D+02
 0.273413361668487D+03 0.114382204191915D+03 -.231249235776117D+03 -.415710560565068D+02
 0.000000000000000D+00 -.000000000000000D+00 -.000000000000000D+00 -.000000000000000D+00
 0.289962118692675D+03 0.000000000000000D+00 0.000000000000000D+00 0.289962118692675D+03
 0.468153313244460D+03 0.000000000000000D+00 0.000000000000000D+00 -.468153313244460D+03
 0.311619215709942D+03 -.992854351840059D+02 0.264378110399384D+03 0.415710560565068D+02
 0.255614614394282D+03 0.127664535856378D+03 -.202102025522975D+03 -.415710560565068D+02
 0.190881601832912D+03 -.283791006723718D+02 -.622760848764083D+02 -.178191194551785D+03
0.650425124159D-02 0.000000000000D+00 0.000000000000D+00 0.198215943733D-02 0.000000000000D+00  5 -2 1 25 -24 21 0 0.49771282D-01 0.37695574D-01 0.77538006D+05 0.77538006D+05 0.77538006D+05 0.11738596D+01  1  2  2  1  5  1       -2 0.252113398392D+00 0.100000000000D+01
-.361293831876D-03 0.000000000000D+00 -.249780373764D-04 0.198215943733D-02 0.000000000000D+00  5 -2 1 25 -24 21 2 0.49771282D-01 0.37695574D-01 0.77538006D+05 0.77538006D+05 0.77538006D+05 0.11738596D+01  1  2  3  1  5  1       -2 -.192970762348D-01 0.100000000000D+01
0.446716804015D-03 0.000000000000D+00 0.000000000000D+00 0.198215943733D-02 0.000000000000D+00  5 -2 1 25 -24 21 2 0.49771282D-01 0.37695574D-01 0.77538006D+05 0.77538006D+05 0.77538006D+05 0.11738596D+01  1  2 15  1  5  1       -2 0.238596052905D-01 0.100000000000D+01
-.226319479268D-03 0.000000000000D+00 0.000000000000D+00 0.198215943733D-02 0.000000000000D+00  5 -2 1 25 -24 21 2 0.49771282D-01 0.37695574D-01 0.77538006D+05 0.77538006D+05 0.77538006D+05 0.11738596D+01  1  2  4  1  5  1       -2 -.120879568361D-01 0.100000000000D+01
  </mgrwgt>
  </event>
  <event>
  5     66 0.46019439E-03 0.12072818E+03 0.75467711E-02 0.11791463E+00
       -2 -1    0    0    0  501 0.00000000E+00 0.00000000E+00 0.32848210E+02 0.32849768E+02 0.32000000E+00 0.0000E+00 0.9000E+01
       21 -1    0    0  501  502 0.00000000E+00 0.00000000E+00 -.86895742E+03 0.86895775E+03 0.75000000E+00 0.0000E+00 0.9000E+01
       25  1    1    2    0    0 0.12042788E+02 -.75457144E+02 -.34544916E+03 0.37523183E+03 0.12500000E+03 0.0000E+00 0.9000E+01
      -24  1    1    2    0    0 -.70832560E+02 0.17728952E+02 -.26959697E+03 0.29065669E+03 0.80419002E+02 0.0000E+00 0.9000E+01
       -1  1    1    2    0  502 0.58789772E+02 0.57728192E+02 -.22106309E+03 0.23591899E+03 0.32000000E+00 0.0000E+00 0.9000E+01
#aMCatNLO 2  0  0  2  2 0.82394062D+02 0.00000000D+00  -5  5  0 0.00000000D+00 0.00000000D+00 0.00000000D+00 0.00000000D+00 0.00000000D+00
  <mgrwgt>
 0.9138848719D-02    1    2    0
 0.120765270593310D+03 0.000000000000000D+00 0.000000000000000D+00 0.120765270593310D+03
 0.120765270593310D+03 0.000000000000000D+00 0.000000000000000D+00 -.120765270593310D+03
 0.139723088516952D+03 0.459226030195505D+02 -.421891041806402D+02 0.295558540054879D+01
 0.101807452669668D+03 -.459226030195505D+02 0.421891041806402D+02 -.295558540054879D+01
 0.000000000000000D+00 0.000000000000000D+00 0.000000000000000D+00 -.000000000000000D+00
 0.164882226472810D+03 0.000000000000000D+00 0.000000000000000D+00 0.164882226472810D+03
 0.173120174083656D+03 0.000000000000000D+00 0.000000000000000D+00 -.173120174083656D+03
 0.146535131551007D+03 0.120427881156044D+02 -.754571437838295D+02 0.295558540054879D+01
 0.108662407050759D+03 -.708325598008604D+02 0.177289519907937D+02 -.295558540054879D+01
 0.828048619547010D+02 0.587897716852560D+02 0.577281917930358D+02 -.823794761084587D+01
0.101718450252D-04 0.000000000000D+00 0.000000000000D+00 0.276746054360D-02 0.243171547697D-06  5 -2 21 25 -24 -1 2 0.50537063D-02 0.13368566D+00 0.28480205D+05 0.28480205D+05 0.28480205D+05 0.12172752D+01  1  2  1  4  5  2        1 0.913884871911D-02 0.100000000000D+01
  </mgrwgt>
  </event>
  <event>
  4     66 0.46019439E-03 0.11001420E+03 0.75467711E-02 0.11244660E+00
       -2 -1    0    0    0  501 0.00000000E+00 0.00000000E+00 0.28081933E+02 0.28083756E+02 0.32000000E+00 0.0000E+00 0.9000E+01
        1 -1    0    0  501    0 0.00000000E+00 0.00000000E+00 -.43492965E+03 0.43492977E+03 0.32000000E+00 0.0000E+00 0.9000E+01
       25  1    1    2    0    0 -.38600296E+02 -.32899926E+00 -.26322805E+03 0.29394573E+03 0.12500000E+03 0.0000E+00 0.9000E+01
      -24  1    1    2    0    0 0.38600296E+02 0.32899926E+00 -.14361967E+03 0.16906779E+03 0.80419002E+02 0.0000E+00 0.9000E+01
#aMCatNLO 1  0  0  2  2 0.18117945D+03 0.00000000D+00  -5  5  0 0.00000000D+00 0.00000000D+00 0.00000000D+00 0.00000000D+00 0.00000000D+00
  <mgrwgt>
 0.1755666427D+00    5    2    0
 0.110517485038600D+03 0.000000000000000D+00 0.000000000000000D+00 0.110517485038600D+03
 0.110517485038600D+03 0.000000000000000D+00 0.000000000000000D+00 -.110517485038600D+03
 0.131233175507015D+03 -.386002961867783D+02 -.328999264419974D+00 -.103467505735915D+02
 0.898017945701847D+02 0.386002961867783D+02 0.328999264419974D+00 0.103467505735915D+02
 0.000000000000000D+00 -.000000000000000D+00 0.000000000000000D+00 -.000000000000000D+00
 0.227543430760974D+03 0.000000000000000D+00 0.000000000000000D+00 0.227543430760974D+03
 0.239855279599450D+03 0.000000000000000D+00 0.000000000000000D+00 -.239855279599450D+03
 0.141661694399278D+03 0.481844433416082D+02 -.448802833380282D+02 -.103467505735915D+02
 0.144139726207740D+03 0.112997275333210D+03 -.378629797653364D+02 0.103467505735915D+02
 0.181597289753406D+03 -.161181718674819D+03 0.827432631033646D+02 -.123118488384760D+02
0.146380614080D-03 0.000000000000D+00 0.000000000000D+00 0.297554567912D-02 0.000000000000D+00  5 -2 1 25 -24 21 0 0.43204467D-02 0.66912403D-01 0.12103124D+05 0.12103124D+05 0.12103124D+05 0.12585888D+01  1  2  2  2  5  2        1 0.159403108681D+00 0.100000000000D+01
-.813205034936D-05 0.000000000000D+00 -.562140100967D-06 0.297554567912D-02 0.000000000000D+00  5 -2 1 25 -24 21 2 0.43204467D-02 0.66912403D-01 0.12103124D+05 0.12103124D+05 0.12103124D+05 0.12585888D+01  1  2  3  2  5  2        1 -.140275235837D-01 0.100000000000D+01
0.101333528145D-04 0.000000000000D+00 0.000000000000D+00 0.297554567912D-02 0.000000000000D+00  5 -2 1 25 -24 21 2 0.43204467D-02 0.66912403D-01 0.12103124D+05 0.12103124D+05 0.12103124D+05 0.12585888D+01  1  2 15  2  5  2        1 0.174797055454D-01 0.100000000000D+01
0.502571274293D-04 0.000000000000D+00 -.614457529582D-04 0.297554567912D-02 0.000000000000D+00  5 -2 1 25 -24 21 2 0.43204467D-02 0.24582645D+00 0.12103124D+05 0.12103124D+05 0.12103124D+05 0.12585888D+01  1  2  5  2  5  2        1 0.106246514013D-01 0.100000000000D+01
0.924764895094D-05 0.000000000000D+00 -.942726035017D-05 0.297554567912D-02 0.000000000000D+00  5 -2 21 25 -24 -1 2 0.43204467D-02 0.24582645D+00 0.12103124D+05 0.12103124D+05 0.12103124D+05 0.12585888D+01  1  2  5  4  5  2        1 0.208670066149D-02 0.100000000000D+01
  </mgrwgt>
  </event>
  <event>
  4     66 0.46019439E-03 0.10306388E+03 0.75467711E-02 0.12715189E+00
       -2 -1    0    0    0  501 0.00000000E+00 0.00000000E+00 0.72112393E+01 0.72183358E+01 0.32000000E+00 0.0000E+00 0.9000E+01
        1 -1    0    0  501    0 0.00000000E+00 0.00000000E+00 -.14960239E+04 0.14960240E+04 0.32000000E+00 0.0000E+00 0.9000E+01
       25  1    1    2    0    0 0.20758534E+01 -.80747638E+01 -.99482492E+03 0.10026820E+04 0.12500000E+03 0.0000E+00 0.9000E+01
      -24  1    1    2    0    0 -.20758534E+01 0.80747638E+01 -.49398779E+03 0.50056035E+03 0.80419002E+02 0.0000E+00 0.9000E+01
#aMCatNLO 1  0  0  1  2 0.24430693D+01 0.00000000D+00  -5  5  0 0.00000000D+00 0.00000000D+00 0.00000000D+00 0.00000000D+00 0.00000000D+00
  <mgrwgt>
 0.3012933607D+00    6    2    0
 0.103891993444084D+03 0.000000000000000D+00 0.000000000000000D+00 0.103891993444084D+03
 0.103891993444084D+03 0.000000000000000D+00 0.000000000000000D+00 -.103891993444084D+03
 0.125928783147610D+03 0.207585343359554D+01 -.807476377825510D+01 -.127885670614545D+02
 0.818552037405579D+02 -.207585343359554D+01 0.807476377825510D+01 0.127885670614545D+02
 0.000000000000000D+00 -.000000000000000D+00 -.000000000000000D+00 -.000000000000000D+00
 0.104516136382732D+03 0.000000000000000D+00 0.000000000000000D+00 0.104516136382732D+03
 0.106317714096699D+03 0.000000000000000D+00 0.000000000000000D+00 -.106317714096699D+03
 0.125855482211716D+03 0.255298766709921D+01 -.667362039899803D+01 -.127885670614545D+02
 0.819428666625653D+02 -.176545410558495D+01 0.898627658288922D+01 0.127885670614545D+02
 0.303550160514912D+01 -.787533561514261D+00 -.231265618389119D+01 -.180157771396667D+01
0.207021360575D-03 0.000000000000D+00 0.000000000000D+00 0.316121800029D-02 0.000000000000D+00  5 -2 1 25 -24 21 0 0.11099700D-02 0.23015808D+00 0.10622164D+05 0.10622164D+05 0.10622164D+05 0.12652797D+01  1  2  2  1  5  1       -2 0.229373348514D+00 0.100000000000D+01
-.115002911040D-04 0.000000000000D+00 -.795016534585D-06 0.316121800029D-02 0.000000000000D+00  5 -2 1 25 -24 21 2 0.11099700D-02 0.23015808D+00 0.10622164D+05 0.10622164D+05 0.10622164D+05 0.12652797D+01  1  2  3  1  5  1       -2 -.203990398128D-01 0.100000000000D+01
0.141536382973D-04 0.000000000000D+00 0.000000000000D+00 0.316121800029D-02 0.000000000000D+00  5 -2 1 25 -24 21 2 0.11099700D-02 0.23015808D+00 0.10622164D+05 0.10622164D+05 0.10622164D+05 0.12652797D+01  1  2 15  1  5  1       -2 0.251055063312D-01 0.100000000000D+01
-.252247018701D-03 0.000000000000D+00 0.000000000000D+00 0.316121800029D-02 0.000000000000D+00  5 -2 1 25 -24 21 2 0.11099700D-02 0.23015808D+00 0.10622164D+05 0.10622164D+05 0.10622164D+05 0.12652797D+01  1  2  4  1  5  1       -2 -.447431889385D+00 0.100000000000D+01
0.252165294103D-03 0.000000000000D+00 0.000000000000D+00 0.316121800029D-02 0.451478509574D-02  5 -2 1 25 -24 21 2 0.11166382D-02 0.23553192D+00 0.10877020D+05 0.10877020D+05 0.10877020D+05 0.12640561D+01  1  2 11  1  5  1       -2 0.420685525989D+00 0.100000000000D+01
0.243298427875D-05 0.000000000000D+00 0.000000000000D+00 0.316121800029D-02 0.508585291262D-05  5 21 1 25 -24 2 2 0.11166382D-02 0.23553192D+00 0.10877020D+05 0.10877020D+05 0.10877020D+05 0.12640561D+01  1  2 11  3  5  1       -2 0.939599091095D-01 0.100000000000D+01
  </mgrwgt>
  </event>
  <event>
  4     66 0.46019439E-03 0.13213088E+03 0.75467711E-02 0.10551725E+00
       -2 -1    0    0    0  501 0.00000000E+00 0.00000000E+00 0.43109497E+02 0.43110684E+02 0.32000000E+00 0.0000E+00 0.9000E+01
        1 -1    0    0  501    0 0.00000000E+00 0.00000000E+00 -.55556799E+03 0.55556808E+03 0.32000000E+00 0.0000E+00 0.9000E+01
       25  1    1    2    0    0 0.67476801E+02 -.46471184E+02 -.43558882E+03 0.46051635E+03 0.12500000E+03 0.0000E+00 0.9000E+01
      -24  1    1    2    0    0 -.67476801E+02 0.46471184E+02 -.76869667E+02 0.13816241E+03 0.80419002E+02 0.0000E+00 0.9000E+01
#aMCatNLO 1  0  0  1  1 0.32299720D+03 0.00000000D+00  -5  5  0 0.00000000D+00 0.00000000D+00 0.00000000D+00 0.00000000D+00 0.00000000D+00
  <mgrwgt>
 0.2578450930D+00    3    2    0
 0.154759940859150D+03 0.000000000000000D+00 0.000000000000000D+00 0.154759940859150D+03
 0.154759940859150D+03 0.000000000000000D+00 0.000000000000000D+00 -.154759940859150D+03
 0.169553472044917D+03 0.674768010947061D+02 -.464711835941730D+02 -.800667864464956D+02
 0.139966409673382D+03 -.674768010947061D+02 0.464711835941730D+02 0.800667864464956D+02
 0.000000000000000D+00 0.000000000000000D+00 -.000000000000000D+00 -.000000000000000D+00
 0.326257956727105D+03 0.000000000000000D+00 0.000000000000000D+00 0.326257956727105D+03
 0.477940817520617D+03 0.000000000000000D+00 0.000000000000000D+00 -.477940817520617D+03
 0.159960427148953D+03 -.401082106017891D+02 0.440792400584378D+02 -.800667864464956D+02
 0.287398210082881D+03 -.207009694024647D+03 0.163910986490919D+03 0.800667864464956D+02
 0.356840137015887D+03 0.247117904626436D+03 -.207990226549357D+03 -.151682860793512D+03
0.598037648015D-03 0.000000000000D+00 0.000000000000D+00 0.178932402806D-02 0.000000000000D+00  5 -2 1 25 -24 21 0 0.66323287D-02 0.85472096D-01 0.17458569D+05 0.17458569D+05 0.17458569D+05 0.12403772D+01  1  2  2  1  5  1       -2 0.252012627502D+00 0.100000000000D+01
-.322148202080D-04 0.000000000000D+00 -.229662203531D-05 0.178932402806D-02 0.000000000000D+00  5 -2 1 25 -24 21 2 0.66323287D-02 0.85472096D-01 0.17458569D+05 0.17458569D+05 0.17458569D+05 0.12403772D+01  1  2  3  1  5  1       -2 -.208860843793D-01 0.100000000000D+01
0.412108494791D-04 0.000000000000D+00 0.000000000000D+00 0.178932402806D-02 0.000000000000D+00  5 -2 1 25 -24 21 2 0.66323287D-02 0.85472096D-01 0.17458569D+05 0.17458569D+05 0.17458569D+05 0.12403772D+01  1  2 15  1  5  1       -2 0.267185498478D-01 0.100000000000D+01
  </mgrwgt>
  </event>
  <event>
  4     66 0.46019439E-03 0.23226601E+03 0.75467711E-02 0.10783655E+00
       -2 -1    0    0    0  501 0.00000000E+00 0.00000000E+00 0.31288186E+03 0.31288203E+03 0.32000000E+00 0.0000E+00 0.9000E+01
        1 -1    0    0  501    0 0.00000000E+00 0.00000000E+00 -.17257567E+03 0.17257597E+03 0.32000000E+00 0.0000E+00 0.9000E+01
       25  1    1    2    0    0 0.30413588E+02 -.20511842E+03 0.65866369E+02 0.25092216E+03 0.12500000E+03 0.0000E+00 0.9000E+01
      -24  1    1    2    0    0 -.30413588E+02 0.20511842E+03 0.74439824E+02 0.23453583E+03 0.80419002E+02 0.0000E+00 0.9000E+01
#aMCatNLO 1  0  0  2  1 0.14245487D+03 0.00000000D+00  -5  5  0 0.00000000D+00 0.00000000D+00 0.00000000D+00 0.00000000D+00 0.00000000D+00
  <mgrwgt>
 0.2047844425D+00    4    2    0
 0.232370198189008D+03 0.000000000000000D+00 0.000000000000000D+00 0.232370198189008D+03
 0.232370198189008D+03 0.000000000000000D+00 0.000000000000000D+00 -.232370198189008D+03
 0.242222778378939D+03 0.304135878270274D+02 -.205118420981835D+03 -.695136065952780D+01
 0.222517617999077D+03 -.304135878270274D+02 0.205118420981835D+03 0.695136065952780D+01
 0.000000000000000D+00 0.000000000000000D+00 0.000000000000000D+00 0.000000000000000D+00
 0.358453092883216D+03 0.000000000000000D+00 0.000000000000000D+00 0.358453092883216D+03
 0.287000476167909D+03 0.000000000000000D+00 0.000000000000000D+00 -.287000476167909D+03
 0.281028226116116D+03 -.343855430885756D+02 -.249241202222778D+03 -.695136065952780D+01
 0.205055126334340D+03 -.833639730111741D+02 0.169063643254235D+03 0.695136065952780D+01
 0.159370216600669D+03 0.117749516099750D+03 0.801775589685429D+02 0.714526167153076D+02
0.428744939967D-02 0.000000000000D+00 0.000000000000D+00 0.208791822140D-02 0.000000000000D+00  5 -2 1 25 -24 21 0 0.48135707D-01 0.26550139D-01 0.53947500D+05 0.53947500D+05 0.53947500D+05 0.11890272D+01  1  2  2  2  5  2        1 0.276506602482D+00 0.100000000000D+01
-.238191575070D-03 0.000000000000D+00 -.164649346061D-04 0.208791822140D-02 0.000000000000D+00  5 -2 1 25 -24 21 2 0.48135707D-01 0.26550139D-01 0.53947500D+05 0.53947500D+05 0.53947500D+05 0.11890272D+01  1  2  3  2  5  2        1 -.217178325009D-01 0.100000000000D+01
0.294248641388D-03 0.000000000000D+00 0.000000000000D+00 0.208791822140D-02 0.000000000000D+00  5 -2 1 25 -24 21 2 0.48135707D-01 0.26550139D-01 0.53947500D+05 0.53947500D+05 0.53947500D+05 0.11890272D+01  1  2 15  2  5  2        1 0.268290039454D-01 0.100000000000D+01
-.842673974022D-03 0.000000000000D+00 0.000000000000D+00 0.208791822140D-02 0.000000000000D+00  5 -2 1 25 -24 21 2 0.48135707D-01 0.26550139D-01 0.53947500D+05 0.53947500D+05 0.53947500D+05 0.11890272D+01  1  2  4  2  5  2        1 -.768333313862D-01 0.100000000000D+01
  </mgrwgt>
  </event>
  <event>
  4     66 0.46019439E-03 0.21221172E+03 0.75467711E-02 0.10827734E+00
       -2 -1    0    0    0  501 0.00000000E+00 0.00000000E+00 0.95858261E+02 0.95858795E+02 0.32000000E+00 0.0000E+00 0.9000E+01
        1 -1    0    0  501    0 0.00000000E+00 0.00000000E+00 -.48447774E+03 0.48447785E+03 0.32000000E+00 0.0000E+00 0.9000E+01
       25  1    1    2    0    0 0.28376657E+02 0.18247977E+03 -.25434169E+03 0.33825847E+03 0.12500000E+03 0.0000E+00 0.9000E+01
      -24  1    1    2    0    0 -.28376657E+02 -.18247977E+03 -.13427780E+03 0.24207817E+03 0.80419002E+02 0.0000E+00 0.9000E+01
#aMCatNLO 1  0  0  1  1 0.15778613D+03 0.00000000D+00  -5  5  0 0.00000000D+00 0.00000000D+00 0.00000000D+00 0.00000000D+00 0.00000000D+00
  <mgrwgt>
 0.3775060249D+00    3    2    0
 0.215502621185047D+03 0.000000000000000D+00 0.000000000000000D+00 0.215502621185047D+03
 0.215502621185047D+03 0.000000000000000D+00 0.000000000000000D+00 -.215502621185047D+03
 0.226126371368770D+03 0.283766573640421D+02 0.182479766219597D+03 -.374704692483539D+02
 0.204878871001324D+03 -.283766573640421D+02 -.182479766219597D+03 0.374704692483539D+02
 0.000000000000000D+00 -.000000000000000D+00 -.000000000000000D+00 -.000000000000000D+00
 0.249738292483014D+03 0.000000000000000D+00 0.000000000000000D+00 0.249738292483014D+03
 0.536873829535397D+03 0.000000000000000D+00 0.000000000000000D+00 -.536873829535397D+03
 0.298136652033533D+03 0.891580356456930D+02 0.252798876381747D+03 -.374704692483539D+02
 0.160842629245296D+03 0.140239237564098D+02 -.133425743111859D+03 0.374704692483539D+02
 0.327632840739582D+03 -.103181959402103D+03 -.119373133269888D+03 -.287135537052383D+03
0.255408340705D-02 0.000000000000D+00 0.000000000000D+00 0.206218287211D-02 0.000000000000D+00  5 -2 1 25 -24 21 0 0.14747474D-01 0.74535087D-01 0.45033816D+05 0.45033816D+05 0.45033816D+05 0.11968075D+01  1  2  2  1  5  1       -2 0.370526172539D+00 0.100000000000D+01
-.141852667911D-03 0.000000000000D+00 -.980835278867D-05 0.206218287211D-02 0.000000000000D+00  5 -2 1 25 -24 21 2 0.14747474D-01 0.74535087D-01 0.45033816D+05 0.45033816D+05 0.45033816D+05 0.11968075D+01  1  2  3  1  5  1       -2 -.294760916097D-01 0.100000000000D+01
0.175442965080D-03 0.000000000000D+00 0.000000000000D+00 0.206218287211D-02 0.000000000000D+00  5 -2 1 25 -24 21 2 0.14747474D-01 0.74535087D-01 0.45033816D+05 0.45033816D+05 0.45033816D+05 0.11968075D+01  1  2 15  1  5  1       -2 0.364559439533D-01 0.100000000000D+01
  </mgrwgt>
  </event>
  <event>
  5     66 0.46019439E-03 0.10837010E+03 0.75467711E-02 0.12299185E+00
       -2 -1    0    0    0  502 0.00000000E+00 0.00000000E+00 0.95276309E+01 0.95330032E+01 0.32000000E+00 0.0000E+00 0.9000E+01
        1 -1    0    0  501    0 0.00000000E+00 0.00000000E+00 -.20859698E+04 0.20859698E+04 0.32000000E+00 0.0000E+00 0.9000E+01
       25  1    1    2    0    0 0.41982338E+02 0.12087020E+02 -.64731272E+03 0.66071732E+03 0.12500000E+03 0.0000E+00 0.9000E+01
      -24  1    1    2    0    0 -.26525709E+02 0.21459604E+02 -.11325162E+04 0.11358804E+04 0.80419002E+02 0.0000E+00 0.9000E+01
       21  1    1    2  501  502 -.15456629E+02 -.33546624E+02 -.29661323E+03 0.29890509E+03 0.75000000E+00 0.0000E+00 0.9000E+01
#aMCatNLO 2  0  0  1  2 0.36936206D+02 0.00000000D+00  -5  5  0 0.00000000D+00 0.00000000D+00 0.00000000D+00 0.00000000D+00 0.00000000D+00
  <mgrwgt>
 0.5505054009D-01    1    2    0
 0.121045536361522D+03 0.000000000000000D+00 0.000000000000000D+00 0.121045536361522D+03
 0.121045536361522D+03 0.000000000000000D+00 0.000000000000000D+00 -.121045536361522D+03
 0.139959459833839D+03 0.330120081470239D+02 -.738192650913071D+01 0.530976918151300D+02
 0.102131612889205D+03 -.330120081470239D+02 0.738192650913071D+01 -.530976918151300D+02
 0.000000000000000D+00 -.000000000000000D+00 -.000000000000000D+00 -.000000000000000D+00
 0.139177790444603D+03 0.000000000000000D+00 0.000000000000000D+00 0.139177790444603D+03
 0.142831231072941D+03 0.000000000000000D+00 0.000000000000000D+00 -.142831231072941D+03
 0.142663862278294D+03 0.419823377414690D+02 0.120870195592972D+02 0.530976918151300D+02
 0.102228707714292D+03 -.265257089338524D+02 0.214596042839944D+02 -.530976918151300D+02
 0.371164515249578D+02 -.154566288076167D+02 -.335466238432916D+02 -.365344062833791D+01
0.112493240120D-03 0.000000000000D+00 0.000000000000D+00 0.230261206829D-02 0.143017649130D-04  5 -2 1 25 -24 21 2 0.14661651D-02 0.32091021D+00 0.16474790D+05 0.16474790D+05 0.16474790D+05 0.12432060D+01  1  2  1  1  5  1       -2 0.550505400925D-01 0.100000000000D+01
  </mgrwgt>
  </event>
  <event>
  5     66 0.46019439E-03 0.11354514E+03 0.75467711E-02 0.11320981E+00
       -2 -1    0    0    0  501 0.00000000E+00 0.00000000E+00 0.35931432E+03 0.35931447E+03 0.32000000E+00 0.0000E+00 0.9000E+01
       21 -1    0    0  501  502 0.00000000E+00 0.00000000E+00 -.16311371E+03 0.16311544E+03 0.75000000E+00 0.0000E+00 0.9000E+01
       25  1    1    2    0    0 0.57768470E+02 -.13514440E+03 0.31499424E+02 0.19549532E+03 0.12500000E+03 0.0000E+00 0.9000E+01
      -24  1    1    2    0    0 -.12487576E+02 -.25256266E+02 0.13195719E+03 0.15707875E+03 0.80419002E+02 0.0000E+00 0.9000E+01
       -1  1    1    2    0  502 -.45280894E+02 0.16040067E+03 0.32743999E+02 0.16985584E+03 0.32000000E+00 0.0000E+00 0.9000E+01
#aMCatNLO 2  0  0  2  2 0.16666953D+03 0.00000000D+00  -5  5  0 0.00000000D+00 0.00000000D+00 0.00000000D+00 0.00000000D+00 0.00000000D+00
  <mgrwgt>
 0.3115276151D-01    1    2    0
 0.132109496282074D+03 0.000000000000000D+00 0.000000000000000D+00 0.132109496282074D+03
 0.132109496282074D+03 0.000000000000000D+00 0.000000000000000D+00 -.132109496282074D+03
 0.149439408785252D+03 0.300008366375670D+02 -.367817898144504D+02 -.667396931156969D+02
 0.114779583778895D+03 -.300008366375670D+02 0.367817898144504D+02 0.667396931156969D+02
 0.000000000000000D+00 -.000000000000000D+00 0.000000000000000D+00 -.000000000000000D+00
 0.217522124244517D+03 0.000000000000000D+00 0.000000000000000D+00 0.217522124244517D+03
 0.269441595687701D+03 0.000000000000000D+00 0.000000000000000D+00 -.269441595687701D+03
 0.204157761905820D+03 0.577684704208746D+02 -.135144400307407D+03 -.667396931156969D+02
 0.108236875100450D+03 -.124875761504742D+02 -.252562661897724D+02 0.667396931156969D+02
 0.174569082925947D+03 -.452808942704004D+02 0.160400666497179D+03 -.519194714431842D+02
0.575200493161D-04 0.000000000000D+00 0.000000000000D+00 0.200471117872D-02 0.130268373208D-06  5 -2 21 25 -24 -1 2 0.55279236D-01 0.25094545D-01 0.49466692D+05 0.49466692D+05 0.49466692D+05 0.11927433D+01  1  2  1  4  5  2        1 0.311527615107D-01 0.100000000000D+01
  </mgrwgt>
  </event>
  <event>
  4     66 0.46019439E-03 0.87488350E+02 0.75467711E-02 0.11787153E+00
       -2 -1    0    0    0  501 0.00000000E+00 0.00000000E+00 0.63103151E+03 0.63103159E+03 0.32000000E+00 0.0000E+00 0.9000E+01
        1 -1    0    0  501    0 0.00000000E+00 0.00000000E+00 -.45368860E+02 0.45369988E+02 0.32000000E+00 0.0000E+00 0.9000E+01
       25  1    1    2    0    0 0.13282623E+03 -.35594497E+01 0.33731505E+03 0.38348653E+03 0.12500000E+03 0.0000E+00 0.9000E+01
      -24  1    1    2    0    0 -.13282623E+03 0.35594497E+01 0.24834760E+03 0.29291505E+03 0.80419002E+02 0.0000E+00 0.9000E+01
#aMCatNLO 1  0  0  1  2 0.59692398D+00 0.00000000D+00  -5  5  0 0.00000000D+00 0.00000000D+00 0.00000000D+00 0.00000000D+00 0.00000000D+00
  <mgrwgt>
 0.8717978777D-01   11    2    0
 0.169202805433563D+03 0.000000000000000D+00 0.000000000000000D+00 0.169202805433563D+03
 0.169202805433563D+03 0.000000000000000D+00 0.000000000000000D+00 -.169202805433563D+03
 0.182733585880973D+03 0.132826234077113D+03 -.355944968875217D+01 0.105396996031292D+02
 0.155672024986153D+03 -.132826234077113D+03 0.355944968875217D+01 -.105396996031292D+02
 0.000000000000000D+00 0.000000000000000D+00 0.000000000000000D+00 0.000000000000000D+00
 0.172851717199466D+03 0.000000000000000D+00 0.000000000000000D+00 0.172851717199466D+03
 0.169227483064783D+03 0.000000000000000D+00 0.000000000000000D+00 -.169227483064783D+03
 0.182661653024801D+03 0.132718760508449D+03 -.386326638090112D+01 0.105396996031292D+02
 0.155744484308119D+03 -.132917830901678D+03 0.330051491440292D+01 -.105396996031292D+02
 0.367306293132934D+01 0.199070393229033D+00 0.562751466498194D+00 0.362423413468273D+01
0.874284327349D-03 0.000000000000D+00 0.000000000000D+00 0.227643168138D-02 0.000000000000D+00  5 -2 1 25 -24 21 0 0.97081864D-01 0.69799176D-02 0.28517786D+05 0.28517786D+05 0.28517786D+05 0.12172148D+01  1  2  2  1  5  1       -2 0.727218456224D-01 0.100000000000D+01
-.485711254835D-04 0.000000000000D+00 -.335748202137D-05 0.227643168138D-02 0.000000000000D+00  5 -2 1 25 -24 21 2 0.97081864D-01 0.69799176D-02 0.28517786D+05 0.28517786D+05 0.28517786D+05 0.12172148D+01  1  2  3  1  5  1       -2 -.598583556508D-02 0.100000000000D+01
0.601680481834D-04 0.000000000000D+00 0.000000000000D+00 0.227643168138D-02 0.000000000000D+00  5 -2 1 25 -24 21 2 0.97081864D-01 0.69799176D-02 0.28517786D+05 0.28517786D+05 0.28517786D+05 0.12172148D+01  1  2 15  1  5  1       -2 0.741502361975D-02 0.100000000000D+01
0.240600424948D-09 0.000000000000D+00 0.000000000000D+00 0.227643168138D-02 0.000000000000D+00  5 -2 1 25 -24 21 2 0.99182465D-01 0.69799176D-02 0.28618776D+05 0.28618776D+05 0.28618776D+05 0.12170527D+01  1  2 12  1  5  1       -2 0.282215824032D-07 0.100000000000D+01
-.314768343733D+00 0.000000000000D+00 0.000000000000D+00 0.227643168138D-02 0.000000000000D+00  5 -2 1 25 -24 21 2 0.97081864D-01 0.69799176D-02 0.28517786D+05 0.28517786D+05 0.28517786D+05 0.12172148D+01  1  2  4  1  5  1       -2 -.387915974341D+02 0.100000000000D+01
-.342577255792D+00 0.000000000000D+00 -.424782203895D-02 0.227643168138D-02 0.000000000000D+00  5 -2 1 25 -24 21 2 0.99182025D-01 0.69799176D-02 0.28517786D+05 0.28517786D+05 0.28517786D+05 0.12172148D+01  1  2  5  1  5  1       -2 -.401915656377D+02 0.100000000000D+01
0.342590675624D+00 0.000000000000D+00 0.424684935685D-02 0.227643168138D-02 0.000000000000D+00  5 -2 1 25 -24 21 2 0.97081864D-01 0.69799176D-02 0.28517786D+05 0.28517786D+05 0.28517786D+05 0.12172148D+01  1  2  6  1  5  1       -2 0.422203815539D+02 0.100000000000D+01
0.314839613277D+00 0.000000000000D+00 0.000000000000D+00 0.227643168138D-02 0.504815168843D-01  5 -2 1 25 -24 21 2 0.99175465D-01 0.69809356D-02 0.28618776D+05 0.28618776D+05 0.28618776D+05 0.12170527D+01  1  2 11  1  5  1       -2 0.369282733836D+02 0.100000000000D+01
0.137779601969D-10 0.000000000000D+00 0.000000000000D+00 0.227643168138D-02 0.000000000000D+00  5 21 1 25 -24 2 2 0.99182465D-01 0.69799176D-02 0.28618776D+05 0.28618776D+05 0.28618776D+05 0.12170527D+01  1  2 12  3  5  1       -2 0.190254601083D-07 0.100000000000D+01
-.133093413268D-02 0.000000000000D+00 -.165118622144D-04 0.227643168138D-02 0.000000000000D+00  5 21 1 25 -24 2 2 0.99182025D-01 0.69799176D-02 0.28517786D+05 0.28517786D+05 0.28517786D+05 0.12172148D+01  1  2  5  3  5  1       -2 -.183845669618D+01 0.100000000000D+01
0.122101079702D-02 0.000000000000D+00 0.000000000000D+00 0.227643168138D-02 0.195666829557D-03  5 21 1 25 -24 2 2 0.99175465D-01 0.69809356D-02 0.28618776D+05 0.28618776D+05 0.28618776D+05 0.12170527D+01  1  2 11  3  5  1       -2 0.168599353740D+01 0.100000000000D+01
  </mgrwgt>
  </event>
  <event>
  5     66 -.46019439E-03 0.13048250E+03 0.75467711E-02 0.12011328E+00
       -2 -1    0    0    0  502 0.00000000E+00 0.00000000E+00 0.84124825E+01 0.84185665E+01 0.32000000E+00 0.0000E+00 0.9000E+01
        1 -1    0    0  501    0 0.00000000E+00 0.00000000E+00 -.29875193E+04 0.29875193E+04 0.32000000E+00 0.0000E+00 0.9000E+01
       25  1    1    2    0    0 0.57362827E+02 0.44007260E+02 -.10909696E+04 0.11004848E+04 0.12500000E+03 0.0000E+00 0.9000E+01
      -24  1    1    2    0    0 -.43129793E+02 -.76483443E+02 -.16882739E+04 0.16924674E+04 0.80419002E+02 0.0000E+00 0.9000E+01
       21  1    1    2  501  502 -.14233035E+02 0.32476183E+02 -.19986333E+03 0.20298570E+03 0.75000000E+00 0.0000E+00 0.9000E+01
#aMCatNLO 2  0  0  1  2 0.35458169D+02 0.00000000D+00  -5  5  0 0.00000000D+00 0.00000000D+00 0.00000000D+00 0.00000000D+00 0.00000000D+00
  <mgrwgt>
 -.3247985089D-01    2    2    0
 0.137049488009240D+03 0.000000000000000D+00 0.000000000000000D+00 0.137049488009240D+03
 0.137049488009240D+03 0.000000000000000D+00 0.000000000000000D+00 -.137049488009240D+03
 0.153754738387504D+03 0.495021621854830D+02 0.619433083945607D+02 0.415702064068538D+02
 0.120344237630975D+03 -.495021621854830D+02 -.619433083945607D+02 -.415702064068538D+02
 0.000000000000000D+00 -.000000000000000D+00 0.000000000000000D+00 0.000000000000000D+00
 0.169663003286584D+03 0.000000000000000D+00 0.000000000000000D+00 0.169663003286584D+03
 0.148178923409126D+03 0.000000000000000D+00 0.000000000000000D+00 -.148178923409126D+03
 0.150267145188120D+03 0.573628272321745D+02 0.440072597898434D+02 0.415702064068538D+02
 0.126115796418008D+03 -.431297926959252D+02 -.764834431303657D+02 -.415702064068538D+02
 0.414589850895829D+02 -.142330345362493D+02 0.324761833405222D+02 0.214840798774575D+02
-.728459751901D-03 0.000000000000D+00 0.000000000000D+00 0.232392991609D-02 0.000000000000D+00  5 -2 1 25 -24 21 2 0.13295278D-02 0.42508833D+00 0.22339566D+05 0.22339566D+05 0.22339566D+05 0.12285715D+01  1  2 13  1  5  1       -2 -.145351443385D+00 0.100000000000D+01
0.773174736657D-03 0.000000000000D+00 0.000000000000D+00 0.232392991609D-02 0.152305846175D-04  5 -2 1 25 -24 21 2 0.12946688D-02 0.45960866D+00 0.22339566D+05 0.22339566D+05 0.22339566D+05 0.12285715D+01  1  2  1  1  5  1       -2 0.112871592492D+00 0.100000000000D+01
  </mgrwgt>
  </event>
  <event>
  4     66 0.46019439E-03 0.10531219E+03 0.75467711E-02 0.10180796E+00
       -4 -1    0    0    0  501 0.00000000E+00 0.00000000E+00 0.22952101E+02 0.23004379E+02 0.15500000E+01 0.0000E+00 0.9000E+01
        3 -1    0    0  501    0 0.00000000E+00 0.00000000E+00 -.48290588E+03 0.48290614E+03 0.50000000E+00 0.0000E+00 0.9000E+01
       25  1    1    2    0    0 0.22647364E+02 -.20630551E+01 -.28333856E+03 0.31052037E+03 0.12500000E+03 0.0000E+00 0.9000E+01
      -24  1    1    2    0    0 -.22647364E+02 0.20630551E+01 -.17661522E+03 0.19539015E+03 0.80419002E+02 0.0000E+00 0.9000E+01
#aMCatNLO 1  0  0  1  2 0.46094002D+03 0.00000000D+00  -5  5  0 0.00000000D+00 0.00000000D+00 0.00000000D+00 0.00000000D+00 0.00000000D+00
  <mgrwgt>
 0.2658702705D-01    3    2    0
 0.105342267888666D+03 0.000000000000000D+00 0.000000000000000D+00 0.105342267888666D+03
 0.105342267888666D+03 0.000000000000000D+00 0.000000000000000D+00 -.105342267888666D+03
 0.127075671367572D+03 0.226473642193773D+02 -.206305513212551D+01 -.246311813679855D+01
 0.836088644097603D+02 -.226473642193773D+02 0.206305513212551D+01 0.246311813679855D+01
 0.000000000000000D+00 -.000000000000000D+00 -.000000000000000D+00 -.000000000000000D+00
 0.380498625618913D+03 0.000000000000000D+00 0.000000000000000D+00 0.380498625618913D+03
 0.671330768440872D+03 0.000000000000000D+00 0.000000000000000D+00 -.671330768440872D+03
 0.339194982655308D+03 0.243658895690698D+03 0.200131236588316D+03 -.246311813679855D+01
 0.167612356323124D+03 0.964310857178662D+02 0.111002994527792D+03 0.246311813679855D+01
 0.545022055081353D+03 -.340089981408564D+03 -.311134231116108D+03 -.290832142821959D+03
0.191794819076D-03 0.000000000000D+00 0.000000000000D+00 0.315019775138D-02 0.000000000000D+00  5 -4 3 25 -24 21 0 0.35351338D-02 0.74297254D-01 0.11090657D+05 0.11090657D+05 0.11090657D+05 0.12630550D+01  1  2  2  1  5  1       -4 0.260267790794D-01 0.100000000000D+01
-.106552666697D-04 0.000000000000D+00 -.736542605987D-06 0.315019775138D-02 0.000000000000D+00  5 -4 3 25 -24 21 2 0.35351338D-02 0.74297254D-01 0.11090657D+05 0.11090657D+05 0.11090657D+05 0.12630550D+01  1  2  3  1  5  1       -4 -.230670687122D-02 0.100000000000D+01
0.132431947617D-04 0.000000000000D+00 0.000000000000D+00 0.315019775138D-02 0.000000000000D+00  5 -4 3 25 -24 21 2 0.35351338D-02 0.74297254D-01 0.11090657D+05 0.11090657D+05 0.11090657D+05 0.12630550D+01  1  2 15  1  5  1       -4 0.286695484034D-02 0.100000000000D+01
  </mgrwgt>
  </event>
  <event>
  4     66 0.46019439E-03 0.10701991E+03 0.75467711E-02 0.10381939E+00
       -2 -1    0    0    0  501 0.00000000E+00 0.00000000E+00 0.82676903E+02 0.82677523E+02 0.32000000E+00 0.0000E+00 0.9000E+01
        1 -1    0    0  501    0 0.00000000E+00 0.00000000E+00 -.15636520E+03 0.15636552E+03 0.32000000E+00 0.0000E+00 0.9000E+01
       25  1    1    2    0    0 -.12124176E+01 0.29382498E+02 -.37230315E+01 0.12846658E+03 0.12500000E+03 0.0000E+00 0.9000E+01
      -24  1    1    2    0    0 0.12124176E+01 -.29382498E+02 -.69965261E+02 0.11057647E+03 0.80419002E+02 0.0000E+00 0.9000E+01
#aMCatNLO 1  0  0  1  1 0.38941536D+03 0.00000000D+00  -5  5  0 0.00000000D+00 0.00000000D+00 0.00000000D+00 0.00000000D+00 0.00000000D+00
  <mgrwgt>
 0.2734751892D+00    3    2    0
 0.113700938202353D+03 0.000000000000000D+00 0.000000000000000D+00 0.113700938202353D+03
 0.113700938202353D+03 0.000000000000000D+00 0.000000000000000D+00 -.113700938202353D+03
 0.133836620876605D+03 -.121241762177392D+01 0.293824981336726D+02 0.377152480384697D+02
 0.935652555281002D+02 0.121241762177392D+01 -.293824981336726D+02 -.377152480384697D+02
 0.000000000000000D+00 -.000000000000000D+00 -.000000000000000D+00 -.000000000000000D+00
 0.309390891267431D+03 0.000000000000000D+00 0.000000000000000D+00 0.309390891267431D+03
 0.677249884666342D+03 0.000000000000000D+00 0.000000000000000D+00 -.677249884666342D+03
 0.303527397248159D+03 0.154864545665828D+03 0.226049581820792D+03 0.377152480384697D+02
 0.147422642932853D+03 0.872109401845443D+02 0.789812108824712D+02 -.377152480384697D+02
 0.535690735752762D+03 -.242075485850372D+03 -.305030792703263D+03 -.367858993398911D+03
0.363596624147D-03 0.000000000000D+00 0.000000000000D+00 0.264465305350D-02 0.000000000000D+00  5 -2 1 25 -24 21 0 0.12719596D-01 0.24056257D-01 0.11453261D+05 0.11453261D+05 0.11453261D+05 0.12614046D+01  1  2  2  1  5  1       -2 0.267819664211D+00 0.100000000000D+01
-.201097478442D-04 0.000000000000D+00 -.139630677391D-05 0.264465305350D-02 0.000000000000D+00  5 -2 1 25 -24 21 2 0.12719596D-01 0.24056257D-01 0.11453261D+05 0.11453261D+05 0.11453261D+05 0.12614046D+01  1  2  3  1  5  1       -2 -.235688313409D-01 0.100000000000D+01
0.249352387974D-04 0.000000000000D+00 0.000000000000D+00 0.264465305350D-02 0.000000000000D+00  5 -2 1 25 -24 21 2 0.12719596D-01 0.24056257D-01 0.11453261D+05 0.11453261D+05 0.11453261D+05 0.12614046D+01  1  2 15  1  5  1       -2 0.292243563774D-01 0.100000000000D+01
  </mgrwgt>
  </event>
  <event>
  4     66 0.46019439E-03 0.20123016E+03 0.75467711E-02 0.10484279E+00
       -2 -1    0    0    0  501 0.00000000E+00 0.00000000E+00 0.80963181E+02 0.80963814E+02 0.32000000E+00 0.0000E+00 0.9000E+01
        1 -1    0    0  501    0 0.00000000E+00 0.00000000E+00 -.15329917E+04 0.15329917E+04 0.32000000E+00 0.0000E+00 0.9000E+01
       25  1    1    2    0    0 -.17221005E+03 0.28873273E+03 -.76109493E+03 0.84137588E+03 0.12500000E+03 0.0000E+00 0.9000E+01
      -24  1    1    2    0    0 0.17221005E+03 -.28873273E+03 -.69093360E+03 0.77257967E+03 0.80419002E+02 0.0000E+00 0.9000E+01
#aMCatNLO 1  0  0  2  1 0.66257820D+02 0.00000000D+00  -5  5  0 0.00000000D+00 0.00000000D+00 0.00000000D+00 0.00000000D+00 0.00000000D+00
  <mgrwgt>
 0.3095568802D+00    9    2    0
 0.352301607445319D+03 0.000000000000000D+00 0.000000000000000D+00 0.352301607445319D+03
 0.352301607445319D+03 0.000000000000000D+00 0.000000000000000D+00 -.352301607445319D+03
 0.358800147227777D+03 -.172210046814872D+03 0.288732733212958D+03 -.946859007821128D+01
 0.345803067662861D+03 0.172210046814872D+03 -.288732733212958D+03 0.946859007821128D+01
 0.000000000000000D+00 -.000000000000000D+00 0.000000000000000D+00 -.000000000000000D+00
 0.360534403724693D+03 0.000000000000000D+00 0.000000000000000D+00 0.360534403724693D+03
 0.518190975669504D+03 0.000000000000000D+00 0.000000000000000D+00 -.518190975669504D+03
 0.331849361308840D+03 -.169210602911594D+03 0.256470497845874D+03 -.946859007821128D+01
 0.375862295435259D+03 0.175344190467761D+03 -.322443808820433D+03 0.946859007821128D+01
 0.171013722650098D+03 -.613358755616625D+01 0.659733109745593D+02 -.157656571944811D+03
0.799109561696D-02 0.000000000000D+00 0.000000000000D+00 0.197598751969D-02 0.000000000000D+00  5 -2 1 25 -24 21 0 0.12455925D-01 0.23584493D+00 0.12402674D+06 0.12402674D+06 0.12402674D+06 0.11550777D+01  1  2  2  2  5  2        1 0.220493812212D+00 0.100000000000D+01
-.443949685988D-03 0.000000000000D+00 -.306879112729D-04 0.197598751969D-02 0.000000000000D+00  5 -2 1 25 -24 21 2 0.12455925D-01 0.23584493D+00 0.12402674D+06 0.12402674D+06 0.12402674D+06 0.11550777D+01  1  2  3  2  5  2        1 -.163435426634D-01 0.100000000000D+01
0.547273959294D-03 0.000000000000D+00 0.000000000000D+00 0.197598751969D-02 0.000000000000D+00  5 -2 1 25 -24 21 2 0.12455925D-01 0.23584493D+00 0.12402674D+06 0.12402674D+06 0.12402674D+06 0.11550777D+01  1  2 15  2  5  2        1 0.201473175556D-01 0.100000000000D+01
0.306665585144D-01 0.000000000000D+00 0.000000000000D+00 0.197598751969D-02 0.000000000000D+00  5 -2 1 25 -24 21 2 0.12455925D-01 0.34863166D+00 0.14965876D+06 0.14965876D+06 0.14965876D+06 0.11478211D+01  1  2 12  2  5  2        1 0.364596999163D+00 0.100000000000D+01
-.295170417220D-01 0.000000000000D+00 0.000000000000D+00 0.197598751969D-02 0.000000000000D+00  5 -2 1 25 -24 21 2 0.12455925D-01 0.23584493D+00 0.12402674D+06 0.12402674D+06 0.12402674D+06 0.11550777D+01  1  2  4  2  5  2        1 -.108663897263D+01 0.100000000000D+01
-.341611019303D-01 0.000000000000D+00 -.336514292164D-02 0.197598751969D-02 0.000000000000D+00  5 -2 1 25 -24 21 2 0.12455925D-01 0.34920459D+00 0.12402674D+06 0.12402674D+06 0.12402674D+06 0.11550777D+01  1  2  5  2  5  2        1 -.412014507043D+00 0.100000000000D+01
0.331399690764D-01 0.000000000000D+00 0.312160918115D-02 0.197598751969D-02 0.000000000000D+00  5 -2 1 25 -24 21 2 0.12455925D-01 0.23584493D+00 0.12402674D+06 0.12402674D+06 0.12402674D+06 0.11550777D+01  1  2  6  2  5  2        1 0.122001324826D+01 0.100000000000D+01
0.143516997754D-02 0.000000000000D+00 0.000000000000D+00 0.197598751969D-02 0.000000000000D+00  5 -2 21 25 -24 -1 2 0.12455925D-01 0.34863166D+00 0.14965876D+06 0.14965876D+06 0.14965876D+06 0.11478211D+01  1  2 12  4  5  2        1 0.104992613488D-01 0.100000000000D+01
-.149169317968D-02 0.000000000000D+00 -.157969344335D-03 0.197598751969D-02 0.000000000000D+00  5 -2 21 25 -24 -1 2 0.12455925D-01 0.34920459D+00 0.12402674D+06 0.12402674D+06 0.12402674D+06 0.11550777D+01  1  2  5  4  5  2        1 -.111967359867D-01 0.100000000000D+01
  </mgrwgt>
  </event>
  <event>
  4     66 0.46019439E-03 0.58271298E+02 0.75467711E-02 0.12720095E+00
       -4 -1    0    0    0  501 0.00000000E+00 0.00000000E+00 0.25128662E+02 0.25176420E+02 0.15500000E+01 0.0000E+00 0.9000E+01
        3 -1    0    0  501    0 0.00000000E+00 0.00000000E+00 -.48036354E+03 0.48036380E+03 0.50000000E+00 0.0000E+00 0.9000E+01
       25  1    1    2    0    0 -.91174226E+01 -.82677092E+01 -.18722390E+03 0.22545348E+03 0.12500000E+03 0.0000E+00 0.9000E+01
      -24  1    1    2    0    0 0.91174226E+01 0.82677092E+01 -.26801098E+03 0.28008674E+03 0.80419002E+02 0.0000E+00 0.9000E+01
#aMCatNLO 1  0  0  1  2 0.11336736D+01 0.00000000D+00  -5  5  0 0.00000000D+00 0.00000000D+00 0.00000000D+00 0.00000000D+00 0.00000000D+00
  <mgrwgt>
 0.2843089160D-01    8    2    0
 0.109922836635621D+03 0.000000000000000D+00 0.000000000000000D+00 0.109922836635621D+03
 0.109922836635621D+03 0.000000000000000D+00 0.000000000000000D+00 -.109922836635621D+03
 0.130750592554954D+03 -.911742259614365D+01 -.826770918542249D+01 0.363212753561895D+02
 0.890950807162891D+02 0.911742259614365D+01 0.826770918542249D+01 -.363212753561895D+02
 0.000000000000000D+00 0.000000000000000D+00 0.000000000000000D+00 -.000000000000000D+00
 0.110441706642356D+03 0.000000000000000D+00 0.000000000000000D+00 0.110441706642356D+03
 0.110545285158972D+03 0.000000000000000D+00 0.000000000000000D+00 -.110545285158972D+03
 0.130815700595354D+03 -.959109289096989D+01 -.874776633832753D+01 0.363212753561895D+02
 0.890328956521858D+02 0.879485071554292D+01 0.794078782197660D+01 -.363212753561895D+02
 0.113839555378829D+01 0.796242175426977D+00 0.806978516350932D+00 -.103578516615751D+00
0.148517393640D-03 0.000000000000D+00 0.000000000000D+00 0.273775156571D-02 0.000000000000D+00  5 -4 3 25 -24 21 0 0.38696417D-02 0.73905777D-01 0.10708095D+05 0.10708095D+05 0.10708095D+05 0.12648635D+01  1  2  2  1  5  1       -4 0.176146005743D-01 0.100000000000D+01
-.821436686713D-05 0.000000000000D+00 -.570345897107D-06 0.273775156571D-02 0.000000000000D+00  5 -4 3 25 -24 21 2 0.38696417D-02 0.73905777D-01 0.10708095D+05 0.10708095D+05 0.10708095D+05 0.12648635D+01  1  2  3  1  5  1       -4 -.155867972670D-02 0.100000000000D+01
0.101791433448D-04 0.000000000000D+00 0.000000000000D+00 0.273775156571D-02 0.000000000000D+00  5 -4 3 25 -24 21 2 0.38696417D-02 0.73905777D-01 0.10708095D+05 0.10708095D+05 0.10708095D+05 0.12648635D+01  1  2 15  1  5  1       -4 0.193149692768D-02 0.100000000000D+01
0.696013235388D-09 0.000000000000D+00 0.000000000000D+00 0.273775156571D-02 0.000000000000D+00  5 -4 3 25 -24 21 2 0.38988070D-02 0.73905777D-01 0.10825694D+05 0.10825694D+05 0.10825694D+05 0.12642999D+01  1  2 12  1  5  1       -4 0.130546331290D-06 0.100000000000D+01
-.142231356741D-02 0.000000000000D+00 0.000000000000D+00 0.273775156571D-02 0.000000000000D+00  5 -4 3 25 -24 21 2 0.38696417D-02 0.73905777D-01 0.10708095D+05 0.10708095D+05 0.10708095D+05 0.12648635D+01  1  2  4  1  5  1       -4 -.269884625119D+00 0.100000000000D+01
0.142235443778D-02 0.000000000000D+00 0.000000000000D+00 0.273775156571D-02 0.181605713672D-01  5 -4 3 25 -24 21 2 0.38879076D-02 0.74324276D-01 0.10825694D+05 0.10825694D+05 0.10825694D+05 0.12642999D+01  1  2 11  1  5  1       -4 0.264765576698D+00 0.100000000000D+01
0.744188798746D-10 0.000000000000D+00 0.000000000000D+00 0.273775156571D-02 0.000000000000D+00  5 21 3 25 -24 4 2 0.38988070D-02 0.73905777D-01 0.10825694D+05 0.10825694D+05 0.10825694D+05 0.12642999D+01  1  2 12  3  5  1       -4 0.403426092160D-06 0.100000000000D+01
0.289193640499D-05 0.000000000000D+00 0.000000000000D+00 0.273775156571D-02 0.159637859117D-04  5 21 3 25 -24 4 2 0.38879076D-02 0.74324276D-01 0.10825694D+05 0.10825694D+05 0.10825694D+05 0.12642999D+01  1  2 11  3  5  1       -4 0.155619882763D-01 0.100000000000D+01
  </mgrwgt>
  </event>
  <event>
  4     66 0.46019439E-03 0.67716649E+02 0.75467711E-02 0.11806060E+00
       -2 -1    0    0    0  501 0.00000000E+00 0.00000000E+00 0.14801864E+02 0.14805323E+02 0.32000000E+00 0.0000E+00 0.9000E+01
        1 -1    0    0  501    0 0.00000000E+00 0.00000000E+00 -.19774124E+04 0.19774125E+04 0.32000000E+00 0.0000E+00 0.9000E+01
       25  1    1    2    0    0 -.58178494E+02 0.84931236E+02 -.15724969E+04 0.15808130E+04 0.12500000E+03 0.0000E+00 0.9000E+01
      -24  1    1    2    0    0 0.58178494E+02 -.84931236E+02 -.39011365E+03 0.41140483E+03 0.80419002E+02 0.0000E+00 0.9000E+01
#aMCatNLO 1  0  0  1  2 0.40024910D+02 0.00000000D+00  -5  5  0 0.00000000D+00 0.00000000D+00 0.00000000D+00 0.00000000D+00 0.00000000D+00
  <mgrwgt>
 0.1848234929D+00    9    2    0
 0.171093135129982D+03 0.000000000000000D+00 0.000000000000000D+00 0.171093135129982D+03
 0.171093135129982D+03 0.000000000000000D+00 0.000000000000000D+00 -.171093135129982D+03
 0.184474420180771D+03 -.581784943081202D+02 0.849312359736549D+02 -.883615281503149D+02
 0.157711850079194D+03 0.581784943081202D+02 -.849312359736549D+02 0.883615281503149D+02
 0.000000000000000D+00 -.000000000000000D+00 -.000000000000000D+00 0.000000000000000D+00
 0.198400144660905D+03 0.000000000000000D+00 0.000000000000000D+00 0.198400144660905D+03
 0.187580516057634D+03 0.000000000000000D+00 0.000000000000000D+00 -.187580516057634D+03
 0.192350321197466D+03 -.498629005972135D+02 0.105259572257073D+03 -.883615281503149D+02
 0.152168817591679D+03 0.650167972332166D+02 -.682142911225718D+02 0.883615281503149D+02
 0.414615219293942D+02 -.151538966360031D+02 -.370452811345012D+02 0.108196286032716D+02
0.785938530145D-03 0.000000000000D+00 0.000000000000D+00 0.170825422922D-02 0.000000000000D+00  5 -2 1 25 -24 21 0 0.22774779D-02 0.30421757D+00 0.21399218D+05 0.21399218D+05 0.21399218D+05 0.12306059D+01  1  2  2  1  5  1       -2 0.154211531565D+00 0.100000000000D+01
-.423604561757D-04 0.000000000000D+00 -.301821089812D-05 0.170825422922D-02 0.000000000000D+00  5 -2 1 25 -24 21 2 0.22774779D-02 0.30421757D+00 0.21399218D+05 0.21399218D+05 0.21399218D+05 0.12306059D+01  1  2  3  1  5  1       -2 -.125871356099D-01 0.100000000000D+01
0.540683226163D-04 0.000000000000D+00 0.000000000000D+00 0.170825422922D-02 0.000000000000D+00  5 -2 1 25 -24 21 2 0.22774779D-02 0.30421757D+00 0.21399218D+05 0.21399218D+05 0.21399218D+05 0.12306059D+01  1  2 15  1  5  1       -2 0.160660524086D-01 0.100000000000D+01
0.580065226393D-03 0.000000000000D+00 0.000000000000D+00 0.170825422922D-02 0.000000000000D+00  5 -2 1 25 -24 21 2 0.27364357D-02 0.30421757D+00 0.28016684D+05 0.28016684D+05 0.28016684D+05 0.12180284D+01  1  2 12  1  5  1       -2 0.128909897272D+00 0.100000000000D+01
-.560418637150D-03 0.000000000000D+00 0.000000000000D+00 0.170825422922D-02 0.000000000000D+00  5 -2 1 25 -24 21 2 0.22774779D-02 0.30421757D+00 0.21399218D+05 0.21399218D+05 0.21399218D+05 0.12306059D+01  1  2  4  1  5  1       -2 -.166524773833D+00 0.100000000000D+01
-.121279145420D-02 0.000000000000D+00 -.407109953264D-03 0.170825422922D-02 0.000000000000D+00  5 -2 1 25 -24 21 2 0.29451787D-02 0.30421757D+00 0.21399218D+05 0.21399218D+05 0.21399218D+05 0.12306059D+01  1  2  5  1  5  1       -2 -.247243436492D+00 0.100000000000D+01
0.128775813198D-02 0.000000000000D+00 0.394015678207D-03 0.170825422922D-02 0.000000000000D+00  5 -2 1 25 -24 21 2 0.22774779D-02 0.30421757D+00 0.21399218D+05 0.21399218D+05 0.21399218D+05 0.12306059D+01  1  2  6  1  5  1       -2 0.382649001056D+00 0.100000000000D+01
0.155361934686D-04 0.000000000000D+00 0.000000000000D+00 0.170825422922D-02 0.000000000000D+00  5 21 1 25 -24 2 2 0.27364357D-02 0.30421757D+00 0.28016684D+05 0.28016684D+05 0.28016684D+05 0.12180284D+01  1  2 12  3  5  1       -2 0.682460513278D-01 0.100000000000D+01
-.347579842473D-04 0.000000000000D+00 -.140649476756D-04 0.170825422922D-02 0.000000000000D+00  5 21 1 25 -24 2 2 0.29451787D-02 0.30421757D+00 0.21399218D+05 0.21399218D+05 0.21399218D+05 0.12306059D+01  1  2  5  3  5  1       -2 -.138903694767D+00 0.100000000000D+01
  </mgrwgt>
  </event>
  <event>
  4     66 0.46019439E-03 0.14911215E+03 0.75467711E-02 0.11348129E+00
       -2 -1    0    0    0  501 0.00000000E+00 0.00000000E+00 0.43118369E+03 0.43118381E+03 0.32000000E+00 0.0000E+00 0.9000E+01
        1 -1    0    0  501    0 0.00000000E+00 0.00000000E+00 -.52179057E+02 0.52180038E+02 0.32000000E+00 0.0000E+00 0.9000E+01
       25  1    1    2    0    0 -.10244976E+03 -.30464944E+02 0.18271430E+03 0.24583243E+03 0.12500000E+03 0.0000E+00 0.9000E+01
      -24  1    1    2    0    0 0.10244976E+03 0.30464944E+02 0.19629033E+03 0.23753142E+03 0.80419002E+02 0.0000E+00 0.9000E+01
#aMCatNLO 1  0  0  1  2 0.11712039D+03 0.00000000D+00  -5  5  0 0.00000000D+00 0.00000000D+00 0.00000000D+00 0.00000000D+00 0.00000000D+00
  <mgrwgt>
 0.1497746950D+00    5    2    0
 0.149996746443942D+03 0.000000000000000D+00 0.000000000000000D+00 0.149996746443942D+03
 0.149996746443942D+03 0.000000000000000D+00 0.000000000000000D+00 -.149996746443942D+03
 0.165260050920103D+03 -.102449757178175D+03 -.304649440481394D+02 -.161808179147913D+02
 0.134733441967781D+03 0.102449757178175D+03 0.304649440481394D+02 0.161808179147913D+02
 0.000000000000000D+00 -.000000000000000D+00 0.000000000000000D+00 0.000000000000000D+00
 0.222581779985509D+03 0.000000000000000D+00 0.000000000000000D+00 0.222581779985509D+03
 0.216730161119531D+03 0.000000000000000D+00 0.000000000000000D+00 -.216730161119531D+03
 0.179140166740350D+03 -.865629473637717D+02 -.933340056735250D+02 -.161808179147913D+02
 0.142905297375026D+03 0.115256932153304D+03 -.202170419619458D+02 0.161808179147913D+02
 0.117266476989665D+03 -.286939847895326D+02 0.113551047635471D+03 0.585161886597807D+01
0.997039199045D-03 0.000000000000D+00 0.000000000000D+00 0.238374722731D-02 0.000000000000D+00  5 -2 1 25 -24 21 0 0.66336037D-01 0.80276318D-02 0.22234433D+05 0.22234433D+05 0.22234433D+05 0.12287942D+01  1  2  2  1  5  1       -2 0.157533425395D+00 0.100000000000D+01
-.553887103859D-04 0.000000000000D+00 -.382889305078D-05 0.238374722731D-02 0.000000000000D+00  5 -2 1 25 -24 21 2 0.66336037D-01 0.80276318D-02 0.22234433D+05 0.22234433D+05 0.22234433D+05 0.12287942D+01  1  2  3  1  5  1       -2 -.132141744770D-01 0.100000000000D+01
0.688119411416D-04 0.000000000000D+00 0.000000000000D+00 0.238374722731D-02 0.000000000000D+00  5 -2 1 25 -24 21 2 0.66336037D-01 0.80276318D-02 0.22234433D+05 0.22234433D+05 0.22234433D+05 0.12287942D+01  1  2 15  1  5  1       -2 0.164165764109D-01 0.100000000000D+01
-.217864059508D-03 0.000000000000D+00 -.264989664301D-03 0.238374722731D-02 0.000000000000D+00  5 -2 1 25 -24 21 2 0.13282494D+00 0.80276318D-02 0.22234433D+05 0.22234433D+05 0.22234433D+05 0.12287942D+01  1  2  5  1  5  1       -2 -.107007695141D-01 0.100000000000D+01
-.452193944626D-06 0.000000000000D+00 -.199062832652D-04 0.238374722731D-02 0.000000000000D+00  5 21 1 25 -24 2 2 0.13282494D+00 0.80276318D-02 0.22234433D+05 0.22234433D+05 0.22234433D+05 0.12287942D+01  1  2  5  3  5  1       -2 -.260362854719D-03 0.100000000000D+01
  </mgrwgt>
  </event>
  <event>
  4     66 0.46019439E-03 0.11554898E+03 0.75467711E-02 0.11995829E+00
       -2 -1    0    0    0  501 0.00000000E+00 0.00000000E+00 0.10622083E+02 0.10626902E+02 0.32000000E+00 0.0000E+00 0.9000E+01
        1 -1    0    0  501    0 0.00000000E+00 0.00000000E+00 -.13058694E+04 0.13058694E+04 0.32000000E+00 0.0000E+00 0.9000E+01
       25  1    1    2    0    0 -.17128639E+02 -.49037217E+02 -.62854827E+03 0.64295876E+03 0.12500000E+03 0.0000E+00 0.9000E+01
      -24  1    1    2    0    0 0.17128639E+02 0.49037217E+02 -.66669903E+03 0.67353757E+03 0.80419002E+02 0.0000E+00 0.9000E+01
#aMCatNLO 1  0  0  1  2 0.62194300D+02 0.00000000D+00  -5  5  0 0.00000000D+00 0.00000000D+00 0.00000000D+00 0.00000000D+00 0.00000000D+00
  <mgrwgt>
 0.2907596941D+00    3    2    0
 0.117789011120929D+03 0.000000000000000D+00 0.000000000000000D+00 0.117789011120929D+03
 0.117789011120929D+03 0.000000000000000D+00 0.000000000000000D+00 -.117789011120929D+03
 0.137225849834660D+03 -.171286385506076D+02 -.490372165199067D+02 0.225365259129929D+02
 0.983521724071975D+02 0.171286385506076D+02 0.490372165199067D+02 -.225365259129929D+02
 0.000000000000000D+00 0.000000000000000D+00 -.000000000000000D+00 -.000000000000000D+00
 0.129961820639505D+03 0.000000000000000D+00 0.000000000000000D+00 0.129961820639505D+03
 0.240668515776343D+03 0.000000000000000D+00 0.000000000000000D+00 -.240668515776343D+03
 0.146284403847488D+03 -.539196946127320D+02 -.485684912433726D+02 0.225365259129929D+02
 0.973652124164473D+02 -.826955845940945D+01 0.493607945356311D+02 -.225365259129929D+02
 0.126980720151914D+03 0.621892530721415D+02 -.792303292258489D+00 -.110706695136838D+03
0.333935396210D-03 0.000000000000D+00 0.000000000000D+00 0.273799888042D-02 0.000000000000D+00  5 -2 1 25 -24 21 0 0.16345404D-02 0.20090336D+00 0.13351566D+05 0.13351566D+05 0.13351566D+05 0.12536278D+01  1  2  2  1  5  1       -2 0.284681867054D+00 0.100000000000D+01
-.185436508126D-04 0.000000000000D+00 -.128239984866D-05 0.273799888042D-02 0.000000000000D+00  5 -2 1 25 -24 21 2 0.16345404D-02 0.20090336D+00 0.13351566D+05 0.13351566D+05 0.13351566D+05 0.12536278D+01  1  2  3  1  5  1       -2 -.248444764886D-01 0.100000000000D+01
0.230800757651D-04 0.000000000000D+00 0.000000000000D+00 0.273799888042D-02 0.000000000000D+00  5 -2 1 25 -24 21 2 0.16345404D-02 0.20090336D+00 0.13351566D+05 0.13351566D+05 0.13351566D+05 0.12536278D+01  1  2 15  1  5  1       -2 0.309223035688D-01 0.100000000000D+01
  </mgrwgt>
  </event>
  <event>
  5     66 0.46019439E-03 0.16233989E+03 0.75467711E-02 0.11176410E+00
       21 -1    0    0  502  501 0.00000000E+00 0.00000000E+00 0.60622475E+02 0.60627114E+02 0.75000000E+00 0.0000E+00 0.9000E+01
        1 -1    0    0  501    0 0.00000000E+00 0.00000000E+00 -.10423875E+04 0.10423875E+04 0.32000000E+00 0.0000E+00 0.9000E+01
       25  1    1    2    0    0 -.85252028E+02 -.84635084E+02 -.47642836E+03 0.50699111E+03 0.12500000E+03 0.0000E+00 0.9000E+01
      -24  1    1    2    0    0 -.28938625E+02 0.15643665E+03 -.32682860E+03 0.37228218E+03 0.80419002E+02 0.0000E+00 0.9000E+01
        2  1    1    2  502    0 0.11419065E+03 -.71801568E+02 -.17850807E+03 0.22374138E+03 0.32000000E+00 0.0000E+00 0.9000E+01
#aMCatNLO 2  0  0  1  2 0.13488873D+03 0.00000000D+00  -5  5  0 0.00000000D+00 0.00000000D+00 0.00000000D+00 0.00000000D+00 0.00000000D+00
  <mgrwgt>
 0.6179430506D-01    1    2    0
 0.165608577928194D+03 0.000000000000000D+00 0.000000000000000D+00 0.165608577928194D+03
 0.165608577928194D+03 0.000000000000000D+00 0.000000000000000D+00 -.165608577928194D+03
 0.179433018908540D+03 -.262638980727437D+02 -.121726037478246D+03 -.326218903882293D+02
 0.151784136947848D+03 0.262638980727437D+02 0.121726037478246D+03 0.326218903882293D+02
 0.000000000000000D+00 0.000000000000000D+00 -.000000000000000D+00 0.000000000000000D+00
 0.285218789095494D+03 0.000000000000000D+00 0.000000000000000D+00 0.285218789095494D+03
 0.221565364831943D+03 0.000000000000000D+00 0.000000000000000D+00 -.221565364831943D+03
 0.176409164655901D+03 -.852520277639563D+02 -.846350837668691D+02 -.326218903882293D+02
 0.181221615406895D+03 -.289386254478103D+02 0.156436652230236D+03 0.326218903882293D+02
 0.149153373864640D+03 0.114190653211767D+03 -.718015684633667D+02 0.636534242635508D+02
0.290096101031D-04 0.000000000000D+00 0.000000000000D+00 0.222106695077D-02 0.103110726067D-06  5 21 1 25 -24 2 2 0.93268885D-02 0.16036755D+00 0.59174625D+05 0.59174625D+05 0.59174625D+05 0.11851030D+01  1  2  1  3  5  1       -2 0.617943050583D-01 0.100000000000D+01
  </mgrwgt>
  </event>
  <event>
  5     66 0.46019439E-03 0.10646844E+03 0.75467711E-02 0.12212357E+00
       -2 -1    0    0    0  501 0.00000000E+00 0.00000000E+00 0.12916397E+02 0.12920361E+02 0.32000000E+00 0.0000E+00 0.9000E+01
        1 -1    0    0  502    0 0.00000000E+00 0.00000000E+00 -.15283115E+04 0.15283116E+04 0.32000000E+00 0.0000E+00 0.9000E+01
       25  1    1    2    0    0 0.10896864E+01 0.21704095E+02 -.94264563E+03 0.95114564E+03 0.12500000E+03 0.0000E+00 0.9000E+01
      -24  1    1    2    0    0 -.44440812E+02 0.27409844E+01 -.38918004E+03 0.39988851E+03 0.80419002E+02 0.0000E+00 0.9000E+01
       21  1    1    2  502  501 0.43351126E+02 -.24445080E+02 -.18356946E+03 0.19019777E+03 0.75000000E+00 0.0000E+00 0.9000E+01
#aMCatNLO 2  0  0  2  2 0.49768284D+02 0.00000000D+00  -5  5  0 0.00000000D+00 0.00000000D+00 0.00000000D+00 0.00000000D+00 0.00000000D+00
  <mgrwgt>
 0.5356786401D-01    1    2    0
 0.110743831301554D+03 0.000000000000000D+00 0.000000000000000D+00 0.110743831301554D+03
 0.110743831301554D+03 0.000000000000000D+00 0.000000000000000D+00 -.110743831301554D+03
 0.131417181541472D+03 0.263916230186788D+02 0.743669519091079D+01 -.298940362510905D+02
 0.900704810616365D+02 -.263916230186788D+02 -.743669519091079D+01 0.298940362510905D+02
 0.000000000000000D+00 0.000000000000000D+00 -.000000000000000D+00 0.000000000000000D+00
 0.152669707770001D+03 0.000000000000000D+00 0.000000000000000D+00 0.152669707770001D+03
 0.129315871954501D+03 0.000000000000000D+00 0.000000000000000D+00 -.129315871954501D+03
 0.130349179397664D+03 0.108968635346533D+01 0.217040952337111D+02 -.298940362510905D+02
 0.966610995246411D+02 -.444408124119933D+02 0.274098444405300D+01 0.298940362510905D+02
 0.549753008021963D+02 0.433511260585280D+02 -.244450796777641D+02 0.233538358155002D+02
0.754393822377D-04 0.000000000000D+00 0.000000000000D+00 0.280822396089D-02 0.993031133462D-05  5 -2 1 25 -24 21 2 0.19874081D-02 0.23512074D+00 0.18031867D+05 0.18031867D+05 0.18031867D+05 0.12388099D+01  1  2  1  2  5  2        1 0.535678640082D-01 0.100000000000D+01
  </mgrwgt>
  </event>
  <event>
  4     66 0.46019439E-03 0.16318728E+03 0.75467711E-02 0.11071573E+00
       -2 -1    0    0    0  501 0.00000000E+00 0.00000000E+00 0.56631917E+02 0.56632821E+02 0.32000000E+00 0.0000E+00 0.9000E+01
        1 -1    0    0  501    0 0.00000000E+00 0.00000000E+00 -.47164552E+03 0.47164563E+03 0.32000000E+00 0.0000E+00 0.9000E+01
       25  1    1    2    0    0 -.11393480E+03 -.52911909E+02 -.21085735E+03 0.27543897E+03 0.12500000E+03 0.0000E+00 0.9000E+01
      -24  1    1    2    0    0 0.11393480E+03 0.52911909E+02 -.20415626E+03 0.25283948E+03 0.80419002E+02 0.0000E+00 0.9000E+01
#aMCatNLO 1  0  0  1  2 0.15754165D+03 0.00000000D+00  -5  5  0 0.00000000D+00 0.00000000D+00 0.00000000D+00 0.00000000D+00 0.00000000D+00
  <mgrwgt>
 0.2397445294D+00    3    2    0
 0.163433343077321D+03 0.000000000000000D+00 0.000000000000000D+00 0.163433343077321D+03
 0.163433343077321D+03 0.000000000000000D+00 0.000000000000000D+00 -.163433343077321D+03
 0.177441782042705D+03 -.113934795847577D+03 -.529119088087383D+02 0.893186519589820D+01
 0.149424904111937D+03 0.113934795847577D+03 0.529119088087383D+02 -.893186519589820D+01
 0.000000000000000D+00 0.000000000000000D+00 -.000000000000000D+00 -.000000000000000D+00
 0.237745649477419D+03 0.000000000000000D+00 0.000000000000000D+00 0.237745649477419D+03
 0.291597146816752D+03 0.000000000000000D+00 0.000000000000000D+00 -.291597146816752D+03
 0.178163841599463D+03 -.123563843596229D+03 0.277408145757764D+02 0.893186519589820D+01
 0.184687646538179D+03 0.104887735031488D+03 0.128689920559177D+03 -.893186519589820D+01
 0.166491308156529D+03 0.186761085647411D+02 -.156430735134954D+03 -.538514973393330D+02
0.678611819867D-03 0.000000000000D+00 0.000000000000D+00 0.231028657462D-02 0.000000000000D+00  5 -2 1 25 -24 21 0 0.87126805D-02 0.72560928D-01 0.26630087D+05 0.26630087D+05 0.26630087D+05 0.12203674D+01  1  2  2  1  5  1       -2 0.235076477790D+00 0.100000000000D+01
-.377005525932D-04 0.000000000000D+00 -.260604807088D-05 0.231028657462D-02 0.000000000000D+00  5 -2 1 25 -24 21 2 0.87126805D-02 0.72560928D-01 0.26630087D+05 0.26630087D+05 0.26630087D+05 0.12203674D+01  1  2  3  1  5  1       -2 -.194498688272D-01 0.100000000000D+01
0.467488463196D-04 0.000000000000D+00 0.000000000000D+00 0.231028657462D-02 0.000000000000D+00  5 -2 1 25 -24 21 2 0.87126805D-02 0.72560928D-01 0.26630087D+05 0.26630087D+05 0.26630087D+05 0.12203674D+01  1  2 15  1  5  1       -2 0.241179204600D-01 0.100000000000D+01
  </mgrwgt>
  </event>
  <event>
  5     66 0.46019439E-03 0.10422775E+03 0.75467711E-02 0.12042804E+00
       -2 -1    0    0    0  501 0.00000000E+00 0.00000000E+00 0.41001308E+02 0.41002556E+02 0.32000000E+00 0.0000E+00 0.9000E+01
        1 -1    0    0  502    0 0.00000000E+00 0.00000000E+00 -.90853260E+03 0.90853266E+03 0.32000000E+00 0.0000E+00 0.9000E+01
       25  1    1    2    0    0 0.60123764E+01 -.49573303E+02 -.14778034E+03 0.19989420E+03 0.12500000E+03 0.0000E+00 0.9000E+01
      -24  1    1    2    0    0 -.22577838E+02 -.21541977E+02 -.13405665E+03 0.15941209E+03 0.80419002E+02 0.0000E+00 0.9000E+01
       21  1    1    2  502  501 0.16565461E+02 0.71115280E+02 -.58569430E+03 0.59022892E+03 0.75000000E+00 0.0000E+00 0.9000E+01
#aMCatNLO 2  0  0  2  1 0.73019159D+02 0.00000000D+00  -5  5  0 0.00000000D+00 0.00000000D+00 0.00000000D+00 0.00000000D+00 0.00000000D+00
  <mgrwgt>
 0.9828741131D-01    2    2    0
 0.105281914989550D+03 0.000000000000000D+00 0.000000000000000D+00 0.105281914989550D+03
 0.105281914989550D+03 0.000000000000000D+00 0.000000000000000D+00 -.105281914989550D+03
 0.127027777150536D+03 0.160417863340001D+02 -.651719489013952D+01 0.145342158297052D+02
 0.835360528285647D+02 -.160417863340001D+02 0.651719489013952D+01 -.145342158297052D+02
 0.000000000000000D+00 0.000000000000000D+00 0.000000000000000D+00 -.000000000000000D+00
 0.117954633323225D+03 0.000000000000000D+00 0.000000000000000D+00 0.117954633323225D+03
 0.315809923260024D+03 0.000000000000000D+00 0.000000000000000D+00 -.315809923260024D+03
 0.135387977721677D+03 0.601237643065053D+01 -.495733034146101D+02 0.145342158297052D+02
 0.874772821906420D+02 -.225778376342801D+02 -.215419767678435D+02 -.145342158297052D+02
 0.210899296670930D+03 0.165654612036296D+02 0.711152801824536D+02 -.197855289936800D+03
-.673066618179D-04 0.000000000000D+00 0.000000000000D+00 0.310406616819D-02 0.000000000000D+00  5 -2 1 25 -24 21 2 0.56302502D-02 0.13625457D+00 0.21592267D+05 0.21592267D+05 0.21592267D+05 0.12301802D+01  1  2 13  2  5  2        1 -.282296467811D-01 0.100000000000D+01
0.373355203456D-03 0.000000000000D+00 0.000000000000D+00 0.310406616819D-02 0.803194681683D-05  5 -2 1 25 -24 21 2 0.63079600D-02 0.13977360D+00 0.21592267D+05 0.21592267D+05 0.21592267D+05 0.12301802D+01  1  2  1  2  5  2        1 0.126517058088D+00 0.100000000000D+01
  </mgrwgt>
  </event>
  <event>
  4     66 0.46019439E-03 0.10521116E+03 0.75467711E-02 0.11518242E+00
       -2 -1    0    0    0  501 0.00000000E+00 0.00000000E+00 0.84131590E+01 0.84192425E+01 0.32000000E+00 0.0000E+00 0.9000E+01
        1 -1    0    0  501    0 0.00000000E+00 0.00000000E+00 -.13216249E+04 0.13216250E+04 0.32000000E+00 0.0000E+00 0.9000E+01
       25  1    1    2    0    0 -.22141436E+02 -.25605787E+01 -.83697645E+03 0.84655264E+03 0.12500000E+03 0.0000E+00 0.9000E+01
      -24  1    1    2    0    0 0.22141436E+02 0.25605787E+01 -.47623534E+03 0.48349159E+03 0.80419002E+02 0.0000E+00 0.9000E+01
#aMCatNLO 1  0  0  1  1 0.14153284D+03 0.00000000D+00  -5  5  0 0.00000000D+00 0.00000000D+00 0.00000000D+00 0.00000000D+00 0.00000000D+00
  <mgrwgt>
 0.1761655803D+00    5    2    0
 0.105466166363683D+03 0.000000000000000D+00 0.000000000000000D+00 0.105466166363683D+03
 0.105466166363683D+03 0.000000000000000D+00 0.000000000000000D+00 -.105466166363683D+03
 0.127174038094913D+03 -.221414363202085D+02 -.256057871593367D+01 -.717190349098397D+01
 0.837582946324533D+02 0.221414363202085D+02 0.256057871593367D+01 0.717190349098397D+01
 0.000000000000000D+00 0.000000000000000D+00 0.000000000000000D+00 0.000000000000000D+00
 0.348741637255025D+03 0.000000000000000D+00 0.000000000000000D+00 0.348741637255025D+03
 0.149593001342307D+03 0.000000000000000D+00 0.000000000000000D+00 -.149593001342307D+03
 0.167829331047154D+03 -.107729272222852D+03 -.297431011561649D+02 -.717190349098397D+01
 0.861864067936323D+02 -.271637606356099D+02 -.130986514601404D+02 0.717190349098397D+01
 0.244318900756546D+03 0.134893032858462D+03 0.428417526163054D+02 0.199148635912718D+03
0.159900940477D-03 0.000000000000D+00 0.000000000000D+00 0.313553228628D-02 0.000000000000D+00  5 -2 1 25 -24 21 0 0.12948031D-02 0.20332739D+00 0.11069389D+05 0.11069389D+05 0.11069389D+05 0.12631537D+01  1  2  2  1  5  1       -2 0.184860781604D+00 0.100000000000D+01
-.888332228646D-05 0.000000000000D+00 -.614061714317D-06 0.313553228628D-02 0.000000000000D+00  5 -2 1 25 -24 21 2 0.12948031D-02 0.20332739D+00 0.11069389D+05 0.11069389D+05 0.11069389D+05 0.12631537D+01  1  2  3  1  5  1       -2 -.163863254709D-01 0.100000000000D+01
0.110570079173D-04 0.000000000000D+00 0.000000000000D+00 0.313553228628D-02 0.000000000000D+00  5 -2 1 25 -24 21 2 0.12948031D-02 0.20332739D+00 0.11069389D+05 0.11069389D+05 0.11069389D+05 0.12631537D+01  1  2 15  1  5  1       -2 0.203959424892D-01 0.100000000000D+01
-.107473548210D-04 0.000000000000D+00 -.579477541079D-04 0.313553228628D-02 0.000000000000D+00  5 -2 1 25 -24 21 2 0.62817461D-02 0.20332739D+00 0.11069389D+05 0.11069389D+05 0.11069389D+05 0.12631537D+01  1  2  5  1  5  1       -2 -.197237839889D-02 0.100000000000D+01
-.337917048719D-05 0.000000000000D+00 -.111324784087D-04 0.313553228628D-02 0.000000000000D+00  5 21 1 25 -24 2 2 0.62817461D-02 0.20332739D+00 0.11069389D+05 0.11069389D+05 0.11069389D+05 0.12631537D+01  1  2  5  3  5  1       -2 -.107324399642D-01 0.100000000000D+01
  </mgrwgt>
  </event>
  <event>
  4     66 0.46019439E-03 0.80088732E+02 0.75467711E-02 0.12071774E+00
       -2 -1    0    0    0  501 0.00000000E+00 0.00000000E+00 0.26163356E+03 0.26163375E+03 0.32000000E+00 0.0000E+00 0.9000E+01
        1 -1    0    0  501    0 0.00000000E+00 0.00000000E+00 -.64764567E+02 0.64765358E+02 0.32000000E+00 0.0000E+00 0.9000E+01
       25  1    1    2    0    0 0.25237870E+02 -.58727051E+02 0.53979192E+02 0.15041466E+03 0.12500000E+03 0.0000E+00 0.9000E+01
      -24  1    1    2    0    0 -.25237870E+02 0.58727051E+02 0.14288980E+03 0.17598445E+03 0.80419002E+02 0.0000E+00 0.9000E+01
#aMCatNLO 1  0  0  1  2 0.42268538D+02 0.00000000D+00  -5  5  0 0.00000000D+00 0.00000000D+00 0.00000000D+00 0.00000000D+00 0.00000000D+00
  <mgrwgt>
 0.1907715124D+00    9    2    0
 0.130171982597739D+03 0.000000000000000D+00 0.000000000000000D+00 0.130171982597739D+03
 0.130171982597739D+03 0.000000000000000D+00 0.000000000000000D+00 -.130171982597739D+03
 0.147759838031134D+03 0.252378700527301D+02 -.587270510490910D+02 -.460668332454687D+02
 0.112584127164345D+03 -.252378700527301D+02 0.587270510490910D+02 0.460668332454687D+02
 0.000000000000000D+00 0.000000000000000D+00 -.000000000000000D+00 0.000000000000000D+00
 0.162454730060435D+03 0.000000000000000D+00 0.000000000000000D+00 0.162454730060435D+03
 0.146483486996943D+03 0.000000000000000D+00 0.000000000000000D+00 -.146483486996943D+03
 0.139319892898697D+03 0.155736649156518D+02 -.376874036401220D+02 -.460668332454687D+02
 0.124433039839042D+03 -.332167772208218D+02 0.760976874485061D+02 0.460668332454687D+02
 0.451852843196390D+02 0.176431123051700D+02 -.384102838083842D+02 0.159712430634924D+02
0.423960035905D-03 0.000000000000D+00 0.000000000000D+00 0.232825855025D-02 0.000000000000D+00  5 -2 1 25 -24 21 0 0.40251392D-01 0.99638554D-02 0.14777219D+05 0.14777219D+05 0.14777219D+05 0.12485641D+01  1  2  2  1  5  1       -2 0.134272765339D+00 0.100000000000D+01
-.234192142712D-04 0.000000000000D+00 -.162811816912D-05 0.232825855025D-02 0.000000000000D+00  5 -2 1 25 -24 21 2 0.40251392D-01 0.99638554D-02 0.14777219D+05 0.14777219D+05 0.14777219D+05 0.12485641D+01  1  2  3  1  5  1       -2 -.115626396061D-01 0.100000000000D+01
0.292819192087D-04 0.000000000000D+00 0.000000000000D+00 0.232825855025D-02 0.000000000000D+00  5 -2 1 25 -24 21 2 0.40251392D-01 0.99638554D-02 0.14777219D+05 0.14777219D+05 0.14777219D+05 0.12485641D+01  1  2 15  1  5  1       -2 0.144572006073D-01 0.100000000000D+01
0.246854940251D-03 0.000000000000D+00 0.000000000000D+00 0.232825855025D-02 0.000000000000D+00  5 -2 1 25 -24 21 2 0.52258723D-01 0.99638554D-02 0.20929924D+05 0.20929924D+05 0.20929924D+05 0.12316590D+01  1  2 12  1  5  1       -2 0.721539166658D-01 0.100000000000D+01
-.266546002021D-03 0.000000000000D+00 0.000000000000D+00 0.232825855025D-02 0.000000000000D+00  5 -2 1 25 -24 21 2 0.40251392D-01 0.99638554D-02 0.14777219D+05 0.14777219D+05 0.14777219D+05 0.12485641D+01  1  2  4  1  5  1       -2 -.131600288725D+00 0.100000000000D+01
-.493923656750D-03 0.000000000000D+00 -.176103861227D-03 0.232825855025D-02 0.000000000000D+00  5 -2 1 25 -24 21 2 0.55688018D-01 0.99638554D-02 0.14777219D+05 0.14777219D+05 0.14777219D+05 0.12485641D+01  1  2  5  1  5  1       -2 -.129386013656D+00 0.100000000000D+01
0.531716086271D-03 0.000000000000D+00 0.167215754693D-03 0.232825855025D-02 0.000000000000D+00  5 -2 1 25 -24 21 2 0.40251392D-01 0.99638554D-02 0.14777219D+05 0.14777219D+05 0.14777219D+05 0.12485641D+01  1  2  6  1  5  1       -2 0.262521253152D+00 0.100000000000D+01
0.862465475268D-05 0.000000000000D+00 0.000000000000D+00 0.232825855025D-02 0.000000000000D+00  5 21 1 25 -24 2 2 0.52258723D-01 0.99638554D-02 0.20929924D+05 0.20929924D+05 0.20929924D+05 0.12316590D+01  1  2 12  3  5  1       -2 0.311979624252D-01 0.100000000000D+01
-.157556689041D-04 0.000000000000D+00 -.720577257443D-05 0.232825855025D-02 0.000000000000D+00  5 21 1 25 -24 2 2 0.55688018D-01 0.99638554D-02 0.14777219D+05 0.14777219D+05 0.14777219D+05 0.12485641D+01  1  2  5  3  5  1       -2 -.512826437800D-01 0.100000000000D+01
  </mgrwgt>
  </event>
  <event>
  4     66 0.46019439E-03 0.12528083E+03 0.75467711E-02 0.11987216E+00
       -2 -1    0    0    0  501 0.00000000E+00 0.00000000E+00 0.46357851E+02 0.46358956E+02 0.32000000E+00 0.0000E+00 0.9000E+01
        1 -1    0    0  501    0 0.00000000E+00 0.00000000E+00 -.34274241E+03 0.34274256E+03 0.32000000E+00 0.0000E+00 0.9000E+01
       25  1    1    2    0    0 0.35368976E+02 0.61091510E+02 -.14828827E+03 0.20639173E+03 0.12500000E+03 0.0000E+00 0.9000E+01
      -24  1    1    2    0    0 -.35368976E+02 -.61091510E+02 -.14809629E+03 0.18270978E+03 0.80419002E+02 0.0000E+00 0.9000E+01
#aMCatNLO 1  0  0  2  2 0.47816419D+02 0.00000000D+00  -5  5  0 0.00000000D+00 0.00000000D+00 0.00000000D+00 0.00000000D+00 0.00000000D+00
  <mgrwgt>
 0.6096201431D-01    4    2    0
 0.126051756957448D+03 0.000000000000000D+00 0.000000000000000D+00 0.126051756957448D+03
 0.126051756957448D+03 0.000000000000000D+00 0.000000000000000D+00 -.126051756957448D+03
 0.144214502695139D+03 0.353689755721981D+02 0.610915095484383D+02 0.137726473734187D+02
 0.107889011219757D+03 -.353689755721981D+02 -.610915095484383D+02 -.137726473734187D+02
 0.000000000000000D+00 0.000000000000000D+00 -.000000000000000D+00 0.000000000000000D+00
 0.156567927895317D+03 0.000000000000000D+00 0.000000000000000D+00 0.156567927895317D+03
 0.148519265300128D+03 0.000000000000000D+00 0.000000000000000D+00 -.148519265300128D+03
 0.154065956077561D+03 0.226438355245283D+02 0.860749076047052D+02 0.137726473734187D+02
 0.102532157023568D+03 -.443458922830947D+02 -.434670368380295D+02 -.137726473734187D+02
 0.484890800943158D+02 0.217020567585664D+02 -.426078707666757D+02 0.804866259518910D+01
0.239045300128D-03 0.000000000000D+00 0.000000000000D+00 0.265087930806D-02 0.000000000000D+00  5 -2 1 25 -24 21 0 0.71320735D-02 0.52729698D-01 0.15695287D+05 0.15695287D+05 0.15695287D+05 0.12455854D+01  1  2  2  2  5  2        1 0.166559747739D+00 0.100000000000D+01
-.132796867686D-04 0.000000000000D+00 -.917996894566D-06 0.265087930806D-02 0.000000000000D+00  5 -2 1 25 -24 21 2 0.71320735D-02 0.52729698D-01 0.15695287D+05 0.15695287D+05 0.15695287D+05 0.12455854D+01  1  2  3  2  5  2        1 -.143557115722D-01 0.100000000000D+01
0.164990637689D-04 0.000000000000D+00 0.000000000000D+00 0.265087930806D-02 0.000000000000D+00  5 -2 1 25 -24 21 2 0.71320735D-02 0.52729698D-01 0.15695287D+05 0.15695287D+05 0.15695287D+05 0.12455854D+01  1  2 15  2  5  2        1 0.178359478507D-01 0.100000000000D+01
-.100902087910D-03 0.000000000000D+00 0.000000000000D+00 0.265087930806D-02 0.000000000000D+00  5 -2 1 25 -24 21 2 0.71320735D-02 0.52729698D-01 0.15695287D+05 0.15695287D+05 0.15695287D+05 0.12455854D+01  1  2  4  2  5  2        1 -.109077969708D+00 0.100000000000D+01
  </mgrwgt>
  </event>
  <event>
  4     66 0.46019439E-03 0.84587648E+02 0.75467711E-02 0.11739311E+00
       -2 -1    0    0    0  501 0.00000000E+00 0.00000000E+00 0.21866834E+02 0.21869175E+02 0.32000000E+00 0.0000E+00 0.9000E+01
        1 -1    0    0  501    0 0.00000000E+00 0.00000000E+00 -.60638002E+03 0.60638010E+03 0.32000000E+00 0.0000E+00 0.9000E+01
       25  1    1    2    0    0 -.45096457E+02 -.12024941E+02 -.39936453E+03 0.42106451E+03 0.12500000E+03 0.0000E+00 0.9000E+01
      -24  1    1    2    0    0 0.45096457E+02 0.12024941E+02 -.18514865E+03 0.20718477E+03 0.80419002E+02 0.0000E+00 0.9000E+01
#aMCatNLO 1  0  0  1  2 0.10000033D+03 0.00000000D+00  -5  5  0 0.00000000D+00 0.00000000D+00 0.00000000D+00 0.00000000D+00 0.00000000D+00
  <mgrwgt>
 0.1687504908D+00    7    2    0
 0.115153692627588D+03 0.000000000000000D+00 0.000000000000000D+00 0.115153692627588D+03
 0.115153692627588D+03 0.000000000000000D+00 0.000000000000000D+00 -.115153692627588D+03
 0.135035347823931D+03 -.450964568030871D+02 -.120249408782836D+02 -.207666931072619D+02
 0.952720374312455D+02 0.450964568030871D+02 0.120249408782836D+02 0.207666931072619D+02
 0.000000000000000D+00 -.000000000000000D+00 -.000000000000000D+00 0.000000000000000D+00
 0.261961666646596D+03 0.000000000000000D+00 0.000000000000000D+00 0.261961666646596D+03
 0.143866097330659D+03 0.000000000000000D+00 0.000000000000000D+00 -.143866097330659D+03
 0.127180464819669D+03 0.482725619190536D+01 0.976282166147074D+01 -.207666931072619D+02
 0.123900314164714D+03 0.868250522954814D+02 0.302361810918659D+02 0.207666931072619D+02
 0.154746984992871D+03 -.916523084873868D+02 -.399990027533367D+02 0.118095569315937D+03
0.211217064014D-03 0.000000000000D+00 0.000000000000D+00 0.280363710180D-02 0.000000000000D+00  5 -2 1 25 -24 21 0 0.33643148D-02 0.93289420D-01 0.12815392D+05 0.12815392D+05 0.12815392D+05 0.12556917D+01  1  2  2  1  5  1       -2 0.216133432614D+00 0.100000000000D+01
-.117301257665D-04 0.000000000000D+00 -.811129140544D-06 0.280363710180D-02 0.000000000000D+00  5 -2 1 25 -24 21 2 0.33643148D-02 0.93289420D-01 0.12815392D+05 0.12815392D+05 0.12815392D+05 0.12556917D+01  1  2  3  1  5  1       -2 -.189261235533D-01 0.100000000000D+01
0.145933036487D-04 0.000000000000D+00 0.000000000000D+00 0.280363710180D-02 0.000000000000D+00  5 -2 1 25 -24 21 2 0.33643148D-02 0.93289420D-01 0.12815392D+05 0.12815392D+05 0.12815392D+05 0.12556917D+01  1  2 15  1  5  1       -2 0.235457550417D-01 0.100000000000D+01
0.276780581965D-05 0.000000000000D+00 0.000000000000D+00 0.280363710180D-02 0.000000000000D+00  5 -2 1 25 -24 21 2 0.75839451D-02 0.93289420D-01 0.30210173D+05 0.30210173D+05 0.30210173D+05 0.12145803D+01  1  2 12  1  5  1       -2 0.125777687680D-02 0.100000000000D+01
-.750901191578D-04 0.000000000000D+00 -.590535538336D-04 0.280363710180D-02 0.000000000000D+00  5 -2 1 25 -24 21 2 0.95402919D-02 0.93289420D-01 0.12815392D+05 0.12815392D+05 0.12815392D+05 0.12556917D+01  1  2  5  1  5  1       -2 -.251787665708D-01 0.100000000000D+01
0.244335883568D-06 0.000000000000D+00 0.000000000000D+00 0.280363710180D-02 0.000000000000D+00  5 21 1 25 -24 2 2 0.75839451D-02 0.93289420D-01 0.30210173D+05 0.30210173D+05 0.30210173D+05 0.12145803D+01  1  2 12  3  5  1       -2 0.182674036898D-02 0.100000000000D+01
-.557154556758D-05 0.000000000000D+00 -.692882168670D-05 0.280363710180D-02 0.000000000000D+00  5 21 1 25 -24 2 2 0.95402919D-02 0.93289420D-01 0.12815392D+05 0.12815392D+05 0.12815392D+05 0.12556917D+01  1  2  5  3  5  1       -2 -.299083239278D-01 0.100000000000D+01
  </mgrwgt>
  </event>
  <event>
  4     66 0.46019439E-03 0.15708062E+03 0.75467711E-02 0.11562642E+00
       -4 -1    0    0    0  501 0.00000000E+00 0.00000000E+00 0.13473605E+03 0.13474496E+03 0.15500000E+01 0.0000E+00 0.9000E+01
        3 -1    0    0  501    0 0.00000000E+00 0.00000000E+00 -.19193364E+03 0.19193429E+03 0.50000000E+00 0.0000E+00 0.9000E+01
       25  1    1    2    0    0 -.86611446E+02 0.79618461E+02 -.65989074E+02 0.18390269E+03 0.12500000E+03 0.0000E+00 0.9000E+01
      -24  1    1    2    0    0 0.86611446E+02 -.79618461E+02 0.87914789E+01 0.14277657E+03 0.80419002E+02 0.0000E+00 0.9000E+01
#aMCatNLO 1  0  0  2  2 0.64433042D+02 0.00000000D+00  -5  5  0 0.00000000D+00 0.00000000D+00 0.00000000D+00 0.00000000D+00 0.00000000D+00
  <mgrwgt>
 0.2741357222D-01    4    2    0
 0.160816488648784D+03 0.000000000000000D+00 0.000000000000000D+00 0.160816488648784D+03
 0.160816488648784D+03 0.000000000000000D+00 0.000000000000000D+00 -.160816488648784D+03
 0.175052877159961D+03 -.866114457126923D+02 0.796184605819516D+02 -.343200817029620D+02
 0.146580100137607D+03 0.866114457126923D+02 -.796184605819516D+02 0.343200817029620D+02
 0.000000000000000D+00 0.000000000000000D+00 0.000000000000000D+00 0.000000000000000D+00
 0.224655317971595D+03 0.000000000000000D+00 0.000000000000000D+00 0.224655317971595D+03
 0.181126550659950D+03 0.000000000000000D+00 0.000000000000000D+00 -.181126550659950D+03
 0.194789687375605D+03 -.123212276148982D+03 0.771938424097084D+02 -.343200817029620D+02
 0.133233770534806D+03 0.589201494254092D+02 -.814528675992456D+02 0.343200817029620D+02
 0.777584107211332D+02 0.642921267235731D+02 0.425902518953715D+01 0.435287673116450D+02
0.814904299047D-03 0.000000000000D+00 0.000000000000D+00 0.223430399757D-02 0.000000000000D+00  5 -4 3 25 -24 21 0 0.20729359D-01 0.29528989D-01 0.24674320D+05 0.24674320D+05 0.24674320D+05 0.12239087D+01  1  2  2  2  5  2        3 0.383018576862D-01 0.100000000000D+01
-.452420503456D-04 0.000000000000D+00 -.312944707757D-05 0.223430399757D-02 0.000000000000D+00  5 -4 3 25 -24 21 2 0.20729359D-01 0.29528989D-01 0.24674320D+05 0.24674320D+05 0.24674320D+05 0.12239087D+01  1  2  3  2  5  2        3 -.318532338584D-02 0.100000000000D+01
0.561356939514D-04 0.000000000000D+00 0.000000000000D+00 0.223430399757D-02 0.000000000000D+00  5 -4 3 25 -24 21 2 0.20729359D-01 0.29528989D-01 0.24674320D+05 0.24674320D+05 0.24674320D+05 0.12239087D+01  1  2 15  2  5  2        3 0.395230404807D-02 0.100000000000D+01
-.165543046420D-03 0.000000000000D+00 0.000000000000D+00 0.223430399757D-02 0.000000000000D+00  5 -4 3 25 -24 21 2 0.20729359D-01 0.29528989D-01 0.24674320D+05 0.24674320D+05 0.24674320D+05 0.12239087D+01  1  2  4  2  5  2        3 -.116552661318D-01 0.100000000000D+01
  </mgrwgt>
  </event>
  <event>
  4     66 0.46019439E-03 0.11000276E+03 0.75467711E-02 0.10161683E+00
       -2 -1    0    0    0  501 0.00000000E+00 0.00000000E+00 0.11144120E+02 0.11148713E+02 0.32000000E+00 0.0000E+00 0.9000E+01
        1 -1    0    0  501    0 0.00000000E+00 0.00000000E+00 -.11674080E+04 0.11674080E+04 0.32000000E+00 0.0000E+00 0.9000E+01
       25  1    1    2    0    0 -.29739598E+01 0.38455432E+02 -.52647541E+03 0.54248412E+03 0.12500000E+03 0.0000E+00 0.9000E+01
      -24  1    1    2    0    0 0.29739598E+01 -.38455432E+02 -.62978843E+03 0.63607260E+03 0.80419002E+02 0.0000E+00 0.9000E+01
#aMCatNLO 1  0  0  2  2 0.46672169D+03 0.00000000D+00  -5  5  0 0.00000000D+00 0.00000000D+00 0.00000000D+00 0.00000000D+00 0.00000000D+00
  <mgrwgt>
 0.3629677764D+00    3    2    0
 0.114072201108514D+03 0.000000000000000D+00 0.000000000000000D+00 0.114072201108514D+03
 0.114072201108514D+03 0.000000000000000D+00 0.000000000000000D+00 -.114072201108514D+03
 0.134142349568519D+03 -.297395982570148D+01 0.384554320015157D+02 0.296901542652546D+02
 0.940020526485100D+02 0.297395982570148D+01 -.384554320015157D+02 -.296901542652546D+02
 0.000000000000000D+00 0.000000000000000D+00 -.000000000000000D+00 0.000000000000000D+00
 0.200473143623869D+04 0.000000000000000D+00 0.000000000000000D+00 0.200473143623869D+04
 0.290957334648506D+03 0.000000000000000D+00 0.000000000000000D+00 -.290957334648506D+03
 0.378094130766781D+03 -.150130396307605D+03 0.322350012508942D+03 0.296901542652546D+02
 0.141404670640322D+03 -.646542077354810D+02 0.920130049847852D+02 -.296901542652546D+02
 0.177618996948009D+04 0.214784604043086D+03 -.414363017493727D+03 0.171377410159018D+04
0.361210444797D-03 0.000000000000D+00 0.000000000000D+00 0.274096961931D-02 0.000000000000D+00  5 -2 1 25 -24 21 0 0.17148367D-02 0.17960158D+00 0.12100607D+05 0.12100607D+05 0.12100607D+05 0.12585994D+01  1  2  2  2  5  2        1 0.355235642500D+00 0.100000000000D+01
-.200350505194D-04 0.000000000000D+00 -.138714321692D-05 0.274096961931D-02 0.000000000000D+00  5 -2 1 25 -24 21 2 0.17148367D-02 0.17960158D+00 0.12100607D+05 0.12100607D+05 0.12100607D+05 0.12585994D+01  1  2  3  2  5  2        1 -.312120072594D-01 0.100000000000D+01
0.249983229201D-04 0.000000000000D+00 0.000000000000D+00 0.274096961931D-02 0.000000000000D+00  5 -2 1 25 -24 21 2 0.17148367D-02 0.17960158D+00 0.12100607D+05 0.12100607D+05 0.12100607D+05 0.12585994D+01  1  2 15  2  5  2        1 0.389441412040D-01 0.100000000000D+01
  </mgrwgt>
  </event>
  <event>
  4     66 0.46019439E-03 0.66906330E+02 0.75467711E-02 0.12618663E+00
       -2 -1    0    0    0  501 0.00000000E+00 0.00000000E+00 0.47800250E+02 0.47801321E+02 0.32000000E+00 0.0000E+00 0.9000E+01
        1 -1    0    0  501    0 0.00000000E+00 0.00000000E+00 -.23411142E+03 0.23411164E+03 0.32000000E+00 0.0000E+00 0.9000E+01
       25  1    1    2    0    0 -.21552732E+02 0.10080307E+02 -.10308771E+03 0.16376266E+03 0.12500000E+03 0.0000E+00 0.9000E+01
      -24  1    1    2    0    0 0.21552732E+02 -.10080307E+02 -.83223461E+02 0.11815030E+03 0.80419002E+02 0.0000E+00 0.9000E+01
#aMCatNLO 1  0  0  2  1 0.73689730D+01 0.00000000D+00  -5  5  0 0.00000000D+00 0.00000000D+00 0.00000000D+00 0.00000000D+00 0.00000000D+00
  <mgrwgt>
 0.1636424479D+00   11    2    0
 0.105786417212396D+03 0.000000000000000D+00 0.000000000000000D+00 0.105786417212396D+03
 0.105786417212396D+03 0.000000000000000D+00 0.000000000000000D+00 -.105786417212396D+03
 0.127428571959075D+03 -.215527321230568D+02 0.100803065317153D+02 0.684894953898143D+01
 0.841442624657180D+02 0.215527321230568D+02 -.100803065317153D+02 -.684894953898143D+01
 0.000000000000000D+00 0.000000000000000D+00 -.000000000000000D+00 -.000000000000000D+00
 0.107936934891546D+03 0.000000000000000D+00 0.000000000000000D+00 0.107936934891546D+03
 0.112357280971053D+03 0.000000000000000D+00 0.000000000000000D+00 -.112357280971053D+03
 0.128178128466055D+03 -.237204129170546D+02 0.139666215785143D+02 0.684894953898143D+01
 0.835229958334850D+02 0.201308245791898D+02 -.753104711206791D+01 -.684894953898143D+01
 0.859309156305906D+01 0.358958833786477D+01 -.643557446644641D+01 -.442034607950610D+01
0.875798886184D-04 0.000000000000D+00 0.000000000000D+00 0.312623315755D-02 0.000000000000D+00  5 -2 1 25 -24 21 0 0.73539838D-02 0.36017241D-01 0.11141799D+05 0.11141799D+05 0.11141799D+05 0.12628186D+01  1  2  2  2  5  2        1 0.918799794173D-01 0.100000000000D+01
-.486552092719D-05 0.000000000000D+00 -.336329832609D-06 0.312623315755D-02 0.000000000000D+00  5 -2 1 25 -24 21 2 0.73539838D-02 0.36017241D-01 0.11141799D+05 0.11141799D+05 0.11141799D+05 0.12628186D+01  1  2  3  2  5  2        1 -.814006306076D-02 0.100000000000D+01
0.606747964831D-05 0.000000000000D+00 0.000000000000D+00 0.312623315755D-02 0.000000000000D+00  5 -2 1 25 -24 21 2 0.73539838D-02 0.36017241D-01 0.11141799D+05 0.11141799D+05 0.11141799D+05 0.12628186D+01  1  2 15  2  5  2        1 0.101509515006D-01 0.100000000000D+01
0.382181440643D-03 0.000000000000D+00 0.000000000000D+00 0.312623315755D-02 0.000000000000D+00  5 -2 1 25 -24 21 2 0.73539838D-02 0.38604835D-01 0.11947113D+05 0.11947113D+05 0.11947113D+05 0.12592490D+01  1  2 12  2  5  2        1 0.585639344079D+00 0.100000000000D+01
-.385998802464D-03 0.000000000000D+00 0.000000000000D+00 0.312623315755D-02 0.000000000000D+00  5 -2 1 25 -24 21 2 0.73539838D-02 0.36017241D-01 0.11141799D+05 0.11141799D+05 0.11141799D+05 0.12628186D+01  1  2  4  2  5  2        1 -.645779689462D+00 0.100000000000D+01
-.120454681413D-02 0.000000000000D+00 -.188002535490D-03 0.312623315755D-02 0.000000000000D+00  5 -2 1 25 -24 21 2 0.73539838D-02 0.38926872D-01 0.11141799D+05 0.11141799D+05 0.11141799D+05 0.12628186D+01  1  2  5  2  5  2        1 -.183195864466D+01 0.100000000000D+01
0.121604664500D-02 0.000000000000D+00 0.187436634419D-03 0.312623315755D-02 0.000000000000D+00  5 -2 1 25 -24 21 2 0.73539838D-02 0.36017241D-01 0.11141799D+05 0.11141799D+05 0.11141799D+05 0.12628186D+01  1  2  6  2  5  2        1 0.203445767129D+01 0.100000000000D+01
0.884072318874D-05 0.000000000000D+00 0.000000000000D+00 0.312623315755D-02 0.487844102186D-03  5 -2 1 25 -24 21 2 0.75034819D-02 0.38254431D-01 0.11947113D+05 0.11947113D+05 0.11947113D+05 0.12592490D+01  1  2 11  2  5  2        1 0.132848818251D-01 0.100000000000D+01
0.488364759097D-05 0.000000000000D+00 0.000000000000D+00 0.312623315755D-02 0.000000000000D+00  5 -2 21 25 -24 -1 2 0.73539838D-02 0.38604835D-01 0.11947113D+05 0.11947113D+05 0.11947113D+05 0.12592490D+01  1  2 12  4  5  2        1 0.414904250301D-01 0.100000000000D+01
-.152890355837D-04 0.000000000000D+00 -.244641544358D-05 0.312623315755D-02 0.000000000000D+00  5 -2 21 25 -24 -1 2 0.73539838D-02 0.38926872D-01 0.11141799D+05 0.11141799D+05 0.11141799D+05 0.12628186D+01  1  2  5  4  5  2        1 -.128311101060D+00 0.100000000000D+01
0.110710457623D-06 0.000000000000D+00 0.000000000000D+00 0.312623315755D-02 0.512154068647D-05  5 -2 21 25 -24 -1 2 0.75034819D-02 0.38254431D-01 0.11947113D+05 0.11947113D+05 0.11947113D+05 0.12592490D+01  1  2 11  4  5  2        1 0.928693016197D-03 0.100000000000D+01
  </mgrwgt>
  </event>
  <event>
  4     66 0.46019439E-03 0.50044958E+02 0.75467711E-02 0.12357384E+00
       -2 -1    0    0    0  501 0.00000000E+00 0.00000000E+00 0.16143013E+02 0.16146184E+02 0.32000000E+00 0.0000E+00 0.9000E+01
        1 -1    0    0  501    0 0.00000000E+00 0.00000000E+00 -.71611084E+03 0.71611091E+03 0.32000000E+00 0.0000E+00 0.9000E+01
       25  1    1    2    0    0 0.17323836E+02 -.44615996E+01 -.33256914E+03 0.35573481E+03 0.12500000E+03 0.0000E+00 0.9000E+01
      -24  1    1    2    0    0 -.17323836E+02 0.44615996E+01 -.36739868E+03 0.37652228E+03 0.80419002E+02 0.0000E+00 0.9000E+01
#aMCatNLO 1  0  0  2  1 0.37257538D+02 0.00000000D+00  -5  5  0 0.00000000D+00 0.00000000D+00 0.00000000D+00 0.00000000D+00 0.00000000D+00
  <mgrwgt>
 0.2596535942D+00    9    2    0
 0.107523828003385D+03 0.000000000000000D+00 0.000000000000000D+00 0.107523828003385D+03
 0.107523828003385D+03 0.000000000000000D+00 0.000000000000000D+00 -.107523828003385D+03
 0.128816280605940D+03 0.173238362934695D+02 -.446159962689051D+01 0.254678812231148D+02
 0.862313754008297D+02 -.173238362934695D+02 0.446159962689051D+01 -.254678812231148D+02
 0.000000000000000D+00 -.000000000000000D+00 0.000000000000000D+00 -.000000000000000D+00
 0.120869960233787D+03 0.000000000000000D+00 0.000000000000000D+00 0.120869960233787D+03
 0.138674469165097D+03 0.000000000000000D+00 0.000000000000000D+00 -.138674469165097D+03
 0.133307694822139D+03 0.323042330599519D+02 -.213017616925493D+02 0.254678812231148D+02
 0.849435789773062D+02 -.754118009469463D+01 -.653554006093056D+01 -.254678812231148D+02
 0.412931555994396D+02 -.247630529652573D+02 0.278373017534799D+02 -.178045089313098D+02
0.130768851067D-03 0.000000000000D+00 0.000000000000D+00 0.293895454199D-02 0.000000000000D+00  5 -2 1 25 -24 21 0 0.24837899D-02 0.11017115D+00 0.10884570D+05 0.10884570D+05 0.10884570D+05 0.12640203D+01  1  2  2  2  5  2        1 0.164350546244D+00 0.100000000000D+01
-.725690042711D-05 0.000000000000D+00 -.502186820325D-06 0.293895454199D-02 0.000000000000D+00  5 -2 1 25 -24 21 2 0.24837899D-02 0.11017115D+00 0.10884570D+05 0.10884570D+05 0.10884570D+05 0.12640203D+01  1  2  3  2  5  2        1 -.145722340326D-01 0.100000000000D+01
0.896804900111D-05 0.000000000000D+00 0.000000000000D+00 0.293895454199D-02 0.000000000000D+00  5 -2 1 25 -24 21 2 0.24837899D-02 0.11017115D+00 0.10884570D+05 0.10884570D+05 0.10884570D+05 0.12640203D+01  1  2 15  2  5  2        1 0.180083094943D-01 0.100000000000D+01
0.108758451730D-03 0.000000000000D+00 0.000000000000D+00 0.293895454199D-02 0.000000000000D+00  5 -2 1 25 -24 21 2 0.24837899D-02 0.14737478D+00 0.15518388D+05 0.15518388D+05 0.15518388D+05 0.12461439D+01  1  2 12  2  5  2        1 0.137885711674D+00 0.100000000000D+01
-.121141600494D-03 0.000000000000D+00 0.000000000000D+00 0.293895454199D-02 0.000000000000D+00  5 -2 1 25 -24 21 2 0.24837899D-02 0.11017115D+00 0.10884570D+05 0.10884570D+05 0.10884570D+05 0.12640203D+01  1  2  4  2  5  2        1 -.243258643441D+00 0.100000000000D+01
-.214461634102D-03 0.000000000000D+00 -.719793751903D-04 0.293895454199D-02 0.000000000000D+00  5 -2 1 25 -24 21 2 0.24837899D-02 0.15371780D+00 0.10884570D+05 0.10884570D+05 0.10884570D+05 0.12640203D+01  1  2  5  2  5  2        1 -.258309267451D+00 0.100000000000D+01
0.229409085401D-03 0.000000000000D+00 0.681631236147D-04 0.293895454199D-02 0.000000000000D+00  5 -2 1 25 -24 21 2 0.24837899D-02 0.11017115D+00 0.10884570D+05 0.10884570D+05 0.10884570D+05 0.12640203D+01  1  2  6  2  5  2        1 0.460665392237D+00 0.100000000000D+01
0.411189595359D-05 0.000000000000D+00 0.000000000000D+00 0.293895454199D-02 0.000000000000D+00  5 -2 21 25 -24 -1 2 0.24837899D-02 0.14737478D+00 0.15518388D+05 0.15518388D+05 0.15518388D+05 0.12461439D+01  1  2 12  4  5  2        1 0.872205779941D-02 0.100000000000D+01
-.704719082507D-05 0.000000000000D+00 -.300034074728D-05 0.293895454199D-02 0.000000000000D+00  5 -2 21 25 -24 -1 2 0.24837899D-02 0.15371780D+00 0.10884570D+05 0.10884570D+05 0.10884570D+05 0.12640203D+01  1  2  5  4  5  2        1 -.138382783169D-01 0.100000000000D+01
  </mgrwgt>
  </event>
  <event>
  4     66 0.46019439E-03 0.13837569E+03 0.75467711E-02 0.12141670E+00
       -2 -1    0    0    0  501 0.00000000E+00 0.00000000E+00 0.11711059E+02 0.11715430E+02 0.32000000E+00 0.0000E+00 0.9000E+01
        1 -1    0    0  501    0 0.00000000E+00 0.00000000E+00 -.19630839E+04 0.19630840E+04 0.32000000E+00 0.0000E+00 0.9000E+01
       25  1    1    2    0    0 -.22292947E+01 -.91490406E+02 -.67140604E+03 0.68904755E+03 0.12500000E+03 0.0000E+00 0.9000E+01
      -24  1    1    2    0    0 0.22292947E+01 0.91490406E+02 -.12799668E+04 0.12857518E+04 0.80419002E+02 0.0000E+00 0.9000E+01
#aMCatNLO 1  0  0  2  1 0.20238339D+01 0.00000000D+00  -5  5  0 0.00000000D+00 0.00000000D+00 0.00000000D+00 0.00000000D+00 0.00000000D+00
  <mgrwgt>
 0.1925210813D+00    8    2    0
 0.151638167247215D+03 0.000000000000000D+00 0.000000000000000D+00 0.151638167247215D+03
 0.151638167247215D+03 0.000000000000000D+00 0.000000000000000D+00 -.151638167247215D+03
 0.166736252729051D+03 -.222929465614634D+01 -.914904061859415D+02 0.616483073197749D+02
 0.136540081765379D+03 0.222929465614634D+01 0.914904061859415D+02 -.616483073197749D+02
 0.000000000000000D+00 0.000000000000000D+00 0.000000000000000D+00 0.000000000000000D+00
 0.164791720472709D+03 0.000000000000000D+00 0.000000000000000D+00 0.164791720472709D+03
 0.151719411430346D+03 0.000000000000000D+00 0.000000000000000D+00 -.151719411430346D+03
 0.167282795018448D+03 -.276395133364185D+01 -.924682663772611D+02 0.616483073197749D+02
 0.136000292159090D+03 0.179304549075147D+01 0.906925283882969D+02 -.616483073197749D+02
 0.132280447255158D+02 0.970905842890377D+00 0.177573798896415D+01 0.130723090423627D+02
0.666172343711D-03 0.000000000000D+00 0.000000000000D+00 0.203371882182D-02 0.000000000000D+00  5 -2 1 25 -24 21 0 0.18020396D-02 0.30201325D+00 0.19147830D+05 0.19147830D+05 0.19147830D+05 0.12359134D+01  1  2  2  2  5  2        1 0.187587744306D+00 0.100000000000D+01
-.366326333277D-04 0.000000000000D+00 -.255827720706D-05 0.203371882182D-02 0.000000000000D+00  5 -2 1 25 -24 21 2 0.18020396D-02 0.30201325D+00 0.19147830D+05 0.19147830D+05 0.19147830D+05 0.12359134D+01  1  2  3  2  5  2        1 -.157565836265D-01 0.100000000000D+01
0.458657193503D-04 0.000000000000D+00 0.000000000000D+00 0.203371882182D-02 0.000000000000D+00  5 -2 1 25 -24 21 2 0.18020396D-02 0.30201325D+00 0.19147830D+05 0.19147830D+05 0.19147830D+05 0.12359134D+01  1  2 15  2  5  2        1 0.197279577492D-01 0.100000000000D+01
-.558389474339D-04 0.000000000000D+00 0.000000000000D+00 0.203371882182D-02 0.000000000000D+00  5 -2 1 25 -24 21 2 0.18020396D-02 0.30201325D+00 0.19147830D+05 0.19147830D+05 0.19147830D+05 0.12359134D+01  1  2  4  2  5  2        1 -.240176849146D-01 0.100000000000D+01
0.511961944178D-07 0.000000000000D+00 0.000000000000D+00 0.203371882182D-02 0.000000000000D+00  5 -2 1 25 -24 21 2 0.18020396D-02 0.31996079D+00 0.19147830D+05 0.19147830D+05 0.19147830D+05 0.12359134D+01  1  2  5  2  5  2        1 0.185605227928D-04 0.100000000000D+01
-.511110077957D-07 0.000000000000D+00 0.000000000000D+00 0.203371882182D-02 0.000000000000D+00  5 -2 1 25 -24 21 2 0.18020396D-02 0.30201325D+00 0.19147830D+05 0.19147830D+05 0.19147830D+05 0.12359134D+01  1  2  6  2  5  2        1 -.219840834636D-04 0.100000000000D+01
0.559761043709D-04 0.000000000000D+00 0.000000000000D+00 0.203371882182D-02 0.405545023986D-02  5 -2 1 25 -24 21 2 0.19583540D-02 0.30217506D+00 0.19426507D+05 0.19426507D+05 0.19426507D+05 0.12352195D+01  1  2 11  2  5  2        1 0.212848694344D-01 0.100000000000D+01
0.114211146824D-04 0.000000000000D+00 0.000000000000D+00 0.203371882182D-02 0.426581599714D-06  5 -2 21 25 -24 -1 2 0.19583540D-02 0.30217506D+00 0.19426507D+05 0.19426507D+05 0.19426507D+05 0.12352195D+01  1  2 11  4  5  2        1 0.369820195179D-02 0.100000000000D+01
  </mgrwgt>
  </event>
  <event>
  4     66 0.46019439E-03 0.10384225E+03 0.75467711E-02 0.10476193E+00
       -2 -1    0    0    0  501 0.00000000E+00 0.00000000E+00 0.10451412E+02 0.10456310E+02 0.32000000E+00 0.0000E+00 0.9000E+01
        1 -1    0    0  501    0 0.00000000E+00 0.00000000E+00 -.11056996E+04 0.11056997E+04 0.32000000E+00 0.0000E+00 0.9000E+01
       25  1    1    2    0    0 0.13648579E+02 -.60751317E+01 -.79758755E+03 0.80746151E+03 0.12500000E+03 0.0000E+00 0.9000E+01
      -24  1    1    2    0    0 -.13648579E+02 0.60751317E+01 -.29766068E+03 0.30869449E+03 0.80419002E+02 0.0000E+00 0.9000E+01
#aMCatNLO 1  0  0  1  1 0.36135447D+03 0.00000000D+00  -5  5  0 0.00000000D+00 0.00000000D+00 0.00000000D+00 0.00000000D+00 0.00000000D+00
  <mgrwgt>
 0.3139673289D+00    5    2    0
 0.107512242114486D+03 0.000000000000000D+00 0.000000000000000D+00 0.107512242114486D+03
 0.107512242114486D+03 0.000000000000000D+00 0.000000000000000D+00 -.107512242114486D+03
 0.128806989264949D+03 0.136485789580476D+02 -.607513173644062D+01 -.272589352380398D+02
 0.862174949640231D+02 -.136485789580476D+02 0.607513173644062D+01 0.272589352380398D+02
 0.000000000000000D+00 -.000000000000000D+00 -.000000000000000D+00 0.000000000000000D+00
 0.439985921544476D+03 0.000000000000000D+00 0.000000000000000D+00 0.439985921544476D+03
 0.352337347974606D+03 0.000000000000000D+00 0.000000000000000D+00 -.352337347974606D+03
 0.242727423516290D+03 0.232091194388998D+02 0.204963141446006D+03 -.272589352380398D+02
 0.177763457809809D+03 -.685566691989898D+01 0.156021092352608D+03 0.272589352380398D+02
 0.371832388192983D+03 -.163534525190009D+02 -.360984233798615D+03 0.876485735698708D+02
0.204376472855D-03 0.000000000000D+00 0.000000000000D+00 0.291831737845D-02 0.000000000000D+00  5 -2 1 25 -24 21 0 0.16082899D-02 0.17010802D+00 0.10783213D+05 0.10783213D+05 0.10783213D+05 0.12645027D+01  1  2  2  1  5  1       -2 0.242197897899D+00 0.100000000000D+01
-.113375954410D-04 0.000000000000D+00 -.784859469325D-06 0.291831737845D-02 0.000000000000D+00  5 -2 1 25 -24 21 2 0.16082899D-02 0.17010802D+00 0.10783213D+05 0.10783213D+05 0.10783213D+05 0.12645027D+01  1  2  3  1  5  1       -2 -.214832481382D-01 0.100000000000D+01
0.139979135674D-04 0.000000000000D+00 0.000000000000D+00 0.291831737845D-02 0.000000000000D+00  5 -2 1 25 -24 21 2 0.16082899D-02 0.17010802D+00 0.10783213D+05 0.10783213D+05 0.10783213D+05 0.12645027D+01  1  2 15  1  5  1       -2 0.265242001401D-01 0.100000000000D+01
0.744233298297D-03 0.000000000000D+00 -.225522868839D-03 0.291831737845D-02 0.000000000000D+00  5 -2 1 25 -24 21 2 0.29413786D-01 0.17010802D+00 0.10783213D+05 0.10783213D+05 0.10783213D+05 0.12645027D+01  1  2  5  1  5  1       -2 0.157216005791D-01 0.100000000000D+01
0.180412438001D-03 0.000000000000D+00 -.714685662393D-04 0.291831737845D-02 0.000000000000D+00  5 21 1 25 -24 2 2 0.29413786D-01 0.17010802D+00 0.10783213D+05 0.10783213D+05 0.10783213D+05 0.12645027D+01  1  2  5  3  5  1       -2 0.510068783900D-01 0.100000000000D+01
  </mgrwgt>
  </event>
  <event>
  4     66 0.46019439E-03 0.75067447E+02 0.75467711E-02 0.12097773E+00
       -2 -1    0    0    0  501 0.00000000E+00 0.00000000E+00 0.27372385E+02 0.27374255E+02 0.32000000E+00 0.0000E+00 0.9000E+01
        1 -1    0    0  501    0 0.00000000E+00 0.00000000E+00 -.80388237E+03 0.80388243E+03 0.32000000E+00 0.0000E+00 0.9000E+01
       25  1    1    2    0    0 0.57543267E+02 0.46936012E+02 -.21743332E+03 0.26156542E+03 0.12500000E+03 0.0000E+00 0.9000E+01
      -24  1    1    2    0    0 -.57543267E+02 -.46936012E+02 -.55907666E+03 0.56969127E+03 0.80419002E+02 0.0000E+00 0.9000E+01
#aMCatNLO 1  0  0  1  2 0.28866459D+02 0.00000000D+00  -5  5  0 0.00000000D+00 0.00000000D+00 0.00000000D+00 0.00000000D+00 0.00000000D+00
  <mgrwgt>
 0.1911650931D+00    9    2    0
 0.148340761421825D+03 0.000000000000000D+00 0.000000000000000D+00 0.148340761421825D+03
 0.148340761421825D+03 0.000000000000000D+00 0.000000000000000D+00 -.148340761421825D+03
 0.163774456041317D+03 0.575432673487458D+02 0.469360118591820D+02 0.753847174513160D+02
 0.132907066802333D+03 -.575432673487458D+02 -.469360118591820D+02 -.753847174513160D+02
 0.000000000000000D+00 -.000000000000000D+00 0.000000000000000D+00 0.000000000000000D+00
 0.168969727008974D+03 0.000000000000000D+00 0.000000000000000D+00 0.168969727008974D+03
 0.159494566205213D+03 0.000000000000000D+00 0.000000000000000D+00 -.159494566205213D+03
 0.164617736550874D+03 0.677363615855460D+02 0.346832651443074D+02 0.753847174513160D+02
 0.133464799795892D+03 -.492752463679916D+02 -.568746982439995D+02 -.753847174513160D+02
 0.303817568674205D+02 -.184611152175543D+02 0.221914330996921D+02 0.947516080376089D+01
0.337431214138D-03 0.000000000000D+00 0.000000000000D+00 0.185237125800D-02 0.000000000000D+00  5 -2 1 25 -24 21 0 0.42112849D-02 0.12367436D+00 0.16237519D+05 0.16237519D+05 0.16237519D+05 0.12439167D+01  1  2  2  1  5  1       -2 0.167018436064D+00 0.100000000000D+01
-.182197708299D-04 0.000000000000D+00 -.129582470997D-05 0.185237125800D-02 0.000000000000D+00  5 -2 1 25 -24 21 2 0.42112849D-02 0.12367436D+00 0.16237519D+05 0.16237519D+05 0.16237519D+05 0.12439167D+01  1  2  3  1  5  1       -2 -.139541901372D-01 0.100000000000D+01
0.232397055864D-04 0.000000000000D+00 0.000000000000D+00 0.185237125800D-02 0.000000000000D+00  5 -2 1 25 -24 21 2 0.42112849D-02 0.12367436D+00 0.16237519D+05 0.16237519D+05 0.16237519D+05 0.12439167D+01  1  2 15  1  5  1       -2 0.177988666001D-01 0.100000000000D+01
0.334669127498D-03 0.000000000000D+00 0.000000000000D+00 0.185237125800D-02 0.000000000000D+00  5 -2 1 25 -24 21 2 0.49378016D-02 0.12367436D+00 0.20355482D+05 0.20355482D+05 0.20355482D+05 0.12329846D+01  1  2 12  1  5  1       -2 0.199469271578D+00 0.100000000000D+01
-.319805934790D-03 0.000000000000D+00 0.000000000000D+00 0.185237125800D-02 0.000000000000D+00  5 -2 1 25 -24 21 2 0.42112849D-02 0.12367436D+00 0.16237519D+05 0.16237519D+05 0.16237519D+05 0.12439167D+01  1  2  4  1  5  1       -2 -.244933531970D+00 0.100000000000D+01
-.755021043720D-03 0.000000000000D+00 -.212021991328D-03 0.185237125800D-02 0.000000000000D+00  5 -2 1 25 -24 21 2 0.51627329D-02 0.12367436D+00 0.16237519D+05 0.16237519D+05 0.16237519D+05 0.12439167D+01  1  2  5  1  5  1       -2 -.426526135826D+00 0.100000000000D+01
0.786166803803D-03 0.000000000000D+00 0.207698065229D-03 0.185237125800D-02 0.000000000000D+00  5 -2 1 25 -24 21 2 0.42112849D-02 0.12367436D+00 0.16237519D+05 0.16237519D+05 0.16237519D+05 0.12439167D+01  1  2  6  1  5  1       -2 0.602110814797D+00 0.100000000000D+01
0.800699498838D-05 0.000000000000D+00 0.000000000000D+00 0.185237125800D-02 0.000000000000D+00  5 21 1 25 -24 2 2 0.49378016D-02 0.12367436D+00 0.20355482D+05 0.20355482D+05 0.20355482D+05 0.12329846D+01  1  2 12  3  5  1       -2 0.854639441306D-01 0.100000000000D+01
-.193917295372D-04 0.000000000000D+00 -.615311157264D-05 0.185237125800D-02 0.000000000000D+00  5 21 1 25 -24 2 2 0.51627329D-02 0.12367436D+00 0.16237519D+05 0.16237519D+05 0.16237519D+05 0.12439167D+01  1  2  5  3  5  1       -2 -.195282382095D+00 0.100000000000D+01
  </mgrwgt>
  </event>
  <event>
  5     66 0.46019439E-03 0.11381544E+03 0.75467711E-02 0.12450350E+00
       -2 -1    0    0    0  502 0.00000000E+00 0.00000000E+00 0.13269181E+03 0.13269219E+03 0.32000000E+00 0.0000E+00 0.9000E+01
        1 -1    0    0  501    0 0.00000000E+00 0.00000000E+00 -.11412004E+03 0.11412049E+03 0.32000000E+00 0.0000E+00 0.9000E+01
       25  1    1    2    0    0 -.40385941E+02 0.16405121E+02 0.40868628E+02 0.13854745E+03 0.12500000E+03 0.0000E+00 0.9000E+01
      -24  1    1    2    0    0 0.49711222E+02 -.13415649E+02 -.16634259E+02 0.96928323E+02 0.80419002E+02 0.0000E+00 0.9000E+01
       21  1    1    2  501  502 -.93252812E+01 -.29894721E+01 -.56626064E+01 0.11336905E+02 0.75000000E+00 0.0000E+00 0.9000E+01
#aMCatNLO 2  0  0  1  2 0.97927429D+01 0.00000000D+00  -5  5  0 0.00000000D+00 0.00000000D+00 0.00000000D+00 0.00000000D+00 0.00000000D+00
  <mgrwgt>
 0.8432568881D-01    2    2    0
 0.117010297380986D+03 0.000000000000000D+00 0.000000000000000D+00 0.117010297380986D+03
 0.117010297380986D+03 0.000000000000000D+00 0.000000000000000D+00 -.117010297380986D+03
 0.136576489952508D+03 -.457956466606918D+02 0.146708927130044D+02 0.267518459490179D+02
 0.974441048094647D+02 0.457956466606918D+02 -.146708927130044D+02 -.267518459490179D+02
 0.000000000000000D+00 -.000000000000000D+00 -.000000000000000D+00 -.000000000000000D+00
 0.119659840358017D+03 0.000000000000000D+00 0.000000000000000D+00 0.119659840358017D+03
 0.126524994458512D+03 0.000000000000000D+00 0.000000000000000D+00 -.126524994458512D+03
 0.135058555637548D+03 -.403859405954539D+02 0.164051208907810D+02 0.267518459490179D+02
 0.991668413319941D+02 0.497112217865861D+02 -.134156487804066D+02 -.267518459490179D+02
 0.119594378469869D+02 -.932528119113222D+01 -.298947211037440D+01 -.686515410049554D+01
-.215687215459D-06 0.000000000000D+00 0.000000000000D+00 0.271568902076D-02 0.000000000000D+00  5 -2 1 25 -24 21 2 0.19960235D-01 0.16235131D-01 0.12953954D+05 0.12953954D+05 0.12953954D+05 0.12551492D+01  1  2  8  1  5  1       -2 -.197657760572D-03 0.100000000000D+01
0.106256738243D-03 0.000000000000D+00 0.000000000000D+00 0.271568902076D-02 0.237134615937D-03  5 -2 1 25 -24 21 2 0.20412208D-01 0.17555291D-01 0.14121242D+05 0.14121242D+05 0.14121242D+05 0.12508226D+01  1  2  1  1  5  1       -2 0.845233465678D-01 0.100000000000D+01
  </mgrwgt>
  </event>
  <event>
  5     66 0.46019439E-03 0.11034555E+03 0.75467711E-02 0.12333116E+00
       21 -1    0    0  502  501 0.00000000E+00 0.00000000E+00 0.16242345E+02 0.16259652E+02 0.75000000E+00 0.0000E+00 0.9000E+01
        1 -1    0    0  501    0 0.00000000E+00 0.00000000E+00 -.10539369E+04 0.10539370E+04 0.32000000E+00 0.0000E+00 0.9000E+01
       25  1    1    2    0    0 -.50176235E+02 0.58486208E+01 -.69194322E+03 0.70495552E+03 0.12500000E+03 0.0000E+00 0.9000E+01
      -24  1    1    2    0    0 0.30977127E+02 0.16746402E+02 -.26886963E+03 0.28283938E+03 0.80419002E+02 0.0000E+00 0.9000E+01
        2  1    1    2  502    0 0.19199108E+02 -.22595023E+02 -.76881712E+02 0.82401704E+02 0.32000000E+00 0.0000E+00 0.9000E+01
#aMCatNLO 2  0  0  1  2 0.29650308D+02 0.00000000D+00  -5  5  0 0.00000000D+00 0.00000000D+00 0.00000000D+00 0.00000000D+00 0.00000000D+00
  <mgrwgt>
 0.2081365538D-01    2    2    0
 0.113686297215209D+03 0.000000000000000D+00 0.000000000000000D+00 0.113686297215209D+03
 0.113686297215209D+03 0.000000000000000D+00 0.000000000000000D+00 -.113686297215209D+03
 0.133824573045175D+03 -.387702403603646D+02 -.757485226136195D+01 -.268980747701652D+02
 0.935480213852428D+02 0.387702403603646D+02 0.757485226136195D+01 0.268980747701652D+02
 0.000000000000000D+00 0.000000000000000D+00 -.000000000000000D+00 0.000000000000000D+00
 0.138102889131203D+03 0.000000000000000D+00 0.000000000000000D+00 0.138102889131203D+03
 0.124019742413173D+03 0.000000000000000D+00 0.000000000000000D+00 -.124019742413173D+03
 0.137478606889600D+03 -.501762350135984D+02 0.584862084803326D+01 -.268980747701652D+02
 0.918190980358433D+02 0.309771272331592D+02 0.167464017563336D+02 0.268980747701652D+02
 0.328249266189327D+02 0.191991077804391D+02 -.225950226043669D+02 0.140831467180295D+02
-.402006019951D-05 0.000000000000D+00 0.000000000000D+00 0.277890732920D-02 0.000000000000D+00  5 21 1 25 -24 2 2 0.25782322D-02 0.14863445D+00 0.15909128D+05 0.15909128D+05 0.15909128D+05 0.12449197D+01  1  2 13  3  5  1       -2 -.957380982117D-01 0.100000000000D+01
0.539213736163D-05 0.000000000000D+00 0.000000000000D+00 0.277890732920D-02 0.833222933403D-06  5 21 1 25 -24 2 2 0.25001421D-02 0.16214449D+00 0.15909128D+05 0.15909128D+05 0.15909128D+05 0.12449197D+01  1  2  1  3  5  1       -2 0.116551753594D+00 0.100000000000D+01
  </mgrwgt>
  </event>
  <event>
  5     66 0.46019439E-03 0.15449042E+03 0.75467711E-02 0.11458759E+00
       21 -1    0    0  502  501 0.00000000E+00 0.00000000E+00 0.93010861E+02 0.93013885E+02 0.75000000E+00 0.0000E+00 0.9000E+01
        1 -1    0    0  501    0 0.00000000E+00 0.00000000E+00 -.63691554E+03 0.63691562E+03 0.32000000E+00 0.0000E+00 0.9000E+01
       25  1    1    2    0    0 -.12277832E+03 -.70652151E+02 -.34123281E+03 0.39003983E+03 0.12500000E+03 0.0000E+00 0.9000E+01
      -24  1    1    2    0    0 0.10398471E+03 -.15346095E+02 -.21350521E+03 0.25119716E+03 0.80419002E+02 0.0000E+00 0.9000E+01
        2  1    1    2  502    0 0.18793610E+02 0.85998245E+02 0.10833339E+02 0.88692512E+02 0.32000000E+00 0.0000E+00 0.9000E+01
#aMCatNLO 2  0  0  1  2 0.88027825D+02 0.00000000D+00  -5  5  0 0.00000000D+00 0.00000000D+00 0.00000000D+00 0.00000000D+00 0.00000000D+00
  <mgrwgt>
 0.8225661209D-01    2    2    0
 0.154678469511183D+03 0.000000000000000D+00 0.000000000000000D+00 0.154678469511183D+03
 0.154678469511183D+03 0.000000000000000D+00 0.000000000000000D+00 -.154678469511183D+03
 0.169479792660051D+03 -.112099122459819D+03 -.217848851699965D+02 -.758983807221103D+01
 0.139877146362314D+03 0.112099122459819D+03 0.217848851699965D+02 0.758983807221103D+01
 0.000000000000000D+00 0.000000000000000D+00 0.000000000000000D+00 0.000000000000000D+00
 0.345856677743402D+03 0.000000000000000D+00 0.000000000000000D+00 0.345856677743402D+03
 0.171288031768943D+03 0.000000000000000D+00 0.000000000000000D+00 -.171288031768943D+03
 0.189073657808212D+03 -.122778320751007D+03 -.706521506295275D+02 -.758983807221103D+01
 0.132563736930134D+03 0.103984711033833D+03 -.153460947396770D+02 0.758983807221103D+01
 0.195507314773999D+03 0.187936097171741D+02 0.859982453692045D+02 0.174568645974460D+03
-.218536889996D-04 0.000000000000D+00 0.000000000000D+00 0.236849808366D-02 0.000000000000D+00  5 21 1 25 -24 2 2 0.14231569D-01 0.88485494D-01 0.41880675D+05 0.41880675D+05 0.41880675D+05 0.11999792D+01  1  2 13  3  5  1       -2 -.560617379311D-01 0.100000000000D+01
0.627208052203D-04 0.000000000000D+00 0.000000000000D+00 0.236849808366D-02 0.324140132984D-06  5 21 1 25 -24 2 2 0.14309592D-01 0.97987173D-01 0.41880675D+05 0.41880675D+05 0.41880675D+05 0.11999792D+01  1  2  1  3  5  1       -2 0.138318350024D+00 0.100000000000D+01
  </mgrwgt>
  </event>
  <event>
  4     66 0.46019439E-03 0.50156822E+02 0.75467711E-02 0.11708051E+00
       -2 -1    0    0    0  501 0.00000000E+00 0.00000000E+00 0.66403107E+01 0.66480167E+01 0.32000000E+00 0.0000E+00 0.9000E+01
        1 -1    0    0  501    0 0.00000000E+00 0.00000000E+00 -.44382829E+04 0.44382829E+04 0.32000000E+00 0.0000E+00 0.9000E+01
       25  1    1    2    0    0 -.10355383E+03 -.80067424E+02 -.18889193E+04 0.18975709E+04 0.12500000E+03 0.0000E+00 0.9000E+01
      -24  1    1    2    0    0 0.10355383E+03 0.80067424E+02 -.25427233E+04 0.25473601E+04 0.80419002E+02 0.0000E+00 0.9000E+01
#aMCatNLO 1  0  0  2  1 0.18686168D+02 0.00000000D+00  -5  5  0 0.00000000D+00 0.00000000D+00 0.00000000D+00 0.00000000D+00 0.00000000D+00
  <mgrwgt>
 0.1771128877D+00    9    2    0
 0.171722828165503D+03 0.000000000000000D+00 0.000000000000000D+00 0.171722828165503D+03
 0.171722828165503D+03 0.000000000000000D+00 0.000000000000000D+00 -.171722828165503D+03
 0.185055045179777D+03 -.103553826322452D+03 -.800674237454695D+02 0.385510370188971D+02
 0.158390611151229D+03 0.103553826322452D+03 0.800674237454695D+02 -.385510370188971D+02
 0.000000000000000D+00 -.000000000000000D+00 0.000000000000000D+00 -.000000000000000D+00
 0.176461407967512D+03 0.000000000000000D+00 0.000000000000000D+00 0.176461407967512D+03
 0.191441922390217D+03 0.000000000000000D+00 0.000000000000000D+00 -.191441922390217D+03
 0.180217700435453D+03 -.936867203386485D+02 -.811790337907398D+02 0.385510370188971D+02
 0.163735918144856D+03 0.112255424355466D+03 0.790871176861973D+02 -.385510370188971D+02
 0.239497117774200D+02 -.185687040168170D+02 0.209191610454252D+01 -.149805144227056D+02
0.609269086666D-02 0.000000000000D+00 0.000000000000D+00 0.216488931730D-02 0.000000000000D+00  5 -2 1 25 -24 21 0 0.10221799D-02 0.68281335D+00 0.27993050D+05 0.27993050D+05 0.27993050D+05 0.12180672D+01  1  2  2  2  5  2        1 0.585636866652D-01 0.100000000000D+01
-.338204065610D-03 0.000000000000D+00 -.233975371703D-04 0.216488931730D-02 0.000000000000D+00  5 -2 1 25 -24 21 2 0.10221799D-02 0.68281335D+00 0.27993050D+05 0.27993050D+05 0.27993050D+05 0.12180672D+01  1  2  3  2  5  2        1 -.482325892372D-02 0.100000000000D+01
0.419684082826D-03 0.000000000000D+00 0.000000000000D+00 0.216488931730D-02 0.000000000000D+00  5 -2 1 25 -24 21 2 0.10221799D-02 0.68281335D+00 0.27993050D+05 0.27993050D+05 0.27993050D+05 0.12180672D+01  1  2 15  2  5  2        1 0.598527694806D-02 0.100000000000D+01
0.835061060648D-02 0.000000000000D+00 0.000000000000D+00 0.216488931730D-02 0.000000000000D+00  5 -2 1 25 -24 21 2 0.10221799D-02 0.76991034D+00 0.31305137D+05 0.31305137D+05 0.31305137D+05 0.12129621D+01  1  2 12  2  5  2        1 0.292409608529D-01 0.100000000000D+01
-.917905884214D-02 0.000000000000D+00 0.000000000000D+00 0.216488931730D-02 0.000000000000D+00  5 -2 1 25 -24 21 2 0.10221799D-02 0.68281335D+00 0.27993050D+05 0.27993050D+05 0.27993050D+05 0.12180672D+01  1  2  4  2  5  2        1 -.130906106619D+00 0.100000000000D+01
-.186715976928D-01 0.000000000000D+00 -.304718939806D-02 0.216488931730D-02 0.000000000000D+00  5 -2 1 25 -24 21 2 0.10221799D-02 0.76369067D+00 0.27993050D+05 0.27993050D+05 0.27993050D+05 0.12180672D+01  1  2  5  2  5  2        1 -.742237514883D-01 0.100000000000D+01
0.205680647405D-01 0.000000000000D+00 0.348834954795D-02 0.216488931730D-02 0.000000000000D+00  5 -2 1 25 -24 21 2 0.10221799D-02 0.68281335D+00 0.27993050D+05 0.27993050D+05 0.27993050D+05 0.12180672D+01  1  2  6  2  5  2        1 0.293329122536D+00 0.100000000000D+01
0.158500821557D-03 0.000000000000D+00 0.000000000000D+00 0.216488931730D-02 0.000000000000D+00  5 -2 21 25 -24 -1 2 0.10221799D-02 0.76991034D+00 0.31305137D+05 0.31305137D+05 0.31305137D+05 0.12129621D+01  1  2 12  4  5  2        1 0.369686272555D-04 0.100000000000D+01
-.321654065983D-03 0.000000000000D+00 -.545167334858D-04 0.216488931730D-02 0.000000000000D+00  5 -2 21 25 -24 -1 2 0.10221799D-02 0.76369067D+00 0.27993050D+05 0.27993050D+05 0.27993050D+05 0.12180672D+01  1  2  5  4  5  2        1 -.900109037634D-04 0.100000000000D+01
  </mgrwgt>
  </event>
  <event>
  4     66 0.46019439E-03 0.40864269E+02 0.75467711E-02 0.12213636E+00
       -2 -1    0    0    0  501 0.00000000E+00 0.00000000E+00 0.35001672E+02 0.35003135E+02 0.32000000E+00 0.0000E+00 0.9000E+01
        1 -1    0    0  501    0 0.00000000E+00 0.00000000E+00 -.33167314E+03 0.33167329E+03 0.32000000E+00 0.0000E+00 0.9000E+01
       25  1    1    2    0    0 0.90055363E+00 0.31321439E+02 -.18735606E+03 0.22739643E+03 0.12500000E+03 0.0000E+00 0.9000E+01
      -24  1    1    2    0    0 -.90055363E+00 -.31321439E+02 -.10931541E+03 0.13928000E+03 0.80419002E+02 0.0000E+00 0.9000E+01
#aMCatNLO 1  0  0  1  2 0.47931355D+02 0.00000000D+00  -5  5  0 0.00000000D+00 0.00000000D+00 0.00000000D+00 0.00000000D+00 0.00000000D+00
  <mgrwgt>
 0.1681383184D+00    9    2    0
 0.107746976384097D+03 0.000000000000000D+00 0.000000000000000D+00 0.107746976384097D+03
 0.107746976384097D+03 0.000000000000000D+00 0.000000000000000D+00 -.107746976384097D+03
 0.128995331449263D+03 0.900553630297418D+00 0.313214392072798D+02 -.574038194276521D+01
 0.864986213189304D+02 -.900553630297418D+00 -.313214392072798D+02 0.574038194276521D+01
 0.000000000000000D+00 0.000000000000000D+00 0.000000000000000D+00 0.000000000000000D+00
 0.187473474347151D+03 0.000000000000000D+00 0.000000000000000D+00 0.187473474347151D+03
 0.117830195192204D+03 0.000000000000000D+00 0.000000000000000D+00 -.117830195192204D+03
 0.127171509475681D+03 -.193748074117978D+02 0.118007489266679D+02 -.574038194276521D+01
 0.935886736328056D+02 -.151542911985823D+02 -.450446373211842D+02 0.574038194276521D+01
 0.845434864308673D+02 0.345290986103801D+02 0.332438883945162D+02 0.696432791549468D+02
0.151525177101D-03 0.000000000000D+00 0.000000000000D+00 0.306880481957D-02 0.000000000000D+00  5 -2 1 25 -24 21 0 0.53849970D-02 0.51026761D-01 0.11575121D+05 0.11575121D+05 0.11575121D+05 0.12608631D+01  1  2  2  1  5  1       -2 0.166274706495D+00 0.100000000000D+01
-.841804300628D-05 0.000000000000D+00 -.581896577561D-06 0.306880481957D-02 0.000000000000D+00  5 -2 1 25 -24 21 2 0.53849970D-02 0.51026761D-01 0.11575121D+05 0.11575121D+05 0.11575121D+05 0.12608631D+01  1  2  3  1  5  1       -2 -.146854882114D-01 0.100000000000D+01
0.104646981474D-04 0.000000000000D+00 0.000000000000D+00 0.306880481957D-02 0.000000000000D+00  5 -2 1 25 -24 21 2 0.53849970D-02 0.51026761D-01 0.11575121D+05 0.11575121D+05 0.11575121D+05 0.12608631D+01  1  2 15  1  5  1       -2 0.182559296935D-01 0.100000000000D+01
0.117834440744D-03 0.000000000000D+00 0.000000000000D+00 0.306880481957D-02 0.000000000000D+00  5 -2 1 25 -24 21 2 0.94592723D-02 0.51026761D-01 0.18007721D+05 0.18007721D+05 0.18007721D+05 0.12388748D+01  1  2 12  1  5  1       -2 0.852034405231D-01 0.100000000000D+01
-.148473553379D-03 0.000000000000D+00 0.000000000000D+00 0.306880481957D-02 0.000000000000D+00  5 -2 1 25 -24 21 2 0.53849970D-02 0.51026761D-01 0.11575121D+05 0.11575121D+05 0.11575121D+05 0.12608631D+01  1  2  4  1  5  1       -2 -.259015856325D+00 0.100000000000D+01
-.164893365947D-03 0.000000000000D+00 -.440430866192D-04 0.306880481957D-02 0.000000000000D+00  5 -2 1 25 -24 21 2 0.10200498D-01 0.51026761D-01 0.11575121D+05 0.11575121D+05 0.11575121D+05 0.12608631D+01  1  2  5  1  5  1       -2 -.108344093645D+00 0.100000000000D+01
0.165724250466D-03 0.000000000000D+00 0.363667992764D-04 0.306880481957D-02 0.000000000000D+00  5 -2 1 25 -24 21 2 0.53849970D-02 0.51026761D-01 0.11575121D+05 0.11575121D+05 0.11575121D+05 0.12608631D+01  1  2  6  1  5  1       -2 0.289110132217D+00 0.100000000000D+01
0.732505069568D-05 0.000000000000D+00 0.000000000000D+00 0.306880481957D-02 0.000000000000D+00  5 21 1 25 -24 2 2 0.94592723D-02 0.51026761D-01 0.18007721D+05 0.18007721D+05 0.18007721D+05 0.12388748D+01  1  2 12  3  5  1       -2 0.844516037393D-01 0.100000000000D+01
-.894381970396D-05 0.000000000000D+00 -.305832742596D-05 0.306880481957D-02 0.000000000000D+00  5 21 1 25 -24 2 2 0.10200498D-01 0.51026761D-01 0.11575121D+05 0.11575121D+05 0.11575121D+05 0.12608631D+01  1  2  5  3  5  1       -2 -.931120561345D-01 0.100000000000D+01
  </mgrwgt>
  </event>
  <event>
  4     66 0.46019439E-03 0.10408278E+03 0.75467711E-02 0.12509674E+00
       -2 -1    0    0    0  501 0.00000000E+00 0.00000000E+00 0.11705139E+03 0.11705182E+03 0.32000000E+00 0.0000E+00 0.9000E+01
        1 -1    0    0  501    0 0.00000000E+00 0.00000000E+00 -.93215512E+02 0.93216062E+02 0.32000000E+00 0.0000E+00 0.9000E+01
       25  1    1    2    0    0 0.14250117E+02 0.82397494E+01 0.23101841E+02 0.12817821E+03 0.12500000E+03 0.0000E+00 0.9000E+01
      -24  1    1    2    0    0 -.14250117E+02 -.82397494E+01 0.73403120E+00 0.82089671E+02 0.80419002E+02 0.0000E+00 0.9000E+01
#aMCatNLO 1  0  0  1  2 0.21437118D+02 0.00000000D+00  -5  5  0 0.00000000D+00 0.00000000D+00 0.00000000D+00 0.00000000D+00 0.00000000D+00
  <mgrwgt>
 0.1587754486D+00    4    2    0
 0.104456251922103D+03 0.000000000000000D+00 0.000000000000000D+00 0.104456251922103D+03
 0.104456251922103D+03 0.000000000000000D+00 0.000000000000000D+00 -.104456251922103D+03
 0.126374001882294D+03 0.142501165870792D+02 0.823974941416953D+01 0.862722774663474D+01
 0.825385019619116D+02 -.142501165870792D+02 -.823974941416953D+01 -.862722774663474D+01
 0.000000000000000D+00 -.000000000000000D+00 0.000000000000000D+00 -.000000000000000D+00
 0.109377050132720D+03 0.000000000000000D+00 0.000000000000000D+00 0.109377050132720D+03
 0.131280917884989D+03 0.000000000000000D+00 0.000000000000000D+00 -.131280917884989D+03
 0.126728568917227D+03 0.185726865335842D+02 -.396943776136396D+01 0.862722774663474D+01
 0.832809172488837D+02 -.114181973546378D+02 -.162385631760671D+02 -.862722774663474D+01
 0.306484818515981D+02 -.715448917894634D+01 0.202080009374310D+02 -.219038677522684D+02
0.247388107265D-03 0.000000000000D+00 0.000000000000D+00 0.316358038998D-02 0.000000000000D+00  5 -2 1 25 -24 21 0 0.18007981D-01 0.14340924D-01 0.10833226D+05 0.10833226D+05 0.10833226D+05 0.12642641D+01  1  2  2  1  5  1       -2 0.198973351487D+00 0.100000000000D+01
-.137435693585D-04 0.000000000000D+00 -.950035470683D-06 0.316358038998D-02 0.000000000000D+00  5 -2 1 25 -24 21 2 0.18007981D-01 0.14340924D-01 0.10833226D+05 0.10833226D+05 0.10833226D+05 0.12642641D+01  1  2  3  1  5  1       -2 -.176681556561D-01 0.100000000000D+01
0.170918448778D-04 0.000000000000D+00 0.000000000000D+00 0.316358038998D-02 0.000000000000D+00  5 -2 1 25 -24 21 2 0.18007981D-01 0.14340924D-01 0.10833226D+05 0.10833226D+05 0.10833226D+05 0.12642641D+01  1  2 15  1  5  1       -2 0.219725580651D-01 0.100000000000D+01
-.346171117876D-04 0.000000000000D+00 0.000000000000D+00 0.316358038998D-02 0.000000000000D+00  5 -2 1 25 -24 21 2 0.18007981D-01 0.14340924D-01 0.10833226D+05 0.10833226D+05 0.10833226D+05 0.12642641D+01  1  2  4  1  5  1       -2 -.445023052945D-01 0.100000000000D+01
  </mgrwgt>
  </event>
  <event>
  4     66 0.46019439E-03 0.15081332E+03 0.75467711E-02 0.11684307E+00
       -4 -1    0    0    0  501 0.00000000E+00 0.00000000E+00 0.20262739E+02 0.20321936E+02 0.15500000E+01 0.0000E+00 0.9000E+01
        3 -1    0    0  501    0 0.00000000E+00 0.00000000E+00 -.11466857E+04 0.11466858E+04 0.50000000E+00 0.0000E+00 0.9000E+01
       25  1    1    2    0    0 -.15466864E+02 0.10811928E+03 -.70582990E+03 0.72508610E+03 0.12500000E+03 0.0000E+00 0.9000E+01
      -24  1    1    2    0    0 0.15466864E+02 -.10811928E+03 -.42059305E+03 0.44192163E+03 0.80419002E+02 0.0000E+00 0.9000E+01
#aMCatNLO 1  0  0  1  2 0.52657999D+02 0.00000000D+00  -5  5  0 0.00000000D+00 0.00000000D+00 0.00000000D+00 0.00000000D+00 0.00000000D+00
  <mgrwgt>
 0.5681525357D-02    4    2    0
 0.152543755101786D+03 0.000000000000000D+00 0.000000000000000D+00 0.152543755101786D+03
 0.152543755101786D+03 0.000000000000000D+00 0.000000000000000D+00 -.152543755101786D+03
 0.167552209626061D+03 -.154668636581977D+02 0.108119278788808D+03 -.227978208024880D+02
 0.137535300577510D+03 0.154668636581977D+02 -.108119278788808D+03 0.227978208024880D+02
 0.000000000000000D+00 0.000000000000000D+00 -.000000000000000D+00 -.000000000000000D+00
 0.178944183509340D+03 0.000000000000000D+00 0.000000000000000D+00 0.178944183509340D+03
 0.183509917654517D+03 0.000000000000000D+00 0.000000000000000D+00 -.183509917654517D+03
 0.188654688644485D+03 -.244025871426583D+02 0.137296630166040D+03 -.227978208024880D+02
 0.120943847671938D+03 0.898271580348190D+01 -.869469293234317D+02 0.227978208024880D+02
 0.528555648474342D+02 0.154198713391764D+02 -.503497008426082D+02 -.456573414517677D+01
0.478303592947D-03 0.000000000000D+00 0.000000000000D+00 0.234056981796D-02 0.000000000000D+00  5 -4 3 25 -24 21 0 0.31219065D-02 0.17641774D+00 0.22744658D+05 0.22744658D+05 0.22744658D+05 0.12277245D+01  1  2  2  1  5  1       -4 0.110933535590D-01 0.100000000000D+01
-.265682166571D-04 0.000000000000D+00 -.183681173714D-05 0.234056981796D-02 0.000000000000D+00  5 -4 3 25 -24 21 2 0.31219065D-02 0.17641774D+00 0.22744658D+05 0.22744658D+05 0.22744658D+05 0.12277245D+01  1  2  3  1  5  1       -4 -.928802663843D-03 0.100000000000D+01
0.330243963589D-04 0.000000000000D+00 0.000000000000D+00 0.234056981796D-02 0.000000000000D+00  5 -4 3 25 -24 21 2 0.31219065D-02 0.17641774D+00 0.22744658D+05 0.22744658D+05 0.22744658D+05 0.12277245D+01  1  2 15  1  5  1       -4 0.115450531384D-02 0.100000000000D+01
-.161260455991D-03 0.000000000000D+00 0.000000000000D+00 0.234056981796D-02 0.000000000000D+00  5 -4 3 25 -24 21 2 0.31219065D-02 0.17641774D+00 0.22744658D+05 0.22744658D+05 0.22744658D+05 0.12277245D+01  1  2  4  1  5  1       -4 -.563753085238D-02 0.100000000000D+01
  </mgrwgt>
  </event>
  <event>
  5     66 0.46019439E-03 0.10517731E+03 0.75467711E-02 0.12321266E+00
       -2 -1    0    0    0  501 0.00000000E+00 0.00000000E+00 0.31584485E+03 0.31584501E+03 0.32000000E+00 0.0000E+00 0.9000E+01
        1 -1    0    0  502    0 0.00000000E+00 0.00000000E+00 -.57522627E+02 0.57523517E+02 0.32000000E+00 0.0000E+00 0.9000E+01
       25  1    1    2    0    0 -.28591018E+02 0.70060661E+01 0.80757575E+02 0.15170141E+03 0.12500000E+03 0.0000E+00 0.9000E+01
      -24  1    1    2    0    0 -.43734243E+01 -.29174411E+02 0.83805707E+02 0.11983691E+03 0.80419002E+02 0.0000E+00 0.9000E+01
       21  1    1    2  502  501 0.32964442E+02 0.22168345E+02 0.93758938E+02 0.10183021E+03 0.75000000E+00 0.0000E+00 0.9000E+01
#aMCatNLO 2  0  0  2  2 0.39725181D+02 0.00000000D+00  -5  5  0 0.00000000D+00 0.00000000D+00 0.00000000D+00 0.00000000D+00 0.00000000D+00
  <mgrwgt>
 0.2155334032D-01    1    2    0
 0.106153068401549D+03 0.000000000000000D+00 0.000000000000000D+00 0.106153068401549D+03
 0.106153068401549D+03 0.000000000000000D+00 0.000000000000000D+00 -.106153068401549D+03
 0.127720471453404D+03 -.881785225667287D+01 0.203033747520134D+02 -.140547957487322D+02
 0.845856653496934D+02 0.881785225667287D+01 -.203033747520134D+02 0.140547957487322D+02
 0.000000000000000D+00 0.000000000000000D+00 0.000000000000000D+00 0.000000000000000D+00
 0.156427481158303D+03 0.000000000000000D+00 0.000000000000000D+00 0.156427481158303D+03
 0.116141237726880D+03 0.000000000000000D+00 0.000000000000000D+00 -.116141237726880D+03
 0.129186177807867D+03 -.285910176514516D+02 0.700606613739276D+01 -.140547957487322D+02
 0.868045296194747D+02 -.437342434871479D+01 -.291744114596203D+02 0.140547957487322D+02
 0.565780114578420D+02 0.329644420001664D+02 0.221683453222275D+02 0.402862434314227D+02
0.538212124979D-04 0.000000000000D+00 0.000000000000D+00 0.307998531626D-02 0.174418614420D-04  5 -2 1 25 -24 21 2 0.48590606D-01 0.88495355D-02 0.16104077D+05 0.16104077D+05 0.16104077D+05 0.12443215D+01  1  2  1  2  5  2        1 0.215533403184D-01 0.100000000000D+01
  </mgrwgt>
  </event>
  <event>
  4     66 0.46019439E-03 0.73484583E+02 0.75467711E-02 0.12311771E+00
       -2 -1    0    0    0  501 0.00000000E+00 0.00000000E+00 0.27186739E+02 0.27188622E+02 0.32000000E+00 0.0000E+00 0.9000E+01
        1 -1    0    0  501    0 0.00000000E+00 0.00000000E+00 -.74921604E+03 0.74921611E+03 0.32000000E+00 0.0000E+00 0.9000E+01
       25  1    1    2    0    0 -.59799073E+01 -.65019604E+02 -.59993467E+03 0.61628720E+03 0.12500000E+03 0.0000E+00 0.9000E+01
      -24  1    1    2    0    0 0.59799073E+01 0.65019604E+02 -.12209463E+03 0.16011753E+03 0.80419002E+02 0.0000E+00 0.9000E+01
#aMCatNLO 1  0  0  1  2 0.10036550D+02 0.00000000D+00  -5  5  0 0.00000000D+00 0.00000000D+00 0.00000000D+00 0.00000000D+00 0.00000000D+00
  <mgrwgt>
 0.7349310744D-01    9    2    0
 0.142721752859349D+03 0.000000000000000D+00 0.000000000000000D+00 0.142721752859349D+03
 0.142721752859349D+03 0.000000000000000D+00 0.000000000000000D+00 -.142721752859349D+03
 0.158763077783823D+03 -.597990729098296D+01 -.650196035640559D+02 -.729205507971286D+02
 0.126680427934874D+03 0.597990729098296D+01 0.650196035640559D+02 0.729205507971286D+02
 0.000000000000000D+00 0.000000000000000D+00 -.000000000000000D+00 0.000000000000000D+00
 0.160169686290005D+03 0.000000000000000D+00 0.000000000000000D+00 0.160169686290005D+03
 0.144260610489783D+03 0.000000000000000D+00 0.000000000000000D+00 -.144260610489783D+03
 0.156745575202793D+03 -.765639052689825D+01 -.597339794522142D+02 -.729205507971286D+02
 0.128874324822116D+03 0.462199442615340D+01 0.693008375342868D+02 0.729205507971286D+02
 0.188103967548784D+02 0.303439610074485D+01 -.956685808207252D+01 0.159090758002219D+02
0.283716528718D-03 0.000000000000D+00 0.000000000000D+00 0.188939737286D-02 0.000000000000D+00  5 -2 1 25 -24 21 0 0.41827254D-02 0.11526416D+00 0.14959021D+05 0.14959021D+05 0.14959021D+05 0.12479580D+01  1  2  2  1  5  1       -2 0.157151741810D+00 0.100000000000D+01
-.153053886641D-04 0.000000000000D+00 -.108954617455D-05 0.188939737286D-02 0.000000000000D+00  5 -2 1 25 -24 21 2 0.41827254D-02 0.11526416D+00 0.14959021D+05 0.14959021D+05 0.14959021D+05 0.12479580D+01  1  2  3  1  5  1       -2 -.132031896471D-01 0.100000000000D+01
0.195794431008D-04 0.000000000000D+00 0.000000000000D+00 0.188939737286D-02 0.000000000000D+00  5 -2 1 25 -24 21 2 0.41827254D-02 0.11526416D+00 0.14959021D+05 0.14959021D+05 0.14959021D+05 0.12479580D+01  1  2 15  1  5  1       -2 0.168902016222D-01 0.100000000000D+01
0.167928066305D-02 0.000000000000D+00 0.000000000000D+00 0.188939737286D-02 0.000000000000D+00  5 -2 1 25 -24 21 2 0.47149062D-02 0.11526416D+00 0.16262279D+05 0.16262279D+05 0.16262279D+05 0.12438420D+01  1  2 12  1  5  1       -2 0.120639955755D+01 0.100000000000D+01
-.170572402455D-02 0.000000000000D+00 0.000000000000D+00 0.188939737286D-02 0.000000000000D+00  5 -2 1 25 -24 21 2 0.41827254D-02 0.11526416D+00 0.14959021D+05 0.14959021D+05 0.14959021D+05 0.12479580D+01  1  2  4  1  5  1       -2 -.147144239692D+01 0.100000000000D+01
-.247948368944D-02 0.000000000000D+00 -.274695677027D-03 0.188939737286D-02 0.000000000000D+00  5 -2 1 25 -24 21 2 0.47428102D-02 0.11526416D+00 0.14959021D+05 0.14959021D+05 0.14959021D+05 0.12479580D+01  1  2  5  1  5  1       -2 -.177385129740D+01 0.100000000000D+01
0.249642077813D-02 0.000000000000D+00 0.272540841312D-03 0.188939737286D-02 0.000000000000D+00  5 -2 1 25 -24 21 2 0.41827254D-02 0.11526416D+00 0.14959021D+05 0.14959021D+05 0.14959021D+05 0.12479580D+01  1  2  6  1  5  1       -2 0.215353675074D+01 0.100000000000D+01
0.318100131571D-04 0.000000000000D+00 0.000000000000D+00 0.188939737286D-02 0.000000000000D+00  5 21 1 25 -24 2 2 0.47149062D-02 0.11526416D+00 0.16262279D+05 0.16262279D+05 0.16262279D+05 0.12438420D+01  1  2 12  3  5  1       -2 0.414065495304D+00 0.100000000000D+01
-.475164538043D-04 0.000000000000D+00 -.541742140129D-05 0.188939737286D-02 0.000000000000D+00  5 21 1 25 -24 2 2 0.47428102D-02 0.11526416D+00 0.14959021D+05 0.14959021D+05 0.14959021D+05 0.12479580D+01  1  2  5  3  5  1       -2 -.616053755617D+00 0.100000000000D+01
  </mgrwgt>
  </event>
  <event>
  4     66 0.46019439E-03 0.15237956E+03 0.75467711E-02 0.11532079E+00
       -2 -1    0    0    0  501 0.00000000E+00 0.00000000E+00 0.55428140E+02 0.55429064E+02 0.32000000E+00 0.0000E+00 0.9000E+01
        1 -1    0    0  501    0 0.00000000E+00 0.00000000E+00 -.63160843E+03 0.63160851E+03 0.32000000E+00 0.0000E+00 0.9000E+01
       25  1    1    2    0    0 -.50117469E+02 -.99435414E+02 -.50563359E+03 0.53262509E+03 0.12500000E+03 0.0000E+00 0.9000E+01
      -24  1    1    2    0    0 0.50117469E+02 0.99435414E+02 -.70546703E+02 0.15441249E+03 0.80419002E+02 0.0000E+00 0.9000E+01
#aMCatNLO 1  0  0  1  2 0.77271642D+02 0.00000000D+00  -5  5  0 0.00000000D+00 0.00000000D+00 0.00000000D+00 0.00000000D+00 0.00000000D+00
  <mgrwgt>
 0.2449424217D+00    3    2    0
 0.187107525200471D+03 0.000000000000000D+00 0.000000000000000D+00 0.187107525200471D+03
 0.187107525200471D+03 0.000000000000000D+00 0.000000000000000D+00 -.187107525200471D+03
 0.199343516291446D+03 -.501174690706980D+02 -.994354142646091D+02 -.108229733305646D+03
 0.174871534109496D+03 0.501174690706980D+02 0.994354142646091D+02 0.108229733305646D+03
 0.000000000000000D+00 -.000000000000000D+00 0.000000000000000D+00 -.000000000000000D+00
 0.198625369514208D+03 0.000000000000000D+00 0.000000000000000D+00 0.198625369514208D+03
 0.388230886112935D+03 0.000000000000000D+00 0.000000000000000D+00 -.388230886112935D+03
 0.200546652275712D+03 -.115451626356922D+02 -.112902585388022D+03 -.108229733305646D+03
 0.181563031731443D+03 0.844981675182419D+02 0.874317050719606D+02 0.108229733305646D+03
 0.204746571619988D+03 -.729530048825497D+02 0.254708803160616D+02 -.189605516598727D+03
0.989566634054D-03 0.000000000000D+00 0.000000000000D+00 0.150863391150D-02 0.000000000000D+00  5 -2 1 25 -24 21 0 0.85274835D-02 0.97170606D-01 0.23219531D+05 0.23219531D+05 0.23219531D+05 0.12267527D+01  1  2  2  1  5  1       -2 0.239194782542D+00 0.100000000000D+01
-.521583866226D-04 0.000000000000D+00 -.380019643365D-05 0.150863391150D-02 0.000000000000D+00  5 -2 1 25 -24 21 2 0.85274835D-02 0.97170606D-01 0.23219531D+05 0.23219531D+05 0.23219531D+05 0.12267527D+01  1  2  3  1  5  1       -2 -.189733879035D-01 0.100000000000D+01
0.679588113083D-04 0.000000000000D+00 0.000000000000D+00 0.150863391150D-02 0.000000000000D+00  5 -2 1 25 -24 21 2 0.85274835D-02 0.97170606D-01 0.23219531D+05 0.23219531D+05 0.23219531D+05 0.12267527D+01  1  2 15  1  5  1       -2 0.247210270851D-01 0.100000000000D+01
  </mgrwgt>
  </event>
  <event>
  4     66 0.46019439E-03 0.20361489E+03 0.75467711E-02 0.99867239E-01
       -2 -1    0    0    0  501 0.00000000E+00 0.00000000E+00 0.56253355E+03 0.56253364E+03 0.32000000E+00 0.0000E+00 0.9000E+01
        1 -1    0    0  501    0 0.00000000E+00 0.00000000E+00 -.82148302E+02 0.82148926E+02 0.32000000E+00 0.0000E+00 0.9000E+01
       25  1    1    2    0    0 0.12707103E+03 0.11996790E+03 0.14886336E+03 0.26138983E+03 0.12500000E+03 0.0000E+00 0.9000E+01
      -24  1    1    2    0    0 -.12707103E+03 -.11996790E+03 0.33152188E+03 0.38329273E+03 0.80419002E+02 0.0000E+00 0.9000E+01
#aMCatNLO 1  0  0  2  2 0.48906542D+03 0.00000000D+00  -5  5  0 0.00000000D+00 0.00000000D+00 0.00000000D+00 0.00000000D+00 0.00000000D+00
  <mgrwgt>
 0.2530440109D+00    5    2    0
 0.214968384780780D+03 0.000000000000000D+00 0.000000000000000D+00 0.214968384780780D+03
 0.214968384780780D+03 0.000000000000000D+00 0.000000000000000D+00 -.214968384780780D+03
 0.225618536958935D+03 0.127071030804860D+03 0.119967900697160D+03 -.688431561739944D+02
 0.204318232602626D+03 -.127071030804860D+03 -.119967900697160D+03 0.688431561739944D+02
 0.000000000000000D+00 -.000000000000000D+00 0.000000000000000D+00 -.000000000000000D+00
 0.552656686747997D+03 0.000000000000000D+00 0.000000000000000D+00 0.552656686747997D+03
 0.588928266083089D+03 0.000000000000000D+00 0.000000000000000D+00 -.588928266083089D+03
 0.254075096797036D+03 0.191212463041880D+03 -.873359527221399D+02 -.688431561739944D+02
 0.397101234494319D+03 -.466532322762937D+02 -.379876651360305D+03 0.688431561739944D+02
 0.490408621539731D+03 -.144559230765586D+03 0.467212604082445D+03 -.362715793350921D+02
0.404474610373D-02 0.000000000000D+00 0.000000000000D+00 0.191607556647D-02 0.000000000000D+00  5 -2 1 25 -24 21 0 0.86543678D-01 0.12638255D-01 0.41459024D+05 0.41459024D+05 0.41459024D+05 0.12004234D+01  1  2  2  2  5  2        1 0.197912320787D+00 0.100000000000D+01
-.223903723460D-03 0.000000000000D+00 -.155328900444D-04 0.191607556647D-02 0.000000000000D+00  5 -2 1 25 -24 21 2 0.86543678D-01 0.12638255D-01 0.41459024D+05 0.41459024D+05 0.41459024D+05 0.12004234D+01  1  2  3  2  5  2        1 -.157874438061D-01 0.100000000000D+01
0.278189710757D-03 0.000000000000D+00 0.000000000000D+00 0.191607556647D-02 0.000000000000D+00  5 -2 1 25 -24 21 2 0.86543678D-01 0.12638255D-01 0.41459024D+05 0.41459024D+05 0.41459024D+05 0.12004234D+01  1  2 15  2  5  2        1 0.196151468951D-01 0.100000000000D+01
0.558909318186D-02 0.000000000000D+00 -.270051542774D-02 0.191607556647D-02 0.000000000000D+00  5 -2 1 25 -24 21 2 0.86543678D-01 0.86005143D-01 0.41459024D+05 0.41459024D+05 0.41459024D+05 0.12004234D+01  1  2  5  2  5  2        1 0.337859892888D-01 0.100000000000D+01
0.107202587767D-02 0.000000000000D+00 -.633616485024D-03 0.191607556647D-02 0.000000000000D+00  5 -2 21 25 -24 -1 2 0.86543678D-01 0.86005143D-01 0.41459024D+05 0.41459024D+05 0.41459024D+05 0.12004234D+01  1  2  5  4  5  2        1 0.175179977759D-01 0.100000000000D+01
  </mgrwgt>
  </event>
  <event>
  4     66 0.46019439E-03 0.10546594E+03 0.75467711E-02 0.12568659E+00
       -2 -1    0    0    0  501 0.00000000E+00 0.00000000E+00 0.38470048E+01 0.38602909E+01 0.32000000E+00 0.0000E+00 0.9000E+01
        1 -1    0    0  501    0 0.00000000E+00 0.00000000E+00 -.28864259E+04 0.28864259E+04 0.32000000E+00 0.0000E+00 0.9000E+01
       25  1    1    2    0    0 -.20495880E+02 0.11318549E+02 -.17447137E+04 0.17493424E+04 0.12500000E+03 0.0000E+00 0.9000E+01
      -24  1    1    2    0    0 0.20495880E+02 -.11318549E+02 -.11378652E+04 0.11409437E+04 0.80419002E+02 0.0000E+00 0.9000E+01
#aMCatNLO 1  0  0  1  2 0.12733280D+02 0.00000000D+00  -5  5  0 0.00000000D+00 0.00000000D+00 0.00000000D+00 0.00000000D+00 0.00000000D+00
  <mgrwgt>
 0.2080464836D+00    4    2    0
 0.105467151373541D+03 0.000000000000000D+00 0.000000000000000D+00 0.105467151373541D+03
 0.105467151373541D+03 0.000000000000000D+00 0.000000000000000D+00 -.105467151373541D+03
 0.127174820364226D+03 -.204958804349913D+02 0.113185485545835D+02 -.494245369534999D+00
 0.837594823828548D+02 0.204958804349913D+02 -.113185485545835D+02 0.494245369534999D+00
 0.000000000000000D+00 -.000000000000000D+00 -.000000000000000D+00 -.000000000000000D+00
 0.108929559425944D+03 0.000000000000000D+00 0.000000000000000D+00 0.108929559425944D+03
 0.118053307535913D+03 0.000000000000000D+00 0.000000000000000D+00 -.118053307535913D+03
 0.126846702966996D+03 -.144403665578514D+02 0.160099215734114D+02 -.494245369534999D+00
 0.844715794965170D+02 0.245062710366105D+02 -.821158874157372D+01 0.494245369534999D+00
 0.156645844983445D+02 -.100659044787591D+02 -.779833283183767D+01 -.912374810996853D+01
0.880797206989D-03 0.000000000000D+00 0.000000000000D+00 0.314745074491D-02 0.000000000000D+00  5 -2 1 25 -24 21 0 0.59287026D-03 0.44406654D+00 0.11123065D+05 0.11123065D+05 0.11123065D+05 0.12629050D+01  1  2  2  1  5  1       -2 0.304634115217D+00 0.100000000000D+01
-.489331781582D-04 0.000000000000D+00 -.338249319407D-05 0.314745074491D-02 0.000000000000D+00  5 -2 1 25 -24 21 2 0.59287026D-03 0.44406654D+00 0.11123065D+05 0.11123065D+05 0.11123065D+05 0.12629050D+01  1  2  3  1  5  1       -2 -.269927683659D-01 0.100000000000D+01
0.608479758755D-04 0.000000000000D+00 0.000000000000D+00 0.314745074491D-02 0.000000000000D+00  5 -2 1 25 -24 21 2 0.59287026D-03 0.44406654D+00 0.11123065D+05 0.11123065D+05 0.11123065D+05 0.12629050D+01  1  2 15  1  5  1       -2 0.335652696219D-01 0.100000000000D+01
-.187011316915D-03 0.000000000000D+00 0.000000000000D+00 0.314745074491D-02 0.000000000000D+00  5 -2 1 25 -24 21 2 0.59287026D-03 0.44406654D+00 0.11123065D+05 0.11123065D+05 0.11123065D+05 0.12629050D+01  1  2  4  1  5  1       -2 -.103160132844D+00 0.100000000000D+01
  </mgrwgt>
  </event>
  <event>
  5     66 0.46019439E-03 0.13954537E+03 0.75467711E-02 0.12097718E+00
       -2 -1    0    0    0  501 0.00000000E+00 0.00000000E+00 0.22344968E+03 0.22344991E+03 0.32000000E+00 0.0000E+00 0.9000E+01
        1 -1    0    0  502    0 0.00000000E+00 0.00000000E+00 -.14897969E+03 0.14898003E+03 0.32000000E+00 0.0000E+00 0.9000E+01
       25  1    1    2    0    0 -.86564525E+02 0.27392235E+02 0.15043669E+03 0.21563847E+03 0.12500000E+03 0.0000E+00 0.9000E+01
      -24  1    1    2    0    0 0.92112765E+02 -.24956427E+02 -.81082449E+02 0.14882595E+03 0.80419002E+02 0.0000E+00 0.9000E+01
       21  1    1    2  502  501 -.55482404E+01 -.24358088E+01 0.51157499E+01 0.79655215E+01 0.75000000E+00 0.0000E+00 0.9000E+01
#aMCatNLO 2  0  0  2  1 0.60593841D+01 0.00000000D+00  -5  5  0 0.00000000D+00 0.00000000D+00 0.00000000D+00 0.00000000D+00 0.00000000D+00
  <mgrwgt>
 0.6962703543D-01    2    2    0
 0.178876763458019D+03 0.000000000000000D+00 0.000000000000000D+00 0.178876763458019D+03
 0.178876763458019D+03 0.000000000000000D+00 0.000000000000000D+00 -.178876763458019D+03
 0.191675776404967D+03 -.895277508731018D+02 0.260913090531993D+02 0.111438901089077D+03
 0.166077750511071D+03 0.895277508731018D+02 -.260913090531993D+02 -.111438901089077D+03
 0.000000000000000D+00 -.000000000000000D+00 -.000000000000000D+00 0.000000000000000D+00
 0.184276899595101D+03 0.000000000000000D+00 0.000000000000000D+00 0.184276899595101D+03
 0.180610311345787D+03 0.000000000000000D+00 0.000000000000000D+00 -.180610311345787D+03
 0.190492467496297D+03 -.865645246842577D+02 0.273922354523155D+02 0.111438901089077D+03
 0.167312370588307D+03 0.921127650748543D+02 -.249564266639269D+02 -.111438901089077D+03
 0.708237285628524D+01 -.554824039059653D+01 -.243580878838862D+01 0.366658824931406D+01
-.966035349783D-03 0.000000000000D+00 0.000000000000D+00 0.142231111165D-02 0.000000000000D+00  5 -2 1 25 -24 21 2 0.33365880D-01 0.22697528D-01 0.19472911D+05 0.19472911D+05 0.19472911D+05 0.12351051D+01  1  2  8  2  5  2        1 -.229986282689D+00 0.100000000000D+01
0.134897511361D-02 0.000000000000D+00 0.000000000000D+00 0.142231111165D-02 0.314192057020D-03  5 -2 1 25 -24 21 2 0.34373168D-01 0.22917496D-01 0.20356666D+05 0.20356666D+05 0.20356666D+05 0.12329818D+01  1  2  1  2  5  2        1 0.299613318121D+00 0.100000000000D+01
  </mgrwgt>
  </event>
  <event>
  4     66 0.46019439E-03 0.12182807E+03 0.75467711E-02 0.11336499E+00
       -2 -1    0    0    0  501 0.00000000E+00 0.00000000E+00 0.30519384E+02 0.30521061E+02 0.32000000E+00 0.0000E+00 0.9000E+01
        1 -1    0    0  501    0 0.00000000E+00 0.00000000E+00 -.14369186E+04 0.14369186E+04 0.32000000E+00 0.0000E+00 0.9000E+01
       25  1    1    2    0    0 -.28306435E+01 -.17971022E+03 -.65233543E+03 0.68809178E+03 0.12500000E+03 0.0000E+00 0.9000E+01
      -24  1    1    2    0    0 0.28306435E+01 0.17971022E+03 -.75406378E+03 0.77934791E+03 0.80419002E+02 0.0000E+00 0.9000E+01
#aMCatNLO 1  0  0  2  1 0.24090488D+02 0.00000000D+00  -5  5  0 0.00000000D+00 0.00000000D+00 0.00000000D+00 0.00000000D+00 0.00000000D+00
  <mgrwgt>
 0.5350187460D+00    9    2    0
 0.209416157932209D+03 0.000000000000000D+00 0.000000000000000D+00 0.209416157932209D+03
 0.209416157932209D+03 0.000000000000000D+00 0.000000000000000D+00 -.209416157932209D+03
 0.220348676387392D+03 -.283064350011462D+01 -.179710220498899D+03 0.249952653774233D+02
 0.198483639477026D+03 0.283064350011462D+01 0.179710220498899D+03 -.249952653774233D+02
 0.000000000000000D+00 -.000000000000000D+00 -.000000000000000D+00 -.000000000000000D+00
 0.220566084233793D+03 0.000000000000000D+00 0.000000000000000D+00 0.220566084233793D+03
 0.223191620174085D+03 0.000000000000000D+00 0.000000000000000D+00 -.223191620174085D+03
 0.210411083735537D+03 -.160287064373177D+01 -.167393224693160D+03 0.249952653774233D+02
 0.209113481017143D+03 0.399239705095637D+01 0.191364911786974D+03 -.249952653774233D+02
 0.242331396551980D+02 -.238952640722459D+01 -.239716870938142D+02 -.262553594029242D+01
0.116440286190D-02 0.000000000000D+00 0.000000000000D+00 0.210917717218D-02 0.000000000000D+00  5 -2 1 25 -24 21 0 0.46954216D-02 0.22106453D+00 0.43228632D+05 0.43228632D+05 0.43228632D+05 0.11985919D+01  1  2  2  2  5  2        1 0.174187649680D+00 0.100000000000D+01
-.646849769994D-04 0.000000000000D+00 -.447161358403D-05 0.210917717218D-02 0.000000000000D+00  5 -2 1 25 -24 21 2 0.46954216D-02 0.22106453D+00 0.43228632D+05 0.43228632D+05 0.43228632D+05 0.11985919D+01  1  2  3  2  5  2        1 -.139014520851D-01 0.100000000000D+01
0.799796676151D-04 0.000000000000D+00 0.000000000000D+00 0.210917717218D-02 0.000000000000D+00  5 -2 1 25 -24 21 2 0.46954216D-02 0.22106453D+00 0.43228632D+05 0.43228632D+05 0.43228632D+05 0.11985919D+01  1  2 15  2  5  2        1 0.171884349151D-01 0.100000000000D+01
0.232495096715D-02 0.000000000000D+00 0.000000000000D+00 0.210917717218D-02 0.000000000000D+00  5 -2 1 25 -24 21 2 0.46954216D-02 0.24114553D+00 0.48537805D+05 0.48537805D+05 0.48537805D+05 0.11935604D+01  1  2 12  2  5  2        1 0.406278496955D+00 0.100000000000D+01
-.194189652312D-02 0.000000000000D+00 0.000000000000D+00 0.210917717218D-02 0.000000000000D+00  5 -2 1 25 -24 21 2 0.46954216D-02 0.22106453D+00 0.43228632D+05 0.43228632D+05 0.43228632D+05 0.11985919D+01  1  2  4  2  5  2        1 -.417333092207D+00 0.100000000000D+01
-.856412380821D-02 0.000000000000D+00 -.167389023930D-02 0.210917717218D-02 0.000000000000D+00  5 -2 1 25 -24 21 2 0.46954216D-02 0.24301385D+00 0.43228632D+05 0.43228632D+05 0.43228632D+05 0.11985919D+01  1  2  5  2  5  2        1 -.148285865710D+01 0.100000000000D+01
0.869108226979D-02 0.000000000000D+00 0.166641808046D-02 0.210917717218D-02 0.000000000000D+00  5 -2 1 25 -24 21 2 0.46954216D-02 0.22106453D+00 0.43228632D+05 0.43228632D+05 0.43228632D+05 0.11985919D+01  1  2  6  2  5  2        1 0.186780098480D+01 0.100000000000D+01
0.334264630235D-04 0.000000000000D+00 0.000000000000D+00 0.210917717218D-02 0.000000000000D+00  5 -2 21 25 -24 -1 2 0.46954216D-02 0.24114553D+00 0.48537805D+05 0.48537805D+05 0.48537805D+05 0.11935604D+01  1  2 12  4  5  2        1 0.587597644288D-02 0.100000000000D+01
-.127659388405D-03 0.000000000000D+00 -.259253014633D-04 0.210917717218D-02 0.000000000000D+00  5 -2 21 25 -24 -1 2 0.46954216D-02 0.24301385D+00 0.43228632D+05 0.43228632D+05 0.43228632D+05 0.11985919D+01  1  2  5  4  5  2        1 -.222195953845D-01 0.100000000000D+01
  </mgrwgt>
  </event>
  <event>
  5     66 0.46019439E-03 0.22002965E+03 0.75467711E-02 0.10222256E+00
       -4 -1    0    0    0  502 0.00000000E+00 0.00000000E+00 0.55793441E+03 0.55793657E+03 0.15500000E+01 0.0000E+00 0.9000E+01
        3 -1    0    0  501    0 0.00000000E+00 0.00000000E+00 -.65201325E+03 0.65201344E+03 0.50000000E+00 0.0000E+00 0.9000E+01
       25  1    1    2    0    0 -.22805763E+03 -.14054203E+03 -.40091586E+03 0.49811733E+03 0.12500000E+03 0.0000E+00 0.9000E+01
      -24  1    1    2    0    0 0.15151283E+03 -.21698476E+03 0.13769869E+03 0.30897681E+03 0.80419002E+02 0.0000E+00 0.9000E+01
       21  1    1    2  501  502 0.76544803E+02 0.35752679E+03 0.16913833E+03 0.40285587E+03 0.75000000E+00 0.0000E+00 0.9000E+01
#aMCatNLO 2  0  0  1  1 0.36562893D+03 0.00000000D+00  -5  5  0 0.00000000D+00 0.00000000D+00 0.00000000D+00 0.00000000D+00 0.00000000D+00
  <mgrwgt>
 0.9790650147D-03    1    2    0
 0.334825759063323D+03 0.000000000000000D+00 0.000000000000000D+00 0.334825759063323D+03
 0.334825759063323D+03 0.000000000000000D+00 0.000000000000000D+00 -.334825759063323D+03
 0.341663482713415D+03 -.189038873491615D+03 0.417074544957279D+02 -.252257265442183D+03
 0.327988035413230D+03 0.189038873491615D+03 -.417074544957279D+02 0.252257265442183D+03
 0.000000000000000D+00 0.000000000000000D+00 0.000000000000000D+00 0.000000000000000D+00
 0.782687753019758D+03 0.000000000000000D+00 0.000000000000000D+00 0.782687753019758D+03
 0.464785145795401D+03 0.000000000000000D+00 0.000000000000000D+00 -.464785145795401D+03
 0.388614299464782D+03 -.228057630400867D+03 -.140542032844544D+03 -.252257265442183D+03
 0.374352063626376D+03 0.151512827566587D+03 -.216984761449659D+03 0.252257265442183D+03
 0.484506535724001D+03 0.765448028342803D+02 0.357526794294204D+03 0.317902607224357D+03
0.329180148520D-02 0.000000000000D+00 0.000000000000D+00 0.878000332959D-03 0.859687821741D-07  5 -4 3 25 -24 21 2 0.85836196D-01 0.10030985D+00 0.21988557D+06 0.21988557D+06 0.21988557D+06 0.11333872D+01  1  2  1  1  5  1       -4 0.979065014709D-03 0.100000000000D+01
  </mgrwgt>
  </event>
  <event>
  4     66 0.46019439E-03 0.85234650E+02 0.75467711E-02 0.12644638E+00
       -2 -1    0    0    0  501 0.00000000E+00 0.00000000E+00 0.46133089E+02 0.46134199E+02 0.32000000E+00 0.0000E+00 0.9000E+01
        1 -1    0    0  501    0 0.00000000E+00 0.00000000E+00 -.24417900E+03 0.24417921E+03 0.32000000E+00 0.0000E+00 0.9000E+01
       25  1    1    2    0    0 0.11357066E+02 -.17090456E+02 -.96966575E+02 0.15952612E+03 0.12500000E+03 0.0000E+00 0.9000E+01
      -24  1    1    2    0    0 -.11357066E+02 0.17090456E+02 -.10107934E+03 0.13078729E+03 0.80419002E+02 0.0000E+00 0.9000E+01
#aMCatNLO 1  0  0  2  1 0.60857760D+01 0.00000000D+00  -5  5  0 0.00000000D+00 0.00000000D+00 0.00000000D+00 0.00000000D+00 0.00000000D+00
  <mgrwgt>
 0.2533544693D+00   11    2    0
 0.106136342551440D+03 0.000000000000000D+00 0.000000000000000D+00 0.106136342551440D+03
 0.106136342551440D+03 0.000000000000000D+00 0.000000000000000D+00 -.106136342551440D+03
 0.127707144374555D+03 0.113570664036073D+02 -.170904555351129D+02 0.162187575544471D+02
 0.845655407283255D+02 -.113570664036073D+02 0.170904555351129D+02 -.162187575544471D+02
 0.000000000000000D+00 0.000000000000000D+00 -.000000000000000D+00 -.000000000000000D+00
 0.108343525312133D+03 0.000000000000000D+00 0.000000000000000D+00 0.108343525312133D+03
 0.110459526228506D+03 0.000000000000000D+00 0.000000000000000D+00 -.110459526228506D+03
 0.127327940256210D+03 0.780440376823716D+01 -.162310675896992D+02 0.162187575544471D+02
 0.850319653531140D+02 -.137195755610428D+02 0.176619457381554D+02 -.162187575544471D+02
 0.644314593131499D+01 0.591517179280559D+01 -.143087814845624D+01 -.211600091637232D+01
0.115505167216D-03 0.000000000000D+00 0.000000000000D+00 0.306546355578D-02 0.000000000000D+00  5 -2 1 25 -24 21 0 0.70974998D-02 0.37566102D-01 0.10990246D+05 0.10990246D+05 0.10990246D+05 0.12635228D+01  1  2  2  2  5  2        1 0.121395323839D+00 0.100000000000D+01
-.641576512777D-05 0.000000000000D+00 -.443570255317D-06 0.306546355578D-02 0.000000000000D+00  5 -2 1 25 -24 21 2 0.70974998D-02 0.37566102D-01 0.10990246D+05 0.10990246D+05 0.10990246D+05 0.12635228D+01  1  2  3  2  5  2        1 -.107650280985D-01 0.100000000000D+01
0.799249304880D-05 0.000000000000D+00 0.000000000000D+00 0.306546355578D-02 0.000000000000D+00  5 -2 1 25 -24 21 2 0.70974998D-02 0.37566102D-01 0.10990246D+05 0.10990246D+05 0.10990246D+05 0.12635228D+01  1  2 15  2  5  2        1 0.134106237578D-01 0.100000000000D+01
0.307513961717D-03 0.000000000000D+00 0.000000000000D+00 0.306546355578D-02 0.000000000000D+00  5 -2 1 25 -24 21 2 0.70974998D-02 0.39474703D-01 0.11647526D+05 0.11647526D+05 0.11647526D+05 0.12605444D+01  1  2 12  2  5  2        1 0.484475480075D+00 0.100000000000D+01
-.388268077764D-03 0.000000000000D+00 0.000000000000D+00 0.306546355578D-02 0.000000000000D+00  5 -2 1 25 -24 21 2 0.70974998D-02 0.37566102D-01 0.10990246D+05 0.10990246D+05 0.10990246D+05 0.12635228D+01  1  2  4  2  5  2        1 -.651475963291D+00 0.100000000000D+01
-.209815285393D-02 0.000000000000D+00 -.326128947184D-03 0.306546355578D-02 0.000000000000D+00  5 -2 1 25 -24 21 2 0.70974998D-02 0.39822519D-01 0.10990246D+05 0.10990246D+05 0.10990246D+05 0.12635228D+01  1  2  5  2  5  2        1 -.327746085431D+01 0.100000000000D+01
0.211413251102D-02 0.000000000000D+00 0.325574915092D-03 0.306546355578D-02 0.000000000000D+00  5 -2 1 25 -24 21 2 0.70974998D-02 0.37566102D-01 0.10990246D+05 0.10990246D+05 0.10990246D+05 0.12635228D+01  1  2  6  2  5  2        1 0.354730814357D+01 0.100000000000D+01
0.102959585622D-03 0.000000000000D+00 0.000000000000D+00 0.306546355578D-02 0.702145412467D-03  5 -2 1 25 -24 21 2 0.72450975D-02 0.39096258D-01 0.11647526D+05 0.11647526D+05 0.11647526D+05 0.12605444D+01  1  2 11  2  5  2        1 0.159069542474D+00 0.100000000000D+01
0.397027316274D-05 0.000000000000D+00 0.000000000000D+00 0.306546355578D-02 0.000000000000D+00  5 -2 21 25 -24 -1 2 0.70974998D-02 0.39474703D-01 0.11647526D+05 0.11647526D+05 0.11647526D+05 0.12605444D+01  1  2 12  4  5  2        1 0.341202591406D-01 0.100000000000D+01
-.206815257168D-04 0.000000000000D+00 -.327472129817D-05 0.306546355578D-02 0.000000000000D+00  5 -2 21 25 -24 -1 2 0.70974998D-02 0.39822519D-01 0.10990246D+05 0.10990246D+05 0.10990246D+05 0.12635228D+01  1  2  5  4  5  2        1 -.175276963026D+00 0.100000000000D+01
0.100761839918D-05 0.000000000000D+00 0.000000000000D+00 0.306546355578D-02 0.501557731228D-05  5 -2 21 25 -24 -1 2 0.72450975D-02 0.39096258D-01 0.11647526D+05 0.11647526D+05 0.11647526D+05 0.12605444D+01  1  2 11  4  5  2        1 0.855390519969D-02 0.100000000000D+01
  </mgrwgt>
  </event>
  <event>
  4     66 0.46019439E-03 0.51751746E+02 0.75467711E-02 0.12526172E+00
       -2 -1    0    0    0  501 0.00000000E+00 0.00000000E+00 0.84927823E+01 0.84988088E+01 0.32000000E+00 0.0000E+00 0.9000E+01
        1 -1    0    0  501    0 0.00000000E+00 0.00000000E+00 -.20655605E+04 0.20655605E+04 0.32000000E+00 0.0000E+00 0.9000E+01
       25  1    1    2    0    0 0.30325728E+02 -.19952850E+02 -.17424100E+04 0.17472652E+04 0.12500000E+03 0.0000E+00 0.9000E+01
      -24  1    1    2    0    0 -.30325728E+02 0.19952850E+02 -.31465765E+03 0.32679416E+03 0.80419002E+02 0.0000E+00 0.9000E+01
#aMCatNLO 1  0  0  2  1 0.10390462D+02 0.00000000D+00  -5  5  0 0.00000000D+00 0.00000000D+00 0.00000000D+00 0.00000000D+00 0.00000000D+00
  <mgrwgt>
 0.4995759008D+00    9    2    0
 0.132471245055194D+03 0.000000000000000D+00 0.000000000000000D+00 0.132471245055194D+03
 0.132471245055194D+03 0.000000000000000D+00 0.000000000000000D+00 -.132471245055194D+03
 0.149753833517721D+03 0.303257280054597D+02 -.199528502053484D+02 -.740502845563403D+02
 0.115188656592668D+03 -.303257280054597D+02 0.199528502053484D+02 0.740502845563403D+02
 0.000000000000000D+00 -.000000000000000D+00 0.000000000000000D+00 -.000000000000000D+00
 0.136686927272996D+03 0.000000000000000D+00 0.000000000000000D+00 0.136686927272996D+03
 0.139133948551793D+03 0.000000000000000D+00 0.000000000000000D+00 -.139133948551793D+03
 0.151219581219081D+03 0.360265132243679D+02 -.214710839524595D+02 -.740502845563403D+02
 0.113926576148684D+03 -.259860200170288D+02 0.187970986961018D+02 0.740502845563403D+02
 0.106747184570241D+02 -.100404932073391D+02 0.267398525635769D+01 -.244702127879765D+01
0.343808238248D-03 0.000000000000D+00 0.000000000000D+00 0.186892587437D-02 0.000000000000D+00  5 -2 1 25 -24 21 0 0.13070474D-02 0.31777900D+00 0.11924304D+05 0.11924304D+05 0.11924304D+05 0.12593463D+01  1  2  2  2  5  2        1 0.131892071387D+00 0.100000000000D+01
-.182336289392D-04 0.000000000000D+00 -.132031416166D-05 0.186892587437D-02 0.000000000000D+00  5 -2 1 25 -24 21 2 0.13070474D-02 0.31777900D+00 0.11924304D+05 0.11924304D+05 0.11924304D+05 0.12593463D+01  1  2  3  2  5  2        1 -.110934307574D-01 0.100000000000D+01
0.235313292531D-04 0.000000000000D+00 0.000000000000D+00 0.186892587437D-02 0.000000000000D+00  5 -2 1 25 -24 21 2 0.13070474D-02 0.31777900D+00 0.11924304D+05 0.11924304D+05 0.11924304D+05 0.12593463D+01  1  2 15  2  5  2        1 0.143165780421D-01 0.100000000000D+01
0.914494824911D-03 0.000000000000D+00 0.000000000000D+00 0.186892587437D-02 0.000000000000D+00  5 -2 1 25 -24 21 2 0.13070474D-02 0.33860978D+00 0.13089299D+05 0.13089299D+05 0.13089299D+05 0.12546255D+01  1  2 12  2  5  2        1 0.453550865913D+00 0.100000000000D+01
-.812697304764D-03 0.000000000000D+00 0.000000000000D+00 0.186892587437D-02 0.000000000000D+00  5 -2 1 25 -24 21 2 0.13070474D-02 0.31777900D+00 0.11924304D+05 0.11924304D+05 0.11924304D+05 0.12593463D+01  1  2  4  2  5  2        1 -.494449092234D+00 0.100000000000D+01
-.363523579358D-02 0.000000000000D+00 -.635511883199D-03 0.186892587437D-02 0.000000000000D+00  5 -2 1 25 -24 21 2 0.13070474D-02 0.33855626D+00 0.11924304D+05 0.11924304D+05 0.11924304D+05 0.12593463D+01  1  2  5  2  5  2        1 -.181629623360D+01 0.100000000000D+01
0.366939601383D-02 0.000000000000D+00 0.634239424320D-03 0.186892587437D-02 0.000000000000D+00  5 -2 1 25 -24 21 2 0.13070474D-02 0.31777900D+00 0.11924304D+05 0.11924304D+05 0.11924304D+05 0.12593463D+01  1  2  6  2  5  2        1 0.223247883000D+01 0.100000000000D+01
0.107823976982D-04 0.000000000000D+00 0.000000000000D+00 0.186892587437D-02 0.000000000000D+00  5 -2 21 25 -24 -1 2 0.13070474D-02 0.33860978D+00 0.13089299D+05 0.13089299D+05 0.13089299D+05 0.12546255D+01  1  2 12  4  5  2        1 0.412911872368D-02 0.100000000000D+01
-.384700887099D-04 0.000000000000D+00 -.687953195857D-05 0.186892587437D-02 0.000000000000D+00  5 -2 21 25 -24 -1 2 0.13070474D-02 0.33855626D+00 0.11924304D+05 0.11924304D+05 0.11924304D+05 0.12593463D+01  1  2  5  4  5  2        1 -.149528066778D-01 0.100000000000D+01
  </mgrwgt>
  </event>
  <event>
  4     66 0.46019439E-03 0.11982282E+03 0.75467711E-02 0.12131682E+00
       -2 -1    0    0    0  501 0.00000000E+00 0.00000000E+00 0.22258672E+03 0.22258695E+03 0.32000000E+00 0.0000E+00 0.9000E+01
        1 -1    0    0  501    0 0.00000000E+00 0.00000000E+00 -.64517069E+02 0.64517863E+02 0.32000000E+00 0.0000E+00 0.9000E+01
       25  1    1    2    0    0 -.35626051E+02 -.49063821E+02 0.93777349E+02 0.16761762E+03 0.12500000E+03 0.0000E+00 0.9000E+01
      -24  1    1    2    0    0 0.35626051E+02 0.49063821E+02 0.64292302E+02 0.11948720E+03 0.80419002E+02 0.0000E+00 0.9000E+01
#aMCatNLO 1  0  0  1  1 0.37653133D+02 0.00000000D+00  -5  5  0 0.00000000D+00 0.00000000D+00 0.00000000D+00 0.00000000D+00 0.00000000D+00
  <mgrwgt>
 0.1909282586D+00    3    2    0
 0.119836512349605D+03 0.000000000000000D+00 0.000000000000000D+00 0.119836512349605D+03
 0.119836512349605D+03 0.000000000000000D+00 0.000000000000000D+00 -.119836512349605D+03
 0.138941257360276D+03 -.356260513508727D+02 -.490638207498033D+02 0.178856239214506D+01
 0.100731767338933D+03 0.356260513508727D+02 0.490638207498033D+02 -.178856239214506D+01
 0.000000000000000D+00 0.000000000000000D+00 -.000000000000000D+00 -.000000000000000D+00
 0.123418473830089D+03 0.000000000000000D+00 0.000000000000000D+00 0.123418473830089D+03
 0.289117883758420D+03 0.000000000000000D+00 0.000000000000000D+00 -.289117883758420D+03
 0.136738133921403D+03 -.463222757509000D+02 -.303869228803204D+02 0.178856239214506D+01
 0.105874555806578D+03 0.276098279235258D+02 0.630611136872190D+02 -.178856239214506D+01
 0.169923667860528D+03 0.187124478273742D+02 -.326741908068986D+02 -.165699409928331D+03
0.435190387782D-03 0.000000000000D+00 0.000000000000D+00 0.278584920931D-02 0.000000000000D+00  5 -2 1 25 -24 21 0 0.34244189D-01 0.99257817D-02 0.14357507D+05 0.14357507D+05 0.14357507D+05 0.12499958D+01  1  2  2  1  5  1       -2 0.186978891057D+00 0.100000000000D+01
-.241772433816D-04 0.000000000000D+00 -.167124567734D-05 0.278584920931D-02 0.000000000000D+00  5 -2 1 25 -24 21 2 0.34244189D-01 0.99257817D-02 0.14357507D+05 0.14357507D+05 0.14357507D+05 0.12499958D+01  1  2  3  1  5  1       -2 -.162306968540D-01 0.100000000000D+01
0.300602206721D-04 0.000000000000D+00 0.000000000000D+00 0.278584920931D-02 0.000000000000D+00  5 -2 1 25 -24 21 2 0.34244189D-01 0.99257817D-02 0.14357507D+05 0.14357507D+05 0.14357507D+05 0.12499958D+01  1  2 15  1  5  1       -2 0.201800644264D-01 0.100000000000D+01
  </mgrwgt>
  </event>
  <event>
  4     66 0.46019439E-03 0.65889817E+02 0.75467711E-02 0.12547010E+00
       -2 -1    0    0    0  501 0.00000000E+00 0.00000000E+00 0.20813841E+02 0.20816300E+02 0.32000000E+00 0.0000E+00 0.9000E+01
        1 -1    0    0  501    0 0.00000000E+00 0.00000000E+00 -.56569808E+03 0.56569817E+03 0.32000000E+00 0.0000E+00 0.9000E+01
       25  1    1    2    0    0 -.18183722E+02 -.58431448E+01 -.24853011E+03 0.27884943E+03 0.12500000E+03 0.0000E+00 0.9000E+01
      -24  1    1    2    0    0 0.18183722E+02 0.58431448E+01 -.29635413E+03 0.30766504E+03 0.80419002E+02 0.0000E+00 0.9000E+01
#aMCatNLO 1  0  0  1  2 0.16651615D+02 0.00000000D+00  -5  5  0 0.00000000D+00 0.00000000D+00 0.00000000D+00 0.00000000D+00 0.00000000D+00
  <mgrwgt>
 0.1474101532D+00    9    2    0
 0.108513121523993D+03 0.000000000000000D+00 0.000000000000000D+00 0.108513121523993D+03
 0.108513121523993D+03 0.000000000000000D+00 0.000000000000000D+00 -.108513121523993D+03
 0.129611454879938D+03 -.181837220880069D+02 -.584314479924249D+01 0.284488865507127D+02
 0.874147881680476D+02 0.181837220880069D+02 0.584314479924249D+01 -.284488865507127D+02
 0.000000000000000D+00 -.000000000000000D+00 0.000000000000000D+00 0.000000000000000D+00
 0.122477698836300D+03 0.000000000000000D+00 0.000000000000000D+00 0.122477698836300D+03
 0.113911999132418D+03 0.000000000000000D+00 0.000000000000000D+00 -.113911999132418D+03
 0.128663298034910D+03 -.836580689218127D+01 -.706529477711302D+01 0.284488865507127D+02
 0.890008158205630D+02 0.248898883688108D+02 0.500835036394675D+01 -.284488865507127D+02
 0.187255841132454D+02 -.165240814766296D+02 0.205694441316627D+01 0.856569970388177D+01
0.139941726414D-03 0.000000000000D+00 0.000000000000D+00 0.287834697735D-02 0.000000000000D+00  5 -2 1 25 -24 21 0 0.32023255D-02 0.87030670D-01 0.10931402D+05 0.10931402D+05 0.10931402D+05 0.12637992D+01  1  2  2  1  5  1       -2 0.167925490087D+00 0.100000000000D+01
-.776147782943D-05 0.000000000000D+00 -.537413076931D-06 0.287834697735D-02 0.000000000000D+00  5 -2 1 25 -24 21 2 0.32023255D-02 0.87030670D-01 0.10931402D+05 0.10931402D+05 0.10931402D+05 0.12637992D+01  1  2  3  1  5  1       -2 -.148754447267D-01 0.100000000000D+01
0.959177406095D-05 0.000000000000D+00 0.000000000000D+00 0.287834697735D-02 0.000000000000D+00  5 -2 1 25 -24 21 2 0.32023255D-02 0.87030670D-01 0.10931402D+05 0.10931402D+05 0.10931402D+05 0.12637992D+01  1  2 15  1  5  1       -2 0.183833424524D-01 0.100000000000D+01
0.203357516456D-03 0.000000000000D+00 0.000000000000D+00 0.287834697735D-02 0.000000000000D+00  5 -2 1 25 -24 21 2 0.36865464D-02 0.87030670D-01 0.12821242D+05 0.12821242D+05 0.12821242D+05 0.12556687D+01  1  2 12  1  5  1       -2 0.314826469652D+00 0.100000000000D+01
-.199096806418D-03 0.000000000000D+00 0.000000000000D+00 0.287834697735D-02 0.000000000000D+00  5 -2 1 25 -24 21 2 0.32023255D-02 0.87030670D-01 0.10931402D+05 0.10931402D+05 0.10931402D+05 0.12637992D+01  1  2  4  1  5  1       -2 -.381583714367D+00 0.100000000000D+01
-.466466479246D-03 0.000000000000D+00 -.103340888279D-03 0.287834697735D-02 0.000000000000D+00  5 -2 1 25 -24 21 2 0.37941568D-02 0.87030670D-01 0.10931402D+05 0.10931402D+05 0.10931402D+05 0.12637992D+01  1  2  5  1  5  1       -2 -.697022417554D+00 0.100000000000D+01
0.478561928494D-03 0.000000000000D+00 0.101872495908D-03 0.287834697735D-02 0.000000000000D+00  5 -2 1 25 -24 21 2 0.32023255D-02 0.87030670D-01 0.10931402D+05 0.10931402D+05 0.10931402D+05 0.12637992D+01  1  2  6  1  5  1       -2 0.917199233453D+00 0.100000000000D+01
0.440613311883D-05 0.000000000000D+00 0.000000000000D+00 0.287834697735D-02 0.000000000000D+00  5 21 1 25 -24 2 2 0.36865464D-02 0.87030670D-01 0.12821242D+05 0.12821242D+05 0.12821242D+05 0.12556687D+01  1  2 12  3  5  1       -2 0.129571700519D+00 0.100000000000D+01
-.108462878629D-04 0.000000000000D+00 -.260062110529D-05 0.287834697735D-02 0.000000000000D+00  5 21 1 25 -24 2 2 0.37941568D-02 0.87030670D-01 0.10931402D+05 0.10931402D+05 0.10931402D+05 0.12637992D+01  1  2  5  3  5  1       -2 -.307014506316D+00 0.100000000000D+01
  </mgrwgt>
  </event>
  <event>
  4     66 0.46019439E-03 0.46045482E+02 0.75467711E-02 0.12464238E+00
       -2 -1    0    0    0  501 0.00000000E+00 0.00000000E+00 0.22663683E+02 0.22665942E+02 0.32000000E+00 0.0000E+00 0.9000E+01
        1 -1    0    0  501    0 0.00000000E+00 0.00000000E+00 -.55949966E+03 0.55949975E+03 0.32000000E+00 0.0000E+00 0.9000E+01
       25  1    1    2    0    0 -.83717635E+01 0.74323642E+01 -.43022800E+03 0.44815896E+03 0.12500000E+03 0.0000E+00 0.9000E+01
      -24  1    1    2    0    0 0.83717635E+01 -.74323642E+01 -.10660798E+03 0.13400673E+03 0.80419002E+02 0.0000E+00 0.9000E+01
#aMCatNLO 1  0  0  1  2 0.27484869D+02 0.00000000D+00  -5  5  0 0.00000000D+00 0.00000000D+00 0.00000000D+00 0.00000000D+00 0.00000000D+00
  <mgrwgt>
 0.2335536625D+00    9    2    0
 0.112609978119753D+03 0.000000000000000D+00 0.000000000000000D+00 0.112609978119753D+03
 0.112609978119753D+03 0.000000000000000D+00 0.000000000000000D+00 -.112609978119753D+03
 0.132940734324791D+03 -.837176351231903D+01 0.743236418537815D+01 -.438510248583141D+02
 0.922792219147155D+02 0.837176351231903D+01 -.743236418537815D+01 0.438510248583141D+02
 0.000000000000000D+00 0.000000000000000D+00 0.000000000000000D+00 0.000000000000000D+00
 0.179867060322552D+03 0.000000000000000D+00 0.000000000000000D+00 0.179867060322552D+03
 0.116288680081397D+03 0.000000000000000D+00 0.000000000000000D+00 -.116288680081397D+03
 0.133792216466614D+03 -.178883453672639D+02 -.569665743628905D+01 -.438510248583141D+02
 0.930986090249715D+02 0.175779513310181D+01 -.165569569414050D+02 0.438510248583141D+02
 0.692649149123626D+02 0.161305502341621D+02 0.222536143776940D+02 0.635783802411551D+02
0.187911166016D-03 0.000000000000D+00 0.000000000000D+00 0.256592311771D-02 0.000000000000D+00  5 -2 1 25 -24 21 0 0.34869013D-02 0.86077051D-01 0.10680683D+05 0.10680683D+05 0.10680683D+05 0.12649959D+01  1  2  2  1  5  1       -2 0.201781510181D+00 0.100000000000D+01
-.103459937656D-04 0.000000000000D+00 -.721628355646D-06 0.256592311771D-02 0.000000000000D+00  5 -2 1 25 -24 21 2 0.34869013D-02 0.86077051D-01 0.10680683D+05 0.10680683D+05 0.10680683D+05 0.12649959D+01  1  2  3  1  5  1       -2 -.177778484028D-01 0.100000000000D+01
0.128394929503D-04 0.000000000000D+00 0.000000000000D+00 0.256592311771D-02 0.000000000000D+00  5 -2 1 25 -24 21 2 0.34869013D-02 0.86077051D-01 0.10680683D+05 0.10680683D+05 0.10680683D+05 0.12649959D+01  1  2 15  1  5  1       -2 0.220625069386D-01 0.100000000000D+01
0.472359944295D-03 0.000000000000D+00 0.000000000000D+00 0.256592311771D-02 0.000000000000D+00  5 -2 1 25 -24 21 2 0.55979014D-02 0.86077051D-01 0.13925336D+05 0.13925336D+05 0.13925336D+05 0.12515200D+01  1  2 12  1  5  1       -2 0.396897497406D+00 0.100000000000D+01
-.458689832987D-03 0.000000000000D+00 0.000000000000D+00 0.256592311771D-02 0.000000000000D+00  5 -2 1 25 -24 21 2 0.34869013D-02 0.86077051D-01 0.10680683D+05 0.10680683D+05 0.10680683D+05 0.12649959D+01  1  2  4  1  5  1       -2 -.788181251555D+00 0.100000000000D+01
-.517176497205D-03 0.000000000000D+00 -.612329396893D-04 0.256592311771D-02 0.000000000000D+00  5 -2 1 25 -24 21 2 0.57402567D-02 0.86077051D-01 0.10680683D+05 0.10680683D+05 0.10680683D+05 0.12649959D+01  1  2  5  1  5  1       -2 -.424235853241D+00 0.100000000000D+01
0.492166401932D-03 0.000000000000D+00 0.543403723716D-04 0.256592311771D-02 0.000000000000D+00  5 -2 1 25 -24 21 2 0.34869013D-02 0.86077051D-01 0.10680683D+05 0.10680683D+05 0.10680683D+05 0.12649959D+01  1  2  6  1  5  1       -2 0.845705099069D+00 0.100000000000D+01
0.255166333653D-04 0.000000000000D+00 0.000000000000D+00 0.256592311771D-02 0.000000000000D+00  5 21 1 25 -24 2 2 0.55979014D-02 0.86077051D-01 0.13925336D+05 0.13925336D+05 0.13925336D+05 0.12515200D+01  1  2 12  3  5  1       -2 0.377533876271D+00 0.100000000000D+01
-.263375407976D-04 0.000000000000D+00 -.344421353398D-05 0.256592311771D-02 0.000000000000D+00  5 21 1 25 -24 2 2 0.57402567D-02 0.86077051D-01 0.10680683D+05 0.10680683D+05 0.10680683D+05 0.12649959D+01  1  2  5  3  5  1       -2 -.380231874153D+00 0.100000000000D+01
  </mgrwgt>
  </event>
  <event>
  4     66 0.46019439E-03 0.11649603E+03 0.75467711E-02 0.11700153E+00
       -2 -1    0    0    0  501 0.00000000E+00 0.00000000E+00 0.27526741E+03 0.27526760E+03 0.32000000E+00 0.0000E+00 0.9000E+01
        1 -1    0    0  501    0 0.00000000E+00 0.00000000E+00 -.51862180E+02 0.51863167E+02 0.32000000E+00 0.0000E+00 0.9000E+01
       25  1    1    2    0    0 -.44256341E+02 0.30867744E+02 0.93767483E+02 0.16531419E+03 0.12500000E+03 0.0000E+00 0.9000E+01
      -24  1    1    2    0    0 0.44256341E+02 -.30867744E+02 0.12963775E+03 0.16181657E+03 0.80419002E+02 0.0000E+00 0.9000E+01
#aMCatNLO 1  0  0  1  2 0.10127217D+03 0.00000000D+00  -5  5  0 0.00000000D+00 0.00000000D+00 0.00000000D+00 0.00000000D+00 0.00000000D+00
  <mgrwgt>
 0.1921821210D+00    3    2    0
 0.119482885806301D+03 0.000000000000000D+00 0.000000000000000D+00 0.119482885806301D+03
 0.119482885806301D+03 0.000000000000000D+00 0.000000000000000D+00 -.119482885806301D+03
 0.138644174018898D+03 -.442563410608101D+02 0.308677438095847D+02 -.261871277042294D+02
 0.100321597593704D+03 0.442563410608101D+02 -.308677438095847D+02 0.261871277042294D+02
 0.000000000000000D+00 -.000000000000000D+00 0.000000000000000D+00 -.000000000000000D+00
 0.155995002886006D+03 0.000000000000000D+00 0.000000000000000D+00 0.155995002886006D+03
 0.227538335484511D+03 0.000000000000000D+00 0.000000000000000D+00 -.227538335484511D+03
 0.134080532134276D+03 -.334100441195627D+02 -.234647052387578D+02 -.261871277042294D+02
 0.125458852434703D+03 0.532356588464205D+02 -.758479180310959D+02 0.261871277042294D+02
 0.123993953801538D+03 -.198256147268578D+02 0.993126232698537D+02 -.715433325985055D+02
0.488493939251D-03 0.000000000000D+00 0.000000000000D+00 0.267732326359D-02 0.000000000000D+00  5 -2 1 25 -24 21 0 0.42348923D-01 0.79788872D-02 0.13571326D+05 0.13571326D+05 0.13571326D+05 0.12528087D+01  1  2  2  1  5  1       -2 0.188160899930D+00 0.100000000000D+01
-.271174048543D-04 0.000000000000D+00 -.187594535013D-05 0.267732326359D-02 0.000000000000D+00  5 -2 1 25 -24 21 2 0.42348923D-01 0.79788872D-02 0.13571326D+05 0.13571326D+05 0.13571326D+05 0.12528087D+01  1  2  3  1  5  1       -2 -.163941102281D-01 0.100000000000D+01
0.337688839156D-04 0.000000000000D+00 0.000000000000D+00 0.267732326359D-02 0.000000000000D+00  5 -2 1 25 -24 21 2 0.42348923D-01 0.79788872D-02 0.13571326D+05 0.13571326D+05 0.13571326D+05 0.12528087D+01  1  2 15  1  5  1       -2 0.204153313404D-01 0.100000000000D+01
  </mgrwgt>
  </event>
  <event>
  4     66 0.46019439E-03 0.13231527E+03 0.75467711E-02 0.12196631E+00
       -2 -1    0    0    0  501 0.00000000E+00 0.00000000E+00 0.45348658E+02 0.45349787E+02 0.32000000E+00 0.0000E+00 0.9000E+01
        1 -1    0    0  501    0 0.00000000E+00 0.00000000E+00 -.39065991E+03 0.39066004E+03 0.32000000E+00 0.0000E+00 0.9000E+01
       25  1    1    2    0    0 -.81924094E+02 -.70042200E+01 -.17149885E+03 0.22759058E+03 0.12500000E+03 0.0000E+00 0.9000E+01
      -24  1    1    2    0    0 0.81924094E+02 0.70042200E+01 -.17381241E+03 0.20841925E+03 0.80419002E+02 0.0000E+00 0.9000E+01
#aMCatNLO 1  0  0  2  2 0.60878498D+01 0.00000000D+00  -5  5  0 0.00000000D+00 0.00000000D+00 0.00000000D+00 0.00000000D+00 0.00000000D+00
  <mgrwgt>
 0.2275813494D+00    6    2    0
 0.133102131681307D+03 0.000000000000000D+00 0.000000000000000D+00 0.133102131681307D+03
 0.133102131681307D+03 0.000000000000000D+00 0.000000000000000D+00 -.133102131681307D+03
 0.150302802943952D+03 -.819240937791871D+02 -.700421999293180D+01 0.143288636520113D+02
 0.115901460418663D+03 0.819240937791871D+02 0.700421999293180D+01 -.143288636520113D+02
 0.000000000000000D+00 -.000000000000000D+00 -.000000000000000D+00 0.000000000000000D+00
 0.161398838397724D+03 0.000000000000000D+00 0.000000000000000D+00 0.161398838397724D+03
 0.133464776417154D+03 0.000000000000000D+00 0.000000000000000D+00 -.133464776417154D+03
 0.149790265124694D+03 -.812002543227774D+02 -.365046442036988D+01 0.143288636520113D+02
 0.116483600937046D+03 0.824846181444183D+02 0.960128996031797D+01 -.143288636520113D+02
 0.285897487531378D+02 -.128436382164087D+01 -.595082553994809D+01 0.279340619805697D+02
0.384914977669D-03 0.000000000000D+00 0.000000000000D+00 0.255333222091D-02 0.000000000000D+00  5 -2 1 25 -24 21 0 0.69768135D-02 0.60101622D-01 0.17507332D+05 0.17507332D+05 0.17507332D+05 0.12402416D+01  1  2  2  2  5  2        1 0.236413604771D+00 0.100000000000D+01
-.213832513764D-04 0.000000000000D+00 -.147817486469D-05 0.255333222091D-02 0.000000000000D+00  5 -2 1 25 -24 21 2 0.69768135D-02 0.60101622D-01 0.17507332D+05 0.17507332D+05 0.17507332D+05 0.12402416D+01  1  2  3  2  5  2        1 -.202019838411D-01 0.100000000000D+01
0.265306354916D-04 0.000000000000D+00 0.000000000000D+00 0.255333222091D-02 0.000000000000D+00  5 -2 1 25 -24 21 2 0.69768135D-02 0.60101622D-01 0.17507332D+05 0.17507332D+05 0.17507332D+05 0.12402416D+01  1  2 15  2  5  2        1 0.250650128020D-01 0.100000000000D+01
-.218061638970D-04 0.000000000000D+00 0.000000000000D+00 0.255333222091D-02 0.000000000000D+00  5 -2 1 25 -24 21 2 0.69768135D-02 0.60101622D-01 0.17507332D+05 0.17507332D+05 0.17507332D+05 0.12402416D+01  1  2  4  2  5  2        1 -.206015335522D-01 0.100000000000D+01
0.430231604203D-05 0.000000000000D+00 0.000000000000D+00 0.255333222091D-02 0.573562624848D-03  5 -2 1 25 -24 21 2 0.84600418D-02 0.60265373D-01 0.18331823D+05 0.18331823D+05 0.18331823D+05 0.12380120D+01  1  2 11  2  5  2        1 0.300375813025D-02 0.100000000000D+01
0.146257316123D-05 0.000000000000D+00 0.000000000000D+00 0.255333222091D-02 0.323424750223D-06  5 -2 21 25 -24 -1 2 0.84600418D-02 0.60265373D-01 0.18331823D+05 0.18331823D+05 0.18331823D+05 0.12380120D+01  1  2 11  4  5  2        1 0.390249112074D-02 0.100000000000D+01
  </mgrwgt>
  </event>
  <event>
  4     66 0.46019439E-03 0.61408066E+02 0.75467711E-02 0.12036207E+00
       -2 -1    0    0    0  501 0.00000000E+00 0.00000000E+00 0.13457216E+03 0.13457254E+03 0.32000000E+00 0.0000E+00 0.9000E+01
        1 -1    0    0  501    0 0.00000000E+00 0.00000000E+00 -.17610629E+03 0.17610658E+03 0.32000000E+00 0.0000E+00 0.9000E+01
       25  1    1    2    0    0 -.85582816E+02 -.41913302E+02 0.39372158E+02 0.16203799E+03 0.12500000E+03 0.0000E+00 0.9000E+01
      -24  1    1    2    0    0 0.85582816E+02 0.41913302E+02 -.80906290E+02 0.14864114E+03 0.80419002E+02 0.0000E+00 0.9000E+01
#aMCatNLO 1  0  0  1  2 0.12662935D+02 0.00000000D+00  -5  5  0 0.00000000D+00 0.00000000D+00 0.00000000D+00 0.00000000D+00 0.00000000D+00
  <mgrwgt>
 0.1442497319D+00    9    2    0
 0.153945148102256D+03 0.000000000000000D+00 0.000000000000000D+00 0.153945148102256D+03
 0.153945148102256D+03 0.000000000000000D+00 0.000000000000000D+00 -.153945148102256D+03
 0.168816977709297D+03 -.855828163002586D+02 -.419133015444808D+02 0.615875691244491D+02
 0.139073318495216D+03 0.855828163002586D+02 0.419133015444808D+02 -.615875691244491D+02
 0.000000000000000D+00 -.000000000000000D+00 0.000000000000000D+00 0.000000000000000D+00
 0.162728359853629D+03 0.000000000000000D+00 0.000000000000000D+00 0.162728359853629D+03
 0.158708041990237D+03 0.000000000000000D+00 0.000000000000000D+00 -.158708041990237D+03
 0.165932917192595D+03 -.788878127304383D+02 -.435019234056724D+02 0.615875691244491D+02
 0.142217670038867D+03 0.912086408369502D+02 0.405783795010477D+02 -.615875691244491D+02
 0.132858146124048D+02 -.123208281065119D+02 0.292354390462466D+01 0.402031786339184D+01
0.401915574697D-03 0.000000000000D+00 0.000000000000D+00 0.202942400033D-02 0.000000000000D+00  5 -2 1 25 -24 21 0 0.20703461D-01 0.27093327D-01 0.19863370D+05 0.19863370D+05 0.19863370D+05 0.12341539D+01  1  2  2  1  5  1       -2 0.116518445617D+00 0.100000000000D+01
-.221170658264D-04 0.000000000000D+00 -.154346163364D-05 0.202942400033D-02 0.000000000000D+00  5 -2 1 25 -24 21 2 0.20703461D-01 0.27093327D-01 0.19863370D+05 0.19863370D+05 0.19863370D+05 0.12341539D+01  1  2  3  1  5  1       -2 -.976620905152D-02 0.100000000000D+01
0.277491277582D-04 0.000000000000D+00 0.000000000000D+00 0.202942400033D-02 0.000000000000D+00  5 -2 1 25 -24 21 2 0.20703461D-01 0.27093327D-01 0.19863370D+05 0.19863370D+05 0.19863370D+05 0.12341539D+01  1  2 15  1  5  1       -2 0.122531526022D-01 0.100000000000D+01
0.896459551770D-03 0.000000000000D+00 0.000000000000D+00 0.202942400033D-02 0.000000000000D+00  5 -2 1 25 -24 21 2 0.22190672D-01 0.27093327D-01 0.21746479D+05 0.21746479D+05 0.21746479D+05 0.12298432D+01  1  2 12  1  5  1       -2 0.349877646233D+00 0.100000000000D+01
-.825039634489D-03 0.000000000000D+00 0.000000000000D+00 0.202942400033D-02 0.000000000000D+00  5 -2 1 25 -24 21 2 0.20703461D-01 0.27093327D-01 0.19863370D+05 0.19863370D+05 0.19863370D+05 0.12341539D+01  1  2  4  1  5  1       -2 -.364311867111D+00 0.100000000000D+01
-.305843658345D-02 0.000000000000D+00 -.557408476726D-03 0.202942400033D-02 0.000000000000D+00  5 -2 1 25 -24 21 2 0.22521461D-01 0.27093327D-01 0.19863370D+05 0.19863370D+05 0.19863370D+05 0.12341539D+01  1  2  5  1  5  1       -2 -.116934320181D+01 0.100000000000D+01
0.309634694511D-02 0.000000000000D+00 0.555439886004D-03 0.202942400033D-02 0.000000000000D+00  5 -2 1 25 -24 21 2 0.20703461D-01 0.27093327D-01 0.19863370D+05 0.19863370D+05 0.19863370D+05 0.12341539D+01  1  2  6  1  5  1       -2 0.136725060184D+01 0.100000000000D+01
0.110220696471D-04 0.000000000000D+00 0.000000000000D+00 0.202942400033D-02 0.000000000000D+00  5 21 1 25 -24 2 2 0.22190672D-01 0.27093327D-01 0.21746479D+05 0.21746479D+05 0.21746479D+05 0.12298432D+01  1  2 12  3  5  1       -2 0.590879661948D-01 0.100000000000D+01
-.414013313343D-04 0.000000000000D+00 -.778785813183D-05 0.202942400033D-02 0.000000000000D+00  5 21 1 25 -24 2 2 0.22521461D-01 0.27093327D-01 0.19863370D+05 0.19863370D+05 0.19863370D+05 0.12341539D+01  1  2  5  3  5  1       -2 -.217316802563D+00 0.100000000000D+01
  </mgrwgt>
  </event>
  <event>
  4     66 0.46019439E-03 0.64524451E+02 0.75467711E-02 0.11729889E+00
       -2 -1    0    0    0  501 0.00000000E+00 0.00000000E+00 0.16701329E+03 0.16701360E+03 0.32000000E+00 0.0000E+00 0.9000E+01
        1 -1    0    0  501    0 0.00000000E+00 0.00000000E+00 -.18748737E+03 0.18748765E+03 0.32000000E+00 0.0000E+00 0.9000E+01
       25  1    1    2    0    0 -.23860540E+02 -.13324935E+03 -.56992236E+02 0.19286739E+03 0.12500000E+03 0.0000E+00 0.9000E+01
      -24  1    1    2    0    0 0.23860540E+02 0.13324935E+03 0.36518158E+02 0.16163386E+03 0.80419002E+02 0.0000E+00 0.9000E+01
#aMCatNLO 1  0  0  2  1 0.77283387D+01 0.00000000D+00  -5  5  0 0.00000000D+00 0.00000000D+00 0.00000000D+00 0.00000000D+00 0.00000000D+00
  <mgrwgt>
 0.2376727884D+00   11    2    0
 0.176954759201861D+03 0.000000000000000D+00 0.000000000000000D+00 0.176954759201861D+03
 0.176954759201861D+03 0.000000000000000D+00 0.000000000000000D+00 -.176954759201861D+03
 0.189892789361285D+03 -.238605395585665D+02 -.133249346302617D+03 -.459299228532849D+02
 0.164016729042436D+03 0.238605395585665D+02 0.133249346302617D+03 0.459299228532849D+02
 0.000000000000000D+00 0.000000000000000D+00 0.000000000000000D+00 -.000000000000000D+00
 0.179279874598279D+03 0.000000000000000D+00 0.000000000000000D+00 0.179279874598279D+03
 0.183537578749113D+03 0.000000000000000D+00 0.000000000000000D+00 -.183537578749113D+03
 0.192889773110493D+03 -.248189094647553D+02 -.137316890768358D+03 -.459299228532849D+02
 0.161104117282172D+03 0.230465368699903D+02 0.129794529838082D+03 0.459299228532849D+02
 0.882356295472741D+01 0.177237259476494D+01 0.752236093027558D+01 -.425770415083382D+01
0.689335594438D-03 0.000000000000D+00 0.000000000000D+00 0.210523486409D-02 0.000000000000D+00  5 -2 1 25 -24 21 0 0.25694398D-01 0.28844256D-01 0.29191262D+05 0.29191262D+05 0.29191262D+05 0.12161460D+01  1  2  2  2  5  2        1 0.128201873865D+00 0.100000000000D+01
-.382391156404D-04 0.000000000000D+00 -.264723018887D-05 0.210523486409D-02 0.000000000000D+00  5 -2 1 25 -24 21 2 0.25694398D-01 0.28844256D-01 0.29191262D+05 0.29191262D+05 0.29191262D+05 0.12161460D+01  1  2  3  2  5  2        1 -.105182367768D-01 0.100000000000D+01
0.474247740363D-04 0.000000000000D+00 0.000000000000D+00 0.210523486409D-02 0.000000000000D+00  5 -2 1 25 -24 21 2 0.25694398D-01 0.28844256D-01 0.29191262D+05 0.29191262D+05 0.29191262D+05 0.12161460D+01  1  2 15  2  5  2        1 0.130448885662D-01 0.100000000000D+01
0.237350811536D-02 0.000000000000D+00 0.000000000000D+00 0.210523486409D-02 0.000000000000D+00  5 -2 1 25 -24 21 2 0.25694398D-01 0.30101903D-01 0.30535504D+05 0.30535504D+05 0.30535504D+05 0.12140928D+01  1  2 12  2  5  2        1 0.617262683478D+00 0.100000000000D+01
-.236860857427D-02 0.000000000000D+00 0.000000000000D+00 0.210523486409D-02 0.000000000000D+00  5 -2 1 25 -24 21 2 0.25694398D-01 0.28844256D-01 0.29191262D+05 0.29191262D+05 0.29191262D+05 0.12161460D+01  1  2  4  2  5  2        1 -.651520972660D+00 0.100000000000D+01
-.170037035012D-01 0.000000000000D+00 -.236221176190D-02 0.210523486409D-02 0.000000000000D+00  5 -2 1 25 -24 21 2 0.25694398D-01 0.30269469D-01 0.29191262D+05 0.29191262D+05 0.29191262D+05 0.12161460D+01  1  2  5  2  5  2        1 -.440285062533D+01 0.100000000000D+01
0.171004827310D-01 0.000000000000D+00 0.235946716032D-02 0.210523486409D-02 0.000000000000D+00  5 -2 1 25 -24 21 2 0.25694398D-01 0.28844256D-01 0.29191262D+05 0.29191262D+05 0.29191262D+05 0.12161460D+01  1  2  6  2  5  2        1 0.470374179290D+01 0.100000000000D+01
0.484533905883D-04 0.000000000000D+00 0.000000000000D+00 0.210523486409D-02 0.277292897366D-03  5 -2 1 25 -24 21 2 0.26032012D-01 0.29917279D-01 0.30535504D+05 0.30535504D+05 0.30535504D+05 0.12140928D+01  1  2 11  2  5  2        1 0.124092841296D-01 0.100000000000D+01
0.381526017101D-04 0.000000000000D+00 0.000000000000D+00 0.210523486409D-02 0.000000000000D+00  5 -2 21 25 -24 -1 2 0.25694398D-01 0.30101903D-01 0.30535504D+05 0.30535504D+05 0.30535504D+05 0.12140928D+01  1  2 12  4  5  2        1 0.645290058357D-01 0.100000000000D+01
-.141289743071D-03 0.000000000000D+00 -.198977377166D-04 0.210523486409D-02 0.000000000000D+00  5 -2 21 25 -24 -1 2 0.25694398D-01 0.30269469D-01 0.29191262D+05 0.29191262D+05 0.29191262D+05 0.12161460D+01  1  2  5  4  5  2        1 -.237264250031D+00 0.100000000000D+01
0.381024868572D-06 0.000000000000D+00 0.000000000000D+00 0.210523486409D-02 0.179677083919D-05  5 -2 21 25 -24 -1 2 0.26032012D-01 0.29917279D-01 0.30535504D+05 0.30535504D+05 0.30535504D+05 0.12140928D+01  1  2 11  4  5  2        1 0.637344397816D-03 0.100000000000D+01
  </mgrwgt>
  </event>
  <event>
  4     66 0.46019439E-03 0.10948737E+03 0.75467711E-02 0.11677203E+00
       -2 -1    0    0    0  501 0.00000000E+00 0.00000000E+00 0.35429974E+02 0.35431419E+02 0.32000000E+00 0.0000E+00 0.9000E+01
        1 -1    0    0  501    0 0.00000000E+00 0.00000000E+00 -.93375331E+03 0.93375337E+03 0.32000000E+00 0.0000E+00 0.9000E+01
       25  1    1    2    0    0 -.90488761E+02 0.11317270E+03 -.38796735E+03 0.43259674E+03 0.12500000E+03 0.0000E+00 0.9000E+01
      -24  1    1    2    0    0 0.90488761E+02 -.11317270E+03 -.51035599E+03 0.53658804E+03 0.80419002E+02 0.0000E+00 0.9000E+01
#aMCatNLO 1  0  0  2  1 0.30747697D+01 0.00000000D+00  -5  5  0 0.00000000D+00 0.00000000D+00 0.00000000D+00 0.00000000D+00 0.00000000D+00
  <mgrwgt>
 0.2852675547D+00   11    2    0
 0.181888927536886D+03 0.000000000000000D+00 0.000000000000000D+00 0.181888927536886D+03
 0.181888927536886D+03 0.000000000000000D+00 0.000000000000000D+00 -.181888927536886D+03
 0.194475982958075D+03 -.904887608871043D+02 0.113172704537083D+03 0.346356903841688D+02
 0.169301872115697D+03 0.904887608871043D+02 -.113172704537083D+03 -.346356903841688D+02
 0.000000000000000D+00 -.000000000000000D+00 -.000000000000000D+00 -.000000000000000D+00
 0.182121937045702D+03 0.000000000000000D+00 0.000000000000000D+00 0.182121937045702D+03
 0.192329963083814D+03 0.000000000000000D+00 0.000000000000000D+00 -.192329963083814D+03
 0.195364471362371D+03 -.903360154553752D+02 0.114813108720027D+03 0.346356903841688D+02
 0.168426377960134D+03 0.906210879629458D+02 -.111751582567870D+03 -.346356903841688D+02
 0.106610508070113D+02 -.285072507570540D+00 -.306152615215782D+01 -.102080260381112D+02
0.447894917924D-03 0.000000000000D+00 0.000000000000D+00 0.215031066356D-02 0.000000000000D+00  5 -2 1 25 -24 21 0 0.54508805D-02 0.14365447D+00 0.31877959D+05 0.31877959D+05 0.31877959D+05 0.12121406D+01  1  2  2  2  5  2        1 0.120294760732D+00 0.100000000000D+01
-.248726279344D-04 0.000000000000D+00 -.172003441827D-05 0.215031066356D-02 0.000000000000D+00  5 -2 1 25 -24 21 2 0.54508805D-02 0.14365447D+00 0.31877959D+05 0.31877959D+05 0.31877959D+05 0.12121406D+01  1  2  3  2  5  2        1 -.981517876549D-02 0.100000000000D+01
0.307971950494D-04 0.000000000000D+00 0.000000000000D+00 0.215031066356D-02 0.000000000000D+00  5 -2 1 25 -24 21 2 0.54508805D-02 0.14365447D+00 0.31877959D+05 0.31877959D+05 0.31877959D+05 0.12121406D+01  1  2 15  2  5  2        1 0.121531177036D-01 0.100000000000D+01
0.299316789781D-03 0.000000000000D+00 0.000000000000D+00 0.215031066356D-02 0.000000000000D+00  5 -2 1 25 -24 21 2 0.54508805D-02 0.15198982D+00 0.32430807D+05 0.32430807D+05 0.32430807D+05 0.12113631D+01  1  2 12  2  5  2        1 0.107406536469D+00 0.100000000000D+01
-.262187403655D-01 0.000000000000D+00 0.000000000000D+00 0.215031066356D-02 0.000000000000D+00  5 -2 1 25 -24 21 2 0.54508805D-02 0.14365447D+00 0.31877959D+05 0.31877959D+05 0.31877959D+05 0.12121406D+01  1  2  4  2  5  2        1 -.103463785319D+02 0.100000000000D+01
-.316755228321D-01 0.000000000000D+00 -.116319070050D-02 0.215031066356D-02 0.000000000000D+00  5 -2 1 25 -24 21 2 0.54508805D-02 0.15198421D+00 0.31877959D+05 0.31877959D+05 0.31877959D+05 0.12121406D+01  1  2  5  2  5  2        1 -.113799135515D+02 0.100000000000D+01
0.316925737594D-01 0.000000000000D+00 0.116134535838D-02 0.215031066356D-02 0.000000000000D+00  5 -2 1 25 -24 21 2 0.54508805D-02 0.14365447D+00 0.31877959D+05 0.31877959D+05 0.31877959D+05 0.12121406D+01  1  2  6  2  5  2        1 0.125064499741D+02 0.100000000000D+01
0.259546607666D-01 0.000000000000D+00 0.000000000000D+00 0.215031066356D-02 0.178257796892D-02  5 -2 1 25 -24 21 2 0.54578634D-02 0.15190072D+00 0.32430807D+05 0.32430807D+05 0.32430807D+05 0.12113631D+01  1  2 11  2  5  2        1 0.930467784151D+01 0.100000000000D+01
0.478810296602D-05 0.000000000000D+00 0.000000000000D+00 0.215031066356D-02 0.000000000000D+00  5 -2 21 25 -24 -1 2 0.54508805D-02 0.15198982D+00 0.32430807D+05 0.32430807D+05 0.32430807D+05 0.12113631D+01  1  2 12  4  5  2        1 0.271772258484D-02 0.100000000000D+01
-.308036366225D-03 0.000000000000D+00 -.113181163065D-04 0.215031066356D-02 0.000000000000D+00  5 -2 21 25 -24 -1 2 0.54508805D-02 0.15198421D+00 0.31877959D+05 0.31877959D+05 0.31877959D+05 0.12121406D+01  1  2  5  4  5  2        1 -.175172602136D+00 0.100000000000D+01
0.251770248140D-03 0.000000000000D+00 0.000000000000D+00 0.215031066356D-02 0.172318838263D-04  5 -2 21 25 -24 -1 2 0.54578634D-02 0.15190072D+00 0.32430807D+05 0.32430807D+05 0.32430807D+05 0.12113631D+01  1  2 11  4  5  2        1 0.142847465892D+00 0.100000000000D+01
  </mgrwgt>
  </event>
  <event>
  4     66 0.46019439E-03 0.11583875E+03 0.75467711E-02 0.12009804E+00
       -2 -1    0    0    0  501 0.00000000E+00 0.00000000E+00 0.23503405E+02 0.23505583E+02 0.32000000E+00 0.0000E+00 0.9000E+01
        1 -1    0    0  501    0 0.00000000E+00 0.00000000E+00 -.77159198E+03 0.77159204E+03 0.32000000E+00 0.0000E+00 0.9000E+01
       25  1    1    2    0    0 0.15304448E+02 -.50288177E+02 -.62182088E+03 0.63643486E+03 0.12500000E+03 0.0000E+00 0.9000E+01
      -24  1    1    2    0    0 -.15304448E+02 0.50288177E+02 -.12626769E+03 0.15866276E+03 0.80419002E+02 0.0000E+00 0.9000E+01
#aMCatNLO 1  0  0  2  1 0.59291348D+02 0.00000000D+00  -5  5  0 0.00000000D+00 0.00000000D+00 0.00000000D+00 0.00000000D+00 0.00000000D+00
  <mgrwgt>
 0.2938483964D+00    3    2    0
 0.134669711480071D+03 0.000000000000000D+00 0.000000000000000D+00 0.134669711480071D+03
 0.134669711480071D+03 0.000000000000000D+00 0.000000000000000D+00 -.134669711480071D+03
 0.151670163818206D+03 0.153044479392714D+02 -.502881769985661D+02 -.679390294313693D+02
 0.117669259141936D+03 -.153044479392714D+02 0.502881769985661D+02 0.679390294313693D+02
 0.000000000000000D+00 -.000000000000000D+00 -.000000000000000D+00 0.000000000000000D+00
 0.271324130214282D+03 0.000000000000000D+00 0.000000000000000D+00 0.271324130214282D+03
 0.144480872651580D+03 0.000000000000000D+00 0.000000000000000D+00 -.144480872651580D+03
 0.144242647933877D+03 0.154112685691167D+02 -.181031092354482D+02 -.679390294313693D+02
 0.131545656197772D+03 -.152144846353313D+02 0.773941305742032D+02 0.679390294313693D+02
 0.140016698734213D+03 -.196783933785407D+00 -.592910213387551D+02 0.126843257562702D+03
0.438129803650D-03 0.000000000000D+00 0.000000000000D+00 0.197877371330D-02 0.000000000000D+00  5 -2 1 25 -24 21 0 0.36160811D-02 0.11870663D+00 0.13418616D+05 0.13418616D+05 0.13418616D+05 0.12533763D+01  1  2  2  2  5  2        1 0.287428876326D+00 0.100000000000D+01
-.236690972254D-04 0.000000000000D+00 -.168253380824D-05 0.197877371330D-02 0.000000000000D+00  5 -2 1 25 -24 21 2 0.36160811D-02 0.11870663D+00 0.13418616D+05 0.13418616D+05 0.13418616D+05 0.12533763D+01  1  2  3  2  5  2        1 -.243933960500D-01 0.100000000000D+01
0.298980062810D-04 0.000000000000D+00 0.000000000000D+00 0.197877371330D-02 0.000000000000D+00  5 -2 1 25 -24 21 2 0.36160811D-02 0.11870663D+00 0.13418616D+05 0.13418616D+05 0.13418616D+05 0.12533763D+01  1  2 15  2  5  2        1 0.308129161570D-01 0.100000000000D+01
  </mgrwgt>
  </event>
  <event>
  4     66 0.46019439E-03 0.11142046E+03 0.75467711E-02 0.11702513E+00
       -2 -1    0    0    0  501 0.00000000E+00 0.00000000E+00 0.10531354E+03 0.10531403E+03 0.32000000E+00 0.0000E+00 0.9000E+01
        1 -1    0    0  501    0 0.00000000E+00 0.00000000E+00 -.19312393E+03 0.19312419E+03 0.32000000E+00 0.0000E+00 0.9000E+01
       25  1    1    2    0    0 0.30098913E+02 0.29743533E+02 -.14101634E+03 0.19313527E+03 0.12500000E+03 0.0000E+00 0.9000E+01
      -24  1    1    2    0    0 -.30098913E+02 -.29743533E+02 0.53205960E+02 0.10530296E+03 0.80419002E+02 0.0000E+00 0.9000E+01
#aMCatNLO 1  0  0  1  1 0.10734047D+03 0.00000000D+00  -5  5  0 0.00000000D+00 0.00000000D+00 0.00000000D+00 0.00000000D+00 0.00000000D+00
  <mgrwgt>
 0.1802377941D+00    5    2    0
 0.142613734500056D+03 0.000000000000000D+00 0.000000000000000D+00 0.142613734500056D+03
 0.142613734500056D+03 0.000000000000000D+00 0.000000000000000D+00 -.142613734500056D+03
 0.158667209429615D+03 0.300989128923037D+02 0.297435327528406D+02 -.880889382968337D+02
 0.126560259570497D+03 -.300989128923037D+02 -.297435327528406D+02 0.880889382968337D+02
 0.000000000000000D+00 -.000000000000000D+00 0.000000000000000D+00 0.000000000000000D+00
 0.206132847747457D+03 0.000000000000000D+00 0.000000000000000D+00 0.206132847747457D+03
 0.205964524576100D+03 0.000000000000000D+00 0.000000000000000D+00 -.205964524576100D+03
 0.168113507037142D+03 0.679585137501595D+02 -.160975341879853D+02 -.880889382968337D+02
 0.136643259063137D+03 0.394869811873505D+00 -.666659382338040D+02 0.880889382968337D+02
 0.107340606223277D+03 -.683533835620330D+02 0.827634724217893D+02 0.168323171356454D+00
0.437273798026D-03 0.000000000000D+00 0.000000000000D+00 0.162061536323D-02 0.000000000000D+00  5 -2 1 25 -24 21 0 0.16202141D-01 0.29711431D-01 0.12414518D+05 0.12414518D+05 0.12414518D+05 0.12572993D+01  1  2  2  1  5  1       -2 0.167988724322D+00 0.100000000000D+01
-.224934781565D-04 0.000000000000D+00 -.167924652126D-05 0.162061536323D-02 0.000000000000D+00  5 -2 1 25 -24 21 2 0.16202141D-01 0.29711431D-01 0.12414518D+05 0.12414518D+05 0.12414518D+05 0.12572993D+01  1  2  3  1  5  1       -2 -.136603116446D-01 0.100000000000D+01
0.298945541157D-04 0.000000000000D+00 0.000000000000D+00 0.162061536323D-02 0.000000000000D+00  5 -2 1 25 -24 21 2 0.16202141D-01 0.29711431D-01 0.12414518D+05 0.12414518D+05 0.12414518D+05 0.12572993D+01  1  2 15  1  5  1       -2 0.181549924318D-01 0.100000000000D+01
-.263785691520D-04 0.000000000000D+00 -.121341576480D-03 0.162061536323D-02 0.000000000000D+00  5 -2 1 25 -24 21 2 0.33266473D-01 0.29711431D-01 0.12414518D+05 0.12414518D+05 0.12414518D+05 0.12572993D+01  1  2  5  1  5  1       -2 -.463616938378D-02 0.100000000000D+01
0.536710641832D-05 0.000000000000D+00 -.943934716809D-05 0.162061536323D-02 0.000000000000D+00  5 21 1 25 -24 2 2 0.33266473D-01 0.29711431D-01 0.12414518D+05 0.12414518D+05 0.12414518D+05 0.12572993D+01  1  2  5  3  5  1       -2 0.123905583471D-01 0.100000000000D+01
  </mgrwgt>
  </event>
  <event>
  4     66 0.46019439E-03 0.11065946E+03 0.75467711E-02 0.11271630E+00
       -4 -1    0    0    0  501 0.00000000E+00 0.00000000E+00 0.30245438E+03 0.30245836E+03 0.15500000E+01 0.0000E+00 0.9000E+01
        3 -1    0    0  501    0 0.00000000E+00 0.00000000E+00 -.49174958E+02 0.49177500E+02 0.50000000E+00 0.0000E+00 0.9000E+01
       25  1    1    2    0    0 0.36080875E+02 0.18044902E+02 0.73289721E+02 0.15041220E+03 0.12500000E+03 0.0000E+00 0.9000E+01
      -24  1    1    2    0    0 -.36080875E+02 -.18044902E+02 0.17998971E+03 0.20122365E+03 0.80419002E+02 0.0000E+00 0.9000E+01
#aMCatNLO 1  0  0  2  2 0.17656147D+03 0.00000000D+00  -5  5  0 0.00000000D+00 0.00000000D+00 0.00000000D+00 0.00000000D+00 0.00000000D+00
  <mgrwgt>
 0.7227433469D-01    3    2    0
 0.121960349576208D+03 0.000000000000000D+00 0.000000000000000D+00 0.121960349576208D+03
 0.121960349576208D+03 0.000000000000000D+00 0.000000000000000D+00 -.121960349576208D+03
 0.140732401471457D+03 0.360808749902067D+02 0.180449021027543D+02 -.505288115036018D+02
 0.103188297680958D+03 -.360808749902067D+02 -.180449021027543D+02 0.505288115036018D+02
 0.000000000000000D+00 -.000000000000000D+00 0.000000000000000D+00 0.000000000000000D+00
 0.490040109871505D+03 0.000000000000000D+00 0.000000000000000D+00 0.490040109871505D+03
 0.173515357160476D+03 0.000000000000000D+00 0.000000000000000D+00 -.173515357160476D+03
 0.191885535907070D+03 0.133741861785005D+03 -.274774908726672D+02 -.505288115036018D+02
 0.109231149945656D+03 0.262882594982099D+02 -.471168206128982D+02 0.505288115036018D+02
 0.362438781179255D+03 -.160030121283215D+03 0.745943114855654D+02 0.316524752711029D+03
0.720483328228D-03 0.000000000000D+00 0.000000000000D+00 0.233736671906D-02 0.000000000000D+00  5 -4 3 25 -24 21 0 0.46531945D-01 0.75658792D-02 0.12245517D+05 0.12245517D+05 0.12245517D+05 0.12579945D+01  1  2  2  2  5  2        3 0.707680241738D-01 0.100000000000D+01
-.395666918402D-04 0.000000000000D+00 -.276684568801D-05 0.233736671906D-02 0.000000000000D+00  5 -4 3 25 -24 21 2 0.46531945D-01 0.75658792D-02 0.12245517D+05 0.12245517D+05 0.12245517D+05 0.12579945D+01  1  2  3  2  5  2        3 -.615035794303D-02 0.100000000000D+01
0.492571398981D-04 0.000000000000D+00 0.000000000000D+00 0.233736671906D-02 0.000000000000D+00  5 -4 3 25 -24 21 2 0.46531945D-01 0.75658792D-02 0.12245517D+05 0.12245517D+05 0.12245517D+05 0.12579945D+01  1  2 15  2  5  2        3 0.765666846364D-02 0.100000000000D+01
  </mgrwgt>
  </event>
  <event>
  5     66 0.46019439E-03 0.11990805E+03 0.75467711E-02 0.12371332E+00
       -2 -1    0    0    0  501 0.00000000E+00 0.00000000E+00 0.88203591E+01 0.88261620E+01 0.32000000E+00 0.0000E+00 0.9000E+01
        1 -1    0    0  502    0 0.00000000E+00 0.00000000E+00 -.17517671E+04 0.17517672E+04 0.32000000E+00 0.0000E+00 0.9000E+01
       25  1    1    2    0    0 0.59866626E+02 0.25667997E+02 -.93296262E+03 0.94355027E+03 0.12500000E+03 0.0000E+00 0.9000E+01
      -24  1    1    2    0    0 -.52905903E+02 -.23013923E+02 -.77283932E+03 0.77915114E+03 0.80419002E+02 0.0000E+00 0.9000E+01
       21  1    1    2  502  501 -.69607229E+01 -.26540746E+01 -.37144839E+02 0.37891917E+02 0.75000000E+00 0.0000E+00 0.9000E+01
#aMCatNLO 2  0  0  2  1 0.74495486D+01 0.00000000D+00  -5  5  0 0.00000000D+00 0.00000000D+00 0.00000000D+00 0.00000000D+00 0.00000000D+00
  <mgrwgt>
 0.2553518063D+00    2    2    0
 0.120295888999264D+03 0.000000000000000D+00 0.000000000000000D+00 0.120295888999264D+03
 0.120295888999264D+03 0.000000000000000D+00 0.000000000000000D+00 -.120295888999264D+03
 0.139327678285275D+03 0.558084432814246D+02 0.241206408966542D+02 0.952965254370302D+01
 0.101264099713253D+03 -.558084432814246D+02 -.241206408966542D+02 -.952965254370302D+01
 0.000000000000000D+00 -.000000000000000D+00 -.000000000000000D+00 0.000000000000000D+00
 0.125656052872837D+03 0.000000000000000D+00 0.000000000000000D+00 0.125656052872837D+03
 0.122970026316962D+03 0.000000000000000D+00 0.000000000000000D+00 -.122970026316962D+03
 0.141275168580343D+03 0.598666258766263D+02 0.256679973108262D+02 0.952965254370302D+01
 0.994319136074316D+02 -.529059029926069D+02 -.230139227468586D+02 -.952965254370302D+01
 0.791899700202486D+01 -.696072288401935D+01 -.265407456396762D+01 0.268602655587548D+01
-.985033441350D-04 0.000000000000D+00 0.000000000000D+00 0.276258189643D-02 0.000000000000D+00  5 -2 1 25 -24 21 2 0.12993367D-02 0.26360469D+00 0.14377940D+05 0.14377940D+05 0.14377940D+05 0.12499250D+01  1  2  8  2  5  2        1 -.996659559711D-01 0.100000000000D+01
0.396430995770D-03 0.000000000000D+00 0.000000000000D+00 0.276258189643D-02 0.413169277030D-03  5 -2 1 25 -24 21 2 0.13572328D-02 0.26946454D+00 0.15298862D+05 0.15298862D+05 0.15298862D+05 0.12468470D+01  1  2  1  2  5  2        1 0.355017762270D+00 0.100000000000D+01
  </mgrwgt>
  </event>
  <event>
  4     66 0.46019439E-03 0.68818638E+02 0.75467711E-02 0.11961664E+00
       -2 -1    0    0    0  501 0.00000000E+00 0.00000000E+00 0.48435833E+02 0.48436890E+02 0.32000000E+00 0.0000E+00 0.9000E+01
        1 -1    0    0  501    0 0.00000000E+00 0.00000000E+00 -.45948575E+03 0.45948586E+03 0.32000000E+00 0.0000E+00 0.9000E+01
       25  1    1    2    0    0 -.96117640E+02 -.44961916E+02 -.24982789E+03 0.29882963E+03 0.12500000E+03 0.0000E+00 0.9000E+01
      -24  1    1    2    0    0 0.96117640E+02 0.44961916E+02 -.16122203E+03 0.20909312E+03 0.80419002E+02 0.0000E+00 0.9000E+01
#aMCatNLO 1  0  0  2  1 0.98495194D+01 0.00000000D+00  -5  5  0 0.00000000D+00 0.00000000D+00 0.00000000D+00 0.00000000D+00 0.00000000D+00
  <mgrwgt>
 0.3368401689D+00   11    2    0
 0.149184020292595D+03 0.000000000000000D+00 0.000000000000000D+00 0.149184020292595D+03
 0.149184020292595D+03 0.000000000000000D+00 0.000000000000000D+00 -.149184020292595D+03
 0.164530476346783D+03 -.961176400868074D+02 -.449619157961327D+02 -.136052577698401D+02
 0.133837564238408D+03 0.961176400868074D+02 0.449619157961327D+02 0.136052577698401D+02
 0.000000000000000D+00 0.000000000000000D+00 0.000000000000000D+00 -.000000000000000D+00
 0.152349848243954D+03 0.000000000000000D+00 0.000000000000000D+00 0.152349848243954D+03
 0.157128068496466D+03 0.000000000000000D+00 0.000000000000000D+00 -.157128068496466D+03
 0.167482213421685D+03 -.988338718836287D+02 -.497197600771928D+02 -.136052577698401D+02
 0.131048355657400D+03 0.939505796691679D+02 0.411660188381324D+02 0.136052577698401D+02
 0.109473476613348D+02 0.488329221446081D+01 0.855374123906050D+01 -.477822025251181D+01
0.316040929982D-03 0.000000000000D+00 0.000000000000D+00 0.239763094472D-02 0.000000000000D+00  5 -2 1 25 -24 21 0 0.74517565D-02 0.70690205D-01 0.22068772D+05 0.22068772D+05 0.22068772D+05 0.12291474D+01  1  2  2  2  5  2        1 0.143670230809D+00 0.100000000000D+01
-.175574490673D-04 0.000000000000D+00 -.121368038662D-05 0.239763094472D-02 0.000000000000D+00  5 -2 1 25 -24 21 2 0.74517565D-02 0.70690205D-01 0.22068772D+05 0.22068772D+05 0.22068772D+05 0.12291474D+01  1  2  3  2  5  2        1 -.120584871503D-01 0.100000000000D+01
0.217867746076D-04 0.000000000000D+00 0.000000000000D+00 0.239763094472D-02 0.000000000000D+00  5 -2 1 25 -24 21 2 0.74517565D-02 0.70690205D-01 0.22068772D+05 0.22068772D+05 0.22068772D+05 0.12291474D+01  1  2 15  2  5  2        1 0.149631954303D-01 0.100000000000D+01
0.125547612059D-02 0.000000000000D+00 0.000000000000D+00 0.239763094472D-02 0.000000000000D+00  5 -2 1 25 -24 21 2 0.74517565D-02 0.75175841D-01 0.23580430D+05 0.23580430D+05 0.23580430D+05 0.12260290D+01  1  2 12  2  5  2        1 0.793433269618D+00 0.100000000000D+01
-.121270062419D-02 0.000000000000D+00 0.000000000000D+00 0.239763094472D-02 0.000000000000D+00  5 -2 1 25 -24 21 2 0.74517565D-02 0.70690205D-01 0.22068772D+05 0.22068772D+05 0.22068772D+05 0.12291474D+01  1  2  4  2  5  2        1 -.832884938917D+00 0.100000000000D+01
-.472612418543D-02 0.000000000000D+00 -.738900254909D-03 0.239763094472D-02 0.000000000000D+00  5 -2 1 25 -24 21 2 0.74517565D-02 0.75694796D-01 0.22068772D+05 0.22068772D+05 0.22068772D+05 0.12291474D+01  1  2  5  2  5  2        1 -.297050962925D+01 0.100000000000D+01
0.476723495462D-02 0.000000000000D+00 0.737175003134D-03 0.239763094472D-02 0.000000000000D+00  5 -2 1 25 -24 21 2 0.74517565D-02 0.70690205D-01 0.22068772D+05 0.22068772D+05 0.22068772D+05 0.12291474D+01  1  2  6  2  5  2        1 0.327414541955D+01 0.100000000000D+01
0.960513530358D-10 0.000000000000D+00 0.000000000000D+00 0.239763094472D-02 0.198395747342D-03  5 -2 1 25 -24 21 2 0.76098900D-02 0.74454458D-01 0.23580430D+05 0.23580430D+05 0.23580430D+05 0.12260290D+01  1  2 11  2  5  2        1 0.595105076198D-07 0.100000000000D+01
0.156014527908D-04 0.000000000000D+00 0.000000000000D+00 0.239763094472D-02 0.000000000000D+00  5 -2 21 25 -24 -1 2 0.74517565D-02 0.75175841D-01 0.23580430D+05 0.23580430D+05 0.23580430D+05 0.12260290D+01  1  2 12  4  5  2        1 0.307225397729D-01 0.100000000000D+01
-.536719446111D-04 0.000000000000D+00 -.857706943710D-05 0.239763094472D-02 0.000000000000D+00  5 -2 21 25 -24 -1 2 0.74517565D-02 0.75694796D-01 0.22068772D+05 0.22068772D+05 0.22068772D+05 0.12291474D+01  1  2  5  4  5  2        1 -.104641492565D+00 0.100000000000D+01
0.109927004796D-11 0.000000000000D+00 0.000000000000D+00 0.239763094472D-02 0.180581426469D-05  5 -2 21 25 -24 -1 2 0.76098900D-02 0.74454458D-01 0.23580430D+05 0.23580430D+05 0.23580430D+05 0.12260290D+01  1  2 11  4  5  2        1 0.214099320847D-08 0.100000000000D+01
  </mgrwgt>
  </event>
  <event>
  4     66 0.46019439E-03 0.83995281E+02 0.75467711E-02 0.12310604E+00
       -2 -1    0    0    0  501 0.00000000E+00 0.00000000E+00 0.32488905E+03 0.32488921E+03 0.32000000E+00 0.0000E+00 0.9000E+01
        1 -1    0    0  501    0 0.00000000E+00 0.00000000E+00 -.64107115E+02 0.64107913E+02 0.32000000E+00 0.0000E+00 0.9000E+01
       25  1    1    2    0    0 0.59797690E+02 -.42252985E+02 0.52602123E+02 0.15412028E+03 0.12500000E+03 0.0000E+00 0.9000E+01
      -24  1    1    2    0    0 -.59797690E+02 0.42252985E+02 0.20817981E+03 0.23487684E+03 0.80419002E+02 0.0000E+00 0.9000E+01
#aMCatNLO 1  0  0  1  2 0.15988407D+01 0.00000000D+00  -5  5  0 0.00000000D+00 0.00000000D+00 0.00000000D+00 0.00000000D+00 0.00000000D+00
  <mgrwgt>
 0.4363966500D-01   11    2    0
 0.144318694294115D+03 0.000000000000000D+00 0.000000000000000D+00 0.144318694294115D+03
 0.144318694294115D+03 0.000000000000000D+00 0.000000000000000D+00 -.144318694294115D+03
 0.160182515835776D+03 0.597976899652717D+02 -.422529849856971D+02 -.683546627092426D+02
 0.128454872752454D+03 -.597976899652717D+02 0.422529849856971D+02 0.683546627092426D+02
 0.000000000000000D+00 -.000000000000000D+00 0.000000000000000D+00 0.000000000000000D+00
 0.172459244397865D+03 0.000000000000000D+00 0.000000000000000D+00 0.172459244397865D+03
 0.144343620203553D+03 0.000000000000000D+00 0.000000000000000D+00 -.144343620203553D+03
 0.160536648564134D+03 0.601713591751068D+02 -.430588336248248D+02 -.683546627092426D+02
 0.128105168196198D+03 -.594987724124153D+02 0.416083444939452D+02 0.683546627092426D+02
 0.281610478410858D+02 -.672586762691510D+00 0.145048913087957D+01 0.281156241943118D+02
0.204898738801D-03 0.000000000000D+00 0.000000000000D+00 0.195832664695D-02 0.000000000000D+00  5 -2 1 25 -24 21 0 0.49983004D-01 0.98627066D-02 0.16081244D+05 0.16081244D+05 0.16081244D+05 0.12443911D+01  1  2  2  1  5  1       -2 0.434051659989D-01 0.100000000000D+01
-.111518028442D-04 0.000000000000D+00 -.786865108074D-06 0.195832664695D-02 0.000000000000D+00  5 -2 1 25 -24 21 2 0.49983004D-01 0.98627066D-02 0.16081244D+05 0.16081244D+05 0.16081244D+05 0.12443911D+01  1  2  3  1  5  1       -2 -.365814595289D-02 0.100000000000D+01
0.141579596071D-04 0.000000000000D+00 0.000000000000D+00 0.195832664695D-02 0.000000000000D+00  5 -2 1 25 -24 21 2 0.49983004D-01 0.98627066D-02 0.16081244D+05 0.16081244D+05 0.16081244D+05 0.12443911D+01  1  2 15  1  5  1       -2 0.464426096495D-02 0.100000000000D+01
0.209642771496D-04 0.000000000000D+00 0.000000000000D+00 0.195832664695D-02 0.000000000000D+00  5 -2 1 25 -24 21 2 0.59732921D-01 0.98627066D-02 0.16281855D+05 0.16281855D+05 0.16281855D+05 0.12437830D+01  1  2 12  1  5  1       -2 0.480198104428D-02 0.100000000000D+01
-.705660836343D-01 0.000000000000D+00 0.000000000000D+00 0.195832664695D-02 0.000000000000D+00  5 -2 1 25 -24 21 2 0.49983004D-01 0.98627066D-02 0.16081244D+05 0.16081244D+05 0.16081244D+05 0.12443911D+01  1  2  4  1  5  1       -2 -.231479193871D+02 0.100000000000D+01
-.719648792029D-01 0.000000000000D+00 -.138008075643D-03 0.195832664695D-02 0.000000000000D+00  5 -2 1 25 -24 21 2 0.59733582D-01 0.98627066D-02 0.16081244D+05 0.16081244D+05 0.16081244D+05 0.12443911D+01  1  2  5  1  5  1       -2 -.164944406265D+02 0.100000000000D+01
0.708633704799D-01 0.000000000000D+00 0.135845187614D-03 0.195832664695D-02 0.000000000000D+00  5 -2 1 25 -24 21 2 0.49983004D-01 0.98627066D-02 0.16081244D+05 0.16081244D+05 0.16081244D+05 0.12443911D+01  1  2  6  1  5  1       -2 0.232454389260D+02 0.100000000000D+01
0.716346307378D-01 0.000000000000D+00 0.000000000000D+00 0.195832664695D-02 0.641825217157D-02  5 -2 1 25 -24 21 2 0.59729138D-01 0.98644100D-02 0.16281855D+05 0.16281855D+05 0.16281855D+05 0.12437830D+01  1  2 11  1  5  1       -2 0.164066764640D+02 0.100000000000D+01
0.548574835668D-06 0.000000000000D+00 0.000000000000D+00 0.195832664695D-02 0.000000000000D+00  5 21 1 25 -24 2 2 0.59732921D-01 0.98627066D-02 0.16281855D+05 0.16281855D+05 0.16281855D+05 0.12437830D+01  1  2 12  3  5  1       -2 0.154910405609D-02 0.100000000000D+01
-.188190482197D-02 0.000000000000D+00 -.361145023975D-05 0.195832664695D-02 0.000000000000D+00  5 21 1 25 -24 2 2 0.59733582D-01 0.98627066D-02 0.16081244D+05 0.16081244D+05 0.16081244D+05 0.12443911D+01  1  2  5  3  5  1       -2 -.531945423520D+01 0.100000000000D+01
0.187795340484D-02 0.000000000000D+00 0.000000000000D+00 0.195832664695D-02 0.168254061482D-03  5 21 1 25 -24 2 2 0.59729138D-01 0.98644100D-02 0.16281855D+05 0.16281855D+05 0.16281855D+05 0.12437830D+01  1  2 11  3  5  1       -2 0.530259615771D+01 0.100000000000D+01
  </mgrwgt>
  </event>
  <event>
  4     66 0.46019439E-03 0.46342940E+02 0.75467711E-02 0.11651137E+00
       -2 -1    0    0    0  501 0.00000000E+00 0.00000000E+00 0.11571962E+03 0.11572006E+03 0.32000000E+00 0.0000E+00 0.9000E+01
        1 -1    0    0  501    0 0.00000000E+00 0.00000000E+00 -.26926392E+03 0.26926411E+03 0.32000000E+00 0.0000E+00 0.9000E+01
       25  1    1    2    0    0 0.56729671E+02 -.13059495E+03 -.85507477E+02 0.20786973E+03 0.12500000E+03 0.0000E+00 0.9000E+01
      -24  1    1    2    0    0 -.56729671E+02 0.13059495E+03 -.68036826E+02 0.17711443E+03 0.80419002E+02 0.0000E+00 0.9000E+01
#aMCatNLO 1  0  0  2  1 0.12402293D+02 0.00000000D+00  -5  5  0 0.00000000D+00 0.00000000D+00 0.00000000D+00 0.00000000D+00 0.00000000D+00
  <mgrwgt>
 0.2570001796D+00    9    2    0
 0.176519796940572D+03 0.000000000000000D+00 0.000000000000000D+00 0.176519796940572D+03
 0.176519796940572D+03 0.000000000000000D+00 0.000000000000000D+00 -.176519796940572D+03
 0.189489707687627D+03 0.567296711611350D+02 -.130594951394571D+03 -.283767505915263D+01
 0.163549886193518D+03 -.567296711611350D+02 0.130594951394571D+03 0.283767505915263D+01
 0.000000000000000D+00 0.000000000000000D+00 -.000000000000000D+00 -.000000000000000D+00
 0.180319228187301D+03 0.000000000000000D+00 0.000000000000000D+00 0.180319228187301D+03
 0.187048353786649D+03 0.000000000000000D+00 0.000000000000000D+00 -.187048353786649D+03
 0.184686928973669D+03 0.552435999572670D+02 -.124194822749361D+03 -.283767505915263D+01
 0.168570444209879D+03 -.580487125198780D+02 0.136275725211017D+03 0.283767505915263D+01
 0.141102087904021D+02 0.280511256261102D+01 -.120809024616554D+02 -.672912559934740D+01
0.608620867951D-03 0.000000000000D+00 0.000000000000D+00 0.224871101259D-02 0.000000000000D+00  5 -2 1 25 -24 21 0 0.17803066D-01 0.41425267D-01 0.31151143D+05 0.31151143D+05 0.31151143D+05 0.12131859D+01  1  2  2  2  5  2        1 0.135444185611D+00 0.100000000000D+01
-.338122697477D-04 0.000000000000D+00 -.233726438649D-05 0.224871101259D-02 0.000000000000D+00  5 -2 1 25 -24 21 2 0.17803066D-01 0.41425267D-01 0.31151143D+05 0.31151143D+05 0.31151143D+05 0.12131859D+01  1  2  3  2  5  2        1 -.110749692956D-01 0.100000000000D+01
0.419627716201D-04 0.000000000000D+00 0.000000000000D+00 0.224871101259D-02 0.000000000000D+00  5 -2 1 25 -24 21 2 0.17803066D-01 0.41425267D-01 0.31151143D+05 0.31151143D+05 0.31151143D+05 0.12131859D+01  1  2 15  2  5  2        1 0.137446084134D-01 0.100000000000D+01
0.255927261411D-02 0.000000000000D+00 0.000000000000D+00 0.224871101259D-02 0.000000000000D+00  5 -2 1 25 -24 21 2 0.17803066D-01 0.44323194D-01 0.33418395D+05 0.33418395D+05 0.33418395D+05 0.12100104D+01  1  2 12  2  5  2        1 0.767427569628D+00 0.100000000000D+01
-.250185016073D-02 0.000000000000D+00 0.000000000000D+00 0.224871101259D-02 0.000000000000D+00  5 -2 1 25 -24 21 2 0.17803066D-01 0.41425267D-01 0.31151143D+05 0.31151143D+05 0.31151143D+05 0.12131859D+01  1  2  4  2  5  2        1 -.819463287112D+00 0.100000000000D+01
-.835641279989D-02 0.000000000000D+00 -.132362830937D-02 0.224871101259D-02 0.000000000000D+00  5 -2 1 25 -24 21 2 0.17803066D-01 0.44704616D-01 0.31151143D+05 0.31151143D+05 0.31151143D+05 0.12131859D+01  1  2  5  2  5  2        1 -.248920228096D+01 0.100000000000D+01
0.843659052913D-02 0.000000000000D+00 0.131979623075D-02 0.224871101259D-02 0.000000000000D+00  5 -2 1 25 -24 21 2 0.17803066D-01 0.41425267D-01 0.31151143D+05 0.31151143D+05 0.31151143D+05 0.12131859D+01  1  2  6  2  5  2        1 0.276334542953D+01 0.100000000000D+01
0.322760087131D-04 0.000000000000D+00 0.000000000000D+00 0.224871101259D-02 0.000000000000D+00  5 -2 21 25 -24 -1 2 0.17803066D-01 0.44323194D-01 0.33418395D+05 0.33418395D+05 0.33418395D+05 0.12100104D+01  1  2 12  4  5  2        1 0.470815288400D-01 0.100000000000D+01
-.104247779664D-03 0.000000000000D+00 -.169265901445D-04 0.224871101259D-02 0.000000000000D+00  5 -2 21 25 -24 -1 2 0.17803066D-01 0.44704616D-01 0.31151143D+05 0.31151143D+05 0.31151143D+05 0.12131859D+01  1  2  5  4  5  2        1 -.150302605083D+00 0.100000000000D+01
  </mgrwgt>
  </event>
  <event>
  4     66 0.46019439E-03 0.77219755E+02 0.75467711E-02 0.11890939E+00
       -2 -1    0    0    0  501 0.00000000E+00 0.00000000E+00 0.28457823E+02 0.28459622E+02 0.32000000E+00 0.0000E+00 0.9000E+01
        1 -1    0    0  501    0 0.00000000E+00 0.00000000E+00 -.43037794E+03 0.43037805E+03 0.32000000E+00 0.0000E+00 0.9000E+01
       25  1    1    2    0    0 0.13026503E+02 0.77316401E+01 -.16094827E+03 0.20434973E+03 0.12500000E+03 0.0000E+00 0.9000E+01
      -24  1    1    2    0    0 -.13026503E+02 -.77316401E+01 -.24097184E+03 0.25448794E+03 0.80419002E+02 0.0000E+00 0.9000E+01
#aMCatNLO 1  0  0  2  1 0.91916883D+02 0.00000000D+00  -5  5  0 0.00000000D+00 0.00000000D+00 0.00000000D+00 0.00000000D+00 0.00000000D+00
  <mgrwgt>
 0.1712002710D+00    7    2    0
 0.110670949372671D+03 0.000000000000000D+00 0.000000000000000D+00 0.110670949372671D+03
 0.110670949372671D+03 0.000000000000000D+00 0.000000000000000D+00 -.110670949372671D+03
 0.131357913968032D+03 0.130265028801324D+02 0.773164009714286D+01 0.374223666562518D+02
 0.899839847773110D+02 -.130265028801324D+02 -.773164009714286D+01 -.374223666562518D+02
 0.000000000000000D+00 0.000000000000000D+00 0.000000000000000D+00 -.000000000000000D+00
 0.138062303710150D+03 0.000000000000000D+00 0.000000000000000D+00 0.138062303710150D+03
 0.235709083306589D+03 0.000000000000000D+00 0.000000000000000D+00 -.235709083306589D+03
 0.137417297292215D+03 -.466643604976192D+01 -.428521229758292D+02 0.374223666562518D+02
 0.102251118416437D+03 -.256809583451329D+02 -.439104784232915D+02 -.374223666562518D+02
 0.134102971308086D+03 0.303473943948948D+02 0.867626013991207D+02 -.976467795964385D+02
0.204089907251D-03 0.000000000000D+00 0.000000000000D+00 0.270568543968D-02 0.000000000000D+00  5 -2 1 25 -24 21 0 0.43782741D-02 0.66212138D-01 0.10789787D+05 0.10789787D+05 0.10789787D+05 0.12644713D+01  1  2  2  2  5  2        1 0.219771371181D+00 0.100000000000D+01
-.112829439458D-04 0.000000000000D+00 -.783758981949D-06 0.270568543968D-02 0.000000000000D+00  5 -2 1 25 -24 21 2 0.43782741D-02 0.66212138D-01 0.10789787D+05 0.10789787D+05 0.10789787D+05 0.12644713D+01  1  2  3  2  5  2        1 -.194262934711D-01 0.100000000000D+01
0.139687139163D-04 0.000000000000D+00 0.000000000000D+00 0.270568543968D-02 0.000000000000D+00  5 -2 1 25 -24 21 2 0.43782741D-02 0.66212138D-01 0.10789787D+05 0.10789787D+05 0.10789787D+05 0.12644713D+01  1  2 15  2  5  2        1 0.240504904796D-01 0.100000000000D+01
0.348803370006D-05 0.000000000000D+00 0.000000000000D+00 0.270568543968D-02 0.000000000000D+00  5 -2 1 25 -24 21 2 0.43782741D-02 0.14096605D+00 0.25487723D+05 0.25487723D+05 0.25487723D+05 0.12223990D+01  1  2 12  2  5  2        1 0.200276482298D-02 0.100000000000D+01
-.106669970288D-03 0.000000000000D+00 -.763634725237D-04 0.270568543968D-02 0.000000000000D+00  5 -2 1 25 -24 21 2 0.43782741D-02 0.16208772D+00 0.10789787D+05 0.10789787D+05 0.10789787D+05 0.12644713D+01  1  2  5  2  5  2        1 -.512183726651D-01 0.100000000000D+01
0.285175558065D-06 0.000000000000D+00 0.000000000000D+00 0.270568543968D-02 0.000000000000D+00  5 -2 21 25 -24 -1 2 0.43782741D-02 0.14096605D+00 0.25487723D+05 0.25487723D+05 0.25487723D+05 0.12223990D+01  1  2 12  4  5  2        1 0.280722231775D-03 0.100000000000D+01
-.571236470170D-05 0.000000000000D+00 -.750118714872D-05 0.270568543968D-02 0.000000000000D+00  5 -2 21 25 -24 -1 2 0.43782741D-02 0.16208772D+00 0.10789787D+05 0.10789787D+05 0.10789787D+05 0.12644713D+01  1  2  5  4  5  2        1 -.426041155636D-02 0.100000000000D+01
  </mgrwgt>
  </event>
  <event>
  4     66 0.46019439E-03 0.56677579E+02 0.75467711E-02 0.12557353E+00
       -2 -1    0    0    0  501 0.00000000E+00 0.00000000E+00 0.55946555E+02 0.55947470E+02 0.32000000E+00 0.0000E+00 0.9000E+01
        1 -1    0    0  501    0 0.00000000E+00 0.00000000E+00 -.19732265E+03 0.19732290E+03 0.32000000E+00 0.0000E+00 0.9000E+01
       25  1    1    2    0    0 -.10922100E+01 -.11589446E+01 -.59334874E+02 0.13837689E+03 0.12500000E+03 0.0000E+00 0.9000E+01
      -24  1    1    2    0    0 0.10922100E+01 0.11589446E+01 -.82041216E+02 0.11489349E+03 0.80419002E+02 0.0000E+00 0.9000E+01
#aMCatNLO 1  0  0  2  1 0.18982138D+02 0.00000000D+00  -5  5  0 0.00000000D+00 0.00000000D+00 0.00000000D+00 0.00000000D+00 0.00000000D+00
  <mgrwgt>
 0.2442377117D+00    9    2    0
 0.105069838678675D+03 0.000000000000000D+00 0.000000000000000D+00 0.105069838678675D+03
 0.105069838678675D+03 0.000000000000000D+00 0.000000000000000D+00 -.105069838678675D+03
 0.126859593380869D+03 -.109221000795333D+01 -.115894462621560D+01 0.215828718527268D+02
 0.832800839764818D+02 0.109221000795333D+01 0.115894462621560D+01 -.215828718527268D+02
 0.000000000000000D+00 -.000000000000000D+00 -.000000000000000D+00 -.000000000000000D+00
 0.109624664231952D+03 0.000000000000000D+00 0.000000000000000D+00 0.109624664231952D+03
 0.127324581062145D+03 0.000000000000000D+00 0.000000000000000D+00 -.127324581062145D+03
 0.127243057351480D+03 0.300457962350544D+01 0.953665497052003D+01 0.215828718527268D+02
 0.837522164789805D+02 0.378520118554410D+01 0.818960959662961D+01 -.215828718527268D+02
 0.259539714636366D+02 -.678978080904954D+01 -.177262645671496D+02 -.176999168301928D+02
0.159498644167D-03 0.000000000000D+00 0.000000000000D+00 0.305081075407D-02 0.000000000000D+00  5 -2 1 25 -24 21 0 0.86072527D-02 0.30357420D-01 0.10551903D+05 0.10551903D+05 0.10551903D+05 0.12656229D+01  1  2  2  2  5  2        1 0.161821102154D+00 0.100000000000D+01
-.885553567266D-05 0.000000000000D+00 -.612516790557D-06 0.305081075407D-02 0.000000000000D+00  5 -2 1 25 -24 21 2 0.86072527D-02 0.30357420D-01 0.10551903D+05 0.10551903D+05 0.10551903D+05 0.12656229D+01  1  2  3  2  5  2        1 -.143913531750D-01 0.100000000000D+01
0.109229385833D-04 0.000000000000D+00 0.000000000000D+00 0.305081075407D-02 0.000000000000D+00  5 -2 1 25 -24 21 2 0.86072527D-02 0.30357420D-01 0.10551903D+05 0.10551903D+05 0.10551903D+05 0.12656229D+01  1  2 15  2  5  2        1 0.177511415087D-01 0.100000000000D+01
0.380519884344D-03 0.000000000000D+00 0.000000000000D+00 0.305081075407D-02 0.000000000000D+00  5 -2 1 25 -24 21 2 0.86072527D-02 0.37346995D-01 0.12690575D+05 0.12690575D+05 0.12690575D+05 0.12561861D+01  1  2 12  2  5  2        1 0.475757908190D+00 0.100000000000D+01
-.387125553305D-03 0.000000000000D+00 0.000000000000D+00 0.305081075407D-02 0.000000000000D+00  5 -2 1 25 -24 21 2 0.86072527D-02 0.30357420D-01 0.10551903D+05 0.10551903D+05 0.10551903D+05 0.12656229D+01  1  2  4  2  5  2        1 -.629127448256D+00 0.100000000000D+01
-.642767866365D-03 0.000000000000D+00 -.129355548596D-03 0.305081075407D-02 0.000000000000D+00  5 -2 1 25 -24 21 2 0.86072527D-02 0.38116718D-01 0.10551903D+05 0.10551903D+05 0.10551903D+05 0.12656229D+01  1  2  5  2  5  2        1 -.789777437067D+00 0.100000000000D+01
0.658362947076D-03 0.000000000000D+00 0.126075611567D-03 0.305081075407D-02 0.000000000000D+00  5 -2 1 25 -24 21 2 0.86072527D-02 0.30357420D-01 0.10551903D+05 0.10551903D+05 0.10551903D+05 0.12656229D+01  1  2  6  2  5  2        1 0.106992214124D+01 0.100000000000D+01
0.111881557114D-04 0.000000000000D+00 0.000000000000D+00 0.305081075407D-02 0.000000000000D+00  5 -2 21 25 -24 -1 2 0.86072527D-02 0.37346995D-01 0.12690575D+05 0.12690575D+05 0.12690575D+05 0.12561861D+01  1  2 12  4  5  2        1 0.793953049139D-01 0.100000000000D+01
-.184324687695D-04 0.000000000000D+00 -.408293929666D-05 0.305081075407D-02 0.000000000000D+00  5 -2 21 25 -24 -1 2 0.86072527D-02 0.38116718D-01 0.10551903D+05 0.10551903D+05 0.10551903D+05 0.12656229D+01  1  2  5  4  5  2        1 -.127113647829D+00 0.100000000000D+01
  </mgrwgt>
  </event>
  <event>
  4     66 0.46019439E-03 0.31968938E+02 0.75467711E-02 0.11881006E+00
       -2 -1    0    0    0  501 0.00000000E+00 0.00000000E+00 0.36813437E+02 0.36814828E+02 0.32000000E+00 0.0000E+00 0.9000E+01
        1 -1    0    0  501    0 0.00000000E+00 0.00000000E+00 -.38928073E+03 0.38928086E+03 0.32000000E+00 0.0000E+00 0.9000E+01
       25  1    1    2    0    0 0.57113987E+02 0.20877185E+01 -.16949720E+03 0.21822160E+03 0.12500000E+03 0.0000E+00 0.9000E+01
      -24  1    1    2    0    0 -.57113987E+02 -.20877185E+01 -.18297009E+03 0.20787409E+03 0.80419002E+02 0.0000E+00 0.9000E+01
#aMCatNLO 1  0  0  2  1 0.73652667D+02 0.00000000D+00  -5  5  0 0.00000000D+00 0.00000000D+00 0.00000000D+00 0.00000000D+00 0.00000000D+00
  <mgrwgt>
 0.3726469301D+00    8    2    0
 0.119712514269591D+03 0.000000000000000D+00 0.000000000000000D+00 0.119712514269591D+03
 0.119712514269591D+03 0.000000000000000D+00 0.000000000000000D+00 -.119712514269591D+03
 0.138837047952440D+03 0.571139873982004D+02 0.208771845847147D+01 0.196050952373229D+02
 0.100587980586741D+03 -.571139873982004D+02 -.208771845847147D+01 -.196050952373229D+02
 0.000000000000000D+00 0.000000000000000D+00 0.000000000000000D+00 -.000000000000000D+00
 0.142727884084586D+03 0.000000000000000D+00 0.000000000000000D+00 0.142727884084586D+03
 0.202837532693454D+03 0.000000000000000D+00 0.000000000000000D+00 -.202837532693454D+03
 0.129736097817124D+03 0.221844306988501D+02 -.181644254552062D+02 0.196050952373229D+02
 0.120761526225052D+03 -.859018251635947D+02 -.187788960307082D+02 -.196050952373229D+02
 0.950677927358634D+02 0.637173944647445D+02 0.369433214859144D+02 -.601096486088681D+02
0.209136081734D-03 0.000000000000D+00 0.000000000000D+00 0.272413308669D-02 0.000000000000D+00  5 -2 1 25 -24 21 0 0.56637228D-02 0.59889460D-01 0.13936367D+05 0.13936367D+05 0.13936367D+05 0.12514804D+01  1  2  2  2  5  2        1 0.175654838260D+00 0.100000000000D+01
-.116159163654D-04 0.000000000000D+00 -.803137620654D-06 0.272413308669D-02 0.000000000000D+00  5 -2 1 25 -24 21 2 0.56637228D-02 0.59889460D-01 0.13936367D+05 0.13936367D+05 0.13936367D+05 0.12514804D+01  1  2  3  2  5  2        1 -.152803309319D-01 0.100000000000D+01
0.144324795376D-04 0.000000000000D+00 0.000000000000D+00 0.272413308669D-02 0.000000000000D+00  5 -2 1 25 -24 21 2 0.56637228D-02 0.59889460D-01 0.13936367D+05 0.13936367D+05 0.13936367D+05 0.12514804D+01  1  2 15  2  5  2        1 0.189854210864D-01 0.100000000000D+01
0.574720852168D-04 0.000000000000D+00 0.000000000000D+00 0.272413308669D-02 0.000000000000D+00  5 -2 1 25 -24 21 2 0.56637228D-02 0.10390468D+00 0.25769623D+05 0.25769623D+05 0.25769623D+05 0.12218884D+01  1  2 12  2  5  2        1 0.354568438768D-01 0.100000000000D+01
-.163880322393D-03 0.000000000000D+00 -.830350865360D-04 0.272413308669D-02 0.000000000000D+00  5 -2 1 25 -24 21 2 0.56637228D-02 0.11516238D+00 0.13936367D+05 0.13936367D+05 0.13936367D+05 0.12514804D+01  1  2  5  2  5  2        1 -.903337748057D-01 0.100000000000D+01
0.190939070506D-03 0.000000000000D+00 0.679791000328D-04 0.272413308669D-02 0.000000000000D+00  5 -2 1 25 -24 21 2 0.56637228D-02 0.59889460D-01 0.13936367D+05 0.13936367D+05 0.13936367D+05 0.12514804D+01  1  2  6  2  5  2        1 0.251173656332D+00 0.100000000000D+01
0.350646186104D-05 0.000000000000D+00 0.000000000000D+00 0.272413308669D-02 0.000000000000D+00  5 -2 21 25 -24 -1 2 0.56637228D-02 0.10390468D+00 0.25769623D+05 0.25769623D+05 0.25769623D+05 0.12218884D+01  1  2 12  4  5  2        1 0.496176132485D-02 0.100000000000D+01
-.682297039274D-05 0.000000000000D+00 -.589123099473D-05 0.272413308669D-02 0.000000000000D+00  5 -2 21 25 -24 -1 2 0.56637228D-02 0.11516238D+00 0.13936367D+05 0.13936367D+05 0.13936367D+05 0.12514804D+01  1  2  5  4  5  2        1 -.797148506999D-02 0.100000000000D+01
  </mgrwgt>
  </event>
  <event>
  5     66 0.46019439E-03 0.10315020E+03 0.75467711E-02 0.12673382E+00
       21 -1    0    0  502  501 0.00000000E+00 0.00000000E+00 0.13267281E+02 0.13288463E+02 0.75000000E+00 0.0000E+00 0.9000E+01
        1 -1    0    0  501    0 0.00000000E+00 0.00000000E+00 -.12070168E+04 0.12070168E+04 0.32000000E+00 0.0000E+00 0.9000E+01
       25  1    1    2    0    0 -.11697748E+00 -.11504433E+02 -.97652862E+03 0.98456361E+03 0.12500000E+03 0.0000E+00 0.9000E+01
      -24  1    1    2    0    0 0.47042151E+01 0.69489220E+01 -.17196513E+03 0.19002537E+03 0.80419002E+02 0.0000E+00 0.9000E+01
        2  1    1    2  502    0 -.45872376E+01 0.45555105E+01 -.45255721E+02 0.45716279E+02 0.32000000E+00 0.0000E+00 0.9000E+01
#aMCatNLO 2  0  0  1  2 0.64649381D+01 0.00000000D+00  -5  5  0 0.00000000D+00 0.00000000D+00 0.00000000D+00 0.00000000D+00 0.00000000D+00
  <mgrwgt>
 0.6942524132D-01    1    2    0
 0.123064596310883D+03 0.000000000000000D+00 0.000000000000000D+00 0.123064596310883D+03
 0.123064596310883D+03 0.000000000000000D+00 0.000000000000000D+00 -.123064596310883D+03
 0.141668208397854D+03 -.275837405802609D+01 -.888130488292700D+01 -.660181419519683D+02
 0.104460984223911D+03 0.275837405802609D+01 0.888130488292700D+01 0.660181419519683D+02
 0.000000000000000D+00 -.000000000000000D+00 0.000000000000000D+00 -.000000000000000D+00
 0.125276132015176D+03 0.000000000000000D+00 0.000000000000000D+00 0.125276132015176D+03
 0.127924202294065D+03 0.000000000000000D+00 0.000000000000000D+00 -.127924202294065D+03
 0.141830041662487D+03 -.116977482069081D+00 -.115044325136578D+02 -.660181419519683D+02
 0.104384041780374D+03 0.470421512221593D+01 0.694892202646868D+01 0.660181419519683D+02
 0.698625086638062D+01 -.458723764014685D+01 0.455551048718913D+01 -.264807027888871D+01
0.288929039120D-05 0.000000000000D+00 0.000000000000D+00 0.204376930263D-02 0.138535030673D-05  5 21 1 25 -24 2 2 0.20426934D-02 0.18569112D+00 0.11326165D+05 0.11326165D+05 0.11326165D+05 0.12619763D+01  1  2  1  3  5  1       -2 0.694252413170D-01 0.100000000000D+01
  </mgrwgt>
  </event>
  <event>
  4     66 0.46019439E-03 0.94870466E+02 0.75467711E-02 0.11981821E+00
       -2 -1    0    0    0  501 0.00000000E+00 0.00000000E+00 0.15924640E+03 0.15924672E+03 0.32000000E+00 0.0000E+00 0.9000E+01
        1 -1    0    0  501    0 0.00000000E+00 0.00000000E+00 -.97262202E+02 0.97262728E+02 0.32000000E+00 0.0000E+00 0.9000E+01
       25  1    1    2    0    0 -.53068340E+02 0.43818110E+02 0.28676131E+02 0.14554586E+03 0.12500000E+03 0.0000E+00 0.9000E+01
      -24  1    1    2    0    0 0.53068340E+02 -.43818110E+02 0.33308064E+02 0.11096359E+03 0.80419002E+02 0.0000E+00 0.9000E+01
#aMCatNLO 1  0  0  2  1 0.50194799D+02 0.00000000D+00  -5  5  0 0.00000000D+00 0.00000000D+00 0.00000000D+00 0.00000000D+00 0.00000000D+00
  <mgrwgt>
 0.2082193978D+00    9    2    0
 0.124453862685546D+03 0.000000000000000D+00 0.000000000000000D+00 0.124453862685546D+03
 0.124453862685546D+03 0.000000000000000D+00 0.000000000000000D+00 -.124453862685546D+03
 0.142849804458699D+03 -.530683400757270D+02 0.438181102154459D+02 -.669261777204430D+01
 0.106057920912392D+03 0.530683400757270D+02 -.438181102154459D+02 0.669261777204430D+01
 0.000000000000000D+00 -.000000000000000D+00 0.000000000000000D+00 -.000000000000000D+00
 0.146434712104038D+03 0.000000000000000D+00 0.000000000000000D+00 0.146434712104038D+03
 0.159301377330913D+03 0.000000000000000D+00 0.000000000000000D+00 -.159301377330913D+03
 0.132955890423821D+03 -.403998506107675D+02 0.193734286169484D+02 -.669261777204430D+01
 0.120962548425318D+03 0.634959943174568D+02 -.639389532301834D+02 0.669261777204430D+01
 0.518176505858126D+02 -.230961437066894D+02 0.445655246132350D+02 -.128666652268746D+02
0.309725718428D-03 0.000000000000D+00 0.000000000000D+00 0.269769139387D-02 0.000000000000D+00  5 -2 1 25 -24 21 0 0.24499511D-01 0.14963481D-01 0.15442969D+05 0.15442969D+05 0.15442969D+05 0.12463842D+01  1  2  2  2  5  2        1 0.141833720334D+00 0.100000000000D+01
-.172069384998D-04 0.000000000000D+00 -.118942831142D-05 0.269769139387D-02 0.000000000000D+00  5 -2 1 25 -24 21 2 0.24499511D-01 0.14963481D-01 0.15442969D+05 0.15442969D+05 0.15442969D+05 0.12463842D+01  1  2  3  2  5  2        1 -.122407968311D-01 0.100000000000D+01
0.214235971031D-04 0.000000000000D+00 0.000000000000D+00 0.269769139387D-02 0.000000000000D+00  5 -2 1 25 -24 21 2 0.24499511D-01 0.14963481D-01 0.15442969D+05 0.15442969D+05 0.15442969D+05 0.12463842D+01  1  2 15  2  5  2        1 0.152404740409D-01 0.100000000000D+01
0.181536903101D-03 0.000000000000D+00 0.000000000000D+00 0.269769139387D-02 0.000000000000D+00  5 -2 1 25 -24 21 2 0.24499511D-01 0.20170327D-01 0.23067443D+05 0.23067443D+05 0.23067443D+05 0.12270615D+01  1  2 12  2  5  2        1 0.863937922536D-01 0.100000000000D+01
-.208915856744D-03 0.000000000000D+00 0.000000000000D+00 0.269769139387D-02 0.000000000000D+00  5 -2 1 25 -24 21 2 0.24499511D-01 0.14963481D-01 0.15442969D+05 0.15442969D+05 0.15442969D+05 0.12463842D+01  1  2  4  2  5  2        1 -.148620078884D+00 0.100000000000D+01
-.380454019365D-03 0.000000000000D+00 -.165431703937D-03 0.269769139387D-02 0.000000000000D+00  5 -2 1 25 -24 21 2 0.24499511D-01 0.22371115D-01 0.15442969D+05 0.15442969D+05 0.15442969D+05 0.12463842D+01  1  2  5  2  5  2        1 -.162075767210D+00 0.100000000000D+01
0.424706108035D-03 0.000000000000D+00 0.152899836759D-03 0.269769139387D-02 0.000000000000D+00  5 -2 1 25 -24 21 2 0.24499511D-01 0.14963481D-01 0.15442969D+05 0.15442969D+05 0.15442969D+05 0.12463842D+01  1  2  6  2  5  2        1 0.302130514468D+00 0.100000000000D+01
0.699367401829D-05 0.000000000000D+00 0.000000000000D+00 0.269769139387D-02 0.000000000000D+00  5 -2 21 25 -24 -1 2 0.24499511D-01 0.20170327D-01 0.23067443D+05 0.23067443D+05 0.23067443D+05 0.12270615D+01  1  2 12  4  5  2        1 0.280910493929D-01 0.100000000000D+01
-.124934086470D-04 0.000000000000D+00 -.790568783059D-05 0.269769139387D-02 0.000000000000D+00  5 -2 21 25 -24 -1 2 0.24499511D-01 0.22371115D-01 0.15442969D+05 0.15442969D+05 0.15442969D+05 0.12463842D+01  1  2  5  4  5  2        1 -.425335097463D-01 0.100000000000D+01
  </mgrwgt>
  </event>
  <event>
  4     66 0.46019439E-03 0.55580583E+02 0.75467711E-02 0.12182060E+00
       -2 -1    0    0    0  501 0.00000000E+00 0.00000000E+00 0.16909744E+02 0.16912772E+02 0.32000000E+00 0.0000E+00 0.9000E+01
        1 -1    0    0  501    0 0.00000000E+00 0.00000000E+00 -.10507333E+04 0.10507334E+04 0.32000000E+00 0.0000E+00 0.9000E+01
       25  1    1    2    0    0 -.41991956E+02 -.25033678E+02 -.85594890E+03 0.86640841E+03 0.12500000E+03 0.0000E+00 0.9000E+01
      -24  1    1    2    0    0 0.41991956E+02 0.25033678E+02 -.17787469E+03 0.20123775E+03 0.80419002E+02 0.0000E+00 0.9000E+01
#aMCatNLO 1  0  0  1  2 0.40565098D+02 0.00000000D+00  -5  5  0 0.00000000D+00 0.00000000D+00 0.00000000D+00 0.00000000D+00 0.00000000D+00
  <mgrwgt>
 0.2218182306D+00    9    2    0
 0.133301440090019D+03 0.000000000000000D+00 0.000000000000000D+00 0.133301440090019D+03
 0.133301440090019D+03 0.000000000000000D+00 0.000000000000000D+00 -.133301440090019D+03
 0.150476393412814D+03 -.419919558541586D+02 -.250336783705055D+02 -.680304017723869D+02
 0.116126486767225D+03 0.419919558541586D+02 0.250336783705055D+02 0.680304017723869D+02
 0.000000000000000D+00 -.000000000000000D+00 -.000000000000000D+00 0.000000000000000D+00
 0.161320645300253D+03 0.000000000000000D+00 0.000000000000000D+00 0.161320645300253D+03
 0.150368304963641D+03 0.000000000000000D+00 0.000000000000000D+00 -.150368304963641D+03
 0.148061009663985D+03 -.407768969866832D+02 -.248428853875513D+01 -.680304017723869D+02
 0.121610314160170D+03 0.429595539008856D+02 0.429906236182874D+02 0.680304017723869D+02
 0.420176264397386D+02 -.218265691420239D+01 -.405063350795323D+02 0.109523403366111D+02
0.274239020484D-03 0.000000000000D+00 0.000000000000D+00 0.197958737694D-02 0.000000000000D+00  5 -2 1 25 -24 21 0 0.26017357D-02 0.16165152D+00 0.13033971D+05 0.13033971D+05 0.13033971D+05 0.12548388D+01  1  2  2  1  5  1       -2 0.178322838620D+00 0.100000000000D+01
-.147907120572D-04 0.000000000000D+00 -.105315004745D-05 0.197958737694D-02 0.000000000000D+00  5 -2 1 25 -24 21 2 0.26017357D-02 0.16165152D+00 0.13033971D+05 0.13033971D+05 0.13033971D+05 0.12548388D+01  1  2  3  1  5  1       -2 -.151440732888D-01 0.100000000000D+01
0.187279220868D-04 0.000000000000D+00 0.000000000000D+00 0.197958737694D-02 0.000000000000D+00  5 -2 1 25 -24 21 2 0.26017357D-02 0.16165152D+00 0.13033971D+05 0.13033971D+05 0.13033971D+05 0.12548388D+01  1  2 15  1  5  1       -2 0.191753462263D-01 0.100000000000D+01
0.152494807433D-03 0.000000000000D+00 0.000000000000D+00 0.197958737694D-02 0.000000000000D+00  5 -2 1 25 -24 21 2 0.32865237D-02 0.16165152D+00 0.18614909D+05 0.18614909D+05 0.18614909D+05 0.12372723D+01  1  2 12  1  5  1       -2 0.108634866364D+00 0.100000000000D+01
-.161594639113D-03 0.000000000000D+00 0.000000000000D+00 0.197958737694D-02 0.000000000000D+00  5 -2 1 25 -24 21 2 0.26017357D-02 0.16165152D+00 0.13033971D+05 0.13033971D+05 0.13033971D+05 0.12548388D+01  1  2  4  1  5  1       -2 -.165455256538D+00 0.100000000000D+01
-.305965358827D-03 0.000000000000D+00 -.120647472230D-03 0.197958737694D-02 0.000000000000D+00  5 -2 1 25 -24 21 2 0.35704236D-02 0.16165152D+00 0.13033971D+05 0.13033971D+05 0.13033971D+05 0.12548388D+01  1  2  5  1  5  1       -2 -.197097390321D+00 0.100000000000D+01
0.333126221734D-03 0.000000000000D+00 0.114846858702D-03 0.197958737694D-02 0.000000000000D+00  5 -2 1 25 -24 21 2 0.26017357D-02 0.16165152D+00 0.13033971D+05 0.13033971D+05 0.13033971D+05 0.12548388D+01  1  2  6  1  5  1       -2 0.341084857636D+00 0.100000000000D+01
0.490844268009D-05 0.000000000000D+00 0.000000000000D+00 0.197958737694D-02 0.000000000000D+00  5 21 1 25 -24 2 2 0.32865237D-02 0.16165152D+00 0.18614909D+05 0.18614909D+05 0.18614909D+05 0.12372723D+01  1  2 12  3  5  1       -2 0.673966857851D-01 0.100000000000D+01
-.935605242125D-05 0.000000000000D+00 -.484739757303D-05 0.197958737694D-02 0.000000000000D+00  5 21 1 25 -24 2 2 0.35704236D-02 0.16165152D+00 0.13033971D+05 0.13033971D+05 0.13033971D+05 0.12548388D+01  1  2  5  3  5  1       -2 -.115099643846D+00 0.100000000000D+01
  </mgrwgt>
  </event>
  <event>
  4     66 0.46019439E-03 0.11701889E+03 0.75467711E-02 0.12018925E+00
       -2 -1    0    0    0  501 0.00000000E+00 0.00000000E+00 0.82489561E+02 0.82490182E+02 0.32000000E+00 0.0000E+00 0.9000E+01
        1 -1    0    0  501    0 0.00000000E+00 0.00000000E+00 -.17304180E+03 0.17304210E+03 0.32000000E+00 0.0000E+00 0.9000E+01
       25  1    1    2    0    0 0.53146554E+02 -.14336518E+02 -.27112749E+02 0.13924867E+03 0.12500000E+03 0.0000E+00 0.9000E+01
      -24  1    1    2    0    0 -.53146554E+02 0.14336518E+02 -.63439492E+02 0.11628361E+03 0.80419002E+02 0.0000E+00 0.9000E+01
#aMCatNLO 1  0  0  1  2 0.56853302D+02 0.00000000D+00  -5  5  0 0.00000000D+00 0.00000000D+00 0.00000000D+00 0.00000000D+00 0.00000000D+00
  <mgrwgt>
 0.2079163631D+00    3    2    0
 0.119474932251283D+03 0.000000000000000D+00 0.000000000000000D+00 0.119474932251283D+03
 0.119474932251283D+03 0.000000000000000D+00 0.000000000000000D+00 -.119474932251283D+03
 0.138637496048282D+03 0.531465542888254D+02 -.143365175858873D+02 0.237752674279802D+02
 0.100312368454284D+03 -.531465542888254D+02 0.143365175858873D+02 -.237752674279802D+02
 0.000000000000000D+00 -.000000000000000D+00 -.000000000000000D+00 -.000000000000000D+00
 0.130747078303269D+03 0.000000000000000D+00 0.000000000000000D+00 0.130747078303269D+03
 0.224622195838996D+03 0.000000000000000D+00 0.000000000000000D+00 -.224622195838996D+03
 0.142255167215148D+03 0.611148715363038D+02 0.176420445311403D+02 0.237752674279802D+02
 0.103365140673320D+03 -.473686639372257D+02 0.375244278780479D+02 -.237752674279802D+02
 0.109748966253798D+03 -.137462075990780D+02 -.551664724091882D+02 -.938751175357272D+02
0.310292033106D-03 0.000000000000D+00 0.000000000000D+00 0.269782139704D-02 0.000000000000D+00  5 -2 1 25 -24 21 0 0.12690772D-01 0.26621886D-01 0.13693420D+05 0.13693420D+05 0.13693420D+05 0.12523600D+01  1  2  2  1  5  1       -2 0.203558759940D+00 0.100000000000D+01
-.172294034729D-04 0.000000000000D+00 -.119160310890D-05 0.269782139704D-02 0.000000000000D+00  5 -2 1 25 -24 21 2 0.12690772D-01 0.26621886D-01 0.13693420D+05 0.13693420D+05 0.13693420D+05 0.12523600D+01  1  2  3  1  5  1       -2 -.177275126249D-01 0.100000000000D+01
0.214645663156D-04 0.000000000000D+00 0.000000000000D+00 0.269782139704D-02 0.000000000000D+00  5 -2 1 25 -24 21 2 0.12690772D-01 0.26621886D-01 0.13693420D+05 0.13693420D+05 0.13693420D+05 0.12523600D+01  1  2 15  1  5  1       -2 0.220851157700D-01 0.100000000000D+01
  </mgrwgt>
  </event>
  <event>
  4     66 0.46019439E-03 0.14227133E+03 0.75467711E-02 0.11477134E+00
       -2 -1    0    0    0  501 0.00000000E+00 0.00000000E+00 0.12955641E+03 0.12955681E+03 0.32000000E+00 0.0000E+00 0.9000E+01
        1 -1    0    0  501    0 0.00000000E+00 0.00000000E+00 -.15646791E+03 0.15646824E+03 0.32000000E+00 0.0000E+00 0.9000E+01
       25  1    1    2    0    0 -.57366906E+02 -.78504886E+02 -.94733318E+01 0.15864654E+03 0.12500000E+03 0.0000E+00 0.9000E+01
      -24  1    1    2    0    0 0.57366906E+02 0.78504886E+02 -.17438162E+02 0.12737851E+03 0.80419002E+02 0.0000E+00 0.9000E+01
#aMCatNLO 1  0  0  1  2 0.10244098D+03 0.00000000D+00  -5  5  0 0.00000000D+00 0.00000000D+00 0.00000000D+00 0.00000000D+00 0.00000000D+00
  <mgrwgt>
 0.2028443230D+00    3    2    0
 0.142378103415237D+03 0.000000000000000D+00 0.000000000000000D+00 0.142378103415237D+03
 0.142378103415237D+03 0.000000000000000D+00 0.000000000000000D+00 -.142378103415237D+03
 0.158458146318536D+03 -.573669061811349D+02 -.785048862404324D+02 0.547768621666344D+01
 0.126298060511938D+03 0.573669061811349D+02 0.785048862404324D+02 -.547768621666344D+01
 0.000000000000000D+00 0.000000000000000D+00 0.000000000000000D+00 -.000000000000000D+00
 0.197946163060668D+03 0.000000000000000D+00 0.000000000000000D+00 0.197946163060668D+03
 0.207567985781714D+03 0.000000000000000D+00 0.000000000000000D+00 -.207567985781714D+03
 0.202373835673285D+03 -.813352008446914D+02 -.136692170303874D+03 0.547768621666344D+01
 0.100248456875579D+03 0.423185347652397D+02 0.419722970612680D+02 -.547768621666344D+01
 0.102891856293518D+03 0.390166660794518D+02 0.947198732426058D+02 -.962182272104568D+01
0.553876945536D-03 0.000000000000D+00 0.000000000000D+00 0.247360940921D-02 0.000000000000D+00  5 -2 1 25 -24 21 0 0.19931812D-01 0.24072041D-01 0.20241131D+05 0.20241131D+05 0.20241131D+05 0.12332535D+01  1  2  2  1  5  1       -2 0.198772129877D+00 0.100000000000D+01
-.307709203617D-04 0.000000000000D+00 -.212703331001D-05 0.247360940921D-02 0.000000000000D+00  5 -2 1 25 -24 21 2 0.19931812D-01 0.24072041D-01 0.20241131D+05 0.20241131D+05 0.20241131D+05 0.12332535D+01  1  2  3  1  5  1       -2 -.167952847527D-01 0.100000000000D+01
0.382316530800D-04 0.000000000000D+00 0.000000000000D+00 0.247360940921D-02 0.000000000000D+00  5 -2 1 25 -24 21 2 0.19931812D-01 0.24072041D-01 0.20241131D+05 0.20241131D+05 0.20241131D+05 0.12332535D+01  1  2 15  1  5  1       -2 0.208674778817D-01 0.100000000000D+01
  </mgrwgt>
  </event>
  <event>
  4     66 0.46019439E-03 0.11258326E+03 0.75467711E-02 0.11535898E+00
       -2 -1    0    0    0  501 0.00000000E+00 0.00000000E+00 0.11230333E+02 0.11234891E+02 0.32000000E+00 0.0000E+00 0.9000E+01
        1 -1    0    0  501    0 0.00000000E+00 0.00000000E+00 -.14310295E+04 0.14310295E+04 0.32000000E+00 0.0000E+00 0.9000E+01
       25  1    1    2    0    0 0.98543211E+01 0.44105665E+02 -.48368289E+03 0.50161395E+03 0.12500000E+03 0.0000E+00 0.9000E+01
      -24  1    1    2    0    0 -.98543211E+01 -.44105665E+02 -.93611625E+03 0.94065045E+03 0.80419002E+02 0.0000E+00 0.9000E+01
#aMCatNLO 1  0  0  1  2 0.13022781D+03 0.00000000D+00  -5  5  0 0.00000000D+00 0.00000000D+00 0.00000000D+00 0.00000000D+00 0.00000000D+00
  <mgrwgt>
 0.2854323491D+00    5    2    0
 0.126784265672214D+03 0.000000000000000D+00 0.000000000000000D+00 0.126784265672214D+03
 0.126784265672214D+03 0.000000000000000D+00 0.000000000000000D+00 -.126784265672214D+03
 0.144842074338524D+03 0.985432112662280D+01 0.441056654580279D+02 0.575483199435423D+02
 0.108726457005905D+03 -.985432112662280D+01 -.441056654580279D+02 -.575483199435423D+02
 0.000000000000000D+00 -.000000000000000D+00 0.000000000000000D+00 0.000000000000000D+00
 0.209333572553922D+03 0.000000000000000D+00 0.000000000000000D+00 0.209333572553922D+03
 0.205991982854224D+03 0.000000000000000D+00 0.000000000000000D+00 -.205991982854224D+03
 0.140236786981149D+03 0.106644729837552D+02 -.248156464846417D+02 0.575483199435423D+02
 0.144818090762704D+03 -.913378511322050D+01 -.105403170251020D+03 -.575483199435423D+02
 0.130270677664293D+03 -.153068787053474D+01 0.130218816735662D+03 0.334158969969845D+01
0.346521048991D-03 0.000000000000D+00 0.000000000000D+00 0.218456788275D-02 0.000000000000D+00  5 -2 1 25 -24 21 0 0.17280969D-02 0.22015873D+00 0.12674989D+05 0.12674989D+05 0.12674989D+05 0.12562482D+01  1  2  2  1  5  1       -2 0.225436955166D+00 0.100000000000D+01
-.189208551847D-04 0.000000000000D+00 -.133073206921D-05 0.218456788275D-02 0.000000000000D+00  5 -2 1 25 -24 21 2 0.17280969D-02 0.22015873D+00 0.12674989D+05 0.12674989D+05 0.12674989D+05 0.12562482D+01  1  2  3  1  5  1       -2 -.194261693885D-01 0.100000000000D+01
0.237788973992D-04 0.000000000000D+00 0.000000000000D+00 0.218456788275D-02 0.000000000000D+00  5 -2 1 25 -24 21 2 0.17280969D-02 0.22015873D+00 0.12674989D+05 0.12674989D+05 0.12674989D+05 0.12562482D+01  1  2 15  1  5  1       -2 0.244139540333D-01 0.100000000000D+01
0.516724971302D-04 0.000000000000D+00 -.977180160398D-04 0.218456788275D-02 0.000000000000D+00  5 -2 1 25 -24 21 2 0.50379595D-02 0.22015873D+00 0.12674989D+05 0.12674989D+05 0.12674989D+05 0.12562482D+01  1  2  5  1  5  1       -2 0.110824080076D-01 0.100000000000D+01
0.113957033912D-04 0.000000000000D+00 -.118318363579D-04 0.218456788275D-02 0.000000000000D+00  5 21 1 25 -24 2 2 0.50379595D-02 0.22015873D+00 0.12674989D+05 0.12674989D+05 0.12674989D+05 0.12562482D+01  1  2  5  3  5  1       -2 0.439252013244D-01 0.100000000000D+01
  </mgrwgt>
  </event>
  <event>
  4     66 0.46019439E-03 0.11609727E+03 0.75467711E-02 0.12034917E+00
       -2 -1    0    0    0  501 0.00000000E+00 0.00000000E+00 0.40014513E+03 0.40014526E+03 0.32000000E+00 0.0000E+00 0.9000E+01
        1 -1    0    0  501    0 0.00000000E+00 0.00000000E+00 -.35467693E+02 0.35469137E+02 0.32000000E+00 0.0000E+00 0.9000E+01
       25  1    1    2    0    0 0.42348513E+02 0.32061690E+02 0.25993106E+03 0.29327547E+03 0.12500000E+03 0.0000E+00 0.9000E+01
      -24  1    1    2    0    0 -.42348513E+02 -.32061690E+02 0.10474638E+03 0.14233892E+03 0.80419002E+02 0.0000E+00 0.9000E+01
#aMCatNLO 1  0  0  1  2 0.56131327D+02 0.00000000D+00  -5  5  0 0.00000000D+00 0.00000000D+00 0.00000000D+00 0.00000000D+00 0.00000000D+00
  <mgrwgt>
 0.1969919680D+00    3    2    0
 0.119132560605072D+03 0.000000000000000D+00 0.000000000000000D+00 0.119132560605072D+03
 0.119132560605072D+03 0.000000000000000D+00 0.000000000000000D+00 -.119132560605072D+03
 0.138350195144104D+03 0.423485133289480D+02 0.320616904749572D+02 0.263520002870310D+02
 0.999149260660402D+02 -.423485133289480D+02 -.320616904749572D+02 -.263520002870310D+02
 0.000000000000000D+00 0.000000000000000D+00 0.000000000000000D+00 -.000000000000000D+00
 0.127997888695828D+03 0.000000000000000D+00 0.000000000000000D+00 0.127997888695828D+03
 0.262949237546916D+03 0.000000000000000D+00 0.000000000000000D+00 -.262949237546916D+03
 0.132137146365669D+03 0.337257206251405D+02 0.183665425419409D+01 0.263520002870310D+02
 0.112650504058414D+03 -.491248291067147D+02 -.558143651433264D+02 -.263520002870310D+02
 0.146159475818662D+03 0.153991084815742D+02 0.539777108891323D+02 -.134951348851088D+03
0.630164670276D-03 0.000000000000D+00 0.000000000000D+00 0.268181353792D-02 0.000000000000D+00  5 -2 1 25 -24 21 0 0.61560910D-01 0.54566891D-02 0.13478575D+05 0.13478575D+05 0.13478575D+05 0.12531526D+01  1  2  2  1  5  1       -2 0.192892153849D+00 0.100000000000D+01
-.349807960810D-04 0.000000000000D+00 -.241999826003D-05 0.268181353792D-02 0.000000000000D+00  5 -2 1 25 -24 21 2 0.61560910D-01 0.54566891D-02 0.13478575D+05 0.13478575D+05 0.13478575D+05 0.12531526D+01  1  2  3  1  5  1       -2 -.168150481493D-01 0.100000000000D+01
0.435097495900D-04 0.000000000000D+00 0.000000000000D+00 0.268181353792D-02 0.000000000000D+00  5 -2 1 25 -24 21 2 0.61560910D-01 0.54566891D-02 0.13478575D+05 0.13478575D+05 0.13478575D+05 0.12531526D+01  1  2 15  1  5  1       -2 0.209148623327D-01 0.100000000000D+01
  </mgrwgt>
  </event>
  <event>
  4     66 0.46019439E-03 0.10463956E+03 0.75467711E-02 0.11432390E+00
       -2 -1    0    0    0  501 0.00000000E+00 0.00000000E+00 0.91589527E+01 0.91645412E+01 0.32000000E+00 0.0000E+00 0.9000E+01
        1 -1    0    0  501    0 0.00000000E+00 0.00000000E+00 -.11996972E+04 0.11996972E+04 0.32000000E+00 0.0000E+00 0.9000E+01
       25  1    1    2    0    0 0.19189591E+02 0.37141753E+01 -.75577346E+03 0.76629013E+03 0.12500000E+03 0.0000E+00 0.9000E+01
      -24  1    1    2    0    0 -.19189591E+02 -.37141753E+01 -.43476479E+03 0.44257166E+03 0.80419002E+02 0.0000E+00 0.9000E+01
#aMCatNLO 1  0  0  2  2 0.15524522D+03 0.00000000D+00  -5  5  0 0.00000000D+00 0.00000000D+00 0.00000000D+00 0.00000000D+00 0.00000000D+00
  <mgrwgt>
 0.2417869124D+00    5    2    0
 0.104839751942191D+03 0.000000000000000D+00 0.000000000000000D+00 0.104839751942191D+03
 0.104839751942191D+03 0.000000000000000D+00 0.000000000000000D+00 -.104839751942191D+03
 0.126677327565890D+03 0.191895911436164D+02 0.371417531099874D+01 -.633323082918282D+01
 0.830021763184932D+02 -.191895911436164D+02 -.371417531099874D+01 0.633323082918282D+01
 0.000000000000000D+00 -.000000000000000D+00 -.000000000000000D+00 -.000000000000000D+00
 0.185900745566725D+03 0.000000000000000D+00 0.000000000000000D+00 0.185900745566725D+03
 0.239103493359964D+03 0.000000000000000D+00 0.000000000000000D+00 -.239103493359964D+03
 0.169933075413693D+03 0.911658298854035D+02 0.700066551702472D+02 -.633323082918282D+01
 0.909626342881073D+02 0.230251545804315D+02 0.351669919963728D+02 0.633323082918282D+01
 0.164108529224889D+03 -.114190984465835D+03 -.105173647166620D+03 -.532027477932387D+02
0.191729087992D-03 0.000000000000D+00 0.000000000000D+00 0.315886449865D-02 0.000000000000D+00  5 -2 1 25 -24 21 0 0.14095028D-02 0.18456923D+00 0.10949437D+05 0.10949437D+05 0.10949437D+05 0.12637143D+01  1  2  2  2  5  2        1 0.236718020258D+00 0.100000000000D+01
-.106515686875D-04 0.000000000000D+00 -.736290181316D-06 0.315886449865D-02 0.000000000000D+00  5 -2 1 25 -24 21 2 0.14095028D-02 0.18456923D+00 0.10949437D+05 0.10949437D+05 0.10949437D+05 0.12637143D+01  1  2  3  2  5  2        1 -.210017112309D-01 0.100000000000D+01
0.132504133626D-04 0.000000000000D+00 0.000000000000D+00 0.315886449865D-02 0.000000000000D+00  5 -2 1 25 -24 21 2 0.14095028D-02 0.18456923D+00 0.10949437D+05 0.10949437D+05 0.10949437D+05 0.12637143D+01  1  2 15  2  5  2        1 0.261258565097D-01 0.100000000000D+01
-.188736160326D-05 0.000000000000D+00 -.638329624365D-04 0.315886449865D-02 0.000000000000D+00  5 -2 1 25 -24 21 2 0.14095028D-02 0.52133948D+00 0.10949437D+05 0.10949437D+05 0.10949437D+05 0.12637143D+01  1  2  5  2  5  2        1 -.136357442169D-03 0.100000000000D+01
0.329964541579D-05 0.000000000000D+00 -.745587966043D-05 0.315886449865D-02 0.000000000000D+00  5 -2 21 25 -24 -1 2 0.14095028D-02 0.52133948D+00 0.10949437D+05 0.10949437D+05 0.10949437D+05 0.12637143D+01  1  2  5  4  5  2        1 0.811042889626D-04 0.100000000000D+01
  </mgrwgt>
  </event>
  <event>
  5     66 0.46019439E-03 0.14026244E+03 0.75467711E-02 0.11208319E+00
       -2 -1    0    0    0  502 0.00000000E+00 0.00000000E+00 0.12545686E+03 0.12545727E+03 0.32000000E+00 0.0000E+00 0.9000E+01
        1 -1    0    0  501    0 0.00000000E+00 0.00000000E+00 -.45612434E+03 0.45612445E+03 0.32000000E+00 0.0000E+00 0.9000E+01
       25  1    1    2    0    0 -.23828201E+02 -.19333738E+03 -.15285204E+03 0.27737316E+03 0.12500000E+03 0.0000E+00 0.9000E+01
      -24  1    1    2    0    0 0.99363438E+00 0.38933077E+02 -.80527100E+02 0.12028550E+03 0.80419002E+02 0.0000E+00 0.9000E+01
       21  1    1    2  501  502 0.22834566E+02 0.15440430E+03 -.97288337E+02 0.18392305E+03 0.75000000E+00 0.0000E+00 0.9000E+01
#aMCatNLO 2  0  0  1  2 0.15608365D+03 0.00000000D+00  -5  5  0 0.00000000D+00 0.00000000D+00 0.00000000D+00 0.00000000D+00 0.00000000D+00
  <mgrwgt>
 0.1203257417D-01    1    2    0
 0.140805258901512D+03 0.000000000000000D+00 0.000000000000000D+00 0.140805258901512D+03
 0.140805258901512D+03 0.000000000000000D+00 0.000000000000000D+00 -.140805258901512D+03
 0.157064921568009D+03 -.911749572362266D+01 -.938655483654055D+02 0.122686465820932D+02
 0.124545596235015D+03 0.911749572362266D+01 0.938655483654055D+02 -.122686465820932D+02
 0.000000000000000D+00 0.000000000000000D+00 0.000000000000000D+00 0.000000000000000D+00
 0.245883649268167D+03 0.000000000000000D+00 0.000000000000000D+00 0.245883649268167D+03
 0.232726526966843D+03 0.000000000000000D+00 0.000000000000000D+00 -.232726526966843D+03
 0.231781460342848D+03 -.238282005084082D+02 -.193337380064585D+03 0.122686465820932D+02
 0.901915042629119D+02 0.993634377035642D+00 0.389330770503026D+02 -.122686465820932D+02
 0.156637211629250D+03 0.228345661313725D+02 0.154404303014283D+03 0.131571223013231D+02
0.852654720439D-04 0.000000000000D+00 0.000000000000D+00 0.247553583682D-02 0.907948789710D-06  5 -2 1 25 -24 21 2 0.19301023D-01 0.70172751D-01 0.56856816D+05 0.56856816D+05 0.56856816D+05 0.11867936D+01  1  2  1  1  5  1       -2 0.120325741653D-01 0.100000000000D+01
  </mgrwgt>
  </event>
  <event>
  4     66 0.46019439E-03 0.12141539E+03 0.75467711E-02 0.10547285E+00
       -4 -1    0    0    0  501 0.00000000E+00 0.00000000E+00 0.45935431E+03 0.45935693E+03 0.15500000E+01 0.0000E+00 0.9000E+01
        3 -1    0    0  501    0 0.00000000E+00 0.00000000E+00 -.37615359E+02 0.37618682E+02 0.50000000E+00 0.0000E+00 0.9000E+01
       25  1    1    2    0    0 -.13077438E+02 0.62290689E+02 0.14455145E+03 0.20142312E+03 0.12500000E+03 0.0000E+00 0.9000E+01
      -24  1    1    2    0    0 0.13077438E+02 -.62290689E+02 0.27718750E+03 0.29555249E+03 0.80419002E+02 0.0000E+00 0.9000E+01
#aMCatNLO 1  0  0  2  2 0.33245048D+03 0.00000000D+00  -5  5  0 0.00000000D+00 0.00000000D+00 0.00000000D+00 0.00000000D+00 0.00000000D+00
  <mgrwgt>
 0.6190382215D-01    3    2    0
 0.131454374888963D+03 0.000000000000000D+00 0.000000000000000D+00 0.131454374888963D+03
 0.131454374888963D+03 0.000000000000000D+00 0.000000000000000D+00 -.131454374888963D+03
 0.148870653452086D+03 -.130774375247954D+02 0.622906891246241D+02 -.498630337566369D+02
 0.114038096325840D+03 0.130774375247954D+02 -.622906891246241D+02 0.498630337566369D+02
 0.000000000000000D+00 -.000000000000000D+00 -.000000000000000D+00 0.000000000000000D+00
 0.531273139428010D+03 0.000000000000000D+00 0.000000000000000D+00 0.531273139428010D+03
 0.298444228661623D+03 0.000000000000000D+00 0.000000000000000D+00 -.298444228661623D+03
 0.318546644814788D+03 -.101536413399190D+02 0.288543837839042D+03 -.498630337566369D+02
 0.105298056393598D+03 0.144494325470258D+02 0.438788843243786D+02 0.498630337566369D+02
 0.405872666881247D+03 -.429579120710677D+01 -.332422722163421D+03 0.232828910766386D+03
0.940301898475D-03 0.000000000000D+00 0.000000000000D+00 0.226910070554D-02 0.000000000000D+00  5 -4 3 25 -24 21 0 0.70670351D-01 0.57874350D-02 0.14741697D+05 0.14741697D+05 0.14741697D+05 0.12486834D+01  1  2  2  2  5  2        3 0.605947170804D-01 0.100000000000D+01
-.518381472765D-04 0.000000000000D+00 -.361100687732D-05 0.226910070554D-02 0.000000000000D+00  5 -4 3 25 -24 21 2 0.70670351D-01 0.57874350D-02 0.14741697D+05 0.14741697D+05 0.14741697D+05 0.12486834D+01  1  2  3  2  5  2        3 -.520860749479D-02 0.100000000000D+01
0.648668850526D-04 0.000000000000D+00 0.000000000000D+00 0.226910070554D-02 0.000000000000D+00  5 -4 3 25 -24 21 2 0.70670351D-01 0.57874350D-02 0.14741697D+05 0.14741697D+05 0.14741697D+05 0.12486834D+01  1  2 15  2  5  2        3 0.651771256111D-02 0.100000000000D+01
  </mgrwgt>
  </event>
  <event>
  5     66 0.46019439E-03 0.11515908E+03 0.75467711E-02 0.11883954E+00
       -2 -1    0    0    0  501 0.00000000E+00 0.00000000E+00 0.92434886E+01 0.92490259E+01 0.32000000E+00 0.0000E+00 0.9000E+01
        1 -1    0    0  502    0 0.00000000E+00 0.00000000E+00 -.54507529E+04 0.54507529E+04 0.32000000E+00 0.0000E+00 0.9000E+01
       25  1    1    2    0    0 -.35304125E+02 0.61319505E+02 -.17816370E+04 0.17874176E+04 0.12500000E+03 0.0000E+00 0.9000E+01
      -24  1    1    2    0    0 -.39956857E+02 -.42344932E+02 -.41232387E+03 0.42410828E+03 0.80419002E+02 0.0000E+00 0.9000E+01
       21  1    1    2  502  501 0.75260982E+02 -.18974572E+02 -.32475485E+04 0.32484760E+04 0.75000000E+00 0.0000E+00 0.9000E+01
#aMCatNLO 2  0  0  2  1 0.77616041D+02 0.00000000D+00  -5  5  0 0.00000000D+00 0.00000000D+00 0.00000000D+00 0.00000000D+00 0.00000000D+00
  <mgrwgt>
 0.5316198200D-03    2    2    0
 0.133564965734024D+03 0.000000000000000D+00 0.000000000000000D+00 0.133564965734024D+03
 0.133564965734024D+03 0.000000000000000D+00 0.000000000000000D+00 -.133564965734024D+03
 0.150706032621028D+03 0.736497383673100D+01 0.505618998838706D+02 -.669070975972517D+02
 0.116423898847019D+03 -.736497383673100D+01 -.505618998838706D+02 0.669070975972517D+02
 0.000000000000000D+00 0.000000000000000D+00 -.000000000000000D+00 -.000000000000000D+00
 0.146432143070117D+03 0.000000000000000D+00 0.000000000000000D+00 0.146432143070117D+03
 0.344177706736645D+03 0.000000000000000D+00 0.000000000000000D+00 -.344177706736645D+03
 0.158455112409480D+03 -.353041253175452D+02 0.613195048526624D+02 -.669070975972517D+02
 0.119722259254842D+03 -.399568567331260D+02 -.423449323748812D+02 0.669070975972517D+02
 0.212432478142442D+03 0.752609820506712D+02 -.189745724777812D+02 -.197745563666528D+03
-.325132629264D-03 0.000000000000D+00 0.000000000000D+00 0.199860842715D-02 0.000000000000D+00  5 -2 1 25 -24 21 2 0.12974992D-02 0.82769925D+00 0.25685563D+05 0.25685563D+05 0.25685563D+05 0.12220400D+01  1  2 13  2  5  2        1 -.256103464754D-03 0.100000000000D+01
0.147795968921D-02 0.000000000000D+00 0.000000000000D+00 0.199860842715D-02 0.409888888613D-05  5 -2 1 25 -24 21 2 0.14224957D-02 0.83857417D+00 0.25685563D+05 0.25685563D+05 0.25685563D+05 0.12220400D+01  1  2  1  2  5  2        1 0.787723284792D-03 0.100000000000D+01
  </mgrwgt>
  </event>
  <event>
  4     66 0.46019439E-03 0.16325006E+03 0.75467711E-02 0.11329006E+00
       -2 -1    0    0    0  501 0.00000000E+00 0.00000000E+00 0.84001870E+01 0.84062799E+01 0.32000000E+00 0.0000E+00 0.9000E+01
        1 -1    0    0  501    0 0.00000000E+00 0.00000000E+00 -.32804018E+04 0.32804018E+04 0.32000000E+00 0.0000E+00 0.9000E+01
       25  1    1    2    0    0 -.12523461E+03 -.10837030E+02 -.20704722E+04 0.20780474E+04 0.12500000E+03 0.0000E+00 0.9000E+01
      -24  1    1    2    0    0 0.12523461E+03 0.10837030E+02 -.12015294E+04 0.12107606E+04 0.80419002E+02 0.0000E+00 0.9000E+01
#aMCatNLO 1  0  0  1  1 0.10087999D+03 0.00000000D+00  -5  5  0 0.00000000D+00 0.00000000D+00 0.00000000D+00 0.00000000D+00 0.00000000D+00
  <mgrwgt>
 0.2009627434D+00    4    2    0
 0.166030217840800D+03 0.000000000000000D+00 0.000000000000000D+00 0.166030217840800D+03
 0.166030217840800D+03 0.000000000000000D+00 0.000000000000000D+00 -.166030217840800D+03
 0.179819551139167D+03 -.125234614498149D+03 -.108370304576644D+02 -.301483179340280D+02
 0.152240884542432D+03 0.125234614498149D+03 0.108370304576644D+02 0.301483179340280D+02
 0.000000000000000D+00 -.000000000000000D+00 0.000000000000000D+00 -.000000000000000D+00
 0.209964602220442D+03 0.000000000000000D+00 0.000000000000000D+00 0.209964602220442D+03
 0.243338574559053D+03 0.000000000000000D+00 0.000000000000000D+00 -.243338574559053D+03
 0.170300692771920D+03 -.973308153355551D+02 -.547276645807287D+02 -.301483179340280D+02
 0.176745276803127D+03 0.151454074621085D+03 -.304042616135139D+02 0.301483179340280D+02
 0.106257207204448D+03 -.541232592855301D+02 0.851319261942426D+02 -.333739723386107D+02
0.392622433564D-02 0.000000000000D+00 0.000000000000D+00 0.223123492059D-02 0.000000000000D+00  5 -2 1 25 -24 21 0 0.12928063D-02 0.50467767D+00 0.26650581D+05 0.26650581D+05 0.26650581D+05 0.12203319D+01  1  2  2  1  5  1       -2 0.236093484790D+00 0.100000000000D+01
-.218047947768D-03 0.000000000000D+00 -.150777352475D-04 0.223123492059D-02 0.000000000000D+00  5 -2 1 25 -24 21 2 0.12928063D-02 0.50467767D+00 0.26650581D+05 0.26650581D+05 0.26650581D+05 0.12203319D+01  1  2  3  1  5  1       -2 -.195261578899D-01 0.100000000000D+01
0.270838529793D-03 0.000000000000D+00 0.000000000000D+00 0.223123492059D-02 0.000000000000D+00  5 -2 1 25 -24 21 2 0.12928063D-02 0.50467767D+00 0.26650581D+05 0.26650581D+05 0.26650581D+05 0.12203319D+01  1  2 15  1  5  1       -2 0.242535458349D-01 0.100000000000D+01
-.445094388509D-03 0.000000000000D+00 0.000000000000D+00 0.223123492059D-02 0.000000000000D+00  5 -2 1 25 -24 21 2 0.12928063D-02 0.50467767D+00 0.26650581D+05 0.26650581D+05 0.26650581D+05 0.12203319D+01  1  2  4  1  5  1       -2 -.398581293467D-01 0.100000000000D+01
  </mgrwgt>
  </event>
  <event>
  4     66 0.46019439E-03 0.49322451E+02 0.75467711E-02 0.11892323E+00
       -2 -1    0    0    0  501 0.00000000E+00 0.00000000E+00 0.18066063E+02 0.18068897E+02 0.32000000E+00 0.0000E+00 0.9000E+01
        1 -1    0    0  501    0 0.00000000E+00 0.00000000E+00 -.87325179E+03 0.87325185E+03 0.32000000E+00 0.0000E+00 0.9000E+01
       25  1    1    2    0    0 -.31187258E+02 0.63894312E+02 -.47930090E+03 0.50040932E+03 0.12500000E+03 0.0000E+00 0.9000E+01
      -24  1    1    2    0    0 0.31187258E+02 -.63894312E+02 -.37588483E+03 0.39091143E+03 0.80419002E+02 0.0000E+00 0.9000E+01
#aMCatNLO 1  0  0  2  1 0.60681621D+02 0.00000000D+00  -5  5  0 0.00000000D+00 0.00000000D+00 0.00000000D+00 0.00000000D+00 0.00000000D+00
  <mgrwgt>
 0.2480680113D+00    9    2    0
 0.125608561523886D+03 0.000000000000000D+00 0.000000000000000D+00 0.125608561523886D+03
 0.125608561523886D+03 0.000000000000000D+00 0.000000000000000D+00 -.125608561523886D+03
 0.143835392431205D+03 -.311872584336322D+02 0.638943124057385D+02 0.291408123263707D+01
 0.107381730616568D+03 0.311872584336322D+02 -.638943124057385D+02 -.291408123263707D+01
 0.000000000000000D+00 0.000000000000000D+00 -.000000000000000D+00 -.000000000000000D+00
 0.149361742795584D+03 0.000000000000000D+00 0.000000000000000D+00 0.149361742795584D+03
 0.174927704761263D+03 0.000000000000000D+00 0.000000000000000D+00 -.174927704761263D+03
 0.162912938783392D+03 -.613089588590850D+02 0.845478877159326D+02 0.291408123263707D+01
 0.955291282661547D+02 0.112620641216188D+02 -.502321852521971D+02 -.291408123263707D+01
 0.658473805073002D+02 0.500468947374663D+02 -.343157024637355D+02 -.255659619656786D+02
0.220953801608D-03 0.000000000000D+00 0.000000000000D+00 0.268464303685D-02 0.000000000000D+00  5 -2 1 25 -24 21 0 0.27796168D-02 0.13434665D+00 0.15768836D+05 0.15768836D+05 0.15768836D+05 0.12453553D+01  1  2  2  2  5  2        1 0.177586555425D+00 0.100000000000D+01
-.122752100719D-04 0.000000000000D+00 -.848520776646D-06 0.268464303685D-02 0.000000000000D+00  5 -2 1 25 -24 21 2 0.27796168D-02 0.13434665D+00 0.15768836D+05 0.15768836D+05 0.15768836D+05 0.12453553D+01  1  2  3  2  5  2        1 -.153011510745D-01 0.100000000000D+01
0.152788217468D-04 0.000000000000D+00 0.000000000000D+00 0.268464303685D-02 0.000000000000D+00  5 -2 1 25 -24 21 2 0.27796168D-02 0.13434665D+00 0.15768836D+05 0.15768836D+05 0.15768836D+05 0.12453553D+01  1  2 15  2  5  2        1 0.190451779170D-01 0.100000000000D+01
0.994561338054D-04 0.000000000000D+00 0.000000000000D+00 0.268464303685D-02 0.000000000000D+00  5 -2 1 25 -24 21 2 0.27796168D-02 0.19579895D+00 0.25448731D+05 0.25448731D+05 0.25448731D+05 0.12224702D+01  1  2 12  2  5  2        1 0.623909930057D-01 0.100000000000D+01
-.145348912246D-03 0.000000000000D+00 0.000000000000D+00 0.268464303685D-02 0.000000000000D+00  5 -2 1 25 -24 21 2 0.27796168D-02 0.13434665D+00 0.15768836D+05 0.15768836D+05 0.15768836D+05 0.12453553D+01  1  2  4  2  5  2        1 -.181178623565D+00 0.100000000000D+01
-.227881338974D-03 0.000000000000D+00 -.981943360336D-04 0.268464303685D-02 0.000000000000D+00  5 -2 1 25 -24 21 2 0.27796168D-02 0.20821474D+00 0.15768836D+05 0.15768836D+05 0.15768836D+05 0.12453553D+01  1  2  5  2  5  2        1 -.130194211239D+00 0.100000000000D+01
0.254781581007D-03 0.000000000000D+00 0.894683437560D-04 0.268464303685D-02 0.000000000000D+00  5 -2 1 25 -24 21 2 0.27796168D-02 0.13434665D+00 0.15768836D+05 0.15768836D+05 0.15768836D+05 0.12453553D+01  1  2  6  2  5  2        1 0.317587352001D+00 0.100000000000D+01
0.453085060965D-05 0.000000000000D+00 0.000000000000D+00 0.268464303685D-02 0.000000000000D+00  5 -2 21 25 -24 -1 2 0.27796168D-02 0.19579895D+00 0.25448731D+05 0.25448731D+05 0.25448731D+05 0.12224702D+01  1  2 12  4  5  2        1 0.358609083962D-02 0.100000000000D+01
-.782735117000D-05 0.000000000000D+00 -.500089301070D-05 0.268464303685D-02 0.000000000000D+00  5 -2 21 25 -24 -1 2 0.27796168D-02 0.20821474D+00 0.15768836D+05 0.15768836D+05 0.15768836D+05 0.12453553D+01  1  2  5  4  5  2        1 -.545417205295D-02 0.100000000000D+01
  </mgrwgt>
  </event>
  <event>
  5     66 0.46019439E-03 0.10818963E+03 0.75467711E-02 0.12135723E+00
       -4 -1    0    0    0  501 0.00000000E+00 0.00000000E+00 0.17325866E+03 0.17326559E+03 0.15500000E+01 0.0000E+00 0.9000E+01
       21 -1    0    0  501  502 0.00000000E+00 0.00000000E+00 -.12399430E+03 0.12399657E+03 0.75000000E+00 0.0000E+00 0.9000E+01
       25  1    1    2    0    0 -.56333950E+02 0.36039768E+02 0.67419067E+02 0.15697996E+03 0.12500000E+03 0.0000E+00 0.9000E+01
      -24  1    1    2    0    0 0.12778180E+02 -.13747324E+00 -.19837372E+02 0.83809534E+02 0.80419002E+02 0.0000E+00 0.9000E+01
       -3  1    1    2    0  502 0.43555770E+02 -.35902295E+02 0.16826650E+01 0.56472659E+02 0.50000000E+00 0.0000E+00 0.9000E+01
#aMCatNLO 2  0  0  2  1 0.56445371D+02 0.00000000D+00  -5  5  0 0.00000000D+00 0.00000000D+00 0.00000000D+00 0.00000000D+00 0.00000000D+00
  <mgrwgt>
 0.1678349465D-01    2    2    0
 0.114596559053302D+03 0.000000000000000D+00 0.000000000000000D+00 0.114596559053302D+03
 0.114596559053302D+03 0.000000000000000D+00 0.000000000000000D+00 -.114596559053302D+03
 0.134574872803041D+03 -.300149929013090D+02 0.143454909203500D+02 0.371308965868483D+02
 0.946182453035630D+02 0.300149929013090D+02 -.143454909203500D+02 -.371308965868483D+02
 0.000000000000000D+00 0.000000000000000D+00 -.000000000000000D+00 -.000000000000000D+00
 0.141820699851236D+03 0.000000000000000D+00 0.000000000000000D+00 0.141820699851236D+03
 0.151487983584099D+03 0.000000000000000D+00 0.000000000000000D+00 -.151487983584099D+03
 0.146547201368052D+03 -.563339495930472D+02 0.360397679059297D+02 0.371308965868483D+02
 0.894942467906977D+02 0.127781796054319D+02 -.137473240573831D+00 -.371308965868483D+02
 0.572672352765853D+02 0.435557699876153D+02 -.359022946653558D+02 -.966728373286349D+01
-.406647567375D-05 0.000000000000D+00 0.000000000000D+00 0.263736277274D-02 0.000000000000D+00  5 -4 21 25 -24 -3 2 0.21538816D-01 0.20328197D-01 0.19549434D+05 0.19549434D+05 0.19549434D+05 0.12349170D+01  1  2 13  4  5  2        3 -.112119549889D-01 0.100000000000D+01
0.133570373520D-04 0.000000000000D+00 0.000000000000D+00 0.263736277274D-02 0.357309535130D-06  5 -4 21 25 -24 -3 2 0.26655686D-01 0.19076611D-01 0.19549434D+05 0.19549434D+05 0.19549434D+05 0.12349170D+01  1  2  1  4  5  2        3 0.279954496411D-01 0.100000000000D+01
  </mgrwgt>
  </event>
  <event>
  4     66 0.46019439E-03 0.12267446E+03 0.75467711E-02 0.99059288E-01
       -2 -1    0    0    0  501 0.00000000E+00 0.00000000E+00 0.36201392E+02 0.36202807E+02 0.32000000E+00 0.0000E+00 0.9000E+01
        1 -1    0    0  501    0 0.00000000E+00 0.00000000E+00 -.89315282E+03 0.89315287E+03 0.32000000E+00 0.0000E+00 0.9000E+01
       25  1    1    2    0    0 -.65935244E+02 -.19384028E+01 -.79672762E+03 0.80916693E+03 0.12500000E+03 0.0000E+00 0.9000E+01
      -24  1    1    2    0    0 0.65935244E+02 0.19384028E+01 -.60223801E+02 0.12018875E+03 0.80419002E+02 0.0000E+00 0.9000E+01
#aMCatNLO 1  0  0  2  1 0.57999681D+03 0.00000000D+00  -5  5  0 0.00000000D+00 0.00000000D+00 0.00000000D+00 0.00000000D+00 0.00000000D+00
  <mgrwgt>
 0.2195588664D+00    3    2    0
 0.179816738370348D+03 0.000000000000000D+00 0.000000000000000D+00 0.179816738370348D+03
 0.179816738370348D+03 0.000000000000000D+00 0.000000000000000D+00 -.179816738370348D+03
 0.192548845693372D+03 -.659352442046193D+02 -.193840280271945D+01 -.130762548706048D+03
 0.167084631047324D+03 0.659352442046193D+02 0.193840280271945D+01 0.130762548706048D+03
 0.000000000000000D+00 0.000000000000000D+00 -.000000000000000D+00 0.000000000000000D+00
 0.841010088117284D+03 0.000000000000000D+00 0.000000000000000D+00 0.841010088117284D+03
 0.509492802123472D+03 0.000000000000000D+00 0.000000000000000D+00 -.509492802123472D+03
 0.467209128473906D+03 -.420383517389170D+03 0.940118284725626D+02 -.130762548706048D+03
 0.215236868698277D+03 -.139463099873292D+03 0.575403625492524D+02 0.130762548706048D+03
 0.668056893068574D+03 0.559846617262461D+03 -.151552191021815D+03 0.331517285993812D+03
0.767206864940D-03 0.000000000000D+00 0.000000000000D+00 0.112352124539D-02 0.000000000000D+00  5 -2 1 25 -24 21 0 0.55695582D-02 0.13740824D+00 0.15049023D+05 0.15049023D+05 0.15049023D+05 0.12476610D+01  1  2  2  2  5  2        1 0.212177874808D+00 0.100000000000D+01
-.350443969640D-04 0.000000000000D+00 -.294627637158D-05 0.112352124539D-02 0.000000000000D+00  5 -2 1 25 -24 21 2 0.55695582D-02 0.13740824D+00 0.15049023D+05 0.15049023D+05 0.15049023D+05 0.12476610D+01  1  2  3  2  5  2        1 -.150868794970D-01 0.100000000000D+01
0.521892545542D-04 0.000000000000D+00 0.000000000000D+00 0.112352124539D-02 0.000000000000D+00  5 -2 1 25 -24 21 2 0.55695582D-02 0.13740824D+00 0.15049023D+05 0.15049023D+05 0.15049023D+05 0.12476610D+01  1  2 15  2  5  2        1 0.224678711210D-01 0.100000000000D+01
  </mgrwgt>
  </event>
  <event>
  4     66 0.46019439E-03 0.10863658E+03 0.75467711E-02 0.12480823E+00
       -2 -1    0    0    0  501 0.00000000E+00 0.00000000E+00 0.13856728E+02 0.13860423E+02 0.32000000E+00 0.0000E+00 0.9000E+01
        1 -1    0    0  501    0 0.00000000E+00 0.00000000E+00 -.10658853E+04 0.10658853E+04 0.32000000E+00 0.0000E+00 0.9000E+01
       25  1    1    2    0    0 -.48696794E+02 0.24995827E+02 -.75380665E+03 0.76605851E+03 0.12500000E+03 0.0000E+00 0.9000E+01
      -24  1    1    2    0    0 0.48696794E+02 -.24995827E+02 -.29822191E+03 0.31368725E+03 0.80419002E+02 0.0000E+00 0.9000E+01
#aMCatNLO 1  0  0  2  1 0.31426453D+00 0.00000000D+00  -5  5  0 0.00000000D+00 0.00000000D+00 0.00000000D+00 0.00000000D+00 0.00000000D+00
  <mgrwgt>
 0.3967546609D+00    9    2    0
 0.121538896095969D+03 0.000000000000000D+00 0.000000000000000D+00 0.121538896095969D+03
 0.121538896095969D+03 0.000000000000000D+00 0.000000000000000D+00 -.121538896095969D+03
 0.140376042762165D+03 -.486967937486379D+02 0.249958273271217D+02 -.329281684337380D+02
 0.102701749429773D+03 0.486967937486379D+02 -.249958273271217D+02 0.329281684337380D+02
 0.000000000000000D+00 -.000000000000000D+00 0.000000000000000D+00 -.000000000000000D+00
 0.121561800011630D+03 0.000000000000000D+00 0.000000000000000D+00 0.121561800011630D+03
 0.122621805317740D+03 0.000000000000000D+00 0.000000000000000D+00 -.122621805317740D+03
 0.140307828705182D+03 -.485193791256413D+02 0.249578117795706D+02 -.329281684337380D+02
 0.102770166636033D+03 0.488266684091754D+02 -.250236562413902D+02 0.329281684337380D+02
 0.110560998815473D+01 -.307289283534141D+00 0.658444618195521D-01 -.106000530610948D+01
0.127098694748D-03 0.000000000000D+00 0.000000000000D+00 0.257919676430D-02 0.000000000000D+00  5 -2 1 25 -24 21 0 0.21320922D-02 0.16398264D+00 0.13658519D+05 0.13658519D+05 0.13658519D+05 0.12524878D+01  1  2  2  2  5  2        1 0.107785655658D+00 0.100000000000D+01
-.704786308139D-05 0.000000000000D+00 -.488092453688D-06 0.257919676430D-02 0.000000000000D+00  5 -2 1 25 -24 21 2 0.21320922D-02 0.16398264D+00 0.13658519D+05 0.13658519D+05 0.13658519D+05 0.12524878D+01  1  2  3  2  5  2        1 -.937614590127D-02 0.100000000000D+01
0.878195690802D-05 0.000000000000D+00 0.000000000000D+00 0.257919676430D-02 0.000000000000D+00  5 -2 1 25 -24 21 2 0.21320922D-02 0.16398264D+00 0.13658519D+05 0.13658519D+05 0.13658519D+05 0.12524878D+01  1  2 15  2  5  2        1 0.116831028522D-01 0.100000000000D+01
-.484249057040D-01 0.000000000000D+00 0.000000000000D+00 0.257919676430D-02 0.000000000000D+00  5 -2 1 25 -24 21 2 0.21320922D-02 0.16398264D+00 0.13658519D+05 0.13658519D+05 0.13658519D+05 0.12524878D+01  1  2  4  2  5  2        1 -.644222193157D+02 0.100000000000D+01
-.647034271679D-01 0.000000000000D+00 -.197879088619D-02 0.257919676430D-02 0.000000000000D+00  5 -2 1 25 -24 21 2 0.21320922D-02 0.16545709D+00 0.13658519D+05 0.13658519D+05 0.13658519D+05 0.12524878D+01  1  2  5  2  5  2        1 -.847447479306D+02 0.100000000000D+01
0.647186263415D-01 0.000000000000D+00 0.197871161300D-02 0.257919676430D-02 0.000000000000D+00  5 -2 1 25 -24 21 2 0.21320922D-02 0.16398264D+00 0.13658519D+05 0.13658519D+05 0.13658519D+05 0.12524878D+01  1  2  6  2  5  2        1 0.860986196952D+02 0.100000000000D+01
0.484266843141D-01 0.000000000000D+00 0.000000000000D+00 0.257919676430D-02 0.218454752576D+00  5 -2 1 25 -24 21 2 0.21324940D-02 0.16544372D+00 0.13695512D+05 0.13695512D+05 0.13695512D+05 0.12523524D+01  1  2 11  2  5  2        1 0.634091269631D+02 0.100000000000D+01
-.107093620370D-03 0.000000000000D+00 -.327698593202D-05 0.257919676430D-02 0.000000000000D+00  5 -2 21 25 -24 -1 2 0.21320922D-02 0.16545709D+00 0.13658519D+05 0.13658519D+05 0.13658519D+05 0.12524878D+01  1  2  5  4  5  2        1 -.211841135711D+00 0.100000000000D+01
0.797594879322D-04 0.000000000000D+00 0.000000000000D+00 0.257919676430D-02 0.358687820457D-03  5 -2 21 25 -24 -1 2 0.21324940D-02 0.16544372D+00 0.13695512D+05 0.13695512D+05 0.13695512D+05 0.12523524D+01  1  2 11  4  5  2        1 0.157723771922D+00 0.100000000000D+01
  </mgrwgt>
  </event>
  <event>
  4     66 0.46019439E-03 0.12086737E+03 0.75467711E-02 0.10555243E+00
       -2 -1    0    0    0  501 0.00000000E+00 0.00000000E+00 0.10482929E+03 0.10482978E+03 0.32000000E+00 0.0000E+00 0.9000E+01
        1 -1    0    0  501    0 0.00000000E+00 0.00000000E+00 -.14179478E+03 0.14179514E+03 0.32000000E+00 0.0000E+00 0.9000E+01
       25  1    1    2    0    0 -.54144669E+02 -.31463612E+02 -.37298013E+02 0.14469881E+03 0.12500000E+03 0.0000E+00 0.9000E+01
      -24  1    1    2    0    0 0.54144669E+02 0.31463612E+02 0.33252788E+00 0.10192610E+03 0.80419002E+02 0.0000E+00 0.9000E+01
#aMCatNLO 1  0  0  2  2 0.32842485D+03 0.00000000D+00  -5  5  0 0.00000000D+00 0.00000000D+00 0.00000000D+00 0.00000000D+00 0.00000000D+00
  <mgrwgt>
 0.1741322704D+00    3    2    0
 0.121919441960974D+03 0.000000000000000D+00 0.000000000000000D+00 0.121919441960974D+03
 0.121919441960974D+03 0.000000000000000D+00 0.000000000000000D+00 -.121919441960974D+03
 0.140697792440467D+03 -.541446689983921D+02 -.314636120917770D+02 -.157881199264943D+02
 0.103141091481481D+03 0.541446689983921D+02 0.314636120917770D+02 0.157881199264943D+02
 0.000000000000000D+00 0.000000000000000D+00 0.000000000000000D+00 0.000000000000000D+00
 0.370556357023300D+03 0.000000000000000D+00 0.000000000000000D+00 0.370556357023300D+03
 0.366936469597453D+03 0.000000000000000D+00 0.000000000000000D+00 -.366936469597453D+03
 0.320324905455565D+03 -.258416924873605D+03 -.141260303210678D+03 -.157881199264943D+02
 0.887231186512875D+02 -.308674902822666D+02 -.142305706737541D+02 0.157881199264943D+02
 0.328444802513901D+03 0.289284415155872D+03 0.155490873884432D+03 0.361988742584713D+01
0.297936092805D-03 0.000000000000D+00 0.000000000000D+00 0.270786706684D-02 0.000000000000D+00  5 -2 1 25 -24 21 0 0.16127648D-01 0.21814646D-01 0.14608920D+05 0.14608920D+05 0.14608920D+05 0.12491326D+01  1  2  2  2  5  2        1 0.170502177094D+00 0.100000000000D+01
-.165504935386D-04 0.000000000000D+00 -.114415304475D-05 0.270786706684D-02 0.000000000000D+00  5 -2 1 25 -24 21 2 0.16127648D-01 0.21814646D-01 0.14608920D+05 0.14608920D+05 0.14608920D+05 0.12491326D+01  1  2  3  2  5  2        1 -.147786529662D-01 0.100000000000D+01
0.206158055957D-04 0.000000000000D+00 0.000000000000D+00 0.270786706684D-02 0.000000000000D+00  5 -2 1 25 -24 21 2 0.16127648D-01 0.21814646D-01 0.14608920D+05 0.14608920D+05 0.14608920D+05 0.12491326D+01  1  2 15  2  5  2        1 0.184087462895D-01 0.100000000000D+01
  </mgrwgt>
  </event>
  <event>
  4     66 0.46019439E-03 0.10378706E+03 0.75467711E-02 0.12440852E+00
       -2 -1    0    0    0  501 0.00000000E+00 0.00000000E+00 0.84949339E+03 0.84949345E+03 0.32000000E+00 0.0000E+00 0.9000E+01
        1 -1    0    0  501    0 0.00000000E+00 0.00000000E+00 -.24620435E+02 0.24622514E+02 0.32000000E+00 0.0000E+00 0.9000E+01
       25  1    1    2    0    0 -.61229728E+01 -.13219571E+02 0.15676903E+03 0.20103178E+03 0.12500000E+03 0.0000E+00 0.9000E+01
      -24  1    1    2    0    0 0.61229728E+01 0.13219571E+02 0.66810393E+03 0.67308419E+03 0.80419002E+02 0.0000E+00 0.9000E+01
#aMCatNLO 1  0  0  1  2 0.28847616D+02 0.00000000D+00  -5  5  0 0.00000000D+00 0.00000000D+00 0.00000000D+00 0.00000000D+00 0.00000000D+00
  <mgrwgt>
 0.1696482116D+00    3    2    0
 0.144623068183043D+03 0.000000000000000D+00 0.000000000000000D+00 0.144623068183043D+03
 0.144623068183043D+03 0.000000000000000D+00 0.000000000000000D+00 -.144623068183043D+03
 0.160453502706184D+03 -.612297279974312D+01 -.132195708087370D+02 -.995393323385775D+02
 0.128792633659903D+03 0.612297279974312D+01 0.132195708087370D+02 0.995393323385775D+02
 0.000000000000000D+00 0.000000000000000D+00 -.000000000000000D+00 -.000000000000000D+00
 0.146618427422895D+03 0.000000000000000D+00 0.000000000000000D+00 0.146618427422895D+03
 0.308147807214126D+03 0.000000000000000D+00 0.000000000000000D+00 -.308147807214126D+03
 0.159931399046074D+03 -.613098137729184D+01 0.271749623292122D+01 -.995393323385775D+02
 0.130749718961649D+03 0.611648508747334D+01 0.261301163783216D+02 0.995393323385775D+02
 0.164085116629299D+03 0.144962898184934D-01 -.288476126112428D+02 -.161529379791231D+03
0.177752805416D-02 0.000000000000D+00 0.000000000000D+00 0.140029465254D-02 0.000000000000D+00  5 -2 1 25 -24 21 0 0.13069146D+00 0.37879238D-02 0.10771753D+05 0.10771753D+05 0.10771753D+05 0.12645576D+01  1  2  2  1  5  1       -2 0.164354638181D+00 0.100000000000D+01
-.855340110628D-04 0.000000000000D+00 -.682617576185D-05 0.140029465254D-02 0.000000000000D+00  5 -2 1 25 -24 21 2 0.13069146D+00 0.37879238D-02 0.10771753D+05 0.10771753D+05 0.10771753D+05 0.12645576D+01  1  2  3  1  5  1       -2 -.126468259198D-01 0.100000000000D+01
0.121335924676D-03 0.000000000000D+00 0.000000000000D+00 0.140029465254D-02 0.000000000000D+00  5 -2 1 25 -24 21 2 0.13069146D+00 0.37879238D-02 0.10771753D+05 0.10771753D+05 0.10771753D+05 0.12645576D+01  1  2 15  1  5  1       -2 0.179403993584D-01 0.100000000000D+01
  </mgrwgt>
  </event>
  <event>
  4     66 0.46019439E-03 0.10297813E+03 0.75467711E-02 0.95757556E-01
       -4 -1    0    0    0  501 0.00000000E+00 0.00000000E+00 0.13479951E+04 0.13479959E+04 0.15500000E+01 0.0000E+00 0.9000E+01
        3 -1    0    0  501    0 0.00000000E+00 0.00000000E+00 -.16447411E+02 0.16455009E+02 0.50000000E+00 0.0000E+00 0.9000E+01
       25  1    1    2    0    0 0.65387871E+01 -.31479144E+01 0.24720828E+03 0.27710936E+03 0.12500000E+03 0.0000E+00 0.9000E+01
      -24  1    1    2    0    0 -.65387871E+01 0.31479144E+01 0.10843394E+04 0.10873416E+04 0.80419002E+02 0.0000E+00 0.9000E+01
#aMCatNLO 1  0  0  1  2 0.77550776D+03 0.00000000D+00  -5  5  0 0.00000000D+00 0.00000000D+00 0.00000000D+00 0.00000000D+00 0.00000000D+00
  <mgrwgt>
 0.1228667449D+00    3    2    0
 0.148918836999595D+03 0.000000000000000D+00 0.000000000000000D+00 0.148918836999595D+03
 0.148918836999595D+03 0.000000000000000D+00 0.000000000000000D+00 -.148918836999595D+03
 0.164292620850819D+03 0.653878712072628D+01 -.314791441257830D+01 -.106369169235600D+03
 0.133545053148371D+03 -.653878712072628D+01 0.314791441257830D+01 0.106369169235600D+03
 0.000000000000000D+00 0.000000000000000D+00 -.000000000000000D+00 -.000000000000000D+00
 0.466033318312312D+03 0.000000000000000D+00 0.000000000000000D+00 0.466033318312312D+03
 0.338289269487114D+04 0.000000000000000D+00 0.000000000000000D+00 -.338289269487114D+04
 0.439755475268480D+03 -.322467393551342D+03 0.249920503282421D+03 -.106369169235600D+03
 0.390978876403970D+03 -.292230631597690D+03 0.222899357630037D+03 0.106369169235600D+03
 0.301819166151100D+04 0.614698025149032D+03 -.472819860912458D+03 -.291685937655882D+04
0.717257026359D-02 0.000000000000D+00 0.000000000000D+00 0.129230125045D-02 0.000000000000D+00  5 -4 3 25 -24 21 0 0.20738451D+00 0.25310239D-02 0.10604496D+05 0.10604496D+05 0.10604496D+05 0.12653658D+01  1  2  2  1  5  1       -4 0.118685997920D+00 0.100000000000D+01
-.332548824947D-03 0.000000000000D+00 -.275445583933D-04 0.129230125045D-02 0.000000000000D+00  5 -4 3 25 -24 21 2 0.20738451D+00 0.25310239D-02 0.10604496D+05 0.10604496D+05 0.10604496D+05 0.12653658D+01  1  2  3  1  5  1       -4 -.881073740740D-02 0.100000000000D+01
0.490345207095D-03 0.000000000000D+00 0.000000000000D+00 0.129230125045D-02 0.000000000000D+00  5 -4 3 25 -24 21 2 0.20738451D+00 0.25310239D-02 0.10604496D+05 0.10604496D+05 0.10604496D+05 0.12653658D+01  1  2 15  1  5  1       -4 0.129914843614D-01 0.100000000000D+01
  </mgrwgt>
  </event>
  <event>
  4     66 0.46019439E-03 0.17505408E+03 0.75467711E-02 0.10272422E+00
       -4 -1    0    0    0  501 0.00000000E+00 0.00000000E+00 0.53131470E+03 0.53131696E+03 0.15500000E+01 0.0000E+00 0.9000E+01
        3 -1    0    0  501    0 0.00000000E+00 0.00000000E+00 -.57710148E+02 0.57712314E+02 0.50000000E+00 0.0000E+00 0.9000E+01
       25  1    1    2    0    0 -.11042834E+03 0.87031330E+02 0.26191205E+03 0.32247759E+03 0.12500000E+03 0.0000E+00 0.9000E+01
      -24  1    1    2    0    0 0.11042834E+03 -.87031330E+02 0.21169250E+03 0.26655169E+03 0.80419002E+02 0.0000E+00 0.9000E+01
#aMCatNLO 1  0  0  2  1 0.38378387D+03 0.00000000D+00  -5  5  0 0.00000000D+00 0.00000000D+00 0.00000000D+00 0.00000000D+00 0.00000000D+00
  <mgrwgt>
 0.6723416949D-01    3    2    0
 0.175110119434903D+03 0.000000000000000D+00 0.000000000000000D+00 0.175110119434903D+03
 0.175110119434903D+03 0.000000000000000D+00 0.000000000000000D+00 -.175110119434903D+03
 0.188184441003500D+03 -.110428344506858D+03 0.870313301027232D+02 0.441725546298819D+01
 0.162035797866306D+03 0.110428344506858D+03 -.870313301027232D+02 -.441725546298819D+01
 0.000000000000000D+00 0.000000000000000D+00 -.000000000000000D+00 0.000000000000000D+00
 0.866017198676423D+03 0.000000000000000D+00 0.000000000000000D+00 0.866017198676423D+03
 0.320520338531131D+03 0.000000000000000D+00 0.000000000000000D+00 -.320520338531131D+03
 0.418683528168907D+03 -.371208849599496D+03 0.147835633705671D+03 0.441725546298819D+01
 0.100878086961245D+03 -.254979763285019D+01 -.606890341066345D+02 -.441725546298819D+01
 0.666975922077402D+03 0.373758647232346D+03 -.871465995990362D+02 0.545496860145292D+03
0.265279929333D-02 0.000000000000D+00 0.000000000000D+00 0.225433885936D-02 0.000000000000D+00  5 -4 3 25 -24 21 0 0.81741064D-01 0.88788248D-02 0.30643932D+05 0.30643932D+05 0.30643932D+05 0.12139316D+01  1  2  2  2  5  2        3 0.659468065284D-01 0.100000000000D+01
-.147377720164D-03 0.000000000000D+00 -.101874477845D-04 0.225433885936D-02 0.000000000000D+00  5 -4 3 25 -24 21 2 0.81741064D-01 0.88788248D-02 0.30643932D+05 0.30643932D+05 0.30643932D+05 0.12139316D+01  1  2  3  2  5  2        3 -.539895400134D-02 0.100000000000D+01
0.182519456532D-03 0.000000000000D+00 0.000000000000D+00 0.225433885936D-02 0.000000000000D+00  5 -4 3 25 -24 21 2 0.81741064D-01 0.88788248D-02 0.30643932D+05 0.30643932D+05 0.30643932D+05 0.12139316D+01  1  2 15  2  5  2        3 0.668631696209D-02 0.100000000000D+01
  </mgrwgt>
  </event>
  <event>
  4     66 0.46019439E-03 0.49164559E+02 0.75467711E-02 0.11825410E+00
       -2 -1    0    0    0  501 0.00000000E+00 0.00000000E+00 0.82439055E+01 0.82501139E+01 0.32000000E+00 0.0000E+00 0.9000E+01
        1 -1    0    0  501    0 0.00000000E+00 0.00000000E+00 -.24240022E+04 0.24240022E+04 0.32000000E+00 0.0000E+00 0.9000E+01
       25  1    1    2    0    0 0.94164763E+02 -.16722911E+02 -.14129768E+04 0.14217155E+04 0.12500000E+03 0.0000E+00 0.9000E+01
      -24  1    1    2    0    0 -.94164763E+02 0.16722911E+02 -.10027815E+04 0.10105368E+04 0.80419002E+02 0.0000E+00 0.9000E+01
#aMCatNLO 1  0  0  1  2 0.45207964D+02 0.00000000D+00  -5  5  0 0.00000000D+00 0.00000000D+00 0.00000000D+00 0.00000000D+00 0.00000000D+00
  <mgrwgt>
 0.3026109216D+00    9    2    0
 0.141388898555108D+03 0.000000000000000D+00 0.000000000000000D+00 0.141388898555108D+03
 0.141388898555108D+03 0.000000000000000D+00 0.000000000000000D+00 -.141388898555108D+03
 0.157581442911871D+03 0.941647630799649D+02 -.167229110171362D+02 -.776226715555166D+01
 0.125196354198346D+03 -.941647630799649D+02 0.167229110171362D+02 0.776226715555166D+01
 0.000000000000000D+00 0.000000000000000D+00 0.000000000000000D+00 0.000000000000000D+00
 0.194524247273293D+03 0.000000000000000D+00 0.000000000000000D+00 0.194524247273293D+03
 0.153136464998505D+03 0.000000000000000D+00 0.000000000000000D+00 -.153136464998505D+03
 0.154574368460645D+03 0.820719583686891D+02 -.383689489449658D+02 -.776226715555166D+01
 0.131794349438296D+03 -.104120491208257D+03 -.109777440774561D+01 0.776226715555166D+01
 0.612919943728559D+02 0.220485328395681D+02 0.394667233527114D+02 0.413877822747877D+02
0.107497167037D-02 0.000000000000D+00 0.000000000000D+00 0.247994352881D-02 0.000000000000D+00  5 -2 1 25 -24 21 0 0.12687723D-02 0.37292389D+00 0.19929765D+05 0.19929765D+05 0.19929765D+05 0.12339943D+01  1  2  2  1  5  1       -2 0.254433387233D+00 0.100000000000D+01
-.597204785023D-04 0.000000000000D+00 -.412817426078D-05 0.247994352881D-02 0.000000000000D+00  5 -2 1 25 -24 21 2 0.12687723D-02 0.37292389D+00 0.19929765D+05 0.19929765D+05 0.19929765D+05 0.12339943D+01  1  2  3  1  5  1       -2 -.215241818946D-01 0.100000000000D+01
0.742187949580D-04 0.000000000000D+00 0.000000000000D+00 0.247994352881D-02 0.000000000000D+00  5 -2 1 25 -24 21 2 0.12687723D-02 0.37292389D+00 0.19929765D+05 0.19929765D+05 0.19929765D+05 0.12339943D+01  1  2 15  1  5  1       -2 0.267495988434D-01 0.100000000000D+01
0.924911753843D-03 0.000000000000D+00 0.000000000000D+00 0.247994352881D-02 0.000000000000D+00  5 -2 1 25 -24 21 2 0.17830890D-02 0.37292389D+00 0.27415557D+05 0.27415557D+05 0.27415557D+05 0.12190262D+01  1  2 12  1  5  1       -2 0.198600772610D+00 0.100000000000D+01
-.100513244837D-02 0.000000000000D+00 0.000000000000D+00 0.247994352881D-02 0.000000000000D+00  5 -2 1 25 -24 21 2 0.12687723D-02 0.37292389D+00 0.19929765D+05 0.19929765D+05 0.19929765D+05 0.12339943D+01  1  2  4  1  5  1       -2 -.362265242835D+00 0.100000000000D+01
-.135543249602D-02 0.000000000000D+00 -.389437734846D-03 0.247994352881D-02 0.000000000000D+00  5 -2 1 25 -24 21 2 0.19280694D-02 0.37292389D+00 0.19929765D+05 0.19929765D+05 0.19929765D+05 0.12339943D+01  1  2  5  1  5  1       -2 -.266874718826D+00 0.100000000000D+01
0.142369049975D-02 0.000000000000D+00 0.357661788636D-03 0.247994352881D-02 0.000000000000D+00  5 -2 1 25 -24 21 2 0.12687723D-02 0.37292389D+00 0.19929765D+05 0.19929765D+05 0.19929765D+05 0.12339943D+01  1  2  6  1  5  1       -2 0.513120022589D+00 0.100000000000D+01
0.391532069854D-04 0.000000000000D+00 0.000000000000D+00 0.247994352881D-02 0.000000000000D+00  5 21 1 25 -24 2 2 0.17830890D-02 0.37292389D+00 0.27415557D+05 0.27415557D+05 0.27415557D+05 0.12190262D+01  1  2 12  3  5  1       -2 0.178477924973D+00 0.100000000000D+01
-.525837602689D-04 0.000000000000D+00 -.191647730808D-04 0.247994352881D-02 0.000000000000D+00  5 21 1 25 -24 2 2 0.19280694D-02 0.37292389D+00 0.19929765D+05 0.19929765D+05 0.19929765D+05 0.12339943D+01  1  2  5  3  5  1       -2 -.218106641076D+00 0.100000000000D+01
  </mgrwgt>
  </event>
  <event>
  4     66 0.46019439E-03 0.11324088E+03 0.75467711E-02 0.11849312E+00
       -2 -1    0    0    0  501 0.00000000E+00 0.00000000E+00 0.25423685E+02 0.25425699E+02 0.32000000E+00 0.0000E+00 0.9000E+01
        1 -1    0    0  501    0 0.00000000E+00 0.00000000E+00 -.51241026E+03 0.51241036E+03 0.32000000E+00 0.0000E+00 0.9000E+01
       25  1    1    2    0    0 0.67409770E+01 -.46267638E+02 -.25312961E+03 0.28615683E+03 0.12500000E+03 0.0000E+00 0.9000E+01
      -24  1    1    2    0    0 -.67409770E+01 0.46267638E+02 -.23385697E+03 0.25167922E+03 0.80419002E+02 0.0000E+00 0.9000E+01
#aMCatNLO 1  0  0  1  1 0.84855831D+02 0.00000000D+00  -5  5  0 0.00000000D+00 0.00000000D+00 0.00000000D+00 0.00000000D+00 0.00000000D+00
  <mgrwgt>
 0.2405190716D+00    3    2    0
 0.114139937473522D+03 0.000000000000000D+00 0.000000000000000D+00 0.114139937473522D+03
 0.114139937473522D+03 0.000000000000000D+00 0.000000000000000D+00 -.114139937473522D+03
 0.134198175300562D+03 0.674097697361611D+01 -.462676376660154D+02 0.140717869600059D+02
 0.940816996464819D+02 -.674097697361611D+01 0.462676376660154D+02 -.140717869600059D+02
 0.000000000000000D+00 0.000000000000000D+00 -.000000000000000D+00 -.000000000000000D+00
 0.136142576260657D+03 0.000000000000000D+00 0.000000000000000D+00 0.136142576260657D+03
 0.247022220779010D+03 0.000000000000000D+00 0.000000000000000D+00 -.247022220779010D+03
 0.126395203182017D+03 -.119167925569855D+02 -.327448535334794D+01 0.140717869600059D+02
 0.117145786060335D+03 -.218642842878490D+02 0.811163184670976D+02 -.140717869600059D+02
 0.139623807797315D+03 0.337810768448345D+02 -.778418331137496D+02 -.110879644518352D+03
0.229760053287D-03 0.000000000000D+00 0.000000000000D+00 0.286934047659D-02 0.000000000000D+00  5 -2 1 25 -24 21 0 0.39114987D-02 0.78832510D-01 0.12823496D+05 0.12823496D+05 0.12823496D+05 0.12556598D+01  1  2  2  1  5  1       -2 0.235460067067D+00 0.100000000000D+01
-.127634768544D-04 0.000000000000D+00 -.882339101834D-06 0.286934047659D-02 0.000000000000D+00  5 -2 1 25 -24 21 2 0.39114987D-02 0.78832510D-01 0.12823496D+05 0.12823496D+05 0.12823496D+05 0.12556598D+01  1  2  3  1  5  1       -2 -.206231838680D-01 0.100000000000D+01
0.158944428320D-04 0.000000000000D+00 0.000000000000D+00 0.286934047659D-02 0.000000000000D+00  5 -2 1 25 -24 21 2 0.39114987D-02 0.78832510D-01 0.12823496D+05 0.12823496D+05 0.12823496D+05 0.12556598D+01  1  2 15  1  5  1       -2 0.256821883836D-01 0.100000000000D+01
  </mgrwgt>
  </event>
  <event>
  4     66 0.46019439E-03 0.13573529E+03 0.75467711E-02 0.11195946E+00
       -2 -1    0    0    0  501 0.00000000E+00 0.00000000E+00 0.29310903E+02 0.29312650E+02 0.32000000E+00 0.0000E+00 0.9000E+01
        1 -1    0    0  501    0 0.00000000E+00 0.00000000E+00 -.68395054E+03 0.68395062E+03 0.32000000E+00 0.0000E+00 0.9000E+01
       25  1    1    2    0    0 -.69614047E+02 -.53069206E+02 -.26392575E+03 0.30486761E+03 0.12500000E+03 0.0000E+00 0.9000E+01
      -24  1    1    2    0    0 0.69614047E+02 0.53069206E+02 -.39071389E+03 0.40839566E+03 0.80419002E+02 0.0000E+00 0.9000E+01
#aMCatNLO 1  0  0  1  1 0.16380866D+03 0.00000000D+00  -5  5  0 0.00000000D+00 0.00000000D+00 0.00000000D+00 0.00000000D+00 0.00000000D+00
  <mgrwgt>
 0.2398039116D+00    5    2    0
 0.141590457886973D+03 0.000000000000000D+00 0.000000000000000D+00 0.141590457886973D+03
 0.141590457886973D+03 0.000000000000000D+00 0.000000000000000D+00 -.141590457886973D+03
 0.157759951549003D+03 -.696140472731438D+02 -.530692060235559D+02 0.400093252508165D+02
 0.125420964224942D+03 0.696140472731438D+02 0.530692060235559D+02 -.400093252508165D+02
 0.000000000000000D+00 -.000000000000000D+00 -.000000000000000D+00 0.000000000000000D+00
 0.252002258532756D+03 0.000000000000000D+00 0.000000000000000D+00 0.252002258532756D+03
 0.239434150120482D+03 0.000000000000000D+00 0.000000000000000D+00 -.239434150120482D+03
 0.131839110303481D+03 -.366572611477866D+01 -.119317790223988D+02 0.400093252508165D+02
 0.195307201811118D+03 0.142651176478533D+03 0.986285094036344D+02 -.400093252508165D+02
 0.164290096538638D+03 -.138985450363755D+03 -.866967303812356D+02 0.125681084122740D+02
0.358558655485D-03 0.000000000000D+00 0.000000000000D+00 0.230551594469D-02 0.000000000000D+00  5 -2 1 25 -24 21 0 0.45095098D-02 0.10522330D+00 0.18424069D+05 0.18424069D+05 0.18424069D+05 0.12377696D+01  1  2  2  1  5  1       -2 0.203521369759D+00 0.100000000000D+01
-.198767279948D-04 0.000000000000D+00 -.137695964772D-05 0.230551594469D-02 0.000000000000D+00  5 -2 1 25 -24 21 2 0.45095098D-02 0.10522330D+00 0.18424069D+05 0.18424069D+05 0.18424069D+05 0.12377696D+01  1  2  3  1  5  1       -2 -.172851964778D-01 0.100000000000D+01
0.247521620918D-04 0.000000000000D+00 0.000000000000D+00 0.230551594469D-02 0.000000000000D+00  5 -2 1 25 -24 21 2 0.45095098D-02 0.10522330D+00 0.18424069D+05 0.18424069D+05 0.18424069D+05 0.12377696D+01  1  2 15  1  5  1       -2 0.215249705646D-01 0.100000000000D+01
0.456664168937D-04 0.000000000000D+00 -.102107598360D-03 0.230551594469D-02 0.000000000000D+00  5 -2 1 25 -24 21 2 0.13725716D-01 0.10522330D+00 0.18424069D+05 0.18424069D+05 0.18424069D+05 0.12377696D+01  1  2  5  1  5  1       -2 0.709693594104D-02 0.100000000000D+01
0.107610830976D-04 0.000000000000D+00 -.129670537292D-04 0.230551594469D-02 0.000000000000D+00  5 21 1 25 -24 2 2 0.13725716D-01 0.10522330D+00 0.18424069D+05 0.18424069D+05 0.18424069D+05 0.12377696D+01  1  2  5  3  5  1       -2 0.249458317642D-01 0.100000000000D+01
  </mgrwgt>
  </event>
  <event>
  4     66 0.46019439E-03 0.10391439E+03 0.75467711E-02 0.10512444E+00
       -2 -1    0    0    0  501 0.00000000E+00 0.00000000E+00 0.10465110E+03 0.10465159E+03 0.32000000E+00 0.0000E+00 0.9000E+01
        1 -1    0    0  501    0 0.00000000E+00 0.00000000E+00 -.14467139E+03 0.14467174E+03 0.32000000E+00 0.0000E+00 0.9000E+01
       25  1    1    2    0    0 0.11742696E+02 -.99806369E+01 -.88716034E+02 0.15405531E+03 0.12500000E+03 0.0000E+00 0.9000E+01
      -24  1    1    2    0    0 -.11742696E+02 0.99806369E+01 0.48695744E+02 0.95268019E+02 0.80419002E+02 0.0000E+00 0.9000E+01
#aMCatNLO 1  0  0  2  1 0.35116659D+03 0.00000000D+00  -5  5  0 0.00000000D+00 0.00000000D+00 0.00000000D+00 0.00000000D+00 0.00000000D+00
  <mgrwgt>
 0.2018160790D+00    5    2    0
 0.123045214177018D+03 0.000000000000000D+00 0.000000000000000D+00 0.123045214177018D+03
 0.123045214177018D+03 0.000000000000000D+00 0.000000000000000D+00 -.123045214177018D+03
 0.141651756712786D+03 0.117426962026384D+02 -.998063691760565D+01 -.648283591681122D+02
 0.104438671641250D+03 -.117426962026384D+02 0.998063691760565D+01 0.648283591681122D+02
 0.000000000000000D+00 -.000000000000000D+00 0.000000000000000D+00 -.000000000000000D+00
 0.361456039849980D+03 0.000000000000000D+00 0.000000000000000D+00 0.361456039849980D+03
 0.424057289150057D+03 0.000000000000000D+00 0.000000000000000D+00 -.424057289150057D+03
 0.268807278716232D+03 0.178803827317380D+03 -.143034360469969D+03 -.648283591681122D+02
 0.160003250449360D+03 0.958879387825022D+02 -.757404201440903D+02 0.648283591681122D+02
 0.356702799834445D+03 -.274691766099882D+03 0.218774780614059D+03 -.626012493000780D+02
0.290739731602D-03 0.000000000000D+00 0.000000000000D+00 0.206828026500D-02 0.000000000000D+00  5 -2 1 25 -24 21 0 0.16100234D-01 0.22257201D-01 0.10798201D+05 0.10798201D+05 0.10798201D+05 0.12644310D+01  1  2  2  2  5  2        1 0.160889969256D+00 0.100000000000D+01
-.155914087244D-04 0.000000000000D+00 -.111651712288D-05 0.206828026500D-02 0.000000000000D+00  5 -2 1 25 -24 21 2 0.16100234D-01 0.22257201D-01 0.10798201D+05 0.10798201D+05 0.10798201D+05 0.12644310D+01  1  2  3  2  5  2        1 -.137943183162D-01 0.100000000000D+01
0.199403802301D-04 0.000000000000D+00 0.000000000000D+00 0.206828026500D-02 0.000000000000D+00  5 -2 1 25 -24 21 2 0.16100234D-01 0.22257201D-01 0.10798201D+05 0.10798201D+05 0.10798201D+05 0.12644310D+01  1  2 15  2  5  2        1 0.176420204936D-01 0.100000000000D+01
0.589929486675D-03 0.000000000000D+00 -.229291195189D-03 0.206828026500D-02 0.000000000000D+00  5 -2 1 25 -24 21 2 0.16100234D-01 0.18813628D+00 0.10798201D+05 0.10798201D+05 0.10798201D+05 0.12644310D+01  1  2  5  2  5  2        1 0.289248597339D-01 0.100000000000D+01
0.122465911966D-03 0.000000000000D+00 -.591682852018D-04 0.206828026500D-02 0.000000000000D+00  5 -2 21 25 -24 -1 2 0.16100234D-01 0.18813628D+00 0.10798201D+05 0.10798201D+05 0.10798201D+05 0.12644310D+01  1  2  5  4  5  2        1 0.815354787798D-02 0.100000000000D+01
  </mgrwgt>
  </event>
  <event>
  5     66 0.46019439E-03 0.10731400E+03 0.75467711E-02 0.12060232E+00
       -2 -1    0    0    0  501 0.00000000E+00 0.00000000E+00 0.84404710E+03 0.84404716E+03 0.32000000E+00 0.0000E+00 0.9000E+01
        1 -1    0    0  502    0 0.00000000E+00 0.00000000E+00 -.60088053E+02 0.60088905E+02 0.32000000E+00 0.0000E+00 0.9000E+01
       25  1    1    2    0    0 0.92215424E+01 0.12937738E+02 0.45161966E+03 0.46886857E+03 0.12500000E+03 0.0000E+00 0.9000E+01
      -24  1    1    2    0    0 0.56871203E+02 -.59602308E+01 0.35230978E+03 0.36586781E+03 0.80419002E+02 0.0000E+00 0.9000E+01
       21  1    1    2  502  501 -.66092745E+02 -.69775074E+01 -.19970393E+02 0.69399681E+02 0.75000000E+00 0.0000E+00 0.9000E+01
#aMCatNLO 2  0  0  2  1 0.66460037D+02 0.00000000D+00  -5  5  0 0.00000000D+00 0.00000000D+00 0.00000000D+00 0.00000000D+00 0.00000000D+00
  <mgrwgt>
 0.8984113265D-01    2    2    0
 0.107314200396385D+03 0.000000000000000D+00 0.000000000000000D+00 0.107314200396385D+03
 0.107314200396385D+03 0.000000000000000D+00 0.000000000000000D+00 -.107314200396385D+03
 0.128648245685367D+03 -.290902324028815D+02 0.889310832683999D+01 0.205233905422295D+00
 0.859801551074027D+02 0.290902324028815D+02 -.889310832683999D+01 -.205233905422295D+00
 0.000000000000000D+00 -.000000000000000D+00 -.000000000000000D+00 -.000000000000000D+00
 0.115729605581317D+03 0.000000000000000D+00 0.000000000000000D+00 0.115729605581317D+03
 0.438238729698474D+03 0.000000000000000D+00 0.000000000000000D+00 -.438238729698474D+03
 0.126005809528721D+03 0.922154240478489D+01 0.129377381991251D+02 0.205233905422295D+00
 0.986768265780711D+02 0.568712025235013D+02 -.596023084478624D+01 -.205233905422295D+00
 0.329285699172999D+03 -.660927449282862D+02 -.697750735433886D+01 -.322509124117157D+03
-.113366373773D-02 0.000000000000D+00 0.000000000000D+00 0.308911583409D-02 0.000000000000D+00  5 -2 1 25 -24 21 2 0.12041060D+00 0.89742841D-02 0.21190959D+05 0.21190959D+05 0.21190959D+05 0.12310700D+01  1  2 13  2  5  2        1 -.611220076314D-01 0.100000000000D+01
0.350066610356D-02 0.000000000000D+00 0.000000000000D+00 0.308911583409D-02 0.124879281743D-04  5 -2 1 25 -24 21 2 0.12985300D+00 0.92443529D-02 0.21190959D+05 0.21190959D+05 0.21190959D+05 0.12310700D+01  1  2  1  2  5  2        1 0.150963140284D+00 0.100000000000D+01
  </mgrwgt>
  </event>
  <event>
  4     66 -.46019439E-03 0.59519843E+02 0.75467711E-02 0.12664395E+00
       -2 -1    0    0    0  501 0.00000000E+00 0.00000000E+00 0.10675321E+02 0.10680116E+02 0.32000000E+00 0.0000E+00 0.9000E+01
        1 -1    0    0  501    0 0.00000000E+00 0.00000000E+00 -.14339735E+04 0.14339735E+04 0.32000000E+00 0.0000E+00 0.9000E+01
       25  1    1    2    0    0 -.13240913E+02 0.20683636E+02 -.44864771E+03 0.46638278E+03 0.12500000E+03 0.0000E+00 0.9000E+01
      -24  1    1    2    0    0 0.13240913E+02 -.20683636E+02 -.97465047E+03 0.97827086E+03 0.80419002E+02 0.0000E+00 0.9000E+01
#aMCatNLO 1  0  0  1  2 0.22842838D+01 0.00000000D+00  -5  5  0 0.00000000D+00 0.00000000D+00 0.00000000D+00 0.00000000D+00 0.00000000D+00
  <mgrwgt>
 -.1912491599D+00   11    2    0
 0.123740116256758D+03 0.000000000000000D+00 0.000000000000000D+00 0.123740116256758D+03
 0.123740116256758D+03 0.000000000000000D+00 0.000000000000000D+00 -.123740116256758D+03
 0.142242167819865D+03 -.132409127065035D+02 0.206836363324107D+02 0.632826968836022D+02
 0.105238064693651D+03 0.132409127065035D+02 -.206836363324107D+02 -.632826968836022D+02
 0.000000000000000D+00 0.000000000000000D+00 0.000000000000000D+00 0.000000000000000D+00
 0.128377283287328D+03 0.000000000000000D+00 0.000000000000000D+00 0.128377283287328D+03
 0.124027018794755D+03 0.000000000000000D+00 0.000000000000000D+00 -.124027018794755D+03
 0.142183531578046D+03 -.140984541591873D+02 0.196898582388169D+02 0.632826968836022D+02
 0.105307242871397D+03 0.126061201076374D+02 -.214192777136573D+02 -.632826968836022D+02
 0.491352763263956D+01 0.149233405154989D+01 0.172941947484038D+01 0.435026449257284D+01
0.226876565751D-03 0.000000000000D+00 0.000000000000D+00 0.209626696837D-02 0.000000000000D+00  5 -2 1 25 -24 21 0 0.16427286D-02 0.22061168D+00 0.11180427D+05 0.11180427D+05 0.11180427D+05 0.12626408D+01  1  2  2  1  5  1       -2 0.157614807731D+00 0.100000000000D+01
-.122254326930D-04 0.000000000000D+00 -.871265750457D-06 0.209626696837D-02 0.000000000000D+00  5 -2 1 25 -24 21 2 0.16427286D-02 0.22061168D+00 0.11180427D+05 0.11180427D+05 0.11180427D+05 0.12626408D+01  1  2  3  1  5  1       -2 -.135403927553D-01 0.100000000000D+01
0.155486297896D-04 0.000000000000D+00 0.000000000000D+00 0.209626696837D-02 0.000000000000D+00  5 -2 1 25 -24 21 2 0.16427286D-02 0.22061168D+00 0.11180427D+05 0.11180427D+05 0.11180427D+05 0.12626408D+01  1  2 15  1  5  1       -2 0.172210308989D-01 0.100000000000D+01
0.464914755884D-05 0.000000000000D+00 0.000000000000D+00 0.209626696837D-02 0.000000000000D+00  5 -2 1 25 -24 21 2 0.17061546D-02 0.22061168D+00 0.11425520D+05 0.11425520D+05 0.11425520D+05 0.12615288D+01  1  2 12  1  5  1       -2 0.487031236845D-02 0.100000000000D+01
-.592365019317D-02 0.000000000000D+00 0.000000000000D+00 0.209626696837D-02 0.000000000000D+00  5 -2 1 25 -24 21 2 0.16427286D-02 0.22061168D+00 0.11180427D+05 0.11180427D+05 0.11180427D+05 0.12626408D+01  1  2  4  1  5  1       -2 -.656079438453D+01 0.100000000000D+01
-.935496795359D-02 0.000000000000D+00 -.672249295948D-03 0.209626696837D-02 0.000000000000D+00  5 -2 1 25 -24 21 2 0.17083493D-02 0.22061168D+00 0.11180427D+05 0.11180427D+05 0.11180427D+05 0.12626408D+01  1  2  5  1  5  1       -2 -.979448093507D+01 0.100000000000D+01
0.937462236781D-02 0.000000000000D+00 0.671733942048D-03 0.209626696837D-02 0.000000000000D+00  5 -2 1 25 -24 21 2 0.16427286D-02 0.22061168D+00 0.11180427D+05 0.11180427D+05 0.11180427D+05 0.12626408D+01  1  2  6  1  5  1       -2 0.103829510154D+02 0.100000000000D+01
0.592297323919D-02 0.000000000000D+00 0.000000000000D+00 0.209626696837D-02 0.341221407189D-02  5 -2 1 25 -24 21 2 0.17042900D-02 0.22112319D+00 0.11425520D+05 0.11425520D+05 0.11425520D+05 0.12615288D+01  1  2 11  1  5  1       -2 0.618376950664D+01 0.100000000000D+01
0.111912116438D-06 0.000000000000D+00 0.000000000000D+00 0.209626696837D-02 0.000000000000D+00  5 21 1 25 -24 2 2 0.17061546D-02 0.22061168D+00 0.11425520D+05 0.11425520D+05 0.11425520D+05 0.12615288D+01  1  2 12  3  5  1       -2 0.253941890107D-02 0.100000000000D+01
-.644738195331D-04 0.000000000000D+00 -.465954909863D-05 0.209626696837D-02 0.000000000000D+00  5 21 1 25 -24 2 2 0.17083493D-02 0.22061168D+00 0.11180427D+05 0.11180427D+05 0.11180427D+05 0.12626408D+01  1  2  5  3  5  1       -2 -.146230670241D+01 0.100000000000D+01
0.393884748609D-04 0.000000000000D+00 0.000000000000D+00 0.209626696837D-02 0.223389296802D-04  5 21 1 25 -24 2 2 0.17042900D-02 0.22112319D+00 0.11425520D+05 0.11425520D+05 0.11425520D+05 0.12615288D+01  1  2 11  3  5  1       -2 0.890907162997D+00 0.100000000000D+01
  </mgrwgt>
  </event>
  <event>
  5     66 0.46019439E-03 0.10594380E+03 0.75467711E-02 0.12134490E+00
       -2 -1    0    0    0  502 0.00000000E+00 0.00000000E+00 0.36045764E+02 0.36047185E+02 0.32000000E+00 0.0000E+00 0.9000E+01
        1 -1    0    0  501    0 0.00000000E+00 0.00000000E+00 -.13340949E+04 0.13340950E+04 0.32000000E+00 0.0000E+00 0.9000E+01
       25  1    1    2    0    0 0.52702099E+02 -.24599410E+01 -.63998135E+03 0.65420539E+03 0.12500000E+03 0.0000E+00 0.9000E+01
      -24  1    1    2    0    0 0.24348812E+01 0.25479547E+02 -.65021481E+03 0.65566886E+03 0.80419002E+02 0.0000E+00 0.9000E+01
       21  1    1    2  501  502 -.55136980E+02 -.23019606E+02 -.78530106E+01 0.60267911E+02 0.75000000E+00 0.0000E+00 0.9000E+01
#aMCatNLO 2  0  0  1  2 0.59749384D+02 0.00000000D+00  -5  5  0 0.00000000D+00 0.00000000D+00 0.00000000D+00 0.00000000D+00 0.00000000D+00
  <mgrwgt>
 0.1075601366D+00    2    2    0
 0.109080729299531D+03 0.000000000000000D+00 0.000000000000000D+00 0.109080729299531D+03
 0.109080729299531D+03 0.000000000000000D+00 0.000000000000000D+00 -.109080729299531D+03
 0.130069276278537D+03 0.194336927417721D+02 -.163494506385007D+02 0.254567021010167D+02
 0.880921823205261D+02 -.194336927417721D+02 0.163494506385007D+02 -.254567021010167D+02
 0.000000000000000D+00 -.000000000000000D+00 -.000000000000000D+00 0.000000000000000D+00
 0.414345340219811D+03 0.000000000000000D+00 0.000000000000000D+00 0.414345340219811D+03
 0.116060427505490D+03 0.000000000000000D+00 0.000000000000000D+00 -.116060427505490D+03
 0.138045667228882D+03 0.527020990936151D+02 -.245994104278823D+01 0.254567021010167D+02
 0.881498475092030D+02 0.243488119128368D+01 0.254795473517416D+02 -.254567021010167D+02
 0.304210252987216D+03 -.551369802848987D+02 -.230196063089534D+02 0.298284912714320D+03
-.457947011241D-03 0.000000000000D+00 0.000000000000D+00 0.289889480379D-02 0.000000000000D+00  5 -2 1 25 -24 21 2 0.54229020D-02 0.19290158D+00 0.19575028D+05 0.19575028D+05 0.19575028D+05 0.12348543D+01  1  2 13  1  5  1       -2 -.111368239362D+00 0.100000000000D+01
0.105385932411D-02 0.000000000000D+00 0.000000000000D+00 0.289889480379D-02 0.138323572502D-04  5 -2 1 25 -24 21 2 0.55455929D-02 0.20524469D+00 0.19575028D+05 0.19575028D+05 0.19575028D+05 0.12348543D+01  1  2  1  1  5  1       -2 0.218928375938D+00 0.100000000000D+01
  </mgrwgt>
  </event>
  <event>
  5     66 0.46019439E-03 0.11767591E+03 0.75467711E-02 0.12261370E+00
       -2 -1    0    0    0  502 0.00000000E+00 0.00000000E+00 0.60481797E+03 0.60481806E+03 0.32000000E+00 0.0000E+00 0.9000E+01
        1 -1    0    0  501    0 0.00000000E+00 0.00000000E+00 -.39282927E+02 0.39284231E+02 0.32000000E+00 0.0000E+00 0.9000E+01
       25  1    1    2    0    0 0.45992341E+02 0.19606475E+02 0.45797032E+03 0.47734843E+03 0.12500000E+03 0.0000E+00 0.9000E+01
      -24  1    1    2    0    0 -.63214868E+02 -.16883079E+01 0.90584949E+02 0.13664486E+03 0.80419002E+02 0.0000E+00 0.9000E+01
       21  1    1    2  501  502 0.17222527E+02 -.17918167E+02 0.16979772E+02 0.30108990E+02 0.75000000E+00 0.0000E+00 0.9000E+01
#aMCatNLO 2  0  0  1  1 0.24853091D+02 0.00000000D+00  -5  5  0 0.00000000D+00 0.00000000D+00 0.00000000D+00 0.00000000D+00 0.00000000D+00
  <mgrwgt>
 0.4052142812D-01    1    2    0
 0.137347374808472D+03 0.000000000000000D+00 0.000000000000000D+00 0.137347374808472D+03
 0.137347374808472D+03 0.000000000000000D+00 0.000000000000000D+00 -.137347374808472D+03
 0.154016393889470D+03 0.555594226745033D+02 0.965296599332251D+01 0.701143379511210D+02
 0.120678355727475D+03 -.555594226745033D+02 -.965296599332251D+01 -.701143379511210D+02
 0.000000000000000D+00 0.000000000000000D+00 -.000000000000000D+00 -.000000000000000D+00
 0.143490201268023D+03 0.000000000000000D+00 0.000000000000000D+00 0.143490201268023D+03
 0.165572993659661D+03 0.000000000000000D+00 0.000000000000000D+00 -.165572993659661D+03
 0.151791731070159D+03 0.459923405864406D+02 0.196064745003380D+02 0.701143379511210D+02
 0.124025022597490D+03 -.632148677610924D+02 -.168830789872646D+01 -.701143379511210D+02
 0.332464412600347D+02 0.172225271746518D+02 -.179181666016115D+02 -.220827923916387D+02
0.238786492292D-03 0.000000000000D+00 0.000000000000D+00 0.193821928366D-02 0.264080945121D-04  5 -2 1 25 -24 21 2 0.93046352D-01 0.60434604D-02 0.17132913D+05 0.17132913D+05 0.17132913D+05 0.12412934D+01  1  2  1  1  5  1       -2 0.405214281180D-01 0.100000000000D+01
  </mgrwgt>
  </event>
  <event>
  5     66 0.46019439E-03 0.18126075E+03 0.75467711E-02 0.10317367E+00
       -2 -1    0    0    0  501 0.00000000E+00 0.00000000E+00 0.25701522E+03 0.25701541E+03 0.32000000E+00 0.0000E+00 0.9000E+01
       21 -1    0    0  501  502 0.00000000E+00 0.00000000E+00 -.91751900E+03 0.91751931E+03 0.75000000E+00 0.0000E+00 0.9000E+01
       25  1    1    2    0    0 0.65401121E+02 -.27843689E+03 -.49475926E+03 0.58499243E+03 0.12500000E+03 0.0000E+00 0.9000E+01
      -24  1    1    2    0    0 -.16688610E+03 -.70372071E+02 -.24083038E+02 0.19962567E+03 0.80419002E+02 0.0000E+00 0.9000E+01
       -1  1    1    2    0  502 0.10148498E+03 0.34880896E+03 -.14166148E+03 0.38991662E+03 0.32000000E+00 0.0000E+00 0.9000E+01
#aMCatNLO 2  0  0  2  1 0.36327248D+03 0.00000000D+00  -5  5  0 0.00000000D+00 0.00000000D+00 0.00000000D+00 0.00000000D+00 0.00000000D+00
  <mgrwgt>
 0.5553014830D-02    1    2    0
 0.231549849520883D+03 0.000000000000000D+00 0.000000000000000D+00 0.231549849520883D+03
 0.231549849520883D+03 0.000000000000000D+00 0.000000000000000D+00 -.231549849520883D+03
 0.241437336021715D+03 0.121865313066429D+03 -.843666402718363D+02 -.143868351994892D+03
 0.221662363020051D+03 -.121865313066429D+03 0.843666402718363D+02 0.143868351994892D+03
 0.000000000000000D+00 0.000000000000000D+00 0.000000000000000D+00 0.000000000000000D+00
 0.569181017672779D+03 0.000000000000000D+00 0.000000000000000D+00 0.569181017672779D+03
 0.414308571956168D+03 0.000000000000000D+00 0.000000000000000D+00 -.414308571956168D+03
 0.343696832120779D+03 0.654011207949968D+02 -.278436892496112D+03 -.143868351994892D+03
 0.244884705460942D+03 -.166886104557738D+03 -.703720712650934D+02 0.143868351994892D+03
 0.394908052047226D+03 0.101484983762742D+03 0.348808963761205D+03 0.154872445716611D+03
0.276221066824D-03 0.000000000000D+00 0.000000000000D+00 0.131272683257D-02 0.224781483465D-07  5 -2 21 25 -24 -1 2 0.39540836D-01 0.14115679D+00 0.19078418D+06 0.19078418D+06 0.19078418D+06 0.11386477D+01  1  2  1  4  5  2        1 0.555301482981D-02 0.100000000000D+01
  </mgrwgt>
  </event>
  <event>
  4     66 0.46019439E-03 0.62319401E+02 0.75467711E-02 0.11833123E+00
       -2 -1    0    0    0  501 0.00000000E+00 0.00000000E+00 0.10858143E+04 0.10858144E+04 0.32000000E+00 0.0000E+00 0.9000E+01
        1 -1    0    0  501    0 0.00000000E+00 0.00000000E+00 -.38481229E+02 0.38482559E+02 0.32000000E+00 0.0000E+00 0.9000E+01
       25  1    1    2    0    0 0.12162773E+03 0.54740181E+01 0.20406122E+03 0.26849442E+03 0.12500000E+03 0.0000E+00 0.9000E+01
      -24  1    1    2    0    0 -.12162773E+03 -.54740181E+01 0.84327188E+03 0.85580252E+03 0.80419002E+02 0.0000E+00 0.9000E+01
#aMCatNLO 1  0  0  2  1 0.90127062D+01 0.00000000D+00  -5  5  0 0.00000000D+00 0.00000000D+00 0.00000000D+00 0.00000000D+00 0.00000000D+00
  <mgrwgt>
 0.4696043096D-01   11    2    0
 0.204411947289755D+03 0.000000000000000D+00 0.000000000000000D+00 0.204411947289755D+03
 0.204411947289755D+03 0.000000000000000D+00 0.000000000000000D+00 -.204411947289755D+03
 0.215612104823415D+03 0.121627733882563D+03 0.547401805489232D+01 -.126650342373443D+03
 0.193211789756096D+03 -.121627733882563D+03 -.547401805489232D+01 0.126650342373443D+03
 0.000000000000000D+00 0.000000000000000D+00 -.000000000000000D+00 -.000000000000000D+00
 0.207710472793299D+03 0.000000000000000D+00 0.000000000000000D+00 0.207710472793299D+03
 0.210712182349421D+03 0.000000000000000D+00 0.000000000000000D+00 -.210712182349421D+03
 0.213372619818701D+03 0.117484004853375D+03 0.775075922716623D+01 -.126650342373443D+03
 0.195550607269541D+03 -.125382939924819D+03 -.341074795529013D+01 0.126650342373443D+03
 0.949942805447841D+01 0.789893507144400D+01 -.434001127187610D+01 -.300170955612162D+01
0.300370788360D-02 0.000000000000D+00 0.000000000000D+00 0.136347866170D-02 0.000000000000D+00  5 -2 1 25 -24 21 0 0.16704846D+00 0.59202950D-02 0.25665150D+05 0.25665150D+05 0.25665150D+05 0.12220769D+01  1  2  2  2  5  2        1 0.822008405282D-01 0.100000000000D+01
-.154823644683D-03 0.000000000000D+00 -.115350291675D-04 0.136347866170D-02 0.000000000000D+00  5 -2 1 25 -24 21 2 0.16704846D+00 0.59202950D-02 0.25665150D+05 0.25665150D+05 0.25665150D+05 0.12220769D+01  1  2  3  2  5  2        1 -.632780258118D-02 0.100000000000D+01
0.206444168901D-03 0.000000000000D+00 0.000000000000D+00 0.136347866170D-02 0.000000000000D+00  5 -2 1 25 -24 21 2 0.16704846D+00 0.59202950D-02 0.25665150D+05 0.25665150D+05 0.25665150D+05 0.12220769D+01  1  2 15  2  5  2        1 0.843758682672D-02 0.100000000000D+01
0.764983686286D-02 0.000000000000D+00 0.000000000000D+00 0.136347866170D-02 0.000000000000D+00  5 -2 1 25 -24 21 2 0.16704846D+00 0.61494018D-02 0.27180120D+05 0.27180120D+05 0.27180120D+05 0.12194237D+01  1  2 12  2  5  2        1 0.295730216262D+00 0.100000000000D+01
-.705536271673D-02 0.000000000000D+00 0.000000000000D+00 0.136347866170D-02 0.000000000000D+00  5 -2 1 25 -24 21 2 0.16704846D+00 0.59202950D-02 0.25665150D+05 0.25665150D+05 0.25665150D+05 0.12220769D+01  1  2  4  2  5  2        1 -.288359975645D+00 0.100000000000D+01
-.693253567905D-01 0.000000000000D+00 -.108488452193D-01 0.136347866170D-02 0.000000000000D+00  5 -2 1 25 -24 21 2 0.16704846D+00 0.62039624D-02 0.25665150D+05 0.25665150D+05 0.25665150D+05 0.12220769D+01  1  2  5  2  5  2        1 -.265822080754D+01 0.100000000000D+01
0.697685491415D-01 0.000000000000D+00 0.108369743048D-01 0.136347866170D-02 0.000000000000D+00  5 -2 1 25 -24 21 2 0.16704846D+00 0.59202950D-02 0.25665150D+05 0.25665150D+05 0.25665150D+05 0.12220769D+01  1  2  6  2  5  2        1 0.285151280508D+01 0.100000000000D+01
0.313682684779D-05 0.000000000000D+00 0.000000000000D+00 0.136347866170D-02 0.133171442825D-03  5 -2 1 25 -24 21 2 0.16974407D+00 0.61027660D-02 0.27180120D+05 0.27180120D+05 0.27180120D+05 0.12194237D+01  1  2 11  2  5  2        1 0.117405259544D-03 0.100000000000D+01
0.126528955075D-03 0.000000000000D+00 0.000000000000D+00 0.136347866170D-02 0.000000000000D+00  5 -2 21 25 -24 -1 2 0.16704846D+00 0.61494018D-02 0.27180120D+05 0.27180120D+05 0.27180120D+05 0.12194237D+01  1  2 12  4  5  2        1 0.705300431609D-01 0.100000000000D+01
-.559444006694D-03 0.000000000000D+00 -.888627151586D-04 0.136347866170D-02 0.000000000000D+00  5 -2 21 25 -24 -1 2 0.16704846D+00 0.62039624D-02 0.25665150D+05 0.25665150D+05 0.25665150D+05 0.12220769D+01  1  2  5  4  5  2        1 -.308673046098D+00 0.100000000000D+01
0.243316022223D-07 0.000000000000D+00 0.000000000000D+00 0.136347866170D-02 0.746975625179D-06  5 -2 21 25 -24 -1 2 0.16974407D+00 0.61027660D-02 0.27180120D+05 0.27180120D+05 0.27180120D+05 0.12194237D+01  1  2 11  4  5  2        1 0.131656985587D-04 0.100000000000D+01
  </mgrwgt>
  </event>
  <event>
  4     66 0.46019439E-03 0.63990791E+02 0.75467711E-02 0.12456410E+00
       -2 -1    0    0    0  501 0.00000000E+00 0.00000000E+00 0.62363135E+01 0.62445181E+01 0.32000000E+00 0.0000E+00 0.9000E+01
        1 -1    0    0  501    0 0.00000000E+00 0.00000000E+00 -.18204530E+04 0.18204530E+04 0.32000000E+00 0.0000E+00 0.9000E+01
       25  1    1    2    0    0 0.26058097E+02 -.31946652E+00 -.11741334E+04 0.11810560E+04 0.12500000E+03 0.0000E+00 0.9000E+01
      -24  1    1    2    0    0 -.26058097E+02 0.31946652E+00 -.64008334E+03 0.64564156E+03 0.80419002E+02 0.0000E+00 0.9000E+01
#aMCatNLO 1  0  0  2  1 0.23431409D+02 0.00000000D+00  -5  5  0 0.00000000D+00 0.00000000D+00 0.00000000D+00 0.00000000D+00 0.00000000D+00
  <mgrwgt>
 0.2264540669D+00    9    2    0
 0.106585341721089D+03 0.000000000000000D+00 0.000000000000000D+00 0.106585341721089D+03
 0.106585341721089D+03 0.000000000000000D+00 0.000000000000000D+00 -.106585341721089D+03
 0.128065274837956D+03 0.260580967621452D+02 -.319466516854771D+00 -.982792722807630D+01
 0.851054086042222D+02 -.260580967621452D+02 0.319466516854771D+00 0.982792722807630D+01
 0.000000000000000D+00 -.000000000000000D+00 -.000000000000000D+00 -.000000000000000D+00
 0.109320085568401D+03 0.000000000000000D+00 0.000000000000000D+00 0.109320085568401D+03
 0.172813279325401D+03 0.000000000000000D+00 0.000000000000000D+00 -.172813279325401D+03
 0.129556033438905D+03 0.297706999443182D+02 0.132997395330741D+02 -.982792722807630D+01
 0.848985566050444D+02 -.236081547661219D+02 0.930676282000729D+01 0.982792722807630D+01
 0.676787748498529D+02 -.616254517819637D+01 -.226065023530814D+02 -.634931937569996D+02
0.200356598566D-03 0.000000000000D+00 0.000000000000D+00 0.308971379730D-02 0.000000000000D+00  5 -2 1 25 -24 21 0 0.96006613D-03 0.28007033D+00 0.11259720D+05 0.11259720D+05 0.11259720D+05 0.12622781D+01  1  2  2  2  5  2        1 0.170125302536D+00 0.100000000000D+01
-.111306538450D-04 0.000000000000D+00 -.769422093596D-06 0.308971379730D-02 0.000000000000D+00  5 -2 1 25 -24 21 2 0.96006613D-03 0.28007033D+00 0.11259720D+05 0.11259720D+05 0.11259720D+05 0.12622781D+01  1  2  3  2  5  2        1 -.150589954407D-01 0.100000000000D+01
0.138511535114D-04 0.000000000000D+00 0.000000000000D+00 0.308971379730D-02 0.000000000000D+00  5 -2 1 25 -24 21 2 0.96006613D-03 0.28007033D+00 0.11259720D+05 0.11259720D+05 0.11259720D+05 0.12622781D+01  1  2 15  2  5  2        1 0.187396410384D-01 0.100000000000D+01
0.715557157547D-03 0.000000000000D+00 0.000000000000D+00 0.308971379730D-02 0.000000000000D+00  5 -2 1 25 -24 21 2 0.96006613D-03 0.45579128D+00 0.14035370D+05 0.14035370D+05 0.14035370D+05 0.12511269D+01  1  2 12  2  5  2        1 0.173718090288D+00 0.100000000000D+01
-.669457992309D-03 0.000000000000D+00 0.000000000000D+00 0.308971379730D-02 0.000000000000D+00  5 -2 1 25 -24 21 2 0.96006613D-03 0.28007033D+00 0.11259720D+05 0.11259720D+05 0.11259720D+05 0.12622781D+01  1  2  4  2  5  2        1 -.905729797578D+00 0.100000000000D+01
-.764815850841D-03 0.000000000000D+00 -.694465780662D-04 0.308971379730D-02 0.000000000000D+00  5 -2 1 25 -24 21 2 0.96006613D-03 0.45665814D+00 0.11259720D+05 0.11259720D+05 0.11259720D+05 0.12622781D+01  1  2  5  2  5  2        1 -.187582419061D+00 0.100000000000D+01
0.718698741464D-03 0.000000000000D+00 0.619004067439D-04 0.308971379730D-02 0.000000000000D+00  5 -2 1 25 -24 21 2 0.96006613D-03 0.28007033D+00 0.11259720D+05 0.11259720D+05 0.11259720D+05 0.12622781D+01  1  2  6  2  5  2        1 0.972349084041D+00 0.100000000000D+01
0.395161671744D-04 0.000000000000D+00 0.000000000000D+00 0.308971379730D-02 0.000000000000D+00  5 -2 21 25 -24 -1 2 0.96006613D-03 0.45579128D+00 0.14035370D+05 0.14035370D+05 0.14035370D+05 0.12511269D+01  1  2 12  4  5  2        1 0.450540504408D-02 0.100000000000D+01
-.393124282817D-04 0.000000000000D+00 -.384685900702D-05 0.308971379730D-02 0.000000000000D+00  5 -2 21 25 -24 -1 2 0.96006613D-03 0.45665814D+00 0.11259720D+05 0.11259720D+05 0.11259720D+05 0.12622781D+01  1  2  5  4  5  2        1 -.461224397627D-02 0.100000000000D+01
  </mgrwgt>
  </event>
  <event>
  4     66 0.46019439E-03 0.11625740E+03 0.75467711E-02 0.10112201E+00
       -4 -1    0    0    0  501 0.00000000E+00 0.00000000E+00 0.94362657E+02 0.94375386E+02 0.15500000E+01 0.0000E+00 0.9000E+01
        3 -1    0    0  501    0 0.00000000E+00 0.00000000E+00 -.13381605E+04 0.13381606E+04 0.50000000E+00 0.0000E+00 0.9000E+01
       25  1    1    2    0    0 -.40427764E+02 -.34972574E+02 0.42638943E+02 0.14248005E+03 0.12500000E+03 0.0000E+00 0.9000E+01
      -24  1    1    2    0    0 0.40427764E+02 0.34972574E+02 -.12864368E+04 0.12900559E+04 0.80419002E+02 0.0000E+00 0.9000E+01
#aMCatNLO 1  0  0  1  1 0.48465249D+03 0.00000000D+00  -5  5  0 0.00000000D+00 0.00000000D+00 0.00000000D+00 0.00000000D+00 0.00000000D+00
  <mgrwgt>
 0.2144968092D-02    3    2    0
 0.355361174338511D+03 0.000000000000000D+00 0.000000000000000D+00 0.355361174338511D+03
 0.355361174338511D+03 0.000000000000000D+00 0.000000000000000D+00 -.355361174338511D+03
 0.361803763390816D+03 -.404277641701650D+02 -.349725736750300D+02 0.335290140294199D+03
 0.348918585286207D+03 0.404277641701650D+02 0.349725736750300D+02 -.335290140294199D+03
 0.000000000000000D+00 -.000000000000000D+00 -.000000000000000D+00 -.000000000000000D+00
 0.609670508475680D+03 0.000000000000000D+00 0.000000000000000D+00 0.609670508475680D+03
 0.757171261197236D+03 0.000000000000000D+00 0.000000000000000D+00 -.757171261197236D+03
 0.405312589404942D+03 0.504443400196291D+02 0.183546140007410D+03 0.335290140294199D+03
 0.454928244741094D+03 0.135650936801873D+03 0.263954232917589D+03 -.335290140294199D+03
 0.506600935526880D+03 -.186095276821502D+03 -.447500372924999D+03 -.147500752721556D+03
0.156246277169D-02 0.000000000000D+00 0.000000000000D+00 0.243381963805D-03 0.000000000000D+00  5 -4 3 25 -24 21 0 0.14518318D-01 0.20587183D+00 0.13515782D+05 0.13515782D+05 0.13515782D+05 0.12530143D+01  1  2  2  1  5  1       -4 0.186267830580D-02 0.100000000000D+01
0.449554336703D-04 0.000000000000D+00 -.600026844919D-05 0.243381963805D-03 0.000000000000D+00  5 -4 3 25 -24 21 2 0.14518318D-01 0.20587183D+00 0.13515782D+05 0.13515782D+05 0.13515782D+05 0.12530143D+01  1  2  3  1  5  1       -4 0.841438619406D-04 0.100000000000D+01
0.105863169673D-03 0.000000000000D+00 0.000000000000D+00 0.243381963805D-03 0.000000000000D+00  5 -4 3 25 -24 21 2 0.14518318D-01 0.20587183D+00 0.13515782D+05 0.13515782D+05 0.13515782D+05 0.12530143D+01  1  2 15  1  5  1       -4 0.198145923781D-03 0.100000000000D+01
  </mgrwgt>
  </event>
  <event>
  5     66 0.46019439E-03 0.15904359E+03 0.75467711E-02 0.11777268E+00
       21 -1    0    0  502  501 0.00000000E+00 0.00000000E+00 0.30561683E+03 0.30561775E+03 0.75000000E+00 0.0000E+00 0.9000E+01
        1 -1    0    0  501    0 0.00000000E+00 0.00000000E+00 -.10235480E+03 0.10235530E+03 0.32000000E+00 0.0000E+00 0.9000E+01
       25  1    1    2    0    0 0.52064548E+02 -.11579455E+03 0.14069641E+03 0.22702329E+03 0.12500000E+03 0.0000E+00 0.9000E+01
      -24  1    1    2    0    0 -.62413960E+02 0.97022553E+02 0.71456833E+02 0.15774084E+03 0.80419002E+02 0.0000E+00 0.9000E+01
        2  1    1    2  502    0 0.10349412E+02 0.18771999E+02 -.88912084E+01 0.23208926E+02 0.32000000E+00 0.0000E+00 0.9000E+01
#aMCatNLO 2  0  0  1  1 0.21435911D+02 0.00000000D+00  -5  5  0 0.00000000D+00 0.00000000D+00 0.00000000D+00 0.00000000D+00 0.00000000D+00
  <mgrwgt>
 0.4204376826D-01    1    2    0
 0.160136614876465D+03 0.000000000000000D+00 0.000000000000000D+00 0.160136614876465D+03
 0.160136614876465D+03 0.000000000000000D+00 0.000000000000000D+00 -.160136614876465D+03
 0.174433445199584D+03 0.577708624117155D+02 -.105444308588777D+03 0.186024742074163D+02
 0.145839784553347D+03 -.577708624117155D+02 0.105444308588777D+03 -.186024742074163D+02
 0.000000000000000D+00 0.000000000000000D+00 0.000000000000000D+00 -.000000000000000D+00
 0.164343790549373D+03 0.000000000000000D+00 0.000000000000000D+00 0.164343790549373D+03
 0.190340970263764D+03 0.000000000000000D+00 0.000000000000000D+00 -.190340970263764D+03
 0.179137230785471D+03 0.520645476787053D+02 -.115794552038778D+03 0.186024742074163D+02
 0.141852550921426D+03 -.624139596027371D+02 0.970225532987848D+02 -.186024742074163D+02
 0.336949791062396D+02 0.103494119240319D+02 0.187719987399931D+02 -.259971797143907D+02
0.174876924074D-04 0.000000000000D+00 0.000000000000D+00 0.230771897822D-02 0.207368482925D-06  5 21 1 25 -24 2 2 0.47017870D-01 0.15746931D-01 0.28939477D+05 0.28939477D+05 0.28939477D+05 0.12165423D+01  1  2  1  3  5  1       -2 0.420437682641D-01 0.100000000000D+01
  </mgrwgt>
  </event>
  <event>
  4     66 0.46019439E-03 0.11058455E+03 0.75467711E-02 0.12117211E+00
       -2 -1    0    0    0  501 0.00000000E+00 0.00000000E+00 0.41274272E+02 0.41275513E+02 0.32000000E+00 0.0000E+00 0.9000E+01
        1 -1    0    0  501    0 0.00000000E+00 0.00000000E+00 -.32459986E+03 0.32460002E+03 0.32000000E+00 0.0000E+00 0.9000E+01
       25  1    1    2    0    0 -.13840660E+02 -.37681428E+02 -.11270597E+03 0.17302916E+03 0.12500000E+03 0.0000E+00 0.9000E+01
      -24  1    1    2    0    0 0.13840660E+02 0.37681428E+02 -.17061962E+03 0.19284637E+03 0.80419002E+02 0.0000E+00 0.9000E+01
#aMCatNLO 1  0  0  2  1 0.54496371D+02 0.00000000D+00  -5  5  0 0.00000000D+00 0.00000000D+00 0.00000000D+00 0.00000000D+00 0.00000000D+00
  <mgrwgt>
 0.2651891884D+00    3    2    0
 0.115749207026846D+03 0.000000000000000D+00 0.000000000000000D+00 0.115749207026846D+03
 0.115749207026846D+03 0.000000000000000D+00 0.000000000000000D+00 -.115749207026846D+03
 0.135528573730208D+03 -.138406596069120D+02 -.376814277336981D+02 0.336383775313274D+02
 0.959698403234837D+02 0.138406596069120D+02 0.376814277336981D+02 -.336383775313274D+02
 0.000000000000000D+00 -.000000000000000D+00 -.000000000000000D+00 0.000000000000000D+00
 0.264503857897118D+03 0.000000000000000D+00 0.000000000000000D+00 0.264503857897118D+03
 0.124012836663704D+03 0.000000000000000D+00 0.000000000000000D+00 -.124012836663704D+03
 0.135133974674164D+03 0.174409784485188D+02 -.346476974567680D+02 0.336383775313274D+02
 0.102692369987203D+03 0.368009080597061D+02 0.399081397995321D+02 -.336383775313274D+02
 0.150690349899455D+03 -.542418865082249D+02 -.526044234276407D+01 0.140491021233414D+03
0.294611099560D-03 0.000000000000D+00 0.000000000000D+00 0.266318985944D-02 0.000000000000D+00  5 -2 1 25 -24 21 0 0.63499956D-02 0.49938548D-01 0.12228942D+05 0.12228942D+05 0.12228942D+05 0.12580633D+01  1  2  2  2  5  2        1 0.259626117219D+00 0.100000000000D+01
-.163258210013D-04 0.000000000000D+00 -.113138419519D-05 0.266318985944D-02 0.000000000000D+00  5 -2 1 25 -24 21 2 0.63499956D-02 0.49938548D-01 0.12228942D+05 0.12228942D+05 0.12228942D+05 0.12580633D+01  1  2  3  2  5  2        1 -.227708531105D-01 0.100000000000D+01
0.203143278576D-04 0.000000000000D+00 0.000000000000D+00 0.266318985944D-02 0.000000000000D+00  5 -2 1 25 -24 21 2 0.63499956D-02 0.49938548D-01 0.12228942D+05 0.12228942D+05 0.12228942D+05 0.12580633D+01  1  2 15  2  5  2        1 0.283339242569D-01 0.100000000000D+01
  </mgrwgt>
  </event>
  <event>
  4     66 0.46019439E-03 0.78231856E+02 0.75467711E-02 0.11399268E+00
       -2 -1    0    0    0  501 0.00000000E+00 0.00000000E+00 0.44392162E+02 0.44393315E+02 0.32000000E+00 0.0000E+00 0.9000E+01
        1 -1    0    0  501    0 0.00000000E+00 0.00000000E+00 -.94185187E+03 0.94185192E+03 0.32000000E+00 0.0000E+00 0.9000E+01
       25  1    1    2    0    0 -.15156905E+03 0.88620297E+02 -.49258677E+03 0.53767413E+03 0.12500000E+03 0.0000E+00 0.9000E+01
      -24  1    1    2    0    0 0.15156905E+03 -.88620297E+02 -.40487293E+03 0.44857111E+03 0.80419002E+02 0.0000E+00 0.9000E+01
#aMCatNLO 1  0  0  1  2 0.15240855D+02 0.00000000D+00  -5  5  0 0.00000000D+00 0.00000000D+00 0.00000000D+00 0.00000000D+00 0.00000000D+00
  <mgrwgt>
 0.3286595922D+00    6    2    0
 0.204478448150926D+03 0.000000000000000D+00 0.000000000000000D+00 0.204478448150926D+03
 0.204478448150926D+03 0.000000000000000D+00 0.000000000000000D+00 -.204478448150926D+03
 0.215674963148524D+03 -.151569053521012D+03 0.886202970036968D+02 -.799716842627372D+01
 0.193281933153328D+03 0.151569053521012D+03 -.886202970036968D+02 0.799716842627372D+01
 0.000000000000000D+00 0.000000000000000D+00 -.000000000000000D+00 -.000000000000000D+00
 0.211212627178317D+03 0.000000000000000D+00 0.000000000000000D+00 0.211212627178317D+03
 0.213429389746251D+03 0.000000000000000D+00 0.000000000000000D+00 -.213429389746251D+03
 0.222364963680301D+03 -.158484971503401D+03 0.929501811578095D+02 -.799716842627372D+01
 0.186875829366405D+03 0.145566998126225D+03 -.848625594752629D+02 0.799716842627372D+01
 0.154012238778623D+02 0.129179733771766D+02 -.808762168254660D+01 -.221676256793407D+01
0.905582093566D-03 0.000000000000D+00 0.000000000000D+00 0.214807013949D-02 0.000000000000D+00  5 -2 1 25 -24 21 0 0.68296562D-02 0.14490038D+00 0.41747288D+05 0.41747288D+05 0.41747288D+05 0.12001192D+01  1  2  2  1  5  1       -2 0.170177903341D+00 0.100000000000D+01
-.503100802588D-04 0.000000000000D+00 -.347767368454D-05 0.214807013949D-02 0.000000000000D+00  5 -2 1 25 -24 21 2 0.68296562D-02 0.14490038D+00 0.41747288D+05 0.41747288D+05 0.41747288D+05 0.12001192D+01  1  2  3  1  5  1       -2 -.136169276871D-01 0.100000000000D+01
0.622446757429D-04 0.000000000000D+00 0.000000000000D+00 0.214807013949D-02 0.000000000000D+00  5 -2 1 25 -24 21 2 0.68296562D-02 0.14490038D+00 0.41747288D+05 0.41747288D+05 0.41747288D+05 0.12001192D+01  1  2 15  1  5  1       -2 0.168471456244D-01 0.100000000000D+01
0.144408483857D-02 0.000000000000D+00 0.000000000000D+00 0.214807013949D-02 0.000000000000D+00  5 -2 1 25 -24 21 2 0.71985017D-02 0.14490038D+00 0.44979327D+05 0.44979327D+05 0.44979327D+05 0.11968601D+01  1  2 12  1  5  1       -2 0.358499417900D+00 0.100000000000D+01
-.978864284338D-03 0.000000000000D+00 0.000000000000D+00 0.214807013949D-02 0.000000000000D+00  5 -2 1 25 -24 21 2 0.68296562D-02 0.14490038D+00 0.41747288D+05 0.41747288D+05 0.41747288D+05 0.12001192D+01  1  2  4  1  5  1       -2 -.264939433742D+00 0.100000000000D+01
0.150827051326D-04 0.000000000000D+00 0.000000000000D+00 0.214807013949D-02 0.000000000000D+00  5 21 1 25 -24 2 2 0.71985017D-02 0.14490038D+00 0.44979327D+05 0.44979327D+05 0.44979327D+05 0.11968601D+01  1  2 12  3  5  1       -2 0.616914868072D-01 0.100000000000D+01
  </mgrwgt>
  </event>
  <event>
  4     66 0.46019439E-03 0.70959819E+02 0.75467711E-02 0.12571380E+00
       -4 -1    0    0    0  501 0.00000000E+00 0.00000000E+00 0.43711422E+01 0.46378210E+01 0.15500000E+01 0.0000E+00 0.9000E+01
        3 -1    0    0  501    0 0.00000000E+00 0.00000000E+00 -.25793410E+04 0.25793411E+04 0.50000000E+00 0.0000E+00 0.9000E+01
       25  1    1    2    0    0 0.28266790E+02 0.12691527E+02 -.16371862E+04 0.16422435E+04 0.12500000E+03 0.0000E+00 0.9000E+01
      -24  1    1    2    0    0 -.28266790E+02 -.12691527E+02 -.93778364E+03 0.94173535E+03 0.80419002E+02 0.0000E+00 0.9000E+01
#aMCatNLO 1  0  0  2  1 0.86117432D+01 0.00000000D+00  -5  5  0 0.00000000D+00 0.00000000D+00 0.00000000D+00 0.00000000D+00 0.00000000D+00
  <mgrwgt>
 0.1412797341D-01   11    2    0
 0.107792659479079D+03 0.000000000000000D+00 0.000000000000000D+00 0.107792659479079D+03
 0.107792659479079D+03 0.000000000000000D+00 0.000000000000000D+00 -.107792659479079D+03
 0.129032009379818D+03 0.282667900140724D+02 0.126915270145408D+02 -.801081574703965D+01
 0.865533095783404D+02 -.282667900140724D+02 -.126915270145408D+02 0.801081574703965D+01
 0.000000000000000D+00 0.000000000000000D+00 -.000000000000000D+00 -.000000000000000D+00
 0.110914488697383D+03 0.000000000000000D+00 0.000000000000000D+00 0.110914488697383D+03
 0.113985796492388D+03 0.000000000000000D+00 0.000000000000000D+00 -.113985796492388D+03
 0.129419501388275D+03 0.272922164567615D+02 0.177586342812128D+02 -.801081574703965D+01
 0.863377507985573D+02 -.289187307020491D+02 -.930188713286692D+01 0.801081574703965D+01
 0.914303300293925D+01 0.162651424528759D+01 -.845674714834585D+01 -.307130779500480D+01
0.301116372623D-03 0.000000000000D+00 0.000000000000D+00 0.306057113863D-02 0.000000000000D+00  5 -4 3 25 -24 21 0 0.69300090D-03 0.39684221D+00 0.11552477D+05 0.11552477D+05 0.11552477D+05 0.12609632D+01  1  2  2  2  5  2        3 0.437260128382D-02 0.100000000000D+01
-.167285184278D-04 0.000000000000D+00 -.115636615663D-05 0.306057113863D-02 0.000000000000D+00  5 -4 3 25 -24 21 2 0.69300090D-03 0.39684221D+00 0.11552477D+05 0.11552477D+05 0.11552477D+05 0.12609632D+01  1  2  3  2  5  2        3 -.386249407402D-03 0.100000000000D+01
0.208424568468D-04 0.000000000000D+00 0.000000000000D+00 0.306057113863D-02 0.000000000000D+00  5 -4 3 25 -24 21 2 0.69300090D-03 0.39684221D+00 0.11552477D+05 0.11552477D+05 0.11552477D+05 0.12609632D+01  1  2 15  2  5  2        3 0.481237273978D-03 0.100000000000D+01
0.782930905318D-03 0.000000000000D+00 0.000000000000D+00 0.306057113863D-02 0.000000000000D+00  5 -4 3 25 -24 21 2 0.69300090D-03 0.42513642D+00 0.12515835D+05 0.12515835D+05 0.12515835D+05 0.12568875D+01  1  2 12  2  5  2        3 0.130249063655D-01 0.100000000000D+01
-.731137813965D-03 0.000000000000D+00 0.000000000000D+00 0.306057113863D-02 0.000000000000D+00  5 -4 3 25 -24 21 2 0.69300090D-03 0.39684221D+00 0.11552477D+05 0.11552477D+05 0.11552477D+05 0.12609632D+01  1  2  4  2  5  2        3 -.168814440199D-01 0.100000000000D+01
-.293495137519D-02 0.000000000000D+00 -.472494524682D-03 0.306057113863D-02 0.000000000000D+00  5 -4 3 25 -24 21 2 0.69300090D-03 0.42394369D+00 0.11552477D+05 0.11552477D+05 0.11552477D+05 0.12609632D+01  1  2  5  2  5  2        3 -.496337912021D-01 0.100000000000D+01
0.296073148669D-02 0.000000000000D+00 0.471465372155D-03 0.306057113863D-02 0.000000000000D+00  5 -4 3 25 -24 21 2 0.69300090D-03 0.39684221D+00 0.11552477D+05 0.11552477D+05 0.11552477D+05 0.12609632D+01  1  2  6  2  5  2        3 0.683611514761D-01 0.100000000000D+01
0.662671120616D-06 0.000000000000D+00 0.000000000000D+00 0.306057113863D-02 0.348394157096D-03  5 -4 3 25 -24 21 2 0.71307119D-03 0.41964245D+00 0.12515835D+05 0.12515835D+05 0.12515835D+05 0.12568875D+01  1  2 11  2  5  2        3 0.112522036484D-04 0.100000000000D+01
0.965087633527D-05 0.000000000000D+00 0.000000000000D+00 0.306057113863D-02 0.000000000000D+00  5 -4 21 25 -24 -3 2 0.69300090D-03 0.42513642D+00 0.12515835D+05 0.12515835D+05 0.12515835D+05 0.12568875D+01  1  2 12  4  5  2        3 0.213619429968D-02 0.100000000000D+01
-.323009530162D-04 0.000000000000D+00 -.531454847318D-05 0.306057113863D-02 0.000000000000D+00  5 -4 21 25 -24 -3 2 0.69300090D-03 0.42394369D+00 0.11552477D+05 0.11552477D+05 0.11552477D+05 0.12609632D+01  1  2  5  4  5  2        3 -.735992895754D-02 0.100000000000D+01
0.890167608731D-08 0.000000000000D+00 0.000000000000D+00 0.306057113863D-02 0.342821548854D-05  5 -4 21 25 -24 -3 2 0.71307119D-03 0.41964245D+00 0.12515835D+05 0.12515835D+05 0.12515835D+05 0.12568875D+01  1  2 11  4  5  2        3 0.204409256718D-05 0.100000000000D+01
  </mgrwgt>
  </event>
  <event>
  4     66 0.46019439E-03 0.74613587E+02 0.75467711E-02 0.12255854E+00
       -2 -1    0    0    0  501 0.00000000E+00 0.00000000E+00 0.21602949E+02 0.21605319E+02 0.32000000E+00 0.0000E+00 0.9000E+01
        1 -1    0    0  501    0 0.00000000E+00 0.00000000E+00 -.59687217E+03 0.59687225E+03 0.32000000E+00 0.0000E+00 0.9000E+01
       25  1    1    2    0    0 0.22230431E+02 0.19638740E+02 -.23770605E+03 0.27020185E+03 0.12500000E+03 0.0000E+00 0.9000E+01
      -24  1    1    2    0    0 -.22230431E+02 -.19638740E+02 -.33756317E+03 0.34827572E+03 0.80419002E+02 0.0000E+00 0.9000E+01
#aMCatNLO 1  0  0  1  2 0.43714712D+02 0.00000000D+00  -5  5  0 0.00000000D+00 0.00000000D+00 0.00000000D+00 0.00000000D+00 0.00000000D+00
  <mgrwgt>
 0.1377973311D+00    7    2    0
 0.113555970849535D+03 0.000000000000000D+00 0.000000000000000D+00 0.113555970849535D+03
 0.113555970849535D+03 0.000000000000000D+00 0.000000000000000D+00 -.113555970849535D+03
 0.133717359055541D+03 0.222304309841781D+02 0.196387399331926D+02 0.370871938124557D+02
 0.933945826435295D+02 -.222304309841781D+02 -.196387399331926D+02 -.370871938124557D+02
 0.000000000000000D+00 0.000000000000000D+00 0.000000000000000D+00 0.000000000000000D+00
 0.284531155901951D+03 0.000000000000000D+00 0.000000000000000D+00 0.284531155901951D+03
 0.118469117931248D+03 0.000000000000000D+00 0.000000000000000D+00 -.118469117931248D+03
 0.130659863025168D+03 0.834097969088944D+01 -.140282524537947D+01 0.370871938124557D+02
 0.100620940513601D+03 -.324233255831320D+02 -.350802754937685D+02 -.370871938124557D+02
 0.171719470294430D+03 0.240823458922425D+02 0.364831007391480D+02 0.166062037970703D+03
0.212529024748D-03 0.000000000000D+00 0.000000000000D+00 0.265624506083D-02 0.000000000000D+00  5 -2 1 25 -24 21 0 0.33237195D-02 0.91826676D-01 0.11468958D+05 0.11468958D+05 0.11468958D+05 0.12613345D+01  1  2  2  1  5  1       -2 0.225222670123D+00 0.100000000000D+01
-.117578772907D-04 0.000000000000D+00 -.816167415209D-06 0.265624506083D-02 0.000000000000D+00  5 -2 1 25 -24 21 2 0.33237195D-02 0.91826676D-01 0.11468958D+05 0.11468958D+05 0.11468958D+05 0.12613345D+01  1  2  3  1  5  1       -2 -.198236353305D-01 0.100000000000D+01
0.145401028027D-04 0.000000000000D+00 0.000000000000D+00 0.265624506083D-02 0.000000000000D+00  5 -2 1 25 -24 21 2 0.33237195D-02 0.91826676D-01 0.11468958D+05 0.11468958D+05 0.11468958D+05 0.12613345D+01  1  2 15  1  5  1       -2 0.245144330479D-01 0.100000000000D+01
0.580255092146D-03 0.000000000000D+00 0.000000000000D+00 0.265624506083D-02 0.000000000000D+00  5 -2 1 25 -24 21 2 0.82803971D-02 0.91826676D-01 0.17231451D+05 0.17231451D+05 0.17231451D+05 0.12410141D+01  1  2 12  1  5  1       -2 0.243152181280D+00 0.100000000000D+01
-.690726512627D-03 0.000000000000D+00 -.585193672323D-04 0.265624506083D-02 0.000000000000D+00  5 -2 1 25 -24 21 2 0.86467647D-02 0.91826676D-01 0.11468958D+05 0.11468958D+05 0.11468958D+05 0.12613345D+01  1  2  5  1  5  1       -2 -.277528066958D+00 0.100000000000D+01
0.582710684526D-04 0.000000000000D+00 0.000000000000D+00 0.265624506083D-02 0.000000000000D+00  5 21 1 25 -24 2 2 0.82803971D-02 0.91826676D-01 0.17231451D+05 0.17231451D+05 0.17231451D+05 0.12410141D+01  1  2 12  3  5  1       -2 0.399135106115D+00 0.100000000000D+01
-.696552509104D-04 0.000000000000D+00 -.619980342178D-05 0.265624506083D-02 0.000000000000D+00  5 21 1 25 -24 2 2 0.86467647D-02 0.91826676D-01 0.11468958D+05 0.11468958D+05 0.11468958D+05 0.12613345D+01  1  2  5  3  5  1       -2 -.456875357215D+00 0.100000000000D+01
  </mgrwgt>
  </event>
  <event>
  4     66 0.46019439E-03 0.48654633E+02 0.75467711E-02 0.12336371E+00
       -2 -1    0    0    0  501 0.00000000E+00 0.00000000E+00 0.19620708E+02 0.19623317E+02 0.32000000E+00 0.0000E+00 0.9000E+01
        1 -1    0    0  501    0 0.00000000E+00 0.00000000E+00 -.89424529E+03 0.89424535E+03 0.32000000E+00 0.0000E+00 0.9000E+01
       25  1    1    2    0    0 0.22012287E+02 0.45377420E+02 -.26933646E+03 0.30118231E+03 0.12500000E+03 0.0000E+00 0.9000E+01
      -24  1    1    2    0    0 -.22012287E+02 -.45377420E+02 -.60528812E+03 0.61268636E+03 0.80419002E+02 0.0000E+00 0.9000E+01
#aMCatNLO 1  0  0  2  1 0.21021840D+02 0.00000000D+00  -5  5  0 0.00000000D+00 0.00000000D+00 0.00000000D+00 0.00000000D+00 0.00000000D+00
  <mgrwgt>
 0.3499525022D+00    9    2    0
 0.132464878963237D+03 0.000000000000000D+00 0.000000000000000D+00 0.132464878963237D+03
 0.132464878963237D+03 0.000000000000000D+00 0.000000000000000D+00 -.132464878963237D+03
 0.149748298004768D+03 0.220122867334392D+02 0.453774204920122D+02 0.652372723033450D+02
 0.115181459921705D+03 -.220122867334392D+02 -.453774204920122D+02 -.652372723033450D+02
 0.000000000000000D+00 -.000000000000000D+00 0.000000000000000D+00 -.000000000000000D+00
 0.138746887085435D+03 0.000000000000000D+00 0.000000000000000D+00 0.138746887085435D+03
 0.151716230502276D+03 0.000000000000000D+00 0.000000000000000D+00 -.151716230502276D+03
 0.148755730222335D+03 0.300273807627541D+02 0.366840834821868D+02 0.652372723033450D+02
 0.117006747174588D+03 -.157778304568259D+02 -.521394409109109D+02 -.652372723033450D+02
 0.247006401907878D+02 -.142495503059282D+02 0.154553574287242D+02 -.129693434168413D+02
0.258755406054D-03 0.000000000000D+00 0.000000000000D+00 0.202991389569D-02 0.000000000000D+00  5 -2 1 25 -24 21 0 0.30187756D-02 0.13757640D+00 0.13192443D+05 0.13192443D+05 0.13192443D+05 0.12542305D+01  1  2  2  2  5  2        1 0.176669816027D+00 0.100000000000D+01
-.140197951618D-04 0.000000000000D+00 -.993688891110D-06 0.202991389569D-02 0.000000000000D+00  5 -2 1 25 -24 21 2 0.30187756D-02 0.13757640D+00 0.13192443D+05 0.13192443D+05 0.13192443D+05 0.12542305D+01  1  2  3  2  5  2        1 -.150580694614D-01 0.100000000000D+01
0.177141891558D-04 0.000000000000D+00 0.000000000000D+00 0.202991389569D-02 0.000000000000D+00  5 -2 1 25 -24 21 2 0.30187756D-02 0.13757640D+00 0.13192443D+05 0.13192443D+05 0.13192443D+05 0.12542305D+01  1  2 15  2  5  2        1 0.190260619133D-01 0.100000000000D+01
0.540113351263D-03 0.000000000000D+00 0.000000000000D+00 0.202991389569D-02 0.000000000000D+00  5 -2 1 25 -24 21 2 0.30187756D-02 0.16049136D+00 0.15856057D+05 0.15856057D+05 0.15856057D+05 0.12450840D+01  1  2 12  2  5  2        1 0.445612492545D+00 0.100000000000D+01
-.539898305775D-03 0.000000000000D+00 0.000000000000D+00 0.202991389569D-02 0.000000000000D+00  5 -2 1 25 -24 21 2 0.30187756D-02 0.13757640D+00 0.13192443D+05 0.13192443D+05 0.13192443D+05 0.12542305D+01  1  2  4  2  5  2        1 -.579881952386D+00 0.100000000000D+01
-.114200077922D-02 0.000000000000D+00 -.248573468008D-03 0.202991389569D-02 0.000000000000D+00  5 -2 1 25 -24 21 2 0.30187756D-02 0.16204118D+00 0.13192443D+05 0.13192443D+05 0.13192443D+05 0.12542305D+01  1  2  5  2  5  2        1 -.936615334802D+00 0.100000000000D+01
0.117026800088D-02 0.000000000000D+00 0.245280810202D-03 0.202991389569D-02 0.000000000000D+00  5 -2 1 25 -24 21 2 0.30187756D-02 0.13757640D+00 0.13192443D+05 0.13192443D+05 0.13192443D+05 0.12542305D+01  1  2  6  2  5  2        1 0.125693540044D+01 0.100000000000D+01
0.125891548921D-04 0.000000000000D+00 0.000000000000D+00 0.202991389569D-02 0.000000000000D+00  5 -2 21 25 -24 -1 2 0.30187756D-02 0.16049136D+00 0.15856057D+05 0.15856057D+05 0.15856057D+05 0.12450840D+01  1  2 12  4  5  2        1 0.160410088400D-01 0.100000000000D+01
-.259242396633D-04 0.000000000000D+00 -.608162946028D-05 0.202991389569D-02 0.000000000000D+00  5 -2 21 25 -24 -1 2 0.30187756D-02 0.16204118D+00 0.13192443D+05 0.13192443D+05 0.13192443D+05 0.12542305D+01  1  2  5  4  5  2        1 -.327769209308D-01 0.100000000000D+01
  </mgrwgt>
  </event>
  <event>
  5     66 0.46019439E-03 0.17031454E+03 0.75467711E-02 0.11035328E+00
       21 -1    0    0  502  501 0.00000000E+00 0.00000000E+00 0.82273944E+03 0.82273978E+03 0.75000000E+00 0.0000E+00 0.9000E+01
        3 -1    0    0  501    0 0.00000000E+00 0.00000000E+00 -.12833376E+03 0.12833474E+03 0.50000000E+00 0.0000E+00 0.9000E+01
       25  1    1    2    0    0 -.73930578E+02 0.21677006E+03 0.70728970E+02 0.27033790E+03 0.12500000E+03 0.0000E+00 0.9000E+01
      -24  1    1    2    0    0 -.10165519E+01 -.70613364E+02 0.28201262E+03 0.30163821E+03 0.80419002E+02 0.0000E+00 0.9000E+01
        4  1    1    2  502    0 0.74947130E+02 -.14615670E+03 0.34166409E+03 0.37909841E+03 0.15500000E+01 0.0000E+00 0.9000E+01
#aMCatNLO 2  0  0  1  2 0.16425241D+03 0.00000000D+00  -5  5  0 0.00000000D+00 0.00000000D+00 0.00000000D+00 0.00000000D+00 0.00000000D+00
  <mgrwgt>
 0.8620978064D-02    2    2    0
 0.209613448080233D+03 0.000000000000000D+00 0.000000000000000D+00 0.209613448080233D+03
 0.209613448080233D+03 0.000000000000000D+00 0.000000000000000D+00 -.209613448080233D+03
 0.220535676746263D+03 -.300953224653740D+02 0.131285585280775D+03 -.121939949897980D+03
 0.198691219414202D+03 0.300953224653740D+02 -.131285585280775D+03 0.121939949897980D+03
 0.000000000000000D+00 0.000000000000000D+00 -.000000000000000D+00 0.000000000000000D+00
 0.400597579626445D+03 0.000000000000000D+00 0.000000000000000D+00 0.400597579626445D+03
 0.263565791459176D+03 0.000000000000000D+00 0.000000000000000D+00 -.263565791459176D+03
 0.288009274255884D+03 -.739305782740377D+02 0.216770063136830D+03 -.121939949897980D+03
 0.162246257007622D+03 -.101655187081902D+01 -.706133641726903D+02 0.121939949897980D+03
 0.213907839822115D+03 0.749471301448568D+02 -.146156698964140D+03 0.137031788167269D+03
-.116806289635D-06 0.000000000000D+00 0.000000000000D+00 0.144594985927D-02 0.000000000000D+00  5 21 3 25 -24 4 2 0.12849550D+00 0.15702025D-01 0.70809081D+05 0.70809081D+05 0.70809081D+05 0.11775993D+01  1  2 13  3  5  1       -4 -.119902250180D-04 0.100000000000D+01
0.121179047071D-03 0.000000000000D+00 0.000000000000D+00 0.144594985927D-02 0.470171155435D-07  5 21 3 25 -24 4 2 0.12657417D+00 0.19743565D-01 0.70809081D+05 0.70809081D+05 0.70809081D+05 0.11775993D+01  1  2  1  3  5  1       -4 0.863296828862D-02 0.100000000000D+01
  </mgrwgt>
  </event>
  <event>
  4     66 0.46019439E-03 0.86363551E+02 0.75467711E-02 0.11527654E+00
       -2 -1    0    0    0  501 0.00000000E+00 0.00000000E+00 0.56534217E+02 0.56535123E+02 0.32000000E+00 0.0000E+00 0.9000E+01
        1 -1    0    0  501    0 0.00000000E+00 0.00000000E+00 -.46892995E+03 0.46893006E+03 0.32000000E+00 0.0000E+00 0.9000E+01
       25  1    1    2    0    0 0.10692884E+03 0.64148082E+02 -.24121144E+03 0.29892594E+03 0.12500000E+03 0.0000E+00 0.9000E+01
      -24  1    1    2    0    0 -.10692884E+03 -.64148082E+02 -.17118429E+03 0.22653925E+03 0.80419002E+02 0.0000E+00 0.9000E+01
#aMCatNLO 1  0  0  2  1 0.62087169D+02 0.00000000D+00  -5  5  0 0.00000000D+00 0.00000000D+00 0.00000000D+00 0.00000000D+00 0.00000000D+00
  <mgrwgt>
 0.1649514597D+00    7    2    0
 0.162821541746480D+03 0.000000000000000D+00 0.000000000000000D+00 0.162821541746480D+03
 0.162821541746480D+03 0.000000000000000D+00 0.000000000000000D+00 -.162821541746480D+03
 0.176882617368600D+03 0.106928843222486D+03 0.641480824866555D+02 -.106633169113892D+02
 0.148760466124361D+03 -.106928843222486D+03 -.641480824866555D+02 0.106633169113892D+02
 0.000000000000000D+00 0.000000000000000D+00 0.000000000000000D+00 -.000000000000000D+00
 0.170276262168648D+03 0.000000000000000D+00 0.000000000000000D+00 0.170276262168648D+03
 0.378880913544503D+03 0.000000000000000D+00 0.000000000000000D+00 -.378880913544503D+03
 0.160431397472305D+03 0.935968848083779D+02 0.352015641915416D+02 -.106633169113892D+02
 0.171077628532476D+03 -.119570085476306D+03 -.915949090373554D+02 0.106633169113892D+02
 0.217648149708370D+03 0.259732006679286D+02 0.563933448458139D+02 -.208604651375854D+03
0.572367397857D-03 0.000000000000D+00 0.000000000000D+00 0.231111213482D-02 0.000000000000D+00  5 -2 1 25 -24 21 0 0.86976500D-02 0.72143147D-01 0.26396290D+05 0.26396290D+05 0.26396290D+05 0.12207752D+01  1  2  2  2  5  2        1 0.200266926658D+00 0.100000000000D+01
-.317980074871D-04 0.000000000000D+00 -.219804151557D-05 0.231111213482D-02 0.000000000000D+00  5 -2 1 25 -24 21 2 0.86976500D-02 0.72143147D-01 0.26396290D+05 0.26396290D+05 0.26396290D+05 0.12207752D+01  1  2  3  2  5  2        1 -.165808059346D-01 0.100000000000D+01
0.393800778656D-04 0.000000000000D+00 0.000000000000D+00 0.231111213482D-02 0.000000000000D+00  5 -2 1 25 -24 21 2 0.86976500D-02 0.72143147D-01 0.26396290D+05 0.26396290D+05 0.26396290D+05 0.12207752D+01  1  2 15  2  5  2        1 0.205344133291D-01 0.100000000000D+01
0.194298257536D-02 0.000000000000D+00 0.000000000000D+00 0.231111213482D-02 0.000000000000D+00  5 -2 1 25 -24 21 2 0.86976500D-02 0.16720347D+00 0.38594327D+05 0.38594327D+05 0.38594327D+05 0.12035812D+01  1  2 12  2  5  2        1 0.283759735046D+00 0.100000000000D+01
-.220351549662D-02 0.000000000000D+00 -.212850487270D-03 0.231111213482D-02 0.000000000000D+00  5 -2 1 25 -24 21 2 0.86976500D-02 0.17046647D+00 0.26396290D+05 0.26396290D+05 0.26396290D+05 0.12207752D+01  1  2  5  2  5  2        1 -.320077129501D+00 0.100000000000D+01
0.177894184449D-03 0.000000000000D+00 0.000000000000D+00 0.231111213482D-02 0.000000000000D+00  5 -2 21 25 -24 -1 2 0.86976500D-02 0.16720347D+00 0.38594327D+05 0.38594327D+05 0.38594327D+05 0.12035812D+01  1  2 12  4  5  2        1 0.372817125677D-01 0.100000000000D+01
-.193450279498D-03 0.000000000000D+00 -.199831962528D-04 0.231111213482D-02 0.000000000000D+00  5 -2 21 25 -24 -1 2 0.86976500D-02 0.17046647D+00 0.26396290D+05 0.26396290D+05 0.26396290D+05 0.12207752D+01  1  2  5  4  5  2        1 -.402333924237D-01 0.100000000000D+01
  </mgrwgt>
  </event>
  <event>
  4     66 0.46019439E-03 0.74011961E+02 0.75467711E-02 0.11794385E+00
       -2 -1    0    0    0  501 0.00000000E+00 0.00000000E+00 0.14585021E+02 0.14588531E+02 0.32000000E+00 0.0000E+00 0.9000E+01
        1 -1    0    0  501    0 0.00000000E+00 0.00000000E+00 -.12241118E+04 0.12241118E+04 0.32000000E+00 0.0000E+00 0.9000E+01
       25  1    1    2    0    0 0.46251877E+02 -.54197627E+02 -.89096624E+03 0.90250898E+03 0.12500000E+03 0.0000E+00 0.9000E+01
      -24  1    1    2    0    0 -.46251877E+02 0.54197627E+02 -.31856052E+03 0.33619137E+03 0.80419002E+02 0.0000E+00 0.9000E+01
#aMCatNLO 1  0  0  1  2 0.74535458D+02 0.00000000D+00  -5  5  0 0.00000000D+00 0.00000000D+00 0.00000000D+00 0.00000000D+00 0.00000000D+00
  <mgrwgt>
 0.2313180474D+00    9    2    0
 0.133625955842630D+03 0.000000000000000D+00 0.000000000000000D+00 0.133625955842630D+03
 0.133625955842630D+03 0.000000000000000D+00 0.000000000000000D+00 -.133625955842630D+03
 0.150759199133354D+03 0.462518766314467D+02 -.541976272195689D+02 -.450190763473487D+02
 0.116492712551905D+03 -.462518766314467D+02 0.541976272195689D+02 0.450190763473487D+02
 0.000000000000000D+00 0.000000000000000D+00 -.000000000000000D+00 0.000000000000000D+00
 0.186919355016914D+03 0.000000000000000D+00 0.000000000000000D+00 0.186919355016914D+03
 0.167544275056845D+03 0.000000000000000D+00 0.000000000000000D+00 -.167544275056845D+03
 0.136731138298850D+03 0.236740616699372D+02 -.219823963520578D+02 -.450190763473487D+02
 0.140719972242596D+03 -.664518612810622D+02 0.830200429456671D+02 0.450190763473487D+02
 0.770125195323134D+02 0.427777996111249D+02 -.610376465936093D+02 0.193750799600684D+02
0.324083098720D-03 0.000000000000D+00 0.000000000000D+00 0.231310563993D-02 0.000000000000D+00  5 -2 1 25 -24 21 0 0.22441226D-02 0.18832516D+00 0.15790789D+05 0.15790789D+05 0.15790789D+05 0.12452869D+01  1  2  2  1  5  1       -2 0.199002454724D+00 0.100000000000D+01
-.179219445885D-04 0.000000000000D+00 -.124456443212D-05 0.231310563993D-02 0.000000000000D+00  5 -2 1 25 -24 21 2 0.22441226D-02 0.18832516D+00 0.15790789D+05 0.15790789D+05 0.15790789D+05 0.12452869D+01  1  2  3  1  5  1       -2 -.170657744718D-01 0.100000000000D+01
0.223979693849D-04 0.000000000000D+00 0.000000000000D+00 0.231310563993D-02 0.000000000000D+00  5 -2 1 25 -24 21 2 0.22441226D-02 0.18832516D+00 0.15790789D+05 0.15790789D+05 0.15790789D+05 0.12452869D+01  1  2 15  1  5  1       -2 0.213279698674D-01 0.100000000000D+01
0.501047631798D-04 0.000000000000D+00 0.000000000000D+00 0.231310563993D-02 0.000000000000D+00  5 -2 1 25 -24 21 2 0.33310175D-02 0.18832516D+00 0.28386710D+05 0.28386710D+05 0.28386710D+05 0.12174260D+01  1  2 12  1  5  1       -2 0.257824166030D-01 0.100000000000D+01
-.113013246752D-03 0.000000000000D+00 0.000000000000D+00 0.231310563993D-02 0.000000000000D+00  5 -2 1 25 -24 21 2 0.22441226D-02 0.18832516D+00 0.15790789D+05 0.15790789D+05 0.15790789D+05 0.12452869D+01  1  2  4  1  5  1       -2 -.107614359138D+00 0.100000000000D+01
-.132834746324D-03 0.000000000000D+00 -.982568669530D-04 0.231310563993D-02 0.000000000000D+00  5 -2 1 25 -24 21 2 0.40036278D-02 0.18832516D+00 0.15790789D+05 0.15790789D+05 0.15790789D+05 0.12452869D+01  1  2  5  1  5  1       -2 -.540969904082D-01 0.100000000000D+01
0.174150903898D-03 0.000000000000D+00 0.838164402883D-04 0.231310563993D-02 0.000000000000D+00  5 -2 1 25 -24 21 2 0.22441226D-02 0.18832516D+00 0.15790789D+05 0.15790789D+05 0.15790789D+05 0.12452869D+01  1  2  6  1  5  1       -2 0.165831337961D+00 0.100000000000D+01
0.236292391081D-05 0.000000000000D+00 0.000000000000D+00 0.231310563993D-02 0.000000000000D+00  5 21 1 25 -24 2 2 0.33310175D-02 0.18832516D+00 0.28386710D+05 0.28386710D+05 0.28386710D+05 0.12174260D+01  1  2 12  3  5  1       -2 0.232262611830D-01 0.100000000000D+01
-.329911637073D-05 0.000000000000D+00 -.625117237420D-05 0.231310563993D-02 0.000000000000D+00  5 21 1 25 -24 2 2 0.40036278D-02 0.18832516D+00 0.15790789D+05 0.15790789D+05 0.15790789D+05 0.12452869D+01  1  2  5  3  5  1       -2 -.250752689457D-01 0.100000000000D+01
  </mgrwgt>
  </event>
  <event>
  4     66 0.46019439E-03 0.11297495E+03 0.75467711E-02 0.11157201E+00
       -2 -1    0    0    0  501 0.00000000E+00 0.00000000E+00 0.48092210E+02 0.48093274E+02 0.32000000E+00 0.0000E+00 0.9000E+01
        1 -1    0    0  501    0 0.00000000E+00 0.00000000E+00 -.26645874E+03 0.26645893E+03 0.32000000E+00 0.0000E+00 0.9000E+01
       25  1    1    2    0    0 -.23322467E+02 -.39799086E+02 -.13849391E+03 0.19218082E+03 0.12500000E+03 0.0000E+00 0.9000E+01
      -24  1    1    2    0    0 0.23322467E+02 0.39799086E+02 -.79872625E+02 0.12237139E+03 0.80419002E+02 0.0000E+00 0.9000E+01
#aMCatNLO 1  0  0  1  2 0.19442057D+03 0.00000000D+00  -5  5  0 0.00000000D+00 0.00000000D+00 0.00000000D+00 0.00000000D+00 0.00000000D+00
  <mgrwgt>
 0.1944200845D+00    5    2    0
 0.113202417150049D+03 0.000000000000000D+00 0.000000000000000D+00 0.113202417150049D+03
 0.113202417150049D+03 0.000000000000000D+00 0.000000000000000D+00 -.113202417150049D+03
 0.133426773387714D+03 -.233224666564721D+02 -.397990861317627D+02 -.705685119517125D+01
 0.929780609123843D+02 0.233224666564721D+02 0.397990861317627D+02 0.705685119517125D+01
 0.000000000000000D+00 0.000000000000000D+00 0.000000000000000D+00 0.000000000000000D+00
 0.318399540186737D+03 0.000000000000000D+00 0.000000000000000D+00 0.318399540186737D+03
 0.205068040997482D+03 0.000000000000000D+00 0.000000000000000D+00 -.205068040997482D+03
 0.215482251343377D+03 -.876685500911324D+02 -.151894788653653D+03 -.705685119517125D+01
 0.829444708330215D+02 -.912130837758154D+01 -.167204028686420D+02 0.705685119517125D+01
 0.225040859007821D+03 0.967898584687140D+02 0.168615191522295D+03 0.113331499189255D+03
0.189928449736D-03 0.000000000000D+00 0.000000000000D+00 0.291957273462D-02 0.000000000000D+00  5 -2 1 25 -24 21 0 0.73988981D-02 0.40993749D-01 0.12763339D+05 0.12763339D+05 0.12763339D+05 0.12558972D+01  1  2  2  1  5  1       -2 0.169368121801D+00 0.100000000000D+01
-.105515286372D-04 0.000000000000D+00 -.729375256294D-06 0.291957273462D-02 0.000000000000D+00  5 -2 1 25 -24 21 2 0.73988981D-02 0.40993749D-01 0.12763339D+05 0.12763339D+05 0.12763339D+05 0.12558972D+01  1  2  3  1  5  1       -2 -.148410706626D-01 0.100000000000D+01
0.131342818546D-04 0.000000000000D+00 0.000000000000D+00 0.291957273462D-02 0.000000000000D+00  5 -2 1 25 -24 21 2 0.73988981D-02 0.40993749D-01 0.12763339D+05 0.12763339D+05 0.12763339D+05 0.12558972D+01  1  2 15  1  5  1       -2 0.184737976656D-01 0.100000000000D+01
0.684819402248D-04 0.000000000000D+00 -.694420994210D-04 0.291957273462D-02 0.000000000000D+00  5 -2 1 25 -24 21 2 0.36715043D-01 0.40993749D-01 0.12763339D+05 0.12763339D+05 0.12763339D+05 0.12558972D+01  1  2  5  1  5  1       -2 0.674129956196D-02 0.100000000000D+01
0.114916425522D-04 0.000000000000D+00 -.135510228412D-04 0.291957273462D-02 0.000000000000D+00  5 21 1 25 -24 2 2 0.36715043D-01 0.40993749D-01 0.12763339D+05 0.12763339D+05 0.12763339D+05 0.12558972D+01  1  2  5  3  5  1       -2 0.146779361259D-01 0.100000000000D+01
  </mgrwgt>
  </event>
  <event>
  4     66 0.46019439E-03 0.12325615E+03 0.75467711E-02 0.10523004E+00
       -2 -1    0    0    0  501 0.00000000E+00 0.00000000E+00 0.30307950E+02 0.30309639E+02 0.32000000E+00 0.0000E+00 0.9000E+01
        1 -1    0    0  501    0 0.00000000E+00 0.00000000E+00 -.58435678E+03 0.58435687E+03 0.32000000E+00 0.0000E+00 0.9000E+01
       25  1    1    2    0    0 0.56634420E+01 0.66775118E+02 -.42760673E+03 0.45051471E+03 0.12500000E+03 0.0000E+00 0.9000E+01
      -24  1    1    2    0    0 -.56634420E+01 -.66775118E+02 -.12644210E+03 0.16415180E+03 0.80419002E+02 0.0000E+00 0.9000E+01
#aMCatNLO 1  0  0  1  2 0.33635326D+03 0.00000000D+00  -5  5  0 0.00000000D+00 0.00000000D+00 0.00000000D+00 0.00000000D+00 0.00000000D+00
  <mgrwgt>
 0.2551931719D+00    5    2    0
 0.133083440377242D+03 0.000000000000000D+00 0.000000000000000D+00 0.133083440377242D+03
 0.133083440377242D+03 0.000000000000000D+00 0.000000000000000D+00 -.133083440377242D+03
 0.150286527439897D+03 0.566344199880763D+01 0.667751178362282D+02 -.496995914734408D+02
 0.115880353314587D+03 -.566344199880763D+01 -.667751178362282D+02 0.496995914734408D+02
 0.000000000000000D+00 0.000000000000000D+00 0.000000000000000D+00 0.000000000000000D+00
 0.472441246923839D+03 0.000000000000000D+00 0.000000000000000D+00 0.472441246923839D+03
 0.324098419541641D+03 0.000000000000000D+00 0.000000000000000D+00 -.324098419541641D+03
 0.157664981374030D+03 -.161701470029801D+02 -.806332642582969D+02 -.496995914734408D+02
 0.271261965390509D+03 -.331116149412352D+02 -.252090082066922D+03 0.496995914734408D+02
 0.367612719700941D+03 0.492817619442153D+02 0.332723346325219D+03 0.148342827382198D+03
0.312883752785D-03 0.000000000000D+00 0.000000000000D+00 0.225985248067D-02 0.000000000000D+00  5 -2 1 25 -24 21 0 0.46628982D-02 0.89901180D-01 0.15192079D+05 0.15192079D+05 0.15192079D+05 0.12471931D+01  1  2  2  1  5  1       -2 0.208792023983D+00 0.100000000000D+01
-.172580612775D-04 0.000000000000D+00 -.120155599488D-05 0.225985248067D-02 0.000000000000D+00  5 -2 1 25 -24 21 2 0.46628982D-02 0.89901180D-01 0.15192079D+05 0.15192079D+05 0.15192079D+05 0.12471931D+01  1  2  3  1  5  1       -2 -.179139051342D-01 0.100000000000D+01
0.215869710302D-04 0.000000000000D+00 0.000000000000D+00 0.225985248067D-02 0.000000000000D+00  5 -2 1 25 -24 21 2 0.46628982D-02 0.89901180D-01 0.15192079D+05 0.15192079D+05 0.15192079D+05 0.12471931D+01  1  2 15  1  5  1       -2 0.224073228709D-01 0.100000000000D+01
0.392205616854D-03 0.000000000000D+00 -.176150152089D-03 0.225985248067D-02 0.000000000000D+00  5 -2 1 25 -24 21 2 0.40426456D-01 0.89901180D-01 0.15192079D+05 0.15192079D+05 0.15192079D+05 0.12471931D+01  1  2  5  1  5  1       -2 0.117727532295D-01 0.100000000000D+01
0.785180186280D-04 0.000000000000D+00 -.459008089142D-04 0.225985248067D-02 0.000000000000D+00  5 21 1 25 -24 2 2 0.40426456D-01 0.89901180D-01 0.15192079D+05 0.15192079D+05 0.15192079D+05 0.12471931D+01  1  2  5  3  5  1       -2 0.301349769348D-01 0.100000000000D+01
  </mgrwgt>
  </event>
  <event>
  4     66 0.46019439E-03 0.16243599E+03 0.75467711E-02 0.11566660E+00
       -4 -1    0    0    0  501 0.00000000E+00 0.00000000E+00 0.80525428E+03 0.80525577E+03 0.15500000E+01 0.0000E+00 0.9000E+01
        3 -1    0    0  501    0 0.00000000E+00 0.00000000E+00 -.42426277E+02 0.42429223E+02 0.50000000E+00 0.0000E+00 0.9000E+01
       25  1    1    2    0    0 -.12101871E+03 -.29874172E+02 0.20530194E+03 0.27076167E+03 0.12500000E+03 0.0000E+00 0.9000E+01
      -24  1    1    2    0    0 0.12101871E+03 0.29874172E+02 0.55752607E+03 0.57692333E+03 0.80419002E+02 0.0000E+00 0.9000E+01
#aMCatNLO 1  0  0  1  2 0.54911782D+02 0.00000000D+00  -5  5  0 0.00000000D+00 0.00000000D+00 0.00000000D+00 0.00000000D+00 0.00000000D+00
  <mgrwgt>
 0.4668791178D-01    4    2    0
 0.184839991107926D+03 0.000000000000000D+00 0.000000000000000D+00 0.184839991107926D+03
 0.184839991107926D+03 0.000000000000000D+00 0.000000000000000D+00 -.184839991107926D+03
 0.197226087848597D+03 -.121018714825351D+03 -.298741715607128D+02 -.879496120721627D+02
 0.172453894367256D+03 0.121018714825351D+03 0.298741715607128D+02 0.879496120721627D+02
 0.000000000000000D+00 0.000000000000000D+00 0.000000000000000D+00 -.000000000000000D+00
 0.195019196526901D+03 0.000000000000000D+00 0.000000000000000D+00 0.195019196526901D+03
 0.279348365453070D+03 0.000000000000000D+00 0.000000000000000D+00 -.279348365453070D+03
 0.206209283546093D+03 -.125034242654995D+03 -.594017888673465D+02 -.879496120721627D+02
 0.167526710224417D+03 0.117634773614252D+03 0.499083733705170D+01 0.879496120721627D+02
 0.100631568209461D+03 0.739946904074270D+01 0.544109515302948D+02 -.843291689261690D+02
0.327643584717D-02 0.000000000000D+00 0.000000000000D+00 0.174156999719D-02 0.000000000000D+00  5 -4 3 25 -24 21 0 0.12388562D+00 0.65274609D-02 0.26385450D+05 0.26385450D+05 0.26385450D+05 0.12207942D+01  1  2  2  1  5  1       -4 0.505693982219D-01 0.100000000000D+01
-.178329509708D-03 0.000000000000D+00 -.125823763585D-04 0.174156999719D-02 0.000000000000D+00  5 -4 3 25 -24 21 2 0.12388562D+00 0.65274609D-02 0.26385450D+05 0.26385450D+05 0.26385450D+05 0.12207942D+01  1  2  3  1  5  1       -4 -.410198660551D-02 0.100000000000D+01
0.225060776386D-03 0.000000000000D+00 0.000000000000D+00 0.174156999719D-02 0.000000000000D+00  5 -4 3 25 -24 21 2 0.12388562D+00 0.65274609D-02 0.26385450D+05 0.26385450D+05 0.26385450D+05 0.12207942D+01  1  2 15  1  5  1       -4 0.517691262468D-02 0.100000000000D+01
-.215474766158D-03 0.000000000000D+00 0.000000000000D+00 0.174156999719D-02 0.000000000000D+00  5 -4 3 25 -24 21 2 0.12388562D+00 0.65274609D-02 0.26385450D+05 0.26385450D+05 0.26385450D+05 0.12207942D+01  1  2  4  1  5  1       -4 -.495641246393D-02 0.100000000000D+01
  </mgrwgt>
  </event>
  <event>
  4     66 0.46019439E-03 0.54518047E+02 0.75467711E-02 0.12632566E+00
       -2 -1    0    0    0  501 0.00000000E+00 0.00000000E+00 0.17242743E+02 0.17245712E+02 0.32000000E+00 0.0000E+00 0.9000E+01
        1 -1    0    0  501    0 0.00000000E+00 0.00000000E+00 -.94871404E+03 0.94871409E+03 0.32000000E+00 0.0000E+00 0.9000E+01
       25  1    1    2    0    0 0.61013645E+00 -.74623383E+01 -.24889014E+03 0.27861687E+03 0.12500000E+03 0.0000E+00 0.9000E+01
      -24  1    1    2    0    0 -.61013645E+00 0.74623383E+01 -.68258115E+03 0.68734293E+03 0.80419002E+02 0.0000E+00 0.9000E+01
#aMCatNLO 1  0  0  2  1 0.10787928D+02 0.00000000D+00  -5  5  0 0.00000000D+00 0.00000000D+00 0.00000000D+00 0.00000000D+00 0.00000000D+00
  <mgrwgt>
 0.2660526693D+00    9    2    0
 0.127905793538969D+03 0.000000000000000D+00 0.000000000000000D+00 0.127905793538969D+03
 0.127905793538969D+03 0.000000000000000D+00 0.000000000000000D+00 -.127905793538969D+03
 0.145805264298360D+03 0.610136451070889D+00 -.746233834940005D+01 0.746867882358361D+02
 0.110006322779579D+03 -.610136451070889D+00 0.746233834940005D+01 -.746867882358361D+02
 0.000000000000000D+00 -.000000000000000D+00 -.000000000000000D+00 -.000000000000000D+00
 0.128964516199680D+03 0.000000000000000D+00 0.000000000000000D+00 0.128964516199680D+03
 0.158806449494338D+03 0.000000000000000D+00 0.000000000000000D+00 -.158806449494338D+03
 0.145622970085958D+03 0.106987101250519D+01 -.133733155494221D+01 0.746867882358361D+02
 0.110415986870049D+03 -.262415324903437D+00 0.120949991041355D+02 -.746867882358361D+02
 0.317320087380105D+02 -.807455687601750D+00 -.107576675491933D+02 -.298419332946572D+02
0.233829119941D-03 0.000000000000D+00 0.000000000000D+00 0.185449954676D-02 0.000000000000D+00  5 -2 1 25 -24 21 0 0.26529622D-02 0.14595624D+00 0.10608055D+05 0.10608055D+05 0.10608055D+05 0.12653484D+01  1  2  2  2  5  2        1 0.174285184419D+00 0.100000000000D+01
-.122494305939D-04 0.000000000000D+00 -.897965389196D-06 0.185449954676D-02 0.000000000000D+00  5 -2 1 25 -24 21 2 0.26529622D-02 0.14595624D+00 0.10608055D+05 0.10608055D+05 0.10608055D+05 0.12653484D+01  1  2  3  2  5  2        1 -.146183391396D-01 0.100000000000D+01
0.160182578274D-04 0.000000000000D+00 0.000000000000D+00 0.185449954676D-02 0.000000000000D+00  5 -2 1 25 -24 21 2 0.26529622D-02 0.14595624D+00 0.10608055D+05 0.10608055D+05 0.10608055D+05 0.12653484D+01  1  2 15  2  5  2        1 0.191160171531D-01 0.100000000000D+01
0.239743629386D-02 0.000000000000D+00 0.000000000000D+00 0.185449954676D-02 0.000000000000D+00  5 -2 1 25 -24 21 2 0.26529622D-02 0.18172377D+00 0.11785658D+05 0.11785658D+05 0.11785658D+05 0.12599425D+01  1  2 12  2  5  2        1 0.194718728604D+01 0.100000000000D+01
-.237682145143D-02 0.000000000000D+00 0.000000000000D+00 0.185449954676D-02 0.000000000000D+00  5 -2 1 25 -24 21 2 0.26529622D-02 0.14595624D+00 0.10608055D+05 0.10608055D+05 0.10608055D+05 0.12653484D+01  1  2  4  2  5  2        1 -.283647323728D+01 0.100000000000D+01
-.268612813923D-02 0.000000000000D+00 -.172128331960D-03 0.185449954676D-02 0.000000000000D+00  5 -2 1 25 -24 21 2 0.26529622D-02 0.18180702D+00 0.10608055D+05 0.10608055D+05 0.10608055D+05 0.12653484D+01  1  2  5  2  5  2        1 -.219361052199D+01 0.100000000000D+01
0.266350021978D-02 0.000000000000D+00 0.168058336033D-03 0.185449954676D-02 0.000000000000D+00  5 -2 1 25 -24 21 2 0.26529622D-02 0.14595624D+00 0.10608055D+05 0.10608055D+05 0.10608055D+05 0.12653484D+01  1  2  6  2  5  2        1 0.317859260583D+01 0.100000000000D+01
0.735554101063D-04 0.000000000000D+00 0.000000000000D+00 0.185449954676D-02 0.000000000000D+00  5 -2 21 25 -24 -1 2 0.26529622D-02 0.18172377D+00 0.11785658D+05 0.11785658D+05 0.11785658D+05 0.12599425D+01  1  2 12  4  5  2        1 0.833541133148D-01 0.100000000000D+01
-.802170285519D-04 0.000000000000D+00 -.528936355984D-05 0.185449954676D-02 0.000000000000D+00  5 -2 21 25 -24 -1 2 0.26529622D-02 0.18180702D+00 0.10608055D+05 0.10608055D+05 0.10608055D+05 0.12653484D+01  1  2  5  4  5  2        1 -.917804390085D-01 0.100000000000D+01
  </mgrwgt>
  </event>
  <event>
  4     66 0.46019439E-03 0.20826910E+03 0.75467711E-02 0.10625567E+00
       -4 -1    0    0    0  501 0.00000000E+00 0.00000000E+00 0.42331508E+02 0.42359876E+02 0.15500000E+01 0.0000E+00 0.9000E+01
        3 -1    0    0  501    0 0.00000000E+00 0.00000000E+00 -.13836649E+04 0.13836649E+04 0.50000000E+00 0.0000E+00 0.9000E+01
       25  1    1    2    0    0 0.93987559E+02 -.15367853E+03 -.10598576E+04 0.10823003E+04 0.12500000E+03 0.0000E+00 0.9000E+01
      -24  1    1    2    0    0 -.93987559E+02 0.15367853E+03 -.28147575E+03 0.34372455E+03 0.80419002E+02 0.0000E+00 0.9000E+01
#aMCatNLO 1  0  0  1  1 0.22626930D+03 0.00000000D+00  -5  5  0 0.00000000D+00 0.00000000D+00 0.00000000D+00 0.00000000D+00 0.00000000D+00
  <mgrwgt>
 0.5576859287D-02    5    2    0
 0.242059725029177D+03 0.000000000000000D+00 0.000000000000000D+00 0.242059725029177D+03
 0.242059725029177D+03 0.000000000000000D+00 0.000000000000000D+00 -.242059725029177D+03
 0.251517911479366D+03 0.939875591941075D+02 -.153678529427078D+03 -.123229493648261D+03
 0.232601538578988D+03 -.939875591941075D+02 0.153678529427078D+03 0.123229493648261D+03
 0.000000000000000D+00 -.000000000000000D+00 -.000000000000000D+00 0.000000000000000D+00
 0.826311610840295D+03 0.000000000000000D+00 0.000000000000000D+00 0.826311610840295D+03
 0.290085695586538D+03 0.000000000000000D+00 0.000000000000000D+00 -.290085695586538D+03
 0.255948489248004D+03 0.171769714655022D+03 -.720713963432182D+02 -.123229493648261D+03
 0.278438484217146D+03 -.156576551001551D+02 0.235860346965591D+03 0.123229493648261D+03
 0.582010332961684D+03 -.156112059554867D+03 -.163788950622373D+03 0.536225915253757D+03
0.231615191105D-02 0.000000000000D+00 0.000000000000D+00 0.155372606678D-02 0.000000000000D+00  5 -4 3 25 -24 21 0 0.65147287D-02 0.21287371D+00 0.43376020D+05 0.43376020D+05 0.43376020D+05 0.11984431D+01  1  2  2  1  5  1       -4 0.101826980246D-01 0.100000000000D+01
-.125138367126D-03 0.000000000000D+00 -.889463319524D-05 0.155372606678D-02 0.000000000000D+00  5 -4 3 25 -24 21 2 0.65147287D-02 0.21287371D+00 0.43376020D+05 0.43376020D+05 0.43376020D+05 0.11984431D+01  1  2  3  1  5  1       -4 -.790171086218D-03 0.100000000000D+01
0.159176914833D-03 0.000000000000D+00 0.000000000000D+00 0.155372606678D-02 0.000000000000D+00  5 -4 3 25 -24 21 2 0.65147287D-02 0.21287371D+00 0.43376020D+05 0.43376020D+05 0.43376020D+05 0.11984431D+01  1  2 15  1  5  1       -4 0.100510337943D-02 0.100000000000D+01
-.181135530723D-02 0.000000000000D+00 -.750757530944D-03 0.155372606678D-02 0.000000000000D+00  5 -4 3 25 -24 21 2 0.26570339D-01 0.21287371D+00 0.43376020D+05 0.43376020D+05 0.43376020D+05 0.11984431D+01  1  2  5  1  5  1       -4 -.981097938764D-03 0.100000000000D+01
-.298281501485D-03 0.000000000000D+00 -.126257949743D-03 0.155372606678D-02 0.000000000000D+00  5 21 3 25 -24 4 2 0.26570339D-01 0.21287371D+00 0.43376020D+05 0.43376020D+05 0.43376020D+05 0.11984431D+01  1  2  5  3  5  1       -4 -.383967309212D-02 0.100000000000D+01
  </mgrwgt>
  </event>
  <event>
  4     66 0.46019439E-03 0.90939913E+02 0.75467711E-02 0.11869962E+00
       -2 -1    0    0    0  501 0.00000000E+00 0.00000000E+00 0.11576621E+02 0.11581043E+02 0.32000000E+00 0.0000E+00 0.9000E+01
        1 -1    0    0  501    0 0.00000000E+00 0.00000000E+00 -.22762623E+04 0.22762623E+04 0.32000000E+00 0.0000E+00 0.9000E+01
       25  1    1    2    0    0 -.18654057E+02 0.95429984E+02 -.68244078E+03 0.70057496E+03 0.12500000E+03 0.0000E+00 0.9000E+01
      -24  1    1    2    0    0 0.18654057E+02 -.95429984E+02 -.15822449E+04 0.15872684E+04 0.80419002E+02 0.0000E+00 0.9000E+01
#aMCatNLO 1  0  0  1  2 0.36078559D+02 0.00000000D+00  -5  5  0 0.00000000D+00 0.00000000D+00 0.00000000D+00 0.00000000D+00 0.00000000D+00
  <mgrwgt>
 0.2619854951D+00    6    2    0
 0.162346880928754D+03 0.000000000000000D+00 0.000000000000000D+00 0.162346880928754D+03
 0.162346880928754D+03 0.000000000000000D+00 0.000000000000000D+00 -.162346880928754D+03
 0.176449067544905D+03 -.186540571516205D+02 0.954299839747344D+02 0.778101391068835D+02
 0.148244694312603D+03 0.186540571516205D+02 -.954299839747344D+02 -.778101391068835D+02
 0.000000000000000D+00 -.000000000000000D+00 0.000000000000000D+00 -.000000000000000D+00
 0.180476832935658D+03 0.000000000000000D+00 0.000000000000000D+00 0.180476832935658D+03
 0.182341962614080D+03 0.000000000000000D+00 0.000000000000000D+00 -.182341962614080D+03
 0.175262591656897D+03 0.822866399366962D+00 0.950625119452895D+02 0.778101391068835D+02
 0.151429467288720D+03 0.352492725304951D+02 -.957430866810414D+02 -.778101391068835D+02
 0.361267366041210D+02 -.360721389298620D+02 0.680574735751963D+00 -.186512967842138D+01
0.108285609911D-02 0.000000000000D+00 0.000000000000D+00 0.182868523246D-02 0.000000000000D+00  5 -2 1 25 -24 21 0 0.17813605D-02 0.35019454D+00 0.20242019D+05 0.20242019D+05 0.20242019D+05 0.12332514D+01  1  2  2  1  5  1       -2 0.195632444621D+00 0.100000000000D+01
-.588846453956D-04 0.000000000000D+00 -.415845254312D-05 0.182868523246D-02 0.000000000000D+00  5 -2 1 25 -24 21 2 0.17813605D-02 0.35019454D+00 0.20242019D+05 0.20242019D+05 0.20242019D+05 0.12332514D+01  1  2  3  1  5  1       -2 -.161798840976D-01 0.100000000000D+01
0.747473098884D-04 0.000000000000D+00 0.000000000000D+00 0.182868523246D-02 0.000000000000D+00  5 -2 1 25 -24 21 2 0.17813605D-02 0.35019454D+00 0.20242019D+05 0.20242019D+05 0.20242019D+05 0.12332514D+01  1  2 15  1  5  1       -2 0.205385088502D-01 0.100000000000D+01
0.626339724343D-03 0.000000000000D+00 0.000000000000D+00 0.182868523246D-02 0.000000000000D+00  5 -2 1 25 -24 21 2 0.20779163D-02 0.35019454D+00 0.26087287D+05 0.26087287D+05 0.26087287D+05 0.12213204D+01  1  2 12  1  5  1       -2 0.134741263384D+00 0.100000000000D+01
-.501562818368D-03 0.000000000000D+00 0.000000000000D+00 0.182868523246D-02 0.000000000000D+00  5 -2 1 25 -24 21 2 0.17813605D-02 0.35019454D+00 0.20242019D+05 0.20242019D+05 0.20242019D+05 0.12332514D+01  1  2  4  1  5  1       -2 -.137815693961D+00 0.100000000000D+01
0.145934213593D-04 0.000000000000D+00 0.000000000000D+00 0.182868523246D-02 0.000000000000D+00  5 21 1 25 -24 2 2 0.20779163D-02 0.35019454D+00 0.26087287D+05 0.26087287D+05 0.26087287D+05 0.12213204D+01  1  2 12  3  5  1       -2 0.650688562608D-01 0.100000000000D+01
  </mgrwgt>
  </event>
  <event>
  5     66 0.46019439E-03 0.10271779E+03 0.75467711E-02 0.12576145E+00
       21 -1    0    0  502  501 0.00000000E+00 0.00000000E+00 0.14528178E+02 0.14547524E+02 0.75000000E+00 0.0000E+00 0.9000E+01
        1 -1    0    0  501    0 0.00000000E+00 0.00000000E+00 -.98729066E+03 0.98729071E+03 0.32000000E+00 0.0000E+00 0.9000E+01
       25  1    1    2    0    0 -.53921911E+01 0.10321037E+02 -.63607691E+03 0.64834746E+03 0.12500000E+03 0.0000E+00 0.9000E+01
      -24  1    1    2    0    0 -.24976257E+01 0.48266275E+01 -.31849892E+03 0.32853967E+03 0.80419002E+02 0.0000E+00 0.9000E+01
        2  1    1    2  502    0 0.78898168E+01 -.15147665E+02 -.18186654E+02 0.24951107E+02 0.32000000E+00 0.0000E+00 0.9000E+01
#aMCatNLO 2  0  0  1  2 0.17079255D+02 0.00000000D+00  -5  5  0 0.00000000D+00 0.00000000D+00 0.00000000D+00 0.00000000D+00 0.00000000D+00
  <mgrwgt>
 0.1430335052D-01    2    2    0
 0.103442920107868D+03 0.000000000000000D+00 0.000000000000000D+00 0.103442920107868D+03
 0.103442920107868D+03 0.000000000000000D+00 0.000000000000000D+00 -.103442920107868D+03
 0.125575377399483D+03 -.601235890945692D+00 0.112287905717321D+01 -.119395589135048D+02
 0.813104628162525D+02 0.601235890945692D+00 -.112287905717321D+01 0.119395589135048D+02
 0.000000000000000D+00 0.000000000000000D+00 -.000000000000000D+00 0.000000000000000D+00
 0.135262900186215D+03 0.000000000000000D+00 0.000000000000000D+00 0.135262900186215D+03
 0.106112246556841D+03 0.000000000000000D+00 0.000000000000000D+00 -.106112246556841D+03
 0.126107702408388D+03 -.539219109710402D+01 0.103210374888249D+02 -.119395589135048D+02
 0.814819212380369D+02 -.249762566344726D+01 0.482662752523476D+01 0.119395589135048D+02
 0.337855230966313D+02 0.788981676055128D+01 -.151476650140596D+02 0.291506536293745D+02
-.975499577106D-05 0.000000000000D+00 0.000000000000D+00 0.318182485727D-02 0.000000000000D+00  5 21 1 25 -24 2 2 0.22537759D-02 0.14807037D+00 0.12457116D+05 0.12457116D+05 0.12457116D+05 0.12571257D+01  1  2 13  3  5  1       -2 -.295445278329D+00 0.100000000000D+01
0.105347431466D-04 0.000000000000D+00 0.000000000000D+00 0.318182485727D-02 0.351760186926D-05  5 21 1 25 -24 2 2 0.22365808D-02 0.15189130D+00 0.12457116D+05 0.12457116D+05 0.12457116D+05 0.12571257D+01  1  2  1  3  5  1       -2 0.309748628850D+00 0.100000000000D+01
  </mgrwgt>
  </event>
  <event>
  4     66 0.46019439E-03 0.82390964E+02 0.75467711E-02 0.11539423E+00
       -4 -1    0    0    0  501 0.00000000E+00 0.00000000E+00 0.12655792E+04 0.12655802E+04 0.15500000E+01 0.0000E+00 0.9000E+01
        3 -1    0    0  501    0 0.00000000E+00 0.00000000E+00 -.16352053E+02 0.16359695E+02 0.50000000E+00 0.0000E+00 0.9000E+01
       25  1    1    2    0    0 -.30148128E+02 0.63981445E+02 0.10057022E+04 0.10159057E+04 0.12500000E+03 0.0000E+00 0.9000E+01
      -24  1    1    2    0    0 0.30148128E+02 -.63981445E+02 0.24352495E+03 0.26603412E+03 0.80419002E+02 0.0000E+00 0.9000E+01
#aMCatNLO 1  0  0  1  2 0.11413599D+03 0.00000000D+00  -5  5  0 0.00000000D+00 0.00000000D+00 0.00000000D+00 0.00000000D+00 0.00000000D+00
  <mgrwgt>
 0.1229952280D+00    8    2    0
 0.143876075645030D+03 0.000000000000000D+00 0.000000000000000D+00 0.143876075645030D+03
 0.143876075645030D+03 0.000000000000000D+00 0.000000000000000D+00 -.143876075645030D+03
 0.159788700458734D+03 -.301481275362747D+02 0.639814454169335D+02 0.700349472956704D+02
 0.127963450831327D+03 0.301481275362747D+02 -.639814454169335D+02 -.700349472956704D+02
 0.000000000000000D+00 -.000000000000000D+00 0.000000000000000D+00 0.000000000000000D+00
 0.248864807814009D+03 0.000000000000000D+00 0.000000000000000D+00 0.248864807814009D+03
 0.189396141116224D+03 0.000000000000000D+00 0.000000000000000D+00 -.189396141116224D+03
 0.154972964180043D+03 0.287089302620931D+02 0.515996425108528D+02 0.700349472956704D+02
 0.154588540527131D+03 0.829823216415627D+02 -.750962140204608D+02 -.700349472956704D+02
 0.128699444223059D+03 -.111691251903656D+03 0.234965715096080D+02 0.594686666977849D+02
0.383257589079D-02 0.000000000000D+00 0.000000000000D+00 0.193378495656D-02 0.000000000000D+00  5 -4 3 25 -24 21 0 0.19470516D+00 0.25163613D-02 0.15715106D+05 0.15715106D+05 0.15715106D+05 0.12455233D+01  1  2  2  1  5  1       -4 0.787836522547D-01 0.100000000000D+01
-.208007642552D-03 0.000000000000D+00 -.147181005610D-04 0.193378495656D-02 0.000000000000D+00  5 -4 3 25 -24 21 2 0.19470516D+00 0.25163613D-02 0.15715106D+05 0.15715106D+05 0.15715106D+05 0.12455233D+01  1  2  3  1  5  1       -4 -.663328047901D-02 0.100000000000D+01
0.265152461644D-03 0.000000000000D+00 0.000000000000D+00 0.193378495656D-02 0.000000000000D+00  5 -4 3 25 -24 21 2 0.19470516D+00 0.25163613D-02 0.15715106D+05 0.15715106D+05 0.15715106D+05 0.12455233D+01  1  2 15  1  5  1       -4 0.845560589124D-02 0.100000000000D+01
0.161807676031D-04 0.000000000000D+00 0.000000000000D+00 0.193378495656D-02 0.000000000000D+00  5 -4 3 25 -24 21 2 0.34936122D+00 0.25163613D-02 0.38063082D+05 0.38063082D+05 0.38063082D+05 0.12041954D+01  1  2 12  1  5  1       -4 0.609880461383D-04 0.100000000000D+01
-.102863284660D-02 0.000000000000D+00 -.889636569695D-03 0.193378495656D-02 0.000000000000D+00  5 -4 3 25 -24 21 2 0.37881016D+00 0.25163613D-02 0.15715106D+05 0.15715106D+05 0.15715106D+05 0.12455233D+01  1  2  5  1  5  1       -4 -.267236048225D-02 0.100000000000D+01
0.145307244484D-02 0.000000000000D+00 0.723414293546D-03 0.193378495656D-02 0.000000000000D+00  5 -4 3 25 -24 21 2 0.19470516D+00 0.25163613D-02 0.15715106D+05 0.15715106D+05 0.15715106D+05 0.12455233D+01  1  2  6  1  5  1       -4 0.463378987653D-01 0.100000000000D+01
0.103822509133D-05 0.000000000000D+00 0.000000000000D+00 0.193378495656D-02 0.000000000000D+00  5 21 3 25 -24 4 2 0.34936122D+00 0.25163613D-02 0.38063082D+05 0.38063082D+05 0.38063082D+05 0.12041954D+01  1  2 12  3  5  1       -4 0.873017052369D-04 0.100000000000D+01
-.221187775614D-04 0.000000000000D+00 -.641780400717D-04 0.193378495656D-02 0.000000000000D+00  5 21 3 25 -24 4 2 0.37881016D+00 0.25163613D-02 0.15715106D+05 0.15715106D+05 0.15715106D+05 0.12455233D+01  1  2  5  3  5  1       -4 -.142457765140D-02 0.100000000000D+01
  </mgrwgt>
  </event>
  <event>
  4     66 0.46019439E-03 0.82481973E+02 0.75467711E-02 0.12296145E+00
       -2 -1    0    0    0  501 0.00000000E+00 0.00000000E+00 0.17248834E+03 0.17248864E+03 0.32000000E+00 0.0000E+00 0.9000E+01
        1 -1    0    0  501    0 0.00000000E+00 0.00000000E+00 -.75062911E+02 0.75063593E+02 0.32000000E+00 0.0000E+00 0.9000E+01
       25  1    1    2    0    0 0.15089703E+02 -.38972991E+02 0.83061635E+02 0.15579098E+03 0.12500000E+03 0.0000E+00 0.9000E+01
      -24  1    1    2    0    0 -.15089703E+02 0.38972991E+02 0.14363796E+02 0.91761254E+02 0.80419002E+02 0.0000E+00 0.9000E+01
#aMCatNLO 1  0  0  1  2 0.32267052D+02 0.00000000D+00  -5  5  0 0.00000000D+00 0.00000000D+00 0.00000000D+00 0.00000000D+00 0.00000000D+00
  <mgrwgt>
 0.2047239117D+00    9    2    0
 0.113787512917625D+03 0.000000000000000D+00 0.000000000000000D+00 0.113787512917625D+03
 0.113787512917625D+03 0.000000000000000D+00 0.000000000000000D+00 -.113787512917625D+03
 0.133907875448660D+03 0.150897033043155D+02 -.389729911701223D+02 0.236585274396996D+02
 0.936671503865910D+02 -.150897033043155D+02 0.389729911701223D+02 -.236585274396996D+02
 0.000000000000000D+00 0.000000000000000D+00 -.000000000000000D+00 0.000000000000000D+00
 0.177451019538838D+03 0.000000000000000D+00 0.000000000000000D+00 0.177451019538838D+03
 0.119088535433447D+03 0.000000000000000D+00 0.000000000000000D+00 -.119088535433447D+03
 0.129365685765064D+03 0.105426677960755D+02 -.209668044439736D+02 0.236585274396996D+02
 0.100485472723496D+03 -.184429411578606D+02 0.522517585821444D+02 -.236585274396996D+02
 0.666883964837244D+02 0.790027336178506D+01 -.312849541381708D+02 0.583624841053912D+02
0.302832776807D-03 0.000000000000D+00 0.000000000000D+00 0.280814939916D-02 0.000000000000D+00  5 -2 1 25 -24 21 0 0.26536743D-01 0.11548215D-01 0.12368933D+05 0.12368933D+05 0.12368933D+05 0.12574857D+01  1  2  2  1  5  1       -2 0.167530033291D+00 0.100000000000D+01
-.168133523674D-04 0.000000000000D+00 -.116295760064D-05 0.280814939916D-02 0.000000000000D+00  5 -2 1 25 -24 21 2 0.26536743D-01 0.11548215D-01 0.12368933D+05 0.12368933D+05 0.12368933D+05 0.12574857D+01  1  2  3  1  5  1       -2 -.147078858329D-01 0.100000000000D+01
0.209696819995D-04 0.000000000000D+00 0.000000000000D+00 0.280814939916D-02 0.000000000000D+00  5 -2 1 25 -24 21 2 0.26536743D-01 0.11548215D-01 0.12368933D+05 0.12368933D+05 0.12368933D+05 0.12574857D+01  1  2 15  1  5  1       -2 0.183437355062D-01 0.100000000000D+01
0.518608633826D-03 0.000000000000D+00 0.000000000000D+00 0.280814939916D-02 0.000000000000D+00  5 -2 1 25 -24 21 2 0.41717630D-01 0.11548215D-01 0.16526600D+05 0.16526600D+05 0.16526600D+05 0.12430523D+01  1  2 12  1  5  1       -2 0.195922008609D+00 0.100000000000D+01
-.522448040980D-03 0.000000000000D+00 0.000000000000D+00 0.280814939916D-02 0.000000000000D+00  5 -2 1 25 -24 21 2 0.26536743D-01 0.11548215D-01 0.12368933D+05 0.12368933D+05 0.12368933D+05 0.12574857D+01  1  2  4  1  5  1       -2 -.457024034972D+00 0.100000000000D+01
-.608007258396D-03 0.000000000000D+00 -.987487515069D-04 0.280814939916D-02 0.000000000000D+00  5 -2 1 25 -24 21 2 0.42770743D-01 0.11548215D-01 0.12368933D+05 0.12368933D+05 0.12368933D+05 0.12574857D+01  1  2  5  1  5  1       -2 -.222242302753D+00 0.100000000000D+01
0.596196854122D-03 0.000000000000D+00 0.884767340262D-04 0.280814939916D-02 0.000000000000D+00  5 -2 1 25 -24 21 2 0.26536743D-01 0.11548215D-01 0.12368933D+05 0.12368933D+05 0.12368933D+05 0.12574857D+01  1  2  6  1  5  1       -2 0.521537589456D+00 0.100000000000D+01
0.270583109697D-04 0.000000000000D+00 0.000000000000D+00 0.280814939916D-02 0.000000000000D+00  5 21 1 25 -24 2 2 0.41717630D-01 0.11548215D-01 0.16526600D+05 0.16526600D+05 0.16526600D+05 0.12430523D+01  1  2 12  3  5  1       -2 0.130003844397D+00 0.100000000000D+01
-.288346466293D-04 0.000000000000D+00 -.536876066368D-05 0.280814939916D-02 0.000000000000D+00  5 21 1 25 -24 2 2 0.42770743D-01 0.11548215D-01 0.12368933D+05 0.12368933D+05 0.12368933D+05 0.12574857D+01  1  2  5  3  5  1       -2 -.134639075958D+00 0.100000000000D+01
  </mgrwgt>
  </event>
  <event>
  4     66 0.46019439E-03 0.10683988E+03 0.75467711E-02 0.11712873E+00
       -4 -1    0    0    0  501 0.00000000E+00 0.00000000E+00 0.30298579E+02 0.30338200E+02 0.15500000E+01 0.0000E+00 0.9000E+01
        3 -1    0    0  501    0 0.00000000E+00 0.00000000E+00 -.37915450E+03 0.37915483E+03 0.50000000E+00 0.0000E+00 0.9000E+01
       25  1    1    2    0    0 0.27675309E+02 0.78689637E+01 -.19229854E+03 0.23115271E+03 0.12500000E+03 0.0000E+00 0.9000E+01
      -24  1    1    2    0    0 -.27675309E+02 -.78689637E+01 -.15655738E+03 0.17834033E+03 0.80419002E+02 0.0000E+00 0.9000E+01
#aMCatNLO 1  0  0  1  2 0.11174440D+03 0.00000000D+00  -5  5  0 0.00000000D+00 0.00000000D+00 0.00000000D+00 0.00000000D+00 0.00000000D+00
  <mgrwgt>
 0.2423261112D-01    3    2    0
 0.107219504562672D+03 0.000000000000000D+00 0.000000000000000D+00 0.107219504562672D+03
 0.107219504562672D+03 0.000000000000000D+00 0.000000000000000D+00 -.107219504562672D+03
 0.128572391994353D+03 0.276753087877043D+02 0.786896373419325D+01 0.883270493137943D+01
 0.858666171309909D+02 -.276753087877043D+02 -.786896373419325D+01 -.883270493137943D+01
 0.000000000000000D+00 0.000000000000000D+00 -.000000000000000D+00 -.000000000000000D+00
 0.166667952154878D+03 0.000000000000000D+00 0.000000000000000D+00 0.166667952154878D+03
 0.189116598920746D+03 0.000000000000000D+00 0.000000000000000D+00 -.189116598920746D+03
 0.137985587719902D+03 -.174194978895648D+02 0.550778252591487D+02 0.883270493137943D+01
 0.103821979748860D+03 -.597657778644470D+02 0.257259138701596D+02 -.883270493137943D+01
 0.113976983606862D+03 0.771852757540118D+02 -.808037391293084D+02 -.224486467658681D+02
0.163335971923D-03 0.000000000000D+00 0.000000000000D+00 0.307458273419D-02 0.000000000000D+00  5 -4 3 25 -24 21 0 0.46643930D-02 0.58334535D-01 0.11414760D+05 0.11414760D+05 0.11414760D+05 0.12615770D+01  1  2  2  1  5  1       -4 0.237236204193D-01 0.100000000000D+01
-.907408186029D-05 0.000000000000D+00 -.627253139532D-06 0.307458273419D-02 0.000000000000D+00  5 -4 3 25 -24 21 2 0.46643930D-02 0.58334535D-01 0.11414760D+05 0.11414760D+05 0.11414760D+05 0.12615770D+01  1  2  3  1  5  1       -4 -.209763224273D-02 0.100000000000D+01
0.112759088458D-04 0.000000000000D+00 0.000000000000D+00 0.307458273419D-02 0.000000000000D+00  5 -4 3 25 -24 21 2 0.46643930D-02 0.58334535D-01 0.11414760D+05 0.11414760D+05 0.11414760D+05 0.12615770D+01  1  2 15  1  5  1       -4 0.260662294272D-02 0.100000000000D+01
  </mgrwgt>
  </event>
  <event>
  4     66 0.46019439E-03 0.52487365E+02 0.75467711E-02 0.12314063E+00
       -2 -1    0    0    0  501 0.00000000E+00 0.00000000E+00 0.94315347E+03 0.94315353E+03 0.32000000E+00 0.0000E+00 0.9000E+01
        1 -1    0    0  501    0 0.00000000E+00 0.00000000E+00 -.12896388E+02 0.12900357E+02 0.32000000E+00 0.0000E+00 0.9000E+01
       25  1    1    2    0    0 -.38447885E+02 -.52740245E+01 0.58137973E+03 0.59593074E+03 0.12500000E+03 0.0000E+00 0.9000E+01
      -24  1    1    2    0    0 0.38447885E+02 0.52740245E+01 0.34887735E+03 0.36012314E+03 0.80419002E+02 0.0000E+00 0.9000E+01
#aMCatNLO 1  0  0  2  1 0.32216253D+02 0.00000000D+00  -5  5  0 0.00000000D+00 0.00000000D+00 0.00000000D+00 0.00000000D+00 0.00000000D+00
  <mgrwgt>
 0.1737911404D+00    9    2    0
 0.110295949769369D+03 0.000000000000000D+00 0.000000000000000D+00 0.110295949769369D+03
 0.110295949769369D+03 0.000000000000000D+00 0.000000000000000D+00 -.110295949769369D+03
 0.131053248801606D+03 -.384478854270070D+02 -.527402453387611D+01 0.662561641383928D+01
 0.895386507371317D+02 0.384478854270070D+02 0.527402453387611D+01 -.662561641383928D+01
 0.000000000000000D+00 -.000000000000000D+00 -.000000000000000D+00 -.000000000000000D+00
 0.126489196597475D+03 0.000000000000000D+00 0.000000000000000D+00 0.126489196597475D+03
 0.128737397756187D+03 0.000000000000000D+00 0.000000000000000D+00 -.128737397756187D+03
 0.126803453502229D+03 -.202333435535480D+02 -.910404235911604D+00 0.662561641383928D+01
 0.961285385325465D+02 0.515630876430624D+02 0.841600652823414D+01 -.662561641383928D+01
 0.322946023188862D+02 -.313297440895144D+02 -.750560229232253D+01 -.224820115871166D+01
0.687234739788D-03 0.000000000000D+00 0.000000000000D+00 0.299448981028D-02 0.000000000000D+00  5 -2 1 25 -24 21 0 0.14510084D+00 0.19843692D-02 0.12119680D+05 0.12119680D+05 0.12119680D+05 0.12585193D+01  1  2  2  2  5  2        1 0.119992684091D+00 0.100000000000D+01
-.381795446901D-04 0.000000000000D+00 -.263916235385D-05 0.299448981028D-02 0.000000000000D+00  5 -2 1 25 -24 21 2 0.14510084D+00 0.19843692D-02 0.12119680D+05 0.12119680D+05 0.12119680D+05 0.12585193D+01  1  2  3  2  5  2        1 -.105584501099D-01 0.100000000000D+01
0.475395612166D-04 0.000000000000D+00 0.000000000000D+00 0.299448981028D-02 0.000000000000D+00  5 -2 1 25 -24 21 2 0.14510084D+00 0.19843692D-02 0.12119680D+05 0.12119680D+05 0.12119680D+05 0.12585193D+01  1  2 15  2  5  2        1 0.131469374354D-01 0.100000000000D+01
0.537323886376D-03 0.000000000000D+00 0.000000000000D+00 0.299448981028D-02 0.000000000000D+00  5 -2 1 25 -24 21 2 0.14510084D+00 0.24400040D-02 0.16223935D+05 0.16223935D+05 0.16223935D+05 0.12439577D+01  1  2 12  2  5  2        1 0.110153510817D+00 0.100000000000D+01
-.484562877251D-03 0.000000000000D+00 0.000000000000D+00 0.299448981028D-02 0.000000000000D+00  5 -2 1 25 -24 21 2 0.14510084D+00 0.19843692D-02 0.12119680D+05 0.12119680D+05 0.12119680D+05 0.12585193D+01  1  2  4  2  5  2        1 -.134004556788D+00 0.100000000000D+01
-.126784733500D-02 0.000000000000D+00 -.462160370156D-03 0.299448981028D-02 0.000000000000D+00  5 -2 1 25 -24 21 2 0.14510084D+00 0.26716338D-02 0.12119680D+05 0.12119680D+05 0.12119680D+05 0.12585193D+01  1  2  5  2  5  2        1 -.232367139115D+00 0.100000000000D+01
0.136422643785D-02 0.000000000000D+00 0.442450523577D-03 0.299448981028D-02 0.000000000000D+00  5 -2 1 25 -24 21 2 0.14510084D+00 0.19843692D-02 0.12119680D+05 0.12119680D+05 0.12119680D+05 0.12585193D+01  1  2  6  2  5  2        1 0.377273141929D+00 0.100000000000D+01
0.157687438841D-04 0.000000000000D+00 0.000000000000D+00 0.299448981028D-02 0.000000000000D+00  5 -2 21 25 -24 -1 2 0.14510084D+00 0.24400040D-02 0.16223935D+05 0.16223935D+05 0.16223935D+05 0.12439577D+01  1  2 12  4  5  2        1 0.611436939568D-01 0.100000000000D+01
-.384777152933D-04 0.000000000000D+00 -.177524173871D-04 0.299448981028D-02 0.000000000000D+00  5 -2 21 25 -24 -1 2 0.14510084D+00 0.26716338D-02 0.12119680D+05 0.12119680D+05 0.12119680D+05 0.12585193D+01  1  2  5  4  5  2        1 -.130988681835D+00 0.100000000000D+01
  </mgrwgt>
  </event>
  <event>
  5     66 0.46019439E-03 0.10294624E+03 0.75467711E-02 0.12671363E+00
       -2 -1    0    0    0  501 0.00000000E+00 0.00000000E+00 0.71479887E+03 0.71479894E+03 0.32000000E+00 0.0000E+00 0.9000E+01
       21 -1    0    0  501  502 0.00000000E+00 0.00000000E+00 -.19075095E+02 0.19089834E+02 0.75000000E+00 0.0000E+00 0.9000E+01
       25  1    1    2    0    0 0.64506874E+01 0.68017244E+01 0.47740032E+03 0.49358276E+03 0.12500000E+03 0.0000E+00 0.9000E+01
      -24  1    1    2    0    0 0.57019330E+00 -.61652353E+01 0.13928373E+03 0.16095188E+03 0.80419002E+02 0.0000E+00 0.9000E+01
       -1  1    1    2    0  502 -.70208807E+01 -.63648905E+00 0.79039729E+02 0.79354137E+02 0.32000000E+00 0.0000E+00 0.9000E+01
#aMCatNLO 2  0  0  2  1 0.70496726D+01 0.00000000D+00  -5  5  0 0.00000000D+00 0.00000000D+00 0.00000000D+00 0.00000000D+00 0.00000000D+00
  <mgrwgt>
 0.9409838096D-01    1    2    0
 0.109620576006850D+03 0.000000000000000D+00 0.000000000000000D+00 0.109620576006850D+03
 0.109620576006850D+03 0.000000000000000D+00 0.000000000000000D+00 -.109620576006850D+03
 0.130505761022338D+03 0.226996711190848D+01 0.642271454588622D+01 0.368829180948637D+02
 0.887353909913629D+02 -.226996711190848D+01 -.642271454588622D+01 -.368829180948637D+02
 0.000000000000000D+00 -.000000000000000D+00 -.000000000000000D+00 0.000000000000000D+00
 0.123341071315823D+03 0.000000000000000D+00 0.000000000000000D+00 0.123341071315823D+03
 0.110586527442771D+03 0.000000000000000D+00 0.000000000000000D+00 -.110586527442771D+03
 0.130664549398880D+03 0.645068741736392D+01 0.680172435955336D+01 0.368829180948637D+02
 0.886899140172852D+02 0.570193295891913D+00 -.616523531065957D+01 -.368829180948637D+02
 0.145731353424287D+02 -.702088071325584D+01 -.636489048893789D+00 0.127545438730522D+02
0.163939066765D-04 0.000000000000D+00 0.000000000000D+00 0.273542944149D-02 0.817077604438D-06  5 -2 21 25 -24 -1 2 0.10996846D+00 0.29357230D-02 0.11348393D+05 0.11348393D+05 0.11348393D+05 0.12618758D+01  1  2  1  4  5  2        1 0.940983809636D-01 0.100000000000D+01
  </mgrwgt>
  </event>
  <event>
  4     66 0.46019439E-03 0.10456174E+03 0.75467711E-02 0.12298111E+00
       -2 -1    0    0    0  501 0.00000000E+00 0.00000000E+00 0.49373941E+01 0.49477531E+01 0.32000000E+00 0.0000E+00 0.9000E+01
        1 -1    0    0  501    0 0.00000000E+00 0.00000000E+00 -.22662045E+04 0.22662045E+04 0.32000000E+00 0.0000E+00 0.9000E+01
       25  1    1    2    0    0 0.78264364E+01 -.17470386E+02 -.11899509E+04 0.11966514E+04 0.12500000E+03 0.0000E+00 0.9000E+01
      -24  1    1    2    0    0 -.78264364E+01 0.17470386E+02 -.10713162E+04 0.10745009E+04 0.80419002E+02 0.0000E+00 0.9000E+01
#aMCatNLO 1  0  0  1  2 0.43269876D+02 0.00000000D+00  -5  5  0 0.00000000D+00 0.00000000D+00 0.00000000D+00 0.00000000D+00 0.00000000D+00
  <mgrwgt>
 0.2997637422D+00    4    2    0
 0.105834462966448D+03 0.000000000000000D+00 0.000000000000000D+00 0.105834462966448D+03
 0.105834462966448D+03 0.000000000000000D+00 0.000000000000000D+00 -.105834462966448D+03
 0.127466792807184D+03 0.782643638730301D+01 -.174703857644752D+02 0.160098651857412D+02
 0.842021331257125D+02 -.782643638730301D+01 0.174703857644752D+02 -.160098651857412D+02
 0.000000000000000D+00 -.000000000000000D+00 -.000000000000000D+00 -.000000000000000D+00
 0.116527076708931D+03 0.000000000000000D+00 0.000000000000000D+00 0.116527076708931D+03
 0.163064953394384D+03 0.000000000000000D+00 0.000000000000000D+00 -.163064953394384D+03
 0.127147975287136D+03 0.152867925127460D+02 0.718371846780423D+01 0.160098651857412D+02
 0.888983538801285D+02 -.275449461339616D+01 0.342315401988457D+02 -.160098651857412D+02
 0.635457009360510D+02 -.125322978993498D+02 -.414152586666499D+02 -.465378766854534D+02
0.527514528905D-03 0.000000000000D+00 0.000000000000D+00 0.307625910192D-02 0.000000000000D+00  5 -2 1 25 -24 21 0 0.76039767D-03 0.34864764D+00 0.10933156D+05 0.10933156D+05 0.10933156D+05 0.12637909D+01  1  2  2  1  5  1       -2 0.325831345125D+00 0.100000000000D+01
-.293011470564D-04 0.000000000000D+00 -.202579468876D-05 0.307625910192D-02 0.000000000000D+00  5 -2 1 25 -24 21 2 0.76039767D-03 0.34864764D+00 0.10933156D+05 0.10933156D+05 0.10933156D+05 0.12637909D+01  1  2  3  1  5  1       -2 -.289063673978D-01 0.100000000000D+01
0.364326642956D-04 0.000000000000D+00 0.000000000000D+00 0.307625910192D-02 0.000000000000D+00  5 -2 1 25 -24 21 2 0.76039767D-03 0.34864764D+00 0.10933156D+05 0.10933156D+05 0.10933156D+05 0.12637909D+01  1  2 15  1  5  1       -2 0.359418004142D-01 0.100000000000D+01
-.335551302839D-04 0.000000000000D+00 0.000000000000D+00 0.307625910192D-02 0.000000000000D+00  5 -2 1 25 -24 21 2 0.76039767D-03 0.34864764D+00 0.10933156D+05 0.10933156D+05 0.10933156D+05 0.12637909D+01  1  2  4  1  5  1       -2 -.331030359392D-01 0.100000000000D+01
  </mgrwgt>
  </event>
  <event>
  4     66 0.46019439E-03 0.10486956E+03 0.75467711E-02 0.11364906E+00
       -2 -1    0    0    0  501 0.00000000E+00 0.00000000E+00 0.18244782E+03 0.18244810E+03 0.32000000E+00 0.0000E+00 0.9000E+01
        1 -1    0    0  501    0 0.00000000E+00 0.00000000E+00 -.16330732E+03 0.16330763E+03 0.32000000E+00 0.0000E+00 0.9000E+01
       25  1    1    2    0    0 0.10243770E+03 0.79601776E+02 -.35536430E+02 0.18362397E+03 0.12500000E+03 0.0000E+00 0.9000E+01
      -24  1    1    2    0    0 -.10243770E+03 -.79601776E+02 0.54676935E+02 0.16213176E+03 0.80419002E+02 0.0000E+00 0.9000E+01
#aMCatNLO 1  0  0  2  1 0.88679214D+02 0.00000000D+00  -5  5  0 0.00000000D+00 0.00000000D+00 0.00000000D+00 0.00000000D+00 0.00000000D+00
  <mgrwgt>
 0.1867210802D+00    9    2    0
 0.172612766009866D+03 0.000000000000000D+00 0.000000000000000D+00 0.172612766009866D+03
 0.172612766009866D+03 0.000000000000000D+00 0.000000000000000D+00 -.172612766009866D+03
 0.185876246251394D+03 0.102437699514234D+03 0.796017755269066D+02 -.457717595434627D+02
 0.159349285768338D+03 -.102437699514234D+03 -.796017755269066D+02 0.457717595434627D+02
 0.000000000000000D+00 0.000000000000000D+00 0.000000000000000D+00 -.000000000000000D+00
 0.198612890885765D+03 0.000000000000000D+00 0.000000000000000D+00 0.198612890885765D+03
 0.274606891436180D+03 0.000000000000000D+00 0.000000000000000D+00 -.274606891436180D+03
 0.164302838055006D+03 0.886943895958492D+02 0.375323044249160D+02 -.457717595434627D+02
 0.192130424903955D+03 -.116232054489378D+03 -.121827500002575D+03 0.457717595434627D+02
 0.116786519362984D+03 0.275376648935285D+02 0.842951955776593D+02 -.759940005504154D+02
0.987840365115D-03 0.000000000000D+00 0.000000000000D+00 0.211841443745D-02 0.000000000000D+00  5 -2 1 25 -24 21 0 0.28068941D-01 0.25124248D-01 0.27686716D+05 0.27686716D+05 0.27686716D+05 0.12185731D+01  1  2  2  2  5  2        1 0.186668838023D+00 0.100000000000D+01
-.547901635624D-04 0.000000000000D+00 -.379356710638D-05 0.211841443745D-02 0.000000000000D+00  5 -2 1 25 -24 21 2 0.28068941D-01 0.25124248D-01 0.27686716D+05 0.27686716D+05 0.27686716D+05 0.12185731D+01  1  2  3  2  5  2        1 -.153741401611D-01 0.100000000000D+01
0.678945725191D-04 0.000000000000D+00 0.000000000000D+00 0.211841443745D-02 0.000000000000D+00  5 -2 1 25 -24 21 2 0.28068941D-01 0.25124248D-01 0.27686716D+05 0.27686716D+05 0.27686716D+05 0.12185731D+01  1  2 15  2  5  2        1 0.190512421613D-01 0.100000000000D+01
0.505813565126D-03 0.000000000000D+00 0.000000000000D+00 0.211841443745D-02 0.000000000000D+00  5 -2 1 25 -24 21 2 0.28068941D-01 0.40945638D-01 0.46888780D+05 0.46888780D+05 0.46888780D+05 0.11950549D+01  1  2 12  2  5  2        1 0.744985068055D-01 0.100000000000D+01
-.888797131631D-03 0.000000000000D+00 0.000000000000D+00 0.211841443745D-02 0.000000000000D+00  5 -2 1 25 -24 21 2 0.28068941D-01 0.25124248D-01 0.27686716D+05 0.27686716D+05 0.27686716D+05 0.12185731D+01  1  2  4  2  5  2        1 -.249396803879D+00 0.100000000000D+01
-.990003853807D-03 0.000000000000D+00 -.424154727409D-03 0.211841443745D-02 0.000000000000D+00  5 -2 1 25 -24 21 2 0.28068941D-01 0.45127137D-01 0.27686716D+05 0.27686716D+05 0.27686716D+05 0.12185731D+01  1  2  5  2  5  2        1 -.133670700689D+00 0.100000000000D+01
0.110674160171D-02 0.000000000000D+00 0.360537462077D-03 0.211841443745D-02 0.000000000000D+00  5 -2 1 25 -24 21 2 0.28068941D-01 0.25124248D-01 0.27686716D+05 0.27686716D+05 0.27686716D+05 0.12185731D+01  1  2  6  2  5  2        1 0.310552102795D+00 0.100000000000D+01
0.279968853991D-04 0.000000000000D+00 0.000000000000D+00 0.211841443745D-02 0.000000000000D+00  5 -2 21 25 -24 -1 2 0.28068941D-01 0.40945638D-01 0.46888780D+05 0.46888780D+05 0.46888780D+05 0.11950549D+01  1  2 12  4  5  2        1 0.211595850786D-01 0.100000000000D+01
-.411439966208D-04 0.000000000000D+00 -.272570628018D-04 0.211841443745D-02 0.000000000000D+00  5 -2 21 25 -24 -1 2 0.28068941D-01 0.45127137D-01 0.27686716D+05 0.27686716D+05 0.27686716D+05 0.12185731D+01  1  2  5  4  5  2        1 -.267675499640D-01 0.100000000000D+01
  </mgrwgt>
  </event>
  <event>
  4     66 0.46019439E-03 0.75357077E+02 0.75467711E-02 0.12358582E+00
       -2 -1    0    0    0  501 0.00000000E+00 0.00000000E+00 0.25321532E+02 0.25323554E+02 0.32000000E+00 0.0000E+00 0.9000E+01
        1 -1    0    0  501    0 0.00000000E+00 0.00000000E+00 -.62999695E+03 0.62999703E+03 0.32000000E+00 0.0000E+00 0.9000E+01
       25  1    1    2    0    0 -.38335040E+02 0.45783655E+02 -.45173628E+03 0.47250014E+03 0.12500000E+03 0.0000E+00 0.9000E+01
      -24  1    1    2    0    0 0.38335040E+02 -.45783655E+02 -.15293914E+03 0.18282044E+03 0.80419002E+02 0.0000E+00 0.9000E+01
#aMCatNLO 1  0  0  2  1 0.10177534D+02 0.00000000D+00  -5  5  0 0.00000000D+00 0.00000000D+00 0.00000000D+00 0.00000000D+00 0.00000000D+00
  <mgrwgt>
 0.3490899162D+00    9    2    0
 0.126305887676568D+03 0.000000000000000D+00 0.000000000000000D+00 0.126305887676568D+03
 0.126305887676568D+03 0.000000000000000D+00 0.000000000000000D+00 -.126305887676568D+03
 0.144432089499162D+03 -.383350399629043D+02 0.457836552882942D+02 -.408645334805035D+02
 0.108179685853974D+03 0.383350399629043D+02 -.457836552882942D+02 0.408645334805035D+02
 0.000000000000000D+00 0.000000000000000D+00 -.000000000000000D+00 -.000000000000000D+00
 0.131259653038879D+03 0.000000000000000D+00 0.000000000000000D+00 0.131259653038879D+03
 0.131746219678583D+03 0.000000000000000D+00 0.000000000000000D+00 -.131746219678583D+03
 0.146954924712577D+03 -.420503357350604D+02 0.503250341805011D+02 -.408645334805035D+02
 0.105861790005241D+03 0.356059293589982D+02 -.424477364136889D+02 0.408645334805035D+02
 0.101891579996449D+02 0.644440637606218D+01 -.787729776681223D+01 -.486566639703881D+00
0.142576148659D-03 0.000000000000D+00 0.000000000000D+00 0.242914789275D-02 0.000000000000D+00  5 -2 1 25 -24 21 0 0.38957822D-02 0.96922769D-01 0.14243838D+05 0.14243838D+05 0.14243838D+05 0.12503916D+01  1  2  2  2  5  2        1 0.111964399503D+00 0.100000000000D+01
-.788997189493D-05 0.000000000000D+00 -.547529952012D-06 0.242914789275D-02 0.000000000000D+00  5 -2 1 25 -24 21 2 0.38957822D-02 0.96922769D-01 0.14243838D+05 0.14243838D+05 0.14243838D+05 0.12503916D+01  1  2  3  2  5  2        1 -.968725326685D-02 0.100000000000D+01
0.986621980596D-05 0.000000000000D+00 0.000000000000D+00 0.242914789275D-02 0.000000000000D+00  5 -2 1 25 -24 21 2 0.38957822D-02 0.96922769D-01 0.14243838D+05 0.14243838D+05 0.14243838D+05 0.12503916D+01  1  2 15  2  5  2        1 0.121136768698D-01 0.100000000000D+01
0.374862043138D-03 0.000000000000D+00 0.000000000000D+00 0.242914789275D-02 0.000000000000D+00  5 -2 1 25 -24 21 2 0.38957822D-02 0.10292112D+00 0.15499383D+05 0.15499383D+05 0.15499383D+05 0.12462043D+01  1  2 12  2  5  2        1 0.421732655909D+00 0.100000000000D+01
-.298495554372D-03 0.000000000000D+00 0.000000000000D+00 0.242914789275D-02 0.000000000000D+00  5 -2 1 25 -24 21 2 0.38957822D-02 0.96922769D-01 0.14243838D+05 0.14243838D+05 0.14243838D+05 0.12503916D+01  1  2  4  2  5  2        1 -.366490790175D+00 0.100000000000D+01
-.165605809109D-02 0.000000000000D+00 -.303060468640D-03 0.242914789275D-02 0.000000000000D+00  5 -2 1 25 -24 21 2 0.38957822D-02 0.10429578D+00 0.14243838D+05 0.14243838D+05 0.14243838D+05 0.12503916D+01  1  2  5  2  5  2        1 -.183631289873D+01 0.100000000000D+01
0.167458737739D-02 0.000000000000D+00 0.302247769200D-03 0.242914789275D-02 0.000000000000D+00  5 -2 1 25 -24 21 2 0.38957822D-02 0.96922769D-01 0.14243838D+05 0.14243838D+05 0.14243838D+05 0.12503916D+01  1  2  6  2  5  2        1 0.205604687295D+01 0.100000000000D+01
0.419215729308D-05 0.000000000000D+00 0.000000000000D+00 0.242914789275D-02 0.000000000000D+00  5 -2 21 25 -24 -1 2 0.38957822D-02 0.10292112D+00 0.15499383D+05 0.15499383D+05 0.15499383D+05 0.12462043D+01  1  2 12  4  5  2        1 0.110861585025D-01 0.100000000000D+01
-.199058684179D-04 0.000000000000D+00 -.374461665676D-05 0.242914789275D-02 0.000000000000D+00  5 -2 21 25 -24 -1 2 0.38957822D-02 0.10429578D+00 0.14243838D+05 0.14243838D+05 0.14243838D+05 0.12503916D+01  1  2  5  4  5  2        1 -.513629053304D-01 0.100000000000D+01
  </mgrwgt>
  </event>
  <event>
  4     66 0.46019439E-03 0.10948510E+03 0.75467711E-02 0.12397544E+00
       -2 -1    0    0    0  501 0.00000000E+00 0.00000000E+00 0.99016728E+01 0.99068423E+01 0.32000000E+00 0.0000E+00 0.9000E+01
        1 -1    0    0  501    0 0.00000000E+00 0.00000000E+00 -.13757630E+04 0.13757630E+04 0.32000000E+00 0.0000E+00 0.9000E+01
       25  1    1    2    0    0 0.31266613E+02 0.20013731E+02 -.10340784E+04 0.10422674E+04 0.12500000E+03 0.0000E+00 0.9000E+01
      -24  1    1    2    0    0 -.31266613E+02 -.20013731E+02 -.33178291E+03 0.34340248E+03 0.80419002E+02 0.0000E+00 0.9000E+01
#aMCatNLO 1  0  0  1  1 0.23934572D+02 0.00000000D+00  -5  5  0 0.00000000D+00 0.00000000D+00 0.00000000D+00 0.00000000D+00 0.00000000D+00
  <mgrwgt>
 0.2612588785D+00    4    2    0
 0.116730296131462D+03 0.000000000000000D+00 0.000000000000000D+00 0.116730296131462D+03
 0.116730296131462D+03 0.000000000000000D+00 0.000000000000000D+00 -.116730296131462D+03
 0.136343422177411D+03 0.312666128553678D+02 0.200137306400345D+02 -.398293645124860D+02
 0.971171700855123D+02 -.312666128553678D+02 -.200137306400345D+02 0.398293645124860D+02
 0.000000000000000D+00 -.000000000000000D+00 -.000000000000000D+00 -.000000000000000D+00
 0.121385038158864D+03 0.000000000000000D+00 0.000000000000000D+00 0.121385038158864D+03
 0.152766221579002D+03 0.000000000000000D+00 0.000000000000000D+00 -.152766221579002D+03
 0.139147357062897D+03 0.314318483850007D+02 0.340976187911020D+02 -.398293645124860D+02
 0.955369241725837D+02 -.311510616148201D+02 -.101646942299649D+02 0.398293645124860D+02
 0.394669785023850D+02 -.280786770180655D+00 -.239329245611371D+02 -.313811834201377D+02
0.348534286568D-03 0.000000000000D+00 0.000000000000D+00 0.256481472003D-02 0.000000000000D+00  5 -2 1 25 -24 21 0 0.15237348D-02 0.21165624D+00 0.11986987D+05 0.11986987D+05 0.11986987D+05 0.12590793D+01  1  2  2  1  5  1       -2 0.294783312339D+00 0.100000000000D+01
-.192663513224D-04 0.000000000000D+00 -.133846343161D-05 0.256481472003D-02 0.000000000000D+00  5 -2 1 25 -24 21 2 0.15237348D-02 0.21165624D+00 0.11986987D+05 0.11986987D+05 0.11986987D+05 0.12590793D+01  1  2  3  1  5  1       -2 -.258322986863D-01 0.100000000000D+01
0.240377870425D-04 0.000000000000D+00 0.000000000000D+00 0.256481472003D-02 0.000000000000D+00  5 -2 1 25 -24 21 2 0.15237348D-02 0.21165624D+00 0.11986987D+05 0.11986987D+05 0.11986987D+05 0.12590793D+01  1  2 15  1  5  1       -2 0.322298334672D-01 0.100000000000D+01
-.297747669607D-04 0.000000000000D+00 0.000000000000D+00 0.256481472003D-02 0.000000000000D+00  5 -2 1 25 -24 21 2 0.15237348D-02 0.21165624D+00 0.11986987D+05 0.11986987D+05 0.11986987D+05 0.12590793D+01  1  2  4  1  5  1       -2 -.399219686475D-01 0.100000000000D+01
  </mgrwgt>
  </event>
  <event>
  4     66 0.46019439E-03 0.14723517E+03 0.75467711E-02 0.12031550E+00
       -2 -1    0    0    0  501 0.00000000E+00 0.00000000E+00 0.11686766E+02 0.11691147E+02 0.32000000E+00 0.0000E+00 0.9000E+01
        1 -1    0    0  501    0 0.00000000E+00 0.00000000E+00 -.18730140E+04 0.18730141E+04 0.32000000E+00 0.0000E+00 0.9000E+01
       25  1    1    2    0    0 0.10014996E+03 0.29049343E+02 -.11209454E+04 0.11327036E+04 0.12500000E+03 0.0000E+00 0.9000E+01
      -24  1    1    2    0    0 -.10014996E+03 -.29049343E+02 -.74038188E+03 0.75200161E+03 0.80419002E+02 0.0000E+00 0.9000E+01
#aMCatNLO 1  0  0  2  1 0.12032097D+01 0.00000000D+00  -5  5  0 0.00000000D+00 0.00000000D+00 0.00000000D+00 0.00000000D+00 0.00000000D+00
  <mgrwgt>
 0.1962177872D+00    6    2    0
 0.147964965623292D+03 0.000000000000000D+00 0.000000000000000D+00 0.147964965623292D+03
 0.147964965623292D+03 0.000000000000000D+00 0.000000000000000D+00 -.147964965623292D+03
 0.163437858154056D+03 0.100149955842221D+03 0.290493425333618D+02 -.145964215191947D+02
 0.132492073092528D+03 -.100149955842221D+03 -.290493425333618D+02 0.145964215191947D+02
 0.000000000000000D+00 0.000000000000000D+00 -.000000000000000D+00 0.000000000000000D+00
 0.149207489074113D+03 0.000000000000000D+00 0.000000000000000D+00 0.149207489074113D+03
 0.148257760579004D+03 0.000000000000000D+00 0.000000000000000D+00 -.148257760579004D+03
 0.163411783078465D+03 0.999239603551658D+02 0.296741886941571D+02 -.145964215191947D+02
 0.132520594199037D+03 -.100333195042345D+03 -.285427115727317D+02 0.145964215191947D+02
 0.153287237561434D+01 0.409234687178758D+00 -.113147712142541D+01 0.949728495109072D+00
0.674386375836D-03 0.000000000000D+00 0.000000000000D+00 0.240461539842D-02 0.000000000000D+00  5 -2 1 25 -24 21 0 0.17983031D-02 0.28815635D+00 0.21678196D+05 0.21678196D+05 0.21678196D+05 0.12299921D+01  1  2  2  2  5  2        1 0.217492470181D+00 0.100000000000D+01
-.374647961287D-04 0.000000000000D+00 -.258982125322D-05 0.240461539842D-02 0.000000000000D+00  5 -2 1 25 -24 21 2 0.17983031D-02 0.28815635D+00 0.21678196D+05 0.21678196D+05 0.21678196D+05 0.12299921D+01  1  2  3  2  5  2        1 -.182794641593D-01 0.100000000000D+01
0.464627409323D-04 0.000000000000D+00 0.000000000000D+00 0.240461539842D-02 0.000000000000D+00  5 -2 1 25 -24 21 2 0.17983031D-02 0.28815635D+00 0.21678196D+05 0.21678196D+05 0.21678196D+05 0.12299921D+01  1  2 15  2  5  2        1 0.226696551263D-01 0.100000000000D+01
-.354916996519D-02 0.000000000000D+00 0.000000000000D+00 0.240461539842D-02 0.000000000000D+00  5 -2 1 25 -24 21 2 0.17983031D-02 0.28815635D+00 0.21678196D+05 0.21678196D+05 0.21678196D+05 0.12299921D+01  1  2  4  2  5  2        1 -.173167698420D+01 0.100000000000D+01
0.354930029120D-02 0.000000000000D+00 0.000000000000D+00 0.240461539842D-02 0.133939710388D-01  5 -2 1 25 -24 21 2 0.18134042D-02 0.28872655D+00 0.21856085D+05 0.21856085D+05 0.21856085D+05 0.12296053D+01  1  2 11  2  5  2        1 0.170059007817D+01 0.100000000000D+01
0.127786597878D-04 0.000000000000D+00 0.000000000000D+00 0.240461539842D-02 0.497123477233D-05  5 -2 21 25 -24 -1 2 0.18134042D-02 0.28872655D+00 0.21856085D+05 0.21856085D+05 0.21856085D+05 0.12296053D+01  1  2 11  4  5  2        1 0.542203205444D-02 0.100000000000D+01
  </mgrwgt>
  </event>
  <event>
  4     66 0.46019439E-03 0.11372666E+03 0.75467711E-02 0.11403436E+00
       -2 -1    0    0    0  501 0.00000000E+00 0.00000000E+00 0.34135525E+02 0.34137025E+02 0.32000000E+00 0.0000E+00 0.9000E+01
        1 -1    0    0  501    0 0.00000000E+00 0.00000000E+00 -.52986573E+03 0.52986582E+03 0.32000000E+00 0.0000E+00 0.9000E+01
       25  1    1    2    0    0 -.46896437E+02 0.96763888E+01 -.13040229E+03 0.18687607E+03 0.12500000E+03 0.0000E+00 0.9000E+01
      -24  1    1    2    0    0 0.46896437E+02 -.96763888E+01 -.36532791E+03 0.37712678E+03 0.80419002E+02 0.0000E+00 0.9000E+01
#aMCatNLO 1  0  0  1  1 0.14989174D+03 0.00000000D+00  -5  5  0 0.00000000D+00 0.00000000D+00 0.00000000D+00 0.00000000D+00 0.00000000D+00
  <mgrwgt>
 0.1885605024D+00    3    2    0
 0.134490501509161D+03 0.000000000000000D+00 0.000000000000000D+00 0.134490501509161D+03
 0.134490501509161D+03 0.000000000000000D+00 0.000000000000000D+00 -.134490501509161D+03
 0.151513607124180D+03 -.468964366860047D+02 0.967638880985758D+01 0.709821447234196D+02
 0.117467395894142D+03 0.468964366860047D+02 -.967638880985758D+01 -.709821447234196D+02
 0.000000000000000D+00 -.000000000000000D+00 0.000000000000000D+00 -.000000000000000D+00
 0.221626049145977D+03 0.000000000000000D+00 0.000000000000000D+00 0.221626049145977D+03
 0.236975380578927D+03 0.000000000000000D+00 0.000000000000000D+00 -.236975380578927D+03
 0.149595474169577D+03 0.145175841610667D+02 -.387889259017363D+02 0.709821447234196D+02
 0.158330353192593D+03 0.103147973966821D+03 -.540676926151305D+02 -.709821447234196D+02
 0.150675602362734D+03 -.117665558127887D+03 0.928566185168668D+02 -.153493314329506D+02
0.291080417769D-03 0.000000000000D+00 0.000000000000D+00 0.192562370450D-02 0.000000000000D+00  5 -2 1 25 -24 21 0 0.52517421D-02 0.81517927D-01 0.12933754D+05 0.12933754D+05 0.12933754D+05 0.12552279D+01  1  2  2  1  5  1       -2 0.184254767791D+00 0.100000000000D+01
-.156182098338D-04 0.000000000000D+00 -.111782544747D-05 0.192562370450D-02 0.000000000000D+00  5 -2 1 25 -24 21 2 0.52517421D-02 0.81517927D-01 0.12933754D+05 0.12933754D+05 0.12933754D+05 0.12552279D+01  1  2  3  1  5  1       -2 -.155769396693D-01 0.100000000000D+01
0.199353522731D-04 0.000000000000D+00 0.000000000000D+00 0.192562370450D-02 0.000000000000D+00  5 -2 1 25 -24 21 2 0.52517421D-02 0.81517927D-01 0.12933754D+05 0.12933754D+05 0.12933754D+05 0.12552279D+01  1  2 15  1  5  1       -2 0.198826743237D-01 0.100000000000D+01
  </mgrwgt>
  </event>
  <event>
  4     66 0.46019439E-03 0.14461705E+03 0.75467711E-02 0.12064301E+00
       -2 -1    0    0    0  501 0.00000000E+00 0.00000000E+00 0.40768257E+04 0.40768257E+04 0.32000000E+00 0.0000E+00 0.9000E+01
        1 -1    0    0  501    0 0.00000000E+00 0.00000000E+00 -.61626265E+01 0.61709291E+01 0.32000000E+00 0.0000E+00 0.9000E+01
       25  1    1    2    0    0 0.10057521E+03 -.17979232E+01 0.13877822E+04 0.13970265E+04 0.12500000E+03 0.0000E+00 0.9000E+01
      -24  1    1    2    0    0 -.10057521E+03 0.17979232E+01 0.26828809E+04 0.26859702E+04 0.80419002E+02 0.0000E+00 0.9000E+01
#aMCatNLO 1  0  0  2  1 0.12695636D+01 0.00000000D+00  -5  5  0 0.00000000D+00 0.00000000D+00 0.00000000D+00 0.00000000D+00 0.00000000D+00
  <mgrwgt>
 0.6364544523D-02    8    2    0
 0.158558915427202D+03 0.000000000000000D+00 0.000000000000000D+00 0.158558915427202D+03
 0.158558915427202D+03 0.000000000000000D+00 0.000000000000000D+00 -.158558915427202D+03
 0.172998002660102D+03 0.100575213539201D+03 -.179792315785902D+01 -.646892790054669D+02
 0.144119828194302D+03 -.100575213539201D+03 0.179792315785902D+01 0.646892790054669D+02
 0.000000000000000D+00 -.000000000000000D+00 -.000000000000000D+00 0.000000000000000D+00
 0.162342970302736D+03 0.000000000000000D+00 0.000000000000000D+00 0.162342970302736D+03
 0.158666707597117D+03 0.000000000000000D+00 0.000000000000000D+00 -.158666707597117D+03
 0.172999861375718D+03 0.100588404779141D+03 -.110545997584615D+01 -.646892790054669D+02
 0.144120510782044D+03 -.100564224316819D+03 0.237479325752925D+01 0.646892790054669D+02
 0.388930574209217D+01 -.241804623212960D-01 -.126933328168310D+01 0.367626270561893D+01
0.754301865105D-02 0.000000000000D+00 0.000000000000D+00 0.198647102438D-02 0.000000000000D+00  5 -2 1 25 -24 21 0 0.62720460D+00 0.94873601D-03 0.20914091D+05 0.20914091D+05 0.20914091D+05 0.12316950D+01  1  2  2  2  5  2        1 0.543359561935D-02 0.100000000000D+01
-.414740612247D-03 0.000000000000D+00 -.289671777425D-04 0.198647102438D-02 0.000000000000D+00  5 -2 1 25 -24 21 2 0.62720460D+00 0.94873601D-03 0.20914091D+05 0.20914091D+05 0.20914091D+05 0.12316950D+01  1  2  3  2  5  2        1 -.453236678152D-03 0.100000000000D+01
0.520373877796D-03 0.000000000000D+00 0.000000000000D+00 0.198647102438D-02 0.000000000000D+00  5 -2 1 25 -24 21 2 0.62720460D+00 0.94873601D-03 0.20914091D+05 0.20914091D+05 0.20914091D+05 0.12316950D+01  1  2 15  2  5  2        1 0.568674783237D-03 0.100000000000D+01
-.181081227234D-02 0.000000000000D+00 0.000000000000D+00 0.198647102438D-02 0.000000000000D+00  5 -2 1 25 -24 21 2 0.62720460D+00 0.94873601D-03 0.20914091D+05 0.20914091D+05 0.20914091D+05 0.12316950D+01  1  2  4  2  5  2        1 -.197889117881D-02 0.100000000000D+01
0.215094344602D-06 0.000000000000D+00 0.000000000000D+00 0.198647102438D-02 0.000000000000D+00  5 -2 1 25 -24 21 2 0.62720460D+00 0.10122900D-02 0.20914091D+05 0.20914091D+05 0.20914091D+05 0.12316950D+01  1  2  5  2  5  2        1 0.214611998627D-06 0.100000000000D+01
-.214642986281D-06 0.000000000000D+00 0.000000000000D+00 0.198647102438D-02 0.000000000000D+00  5 -2 1 25 -24 21 2 0.62720460D+00 0.94873601D-03 0.20914091D+05 0.20914091D+05 0.20914091D+05 0.12316950D+01  1  2  6  2  5  2        1 -.234566066640D-06 0.100000000000D+01
0.178102722228D-02 0.000000000000D+00 0.000000000000D+00 0.198647102438D-02 0.996795834169D-02  5 -2 1 25 -24 21 2 0.64217302D+00 0.94938099D-03 0.21098496D+05 0.21098496D+05 0.21098496D+05 0.12312777D+01  1  2 11  2  5  2        1 0.174189333721D-02 0.100000000000D+01
0.471486566152D-04 0.000000000000D+00 0.000000000000D+00 0.198647102438D-02 0.128424058398D-05  5 -2 21 25 -24 -1 2 0.64217302D+00 0.94938099D-03 0.21098496D+05 0.21098496D+05 0.21098496D+05 0.12312777D+01  1  2 11  4  5  2        1 0.105252859463D-02 0.100000000000D+01
  </mgrwgt>
  </event>
  <event>
  4     66 0.46019439E-03 0.11639524E+03 0.75467711E-02 0.11576137E+00
       -2 -1    0    0    0  501 0.00000000E+00 0.00000000E+00 0.10188355E+02 0.10193380E+02 0.32000000E+00 0.0000E+00 0.9000E+01
        1 -1    0    0  501    0 0.00000000E+00 0.00000000E+00 -.17901511E+04 0.17901511E+04 0.32000000E+00 0.0000E+00 0.9000E+01
       25  1    1    2    0    0 0.49667037E+02 -.20538290E+02 -.54986004E+03 0.56644479E+03 0.12500000E+03 0.0000E+00 0.9000E+01
      -24  1    1    2    0    0 -.49667037E+02 0.20538290E+02 -.12301027E+04 0.12338997E+04 0.80419002E+02 0.0000E+00 0.9000E+01
#aMCatNLO 1  0  0  1  1 0.11984141D+03 0.00000000D+00  -5  5  0 0.00000000D+00 0.00000000D+00 0.00000000D+00 0.00000000D+00 0.00000000D+00
  <mgrwgt>
 0.2681982873D+00    3    2    0
 0.135067552841888D+03 0.000000000000000D+00 0.000000000000000D+00 0.135067552841888D+03
 0.135067552841888D+03 0.000000000000000D+00 0.000000000000000D+00 -.135067552841888D+03
 0.152017930362146D+03 0.496670374144967D+02 -.205382903180653D+02 0.677924418860103D+02
 0.118117175321630D+03 -.496670374144967D+02 0.205382903180653D+02 -.677924418860103D+02
 0.000000000000000D+00 -.000000000000000D+00 -.000000000000000D+00 -.000000000000000D+00
 0.187201934881589D+03 0.000000000000000D+00 0.000000000000000D+00 0.187201934881589D+03
 0.238800345379065D+03 0.000000000000000D+00 0.000000000000000D+00 -.238800345379065D+03
 0.163936004335614D+03 0.689715046652252D+02 0.435560545145370D+02 0.677924418860103D+02
 0.131588848242799D+03 -.344102508236908D+02 0.711935986509921D+02 -.677924418860103D+02
 0.130477427682240D+03 -.345612538415344D+02 -.114749653165529D+03 -.515984104974753D+02
0.593684590266D-03 0.000000000000D+00 0.000000000000D+00 0.198058099740D-02 0.000000000000D+00  5 -2 1 25 -24 21 0 0.15678280D-02 0.27540825D+00 0.13547851D+05 0.13547851D+05 0.13547851D+05 0.12528955D+01  1  2  2  1  5  1       -2 0.262285912544D+00 0.100000000000D+01
-.320947616160D-04 0.000000000000D+00 -.227990514736D-05 0.198058099740D-02 0.000000000000D+00  5 -2 1 25 -24 21 2 0.15678280D-02 0.27540825D+00 0.13547851D+05 0.13547851D+05 0.13547851D+05 0.12528955D+01  1  2  3  1  5  1       -2 -.222578409646D-01 0.100000000000D+01
0.406201283873D-04 0.000000000000D+00 0.000000000000D+00 0.198058099740D-02 0.000000000000D+00  5 -2 1 25 -24 21 2 0.15678280D-02 0.27540825D+00 0.13547851D+05 0.13547851D+05 0.13547851D+05 0.12528955D+01  1  2 15  1  5  1       -2 0.281702157014D-01 0.100000000000D+01
  </mgrwgt>
  </event>
  <event>
  4     66 0.46019439E-03 0.10694150E+03 0.75467711E-02 0.10602002E+00
       -2 -1    0    0    0  501 0.00000000E+00 0.00000000E+00 0.11097341E+03 0.11097387E+03 0.32000000E+00 0.0000E+00 0.9000E+01
        1 -1    0    0  501    0 0.00000000E+00 0.00000000E+00 -.10460961E+03 0.10461010E+03 0.32000000E+00 0.0000E+00 0.9000E+01
       25  1    1    2    0    0 0.25397892E+02 -.14270321E+02 0.16687223E+02 0.12943013E+03 0.12500000E+03 0.0000E+00 0.9000E+01
      -24  1    1    2    0    0 -.25397892E+02 0.14270321E+02 -.10323422E+02 0.86153839E+02 0.80419002E+02 0.0000E+00 0.9000E+01
#aMCatNLO 1  0  0  1  1 0.32389254D+03 0.00000000D+00  -5  5  0 0.00000000D+00 0.00000000D+00 0.00000000D+00 0.00000000D+00 0.00000000D+00
  <mgrwgt>
 0.1705075798D+00    3    2    0
 0.107745010997494D+03 0.000000000000000D+00 0.000000000000000D+00 0.107745010997494D+03
 0.107745010997494D+03 0.000000000000000D+00 0.000000000000000D+00 -.107745010997494D+03
 0.128993753655848D+03 0.253978924017124D+02 -.142703213949114D+02 0.128721976003594D+02
 0.864962683391385D+02 -.253978924017124D+02 0.142703213949114D+02 -.128721976003594D+02
 0.000000000000000D+00 -.000000000000000D+00 0.000000000000000D+00 -.000000000000000D+00
 0.340444674083746D+03 0.000000000000000D+00 0.000000000000000D+00 0.340444674083746D+03
 0.374232884593475D+03 0.000000000000000D+00 0.000000000000000D+00 -.374232884593475D+03
 0.274131647321577D+03 0.238262642698519D+03 -.508761209851590D+02 0.128721976003594D+02
 0.114895762686915D+03 0.809443631152709D+02 -.401708076069093D+01 -.128721976003594D+02
 0.325650148668729D+03 -.319207005813790D+03 0.548932017458499D+02 -.337882105097297D+02
0.219731746342D-03 0.000000000000D+00 0.000000000000D+00 0.303958978742D-02 0.000000000000D+00  5 -2 1 25 -24 21 0 0.17072905D-01 0.16093859D-01 0.11436484D+05 0.11436484D+05 0.11436484D+05 0.12614796D+01  1  2  2  1  5  1       -2 0.166858643477D+00 0.100000000000D+01
-.122064875836D-04 0.000000000000D+00 -.843827762652D-06 0.303958978742D-02 0.000000000000D+00  5 -2 1 25 -24 21 2 0.17072905D-01 0.16093859D-01 0.11436484D+05 0.11436484D+05 0.11436484D+05 0.12614796D+01  1  2  3  1  5  1       -2 -.147505122661D-01 0.100000000000D+01
0.152260909248D-04 0.000000000000D+00 0.000000000000D+00 0.303958978742D-02 0.000000000000D+00  5 -2 1 25 -24 21 2 0.17072905D-01 0.16093859D-01 0.11436484D+05 0.11436484D+05 0.11436484D+05 0.12614796D+01  1  2 15  1  5  1       -2 0.183994486057D-01 0.100000000000D+01
  </mgrwgt>
  </event>
  <event>
  5     66 0.46019439E-03 0.11649727E+03 0.75467711E-02 0.11310417E+00
       21 -1    0    0  502  501 0.00000000E+00 0.00000000E+00 0.55629761E+02 0.55634817E+02 0.75000000E+00 0.0000E+00 0.9000E+01
        3 -1    0    0  501    0 0.00000000E+00 0.00000000E+00 -.11605343E+04 0.11605344E+04 0.50000000E+00 0.0000E+00 0.9000E+01
       25  1    1    2    0    0 0.29840575E+02 -.13404886E+02 -.46383583E+03 0.48149645E+03 0.12500000E+03 0.0000E+00 0.9000E+01
      -24  1    1    2    0    0 0.13283330E+03 0.80096733E-01 -.48341610E+03 0.50774308E+03 0.80419002E+02 0.0000E+00 0.9000E+01
        4  1    1    2  502    0 -.16267388E+03 0.13324789E+02 -.15765261E+03 0.22692970E+03 0.15500000E+01 0.0000E+00 0.9000E+01
#aMCatNLO 2  0  0  1  2 0.16321869D+03 0.00000000D+00  -5  5  0 0.00000000D+00 0.00000000D+00 0.00000000D+00 0.00000000D+00 0.00000000D+00
  <mgrwgt>
 0.5161437734D-02    1    2    0
 0.116906244408983D+03 0.000000000000000D+00 0.000000000000000D+00 0.116906244408983D+03
 0.116906244408983D+03 0.000000000000000D+00 0.000000000000000D+00 -.116906244408983D+03
 0.136489851965462D+03 -.535584549979457D+02 -.657358335980263D+01 -.963117799641237D+01
 0.973226368525040D+02 0.535584549979457D+02 0.657358335980263D+01 0.963117799641237D+01
 0.000000000000000D+00 -.000000000000000D+00 0.000000000000000D+00 0.000000000000000D+00
 0.377806576923059D+03 0.000000000000000D+00 0.000000000000000D+00 0.377806576923059D+03
 0.170886018959503D+03 0.000000000000000D+00 0.000000000000000D+00 -.170886018959503D+03
 0.129568169223259D+03 0.298405749693888D+02 -.134048861153243D+02 -.963117799641237D+01
 0.155578495542945D+03 0.132833302736740D+03 0.800967327554778D-01 0.963117799641237D+01
 0.263545931116358D+03 -.162673877706129D+03 0.133247893825689D+02 0.206920557963557D+03
0.314392443139D-04 0.000000000000D+00 0.000000000000D+00 0.282879807243D-02 0.304662844541D-06  5 21 3 25 -24 4 2 0.85587210D-02 0.17854203D+00 0.50110726D+05 0.50110726D+05 0.50110726D+05 0.11921866D+01  1  2  1  3  5  1       -4 0.516143773370D-02 0.100000000000D+01
  </mgrwgt>
  </event>
  <event>
  4     66 0.46019439E-03 0.39509000E+02 0.75467711E-02 0.12397291E+00
       -2 -1    0    0    0  501 0.00000000E+00 0.00000000E+00 0.36961170E+02 0.36962556E+02 0.32000000E+00 0.0000E+00 0.9000E+01
        1 -1    0    0  501    0 0.00000000E+00 0.00000000E+00 -.52626043E+03 0.52626053E+03 0.32000000E+00 0.0000E+00 0.9000E+01
       25  1    1    2    0    0 -.52382960E+02 0.17629164E+01 -.42890626E+03 0.44981403E+03 0.12500000E+03 0.0000E+00 0.9000E+01
      -24  1    1    2    0    0 0.52382960E+02 -.17629164E+01 -.60392995E+02 0.11340905E+03 0.80419002E+02 0.0000E+00 0.9000E+01
#aMCatNLO 1  0  0  1  2 0.12179210D+02 0.00000000D+00  -5  5  0 0.00000000D+00 0.00000000D+00 0.00000000D+00 0.00000000D+00 0.00000000D+00
  <mgrwgt>
 0.2800334558D+00    6    2    0
 0.139469060803107D+03 0.000000000000000D+00 0.000000000000000D+00 0.139469060803107D+03
 0.139469060803107D+03 0.000000000000000D+00 0.000000000000000D+00 -.139469060803107D+03
 0.155884500888701D+03 -.523829601710790D+02 0.176291641401932D+01 -.769928258135238D+02
 0.123053620717514D+03 0.523829601710790D+02 -.176291641401932D+01 0.769928258135238D+02
 0.000000000000000D+00 -.000000000000000D+00 0.000000000000000D+00 -.000000000000000D+00
 0.144984263477569D+03 0.000000000000000D+00 0.000000000000000D+00 0.144984263477569D+03
 0.146491773595599D+03 0.000000000000000D+00 0.000000000000000D+00 -.146491773595599D+03
 0.155294698597549D+03 -.504096702796185D+02 -.473427164958928D+01 -.769928258135238D+02
 0.123909185400415D+03 0.539490327417516D+02 -.691931439535547D+01 0.769928258135238D+02
 0.122721530752045D+02 -.353936246213310D+01 0.116535860449447D+02 -.150751011802989D+01
0.251435530281D-03 0.000000000000D+00 0.000000000000D+00 0.181888511908D-02 0.000000000000D+00  5 -2 1 25 -24 21 0 0.56864480D-02 0.80963257D-01 0.13402090D+05 0.13402090D+05 0.13402090D+05 0.12534382D+01  1  2  2  1  5  1       -2 0.142665299928D+00 0.100000000000D+01
-.133794252883D-04 0.000000000000D+00 -.965578640775D-06 0.181888511908D-02 0.000000000000D+00  5 -2 1 25 -24 21 2 0.56864480D-02 0.80963257D-01 0.13402090D+05 0.13402090D+05 0.13402090D+05 0.12534382D+01  1  2  3  1  5  1       -2 -.119271040419D-01 0.100000000000D+01
0.171935229483D-04 0.000000000000D+00 0.000000000000D+00 0.181888511908D-02 0.000000000000D+00  5 -2 1 25 -24 21 2 0.56864480D-02 0.80963257D-01 0.13402090D+05 0.13402090D+05 0.13402090D+05 0.12534382D+01  1  2 15  1  5  1       -2 0.153271857821D-01 0.100000000000D+01
0.392119933098D-03 0.000000000000D+00 0.000000000000D+00 0.181888511908D-02 0.000000000000D+00  5 -2 1 25 -24 21 2 0.60482567D-02 0.80963257D-01 0.14899818D+05 0.14899818D+05 0.14899818D+05 0.12481544D+01  1  2 12  1  5  1       -2 0.316777378919D+00 0.100000000000D+01
-.272517886221D-03 0.000000000000D+00 0.000000000000D+00 0.181888511908D-02 0.000000000000D+00  5 -2 1 25 -24 21 2 0.56864480D-02 0.80963257D-01 0.13402090D+05 0.13402090D+05 0.13402090D+05 0.12534382D+01  1  2  4  1  5  1       -2 -.242936382708D+00 0.100000000000D+01
0.429078372937D-05 0.000000000000D+00 0.000000000000D+00 0.181888511908D-02 0.000000000000D+00  5 21 1 25 -24 2 2 0.60482567D-02 0.80963257D-01 0.14899818D+05 0.14899818D+05 0.14899818D+05 0.12481544D+01  1  2 12  3  5  1       -2 0.601270779200D-01 0.100000000000D+01
  </mgrwgt>
  </event>
  <event>
  4     66 0.46019439E-03 0.10716075E+03 0.75467711E-02 0.12043121E+00
       -2 -1    0    0    0  501 0.00000000E+00 0.00000000E+00 0.84802584E+03 0.84802590E+03 0.32000000E+00 0.0000E+00 0.9000E+01
        1 -1    0    0  501    0 0.00000000E+00 0.00000000E+00 -.14462973E+02 0.14466513E+02 0.32000000E+00 0.0000E+00 0.9000E+01
       25  1    1    2    0    0 -.14770575E+02 -.25992191E+02 0.60148537E+03 0.61506375E+03 0.12500000E+03 0.0000E+00 0.9000E+01
      -24  1    1    2    0    0 0.14770575E+02 0.25992191E+02 0.23207750E+03 0.24742867E+03 0.80419002E+02 0.0000E+00 0.9000E+01
#aMCatNLO 1  0  0  2  2 0.68627616D+02 0.00000000D+00  -5  5  0 0.00000000D+00 0.00000000D+00 0.00000000D+00 0.00000000D+00 0.00000000D+00
  <mgrwgt>
 0.1678164777D+00    4    2    0
 0.110754356681945D+03 0.000000000000000D+00 0.000000000000000D+00 0.110754356681945D+03
 0.110754356681945D+03 0.000000000000000D+00 0.000000000000000D+00 -.110754356681945D+03
 0.131425742259868D+03 -.147705750990181D+02 -.259921912948096D+02 0.274583654192235D+02
 0.900829711040208D+02 0.147705750990181D+02 0.259921912948096D+02 -.274583654192235D+02
 0.000000000000000D+00 -.000000000000000D+00 -.000000000000000D+00 0.000000000000000D+00
 0.169178578451295D+03 0.000000000000000D+00 0.000000000000000D+00 0.169178578451295D+03
 0.138067728240721D+03 0.000000000000000D+00 0.000000000000000D+00 -.138067728240721D+03
 0.129023594999779D+03 0.162850264659796D+02 -.171001408583253D+01 0.274583654192235D+02
 0.102872631199656D+03 0.377783215111475D+02 0.439818017806746D+02 -.274583654192235D+02
 0.753500804925817D+02 -.540633479771271D+02 -.422717876948421D+02 0.311108502105743D+02
0.123799986068D-02 0.000000000000D+00 0.000000000000D+00 0.283664539308D-02 0.000000000000D+00  5 -2 1 25 -24 21 0 0.13046579D+00 0.22253497D-02 0.11483426D+05 0.11483426D+05 0.11483426D+05 0.12612699D+01  1  2  2  2  5  2        1 0.239520777236D+00 0.100000000000D+01
-.686867880982D-04 0.000000000000D+00 -.475424543787D-05 0.283664539308D-02 0.000000000000D+00  5 -2 1 25 -24 21 2 0.13046579D+00 0.22253497D-02 0.11483426D+05 0.11483426D+05 0.11483426D+05 0.12612699D+01  1  2  3  2  5  2        1 -.211403363345D-01 0.100000000000D+01
0.853505157462D-04 0.000000000000D+00 0.000000000000D+00 0.283664539308D-02 0.000000000000D+00  5 -2 1 25 -24 21 2 0.13046579D+00 0.22253497D-02 0.11483426D+05 0.11483426D+05 0.11483426D+05 0.12612699D+01  1  2 15  2  5  2        1 0.262690782195D-01 0.100000000000D+01
-.249637222008D-03 0.000000000000D+00 0.000000000000D+00 0.283664539308D-02 0.000000000000D+00  5 -2 1 25 -24 21 2 0.13046579D+00 0.22253497D-02 0.11483426D+05 0.11483426D+05 0.11483426D+05 0.12612699D+01  1  2  4  2  5  2        1 -.768330414186D-01 0.100000000000D+01
  </mgrwgt>
  </event>
  <event>
  4     66 0.46019439E-03 0.10705306E+03 0.75467711E-02 0.11490380E+00
       -4 -1    0    0    0  501 0.00000000E+00 0.00000000E+00 0.73187779E+02 0.73204190E+02 0.15500000E+01 0.0000E+00 0.9000E+01
        3 -1    0    0  501    0 0.00000000E+00 0.00000000E+00 -.17919378E+03 0.17919447E+03 0.50000000E+00 0.0000E+00 0.9000E+01
       25  1    1    2    0    0 -.11004256E+02 0.27395640E+02 -.18194436E+02 0.12972144E+03 0.12500000E+03 0.0000E+00 0.9000E+01
      -24  1    1    2    0    0 0.11004256E+02 -.27395640E+02 -.87811562E+02 0.12267722E+03 0.80419002E+02 0.0000E+00 0.9000E+01
#aMCatNLO 1  0  0  1  2 0.14350066D+03 0.00000000D+00  -5  5  0 0.00000000D+00 0.00000000D+00 0.00000000D+00 0.00000000D+00 0.00000000D+00
  <mgrwgt>
 0.4022958162D-01    5    2    0
 0.114529269190882D+03 0.000000000000000D+00 0.000000000000000D+00 0.114529269190882D+03
 0.114529269190882D+03 0.000000000000000D+00 0.000000000000000D+00 -.114529269190882D+03
 0.134519320883185D+03 -.110042556907789D+02 0.273956397648442D+02 0.399854094569521D+02
 0.945392174985799D+02 0.110042556907789D+02 -.273956397648442D+02 -.399854094569521D+02
 0.000000000000000D+00 -.000000000000000D+00 0.000000000000000D+00 0.000000000000000D+00
 0.253634392021365D+03 0.000000000000000D+00 0.000000000000000D+00 0.253634392021365D+03
 0.178597365437905D+03 0.000000000000000D+00 0.000000000000000D+00 -.178597365437905D+03
 0.141479116199801D+03 -.988859663003275D+01 -.519107215122773D+02 0.399854094569521D+02
 0.128817485994511D+03 0.119071228688112D+02 -.915757402324562D+02 -.399854094569521D+02
 0.161935155264959D+03 -.201852623877848D+01 0.143486461744733D+03 0.750370265834598D+02
0.242235332524D-03 0.000000000000D+00 0.000000000000D+00 0.259711286511D-02 0.000000000000D+00  5 -4 3 25 -24 21 0 0.11260974D-01 0.27569589D-01 0.11460358D+05 0.11460358D+05 0.11460358D+05 0.12613729D+01  1  2  2  1  5  1       -4 0.350043983871D-01 0.100000000000D+01
-.133829545624D-04 0.000000000000D+00 -.930247458921D-06 0.259711286511D-02 0.000000000000D+00  5 -4 3 25 -24 21 2 0.11260974D-01 0.27569589D-01 0.11460358D+05 0.11460358D+05 0.11460358D+05 0.12613729D+01  1  2  3  1  5  1       -4 -.307697592813D-02 0.100000000000D+01
0.166434288726D-04 0.000000000000D+00 0.000000000000D+00 0.259711286511D-02 0.000000000000D+00  5 -4 3 25 -24 21 2 0.11260974D-01 0.27569589D-01 0.11460358D+05 0.11460358D+05 0.11460358D+05 0.12613729D+01  1  2 15  1  5  1       -4 0.382661614547D-02 0.100000000000D+01
0.233952055193D-04 0.000000000000D+00 -.710721756578D-04 0.259711286511D-02 0.000000000000D+00  5 -4 3 25 -24 21 2 0.37878837D-01 0.27569589D-01 0.11460358D+05 0.11460358D+05 0.11460358D+05 0.12613729D+01  1  2  5  1  5  1       -4 0.603621022740D-03 0.100000000000D+01
0.594218789420D-05 0.000000000000D+00 -.100181188178D-04 0.259711286511D-02 0.000000000000D+00  5 21 3 25 -24 4 2 0.37878837D-01 0.27569589D-01 0.11460358D+05 0.11460358D+05 0.11460358D+05 0.12613729D+01  1  2  5  3  5  1       -4 0.387192198782D-02 0.100000000000D+01
  </mgrwgt>
  </event>
  <event>
  5     66 0.46019439E-03 0.13035664E+03 0.75467711E-02 0.11346461E+00
       -2 -1    0    0    0  502 0.00000000E+00 0.00000000E+00 0.14054223E+03 0.14054260E+03 0.32000000E+00 0.0000E+00 0.9000E+01
        1 -1    0    0  501    0 0.00000000E+00 0.00000000E+00 -.42417677E+03 0.42417689E+03 0.32000000E+00 0.0000E+00 0.9000E+01
       25  1    1    2    0    0 0.39171686E+01 -.16768028E+03 -.18054609E+02 0.20995950E+03 0.12500000E+03 0.0000E+00 0.9000E+01
      -24  1    1    2    0    0 -.17785008E+02 0.25926037E+02 -.61996139E+02 0.10629771E+03 0.80419002E+02 0.0000E+00 0.9000E+01
       21  1    1    2  501  502 0.13867840E+02 0.14175425E+03 -.20358378E+03 0.24846228E+03 0.75000000E+00 0.0000E+00 0.9000E+01
#aMCatNLO 2  0  0  1  2 0.14243098D+03 0.00000000D+00  -5  5  0 0.00000000D+00 0.00000000D+00 0.00000000D+00 0.00000000D+00 0.00000000D+00
  <mgrwgt>
 0.5481921522D-02    1    2    0
 0.135391945538522D+03 0.000000000000000D+00 0.000000000000000D+00 0.135391945538522D+03
 0.135391945538522D+03 0.000000000000000D+00 0.000000000000000D+00 -.135391945538522D+03
 0.152301710756099D+03 0.126841388397203D+02 -.780660909944969D+02 0.362713269397208D+02
 0.118482180320945D+03 -.126841388397203D+02 0.780660909944969D+02 -.362713269397208D+02
 0.000000000000000D+00 0.000000000000000D+00 0.000000000000000D+00 -.000000000000000D+00
 0.182044109985447D+03 0.000000000000000D+00 0.000000000000000D+00 0.182044109985447D+03
 0.327472726654259D+03 0.000000000000000D+00 0.000000000000000D+00 -.327472726654259D+03
 0.212303158182637D+03 0.391716859304853D+01 -.167680283893388D+03 0.362713269397208D+02
 0.936551708847339D+02 -.177850083142321D+02 0.259260371127704D+02 -.362713269397208D+02
 0.203558507572336D+03 0.138678397211835D+02 0.141754246780617D+03 -.145428616668812D+03
0.424660676696D-04 0.000000000000D+00 0.000000000000D+00 0.238825597124D-02 0.119223095699D-05  5 -2 1 25 -24 21 2 0.21621846D-01 0.65257779D-01 0.47952034D+05 0.47952034D+05 0.47952034D+05 0.11940847D+01  1  2  1  1  5  1       -2 0.548192152160D-02 0.100000000000D+01
  </mgrwgt>
  </event>
  <event>
  4     66 0.46019439E-03 0.81617721E+02 0.75467711E-02 0.12049156E+00
       -2 -1    0    0    0  501 0.00000000E+00 0.00000000E+00 0.21768909E+03 0.21768933E+03 0.32000000E+00 0.0000E+00 0.9000E+01
        1 -1    0    0  501    0 0.00000000E+00 0.00000000E+00 -.10503090E+03 0.10503139E+03 0.32000000E+00 0.0000E+00 0.9000E+01
       25  1    1    2    0    0 -.87428494E+02 -.12165833E+02 -.76448694E+01 0.15321616E+03 0.12500000E+03 0.0000E+00 0.9000E+01
      -24  1    1    2    0    0 0.87428494E+02 0.12165833E+02 0.12030306E+03 0.16950455E+03 0.80419002E+02 0.0000E+00 0.9000E+01
#aMCatNLO 1  0  0  2  1 0.20039552D+02 0.00000000D+00  -5  5  0 0.00000000D+00 0.00000000D+00 0.00000000D+00 0.00000000D+00 0.00000000D+00
  <mgrwgt>
 0.2130005503D+00    9    2    0
 0.151209118829992D+03 0.000000000000000D+00 0.000000000000000D+00 0.151209118829992D+03
 0.151209118829992D+03 0.000000000000000D+00 0.000000000000000D+00 -.151209118829992D+03
 0.166350044384763D+03 -.874284940562416D+02 -.121658328839607D+02 -.652348695416022D+02
 0.136068193275222D+03 0.874284940562416D+02 0.121658328839607D+02 0.652348695416022D+02
 0.000000000000000D+00 0.000000000000000D+00 0.000000000000000D+00 -.000000000000000D+00
 0.160089774736455D+03 0.000000000000000D+00 0.000000000000000D+00 0.160089774736455D+03
 0.163284259648791D+03 0.000000000000000D+00 0.000000000000000D+00 -.163284259648791D+03
 0.172031742591861D+03 -.968678165146012D+02 -.181922615080184D+02 -.652348695416022D+02
 0.131049721915249D+03 0.799771115264195D+02 0.740858201509624D+01 0.652348695416022D+02
 0.202925698781351D+02 0.168907049881817D+02 0.107836794929221D+02 -.319448491233560D+01
0.518155029171D-03 0.000000000000D+00 0.000000000000D+00 0.199096369242D-02 0.000000000000D+00  5 -2 1 25 -24 21 0 0.33490685D-01 0.16158655D-01 0.18555375D+05 0.18555375D+05 0.18555375D+05 0.12374268D+01  1  2  2  2  5  2        1 0.123743918490D+00 0.100000000000D+01
-.284048656652D-04 0.000000000000D+00 -.198985174537D-05 0.199096369242D-02 0.000000000000D+00  5 -2 1 25 -24 21 2 0.33490685D-01 0.16158655D-01 0.18555375D+05 0.18555375D+05 0.18555375D+05 0.12374268D+01  1  2  3  2  5  2        1 -.103871389960D-01 0.100000000000D+01
0.357247548349D-04 0.000000000000D+00 0.000000000000D+00 0.199096369242D-02 0.000000000000D+00  5 -2 1 25 -24 21 2 0.33490685D-01 0.16158655D-01 0.18555375D+05 0.18555375D+05 0.18555375D+05 0.12374268D+01  1  2 15  2  5  2        1 0.130638883648D-01 0.100000000000D+01
0.988897276734D-03 0.000000000000D+00 0.000000000000D+00 0.199096369242D-02 0.000000000000D+00  5 -2 1 25 -24 21 2 0.33490685D-01 0.17890888D-01 0.21444996D+05 0.21444996D+05 0.21444996D+05 0.12305046D+01  1  2 12  2  5  2        1 0.314813022725D+00 0.100000000000D+01
-.854799673022D-03 0.000000000000D+00 0.000000000000D+00 0.199096369242D-02 0.000000000000D+00  5 -2 1 25 -24 21 2 0.33490685D-01 0.16158655D-01 0.18555375D+05 0.18555375D+05 0.18555375D+05 0.12374268D+01  1  2  4  2  5  2        1 -.312584580475D+00 0.100000000000D+01
-.298436854214D-02 0.000000000000D+00 -.691503583325D-03 0.199096369242D-02 0.000000000000D+00  5 -2 1 25 -24 21 2 0.33490685D-01 0.18433330D-01 0.18555375D+05 0.18555375D+05 0.18555375D+05 0.12374268D+01  1  2  5  2  5  2        1 -.921625831744D+00 0.100000000000D+01
0.305486383466D-02 0.000000000000D+00 0.685549181395D-03 0.199096369242D-02 0.000000000000D+00  5 -2 1 25 -24 21 2 0.33490685D-01 0.16158655D-01 0.18555375D+05 0.18555375D+05 0.18555375D+05 0.12374268D+01  1  2  6  2  5  2        1 0.111710773916D+01 0.100000000000D+01
0.163160361124D-04 0.000000000000D+00 0.000000000000D+00 0.199096369242D-02 0.000000000000D+00  5 -2 21 25 -24 -1 2 0.33490685D-01 0.17890888D-01 0.21444996D+05 0.21444996D+05 0.21444996D+05 0.12305046D+01  1  2 12  4  5  2        1 0.469885029543D-01 0.100000000000D+01
-.574053287433D-04 0.000000000000D+00 -.141800852364D-04 0.199096369242D-02 0.000000000000D+00  5 -2 21 25 -24 -1 2 0.33490685D-01 0.18433330D-01 0.18555375D+05 0.18555375D+05 0.18555375D+05 0.12374268D+01  1  2  5  4  5  2        1 -.158118970163D+00 0.100000000000D+01
  </mgrwgt>
  </event>
  <event>
  4     66 0.46019439E-03 0.10278057E+03 0.75467711E-02 0.12500695E+00
       -2 -1    0    0    0  501 0.00000000E+00 0.00000000E+00 0.93273784E+03 0.93273789E+03 0.32000000E+00 0.0000E+00 0.9000E+01
        1 -1    0    0  501    0 0.00000000E+00 0.00000000E+00 -.11659632E+02 0.11664023E+02 0.32000000E+00 0.0000E+00 0.9000E+01
       25  1    1    2    0    0 0.20881891E+01 0.30912531E+01 0.47913994E+03 0.49519087E+03 0.12500000E+03 0.0000E+00 0.9000E+01
      -24  1    1    2    0    0 -.20881891E+01 -.30912531E+01 0.44193826E+03 0.44921104E+03 0.80419002E+02 0.0000E+00 0.9000E+01
#aMCatNLO 1  0  0  1  1 0.24695627D+02 0.00000000D+00  -5  5  0 0.00000000D+00 0.00000000D+00 0.00000000D+00 0.00000000D+00 0.00000000D+00
  <mgrwgt>
 0.1521918092D+00    4    2    0
 0.104295155210350D+03 0.000000000000000D+00 0.000000000000000D+00 0.104295155210350D+03
 0.104295155210350D+03 0.000000000000000D+00 0.000000000000000D+00 -.104295155210350D+03
 0.126246759834648D+03 0.208818910509590D+01 0.309125305783936D+01 -.173010979287748D+02
 0.823435505860528D+02 -.208818910509590D+01 -.309125305783936D+01 0.173010979287748D+02
 0.000000000000000D+00 0.000000000000000D+00 0.000000000000000D+00 -.000000000000000D+00
 0.110765522024479D+03 0.000000000000000D+00 0.000000000000000D+00 0.110765522024479D+03
 0.131576933995068D+03 0.000000000000000D+00 0.000000000000000D+00 -.131576933995068D+03
 0.126690295713905D+03 -.774766925246727D+01 -.812875511318141D+01 -.173010979287748D+02
 0.833568218959146D+02 -.853171075515020D+01 -.104415384051438D+02 0.173010979287748D+02
 0.322953384097263D+02 0.162793800076175D+02 0.185702935183252D+02 -.208114119705890D+02
0.966494406001D-03 0.000000000000D+00 0.000000000000D+00 0.311494069380D-02 0.000000000000D+00  5 -2 1 25 -24 21 0 0.14349847D+00 0.17941316D-02 0.10563845D+05 0.10563845D+05 0.10563845D+05 0.12655644D+01  1  2  2  1  5  1       -2 0.198381860676D+00 0.100000000000D+01
-.536801630749D-04 0.000000000000D+00 -.371159300287D-05 0.311494069380D-02 0.000000000000D+00  5 -2 1 25 -24 21 2 0.14349847D+00 0.17941316D-02 0.10563845D+05 0.10563845D+05 0.10563845D+05 0.12655644D+01  1  2  3  1  5  1       -2 -.176475703962D-01 0.100000000000D+01
0.660997392028D-04 0.000000000000D+00 0.000000000000D+00 0.311494069380D-02 0.000000000000D+00  5 -2 1 25 -24 21 2 0.14349847D+00 0.17941316D-02 0.10563845D+05 0.10563845D+05 0.10563845D+05 0.12655644D+01  1  2 15  1  5  1       -2 0.217305562043D-01 0.100000000000D+01
-.152919908027D-03 0.000000000000D+00 0.000000000000D+00 0.311494069380D-02 0.000000000000D+00  5 -2 1 25 -24 21 2 0.14349847D+00 0.17941316D-02 0.10563845D+05 0.10563845D+05 0.10563845D+05 0.12655644D+01  1  2  4  1  5  1       -2 -.502730373252D-01 0.100000000000D+01
  </mgrwgt>
  </event>
  <event>
  4     66 0.46019439E-03 0.14486580E+03 0.75467711E-02 0.11683684E+00
       -2 -1    0    0    0  501 0.00000000E+00 0.00000000E+00 0.22266451E+02 0.22268750E+02 0.32000000E+00 0.0000E+00 0.9000E+01
        1 -1    0    0  501    0 0.00000000E+00 0.00000000E+00 -.94950574E+03 0.94950580E+03 0.32000000E+00 0.0000E+00 0.9000E+01
       25  1    1    2    0    0 0.78783377E+02 0.63110499E+02 -.55546522E+03 0.57823556E+03 0.12500000E+03 0.0000E+00 0.9000E+01
      -24  1    1    2    0    0 -.78783377E+02 -.63110499E+02 -.37177407E+03 0.39353899E+03 0.80419002E+02 0.0000E+00 0.9000E+01
#aMCatNLO 1  0  0  1  2 0.62466805D+02 0.00000000D+00  -5  5  0 0.00000000D+00 0.00000000D+00 0.00000000D+00 0.00000000D+00 0.00000000D+00
  <mgrwgt>
 0.1838540030D+00    7    2    0
 0.145407243588280D+03 0.000000000000000D+00 0.000000000000000D+00 0.145407243588280D+03
 0.145407243588280D+03 0.000000000000000D+00 0.000000000000000D+00 -.145407243588280D+03
 0.161152305215952D+03 0.787833768397205D+02 0.631104993734249D+02 -.124623384235387D+02
 0.129662181960608D+03 -.787833768397205D+02 -.631104993734249D+02 0.124623384235387D+02
 0.000000000000000D+00 -.000000000000000D+00 0.000000000000000D+00 0.000000000000000D+00
 0.181506722773588D+03 0.000000000000000D+00 0.000000000000000D+00 0.181506722773588D+03
 0.178481070825695D+03 0.000000000000000D+00 0.000000000000000D+00 -.178481070825695D+03
 0.175155294500571D+03 0.111690530655289D+03 0.492371066832611D+02 -.124623384235387D+02
 0.122292461687686D+03 -.541300231240456D+02 -.735041559972700D+02 0.124623384235387D+02
 0.625400374110267D+02 -.575605075312431D+02 0.242670493140089D+02 0.302565194789288D+01
0.407196596398D-03 0.000000000000D+00 0.000000000000D+00 0.243215102527D-02 0.000000000000D+00  5 -2 1 25 -24 21 0 0.34257889D-02 0.14607799D+00 0.20986100D+05 0.20986100D+05 0.20986100D+05 0.12315316D+01  1  2  2  1  5  1       -2 0.211940735672D+00 0.100000000000D+01
-.226216503375D-04 0.000000000000D+00 -.156374214749D-05 0.243215102527D-02 0.000000000000D+00  5 -2 1 25 -24 21 2 0.34257889D-02 0.14607799D+00 0.20986100D+05 0.20986100D+05 0.20986100D+05 0.12315316D+01  1  2  3  1  5  1       -2 -.178577063277D-01 0.100000000000D+01
0.280488096124D-04 0.000000000000D+00 0.000000000000D+00 0.243215102527D-02 0.000000000000D+00  5 -2 1 25 -24 21 2 0.34257889D-02 0.14607799D+00 0.20986100D+05 0.20986100D+05 0.20986100D+05 0.12315316D+01  1  2 15  1  5  1       -2 0.221419479759D-01 0.100000000000D+01
-.138978293114D-03 0.000000000000D+00 0.000000000000D+00 0.243215102527D-02 0.000000000000D+00  5 -2 1 25 -24 21 2 0.34257889D-02 0.14607799D+00 0.20986100D+05 0.20986100D+05 0.20986100D+05 0.12315316D+01  1  2  4  1  5  1       -2 -.109710543101D+00 0.100000000000D+01
-.272611576947D-03 0.000000000000D+00 -.143526284457D-03 0.243215102527D-02 0.000000000000D+00  5 -2 1 25 -24 21 2 0.52959234D-02 0.14607799D+00 0.20986100D+05 0.20986100D+05 0.20986100D+05 0.12315316D+01  1  2  5  1  5  1       -2 -.112305670929D+00 0.100000000000D+01
0.317178623260D-03 0.000000000000D+00 0.130908548418D-03 0.243215102527D-02 0.000000000000D+00  5 -2 1 25 -24 21 2 0.34257889D-02 0.14607799D+00 0.20986100D+05 0.20986100D+05 0.20986100D+05 0.12315316D+01  1  2  6  1  5  1       -2 0.250383266611D+00 0.100000000000D+01
-.834145568687D-05 0.000000000000D+00 -.727772977591D-05 0.243215102527D-02 0.000000000000D+00  5 21 1 25 -24 2 2 0.52959234D-02 0.14607799D+00 0.20986100D+05 0.20986100D+05 0.20986100D+05 0.12315316D+01  1  2  5  3  5  1       -2 -.607380269161D-01 0.100000000000D+01
  </mgrwgt>
  </event>
  <event>
  4     66 0.46019439E-03 0.56336615E+02 0.75467711E-02 0.12092795E+00
       -2 -1    0    0    0  501 0.00000000E+00 0.00000000E+00 0.47443732E+02 0.47444811E+02 0.32000000E+00 0.0000E+00 0.9000E+01
        1 -1    0    0  501    0 0.00000000E+00 0.00000000E+00 -.41701760E+03 0.41701772E+03 0.32000000E+00 0.0000E+00 0.9000E+01
       25  1    1    2    0    0 0.58078690E+02 -.72677286E+02 -.17533299E+03 0.23456722E+03 0.12500000E+03 0.0000E+00 0.9000E+01
      -24  1    1    2    0    0 -.58078690E+02 0.72677286E+02 -.19424087E+03 0.22989531E+03 0.80419002E+02 0.0000E+00 0.9000E+01
#aMCatNLO 1  0  0  1  2 0.72192807D+01 0.00000000D+00  -5  5  0 0.00000000D+00 0.00000000D+00 0.00000000D+00 0.00000000D+00 0.00000000D+00
  <mgrwgt>
 0.1674813651D+00   11    2    0
 0.140659697010095D+03 0.000000000000000D+00 0.000000000000000D+00 0.140659697010095D+03
 0.140659697010095D+03 0.000000000000000D+00 0.000000000000000D+00 -.140659697010095D+03
 0.156936186012080D+03 0.580786898209666D+02 -.726772858478999D+02 0.186773764346286D+02
 0.124383208008110D+03 -.580786898209666D+02 0.726772858478999D+02 -.186773764346286D+02
 0.000000000000000D+00 -.000000000000000D+00 -.000000000000000D+00 0.000000000000000D+00
 0.177455862503444D+03 0.000000000000000D+00 0.000000000000000D+00 0.177455862503444D+03
 0.141060550765996D+03 0.000000000000000D+00 0.000000000000000D+00 -.141060550765996D+03
 0.157300193583197D+03 0.615301541002684D+02 -.705942394762328D+02 0.186773764346286D+02
 0.124111816581884D+03 -.553493059664898D+02 0.743245383398494D+02 -.186773764346286D+02
 0.371044031043586D+02 -.618084813377859D+01 -.373029886361653D+01 0.363953117374478D+02
0.338631324975D-03 0.000000000000D+00 0.000000000000D+00 0.245443220685D-02 0.000000000000D+00  5 -2 1 25 -24 21 0 0.72991281D-02 0.64156646D-01 0.19431484D+05 0.19431484D+05 0.19431484D+05 0.12352072D+01  1  2  2  1  5  1       -2 0.179274702112D+00 0.100000000000D+01
-.188109909884D-04 0.000000000000D+00 -.130043345158D-05 0.245443220685D-02 0.000000000000D+00  5 -2 1 25 -24 21 2 0.72991281D-02 0.64156646D-01 0.19431484D+05 0.19431484D+05 0.19431484D+05 0.12352072D+01  1  2  3  1  5  1       -2 -.151943874439D-01 0.100000000000D+01
0.233580415405D-04 0.000000000000D+00 0.000000000000D+00 0.245443220685D-02 0.000000000000D+00  5 -2 1 25 -24 21 2 0.72991281D-02 0.64156646D-01 0.19431484D+05 0.19431484D+05 0.19431484D+05 0.12352072D+01  1  2 15  1  5  1       -2 0.188672214726D-01 0.100000000000D+01
0.766912804024D-02 0.000000000000D+00 0.000000000000D+00 0.245443220685D-02 0.000000000000D+00  5 -2 1 25 -24 21 2 0.92171190D-02 0.64156646D-01 0.20464031D+05 0.20464031D+05 0.20464031D+05 0.12327309D+01  1  2 12  1  5  1       -2 0.430454363502D+01 0.100000000000D+01
-.773010182791D-02 0.000000000000D+00 0.000000000000D+00 0.245443220685D-02 0.000000000000D+00  5 -2 1 25 -24 21 2 0.72991281D-02 0.64156646D-01 0.19431484D+05 0.19431484D+05 0.19431484D+05 0.12352072D+01  1  2  4  1  5  1       -2 -.624391145721D+01 0.100000000000D+01
-.826550188853D-02 0.000000000000D+00 -.188460764394D-03 0.245443220685D-02 0.000000000000D+00  5 -2 1 25 -24 21 2 0.92252884D-02 0.64156646D-01 0.19431484D+05 0.19431484D+05 0.19431484D+05 0.12352072D+01  1  2  5  1  5  1       -2 -.464581278052D+01 0.100000000000D+01
0.809177165575D-02 0.000000000000D+00 0.183408078028D-03 0.245443220685D-02 0.000000000000D+00  5 -2 1 25 -24 21 2 0.72991281D-02 0.64156646D-01 0.19431484D+05 0.19431484D+05 0.19431484D+05 0.12352072D+01  1  2  6  1  5  1       -2 0.653604659747D+01 0.100000000000D+01
0.226282112403D-03 0.000000000000D+00 0.000000000000D+00 0.245443220685D-02 0.392086014778D-03  5 -2 1 25 -24 21 2 0.92085587D-02 0.64339481D-01 0.20464031D+05 0.20464031D+05 0.20464031D+05 0.12327309D+01  1  2 11  1  5  1       -2 0.126734016610D+00 0.100000000000D+01
0.246579768420D-03 0.000000000000D+00 0.000000000000D+00 0.245443220685D-02 0.000000000000D+00  5 21 1 25 -24 2 2 0.92171190D-02 0.64156646D-01 0.20464031D+05 0.20464031D+05 0.20464031D+05 0.12327309D+01  1  2 12  3  5  1       -2 0.221246796489D+01 0.100000000000D+01
-.263671303422D-03 0.000000000000D+00 -.607658848891D-05 0.245443220685D-02 0.000000000000D+00  5 21 1 25 -24 2 2 0.92252884D-02 0.64156646D-01 0.19431484D+05 0.19431484D+05 0.19431484D+05 0.12352072D+01  1  2  5  3  5  1       -2 -.237079150641D+01 0.100000000000D+01
0.728743711254D-05 0.000000000000D+00 0.000000000000D+00 0.245443220685D-02 0.126103068970D-04  5 21 1 25 -24 2 2 0.92085587D-02 0.64339481D-01 0.20464031D+05 0.20464031D+05 0.20464031D+05 0.12327309D+01  1  2 11  3  5  1       -2 0.652573590631D-01 0.100000000000D+01
  </mgrwgt>
  </event>
  <event>
  5     66 0.46019439E-03 0.11328159E+03 0.75467711E-02 0.12392538E+00
       -2 -1    0    0    0  501 0.00000000E+00 0.00000000E+00 0.48612809E+02 0.48613862E+02 0.32000000E+00 0.0000E+00 0.9000E+01
        1 -1    0    0  502    0 0.00000000E+00 0.00000000E+00 -.32698906E+03 0.32698922E+03 0.32000000E+00 0.0000E+00 0.9000E+01
       25  1    1    2    0    0 0.42524233E+02 0.20743649E+02 -.11426220E+03 0.17583930E+03 0.12500000E+03 0.0000E+00 0.9000E+01
      -24  1    1    2    0    0 -.47694873E+02 -.40470427E+01 -.15194201E+03 0.17845103E+03 0.80419002E+02 0.0000E+00 0.9000E+01
       21  1    1    2  502  501 0.51706407E+01 -.16696607E+02 -.12172040E+02 0.21312748E+02 0.75000000E+00 0.0000E+00 0.9000E+01
#aMCatNLO 2  0  0  2  2 0.17478907D+02 0.00000000D+00  -5  5  0 0.00000000D+00 0.00000000D+00 0.00000000D+00 0.00000000D+00 0.00000000D+00
  <mgrwgt>
 0.1971340441D+00    1    2    0
 0.116566980738923D+03 0.000000000000000D+00 0.000000000000000D+00 0.116566980738923D+03
 0.116566980738923D+03 0.000000000000000D+00 0.000000000000000D+00 -.116566980738923D+03
 0.136207585624582D+03 0.455426947246072D+02 0.109966807781755D+02 0.270636721595933D+02
 0.969263758532647D+02 -.455426947246072D+02 -.109966807781755D+02 -.270636721595933D+02
 0.000000000000000D+00 0.000000000000000D+00 -.000000000000000D+00 0.000000000000000D+00
 0.129016393410848D+03 0.000000000000000D+00 0.000000000000000D+00 0.129016393410848D+03
 0.123194781844865D+03 0.000000000000000D+00 0.000000000000000D+00 -.123194781844865D+03
 0.136367341062153D+03 0.425242327421255D+02 0.207436493243866D+02 0.270636721595933D+02
 0.974209310820760D+02 -.476948734466664D+02 -.404704270703810D+01 -.270636721595933D+02
 0.184229031114842D+02 0.517064070454091D+01 -.166966066173485D+02 0.582161156598348D+01
0.184579386939D-03 0.000000000000D+00 0.000000000000D+00 0.272086170157D-02 0.744807626980D-04  5 -2 1 25 -24 21 2 0.74785310D-02 0.50303036D-01 0.14971972D+05 0.14971972D+05 0.14971972D+05 0.12479151D+01  1  2  1  2  5  2        1 0.197134044105D+00 0.100000000000D+01
  </mgrwgt>
  </event>
  <event>
  5     66 0.46019439E-03 0.11714999E+03 0.75467711E-02 0.12233217E+00
       -2 -1    0    0    0  501 0.00000000E+00 0.00000000E+00 0.17545983E+02 0.17548901E+02 0.32000000E+00 0.0000E+00 0.9000E+01
        1 -1    0    0  502    0 0.00000000E+00 0.00000000E+00 -.11960195E+04 0.11960195E+04 0.32000000E+00 0.0000E+00 0.9000E+01
       25  1    1    2    0    0 -.37177959E+02 -.16062898E+02 -.82602103E+03 0.83640658E+03 0.12500000E+03 0.0000E+00 0.9000E+01
      -24  1    1    2    0    0 0.54879688E+02 0.39343066E+02 -.27702070E+03 0.29625554E+03 0.80419002E+02 0.0000E+00 0.9000E+01
       21  1    1    2  502  501 -.17701729E+02 -.23280168E+02 -.75431740E+02 0.80906287E+02 0.75000000E+00 0.0000E+00 0.9000E+01
#aMCatNLO 2  0  0  2  2 0.29245811D+02 0.00000000D+00  -5  5  0 0.00000000D+00 0.00000000D+00 0.00000000D+00 0.00000000D+00 0.00000000D+00
  <mgrwgt>
 0.9578858319D-01    1    2    0
 0.127834930226683D+03 0.000000000000000D+00 0.000000000000000D+00 0.127834930226683D+03
 0.127834930226683D+03 0.000000000000000D+00 0.000000000000000D+00 -.127834930226683D+03
 0.145744323280269D+03 -.470650456213152D+02 -.290657544132361D+02 -.505615582184373D+02
 0.109925537173097D+03 0.470650456213152D+02 0.290657544132361D+02 0.505615582184373D+02
 0.000000000000000D+00 -.000000000000000D+00 -.000000000000000D+00 0.000000000000000D+00
 0.152444943076342D+03 0.000000000000000D+00 0.000000000000000D+00 0.152444943076342D+03
 0.137661913268979D+03 0.000000000000000D+00 0.000000000000000D+00 -.137661913268979D+03
 0.140789518505858D+03 -.371779592584214D+02 -.160628981511447D+02 -.505615582184373D+02
 0.116547604707106D+03 0.548796880338397D+02 0.393430664847734D+02 0.505615582184373D+02
 0.327697331323576D+02 -.177017287754184D+02 -.232801683336287D+02 0.147830298073627D+02
0.126848436540D-03 0.000000000000D+00 0.000000000000D+00 0.228641606033D-02 0.224008449570D-04  5 -2 1 25 -24 21 2 0.26995280D-02 0.18399765D+00 0.17642733D+05 0.17642733D+05 0.17642733D+05 0.12398675D+01  1  2  1  2  5  2        1 0.957885831856D-01 0.100000000000D+01
  </mgrwgt>
  </event>
  <event>
  4     66 0.46019439E-03 0.67633965E+02 0.75467711E-02 0.12251448E+00
       -4 -1    0    0    0  501 0.00000000E+00 0.00000000E+00 0.59545004E+01 0.61529323E+01 0.15500000E+01 0.0000E+00 0.9000E+01
        3 -1    0    0  501    0 0.00000000E+00 0.00000000E+00 -.20749015E+04 0.20749015E+04 0.50000000E+00 0.0000E+00 0.9000E+01
       25  1    1    2    0    0 -.14472080E+02 0.35503969E+02 -.10233094E+04 0.10316283E+04 0.12500000E+03 0.0000E+00 0.9000E+01
      -24  1    1    2    0    0 0.14472080E+02 -.35503969E+02 -.10456376E+04 0.10494261E+04 0.80419002E+02 0.0000E+00 0.9000E+01
#aMCatNLO 1  0  0  2  1 0.39802458D+02 0.00000000D+00  -5  5  0 0.00000000D+00 0.00000000D+00 0.00000000D+00 0.00000000D+00 0.00000000D+00
  <mgrwgt>
 0.1569962854D-01    9    2    0
 0.112078223497203D+03 0.000000000000000D+00 0.000000000000000D+00 0.112078223497203D+03
 0.112078223497203D+03 0.000000000000000D+00 0.000000000000000D+00 -.112078223497203D+03
 0.132505438882755D+03 -.144720799264554D+02 0.355039685503682D+02 0.215108915038004D+02
 0.916510081116517D+02 0.144720799264554D+02 -.355039685503682D+02 -.215108915038004D+02
 0.000000000000000D+00 0.000000000000000D+00 -.000000000000000D+00 -.000000000000000D+00
 0.129459123329491D+03 0.000000000000000D+00 0.000000000000000D+00 0.129459123329491D+03
 0.139174747672833D+03 0.000000000000000D+00 0.000000000000000D+00 -.139174747672833D+03
 0.139107676467499D+03 -.370226986179699D+02 0.435034134975771D+02 0.215108915038004D+02
 0.885551189314666D+02 -.489493823706249D+00 -.301966070462221D+02 -.215108915038004D+02
 0.409710756033583D+02 0.375121924416762D+02 -.133068064513550D+02 -.971562434334154D+01
0.349833660703D-03 0.000000000000D+00 0.000000000000D+00 0.286498962390D-02 0.000000000000D+00  5 -4 3 25 -24 21 0 0.93134561D-03 0.31923088D+00 0.12082258D+05 0.12082258D+05 0.12082258D+05 0.12586765D+01  1  2  2  2  5  2        3 0.808873796348D-02 0.100000000000D+01
-.194262635971D-04 0.000000000000D+00 -.134345337042D-05 0.286498962390D-02 0.000000000000D+00  5 -4 3 25 -24 21 2 0.93134561D-03 0.31923088D+00 0.12082258D+05 0.12082258D+05 0.12082258D+05 0.12586765D+01  1  2  3  2  5  2        3 -.711601291105D-03 0.100000000000D+01
0.242256666289D-04 0.000000000000D+00 0.000000000000D+00 0.286498962390D-02 0.000000000000D+00  5 -4 3 25 -24 21 2 0.93134561D-03 0.31923088D+00 0.12082258D+05 0.12082258D+05 0.12082258D+05 0.12586765D+01  1  2 15  2  5  2        3 0.887407687271D-03 0.100000000000D+01
0.210432803036D-03 0.000000000000D+00 0.000000000000D+00 0.286498962390D-02 0.000000000000D+00  5 -4 3 25 -24 21 2 0.93134561D-03 0.41622028D+00 0.17310626D+05 0.17310626D+05 0.17310626D+05 0.12407910D+01  1  2 12  2  5  2        3 0.246396033924D-02 0.100000000000D+01
-.223645178499D-03 0.000000000000D+00 0.000000000000D+00 0.286498962390D-02 0.000000000000D+00  5 -4 3 25 -24 21 2 0.93134561D-03 0.31923088D+00 0.12082258D+05 0.12082258D+05 0.12082258D+05 0.12586765D+01  1  2  4  2  5  2        3 -.819232154315D-02 0.100000000000D+01
-.526260111884D-03 0.000000000000D+00 -.171322390895D-03 0.286498962390D-02 0.000000000000D+00  5 -4 3 25 -24 21 2 0.93134561D-03 0.41969405D+00 0.12082258D+05 0.12082258D+05 0.12082258D+05 0.12586765D+01  1  2  5  2  5  2        3 -.600506891188D-02 0.100000000000D+01
0.558324915654D-03 0.000000000000D+00 0.165103645751D-03 0.286498962390D-02 0.000000000000D+00  5 -4 3 25 -24 21 2 0.93134561D-03 0.31923088D+00 0.12082258D+05 0.12082258D+05 0.12082258D+05 0.12586765D+01  1  2  6  2  5  2        3 0.204519375972D-01 0.100000000000D+01
0.743934594669D-05 0.000000000000D+00 0.000000000000D+00 0.286498962390D-02 0.000000000000D+00  5 -4 21 25 -24 -3 2 0.93134561D-03 0.41622028D+00 0.17310626D+05 0.17310626D+05 0.17310626D+05 0.12407910D+01  1  2 12  4  5  2        3 0.114870287402D-02 0.100000000000D+01
-.157056909093D-04 0.000000000000D+00 -.619465321703D-05 0.286498962390D-02 0.000000000000D+00  5 -4 21 25 -24 -3 2 0.93134561D-03 0.41969405D+00 0.12082258D+05 0.12082258D+05 0.12082258D+05 0.12586765D+01  1  2  5  4  5  2        3 -.243212617357D-02 0.100000000000D+01
  </mgrwgt>
  </event>
  <event>
  4     66 0.46019439E-03 0.11421147E+03 0.75467711E-02 0.12099402E+00
       -2 -1    0    0    0  501 0.00000000E+00 0.00000000E+00 0.46127942E+02 0.46129052E+02 0.32000000E+00 0.0000E+00 0.9000E+01
        1 -1    0    0  501    0 0.00000000E+00 0.00000000E+00 -.35110511E+03 0.35110526E+03 0.32000000E+00 0.0000E+00 0.9000E+01
       25  1    1    2    0    0 0.69999289E+01 0.48486937E+02 -.26056743E+03 0.29312176E+03 0.12500000E+03 0.0000E+00 0.9000E+01
      -24  1    1    2    0    0 -.69999289E+01 -.48486937E+02 -.44409746E+02 0.10411255E+03 0.80419002E+02 0.0000E+00 0.9000E+01
#aMCatNLO 1  0  0  1  1 0.50652882D+02 0.00000000D+00  -5  5  0 0.00000000D+00 0.00000000D+00 0.00000000D+00 0.00000000D+00 0.00000000D+00
  <mgrwgt>
 0.1766503749D+00    4    2    0
 0.127263528592229D+03 0.000000000000000D+00 0.000000000000000D+00 0.127263528592229D+03
 0.127263528592229D+03 0.000000000000000D+00 0.000000000000000D+00 -.127263528592229D+03
 0.145253333186938D+03 0.699992891102123D+01 0.484869372279431D+02 -.554395951952202D+02
 0.109273723997520D+03 -.699992891102123D+01 -.484869372279431D+02 0.554395951952202D+02
 0.000000000000000D+00 0.000000000000000D+00 0.000000000000000D+00 -.000000000000000D+00
 0.144097156477375D+03 0.000000000000000D+00 0.000000000000000D+00 0.144097156477375D+03
 0.174495356066756D+03 0.000000000000000D+00 0.000000000000000D+00 -.174495356066756D+03
 0.139828390730673D+03 -.111147840063395D+02 0.270165082016939D+02 -.554395951952202D+02
 0.119689888637211D+03 -.215487749555983D+02 -.657309293264626D+02 0.554395951952202D+02
 0.590742331762480D+02 0.326635589619378D+02 0.387144211247687D+02 -.303981995893803D+02
0.334288101053D-03 0.000000000000D+00 0.000000000000D+00 0.221618085890D-02 0.000000000000D+00  5 -2 1 25 -24 21 0 0.70967030D-02 0.54016268D-01 0.13044261D+05 0.13044261D+05 0.13044261D+05 0.12547991D+01  1  2  2  1  5  1       -2 0.226325259135D+00 0.100000000000D+01
-.183071680247D-04 0.000000000000D+00 -.128375432812D-05 0.221618085890D-02 0.000000000000D+00  5 -2 1 25 -24 21 2 0.70967030D-02 0.54016268D-01 0.13044261D+05 0.13044261D+05 0.13044261D+05 0.12547991D+01  1  2  3  1  5  1       -2 -.195155888047D-01 0.100000000000D+01
0.230453633402D-04 0.000000000000D+00 0.000000000000D+00 0.221618085890D-02 0.000000000000D+00  5 -2 1 25 -24 21 2 0.70967030D-02 0.54016268D-01 0.13044261D+05 0.13044261D+05 0.13044261D+05 0.12547991D+01  1  2 15  1  5  1       -2 0.245665432357D-01 0.100000000000D+01
-.513371711836D-04 0.000000000000D+00 0.000000000000D+00 0.221618085890D-02 0.000000000000D+00  5 -2 1 25 -24 21 2 0.70967030D-02 0.54016268D-01 0.13044261D+05 0.13044261D+05 0.13044261D+05 0.12547991D+01  1  2  4  1  5  1       -2 -.547258386365D-01 0.100000000000D+01
  </mgrwgt>
  </event>
  <event>
  5     66 0.46019439E-03 0.11759580E+03 0.75467711E-02 0.12381459E+00
       -2 -1    0    0    0  501 0.00000000E+00 0.00000000E+00 0.72729731E+01 0.72800095E+01 0.32000000E+00 0.0000E+00 0.9000E+01
        1 -1    0    0  502    0 0.00000000E+00 0.00000000E+00 -.23161713E+04 0.23161713E+04 0.32000000E+00 0.0000E+00 0.9000E+01
       25  1    1    2    0    0 0.59728341E+02 0.13599122E+02 -.10130274E+04 0.10225467E+04 0.12500000E+03 0.0000E+00 0.9000E+01
      -24  1    1    2    0    0 -.52512638E+02 -.57189705E+01 -.94829658E+03 0.95316520E+03 0.80419002E+02 0.0000E+00 0.9000E+01
       21  1    1    2  502  501 -.72157028E+01 -.78801512E+01 -.34757435E+03 0.34773935E+03 0.75000000E+00 0.0000E+00 0.9000E+01
#aMCatNLO 2  0  0  2  1 0.10684716D+02 0.00000000D+00  -5  5  0 0.00000000D+00 0.00000000D+00 0.00000000D+00 0.00000000D+00 0.00000000D+00
  <mgrwgt>
 0.1874097545D-01    2    2    0
 0.118882225057047D+03 0.000000000000000D+00 0.000000000000000D+00 0.118882225057047D+03
 0.118882225057047D+03 0.000000000000000D+00 0.000000000000000D+00 -.118882225057047D+03
 0.138140327017275D+03 0.555059769128351D+02 0.898794677581477D+01 0.172061991196964D+02
 0.996241230968195D+02 -.555059769128351D+02 -.898794677581477D+01 -.172061991196964D+02
 0.000000000000000D+00 -.000000000000000D+00 -.000000000000000D+00 -.000000000000000D+00
 0.120360669777305D+03 0.000000000000000D+00 0.000000000000000D+00 0.120360669777305D+03
 0.140011755042647D+03 0.000000000000000D+00 0.000000000000000D+00 -.140011755042647D+03
 0.140262126492447D+03 0.597283410790305D+02 0.135991217357442D+02 0.172061991196964D+02
 0.977422786942351D+02 -.525126382693436D+02 -.571897052076712D+01 -.172061991196964D+02
 0.223680196332703D+02 -.721570280968687D+01 -.788015121497712D+01 -.196510852653419D+02
-.186426316343D-02 0.000000000000D+00 0.000000000000D+00 0.275427987566D-02 0.000000000000D+00  5 -2 1 25 -24 21 2 0.11056539D-02 0.35798122D+00 0.15141719D+05 0.15141719D+05 0.15141719D+05 0.12473572D+01  1  2 13  2  5  2        1 -.965538638408D+00 0.100000000000D+01
0.190363234736D-02 0.000000000000D+00 0.000000000000D+00 0.275427987566D-02 0.202731300519D-03  5 -2 1 25 -24 21 2 0.11194040D-02 0.35631616D+00 0.15141719D+05 0.15141719D+05 0.15141719D+05 0.12473572D+01  1  2  1  2  5  2        1 0.984279613853D+00 0.100000000000D+01
  </mgrwgt>
  </event>
  <event>
  4     66 0.46019439E-03 0.13021523E+03 0.75467711E-02 0.11077029E+00
       -2 -1    0    0    0  501 0.00000000E+00 0.00000000E+00 0.89184153E+02 0.89184727E+02 0.32000000E+00 0.0000E+00 0.9000E+01
        1 -1    0    0  501    0 0.00000000E+00 0.00000000E+00 -.42866165E+03 0.42866177E+03 0.32000000E+00 0.0000E+00 0.9000E+01
       25  1    1    2    0    0 0.13870837E+03 0.67530226E+02 -.25847812E+03 0.32593907E+03 0.12500000E+03 0.0000E+00 0.9000E+01
      -24  1    1    2    0    0 -.13870837E+03 -.67530226E+02 -.80999379E+02 0.19190742E+03 0.80419002E+02 0.0000E+00 0.9000E+01
#aMCatNLO 1  0  0  1  2 0.12617888D+03 0.00000000D+00  -5  5  0 0.00000000D+00 0.00000000D+00 0.00000000D+00 0.00000000D+00 0.00000000D+00
  <mgrwgt>
 0.1315495704D+00    7    2    0
 0.195524949280013D+03 0.000000000000000D+00 0.000000000000000D+00 0.195524949280013D+03
 0.195524949280013D+03 0.000000000000000D+00 0.000000000000000D+00 -.195524949280013D+03
 0.207234176260190D+03 0.138708369150773D+03 0.675302263629095D+02 -.593351553899270D+02
 0.183815722299835D+03 -.138708369150773D+03 -.675302263629095D+02 0.593351553899270D+02
 0.000000000000000D+00 -.000000000000000D+00 -.000000000000000D+00 0.000000000000000D+00
 0.486565297303708D+03 0.000000000000000D+00 0.000000000000000D+00 0.486565297303708D+03
 0.219610362147890D+03 0.000000000000000D+00 0.000000000000000D+00 -.219610362147890D+03
 0.258734902704954D+03 0.174755768574565D+03 0.131371650528218D+03 -.593351553899270D+02
 0.152167922954839D+03 -.112716651659014D+03 -.214978276961416D+02 0.593351553899270D+02
 0.295272833791805D+03 -.620391169155510D+02 -.109873822832076D+03 0.266954935155818D+03
0.107578758841D-02 0.000000000000D+00 0.000000000000D+00 0.198704099762D-02 0.000000000000D+00  5 -2 1 25 -24 21 0 0.13720692D-01 0.65947999D-01 0.34695377D+05 0.34695377D+05 0.34695377D+05 0.12083259D+01  1  2  2  1  5  1       -2 0.205378765763D+00 0.100000000000D+01
-.595949966648D-04 0.000000000000D+00 -.413130760089D-05 0.198704099762D-02 0.000000000000D+00  5 -2 1 25 -24 21 2 0.13720692D-01 0.65947999D-01 0.34695377D+05 0.34695377D+05 0.34695377D+05 0.12083259D+01  1  2  3  1  5  1       -2 -.166114279046D-01 0.100000000000D+01
0.740209846661D-04 0.000000000000D+00 0.000000000000D+00 0.198704099762D-02 0.000000000000D+00  5 -2 1 25 -24 21 2 0.13720692D-01 0.65947999D-01 0.34695377D+05 0.34695377D+05 0.34695377D+05 0.12083259D+01  1  2 15  1  5  1       -2 0.206325080799D-01 0.100000000000D+01
0.326097476959D-03 0.000000000000D+00 0.000000000000D+00 0.198704099762D-02 0.000000000000D+00  5 -2 1 25 -24 21 2 0.33686870D-01 0.65947999D-01 0.67117563D+05 0.67117563D+05 0.67117563D+05 0.11798222D+01  1  2 12  1  5  1       -2 0.183322910192D-01 0.100000000000D+01
-.110445642265D-02 0.000000000000D+00 -.295400833267D-03 0.198704099762D-02 0.000000000000D+00  5 -2 1 25 -24 21 2 0.37536199D-01 0.65947999D-01 0.34695377D+05 0.34695377D+05 0.34695377D+05 0.12083259D+01  1  2  5  1  5  1       -2 -.533729266133D-01 0.100000000000D+01
0.321514732679D-04 0.000000000000D+00 0.000000000000D+00 0.198704099762D-02 0.000000000000D+00  5 21 1 25 -24 2 2 0.33686870D-01 0.65947999D-01 0.67117563D+05 0.67117563D+05 0.67117563D+05 0.11798222D+01  1  2 12  3  5  1       -2 0.227432285710D-01 0.100000000000D+01
-.107332355321D-03 0.000000000000D+00 -.332417841994D-04 0.198704099762D-02 0.000000000000D+00  5 21 1 25 -24 2 2 0.37536199D-01 0.65947999D-01 0.34695377D+05 0.34695377D+05 0.34695377D+05 0.12083259D+01  1  2  5  3  5  1       -2 -.655528685404D-01 0.100000000000D+01
  </mgrwgt>
  </event>
  <event>
  4     66 0.46019439E-03 0.10656431E+03 0.75467711E-02 0.12474488E+00
       -2 -1    0    0    0  501 0.00000000E+00 0.00000000E+00 0.15365701E+02 0.15369033E+02 0.32000000E+00 0.0000E+00 0.9000E+01
        1 -1    0    0  501    0 0.00000000E+00 0.00000000E+00 -.88757852E+03 0.88757857E+03 0.32000000E+00 0.0000E+00 0.9000E+01
       25  1    1    2    0    0 0.10441359E+02 -.25736988E+02 -.32771941E+03 0.35184716E+03 0.12500000E+03 0.0000E+00 0.9000E+01
      -24  1    1    2    0    0 -.10441359E+02 0.25736988E+02 -.54449341E+03 0.55110044E+03 0.80419002E+02 0.0000E+00 0.9000E+01
#aMCatNLO 1  0  0  1  1 0.20701330D+02 0.00000000D+00  -5  5  0 0.00000000D+00 0.00000000D+00 0.00000000D+00 0.00000000D+00 0.00000000D+00
  <mgrwgt>
 0.2409695135D+00    4    2    0
 0.116789538824468D+03 0.000000000000000D+00 0.000000000000000D+00 0.116789538824468D+03
 0.116789538824468D+03 0.000000000000000D+00 0.000000000000000D+00 -.116789538824468D+03
 0.136392715910803D+03 0.104413587958649D+02 -.257369882709469D+02 0.469740185077034D+02
 0.971863617381340D+02 -.104413587958649D+02 0.257369882709469D+02 -.469740185077034D+02
 0.000000000000000D+00 -.000000000000000D+00 -.000000000000000D+00 -.000000000000000D+00
 0.120989128435109D+03 0.000000000000000D+00 0.000000000000000D+00 0.120989128435109D+03
 0.145879485044257D+03 0.000000000000000D+00 0.000000000000000D+00 -.145879485044257D+03
 0.137368046218999D+03 0.222943863563320D+02 -.232676179326025D+02 0.469740185077034D+02
 0.971265818524918D+02 -.202818571066174D+01 0.274897252794433D+02 -.469740185077034D+02
 0.323739854078753D+02 -.202662006456702D+02 -.422210734684080D+01 -.248903566091471D+02
0.293055157657D-03 0.000000000000D+00 0.000000000000D+00 0.245292663999D-02 0.000000000000D+00  5 -2 1 25 -24 21 0 0.23642147D-02 0.13655080D+00 0.11355953D+05 0.11355953D+05 0.11355953D+05 0.12618416D+01  1  2  2  1  5  1       -2 0.287687691761D+00 0.100000000000D+01
-.161146598518D-04 0.000000000000D+00 -.112540896860D-05 0.245292663999D-02 0.000000000000D+00  5 -2 1 25 -24 21 2 0.23642147D-02 0.13655080D+00 0.11355953D+05 0.11355953D+05 0.11355953D+05 0.12618416D+01  1  2  3  1  5  1       -2 -.251885269479D-01 0.100000000000D+01
0.200759746215D-04 0.000000000000D+00 0.000000000000D+00 0.245292663999D-02 0.000000000000D+00  5 -2 1 25 -24 21 2 0.23642147D-02 0.13655080D+00 0.11355953D+05 0.11355953D+05 0.11355953D+05 0.12618416D+01  1  2 15  1  5  1       -2 0.313803848426D-01 0.100000000000D+01
-.338498252502D-04 0.000000000000D+00 0.000000000000D+00 0.245292663999D-02 0.000000000000D+00  5 -2 1 25 -24 21 2 0.23642147D-02 0.13655080D+00 0.11355953D+05 0.11355953D+05 0.11355953D+05 0.12618416D+01  1  2  4  1  5  1       -2 -.529100361618D-01 0.100000000000D+01
  </mgrwgt>
  </event>
  <event>
  4     66 0.46019439E-03 0.75569820E+02 0.75467711E-02 0.12013474E+00
       -2 -1    0    0    0  501 0.00000000E+00 0.00000000E+00 0.10970193E+02 0.10974859E+02 0.32000000E+00 0.0000E+00 0.9000E+01
        1 -1    0    0  501    0 0.00000000E+00 0.00000000E+00 -.16847363E+04 0.16847364E+04 0.32000000E+00 0.0000E+00 0.9000E+01
       25  1    1    2    0    0 -.86209900E+01 0.76105392E+02 -.12092510E+04 0.12181048E+04 0.12500000E+03 0.0000E+00 0.9000E+01
      -24  1    1    2    0    0 0.86209900E+01 -.76105392E+02 -.46451512E+03 0.47760639E+03 0.80419002E+02 0.0000E+00 0.9000E+01
#aMCatNLO 1  0  0  2  1 0.38417401D+02 0.00000000D+00  -5  5  0 0.00000000D+00 0.00000000D+00 0.00000000D+00 0.00000000D+00 0.00000000D+00
  <mgrwgt>
 0.2426406204D+00    7    2    0
 0.135962734102340D+03 0.000000000000000D+00 0.000000000000000D+00 0.135962734102340D+03
 0.135962734102340D+03 0.000000000000000D+00 0.000000000000000D+00 -.135962734102340D+03
 0.152801510010481D+03 -.862098999782016D+01 0.761053922341528D+02 -.430923341886494D+02
 0.119123958194200D+03 0.862098999782016D+01 -.761053922341528D+02 0.430923341886494D+02
 0.000000000000000D+00 0.000000000000000D+00 -.000000000000000D+00 -.000000000000000D+00
 0.138563472386520D+03 0.000000000000000D+00 0.000000000000000D+00 0.138563472386520D+03
 0.432362950437770D+03 0.000000000000000D+00 0.000000000000000D+00 -.432362950437770D+03
 0.163202434443224D+03 -.232756527598370D+02 0.927972485097063D+02 -.430923341886494D+02
 0.111423414613508D+03 -.207062970650574D+01 -.639274948402914D+02 0.430923341886494D+02
 0.296300573767557D+03 0.253462824663428D+02 -.288697536694149D+02 -.293799478051251D+03
0.511126128495D-03 0.000000000000D+00 0.000000000000D+00 0.231650040355D-02 0.000000000000D+00  5 -2 1 25 -24 21 0 0.16880833D-02 0.25919056D+00 0.16596639D+05 0.16596639D+05 0.16596639D+05 0.12428455D+01  1  2  2  2  5  2        1 0.237463016327D+00 0.100000000000D+01
-.282955814079D-04 0.000000000000D+00 -.196285891602D-05 0.231650040355D-02 0.000000000000D+00  5 -2 1 25 -24 21 2 0.16880833D-02 0.25919056D+00 0.16596639D+05 0.16596639D+05 0.16596639D+05 0.12428455D+01  1  2  3  2  5  2        1 -.203058322481D-01 0.100000000000D+01
0.353675532311D-04 0.000000000000D+00 0.000000000000D+00 0.231650040355D-02 0.000000000000D+00  5 -2 1 25 -24 21 2 0.16880833D-02 0.25919056D+00 0.16596639D+05 0.16596639D+05 0.16596639D+05 0.12428455D+01  1  2 15  2  5  2        1 0.253809099231D-01 0.100000000000D+01
0.566510820426D-02 0.000000000000D+00 0.000000000000D+00 0.231650040355D-02 0.000000000000D+00  5 -2 1 25 -24 21 2 0.16880833D-02 0.81989725D+00 0.22287684D+05 0.22287684D+05 0.22287684D+05 0.12286813D+01  1  2 12  2  5  2        1 0.372350568256D-02 0.100000000000D+01
-.587509159840D-02 0.000000000000D+00 -.160197480225D-03 0.231650040355D-02 0.000000000000D+00  5 -2 1 25 -24 21 2 0.16880833D-02 0.82491053D+00 0.16596639D+05 0.16596639D+05 0.16596639D+05 0.12428455D+01  1  2  5  2  5  2        1 -.362214264052D-02 0.100000000000D+01
0.749731785741D-03 0.000000000000D+00 0.000000000000D+00 0.231650040355D-02 0.000000000000D+00  5 -2 21 25 -24 -1 2 0.16880833D-02 0.81989725D+00 0.22287684D+05 0.22287684D+05 0.22287684D+05 0.12286813D+01  1  2 12  4  5  2        1 0.222877200458D-04 0.100000000000D+01
-.775492295697D-03 0.000000000000D+00 -.213371097553D-04 0.231650040355D-02 0.000000000000D+00  5 -2 21 25 -24 -1 2 0.16880833D-02 0.82491053D+00 0.16596639D+05 0.16596639D+05 0.16596639D+05 0.12428455D+01  1  2  5  4  5  2        1 -.211243401791D-04 0.100000000000D+01
  </mgrwgt>
  </event>
  <event>
  5     66 0.46019439E-03 0.14182371E+03 0.75467711E-02 0.11114382E+00
       21 -1    0    0  502  501 0.00000000E+00 0.00000000E+00 0.12672348E+03 0.12672570E+03 0.75000000E+00 0.0000E+00 0.9000E+01
        1 -1    0    0  501    0 0.00000000E+00 0.00000000E+00 -.56599983E+03 0.56599992E+03 0.32000000E+00 0.0000E+00 0.9000E+01
       25  1    1    2    0    0 0.16707393E+03 0.73127376E+02 -.20762560E+03 0.30330629E+03 0.12500000E+03 0.0000E+00 0.9000E+01
      -24  1    1    2    0    0 0.67248928E+01 -.76247848E+02 -.17376970E+03 0.20620884E+03 0.80419002E+02 0.0000E+00 0.9000E+01
        2  1    1    2  502    0 -.17379882E+03 0.31204719E+01 -.57881047E+02 0.18321050E+03 0.32000000E+00 0.0000E+00 0.9000E+01
#aMCatNLO 2  0  0  1  1 0.17382684D+03 0.00000000D+00  -5  5  0 0.00000000D+00 0.00000000D+00 0.00000000D+00 0.00000000D+00 0.00000000D+00
  <mgrwgt>
 0.5086889292D-01    1    2    0
 0.144851226001921D+03 0.000000000000000D+00 0.000000000000000D+00 0.144851226001921D+03
 0.144851226001921D+03 0.000000000000000D+00 0.000000000000000D+00 -.144851226001921D+03
 0.160656725717726D+03 0.608125138619615D+02 0.750352469602239D+02 0.292768405014535D+02
 0.129045726286116D+03 -.608125138619615D+02 -.750352469602239D+02 -.292768405014535D+02
 0.000000000000000D+00 -.000000000000000D+00 0.000000000000000D+00 0.000000000000000D+00
 0.334171719391806D+03 0.000000000000000D+00 0.000000000000000D+00 0.334171719391806D+03
 0.214638734704843D+03 0.000000000000000D+00 0.000000000000000D+00 -.214638734704843D+03
 0.223032385586115D+03 0.167073931354381D+03 0.731273758060378D+02 0.292768405014535D+02
 0.114818586481309D+03 0.672489282238067D+01 -.762478476678211D+02 -.292768405014535D+02
 0.210959482029225D+03 -.173798824176762D+03 0.312047186178329D+01 0.119532984686963D+03
0.360678206271D-04 0.000000000000D+00 0.000000000000D+00 0.236257994165D-02 0.129628790268D-06  5 21 1 25 -24 2 2 0.19496088D-01 0.87077031D-01 0.63997016D+05 0.63997016D+05 0.63997016D+05 0.11818098D+01  1  2  1  3  5  1       -2 0.508688929161D-01 0.100000000000D+01
  </mgrwgt>
  </event>
  <event>
  5     66 0.46019439E-03 0.15892929E+03 0.75467711E-02 0.11796242E+00
       21 -1    0    0  502  501 0.00000000E+00 0.00000000E+00 0.59810518E+02 0.59815220E+02 0.75000000E+00 0.0000E+00 0.9000E+01
        1 -1    0    0  501    0 0.00000000E+00 0.00000000E+00 -.50332295E+03 0.50332305E+03 0.32000000E+00 0.0000E+00 0.9000E+01
       25  1    1    2    0    0 -.91397932E+02 0.85452633E+02 -.16427402E+03 0.24138494E+03 0.12500000E+03 0.0000E+00 0.9000E+01
      -24  1    1    2    0    0 0.73725359E+02 -.90081973E+02 -.24368739E+03 0.28178174E+03 0.80419002E+02 0.0000E+00 0.9000E+01
        2  1    1    2  502    0 0.17672574E+02 0.46293396E+01 -.35551018E+02 0.39971589E+02 0.32000000E+00 0.0000E+00 0.9000E+01
#aMCatNLO 2  0  0  1  1 0.18268844D+02 0.00000000D+00  -5  5  0 0.00000000D+00 0.00000000D+00 0.00000000D+00 0.00000000D+00 0.00000000D+00
  <mgrwgt>
 0.6374567461D-01    1    2    0
 0.163506202143767D+03 0.000000000000000D+00 0.000000000000000D+00 0.163506202143767D+03
 0.163506202143767D+03 0.000000000000000D+00 0.000000000000000D+00 -.163506202143767D+03
 0.177508398888538D+03 -.817193214956829D+02 0.879879499350995D+02 0.382662362465411D+02
 0.149504005398996D+03 0.817193214956829D+02 -.879879499350995D+02 -.382662362465411D+02
 0.000000000000000D+00 0.000000000000000D+00 0.000000000000000D+00 -.000000000000000D+00
 0.170043584650127D+03 0.000000000000000D+00 0.000000000000000D+00 0.170043584650127D+03
 0.177042267756120D+03 0.000000000000000D+00 0.000000000000000D+00 -.177042267756120D+03
 0.180955904446620D+03 -.913979324037978D+02 0.854526329022635D+02 0.382662362465411D+02
 0.146566405029649D+03 0.737253587013863D+02 -.900819725406828D+02 -.382662362465411D+02
 0.195635429299788D+02 0.176725737024115D+02 0.462933963841933D+01 -.699868310599328D+01
0.924711278481D-05 0.000000000000D+00 0.000000000000D+00 0.219858344124D-02 0.377938427292D-06  5 21 1 25 -24 2 2 0.92019178D-02 0.77434081D-01 0.28327470D+05 0.28327470D+05 0.28327470D+05 0.12175219D+01  1  2  1  3  5  1       -2 0.637456746082D-01 0.100000000000D+01
  </mgrwgt>
  </event>
  <event>
  5     66 0.46019439E-03 0.10947535E+03 0.75467711E-02 0.12534117E+00
       -2 -1    0    0    0  502 0.00000000E+00 0.00000000E+00 0.23110019E+02 0.23112234E+02 0.32000000E+00 0.0000E+00 0.9000E+01
        1 -1    0    0  501    0 0.00000000E+00 0.00000000E+00 -.57475502E+03 0.57475511E+03 0.32000000E+00 0.0000E+00 0.9000E+01
       25  1    1    2    0    0 0.29097037E+02 -.14283716E+02 -.26925247E+03 0.29861774E+03 0.12500000E+03 0.0000E+00 0.9000E+01
      -24  1    1    2    0    0 -.34313495E+02 0.21345365E+02 -.25120221E+03 0.26683854E+03 0.80419002E+02 0.0000E+00 0.9000E+01
       21  1    1    2  501  502 0.52164583E+01 -.70616486E+01 -.31190311E+02 0.32411053E+02 0.75000000E+00 0.0000E+00 0.9000E+01
#aMCatNLO 2  0  0  1  1 0.87794259D+01 0.00000000D+00  -5  5  0 0.00000000D+00 0.00000000D+00 0.00000000D+00 0.00000000D+00 0.00000000D+00
  <mgrwgt>
 0.1550085997D+00    2    2    0
 0.110443032038370D+03 0.000000000000000D+00 0.000000000000000D+00 0.110443032038370D+03
 0.110443032038370D+03 0.000000000000000D+00 0.000000000000000D+00 -.110443032038370D+03
 0.131172687582524D+03 0.321788847827440D+02 -.184556896589382D+02 0.143241356100245D+02
 0.897133764942166D+02 -.321788847827440D+02 0.184556896589382D+02 -.143241356100245D+02
 0.000000000000000D+00 0.000000000000000D+00 -.000000000000000D+00 -.000000000000000D+00
 0.113513819945315D+03 0.000000000000000D+00 0.000000000000000D+00 0.113513819945315D+03
 0.116988768095232D+03 0.000000000000000D+00 0.000000000000000D+00 -.116988768095232D+03
 0.129926298195049D+03 0.290970369407872D+02 -.142837160067246D+02 0.143241356100245D+02
 0.911341723150113D+02 -.343134952499624D+02 0.213453646473437D+02 -.143241356100245D+02
 0.944211753048719D+01 0.521645830917516D+01 -.706164864061916D+01 -.347494814991715D+01
-.502594708774D-05 0.000000000000D+00 0.000000000000D+00 0.295722793705D-02 0.000000000000D+00  5 -2 1 25 -24 21 2 0.34589305D-02 0.83465711D-01 0.11984852D+05 0.11984852D+05 0.11984852D+05 0.12590884D+01  1  2  8  1  5  1       -2 -.905845771811D-02 0.100000000000D+01
0.102648523620D-03 0.000000000000D+00 0.000000000000D+00 0.295722793705D-02 0.322944425727D-03  5 -2 1 25 -24 21 2 0.35551035D-02 0.88412555D-01 0.12986327D+05 0.12986327D+05 0.12986327D+05 0.12550234D+01  1  2  1  1  5  1       -2 0.164067057423D+00 0.100000000000D+01
  </mgrwgt>
  </event>
  <event>
  4     66 0.46019439E-03 0.10586657E+03 0.75467711E-02 0.12516090E+00
       -2 -1    0    0    0  501 0.00000000E+00 0.00000000E+00 0.31436092E+02 0.31437720E+02 0.32000000E+00 0.0000E+00 0.9000E+01
        1 -1    0    0  501    0 0.00000000E+00 0.00000000E+00 -.84789988E+03 0.84789994E+03 0.32000000E+00 0.0000E+00 0.9000E+01
       25  1    1    2    0    0 0.24589500E+02 -.49652423E+01 -.11153756E+03 0.16939577E+03 0.12500000E+03 0.0000E+00 0.9000E+01
      -24  1    1    2    0    0 -.24589500E+02 0.49652423E+01 -.70492622E+03 0.70994189E+03 0.80419002E+02 0.0000E+00 0.9000E+01
#aMCatNLO 1  0  0  1  1 0.17079419D+02 0.00000000D+00  -5  5  0 0.00000000D+00 0.00000000D+00 0.00000000D+00 0.00000000D+00 0.00000000D+00
  <mgrwgt>
 0.1382178001D+00    4    2    0
 0.163264818618949D+03 0.000000000000000D+00 0.000000000000000D+00 0.163264818618949D+03
 0.163264818618949D+03 0.000000000000000D+00 0.000000000000000D+00 -.163264818618949D+03
 0.177287717310619D+03 0.245895004578744D+02 -.496524234624413D+01 0.123193496357905D+03
 0.149241919927279D+03 -.245895004578744D+02 0.496524234624413D+01 -.123193496357905D+03
 0.000000000000000D+00 0.000000000000000D+00 0.000000000000000D+00 -.000000000000000D+00
 0.166110047616878D+03 0.000000000000000D+00 0.000000000000000D+00 0.166110047616878D+03
 0.191300912303291D+03 0.000000000000000D+00 0.000000000000000D+00 -.191300912303291D+03
 0.176249128744513D+03 0.153514964140795D+02 -.514289764270923D+01 0.123193496357905D+03
 0.150726880405187D+03 -.324277583973354D+02 0.481450545206186D+01 -.123193496357905D+03
 0.304349507704689D+02 0.170762619832558D+02 0.328392190647364D+00 -.251908646864136D+02
0.446782166193D-03 0.000000000000D+00 0.000000000000D+00 0.109381586701D-02 0.000000000000D+00  5 -2 1 25 -24 21 0 0.48364517D-02 0.13044627D+00 0.11207731D+05 0.11207731D+05 0.11207731D+05 0.12625156D+01  1  2  2  1  5  1       -2 0.164627621602D+00 0.100000000000D+01
-.191579303569D-04 0.000000000000D+00 -.171576115863D-05 0.109381586701D-02 0.000000000000D+00  5 -2 1 25 -24 21 2 0.48364517D-02 0.13044627D+00 0.11207731D+05 0.11207731D+05 0.11207731D+05 0.12625156D+01  1  2  3  1  5  1       -2 -.112519799802D-01 0.100000000000D+01
0.305132983915D-04 0.000000000000D+00 0.000000000000D+00 0.109381586701D-02 0.000000000000D+00  5 -2 1 25 -24 21 2 0.48364517D-02 0.13044627D+00 0.11207731D+05 0.11207731D+05 0.11207731D+05 0.12625156D+01  1  2 15  1  5  1       -2 0.179213002780D-01 0.100000000000D+01
-.563214560289D-04 0.000000000000D+00 0.000000000000D+00 0.109381586701D-02 0.000000000000D+00  5 -2 1 25 -24 21 2 0.48364517D-02 0.13044627D+00 0.11207731D+05 0.11207731D+05 0.11207731D+05 0.12625156D+01  1  2  4  1  5  1       -2 -.330791418430D-01 0.100000000000D+01
  </mgrwgt>
  </event>
  <event>
  5     66 0.46019439E-03 0.16272840E+03 0.75467711E-02 0.11411100E+00
       21 -1    0    0  502  501 0.00000000E+00 0.00000000E+00 0.31522109E+02 0.31531030E+02 0.75000000E+00 0.0000E+00 0.9000E+01
        1 -1    0    0  501    0 0.00000000E+00 0.00000000E+00 -.14425248E+04 0.14425248E+04 0.32000000E+00 0.0000E+00 0.9000E+01
       25  1    1    2    0    0 -.96834685E+02 -.32028180E+02 -.44242231E+03 0.47091959E+03 0.12500000E+03 0.0000E+00 0.9000E+01
      -24  1    1    2    0    0 0.15205377E+03 -.32329616E+02 -.69603929E+03 0.71770708E+03 0.80419002E+02 0.0000E+00 0.9000E+01
        2  1    1    2  502    0 -.55219082E+02 0.64357796E+02 -.27254109E+03 0.28542919E+03 0.32000000E+00 0.0000E+00 0.9000E+01
#aMCatNLO 2  0  0  1  1 0.84800195D+02 0.00000000D+00  -5  5  0 0.00000000D+00 0.00000000D+00 0.00000000D+00 0.00000000D+00 0.00000000D+00
  <mgrwgt>
 0.5816165128D-01    1    2    0
 0.165489795210835D+03 0.000000000000000D+00 0.000000000000000D+00 0.165489795210835D+03
 0.165489795210835D+03 0.000000000000000D+00 0.000000000000000D+00 -.165489795210835D+03
 0.179324158885589D+03 -.125026700960714D+03 0.829591471033017D+00 0.299964962103140D+02
 0.151655431536080D+03 0.125026700960714D+03 -.829591471033017D+00 -.299964962103140D+02
 0.000000000000000D+00 -.000000000000000D+00 0.000000000000000D+00 0.000000000000000D+00
 0.214724714553679D+03 0.000000000000000D+00 0.000000000000000D+00 0.214724714553679D+03
 0.211796282909424D+03 0.000000000000000D+00 0.000000000000000D+00 -.211796282909424D+03
 0.164096162060408D+03 -.968346853147778D+02 -.320281803736685D+02 0.299964962103140D+02
 0.177574091660142D+03 0.152053767511362D+03 -.323296160703997D+02 -.299964962103140D+02
 0.848507437425524D+02 -.552190821965840D+02 0.643577964440682D+02 0.292843164425453D+01
0.162161749485D-04 0.000000000000D+00 0.000000000000D+00 0.223446095508D-02 0.117430958665D-06  5 21 1 25 -24 2 2 0.48502373D-02 0.22192727D+00 0.44342589D+05 0.44342589D+05 0.44342589D+05 0.11974812D+01  1  2  1  3  5  1       -2 0.581616512821D-01 0.100000000000D+01
  </mgrwgt>
  </event>
  <event>
  4     66 0.46019439E-03 0.58321798E+02 0.75467711E-02 0.12294363E+00
       -2 -1    0    0    0  501 0.00000000E+00 0.00000000E+00 0.89566613E+01 0.89623758E+01 0.32000000E+00 0.0000E+00 0.9000E+01
        1 -1    0    0  501    0 0.00000000E+00 0.00000000E+00 -.13749170E+04 0.13749171E+04 0.32000000E+00 0.0000E+00 0.9000E+01
       25  1    1    2    0    0 0.35563746E+02 -.58695420E+01 -.68541417E+03 0.69765093E+03 0.12500000E+03 0.0000E+00 0.9000E+01
      -24  1    1    2    0    0 -.35563746E+02 0.58695420E+01 -.68054618E+03 0.68622850E+03 0.80419002E+02 0.0000E+00 0.9000E+01
#aMCatNLO 1  0  0  1  2 0.36098329D+02 0.00000000D+00  -5  5  0 0.00000000D+00 0.00000000D+00 0.00000000D+00 0.00000000D+00 0.00000000D+00
  <mgrwgt>
 0.2720410022D+00    9    2    0
 0.110989395252991D+03 0.000000000000000D+00 0.000000000000000D+00 0.110989395252991D+03
 0.110989395252991D+03 0.000000000000000D+00 0.000000000000000D+00 -.110989395252991D+03
 0.131617005721440D+03 0.355637459097807D+02 -.586954199859734D+01 0.199700938572843D+02
 0.903617847845427D+02 -.355637459097807D+02 0.586954199859734D+01 -.199700938572843D+02
 0.000000000000000D+00 0.000000000000000D+00 0.000000000000000D+00 0.000000000000000D+00
 0.130802955285411D+03 0.000000000000000D+00 0.000000000000000D+00 0.130802955285411D+03
 0.130195291231373D+03 0.000000000000000D+00 0.000000000000000D+00 -.130195291231373D+03
 0.127684550353820D+03 0.147190517622532D+02 -.793027525427879D+01 0.199700938572843D+02
 0.972102534052981D+02 -.506422584566192D+02 0.437886086739130D+01 -.199700938572843D+02
 0.361034427576665D+02 0.359232066943660D+02 0.355141438688750D+01 0.607664054037876D+00
0.206413246574D-03 0.000000000000D+00 0.000000000000D+00 0.290373664077D-02 0.000000000000D+00  5 -2 1 25 -24 21 0 0.13783903D-02 0.21152614D+00 0.11905059D+05 0.11905059D+05 0.11905059D+05 0.12594286D+01  1  2  2  1  5  1       -2 0.201764926295D+00 0.100000000000D+01
-.114633373790D-04 0.000000000000D+00 -.792681216699D-06 0.290373664077D-02 0.000000000000D+00  5 -2 1 25 -24 21 2 0.13783903D-02 0.21152614D+00 0.11905059D+05 0.11905059D+05 0.11905059D+05 0.12594286D+01  1  2  3  1  5  1       -2 -.177732270894D-01 0.100000000000D+01
0.142835860147D-04 0.000000000000D+00 0.000000000000D+00 0.290373664077D-02 0.000000000000D+00  5 -2 1 25 -24 21 2 0.13783903D-02 0.21152614D+00 0.11905059D+05 0.11905059D+05 0.11905059D+05 0.12594286D+01  1  2 15  1  5  1       -2 0.221458559142D-01 0.100000000000D+01
0.905953735587D-04 0.000000000000D+00 0.000000000000D+00 0.290373664077D-02 0.000000000000D+00  5 -2 1 25 -24 21 2 0.17241763D-02 0.21152614D+00 0.16557053D+05 0.16557053D+05 0.16557053D+05 0.12429623D+01  1  2 12  1  5  1       -2 0.999770564901D-01 0.100000000000D+01
-.830782806312D-04 0.000000000000D+00 0.000000000000D+00 0.290373664077D-02 0.000000000000D+00  5 -2 1 25 -24 21 2 0.13783903D-02 0.21152614D+00 0.11905059D+05 0.11905059D+05 0.11905059D+05 0.12594286D+01  1  2  4  1  5  1       -2 -.128807963950D+00 0.100000000000D+01
-.204380119846D-03 0.000000000000D+00 -.860611977534D-04 0.290373664077D-02 0.000000000000D+00  5 -2 1 25 -24 21 2 0.19382581D-02 0.21152614D+00 0.11905059D+05 0.11905059D+05 0.11905059D+05 0.12594286D+01  1  2  5  1  5  1       -2 -.194192299238D+00 0.100000000000D+01
0.225270062395D-03 0.000000000000D+00 0.812924190973D-04 0.290373664077D-02 0.000000000000D+00  5 -2 1 25 -24 21 2 0.13783903D-02 0.21152614D+00 0.11905059D+05 0.11905059D+05 0.11905059D+05 0.12594286D+01  1  2  6  1  5  1       -2 0.349267917625D+00 0.100000000000D+01
0.282383479025D-05 0.000000000000D+00 0.000000000000D+00 0.290373664077D-02 0.000000000000D+00  5 21 1 25 -24 2 2 0.17241763D-02 0.21152614D+00 0.16557053D+05 0.16557053D+05 0.16557053D+05 0.12429623D+01  1  2 12  3  5  1       -2 0.670260757469D-01 0.100000000000D+01
-.632096546229D-05 0.000000000000D+00 -.364756954318D-05 0.290373664077D-02 0.000000000000D+00  5 21 1 25 -24 2 2 0.19382581D-02 0.21152614D+00 0.11905059D+05 0.11905059D+05 0.11905059D+05 0.12594286D+01  1  2  5  3  5  1       -2 -.127367339613D+00 0.100000000000D+01
  </mgrwgt>
  </event>
  <event>
  5     66 0.46019439E-03 0.22495385E+03 0.75467711E-02 0.11081671E+00
       -2 -1    0    0    0  501 0.00000000E+00 0.00000000E+00 0.27354736E+02 0.27356607E+02 0.32000000E+00 0.0000E+00 0.9000E+01
        1 -1    0    0  502    0 0.00000000E+00 0.00000000E+00 -.26760477E+04 0.26760477E+04 0.32000000E+00 0.0000E+00 0.9000E+01
       25  1    1    2    0    0 -.78242141E+02 0.15308398E+03 -.74995486E+03 0.77949588E+03 0.12500000E+03 0.0000E+00 0.9000E+01
      -24  1    1    2    0    0 0.13106116E+03 -.18636886E+03 -.16423530E+04 0.16600304E+04 0.80419002E+02 0.0000E+00 0.9000E+01
       21  1    1    2  502  501 -.52819015E+02 0.33284878E+02 -.25638509E+03 0.26387801E+03 0.75000000E+00 0.0000E+00 0.9000E+01
#aMCatNLO 2  0  0  2  2 0.62431815D+02 0.00000000D+00  -5  5  0 0.00000000D+00 0.00000000D+00 0.00000000D+00 0.00000000D+00 0.00000000D+00
  <mgrwgt>
 0.5908819830D-01    1    2    0
 0.236777273298567D+03 0.000000000000000D+00 0.000000000000000D+00 0.236777273298567D+03
 0.236777273298567D+03 0.000000000000000D+00 0.000000000000000D+00 -.236777273298567D+03
 0.246446469921676D+03 -.104421524051787D+03 0.169581400450324D+03 0.738184019934338D+02
 0.227108076675459D+03 0.104421524051787D+03 -.169581400450324D+03 -.738184019934338D+02
 0.000000000000000D+00 -.000000000000000D+00 0.000000000000000D+00 0.000000000000000D+00
 0.276722317599213D+03 0.000000000000000D+00 0.000000000000000D+00 0.276722317599213D+03
 0.264539310025383D+03 0.000000000000000D+00 0.000000000000000D+00 -.264539310025383D+03
 0.225012651853910D+03 -.782421406352709D+02 0.153083978424508D+03 0.738184019934338D+02
 0.252639564817475D+03 0.131061155930182D+03 -.186368856545757D+03 -.738184019934338D+02
 0.636094109532111D+02 -.528190152949111D+02 0.332848781212496D+02 0.121830075738300D+02
0.156574266295D-02 0.000000000000D+00 0.000000000000D+00 0.188665281460D-02 0.361892134246D-05  5 -2 1 25 -24 21 2 0.42085318D-02 0.41169641D+00 0.66720404D+05 0.66720404D+05 0.66720404D+05 0.11800695D+01  1  2  1  2  5  2        1 0.590881982983D-01 0.100000000000D+01
  </mgrwgt>
  </event>
  <event>
  5     66 0.46019439E-03 0.16493584E+03 0.75467711E-02 0.10945745E+00
       21 -1    0    0  502  501 0.00000000E+00 0.00000000E+00 0.14262277E+03 0.14262474E+03 0.75000000E+00 0.0000E+00 0.9000E+01
        1 -1    0    0  501    0 0.00000000E+00 0.00000000E+00 -.67433550E+03 0.67433557E+03 0.32000000E+00 0.0000E+00 0.9000E+01
       25  1    1    2    0    0 -.10489138E+03 0.20724440E+03 -.39627316E+03 0.47603556E+03 0.12500000E+03 0.0000E+00 0.9000E+01
      -24  1    1    2    0    0 0.77550925E+02 -.23000428E+02 -.99210233E+02 0.15117226E+03 0.80419002E+02 0.0000E+00 0.9000E+01
        2  1    1    2  502    0 0.27340451E+02 -.18424397E+03 -.36229341E+02 0.18975249E+03 0.32000000E+00 0.0000E+00 0.9000E+01
#aMCatNLO 2  0  0  1  2 0.18626148D+03 0.00000000D+00  -5  5  0 0.00000000D+00 0.00000000D+00 0.00000000D+00 0.00000000D+00 0.00000000D+00
  <mgrwgt>
 0.4687464105D-01    1    2    0
 0.168220480541790D+03 0.000000000000000D+00 0.000000000000000D+00 0.168220480541790D+03
 0.168220480541790D+03 0.000000000000000D+00 0.000000000000000D+00 -.168220480541790D+03
 0.181830274093881D+03 -.879161165389279D+02 0.928501881929566D+02 -.329673714800283D+02
 0.154610686989698D+03 0.879161165389279D+02 -.928501881929566D+02 0.329673714800283D+02
 0.000000000000000D+00 0.000000000000000D+00 -.000000000000000D+00 0.000000000000000D+00
 0.416378987159761D+03 0.000000000000000D+00 0.000000000000000D+00 0.416378987159761D+03
 0.230982735381494D+03 0.000000000000000D+00 0.000000000000000D+00 -.230982735381494D+03
 0.265827553025067D+03 -.104891376565009D+03 0.207244395550978D+03 -.329673714800283D+02
 0.118731753307153D+03 0.775509252720503D+02 -.230004281735544D+02 0.329673714800283D+02
 0.262802416209034D+03 0.273404512929591D+02 -.184243967377424D+03 0.185396251778267D+03
0.543099297813D-04 0.000000000000D+00 0.000000000000D+00 0.220793193317D-02 0.856974987227D-07  5 21 1 25 -24 2 2 0.21942113D-01 0.10374404D+00 0.79552175D+05 0.79552175D+05 0.79552175D+05 0.11728098D+01  1  2  1  3  5  1       -2 0.468746410533D-01 0.100000000000D+01
  </mgrwgt>
  </event>
  <event>
  4     66 0.46019439E-03 0.12294311E+03 0.75467711E-02 0.10806304E+00
       -2 -1    0    0    0  501 0.00000000E+00 0.00000000E+00 0.20189872E+03 0.20189897E+03 0.32000000E+00 0.0000E+00 0.9000E+01
        1 -1    0    0  501    0 0.00000000E+00 0.00000000E+00 -.74965253E+02 0.74965936E+02 0.32000000E+00 0.0000E+00 0.9000E+01
       25  1    1    2    0    0 -.38680863E+02 -.54032116E+02 0.78104163E+02 0.16168160E+03 0.12500000E+03 0.0000E+00 0.9000E+01
      -24  1    1    2    0    0 0.38680863E+02 0.54032116E+02 0.48829305E+02 0.11518331E+03 0.80419002E+02 0.0000E+00 0.9000E+01
#aMCatNLO 1  0  0  2  2 0.26055464D+03 0.00000000D+00  -5  5  0 0.00000000D+00 0.00000000D+00 0.00000000D+00 0.00000000D+00 0.00000000D+00
  <mgrwgt>
 0.1942115469D+00    3    2    0
 0.123026494766046D+03 0.000000000000000D+00 0.000000000000000D+00 0.123026494766046D+03
 0.123026494766046D+03 0.000000000000000D+00 0.000000000000000D+00 -.123026494766046D+03
 0.141635868427883D+03 -.386808631654560D+02 -.540321158211636D+02 0.447666281779317D+01
 0.104417121104209D+03 0.386808631654560D+02 0.540321158211636D+02 -.447666281779317D+01
 0.000000000000000D+00 -.000000000000000D+00 0.000000000000000D+00 0.000000000000000D+00
 0.393933739873053D+03 0.000000000000000D+00 0.000000000000000D+00 0.393933739873053D+03
 0.258219390230850D+03 0.000000000000000D+00 0.000000000000000D+00 -.258219390230850D+03
 0.195345134468883D+03 0.911519511122612D+02 -.119188937654087D+03 0.447666281779317D+01
 0.163027287962579D+03 0.141722458963126D+03 0.232051320267853D+01 -.447666281779317D+01
 0.293780707672441D+03 -.232874410075387D+03 0.116868424451408D+03 0.135714349642203D+03
0.450882729588D-03 0.000000000000D+00 0.000000000000D+00 0.272537194400D-02 0.000000000000D+00  5 -2 1 25 -24 21 0 0.31061414D-01 0.11533188D-01 0.15115008D+05 0.15115008D+05 0.15115008D+05 0.12474446D+01  1  2  2  2  5  2        1 0.190216330311D+00 0.100000000000D+01
-.250490265317D-04 0.000000000000D+00 -.173150840177D-05 0.272537194400D-02 0.000000000000D+00  5 -2 1 25 -24 21 2 0.31061414D-01 0.11533188D-01 0.15115008D+05 0.15115008D+05 0.15115008D+05 0.12474446D+01  1  2  3  2  5  2        1 -.164443819274D-01 0.100000000000D+01
0.311347697864D-04 0.000000000000D+00 0.000000000000D+00 0.272537194400D-02 0.000000000000D+00  5 -2 1 25 -24 21 2 0.31061414D-01 0.11533188D-01 0.15115008D+05 0.15115008D+05 0.15115008D+05 0.12474446D+01  1  2 15  2  5  2        1 0.204395985186D-01 0.100000000000D+01
  </mgrwgt>
  </event>
  <event>
  4     66 0.46019439E-03 0.90075045E+02 0.75467711E-02 0.11831026E+00
       -2 -1    0    0    0  501 0.00000000E+00 0.00000000E+00 0.21598892E+02 0.21601263E+02 0.32000000E+00 0.0000E+00 0.9000E+01
        1 -1    0    0  501    0 0.00000000E+00 0.00000000E+00 -.86146153E+03 0.86146159E+03 0.32000000E+00 0.0000E+00 0.9000E+01
       25  1    1    2    0    0 0.19399337E+02 0.84104974E+02 -.40740827E+03 0.43480626E+03 0.12500000E+03 0.0000E+00 0.9000E+01
      -24  1    1    2    0    0 -.19399337E+02 -.84104974E+02 -.43245437E+03 0.44825660E+03 0.80419002E+02 0.0000E+00 0.9000E+01
#aMCatNLO 1  0  0  1  2 0.54712792D+02 0.00000000D+00  -5  5  0 0.00000000D+00 0.00000000D+00 0.00000000D+00 0.00000000D+00 0.00000000D+00
  <mgrwgt>
 0.2433947349D+00    9    2    0
 0.136409998576976D+03 0.000000000000000D+00 0.000000000000000D+00 0.136409998576976D+03
 0.136409998576976D+03 0.000000000000000D+00 0.000000000000000D+00 -.136409998576976D+03
 0.153193563090507D+03 0.193993365213001D+02 0.841049741188823D+02 0.198314609487230D+02
 0.119626434063445D+03 -.193993365213001D+02 -.841049741188823D+02 -.198314609487230D+02
 0.000000000000000D+00 0.000000000000000D+00 0.000000000000000D+00 0.000000000000000D+00
 0.201584685949444D+03 0.000000000000000D+00 0.000000000000000D+00 0.201584685949444D+03
 0.151107948462743D+03 0.000000000000000D+00 0.000000000000000D+00 -.151107948462743D+03
 0.146907065507191D+03 -.866012163554159D+01 0.740837454900262D+02 0.198314609487230D+02
 0.131345051262288D+03 -.428652116977835D+02 -.924856384497935D+02 -.198314609487230D+02
 0.744405176427086D+02 0.515253333333251D+02 0.184018929597672D+02 0.504767374867018D+02
0.333549047343D-03 0.000000000000D+00 0.000000000000D+00 0.249205244060D-02 0.000000000000D+00  5 -2 1 25 -24 21 0 0.33230934D-02 0.13253273D+00 0.18208221D+05 0.18208221D+05 0.18208221D+05 0.12383390D+01  1  2  2  1  5  1       -2 0.211471933752D+00 0.100000000000D+01
-.185278499004D-04 0.000000000000D+00 -.128091616728D-05 0.249205244060D-02 0.000000000000D+00  5 -2 1 25 -24 21 2 0.33230934D-02 0.13253273D+00 0.18208221D+05 0.18208221D+05 0.18208221D+05 0.12383390D+01  1  2  3  1  5  1       -2 -.180134618243D-01 0.100000000000D+01
0.229956422998D-04 0.000000000000D+00 0.000000000000D+00 0.249205244060D-02 0.000000000000D+00  5 -2 1 25 -24 21 2 0.33230934D-02 0.13253273D+00 0.18208221D+05 0.18208221D+05 0.18208221D+05 0.12383390D+01  1  2 15  1  5  1       -2 0.223572150530D-01 0.100000000000D+01
0.217178245672D-03 0.000000000000D+00 0.000000000000D+00 0.249205244060D-02 0.000000000000D+00  5 -2 1 25 -24 21 2 0.50217431D-02 0.13253273D+00 0.27243882D+05 0.27243882D+05 0.27243882D+05 0.12193156D+01  1  2 12  1  5  1       -2 0.111499058851D+00 0.100000000000D+01
-.265201788209D-03 0.000000000000D+00 0.000000000000D+00 0.249205244060D-02 0.000000000000D+00  5 -2 1 25 -24 21 2 0.33230934D-02 0.13253273D+00 0.18208221D+05 0.18208221D+05 0.18208221D+05 0.12383390D+01  1  2  4  1  5  1       -2 -.257838999847D+00 0.100000000000D+01
-.330018367068D-03 0.000000000000D+00 -.109285133081D-03 0.249205244060D-02 0.000000000000D+00  5 -2 1 25 -24 21 2 0.54442957D-02 0.13253273D+00 0.18208221D+05 0.18208221D+05 0.18208221D+05 0.12383390D+01  1  2  5  1  5  1       -2 -.153739460023D+00 0.100000000000D+01
0.352253060868D-03 0.000000000000D+00 0.971983974290D-04 0.249205244060D-02 0.000000000000D+00  5 -2 1 25 -24 21 2 0.33230934D-02 0.13253273D+00 0.18208221D+05 0.18208221D+05 0.18208221D+05 0.12383390D+01  1  2  6  1  5  1       -2 0.342473470940D+00 0.100000000000D+01
0.105817840941D-04 0.000000000000D+00 0.000000000000D+00 0.249205244060D-02 0.000000000000D+00  5 21 1 25 -24 2 2 0.50217431D-02 0.13253273D+00 0.27243882D+05 0.27243882D+05 0.27243882D+05 0.12193156D+01  1  2 12  3  5  1       -2 0.965450554226D-01 0.100000000000D+01
-.135625154824D-04 0.000000000000D+00 -.610008591162D-05 0.249205244060D-02 0.000000000000D+00  5 21 1 25 -24 2 2 0.54442957D-02 0.13253273D+00 0.18208221D+05 0.18208221D+05 0.18208221D+05 0.12383390D+01  1  2  5  3  5  1       -2 -.111360077465D+00 0.100000000000D+01
  </mgrwgt>
  </event>
  <event>
  4     66 0.46019439E-03 0.61833380E+02 0.75467711E-02 0.11632920E+00
       -2 -1    0    0    0  501 0.00000000E+00 0.00000000E+00 0.44819008E+02 0.44820150E+02 0.32000000E+00 0.0000E+00 0.9000E+01
        1 -1    0    0  501    0 0.00000000E+00 0.00000000E+00 -.38530011E+03 0.38530025E+03 0.32000000E+00 0.0000E+00 0.9000E+01
       25  1    1    2    0    0 0.35593694E+02 -.67658031E+02 -.15007376E+03 0.20974188E+03 0.12500000E+03 0.0000E+00 0.9000E+01
      -24  1    1    2    0    0 -.35593694E+02 0.67658031E+02 -.19040734E+03 0.22037852E+03 0.80419002E+02 0.0000E+00 0.9000E+01
#aMCatNLO 1  0  0  2  1 0.94986240D+02 0.00000000D+00  -5  5  0 0.00000000D+00 0.00000000D+00 0.00000000D+00 0.00000000D+00 0.00000000D+00
  <mgrwgt>
 0.1322613513D+00    7    2    0
 0.131411731276871D+03 0.000000000000000D+00 0.000000000000000D+00 0.131411731276871D+03
 0.131411731276871D+03 0.000000000000000D+00 0.000000000000000D+00 -.131411731276871D+03
 0.148833661489355D+03 0.355936941835882D+02 -.676580311120357D+02 0.261139532192277D+02
 0.113989801064387D+03 -.355936941835882D+02 0.676580311120357D+02 -.261139532192277D+02
 0.000000000000000D+00 0.000000000000000D+00 0.000000000000000D+00 -.000000000000000D+00
 0.161519979801736D+03 0.000000000000000D+00 0.000000000000000D+00 0.161519979801736D+03
 0.243248736219934D+03 0.000000000000000D+00 0.000000000000000D+00 -.243248736219934D+03
 0.152272553325794D+03 -.152925958055793D+02 -.815237907432431D+02 0.261139532192277D+02
 0.127188639397401D+03 -.763523217263904D+02 0.565519093545503D+02 -.261139532192277D+02
 0.125307523298474D+03 0.916449175319698D+02 0.249718813886927D+02 -.817287564181983D+02
0.283698330179D-03 0.000000000000D+00 0.000000000000D+00 0.251064161634D-02 0.000000000000D+00  5 -2 1 25 -24 21 0 0.68953301D-02 0.59277039D-01 0.16574383D+05 0.16574383D+05 0.16574383D+05 0.12429111D+01  1  2  2  2  5  2        1 0.180185495481D+00 0.100000000000D+01
-.157529425839D-04 0.000000000000D+00 -.108947628737D-05 0.251064161634D-02 0.000000000000D+00  5 -2 1 25 -24 21 2 0.68953301D-02 0.59277039D-01 0.16574383D+05 0.16574383D+05 0.16574383D+05 0.12429111D+01  1  2  3  2  5  2        1 -.154562764232D-01 0.100000000000D+01
0.195832588075D-04 0.000000000000D+00 0.000000000000D+00 0.251064161634D-02 0.000000000000D+00  5 -2 1 25 -24 21 2 0.68953301D-02 0.59277039D-01 0.16574383D+05 0.16574383D+05 0.16574383D+05 0.12429111D+01  1  2 15  2  5  2        1 0.192144584913D-01 0.100000000000D+01
0.309560204291D-04 0.000000000000D+00 0.000000000000D+00 0.251064161634D-02 0.000000000000D+00  5 -2 1 25 -24 21 2 0.68953301D-02 0.11160301D+00 0.34129207D+05 0.34129207D+05 0.34129207D+05 0.12090641D+01  1  2 12  2  5  2        1 0.125447468666D-01 0.100000000000D+01
-.174154442062D-03 0.000000000000D+00 -.108367145072D-03 0.251064161634D-02 0.000000000000D+00  5 -2 1 25 -24 21 2 0.68953301D-02 0.12692549D+00 0.16574383D+05 0.16574383D+05 0.16574383D+05 0.12429111D+01  1  2  5  2  5  2        1 -.609605551281D-01 0.100000000000D+01
0.213080335536D-05 0.000000000000D+00 0.000000000000D+00 0.251064161634D-02 0.000000000000D+00  5 -2 21 25 -24 -1 2 0.68953301D-02 0.11160301D+00 0.34129207D+05 0.34129207D+05 0.34129207D+05 0.12090641D+01  1  2 12  4  5  2        1 0.183190803808D-02 0.100000000000D+01
-.758026875116D-05 0.000000000000D+00 -.892907713060D-05 0.251064161634D-02 0.000000000000D+00  5 -2 21 25 -24 -1 2 0.68953301D-02 0.12692549D+00 0.16574383D+05 0.16574383D+05 0.16574383D+05 0.12429111D+01  1  2  5  4  5  2        1 -.509842600453D-02 0.100000000000D+01
  </mgrwgt>
  </event>
  <event>
  4     66 0.46019439E-03 0.10946934E+03 0.75467711E-02 0.10426779E+00
       -2 -1    0    0    0  501 0.00000000E+00 0.00000000E+00 0.29149540E+02 0.29151297E+02 0.32000000E+00 0.0000E+00 0.9000E+01
        1 -1    0    0  501    0 0.00000000E+00 0.00000000E+00 -.42093989E+03 0.42094002E+03 0.32000000E+00 0.0000E+00 0.9000E+01
       25  1    1    2    0    0 -.22848871E+02 -.29201954E+02 -.19864139E+03 0.23760940E+03 0.12500000E+03 0.0000E+00 0.9000E+01
      -24  1    1    2    0    0 0.22848871E+02 0.29201954E+02 -.19314896E+03 0.21248191E+03 0.80419002E+02 0.0000E+00 0.9000E+01
#aMCatNLO 1  0  0  2  1 0.37359134D+03 0.00000000D+00  -5  5  0 0.00000000D+00 0.00000000D+00 0.00000000D+00 0.00000000D+00 0.00000000D+00
  <mgrwgt>
 0.2663031089D+00    3    2    0
 0.110772862475711D+03 0.000000000000000D+00 0.000000000000000D+00 0.110772862475711D+03
 0.110772862475711D+03 0.000000000000000D+00 0.000000000000000D+00 -.110772862475711D+03
 0.131440794677150D+03 -.228488713256807D+02 -.292019543230213D+02 0.166390338727771D+02
 0.901049302742713D+02 0.228488713256807D+02 0.292019543230213D+02 -.166390338727771D+02
 0.000000000000000D+00 -.000000000000000D+00 0.000000000000000D+00 0.000000000000000D+00
 0.622315357918156D+03 0.000000000000000D+00 0.000000000000000D+00 0.622315357918156D+03
 0.303294939458328D+03 0.000000000000000D+00 0.000000000000000D+00 -.303294939458328D+03
 0.306237959008784D+03 -.183977393336616D+02 -.278462480914497D+03 0.166390338727771D+02
 0.128104066862340D+03 0.250680264478372D+02 -.950693041632859D+02 -.166390338727771D+02
 0.491268271505360D+03 -.667028711417561D+01 0.373531785077783D+03 0.319020418459828D+03
0.242914602488D-03 0.000000000000D+00 0.000000000000D+00 0.293404953692D-02 0.000000000000D+00  5 -2 1 25 -24 21 0 0.44846891D-02 0.64760128D-01 0.11983536D+05 0.11983536D+05 0.11983536D+05 0.12590940D+01  1  2  2  2  5  2        1 0.260707264426D+00 0.100000000000D+01
-.134929565299D-04 0.000000000000D+00 -.932856034439D-06 0.293404953692D-02 0.000000000000D+00  5 -2 1 25 -24 21 2 0.44846891D-02 0.64760128D-01 0.11983536D+05 0.11983536D+05 0.11983536D+05 0.12590940D+01  1  2  3  2  5  2        1 -.229574123819D-01 0.100000000000D+01
0.167818500972D-04 0.000000000000D+00 0.000000000000D+00 0.293404953692D-02 0.000000000000D+00  5 -2 1 25 -24 21 2 0.44846891D-02 0.64760128D-01 0.11983536D+05 0.11983536D+05 0.11983536D+05 0.12590940D+01  1  2 15  2  5  2        1 0.285532568314D-01 0.100000000000D+01
  </mgrwgt>
  </event>
  <event>
  4     66 0.46019439E-03 0.10979309E+03 0.75467711E-02 0.12530055E+00
       -2 -1    0    0    0  501 0.00000000E+00 0.00000000E+00 0.64561319E+01 0.64640575E+01 0.32000000E+00 0.0000E+00 0.9000E+01
        1 -1    0    0  501    0 0.00000000E+00 0.00000000E+00 -.19481579E+04 0.19481580E+04 0.32000000E+00 0.0000E+00 0.9000E+01
       25  1    1    2    0    0 -.36921377E+02 -.89469410E+01 -.13446754E+04 0.13510071E+04 0.12500000E+03 0.0000E+00 0.9000E+01
      -24  1    1    2    0    0 0.36921377E+02 0.89469410E+01 -.59702640E+03 0.60361492E+03 0.80419002E+02 0.0000E+00 0.9000E+01
#aMCatNLO 1  0  0  2  1 0.85979098D+01 0.00000000D+00  -5  5  0 0.00000000D+00 0.00000000D+00 0.00000000D+00 0.00000000D+00 0.00000000D+00
  <mgrwgt>
 0.2449050444D+00    6    2    0
 0.112184384345215D+03 0.000000000000000D+00 0.000000000000000D+00 0.112184384345215D+03
 0.112184384345215D+03 0.000000000000000D+00 0.000000000000000D+00 -.112184384345215D+03
 0.132592269317533D+03 -.369213768495242D+02 -.894694103642830D+01 -.226378899281532D+02
 0.917764993728984D+02 0.369213768495242D+02 0.894694103642830D+01 0.226378899281532D+02
 0.000000000000000D+00 -.000000000000000D+00 -.000000000000000D+00 0.000000000000000D+00
 0.148090249264081D+03 0.000000000000000D+00 0.000000000000000D+00 0.148090249264081D+03
 0.112782613453655D+03 0.000000000000000D+00 0.000000000000000D+00 -.112782613453655D+03
 0.131263929177600D+03 -.323524092977023D+02 -.678724210388670D+01 -.226378899281532D+02
 0.932695169218522D+02 0.401256572449313D+02 0.104615678905335D+02 0.226378899281532D+02
 0.363394166182838D+02 -.777324794722906D+01 -.367432578664683D+01 0.353076358104261D+02
0.385086798553D-03 0.000000000000D+00 0.000000000000D+00 0.285266759507D-02 0.000000000000D+00  5 -2 1 25 -24 21 0 0.99386274D-03 0.29971722D+00 0.12054523D+05 0.12054523D+05 0.12054523D+05 0.12587934D+01  1  2  2  2  5  2        1 0.258977353544D+00 0.100000000000D+01
-.213816354047D-04 0.000000000000D+00 -.147883470213D-05 0.285266759507D-02 0.000000000000D+00  5 -2 1 25 -24 21 2 0.99386274D-03 0.29971722D+00 0.12054523D+05 0.12054523D+05 0.12054523D+05 0.12587934D+01  1  2  3  2  5  2        1 -.227852089856D-01 0.100000000000D+01
0.265846184363D-04 0.000000000000D+00 0.000000000000D+00 0.285266759507D-02 0.000000000000D+00  5 -2 1 25 -24 21 2 0.99386274D-03 0.29971722D+00 0.12054523D+05 0.12054523D+05 0.12054523D+05 0.12587934D+01  1  2 15  2  5  2        1 0.283297360285D-01 0.100000000000D+01
-.184242254813D-04 0.000000000000D+00 0.000000000000D+00 0.285266759507D-02 0.000000000000D+00  5 -2 1 25 -24 21 2 0.99386274D-03 0.29971722D+00 0.12054523D+05 0.12054523D+05 0.12054523D+05 0.12587934D+01  1  2  4  2  5  2        1 -.196336631900D-01 0.100000000000D+01
0.172044067119D-07 0.000000000000D+00 0.000000000000D+00 0.285266759507D-02 0.337019896035D-03  5 -2 1 25 -24 21 2 0.13119596D-02 0.30131548D+00 0.13038851D+05 0.13038851D+05 0.13038851D+05 0.12548200D+01  1  2 11  2  5  2        1 0.120894481601D-04 0.100000000000D+01
0.767817855563D-08 0.000000000000D+00 0.000000000000D+00 0.285266759507D-02 0.390082432459D-06  5 -2 21 25 -24 -1 2 0.13119596D-02 0.30131548D+00 0.13038851D+05 0.13038851D+05 0.13038851D+05 0.12548200D+01  1  2 11  4  5  2        1 0.473755129527D-05 0.100000000000D+01
  </mgrwgt>
  </event>
  <event>
  4     66 0.46019439E-03 0.16885676E+03 0.75467711E-02 0.11346112E+00
       -2 -1    0    0    0  501 0.00000000E+00 0.00000000E+00 0.21114582E+02 0.21117007E+02 0.32000000E+00 0.0000E+00 0.9000E+01
        1 -1    0    0  501    0 0.00000000E+00 0.00000000E+00 -.13548868E+04 0.13548868E+04 0.32000000E+00 0.0000E+00 0.9000E+01
       25  1    1    2    0    0 -.10554576E+03 0.80687185E+02 -.76017595E+03 0.78175623E+03 0.12500000E+03 0.0000E+00 0.9000E+01
      -24  1    1    2    0    0 0.10554576E+03 -.80687185E+02 -.57359624E+03 0.59424759E+03 0.80419002E+02 0.0000E+00 0.9000E+01
#aMCatNLO 1  0  0  1  1 0.88850622D+02 0.00000000D+00  -5  5  0 0.00000000D+00 0.00000000D+00 0.00000000D+00 0.00000000D+00 0.00000000D+00
  <mgrwgt>
 0.3103860495D+00    3    2    0
 0.169143613403620D+03 0.000000000000000D+00 0.000000000000000D+00 0.169143613403620D+03
 0.169143613403620D+03 0.000000000000000D+00 0.000000000000000D+00 -.169143613403620D+03
 0.182679128965441D+03 -.105545763594712D+03 0.806871848913611D+02 -.981499572535054D+01
 0.155608097841799D+03 0.105545763594712D+03 -.806871848913611D+02 0.981499572535054D+01
 0.000000000000000D+00 -.000000000000000D+00 0.000000000000000D+00 -.000000000000000D+00
 0.182244977798190D+03 0.000000000000000D+00 0.000000000000000D+00 0.182244977798190D+03
 0.442868713173193D+03 0.000000000000000D+00 0.000000000000000D+00 -.442868713173193D+03
 0.154002122821064D+03 -.701078677253217D+02 0.554996087852370D+02 -.981499572535054D+01
 0.195758768146205D+03 0.142529416063525D+03 -.106973411496741D+03 0.981499572535054D+01
 0.275352800004114D+03 -.724215483382032D+02 0.514738027115043D+02 -.260623735375003D+03
0.103532367569D-02 0.000000000000D+00 0.000000000000D+00 0.227783272596D-02 0.000000000000D+00  5 -2 1 25 -24 21 0 0.32485866D-02 0.20844431D+00 0.28512605D+05 0.28512605D+05 0.28512605D+05 0.12172231D+01  1  2  2  1  5  1       -2 0.304399855225D+00 0.100000000000D+01
-.575177805010D-04 0.000000000000D+00 -.397591552165D-05 0.227783272596D-02 0.000000000000D+00  5 -2 1 25 -24 21 2 0.32485866D-02 0.20844431D+00 0.28512605D+05 0.28512605D+05 0.28512605D+05 0.12172231D+01  1  2  3  1  5  1       -2 -.250559443879D-01 0.100000000000D+01
0.712595339304D-04 0.000000000000D+00 0.000000000000D+00 0.227783272596D-02 0.000000000000D+00  5 -2 1 25 -24 21 2 0.32485866D-02 0.20844431D+00 0.28512605D+05 0.28512605D+05 0.28512605D+05 0.12172231D+01  1  2 15  1  5  1       -2 0.310421386868D-01 0.100000000000D+01
  </mgrwgt>
  </event>
  <event>
  4     66 0.46019439E-03 0.10541695E+03 0.75467711E-02 0.12202297E+00
       -2 -1    0    0    0  501 0.00000000E+00 0.00000000E+00 0.11596662E+04 0.11596662E+04 0.32000000E+00 0.0000E+00 0.9000E+01
        1 -1    0    0  501    0 0.00000000E+00 0.00000000E+00 -.13508221E+02 0.13512011E+02 0.32000000E+00 0.0000E+00 0.9000E+01
       25  1    1    2    0    0 -.10252297E+02 -.20813152E+02 0.34534847E+03 0.36800661E+03 0.12500000E+03 0.0000E+00 0.9000E+01
      -24  1    1    2    0    0 0.10252297E+02 0.20813152E+02 0.80080949E+03 0.80517163E+03 0.80419002E+02 0.0000E+00 0.9000E+01
#aMCatNLO 1  0  0  1  1 0.52736505D+02 0.00000000D+00  -5  5  0 0.00000000D+00 0.00000000D+00 0.00000000D+00 0.00000000D+00 0.00000000D+00
  <mgrwgt>
 0.1063474971D+00    4    2    0
 0.125168989170456D+03 0.000000000000000D+00 0.000000000000000D+00 0.125168989170456D+03
 0.125168989170456D+03 0.000000000000000D+00 0.000000000000000D+00 -.125168989170456D+03
 0.143459829630065D+03 -.102522970101016D+02 -.208131524866379D+02 -.664637179750878D+02
 0.106878148710847D+03 0.102522970101016D+02 0.208131524866379D+02 0.664637179750878D+02
 0.000000000000000D+00 0.000000000000000D+00 -.000000000000000D+00 -.000000000000000D+00
 0.145376833849229D+03 0.000000000000000D+00 0.000000000000000D+00 0.145376833849229D+03
 0.167736414278759D+03 0.000000000000000D+00 0.000000000000000D+00 -.167736414278759D+03
 0.147334328905192D+03 -.391176592339085D+02 -.116097977127512D+02 -.664637179750878D+02
 0.108498120973458D+03 -.111267914494625D+02 0.276296037859532D+02 0.664637179750878D+02
 0.572807982493376D+02 0.502444506833709D+02 -.160198060732020D+02 -.223595804295300D+02
0.153448623796D-02 0.000000000000D+00 0.000000000000D+00 0.202798415787D-02 0.000000000000D+00  5 -2 1 25 -24 21 0 0.17841048D+00 0.20784827D-02 0.11112733D+05 0.11112733D+05 0.11112733D+05 0.12629528D+01  1  2  2  1  5  1       -2 0.146261589842D+00 0.100000000000D+01
-.821920516975D-04 0.000000000000D+00 -.589283119327D-05 0.202798415787D-02 0.000000000000D+00  5 -2 1 25 -24 21 2 0.17841048D+00 0.20784827D-02 0.11112733D+05 0.11112733D+05 0.11112733D+05 0.12629528D+01  1  2  3  1  5  1       -2 -.124960097069D-01 0.100000000000D+01
0.104875265312D-03 0.000000000000D+00 0.000000000000D+00 0.202798415787D-02 0.000000000000D+00  5 -2 1 25 -24 21 2 0.17841048D+00 0.20784827D-02 0.11112733D+05 0.11112733D+05 0.11112733D+05 0.12629528D+01  1  2 15  1  5  1       -2 0.159446358411D-01 0.100000000000D+01
-.285216714498D-03 0.000000000000D+00 0.000000000000D+00 0.202798415787D-02 0.000000000000D+00  5 -2 1 25 -24 21 2 0.17841048D+00 0.20784827D-02 0.11112733D+05 0.11112733D+05 0.11112733D+05 0.12629528D+01  1  2  4  1  5  1       -2 -.433627188924D-01 0.100000000000D+01
  </mgrwgt>
  </event>
  <event>
  4     66 0.46019439E-03 0.14164529E+03 0.75467711E-02 0.11765920E+00
       -2 -1    0    0    0  501 0.00000000E+00 0.00000000E+00 0.95804614E+02 0.95805148E+02 0.32000000E+00 0.0000E+00 0.9000E+01
        1 -1    0    0  501    0 0.00000000E+00 0.00000000E+00 -.28521603E+03 0.28521621E+03 0.32000000E+00 0.0000E+00 0.9000E+01
       25  1    1    2    0    0 -.96304000E+02 0.20172105E+01 -.20038079E+03 0.25506076E+03 0.12500000E+03 0.0000E+00 0.9000E+01
      -24  1    1    2    0    0 0.96304000E+02 -.20172105E+01 0.10969373E+02 0.12596060E+03 0.80419002E+02 0.0000E+00 0.9000E+01
#aMCatNLO 1  0  0  1  1 0.53619032D+02 0.00000000D+00  -5  5  0 0.00000000D+00 0.00000000D+00 0.00000000D+00 0.00000000D+00 0.00000000D+00
  <mgrwgt>
 0.1434917380D+00    4    2    0
 0.165303199819104D+03 0.000000000000000D+00 0.000000000000000D+00 0.165303199819104D+03
 0.165303199819104D+03 0.000000000000000D+00 0.000000000000000D+00 -.165303199819104D+03
 0.179153179818963D+03 -.963040003210945D+02 0.201721049313918D+01 -.848076188984622D+02
 0.151453219819244D+03 0.963040003210945D+02 -.201721049313918D+01 0.848076188984622D+02
 0.000000000000000D+00 -.000000000000000D+00 0.000000000000000D+00 -.000000000000000D+00
 0.183895844883253D+03 0.000000000000000D+00 0.000000000000000D+00 0.183895844883253D+03
 0.211202087723726D+03 0.000000000000000D+00 0.000000000000000D+00 -.211202087723726D+03
 0.166868047424942D+03 -.704154217715897D+02 -.832354521312453D+01 -.848076188984622D+02
 0.168058201350511D+03 0.120209171082733D+03 -.115657274381665D+02 0.848076188984622D+02
 0.601716838315267D+02 -.497937493111429D+02 0.198892726512910D+02 -.273062428404730D+02
0.712684323930D-03 0.000000000000D+00 0.000000000000D+00 0.174188996600D-02 0.000000000000D+00  5 -2 1 25 -24 21 0 0.14739226D-01 0.43879445D-01 0.20063387D+05 0.20063387D+05 0.20063387D+05 0.12336748D+01  1  2  2  1  5  1       -2 0.200006213029D+00 0.100000000000D+01
-.384451226626D-04 0.000000000000D+00 -.273689545798D-05 0.174188996600D-02 0.000000000000D+00  5 -2 1 25 -24 21 2 0.14739226D-01 0.43879445D-01 0.20063387D+05 0.20063387D+05 0.20063387D+05 0.12336748D+01  1  2  3  1  5  1       -2 -.164205955582D-01 0.100000000000D+01
0.491021202145D-04 0.000000000000D+00 0.000000000000D+00 0.174188996600D-02 0.000000000000D+00  5 -2 1 25 -24 21 2 0.14739226D-01 0.43879445D-01 0.20063387D+05 0.20063387D+05 0.20063387D+05 0.12336748D+01  1  2 15  1  5  1       -2 0.209723887258D-01 0.100000000000D+01
-.142972900214D-03 0.000000000000D+00 0.000000000000D+00 0.174188996600D-02 0.000000000000D+00  5 -2 1 25 -24 21 2 0.14739226D-01 0.43879445D-01 0.20063387D+05 0.20063387D+05 0.20063387D+05 0.12336748D+01  1  2  4  1  5  1       -2 -.610662681661D-01 0.100000000000D+01
  </mgrwgt>
  </event>
  <event>
  4     66 0.46019439E-03 0.89423259E+02 0.75467711E-02 0.11438841E+00
       -2 -1    0    0    0  501 0.00000000E+00 0.00000000E+00 0.19988372E+02 0.19990933E+02 0.32000000E+00 0.0000E+00 0.9000E+01
        1 -1    0    0  501    0 0.00000000E+00 0.00000000E+00 -.15285369E+04 0.15285369E+04 0.32000000E+00 0.0000E+00 0.9000E+01
       25  1    1    2    0    0 -.51070039E+02 0.10790493E+03 -.11371530E+04 0.11502146E+04 0.12500000E+03 0.0000E+00 0.9000E+01
      -24  1    1    2    0    0 0.51070039E+02 -.10790493E+03 -.37139552E+03 0.39831328E+03 0.80419002E+02 0.0000E+00 0.9000E+01
#aMCatNLO 1  0  0  1  2 0.87108300D+02 0.00000000D+00  -5  5  0 0.00000000D+00 0.00000000D+00 0.00000000D+00 0.00000000D+00 0.00000000D+00
  <mgrwgt>
 0.1198877104D+00    7    2    0
 0.174799806647339D+03 0.000000000000000D+00 0.000000000000000D+00 0.174799806647339D+03
 0.174799806647339D+03 0.000000000000000D+00 0.000000000000000D+00 -.174799806647339D+03
 0.187897338362728D+03 -.510700386601434D+02 0.107904931962683D+03 -.736802997630817D+02
 0.161702274931950D+03 0.510700386601434D+02 -.107904931962683D+03 0.736802997630817D+02
 0.000000000000000D+00 0.000000000000000D+00 -.000000000000000D+00 0.000000000000000D+00
 0.349015893618374D+03 0.000000000000000D+00 0.000000000000000D+00 0.349015893618374D+03
 0.191377378042435D+03 0.000000000000000D+00 0.000000000000000D+00 -.191377378042435D+03
 0.216132701499642D+03 -.964334572949183D+02 0.127906787929746D+03 -.736802997630817D+02
 0.144155718526698D+03 0.167291163743073D+02 -.927631679155874D+02 0.736802997630817D+02
 0.180104851634469D+03 0.797043409206109D+02 -.351436200141585D+02 0.157638515575939D+03
0.750066592205D-03 0.000000000000D+00 0.000000000000D+00 0.188142182189D-02 0.000000000000D+00  5 -2 1 25 -24 21 0 0.30753337D-02 0.23515972D+00 0.25088811D+05 0.25088811D+05 0.25088811D+05 0.12231326D+01  1  2  2  1  5  1       -2 0.183702164666D+00 0.100000000000D+01
-.411782743623D-04 0.000000000000D+00 -.288045321114D-05 0.188142182189D-02 0.000000000000D+00  5 -2 1 25 -24 21 2 0.30753337D-02 0.23515972D+00 0.25088811D+05 0.25088811D+05 0.25088811D+05 0.12231326D+01  1  2  3  1  5  1       -2 -.150879296703D-01 0.100000000000D+01
0.516473985255D-04 0.000000000000D+00 0.000000000000D+00 0.188142182189D-02 0.000000000000D+00  5 -2 1 25 -24 21 2 0.30753337D-02 0.23515972D+00 0.25088811D+05 0.25088811D+05 0.25088811D+05 0.12231326D+01  1  2 15  1  5  1       -2 0.189238701396D-01 0.100000000000D+01
0.460712478920D-03 0.000000000000D+00 0.000000000000D+00 0.188142182189D-02 0.000000000000D+00  5 -2 1 25 -24 21 2 0.61493952D-02 0.23515972D+00 0.42889964D+05 0.42889964D+05 0.42889964D+05 0.11989359D+01  1  2 12  1  5  1       -2 0.571652549201D-01 0.100000000000D+01
-.811414379658D-03 0.000000000000D+00 -.207333543234D-03 0.188142182189D-02 0.000000000000D+00  5 -2 1 25 -24 21 2 0.67551702D-02 0.23515972D+00 0.25088811D+05 0.25088811D+05 0.25088811D+05 0.12231326D+01  1  2  5  1  5  1       -2 -.911853884791D-01 0.100000000000D+01
0.345434299601D-04 0.000000000000D+00 0.000000000000D+00 0.188142182189D-02 0.000000000000D+00  5 21 1 25 -24 2 2 0.61493952D-02 0.23515972D+00 0.42889964D+05 0.42889964D+05 0.42889964D+05 0.11989359D+01  1  2 12  3  5  1       -2 0.727664487700D-01 0.100000000000D+01
-.561443664413D-04 0.000000000000D+00 -.176818152737D-04 0.188142182189D-02 0.000000000000D+00  5 21 1 25 -24 2 2 0.67551702D-02 0.23515972D+00 0.25088811D+05 0.25088811D+05 0.25088811D+05 0.12231326D+01  1  2  5  3  5  1       -2 -.106396709921D+00 0.100000000000D+01
  </mgrwgt>
  </event>
  <event>
  4     66 0.46019439E-03 0.11536043E+03 0.75467711E-02 0.10230417E+00
       -2 -1    0    0    0  501 0.00000000E+00 0.00000000E+00 0.12766649E+03 0.12766689E+03 0.32000000E+00 0.0000E+00 0.9000E+01
        1 -1    0    0  501    0 0.00000000E+00 0.00000000E+00 -.11637242E+03 0.11637286E+03 0.32000000E+00 0.0000E+00 0.9000E+01
       25  1    1    2    0    0 -.34943124E+02 0.37878287E+02 -.32355704E+02 0.13902402E+03 0.12500000E+03 0.0000E+00 0.9000E+01
      -24  1    1    2    0    0 0.34943124E+02 -.37878287E+02 0.43649773E+02 0.10501574E+03 0.80419002E+02 0.0000E+00 0.9000E+01
#aMCatNLO 1  0  0  1  2 0.43757085D+03 0.00000000D+00  -5  5  0 0.00000000D+00 0.00000000D+00 0.00000000D+00 0.00000000D+00 0.00000000D+00
  <mgrwgt>
 0.1916278621D+00    5    2    0
 0.121889137442281D+03 0.000000000000000D+00 0.000000000000000D+00 0.121889137442281D+03
 0.121889137442281D+03 0.000000000000000D+00 0.000000000000000D+00 -.121889137442281D+03
 0.140672156663264D+03 -.349431240439891D+02 0.378782869497521D+02 -.388312904767862D+02
 0.103106118221299D+03 0.349431240439891D+02 -.378782869497521D+02 0.388312904767862D+02
 0.000000000000000D+00 -.000000000000000D+00 -.000000000000000D+00 0.000000000000000D+00
 0.120311117191646D+04 0.000000000000000D+00 0.000000000000000D+00 0.120311117191646D+04
 0.300693155543215D+03 0.000000000000000D+00 0.000000000000000D+00 -.300693155543215D+03
 0.305134680375832D+03 0.123759304134807D+03 0.246288324303117D+03 -.388312904767862D+02
 0.195760615244839D+03 0.141336459368233D+03 0.101838787599944D+03 0.388312904767862D+02
 0.100290903183901D+04 -.265095763503040D+03 -.348127111903061D+03 0.902418016373249D+03
0.352315769652D-03 0.000000000000D+00 0.000000000000D+00 0.250606731124D-02 0.000000000000D+00  5 -2 1 25 -24 21 0 0.19641064D-01 0.17903515D-01 0.13308030D+05 0.13308030D+05 0.13308030D+05 0.12537919D+01  1  2  2  1  5  1       -2 0.186024269561D+00 0.100000000000D+01
-.195009770476D-04 0.000000000000D+00 -.135298532234D-05 0.250606731124D-02 0.000000000000D+00  5 -2 1 25 -24 21 2 0.19641064D-01 0.17903515D-01 0.13308030D+05 0.13308030D+05 0.13308030D+05 0.12537919D+01  1  2  3  1  5  1       -2 -.161861973702D-01 0.100000000000D+01
0.243575372797D-04 0.000000000000D+00 0.000000000000D+00 0.250606731124D-02 0.000000000000D+00  5 -2 1 25 -24 21 2 0.19641064D-01 0.17903515D-01 0.13308030D+05 0.13308030D+05 0.13308030D+05 0.12537919D+01  1  2 15  1  5  1       -2 0.202172385978D-01 0.100000000000D+01
0.555350794301D-03 0.000000000000D+00 -.360161750197D-03 0.250606731124D-02 0.000000000000D+00  5 -2 1 25 -24 21 2 0.33750711D+00 0.17903515D-01 0.13308030D+05 0.13308030D+05 0.13308030D+05 0.12537919D+01  1  2  5  1  5  1       -2 0.539520856906D-03 0.100000000000D+01
0.881618985206D-04 0.000000000000D+00 -.112875373562D-03 0.250606731124D-02 0.000000000000D+00  5 21 1 25 -24 2 2 0.33750711D+00 0.17903515D-01 0.13308030D+05 0.13308030D+05 0.13308030D+05 0.12537919D+01  1  2  5  3  5  1       -2 0.103303041074D-02 0.100000000000D+01
  </mgrwgt>
  </event>
  <event>
  4     66 0.46019439E-03 0.11918716E+03 0.75467711E-02 0.10812984E+00
       -2 -1    0    0    0  501 0.00000000E+00 0.00000000E+00 0.10659070E+03 0.10659118E+03 0.32000000E+00 0.0000E+00 0.9000E+01
        1 -1    0    0  501    0 0.00000000E+00 0.00000000E+00 -.18414080E+03 0.18414108E+03 0.32000000E+00 0.0000E+00 0.9000E+01
       25  1    1    2    0    0 -.55019856E+02 -.22388990E+02 -.11898034E+03 0.18250965E+03 0.12500000E+03 0.0000E+00 0.9000E+01
      -24  1    1    2    0    0 0.55019856E+02 0.22388990E+02 0.41430249E+02 0.10822261E+03 0.80419002E+02 0.0000E+00 0.9000E+01
#aMCatNLO 1  0  0  2  2 0.26597193D+03 0.00000000D+00  -5  5  0 0.00000000D+00 0.00000000D+00 0.00000000D+00 0.00000000D+00 0.00000000D+00
  <mgrwgt>
 0.2003310043D+00    5    2    0
 0.140099278006795D+03 0.000000000000000D+00 0.000000000000000D+00 0.140099278006795D+03
 0.140099278006795D+03 0.000000000000000D+00 0.000000000000000D+00 -.140099278006795D+03
 0.156440875508077D+03 -.550198556360092D+02 -.223889899082547D+02 -.729403602021168D+02
 0.123757680505512D+03 0.550198556360092D+02 0.223889899082547D+02 0.729403602021168D+02
 0.000000000000000D+00 0.000000000000000D+00 0.000000000000000D+00 -.000000000000000D+00
 0.284620074210167D+03 0.000000000000000D+00 0.000000000000000D+00 0.284620074210167D+03
 0.386544434425304D+03 0.000000000000000D+00 0.000000000000000D+00 -.386544434425304D+03
 0.272040016408965D+03 -.215763502258579D+03 -.806634085226214D+02 -.729403602021168D+02
 0.114291834103401D+03 -.342838864369929D+02 -.998630926366818D+01 0.729403602021168D+02
 0.284832658123105D+03 0.250047388695572D+03 0.906497177862896D+02 -.101924360215137D+03
0.409395410518D-03 0.000000000000D+00 0.000000000000D+00 0.188929876439D-02 0.000000000000D+00  5 -2 1 25 -24 21 0 0.16398628D-01 0.28329412D-01 0.14205580D+05 0.14205580D+05 0.14205580D+05 0.12505257D+01  1  2  2  2  5  2        1 0.164242558967D+00 0.100000000000D+01
-.220215247386D-04 0.000000000000D+00 -.157218617268D-05 0.188929876439D-02 0.000000000000D+00  5 -2 1 25 -24 21 2 0.16398628D-01 0.28329412D-01 0.14205580D+05 0.14205580D+05 0.14205580D+05 0.12505257D+01  1  2  3  2  5  2        1 -.138157778587D-01 0.100000000000D+01
0.279996005065D-04 0.000000000000D+00 0.000000000000D+00 0.188929876439D-02 0.000000000000D+00  5 -2 1 25 -24 21 2 0.16398628D-01 0.28329412D-01 0.14205580D+05 0.14205580D+05 0.14205580D+05 0.12505257D+01  1  2 15  2  5  2        1 0.175662795979D-01 0.100000000000D+01
0.323262026108D-03 0.000000000000D+00 -.214052293829D-03 0.188929876439D-02 0.000000000000D+00  5 -2 1 25 -24 21 2 0.16398628D-01 0.14116526D+00 0.14205580D+05 0.14205580D+05 0.14205580D+05 0.12505257D+01  1  2  5  2  5  2        1 0.246877589629D-01 0.100000000000D+01
0.573215674669D-04 0.000000000000D+00 -.418898620451D-04 0.188929876439D-02 0.000000000000D+00  5 -2 21 25 -24 -1 2 0.16398628D-01 0.14116526D+00 0.14205580D+05 0.14205580D+05 0.14205580D+05 0.12505257D+01  1  2  5  4  5  2        1 0.765018458890D-02 0.100000000000D+01
  </mgrwgt>
  </event>
  <event>
  4     66 0.46019439E-03 0.67057007E+02 0.75467711E-02 0.12295928E+00
       -4 -1    0    0    0  501 0.00000000E+00 0.00000000E+00 0.15679650E+02 0.15756075E+02 0.15500000E+01 0.0000E+00 0.9000E+01
        3 -1    0    0  501    0 0.00000000E+00 0.00000000E+00 -.84896416E+03 0.84896431E+03 0.50000000E+00 0.0000E+00 0.9000E+01
       25  1    1    2    0    0 -.28567685E+02 -.11109930E+02 -.64477055E+03 0.65749038E+03 0.12500000E+03 0.0000E+00 0.9000E+01
      -24  1    1    2    0    0 0.28567685E+02 0.11109930E+02 -.18851396E+03 0.20723000E+03 0.80419002E+02 0.0000E+00 0.9000E+01
#aMCatNLO 1  0  0  2  1 0.38688492D+02 0.00000000D+00  -5  5  0 0.00000000D+00 0.00000000D+00 0.00000000D+00 0.00000000D+00 0.00000000D+00
  <mgrwgt>
 0.1463048536D-01    6    2    0
 0.115518683519285D+03 0.000000000000000D+00 0.000000000000000D+00 0.115518683519285D+03
 0.115518683519285D+03 0.000000000000000D+00 0.000000000000000D+00 -.115518683519285D+03
 0.135337520971887D+03 -.285676846562371D+02 -.111099297224974D+02 -.418533324570342D+02
 0.956998460666819D+02 0.285676846562371D+02 0.111099297224974D+02 0.418533324570342D+02
 0.000000000000000D+00 -.000000000000000D+00 -.000000000000000D+00 0.000000000000000D+00
 0.136689802171020D+03 0.000000000000000D+00 0.000000000000000D+00 0.136689802171020D+03
 0.136255401655762D+03 0.000000000000000D+00 0.000000000000000D+00 -.136255401655762D+03
 0.132784316674252D+03 -.146647846938283D+02 0.631802237829990D+01 -.418533324570342D+02
 0.101469956277737D+03 0.387915144705777D+02 0.239259908876356D+02 0.418533324570342D+02
 0.386909308747932D+02 -.241267297767494D+02 -.302440132659355D+02 0.434400515258192D+00
0.215089906824D-03 0.000000000000D+00 0.000000000000D+00 0.255311725246D-02 0.000000000000D+00  5 -4 3 25 -24 21 0 0.24181440D-02 0.13061576D+00 0.11531092D+05 0.11531092D+05 0.11531092D+05 0.12610580D+01  1  2  2  2  5  2        3 0.148817673150D-01 0.100000000000D+01
-.118719493955D-04 0.000000000000D+00 -.826001876678D-06 0.255311725246D-02 0.000000000000D+00  5 -4 3 25 -24 21 2 0.24181440D-02 0.13061576D+00 0.11531092D+05 0.11531092D+05 0.11531092D+05 0.12610580D+01  1  2  3  2  5  2        3 -.130625098166D-02 0.100000000000D+01
0.147049845979D-04 0.000000000000D+00 0.000000000000D+00 0.255311725246D-02 0.000000000000D+00  5 -4 3 25 -24 21 2 0.24181440D-02 0.13061576D+00 0.11531092D+05 0.11531092D+05 0.11531092D+05 0.12610580D+01  1  2 15  2  5  2        3 0.161796516531D-02 0.100000000000D+01
0.129601665412D-03 0.000000000000D+00 0.000000000000D+00 0.255311725246D-02 0.000000000000D+00  5 -4 3 25 -24 21 2 0.24181440D-02 0.16403084D+00 0.16530303D+05 0.16530303D+05 0.16530303D+05 0.12430414D+01  1  2 12  2  5  2        3 0.816036701220D-02 0.100000000000D+01
-.122015685941D-03 0.000000000000D+00 0.000000000000D+00 0.255311725246D-02 0.000000000000D+00  5 -4 3 25 -24 21 2 0.24181440D-02 0.13061576D+00 0.11531092D+05 0.11531092D+05 0.11531092D+05 0.12610580D+01  1  2  4  2  5  2        3 -.134251843761D-01 0.100000000000D+01
0.409316510659D-05 0.000000000000D+00 0.000000000000D+00 0.255311725246D-02 0.000000000000D+00  5 -4 21 25 -24 -3 2 0.24181440D-02 0.16403084D+00 0.16530303D+05 0.16530303D+05 0.16530303D+05 0.12430414D+01  1  2 12  4  5  2        3 0.470182122458D-02 0.100000000000D+01
  </mgrwgt>
  </event>
  <event>
  4     66 0.46019439E-03 0.32004958E+03 0.75467711E-02 0.93630663E-01
       -2 -1    0    0    0  501 0.00000000E+00 0.00000000E+00 0.58213651E+02 0.58214531E+02 0.32000000E+00 0.0000E+00 0.9000E+01
        1 -1    0    0  501    0 0.00000000E+00 0.00000000E+00 -.17613973E+04 0.17613973E+04 0.32000000E+00 0.0000E+00 0.9000E+01
       25  1    1    2    0    0 -.51878939E+02 0.29790162E+03 -.84129789E+03 0.90268706E+03 0.12500000E+03 0.0000E+00 0.9000E+01
      -24  1    1    2    0    0 0.51878939E+02 -.29790162E+03 -.86188573E+03 0.91692477E+03 0.80419002E+02 0.0000E+00 0.9000E+01
#aMCatNLO 1  0  0  2  1 0.84421044D+03 0.00000000D+00  -5  5  0 0.00000000D+00 0.00000000D+00 0.00000000D+00 0.00000000D+00 0.00000000D+00
  <mgrwgt>
 0.4026332377D+00    3    2    0
 0.320215853733814D+03 0.000000000000000D+00 0.000000000000000D+00 0.320215853733814D+03
 0.320215853733814D+03 0.000000000000000D+00 0.000000000000000D+00 -.320215853733814D+03
 0.327365549742652D+03 -.518789385181517D+02 0.297901617924687D+03 0.103152767482185D+02
 0.313066157724976D+03 0.518789385181517D+02 -.297901617924687D+03 -.103152767482185D+02
 0.000000000000000D+00 -.000000000000000D+00 0.000000000000000D+00 0.000000000000000D+00
 0.164634549884359D+04 0.000000000000000D+00 0.000000000000000D+00 0.164634549884359D+04
 0.689399841067762D+03 0.000000000000000D+00 0.000000000000000D+00 -.689399841067762D+03
 0.243868529117006D+03 0.170243325640158D+03 0.121481128716681D+03 0.103152767482185D+02
 0.815774829327916D+03 0.490824591794717D+03 -.646533967681341D+03 -.103152767482185D+02
 0.127610198146643D+04 -.661067917434875D+03 0.525052838964661D+03 0.956945657775824D+03
0.118749962246D-01 0.000000000000D+00 0.000000000000D+00 0.199297108671D-02 0.000000000000D+00  5 -2 1 25 -24 21 0 0.89560162D-02 0.27098427D+00 0.10243173D+06 0.10243173D+06 0.10243173D+06 0.11626143D+01  1  2  2  2  5  2        1 0.395724721586D+00 0.100000000000D+01
-.659721796095D-03 0.000000000000D+00 -.456031122607D-04 0.199297108671D-02 0.000000000000D+00  5 -2 1 25 -24 21 2 0.89560162D-02 0.27098427D+00 0.10243173D+06 0.10243173D+06 0.10243173D+06 0.11626143D+01  1  2  3  2  5  2        1 -.297161046611D-01 0.100000000000D+01
0.813096497461D-03 0.000000000000D+00 0.000000000000D+00 0.199297108671D-02 0.000000000000D+00  5 -2 1 25 -24 21 2 0.89560162D-02 0.27098427D+00 0.10243173D+06 0.10243173D+06 0.10243173D+06 0.11626143D+01  1  2 15  2  5  2        1 0.366246208040D-01 0.100000000000D+01
  </mgrwgt>
  </event>
  <event>
  4     66 0.46019439E-03 0.11796323E+03 0.75467711E-02 0.11095577E+00
       -2 -1    0    0    0  501 0.00000000E+00 0.00000000E+00 0.23585733E+02 0.23587904E+02 0.32000000E+00 0.0000E+00 0.9000E+01
        1 -1    0    0  501    0 0.00000000E+00 0.00000000E+00 -.66206872E+03 0.66206879E+03 0.32000000E+00 0.0000E+00 0.9000E+01
       25  1    1    2    0    0 0.28172811E+02 0.49519532E+02 -.47781269E+03 0.49716784E+03 0.12500000E+03 0.0000E+00 0.9000E+01
      -24  1    1    2    0    0 -.28172811E+02 -.49519532E+02 -.16067029E+03 0.18848886E+03 0.80419002E+02 0.0000E+00 0.9000E+01
#aMCatNLO 1  0  0  1  2 0.20161901D+03 0.00000000D+00  -5  5  0 0.00000000D+00 0.00000000D+00 0.00000000D+00 0.00000000D+00 0.00000000D+00
  <mgrwgt>
 0.2409148580D+00    5    2    0
 0.124964581903379D+03 0.000000000000000D+00 0.000000000000000D+00 0.124964581903379D+03
 0.124964581903379D+03 0.000000000000000D+00 0.000000000000000D+00 -.124964581903379D+03
 0.143285341085989D+03 0.281728111664187D+02 0.495195320025390D+02 -.407406140277605D+02
 0.106643822720768D+03 -.281728111664187D+02 -.495195320025390D+02 0.407406140277605D+02
 0.000000000000000D+00 0.000000000000000D+00 0.000000000000000D+00 0.000000000000000D+00
 0.279519610209667D+03 0.000000000000000D+00 0.000000000000000D+00 0.279519610209667D+03
 0.245984292199797D+03 0.000000000000000D+00 0.000000000000000D+00 -.245984292199797D+03
 0.140471089493231D+03 -.462540541912711D+02 -.175468465237298D+02 -.407406140277605D+02
 0.180643862524506D+03 -.103525894178587D+03 -.117420529365896D+03 0.407406140277605D+02
 0.204388950391727D+03 0.149779948369858D+03 0.134967375889626D+03 0.335353180098694D+02
0.234922555976D-03 0.000000000000D+00 0.000000000000D+00 0.244536151711D-02 0.000000000000D+00  5 -2 1 25 -24 21 0 0.36287473D-02 0.10185690D+00 0.13915324D+05 0.13915324D+05 0.13915324D+05 0.12515559D+01  1  2  2  1  5  1       -2 0.191130440848D+00 0.100000000000D+01
-.129985005449D-04 0.000000000000D+00 -.902164471477D-06 0.244536151711D-02 0.000000000000D+00  5 -2 1 25 -24 21 2 0.36287473D-02 0.10185690D+00 0.13915324D+05 0.13915324D+05 0.13915324D+05 0.12515559D+01  1  2  3  1  5  1       -2 -.165652859209D-01 0.100000000000D+01
0.162279891005D-04 0.000000000000D+00 0.000000000000D+00 0.244536151711D-02 0.000000000000D+00  5 -2 1 25 -24 21 2 0.36287473D-02 0.10185690D+00 0.13915324D+05 0.13915324D+05 0.13915324D+05 0.12515559D+01  1  2 15  1  5  1       -2 0.206809453477D-01 0.100000000000D+01
0.101996632026D-03 0.000000000000D+00 -.806975901607D-04 0.244536151711D-02 0.000000000000D+00  5 -2 1 25 -24 21 2 0.16248652D-01 0.10185690D+00 0.13915324D+05 0.13915324D+05 0.13915324D+05 0.12515559D+01  1  2  5  1  5  1       -2 0.128700840788D-01 0.100000000000D+01
0.178452083638D-04 0.000000000000D+00 -.146207895507D-04 0.244536151711D-02 0.000000000000D+00  5 21 1 25 -24 2 2 0.16248652D-01 0.10185690D+00 0.13915324D+05 0.13915324D+05 0.13915324D+05 0.12515559D+01  1  2  5  3  5  1       -2 0.327986736550D-01 0.100000000000D+01
  </mgrwgt>
  </event>
  <event>
  5     66 0.46019439E-03 0.17335406E+03 0.75467711E-02 0.11484356E+00
       21 -1    0    0  502  501 0.00000000E+00 0.00000000E+00 0.19263466E+03 0.19263612E+03 0.75000000E+00 0.0000E+00 0.9000E+01
        1 -1    0    0  501    0 0.00000000E+00 0.00000000E+00 -.23363476E+03 0.23363498E+03 0.32000000E+00 0.0000E+00 0.9000E+01
       25  1    1    2    0    0 0.14098852E+03 0.70787832E+01 -.32368386E+02 0.19131279E+03 0.12500000E+03 0.0000E+00 0.9000E+01
      -24  1    1    2    0    0 -.13341520E+03 0.44823502E+02 -.48359540E+02 0.16915858E+03 0.80419002E+02 0.0000E+00 0.9000E+01
        2  1    1    2  502    0 -.75733118E+01 -.51902285E+02 0.39727824E+02 0.65799731E+02 0.32000000E+00 0.0000E+00 0.9000E+01
#aMCatNLO 2  0  0  1  2 0.52451904D+02 0.00000000D+00  -5  5  0 0.00000000D+00 0.00000000D+00 0.00000000D+00 0.00000000D+00 0.00000000D+00
  <mgrwgt>
 0.2042721516D-01    2    2    0
 0.173688949840774D+03 0.000000000000000D+00 0.000000000000000D+00 0.173688949840774D+03
 0.173688949840774D+03 0.000000000000000D+00 0.000000000000000D+00 -.173688949840774D+03
 0.186870249016722D+03 0.136915873229026D+03 -.208323169361365D+02 0.107493347039380D+02
 0.160507650664827D+03 -.136915873229026D+03 0.208323169361365D+02 -.107493347039380D+02
 0.000000000000000D+00 -.000000000000000D+00 -.000000000000000D+00 0.000000000000000D+00
 0.241920692636464D+03 0.000000000000000D+00 0.000000000000000D+00 0.241920692636464D+03
 0.186037639763505D+03 0.000000000000000D+00 0.000000000000000D+00 -.186037639763505D+03
 0.188860845565960D+03 0.140988515913931D+03 0.707878320754412D+01 0.107493347039380D+02
 0.162454692763475D+03 -.133415204148326D+03 0.448235022280461D+02 -.107493347039380D+02
 0.766427940705348D+02 -.757331176560482D+01 -.519022854355902D+02 0.558830528729586D+02
-.378269978876D-04 0.000000000000D+00 0.000000000000D+00 0.225423865098D-02 0.000000000000D+00  5 21 1 25 -24 2 2 0.30164301D-01 0.33558016D-01 0.40623464D+05 0.40623464D+05 0.40623464D+05 0.12013188D+01  1  2 13  3  5  1       -2 -.820045647991D-01 0.100000000000D+01
0.497527077611D-04 0.000000000000D+00 0.000000000000D+00 0.225423865098D-02 0.307405116487D-06  5 21 1 25 -24 2 2 0.29636179D-01 0.35943876D-01 0.40623464D+05 0.40623464D+05 0.40623464D+05 0.12013188D+01  1  2  1  3  5  1       -2 0.102431779954D+00 0.100000000000D+01
  </mgrwgt>
  </event>
  <event>
  4     66 0.46019439E-03 0.14938625E+03 0.75467711E-02 0.11419193E+00
       -2 -1    0    0    0  501 0.00000000E+00 0.00000000E+00 0.69114018E+02 0.69114759E+02 0.32000000E+00 0.0000E+00 0.9000E+01
        1 -1    0    0  501    0 0.00000000E+00 0.00000000E+00 -.45266053E+03 0.45266064E+03 0.32000000E+00 0.0000E+00 0.9000E+01
       25  1    1    2    0    0 -.37803575E+02 0.10037884E+03 -.34496956E+03 0.38227480E+03 0.12500000E+03 0.0000E+00 0.9000E+01
      -24  1    1    2    0    0 0.37803575E+02 -.10037884E+03 -.38576946E+02 0.13950060E+03 0.80419002E+02 0.0000E+00 0.9000E+01
#aMCatNLO 1  0  0  1  2 0.10291204D+03 0.00000000D+00  -5  5  0 0.00000000D+00 0.00000000D+00 0.00000000D+00 0.00000000D+00 0.00000000D+00
  <mgrwgt>
 0.1204464054D+00    4    2    0
 0.176876822907148D+03 0.000000000000000D+00 0.000000000000000D+00 0.176876822907148D+03
 0.176876822907148D+03 0.000000000000000D+00 0.000000000000000D+00 -.176876822907148D+03
 0.189820553882061D+03 -.378035748602985D+02 0.100378836705765D+03 -.943494649983325D+02
 0.163933091932236D+03 0.378035748602985D+02 -.100378836705765D+03 0.943494649983325D+02
 0.000000000000000D+00 -.000000000000000D+00 0.000000000000000D+00 -.000000000000000D+00
 0.234849274817223D+03 0.000000000000000D+00 0.000000000000000D+00 0.234849274817223D+03
 0.236494884857836D+03 0.000000000000000D+00 0.000000000000000D+00 -.236494884857836D+03
 0.174148867079871D+03 0.784765365116989D+01 0.757589644326160D+02 -.943494649983325D+02
 0.194270093487836D+03 0.827315675139942D+02 -.124608665270950D+03 0.943494649983325D+02
 0.102925199107353D+03 -.905792211651641D+02 0.488497008383341D+02 -.164561004061317D+01
0.708824044088D-03 0.000000000000D+00 0.000000000000D+00 0.164755246626D-02 0.000000000000D+00  5 -2 1 25 -24 21 0 0.10632991D-01 0.69640147D-01 0.22316253D+05 0.22316253D+05 0.22316253D+05 0.12286208D+01  1  2  2  1  5  1       -2 0.188659717409D+00 0.100000000000D+01
-.380129555171D-04 0.000000000000D+00 -.272207096696D-05 0.164755246626D-02 0.000000000000D+00  5 -2 1 25 -24 21 2 0.10632991D-01 0.69640147D-01 0.22316253D+05 0.22316253D+05 0.22316253D+05 0.12286208D+01  1  2  3  1  5  1       -2 -.152724289873D-01 0.100000000000D+01
0.487875571981D-04 0.000000000000D+00 0.000000000000D+00 0.164755246626D-02 0.000000000000D+00  5 -2 1 25 -24 21 2 0.10632991D-01 0.69640147D-01 0.22316253D+05 0.22316253D+05 0.22316253D+05 0.12286208D+01  1  2 15  1  5  1       -2 0.196013304578D-01 0.100000000000D+01
-.180556998355D-03 0.000000000000D+00 0.000000000000D+00 0.164755246626D-02 0.000000000000D+00  5 -2 1 25 -24 21 2 0.10632991D-01 0.69640147D-01 0.22316253D+05 0.22316253D+05 0.22316253D+05 0.12286208D+01  1  2  4  1  5  1       -2 -.725422135169D-01 0.100000000000D+01
  </mgrwgt>
  </event>
  <event>
  4     66 0.46019439E-03 0.12955421E+03 0.75467711E-02 0.11066305E+00
       -2 -1    0    0    0  501 0.00000000E+00 0.00000000E+00 0.46538651E+02 0.46539751E+02 0.32000000E+00 0.0000E+00 0.9000E+01
        1 -1    0    0  501    0 0.00000000E+00 0.00000000E+00 -.39513033E+03 0.39513046E+03 0.32000000E+00 0.0000E+00 0.9000E+01
       25  1    1    2    0    0 -.37469123E+02 -.68165535E+02 -.13131415E+03 0.19727869E+03 0.12500000E+03 0.0000E+00 0.9000E+01
      -24  1    1    2    0    0 0.37469123E+02 0.68165535E+02 -.21727753E+03 0.24439152E+03 0.80419002E+02 0.0000E+00 0.9000E+01
#aMCatNLO 1  0  0  2  2 0.19809473D+03 0.00000000D+00  -5  5  0 0.00000000D+00 0.00000000D+00 0.00000000D+00 0.00000000D+00 0.00000000D+00
  <mgrwgt>
 0.1922432751D+00    5    2    0
 0.135606431736928D+03 0.000000000000000D+00 0.000000000000000D+00 0.135606431736928D+03
 0.135606431736928D+03 0.000000000000000D+00 0.000000000000000D+00 -.135606431736928D+03
 0.152489451089939D+03 -.374691229884471D+02 -.681655351120449D+02 0.397184760417130D+02
 0.118723412383916D+03 0.374691229884471D+02 0.681655351120449D+02 -.397184760417130D+02
 0.000000000000000D+00 0.000000000000000D+00 0.000000000000000D+00 -.000000000000000D+00
 0.175278015162684D+03 0.000000000000000D+00 0.000000000000000D+00 0.175278015162684D+03
 0.150249264436281D+04 0.000000000000000D+00 0.000000000000000D+00 -.150249264436281D+04
 0.243500891385499D+03 -.665230099747630D+02 -.194074253599889D+03 0.397184760417130D+02
 0.923531554465633D+02 0.219823949312178D+02 0.105182725691797D+01 -.397184760417130D+02
 0.134191661269343D+04 0.445406150435452D+02 0.193022426342971D+03 -.132721462920013D+04
0.327294067023D-03 0.000000000000D+00 0.000000000000D+00 0.235386865687D-02 0.000000000000D+00  5 -2 1 25 -24 21 0 0.71598871D-02 0.60789377D-01 0.16784294D+05 0.16784294D+05 0.16784294D+05 0.12422960D+01  1  2  2  2  5  2        1 0.190213572691D+00 0.100000000000D+01
-.181369176836D-04 0.000000000000D+00 -.125689539588D-05 0.235386865687D-02 0.000000000000D+00  5 -2 1 25 -24 21 2 0.71598871D-02 0.60789377D-01 0.16784294D+05 0.16784294D+05 0.16784294D+05 0.12422960D+01  1  2  3  2  5  2        1 -.162673591302D-01 0.100000000000D+01
0.225691634619D-04 0.000000000000D+00 0.000000000000D+00 0.235386865687D-02 0.000000000000D+00  5 -2 1 25 -24 21 2 0.71598871D-02 0.60789377D-01 0.16784294D+05 0.16784294D+05 0.16784294D+05 0.12422960D+01  1  2 15  2  5  2        1 0.202427277726D-01 0.100000000000D+01
-.230946990313D-02 0.000000000000D+00 -.319001675000D-03 0.235386865687D-02 0.000000000000D+00  5 -2 1 25 -24 21 2 0.71598871D-02 0.68771344D+00 0.16784294D+05 0.16784294D+05 0.16784294D+05 0.12422960D+01  1  2  5  2  5  2        1 -.187501263076D-02 0.100000000000D+01
-.714534882941D-03 0.000000000000D+00 -.907675461191D-04 0.235386865687D-02 0.000000000000D+00  5 -2 21 25 -24 -1 2 0.71598871D-02 0.68771344D+00 0.16784294D+05 0.16784294D+05 0.16784294D+05 0.12422960D+01  1  2  5  4  5  2        1 -.706535843609D-04 0.100000000000D+01
  </mgrwgt>
  </event>
  <event>
  4     66 0.46019439E-03 0.15846283E+03 0.75467711E-02 0.11604574E+00
       -2 -1    0    0    0  501 0.00000000E+00 0.00000000E+00 0.27414397E+02 0.27416265E+02 0.32000000E+00 0.0000E+00 0.9000E+01
        1 -1    0    0  501    0 0.00000000E+00 0.00000000E+00 -.10551025E+04 0.10551025E+04 0.32000000E+00 0.0000E+00 0.9000E+01
       25  1    1    2    0    0 -.11442767E+03 0.34342555E+02 -.35864398E+03 0.39815023E+03 0.12500000E+03 0.0000E+00 0.9000E+01
      -24  1    1    2    0    0 0.11442767E+03 -.34342555E+02 -.66904411E+03 0.68436857E+03 0.80419002E+02 0.0000E+00 0.9000E+01
#aMCatNLO 1  0  0  1  1 0.53996729D+02 0.00000000D+00  -5  5  0 0.00000000D+00 0.00000000D+00 0.00000000D+00 0.00000000D+00 0.00000000D+00
  <mgrwgt>
 0.2846725724D+00    4    2    0
 0.170076558793941D+03 0.000000000000000D+00 0.000000000000000D+00 0.170076558793941D+03
 0.170076558793941D+03 0.000000000000000D+00 0.000000000000000D+00 -.170076558793941D+03
 0.183537826047009D+03 -.114427667579520D+03 0.343425547304464D+02 0.615469854416878D+02
 0.156615291540873D+03 0.114427667579520D+03 -.343425547304464D+02 -.615469854416878D+02
 0.000000000000000D+00 -.000000000000000D+00 0.000000000000000D+00 -.000000000000000D+00
 0.179679194565842D+03 0.000000000000000D+00 0.000000000000000D+00 0.179679194565842D+03
 0.269744501680021D+03 0.000000000000000D+00 0.000000000000000D+00 -.269744501680021D+03
 0.179864216519597D+03 -.113603373798502D+03 0.569020464016464D+01 0.615469854416878D+02
 0.164548022078879D+03 0.115156152538598D+03 -.596646019952233D+02 -.615469854416878D+02
 0.105011457647387D+03 -.155277874009574D+01 0.539743973550587D+02 -.900653071141796D+02
0.940363243364D-03 0.000000000000D+00 0.000000000000D+00 0.200151658246D-02 0.000000000000D+00  5 -2 1 25 -24 21 0 0.42177470D-02 0.16232361D+00 0.25110470D+05 0.25110470D+05 0.25110470D+05 0.12230924D+01  1  2  2  1  5  1       -2 0.301389255790D+00 0.100000000000D+01
-.519246457055D-04 0.000000000000D+00 -.361124245785D-05 0.200151658246D-02 0.000000000000D+00  5 -2 1 25 -24 21 2 0.42177470D-02 0.16232361D+00 0.25110470D+05 0.25110470D+05 0.25110470D+05 0.12230924D+01  1  2  3  1  5  1       -2 -.248956918406D-01 0.100000000000D+01
0.647319650247D-04 0.000000000000D+00 0.000000000000D+00 0.200151658246D-02 0.000000000000D+00  5 -2 1 25 -24 21 2 0.42177470D-02 0.16232361D+00 0.25110470D+05 0.25110470D+05 0.25110470D+05 0.12230924D+01  1  2 15  1  5  1       -2 0.310362647948D-01 0.100000000000D+01
-.476731053489D-04 0.000000000000D+00 0.000000000000D+00 0.200151658246D-02 0.000000000000D+00  5 -2 1 25 -24 21 2 0.42177470D-02 0.16232361D+00 0.25110470D+05 0.25110470D+05 0.25110470D+05 0.12230924D+01  1  2  4  1  5  1       -2 -.228572563900D-01 0.100000000000D+01
  </mgrwgt>
  </event>
  <event>
  4     66 0.46019439E-03 0.10454264E+03 0.75467711E-02 0.12639318E+00
       -2 -1    0    0    0  501 0.00000000E+00 0.00000000E+00 0.84633963E+01 0.84694437E+01 0.32000000E+00 0.0000E+00 0.9000E+01
        1 -1    0    0  501    0 0.00000000E+00 0.00000000E+00 -.15201314E+04 0.15201314E+04 0.32000000E+00 0.0000E+00 0.9000E+01
       25  1    1    2    0    0 -.16081792E+02 -.10199303E+02 -.11815171E+04 0.11882635E+04 0.12500000E+03 0.0000E+00 0.9000E+01
      -24  1    1    2    0    0 0.16081792E+02 0.10199303E+02 -.33015096E+03 0.34033736E+03 0.80419002E+02 0.0000E+00 0.9000E+01
#aMCatNLO 1  0  0  1  2 0.71691798D+01 0.00000000D+00  -5  5  0 0.00000000D+00 0.00000000D+00 0.00000000D+00 0.00000000D+00 0.00000000D+00
  <mgrwgt>
 0.1418992333D+00    6    2    0
 0.113446561539210D+03 0.000000000000000D+00 0.000000000000000D+00 0.113446561539210D+03
 0.113446561539210D+03 0.000000000000000D+00 0.000000000000000D+00 -.113446561539210D+03
 0.133627393645048D+03 -.160817918014420D+02 -.101993030839848D+02 -.432276592175037D+02
 0.932657294333727D+02 0.160817918014420D+02 0.101993030839848D+02 0.432276592175037D+02
 0.000000000000000D+00 -.000000000000000D+00 0.000000000000000D+00 -.000000000000000D+00
 0.114980977439291D+03 0.000000000000000D+00 0.000000000000000D+00 0.114980977439291D+03
 0.122198061080800D+03 0.000000000000000D+00 0.000000000000000D+00 -.122198061080800D+03
 0.133252959765000D+03 -.119366825312823D+02 -.109652348290178D+02 -.432276592175037D+02
 0.937533979409822D+02 0.189865193644543D+02 0.966256860820150D+01 0.432276592175037D+02
 0.101726808141089D+02 -.704983683317205D+01 0.130266622081630D+01 -.721708364150879D+01
0.295713023203D-03 0.000000000000D+00 0.000000000000D+00 0.256314419322D-02 0.000000000000D+00  5 -2 1 25 -24 21 0 0.13025287D-02 0.23386684D+00 0.10929164D+05 0.10929164D+05 0.10929164D+05 0.12638097D+01  1  2  2  1  5  1       -2 0.251913913134D+00 0.100000000000D+01
-.162950522370D-04 0.000000000000D+00 -.113561587213D-05 0.256314419322D-02 0.000000000000D+00  5 -2 1 25 -24 21 2 0.13025287D-02 0.23386684D+00 0.10929164D+05 0.10929164D+05 0.10929164D+05 0.12638097D+01  1  2  3  1  5  1       -2 -.221717947107D-01 0.100000000000D+01
0.202428251356D-04 0.000000000000D+00 0.000000000000D+00 0.256314419322D-02 0.000000000000D+00  5 -2 1 25 -24 21 2 0.13025287D-02 0.23386684D+00 0.10929164D+05 0.10929164D+05 0.10929164D+05 0.12638097D+01  1  2 15  1  5  1       -2 0.275433154030D-01 0.100000000000D+01
-.891384215975D-04 0.000000000000D+00 0.000000000000D+00 0.256314419322D-02 0.000000000000D+00  5 -2 1 25 -24 21 2 0.13025287D-02 0.23386684D+00 0.10929164D+05 0.10929164D+05 0.10929164D+05 0.12638097D+01  1  2  4  1  5  1       -2 -.121285820736D+00 0.100000000000D+01
0.290894453980D-05 0.000000000000D+00 0.000000000000D+00 0.256314419322D-02 0.423626181499D-03  5 -2 1 25 -24 21 2 0.13201460D-02 0.25190780D+00 0.11708175D+05 0.11708175D+05 0.11708175D+05 0.12602791D+01  1  2 11  1  5  1       -2 0.325563458756D-02 0.100000000000D+01
0.104793002935D-06 0.000000000000D+00 0.000000000000D+00 0.256314419322D-02 0.108803274003D-05  5 21 1 25 -24 2 2 0.13201460D-02 0.25190780D+00 0.11708175D+05 0.11708175D+05 0.11708175D+05 0.12602791D+01  1  2 11  3  5  1       -2 0.264398565446D-02 0.100000000000D+01
  </mgrwgt>
  </event>
  <event>
  4     66 0.46019439E-03 0.79012486E+02 0.75467711E-02 0.12090251E+00
       -2 -1    0    0    0  501 0.00000000E+00 0.00000000E+00 0.74799356E+03 0.74799363E+03 0.32000000E+00 0.0000E+00 0.9000E+01
        1 -1    0    0  501    0 0.00000000E+00 0.00000000E+00 -.21190483E+02 0.21192899E+02 0.32000000E+00 0.0000E+00 0.9000E+01
       25  1    1    2    0    0 -.32052779E+02 -.62532569E+02 0.45888947E+03 0.48077255E+03 0.12500000E+03 0.0000E+00 0.9000E+01
      -24  1    1    2    0    0 0.32052779E+02 0.62532569E+02 0.26791361E+03 0.28841397E+03 0.80419002E+02 0.0000E+00 0.9000E+01
#aMCatNLO 1  0  0  1  2 0.33983963D+02 0.00000000D+00  -5  5  0 0.00000000D+00 0.00000000D+00 0.00000000D+00 0.00000000D+00 0.00000000D+00
  <mgrwgt>
 0.2296467187D+00    9    2    0
 0.125901945803797D+03 0.000000000000000D+00 0.000000000000000D+00 0.125901945803797D+03
 0.125901945803797D+03 0.000000000000000D+00 0.000000000000000D+00 -.125901945803797D+03
 0.144086303454434D+03 -.320527791025666D+02 -.625325693974113D+02 0.140769300461132D+02
 0.107717588153160D+03 0.320527791025666D+02 0.625325693974113D+02 -.140769300461132D+02
 0.000000000000000D+00 -.000000000000000D+00 -.000000000000000D+00 0.000000000000000D+00
 0.150700760406475D+03 0.000000000000000D+00 0.000000000000000D+00 0.150700760406475D+03
 0.139247961049706D+03 0.000000000000000D+00 0.000000000000000D+00 -.139247961049706D+03
 0.137874549633293D+03 -.149289925947524D+02 -.544367215872352D+02 0.140769300461132D+02
 0.116212265355411D+03 0.456522804596355D+02 0.689621924968859D+02 -.140769300461132D+02
 0.358619064674759D+02 -.307232878648831D+02 -.145254709096507D+02 0.114527993567690D+02
0.914463427379D-03 0.000000000000D+00 0.000000000000D+00 0.265188411942D-02 0.000000000000D+00  5 -2 1 25 -24 21 0 0.11507612D+00 0.32602654D-02 0.15648862D+05 0.15648862D+05 0.15648862D+05 0.12457313D+01  1  2  2  1  5  1       -2 0.142866070355D+00 0.100000000000D+01
-.508009725458D-04 0.000000000000D+00 -.351178034489D-05 0.265188411942D-02 0.000000000000D+00  5 -2 1 25 -24 21 2 0.11507612D+00 0.32602654D-02 0.15648862D+05 0.15648862D+05 0.15648862D+05 0.12457313D+01  1  2  3  1  5  1       -2 -.123163933590D-01 0.100000000000D+01
0.631004549865D-04 0.000000000000D+00 0.000000000000D+00 0.265188411942D-02 0.000000000000D+00  5 -2 1 25 -24 21 2 0.11507612D+00 0.32602654D-02 0.15648862D+05 0.15648862D+05 0.15648862D+05 0.12457313D+01  1  2 15  1  5  1       -2 0.152983296539D-01 0.100000000000D+01
0.647143511177D-03 0.000000000000D+00 0.000000000000D+00 0.265188411942D-02 0.000000000000D+00  5 -2 1 25 -24 21 2 0.14288315D+00 0.32602654D-02 0.20519781D+05 0.20519781D+05 0.20519781D+05 0.12326012D+01  1  2 12  1  5  1       -2 0.912466903200D-01 0.100000000000D+01
-.638385644938D-03 0.000000000000D+00 0.000000000000D+00 0.265188411942D-02 0.000000000000D+00  5 -2 1 25 -24 21 2 0.11507612D+00 0.32602654D-02 0.15648862D+05 0.15648862D+05 0.15648862D+05 0.12457313D+01  1  2  4  1  5  1       -2 -.154772799097D+00 0.100000000000D+01
-.146863789455D-02 0.000000000000D+00 -.429134916704D-03 0.265188411942D-02 0.000000000000D+00  5 -2 1 25 -24 21 2 0.14783482D+00 0.32602654D-02 0.15648862D+05 0.15648862D+05 0.15648862D+05 0.12457313D+01  1  2  5  1  5  1       -2 -.192620176860D+00 0.100000000000D+01
0.154066544796D-02 0.000000000000D+00 0.416013854566D-03 0.265188411942D-02 0.000000000000D+00  5 -2 1 25 -24 21 2 0.11507612D+00 0.32602654D-02 0.15648862D+05 0.15648862D+05 0.15648862D+05 0.12457313D+01  1  2  6  1  5  1       -2 0.373525165773D+00 0.100000000000D+01
0.196667169705D-04 0.000000000000D+00 0.000000000000D+00 0.265188411942D-02 0.000000000000D+00  5 21 1 25 -24 2 2 0.14288315D+00 0.32602654D-02 0.20519781D+05 0.20519781D+05 0.20519781D+05 0.12326012D+01  1  2 12  3  5  1       -2 0.325045159219D-01 0.100000000000D+01
-.425615488024D-04 0.000000000000D+00 -.145448054260D-04 0.265188411942D-02 0.000000000000D+00  5 21 1 25 -24 2 2 0.14783482D+00 0.32602654D-02 0.15648862D+05 0.15648862D+05 0.15648862D+05 0.12457313D+01  1  2  5  3  5  1       -2 -.660846840514D-01 0.100000000000D+01
  </mgrwgt>
  </event>
  <event>
  4     66 0.46019439E-03 0.23875471E+03 0.75467711E-02 0.96117684E-01
       -2 -1    0    0    0  501 0.00000000E+00 0.00000000E+00 0.33165979E+03 0.33165994E+03 0.32000000E+00 0.0000E+00 0.9000E+01
        1 -1    0    0  501    0 0.00000000E+00 0.00000000E+00 -.17188118E+03 0.17188147E+03 0.32000000E+00 0.0000E+00 0.9000E+01
       25  1    1    2    0    0 -.18728132E+03 -.10476336E+03 0.81473235E+02 0.26136668E+03 0.12500000E+03 0.0000E+00 0.9000E+01
      -24  1    1    2    0    0 0.18728132E+03 0.10476336E+03 0.78305378E+02 0.24217474E+03 0.80419002E+02 0.0000E+00 0.9000E+01
#aMCatNLO 1  0  0  1  2 0.69072809D+03 0.00000000D+00  -5  5  0 0.00000000D+00 0.00000000D+00 0.00000000D+00 0.00000000D+00 0.00000000D+00
  <mgrwgt>
 0.3366384558D+00    3    2    0
 0.238759687966331D+03 0.000000000000000D+00 0.000000000000000D+00 0.238759687966331D+03
 0.238759687966331D+03 0.000000000000000D+00 0.000000000000000D+00 -.238759687966331D+03
 0.248348601534229D+03 -.187281322144156D+03 -.104763356510012D+03 -.154058193545330D+01
 0.229170774398433D+03 0.187281322144156D+03 0.104763356510012D+03 0.154058193545330D+01
 0.000000000000000D+00 0.000000000000000D+00 -.000000000000000D+00 -.000000000000000D+00
 0.462445782700197D+03 0.000000000000000D+00 0.000000000000000D+00 0.462445782700197D+03
 0.322071578668404D+04 0.000000000000000D+00 0.000000000000000D+00 -.322071578668404D+04
 0.379819578349799D+03 -.292667650972878D+03 0.207319041043357D+03 -.154058193545330D+01
 0.459900641517881D+03 0.716773976702418D+02 0.447103300574610D+03 0.154058193545330D+01
 0.284344134951656D+04 0.220990253302636D+03 -.654422341617967D+03 -.275827000398385D+04
0.572517965068D-02 0.000000000000D+00 0.000000000000D+00 0.207876113830D-02 0.000000000000D+00  5 -2 1 25 -24 21 0 0.51024618D-01 0.26443293D-01 0.57003811D+05 0.57003811D+05 0.57003811D+05 0.11866841D+01  1  2  2  1  5  1       -2 0.330495851919D+00 0.100000000000D+01
-.318065535981D-03 0.000000000000D+00 -.219861973330D-04 0.207876113830D-02 0.000000000000D+00  5 -2 1 25 -24 21 2 0.51024618D-01 0.26443293D-01 0.57003811D+05 0.57003811D+05 0.57003811D+05 0.11866841D+01  1  2  3  1  5  1       -2 -.258561431069D-01 0.100000000000D+01
0.393627873243D-03 0.000000000000D+00 0.000000000000D+00 0.207876113830D-02 0.000000000000D+00  5 -2 1 25 -24 21 2 0.51024618D-01 0.26443293D-01 0.57003811D+05 0.57003811D+05 0.57003811D+05 0.11866841D+01  1  2 15  1  5  1       -2 0.319987470194D-01 0.100000000000D+01
  </mgrwgt>
  </event>
  <event>
  4     66 0.46019439E-03 0.11228674E+03 0.75467711E-02 0.12337851E+00
       -2 -1    0    0    0  501 0.00000000E+00 0.00000000E+00 0.16081550E+02 0.16084733E+02 0.32000000E+00 0.0000E+00 0.9000E+01
        1 -1    0    0  501    0 0.00000000E+00 0.00000000E+00 -.78891667E+03 0.78891673E+03 0.32000000E+00 0.0000E+00 0.9000E+01
       25  1    1    2    0    0 -.40331608E+02 0.18742706E+02 -.42470998E+03 0.44495111E+03 0.12500000E+03 0.0000E+00 0.9000E+01
      -24  1    1    2    0    0 0.40331608E+02 -.18742706E+02 -.34812514E+03 0.36005035E+03 0.80419002E+02 0.0000E+00 0.9000E+01
#aMCatNLO 1  0  0  1  2 0.25619468D+02 0.00000000D+00  -5  5  0 0.00000000D+00 0.00000000D+00 0.00000000D+00 0.00000000D+00 0.00000000D+00
  <mgrwgt>
 0.6275783765D-01    4    2    0
 0.112642399769916D+03 0.000000000000000D+00 0.000000000000000D+00 0.112642399769916D+03
 0.112642399769916D+03 0.000000000000000D+00 0.000000000000000D+00 -.112642399769916D+03
 0.132967304211616D+03 -.403316083734929D+02 0.187427063535281D+02 0.879638072488326D+01
 0.923174953282151D+02 0.403316083734929D+02 -.187427063535281D+02 -.879638072488326D+01
 0.000000000000000D+00 0.000000000000000D+00 0.000000000000000D+00 -.000000000000000D+00
 0.124177362473718D+03 0.000000000000000D+00 0.000000000000000D+00 0.124177362473718D+03
 0.128549310935949D+03 0.000000000000000D+00 0.000000000000000D+00 -.128549310935949D+03
 0.133372259529552D+03 -.454442215499562D+02 0.453938606856491D+01 0.879638072488326D+01
 0.933645879841431D+02 0.367672837480366D+02 -.286447354152999D+02 -.879638072488326D+01
 0.259898258959717D+02 0.867693780191965D+01 0.241053493467350D+02 -.437194846223097D+01
0.167495898341D-03 0.000000000000D+00 0.000000000000D+00 0.292773510683D-02 0.000000000000D+00  5 -2 1 25 -24 21 0 0.24743345D-02 0.12137204D+00 0.12608313D+05 0.12608313D+05 0.12608313D+05 0.12565149D+01  1  2  2  1  5  1       -2 0.184878552771D+00 0.100000000000D+01
-.930521453877D-05 0.000000000000D+00 -.643228352311D-06 0.292773510683D-02 0.000000000000D+00  5 -2 1 25 -24 21 2 0.24743345D-02 0.12137204D+00 0.12608313D+05 0.12608313D+05 0.12608313D+05 0.12565149D+01  1  2  3  1  5  1       -2 -.162160121217D-01 0.100000000000D+01
0.115576822141D-04 0.000000000000D+00 0.000000000000D+00 0.292773510683D-02 0.000000000000D+00  5 -2 1 25 -24 21 2 0.24743345D-02 0.12137204D+00 0.12608313D+05 0.12608313D+05 0.12608313D+05 0.12565149D+01  1  2 15  1  5  1       -2 0.201413426958D-01 0.100000000000D+01
-.723288492979D-04 0.000000000000D+00 0.000000000000D+00 0.292773510683D-02 0.000000000000D+00  5 -2 1 25 -24 21 2 0.24743345D-02 0.12137204D+00 0.12608313D+05 0.12608313D+05 0.12608313D+05 0.12565149D+01  1  2  4  1  5  1       -2 -.126046045696D+00 0.100000000000D+01
  </mgrwgt>
  </event>
  <event>
  5     66 0.46019439E-03 0.13210006E+03 0.75467711E-02 0.11269662E+00
       21 -1    0    0  502  501 0.00000000E+00 0.00000000E+00 0.89687676E+02 0.89690812E+02 0.75000000E+00 0.0000E+00 0.9000E+01
        3 -1    0    0  501    0 0.00000000E+00 0.00000000E+00 -.73782427E+03 0.73782444E+03 0.50000000E+00 0.0000E+00 0.9000E+01
       25  1    1    2    0    0 -.11214801E+03 0.35033354E+02 -.11116097E+03 0.20441691E+03 0.12500000E+03 0.0000E+00 0.9000E+01
      -24  1    1    2    0    0 0.38968188E+02 0.99891813E+02 -.38259487E+03 0.40539234E+03 0.80419002E+02 0.0000E+00 0.9000E+01
        4  1    1    2  502    0 0.73179818E+02 -.13492517E+03 -.15438076E+03 0.21770601E+03 0.15500000E+01 0.0000E+00 0.9000E+01
#aMCatNLO 2  0  0  1  1 0.15349295D+03 0.00000000D+00  -5  5  0 0.00000000D+00 0.00000000D+00 0.00000000D+00 0.00000000D+00 0.00000000D+00
  <mgrwgt>
 0.5481060217D-02    1    2    0
 0.161641885964795D+03 0.000000000000000D+00 0.000000000000000D+00 0.161641885964795D+03
 0.161641885964795D+03 0.000000000000000D+00 0.000000000000000D+00 -.161641885964795D+03
 0.175805578733797D+03 -.723154426357166D+02 -.384078670383593D+02 0.926170287792115D+02
 0.147478193195793D+03 0.723154426357166D+02 0.384078670383593D+02 -.926170287792115D+02
 0.000000000000000D+00 0.000000000000000D+00 -.000000000000000D+00 0.000000000000000D+00
 0.276569505753724D+03 0.000000000000000D+00 0.000000000000000D+00 0.276569505753724D+03
 0.239264002342087D+03 0.000000000000000D+00 0.000000000000000D+00 -.239264002342087D+03
 0.194954931056448D+03 -.112148005760821D+03 0.350333544954799D+02 0.926170287792115D+02
 0.162917230104205D+03 0.389681875590218D+02 0.998918127222228D+02 -.926170287792115D+02
 0.157961346935157D+03 0.731798182017993D+02 -.134925167217703D+03 0.373055034116376D+02
0.254035987958D-04 0.000000000000D+00 0.000000000000D+00 0.161993327268D-02 0.847965802122D-07  5 21 3 25 -24 4 2 0.13798151D-01 0.11350998D+00 0.52687126D+05 0.52687126D+05 0.52687126D+05 0.11900368D+01  1  2  1  3  5  1       -4 0.548106021651D-02 0.100000000000D+01
  </mgrwgt>
  </event>
  <event>
  4     66 0.46019439E-03 0.19339289E+03 0.75467711E-02 0.10023038E+00
       -2 -1    0    0    0  501 0.00000000E+00 0.00000000E+00 0.13090418E+03 0.13090458E+03 0.32000000E+00 0.0000E+00 0.9000E+01
        1 -1    0    0  501    0 0.00000000E+00 0.00000000E+00 -.32467728E+03 0.32467744E+03 0.32000000E+00 0.0000E+00 0.9000E+01
       25  1    1    2    0    0 0.61992176E+02 0.15050521E+03 -.23321067E+02 0.20655198E+03 0.12500000E+03 0.0000E+00 0.9000E+01
      -24  1    1    2    0    0 -.61992176E+02 -.15050521E+03 -.17045203E+03 0.24903003E+03 0.80419002E+02 0.0000E+00 0.9000E+01
#aMCatNLO 1  0  0  2  1 0.47822268D+03 0.00000000D+00  -5  5  0 0.00000000D+00 0.00000000D+00 0.00000000D+00 0.00000000D+00 0.00000000D+00
  <mgrwgt>
 0.2418452682D+00    5    2    0
 0.206159500174726D+03 0.000000000000000D+00 0.000000000000000D+00 0.206159500174726D+03
 0.206159500174726D+03 0.000000000000000D+00 0.000000000000000D+00 -.206159500174726D+03
 0.217264717297716D+03 0.619921759239921D+02 0.150505209251378D+03 0.713029416985306D+02
 0.195054283051736D+03 -.619921759239921D+02 -.150505209251378D+03 -.713029416985306D+02
 0.000000000000000D+00 0.000000000000000D+00 -.000000000000000D+00 -.000000000000000D+00
 0.475921774992616D+03 0.000000000000000D+00 0.000000000000000D+00 0.475921774992616D+03
 0.672592810631035D+03 0.000000000000000D+00 0.000000000000000D+00 -.672592810631035D+03
 0.357311865536002D+03 -.166292821829892D+03 0.281619170451526D+03 0.713029416985306D+02
 0.274118171720671D+03 -.248399064028758D+03 -.434436601575645D+02 -.713029416985306D+02
 0.517084548366978D+03 0.414691885858650D+03 -.238175510293962D+03 -.196671035638420D+03
0.153435693884D-02 0.000000000000D+00 0.000000000000D+00 0.190151397638D-02 0.000000000000D+00  5 -2 1 25 -24 21 0 0.20139148D-01 0.49950393D-01 0.37400810D+05 0.37400810D+05 0.37400810D+05 0.12049747D+01  1  2  2  2  5  2        1 0.219987694266D+00 0.100000000000D+01
-.848185118018D-04 0.000000000000D+00 -.589233465059D-05 0.190151397638D-02 0.000000000000D+00  5 -2 1 25 -24 21 2 0.20139148D-01 0.49950393D-01 0.37400810D+05 0.37400810D+05 0.37400810D+05 0.12049747D+01  1  2  3  2  5  2        1 -.176570639976D-01 0.100000000000D+01
0.105634033625D-03 0.000000000000D+00 0.000000000000D+00 0.190151397638D-02 0.000000000000D+00  5 -2 1 25 -24 21 2 0.20139148D-01 0.49950393D-01 0.37400810D+05 0.37400810D+05 0.37400810D+05 0.12049747D+01  1  2 15  2  5  2        1 0.219903279653D-01 0.100000000000D+01
0.137043833961D-02 0.000000000000D+00 -.871241102737D-03 0.190151397638D-02 0.000000000000D+00  5 -2 1 25 -24 21 2 0.20139148D-01 0.28897626D+00 0.37400810D+05 0.37400810D+05 0.37400810D+05 0.12049747D+01  1  2  5  2  5  2        1 0.152012313186D-01 0.100000000000D+01
0.245285377017D-03 0.000000000000D+00 -.187367991041D-03 0.190151397638D-02 0.000000000000D+00  5 -2 21 25 -24 -1 2 0.20139148D-01 0.28897626D+00 0.37400810D+05 0.37400810D+05 0.37400810D+05 0.12049747D+01  1  2  5  4  5  2        1 0.232307862926D-02 0.100000000000D+01
  </mgrwgt>
  </event>
  <event>
  5     66 0.46019439E-03 0.12889982E+03 0.75467711E-02 0.11573098E+00
       21 -1    0    0  502  501 0.00000000E+00 0.00000000E+00 0.87043682E+02 0.87046913E+02 0.75000000E+00 0.0000E+00 0.9000E+01
        1 -1    0    0  501    0 0.00000000E+00 0.00000000E+00 -.93311884E+03 0.93311890E+03 0.32000000E+00 0.0000E+00 0.9000E+01
       25  1    1    2    0    0 -.14439428E+02 0.42669831E+02 -.25768195E+02 0.13534479E+03 0.12500000E+03 0.0000E+00 0.9000E+01
      -24  1    1    2    0    0 0.11773623E+03 -.28982814E+02 -.15967203E+03 0.21601897E+03 0.80419002E+02 0.0000E+00 0.9000E+01
        2  1    1    2  502    0 -.10329680E+03 -.13687017E+02 -.66063494E+03 0.66880205E+03 0.32000000E+00 0.0000E+00 0.9000E+01
#aMCatNLO 2  0  0  1  1 0.10419963D+03 0.00000000D+00  -5  5  0 0.00000000D+00 0.00000000D+00 0.00000000D+00 0.00000000D+00 0.00000000D+00
  <mgrwgt>
 0.6123948376D-01    1    2    0
 0.139831013955918D+03 0.000000000000000D+00 0.000000000000000D+00 0.139831013955918D+03
 0.139831013955918D+03 0.000000000000000D+00 0.000000000000000D+00 -.139831013955918D+03
 0.156203962607561D+03 -.679611877497370D+02 0.355780985419287D+02 0.537601506516678D+02
 0.123458065304275D+03 0.679611877497370D+02 -.355780985419287D+02 -.537601506516678D+02
 0.000000000000000D+00 -.000000000000000D+00 -.000000000000000D+00 -.000000000000000D+00
 0.156566605817042D+03 0.000000000000000D+00 0.000000000000000D+00 0.156566605817042D+03
 0.518780539152671D+03 0.000000000000000D+00 0.000000000000000D+00 -.518780539152671D+03
 0.143333057478111D+03 -.144394284756221D+02 0.426698309491699D+02 0.537601506516678D+02
 0.155110258359194D+03 0.117736226428581D+03 -.289828135651667D+02 -.537601506516678D+02
 0.376903829132408D+03 -.103296797952959D+03 -.136870173840033D+02 -.362213933335629D+03
0.432815315899D-04 0.000000000000D+00 0.000000000000D+00 0.216947446332D-02 0.946624804213D-07  5 21 1 25 -24 2 2 0.13391583D-01 0.14355694D+00 0.36588922D+05 0.36588922D+05 0.36588922D+05 0.12059512D+01  1  2  1  3  5  1       -2 0.612394837611D-01 0.100000000000D+01
  </mgrwgt>
  </event>
  <event>
  4     66 0.46019439E-03 0.15472247E+03 0.75467711E-02 0.10992435E+00
       -2 -1    0    0    0  501 0.00000000E+00 0.00000000E+00 0.52640827E+03 0.52640836E+03 0.32000000E+00 0.0000E+00 0.9000E+01
        1 -1    0    0  501    0 0.00000000E+00 0.00000000E+00 -.10111911E+03 0.10111962E+03 0.32000000E+00 0.0000E+00 0.9000E+01
       25  1    1    2    0    0 -.20367213E+03 0.78085772E+01 0.18481629E+03 0.30220088E+03 0.12500000E+03 0.0000E+00 0.9000E+01
      -24  1    1    2    0    0 0.20367213E+03 -.78085772E+01 0.24047286E+03 0.32532710E+03 0.80419002E+02 0.0000E+00 0.9000E+01
#aMCatNLO 1  0  0  1  2 0.81813898D+02 0.00000000D+00  -5  5  0 0.00000000D+00 0.00000000D+00 0.00000000D+00 0.00000000D+00 0.00000000D+00
  <mgrwgt>
 0.2595792984D+00    9    2    0
 0.230716548589835D+03 0.000000000000000D+00 0.000000000000000D+00 0.230716548589835D+03
 0.230716548589835D+03 0.000000000000000D+00 0.000000000000000D+00 -.230716548589835D+03
 0.240639746667306D+03 -.203672128796574D+03 0.780857720047034D+01 -.271878235554289D+02
 0.220793350512364D+03 0.203672128796574D+03 -.780857720047034D+01 0.271878235554289D+02
 0.000000000000000D+00 0.000000000000000D+00 -.000000000000000D+00 0.000000000000000D+00
 0.278589434074389D+03 0.000000000000000D+00 0.000000000000000D+00 0.278589434074389D+03
 0.272110533020962D+03 0.000000000000000D+00 0.000000000000000D+00 -.272110533020962D+03
 0.275484378252070D+03 -.241817649189479D+03 0.324297618203153D+02 -.271878235554289D+02
 0.193145557841075D+03 0.173078877468747D+03 0.119379639740953D+02 0.271878235554289D+02
 0.820700310022057D+02 0.687387717207320D+02 -.443677257944106D+02 0.647890105342627D+01
0.392539758468D-02 0.000000000000D+00 0.000000000000D+00 0.206468469534D-02 0.000000000000D+00  5 -2 1 25 -24 21 0 0.80985934D-01 0.15556833D-01 0.52489559D+05 0.52489559D+05 0.52489559D+05 0.11901975D+01  1  2  2  1  5  1       -2 0.169682832094D+00 0.100000000000D+01
-.218064632197D-03 0.000000000000D+00 -.150745603061D-04 0.206468469534D-02 0.000000000000D+00  5 -2 1 25 -24 21 2 0.80985934D-01 0.15556833D-01 0.52489559D+05 0.52489559D+05 0.52489559D+05 0.11901975D+01  1  2  3  1  5  1       -2 -.133529590759D-01 0.100000000000D+01
0.269818340755D-03 0.000000000000D+00 0.000000000000D+00 0.206468469534D-02 0.000000000000D+00  5 -2 1 25 -24 21 2 0.80985934D-01 0.15556833D-01 0.52489559D+05 0.52489559D+05 0.52489559D+05 0.11901975D+01  1  2 15  1  5  1       -2 0.165220431472D-01 0.100000000000D+01
0.167077456631D-02 0.000000000000D+00 0.000000000000D+00 0.206468469534D-02 0.000000000000D+00  5 -2 1 25 -24 21 2 0.10372415D+00 0.15556833D-01 0.74850354D+05 0.74850354D+05 0.74850354D+05 0.11753085D+01  1  2 12  1  5  1       -2 0.568062015403D-01 0.100000000000D+01
-.164768468186D-02 0.000000000000D+00 0.000000000000D+00 0.206468469534D-02 0.000000000000D+00  5 -2 1 25 -24 21 2 0.80985934D-01 0.15556833D-01 0.52489559D+05 0.52489559D+05 0.52489559D+05 0.11901975D+01  1  2  4  1  5  1       -2 -.100894243625D+00 0.100000000000D+01
-.402903789554D-02 0.000000000000D+00 -.156845176870D-02 0.206468469534D-02 0.000000000000D+00  5 -2 1 25 -24 21 2 0.11182311D+00 0.15556833D-01 0.52489559D+05 0.52489559D+05 0.52489559D+05 0.11901975D+01  1  2  5  1  5  1       -2 -.117570253934D+00 0.100000000000D+01
0.438319915996D-02 0.000000000000D+00 0.149021223511D-02 0.206468469534D-02 0.000000000000D+00  5 -2 1 25 -24 21 2 0.80985934D-01 0.15556833D-01 0.52489559D+05 0.52489559D+05 0.52489559D+05 0.11901975D+01  1  2  6  1  5  1       -2 0.268400604055D+00 0.100000000000D+01
0.561196305915D-04 0.000000000000D+00 0.000000000000D+00 0.206468469534D-02 0.000000000000D+00  5 21 1 25 -24 2 2 0.10372415D+00 0.15556833D-01 0.74850354D+05 0.74850354D+05 0.74850354D+05 0.11753085D+01  1  2 12  3  5  1       -2 0.216107821327D-01 0.100000000000D+01
-.124824672047D-03 0.000000000000D+00 -.638956318277D-04 0.206468469534D-02 0.000000000000D+00  5 21 1 25 -24 2 2 0.11182311D+00 0.15556833D-01 0.52489559D+05 0.52489559D+05 0.52489559D+05 0.11901975D+01  1  2  5  3  5  1       -2 -.416257079769D-01 0.100000000000D+01
  </mgrwgt>
  </event>
  <event>
  4     66 0.46019439E-03 0.10843947E+03 0.75467711E-02 0.11081691E+00
       -2 -1    0    0    0  501 0.00000000E+00 0.00000000E+00 0.53269039E+01 0.53365068E+01 0.32000000E+00 0.0000E+00 0.9000E+01
        1 -1    0    0  501    0 0.00000000E+00 0.00000000E+00 -.27304607E+04 0.27304607E+04 0.32000000E+00 0.0000E+00 0.9000E+01
       25  1    1    2    0    0 0.11486290E+02 -.32044046E+02 -.21673847E+04 0.21712531E+04 0.12500000E+03 0.0000E+00 0.9000E+01
      -24  1    1    2    0    0 -.11486290E+02 0.32044046E+02 -.55774911E+03 0.56454410E+03 0.80419002E+02 0.0000E+00 0.9000E+01
#aMCatNLO 1  0  0  2  2 0.21324675D+03 0.00000000D+00  -5  5  0 0.00000000D+00 0.00000000D+00 0.00000000D+00 0.00000000D+00 0.00000000D+00
  <mgrwgt>
 0.2933958831D+00    3    2    0
 0.120656799471342D+03 0.000000000000000D+00 0.000000000000000D+00 0.120656799471342D+03
 0.120656799471342D+03 0.000000000000000D+00 0.000000000000000D+00 -.120656799471342D+03
 0.139631660576879D+03 0.114862901879184D+02 -.320440455297158D+02 -.520888176028712D+02
 0.101681938365805D+03 -.114862901879184D+02 0.320440455297158D+02 0.520888176028712D+02
 0.000000000000000D+00 -.000000000000000D+00 0.000000000000000D+00 0.000000000000000D+00
 0.718780044601794D+03 0.000000000000000D+00 0.000000000000000D+00 0.718780044601794D+03
 0.181399816324610D+03 0.000000000000000D+00 0.000000000000000D+00 -.181399816324610D+03
 0.201460375416018D+03 0.138457255375840D+03 -.554763587241194D+02 -.520888176028712D+02
 0.120574448109273D+03 0.712482944170061D+02 0.167754942069610D+02 0.520888176028712D+02
 0.578145037401113D+03 -.209705549792846D+03 0.387008645171584D+02 0.537380228277184D+03
0.103375709042D-02 0.000000000000D+00 0.000000000000D+00 0.232357348555D-02 0.000000000000D+00  5 -2 1 25 -24 21 0 0.82026381D-03 0.42007162D+00 0.11759119D+05 0.11759119D+05 0.11759119D+05 0.12600575D+01  1  2  2  2  5  2        1 0.287139904769D+00 0.100000000000D+01
-.566351048877D-04 0.000000000000D+00 -.396989942171D-05 0.232357348555D-02 0.000000000000D+00  5 -2 1 25 -24 21 2 0.82026381D-03 0.42007162D+00 0.11759119D+05 0.11759119D+05 0.11759119D+05 0.12600575D+01  1  2  3  2  5  2        1 -.249770707255D-01 0.100000000000D+01
0.708204348028D-04 0.000000000000D+00 0.000000000000D+00 0.232357348555D-02 0.000000000000D+00  5 -2 1 25 -24 21 2 0.82026381D-03 0.42007162D+00 0.11759119D+05 0.11759119D+05 0.11759119D+05 0.12600575D+01  1  2 15  2  5  2        1 0.312330490495D-01 0.100000000000D+01
  </mgrwgt>
  </event>
  <event>
  4     66 0.46019439E-03 0.10817802E+03 0.75467711E-02 0.10843919E+00
       -2 -1    0    0    0  501 0.00000000E+00 0.00000000E+00 0.11269737E+02 0.11274279E+02 0.32000000E+00 0.0000E+00 0.9000E+01
        1 -1    0    0  501    0 0.00000000E+00 0.00000000E+00 -.10396853E+04 0.10396854E+04 0.32000000E+00 0.0000E+00 0.9000E+01
       25  1    1    2    0    0 -.32777252E+01 0.33068641E+02 -.63423554E+03 0.64728974E+03 0.12500000E+03 0.0000E+00 0.9000E+01
      -24  1    1    2    0    0 0.32777252E+01 -.33068641E+02 -.39418007E+03 0.40366994E+03 0.80419002E+02 0.0000E+00 0.9000E+01
#aMCatNLO 1  0  0  1  2 0.26292606D+03 0.00000000D+00  -5  5  0 0.00000000D+00 0.00000000D+00 0.00000000D+00 0.00000000D+00 0.00000000D+00
  <mgrwgt>
 0.2542420928D+00    3    2    0
 0.108256145109609D+03 0.000000000000000D+00 0.000000000000000D+00 0.108256145109609D+03
 0.108256145109609D+03 0.000000000000000D+00 0.000000000000000D+00 -.108256145109609D+03
 0.129404561295030D+03 -.327772517045960D+01 0.330686406116554D+02 -.403261822682582D+01
 0.871077289241876D+02 0.327772517045960D+01 -.330686406116554D+02 0.403261822682582D+01
 0.000000000000000D+00 0.000000000000000D+00 -.000000000000000D+00 -.000000000000000D+00
 0.260433564535749D+03 0.000000000000000D+00 0.000000000000000D+00 0.260433564535749D+03
 0.362041989785725D+03 0.000000000000000D+00 0.000000000000000D+00 -.362041989785725D+03
 0.243596249959923D+03 -.427402172086277D+02 0.204624399370489D+03 -.403261822682582D+01
 0.970027603291050D+02 -.162006740637319D+02 0.516100349468266D+02 0.403261822682582D+01
 0.281876544032445D+03 0.589408912723596D+02 -.256234434317316D+03 -.101608425249976D+03
0.209651059277D-03 0.000000000000D+00 0.000000000000D+00 0.305746011083D-02 0.000000000000D+00  5 -2 1 25 -24 21 0 0.17341589D-02 0.15995195D+00 0.11702485D+05 0.11702485D+05 0.11702485D+05 0.12603040D+01  1  2  2  1  5  1       -2 0.248858453468D+00 0.100000000000D+01
-.116472736909D-04 0.000000000000D+00 -.805115270014D-06 0.305746011083D-02 0.000000000000D+00  5 -2 1 25 -24 21 2 0.17341589D-02 0.15995195D+00 0.11702485D+05 0.11702485D+05 0.11702485D+05 0.12603040D+01  1  2  3  1  5  1       -2 -.219598928136D-01 0.100000000000D+01
0.145026938762D-04 0.000000000000D+00 0.000000000000D+00 0.305746011083D-02 0.000000000000D+00  5 -2 1 25 -24 21 2 0.17341589D-02 0.15995195D+00 0.11702485D+05 0.11702485D+05 0.11702485D+05 0.12603040D+01  1  2 15  1  5  1       -2 0.273435321846D-01 0.100000000000D+01
  </mgrwgt>
  </event>
  <event>
  4     66 0.46019439E-03 0.13563593E+03 0.75467711E-02 0.11982639E+00
       -2 -1    0    0    0  501 0.00000000E+00 0.00000000E+00 0.22297283E+02 0.22299579E+02 0.32000000E+00 0.0000E+00 0.9000E+01
        1 -1    0    0  501    0 0.00000000E+00 0.00000000E+00 -.89125231E+03 0.89125236E+03 0.32000000E+00 0.0000E+00 0.9000E+01
       25  1    1    2    0    0 0.87343726E+02 0.26423895E+01 -.36092261E+03 0.39182399E+03 0.12500000E+03 0.0000E+00 0.9000E+01
      -24  1    1    2    0    0 -.87343726E+02 -.26423895E+01 -.50803241E+03 0.52172795E+03 0.80419002E+02 0.0000E+00 0.9000E+01
#aMCatNLO 1  0  0  2  2 0.30823508D+02 0.00000000D+00  -5  5  0 0.00000000D+00 0.00000000D+00 0.00000000D+00 0.00000000D+00 0.00000000D+00
  <mgrwgt>
 0.7231707088D-01    4    2    0
 0.140973686322169D+03 0.000000000000000D+00 0.000000000000000D+00 0.140973686322169D+03
 0.140973686322169D+03 0.000000000000000D+00 0.000000000000000D+00 -.140973686322169D+03
 0.157213922859471D+03 0.873437256672328D+02 0.264238946188843D+01 0.381485111814668D+02
 0.124733449784868D+03 -.873437256672328D+02 -.264238946188843D+01 -.381485111814668D+02
 0.000000000000000D+00 -.000000000000000D+00 -.000000000000000D+00 0.000000000000000D+00
 0.164188520455205D+03 0.000000000000000D+00 0.000000000000000D+00 0.164188520455205D+03
 0.152429180909132D+03 0.000000000000000D+00 0.000000000000000D+00 -.152429180909132D+03
 0.166856035412447D+03 0.103210881699440D+03 0.103991127997260D+02 0.381485111814668D+02
 0.116771201658942D+03 -.755191430758793D+02 0.313810551530635D+01 -.381485111814668D+02
 0.329904642929482D+02 -.276917386235608D+02 -.135372183150324D+02 0.117593395460729D+02
0.435326418403D-03 0.000000000000D+00 0.000000000000D+00 0.232631353227D-02 0.000000000000D+00  5 -2 1 25 -24 21 0 0.34305323D-02 0.13711592D+00 0.18397104D+05 0.18397104D+05 0.18397104D+05 0.12378403D+01  1  2  2  2  5  2        1 0.249704103827D+00 0.100000000000D+01
-.241409907887D-04 0.000000000000D+00 -.167176807075D-05 0.232631353227D-02 0.000000000000D+00  5 -2 1 25 -24 21 2 0.34305323D-02 0.13711592D+00 0.18397104D+05 0.18397104D+05 0.18397104D+05 0.12378403D+01  1  2  3  2  5  2        1 -.212175383965D-01 0.100000000000D+01
0.299720208094D-04 0.000000000000D+00 0.000000000000D+00 0.232631353227D-02 0.000000000000D+00  5 -2 1 25 -24 21 2 0.34305323D-02 0.13711592D+00 0.18397104D+05 0.18397104D+05 0.18397104D+05 0.12378403D+01  1  2 15  2  5  2        1 0.263424358971D-01 0.100000000000D+01
-.207659284001D-03 0.000000000000D+00 0.000000000000D+00 0.232631353227D-02 0.000000000000D+00  5 -2 1 25 -24 21 2 0.34305323D-02 0.13711592D+00 0.18397104D+05 0.18397104D+05 0.18397104D+05 0.12378403D+01  1  2  4  2  5  2        1 -.182511930444D+00 0.100000000000D+01
  </mgrwgt>
  </event>
  <event>
  4     66 0.46019439E-03 0.11521545E+03 0.75467711E-02 0.11122366E+00
       -2 -1    0    0    0  501 0.00000000E+00 0.00000000E+00 0.11911520E+02 0.11915817E+02 0.32000000E+00 0.0000E+00 0.9000E+01
        1 -1    0    0  501    0 0.00000000E+00 0.00000000E+00 -.11656120E+04 0.11656120E+04 0.32000000E+00 0.0000E+00 0.9000E+01
       25  1    1    2    0    0 0.50366059E+02 -.93063519E+01 -.79379895E+03 0.80521122E+03 0.12500000E+03 0.0000E+00 0.9000E+01
      -24  1    1    2    0    0 -.50366059E+02 0.93063519E+01 -.35990153E+03 0.37231664E+03 0.80419002E+02 0.0000E+00 0.9000E+01
#aMCatNLO 1  0  0  2  2 0.19889044D+03 0.00000000D+00  -5  5  0 0.00000000D+00 0.00000000D+00 0.00000000D+00 0.00000000D+00 0.00000000D+00
  <mgrwgt>
 0.2405248957D+00    3    2    0
 0.117842124733977D+03 0.000000000000000D+00 0.000000000000000D+00 0.117842124733977D+03
 0.117842124733977D+03 0.000000000000000D+00 0.000000000000000D+00 -.117842124733977D+03
 0.137270202907005D+03 0.503660593643725D+02 -.930635187399248D+01 -.243877117629389D+02
 0.984140465609498D+02 -.503660593643725D+02 0.930635187399248D+01 0.243877117629389D+02
 0.000000000000000D+00 0.000000000000000D+00 0.000000000000000D+00 0.000000000000000D+00
 0.316835094000395D+03 0.000000000000000D+00 0.000000000000000D+00 0.316835094000395D+03
 0.215000215533109D+03 0.000000000000000D+00 0.000000000000000D+00 -.215000215533109D+03
 0.158824497771600D+03 -.180772066086551D+02 -.931594075152738D+02 -.243877117629389D+02
 0.149565631241411D+03 -.107687379215198D+03 -.609206858710666D+02 0.243877117629389D+02
 0.223445180520493D+03 0.125764585823853D+03 0.154080093386340D+03 0.101834878467286D+03
0.262080091106D-03 0.000000000000D+00 0.000000000000D+00 0.272181405240D-02 0.000000000000D+00  5 -2 1 25 -24 21 0 0.18328754D-02 0.17932526D+00 0.13274600D+05 0.13274600D+05 0.13274600D+05 0.12539183D+01  1  2  2  2  5  2        1 0.235473239184D+00 0.100000000000D+01
-.145510095360D-04 0.000000000000D+00 -.100645655712D-05 0.272181405240D-02 0.000000000000D+00  5 -2 1 25 -24 21 2 0.18328754D-02 0.17932526D+00 0.13274600D+05 0.13274600D+05 0.13274600D+05 0.12539183D+01  1  2  3  2  5  2        1 -.205560255870D-01 0.100000000000D+01
0.181269294817D-04 0.000000000000D+00 0.000000000000D+00 0.272181405240D-02 0.000000000000D+00  5 -2 1 25 -24 21 2 0.18328754D-02 0.17932526D+00 0.13274600D+05 0.13274600D+05 0.13274600D+05 0.12539183D+01  1  2 15  2  5  2        1 0.256076820867D-01 0.100000000000D+01
  </mgrwgt>
  </event>
  <event>
  4     66 0.46019439E-03 0.47533581E+02 0.75467711E-02 0.12186259E+00
       -2 -1    0    0    0  501 0.00000000E+00 0.00000000E+00 0.31090561E+02 0.31092208E+02 0.32000000E+00 0.0000E+00 0.9000E+01
        1 -1    0    0  501    0 0.00000000E+00 0.00000000E+00 -.55926316E+03 0.55926325E+03 0.32000000E+00 0.0000E+00 0.9000E+01
       25  1    1    2    0    0 0.74012856E+01 0.37805810E+02 -.13806611E+03 0.19018757E+03 0.12500000E+03 0.0000E+00 0.9000E+01
      -24  1    1    2    0    0 -.74012856E+01 -.37805810E+02 -.39010648E+03 0.40016789E+03 0.80419002E+02 0.0000E+00 0.9000E+01
#aMCatNLO 1  0  0  2  1 0.46659579D+02 0.00000000D+00  -5  5  0 0.00000000D+00 0.00000000D+00 0.00000000D+00 0.00000000D+00 0.00000000D+00
  <mgrwgt>
 0.1078815863D+00    7    2    0
 0.131864773952904D+03 0.000000000000000D+00 0.000000000000000D+00 0.131864773952904D+03
 0.131864773952904D+03 0.000000000000000D+00 0.000000000000000D+00 -.131864773952904D+03
 0.149226848317245D+03 0.740128564232747D+01 0.378058098218536D+02 0.718303137488106D+02
 0.114502699588562D+03 -.740128564232747D+01 -.378058098218536D+02 -.718303137488106D+02
 0.000000000000000D+00 0.000000000000000D+00 0.000000000000000D+00 -.000000000000000D+00
 0.137476005433469D+03 0.000000000000000D+00 0.000000000000000D+00 0.137476005433469D+03
 0.286656037480044D+03 0.000000000000000D+00 0.000000000000000D+00 -.286656037480044D+03
 0.144734406876159D+03 0.348348367129265D+01 0.123012154705434D+02 0.718303137488106D+02
 0.123090891988965D+03 -.105678411830407D+02 -.584198467624323D+02 -.718303137488106D+02
 0.156306744048389D+03 0.708435751174802D+01 0.461186312918889D+02 -.149180032046575D+03
0.226400932169D-03 0.000000000000D+00 0.000000000000D+00 0.191173925501D-02 0.000000000000D+00  5 -2 1 25 -24 21 0 0.47832970D-02 0.86040619D-01 0.12096867D+05 0.12096867D+05 0.12096867D+05 0.12586151D+01  1  2  2  2  5  2        1 0.153136899388D+00 0.100000000000D+01
-.120744604201D-04 0.000000000000D+00 -.869439192265D-06 0.191173925501D-02 0.000000000000D+00  5 -2 1 25 -24 21 2 0.47832970D-02 0.86040619D-01 0.12096867D+05 0.12096867D+05 0.12096867D+05 0.12586151D+01  1  2  3  2  5  2        1 -.129376453645D-01 0.100000000000D+01
0.154784770600D-04 0.000000000000D+00 0.000000000000D+00 0.191173925501D-02 0.000000000000D+00  5 -2 1 25 -24 21 2 0.47832970D-02 0.86040619D-01 0.12096867D+05 0.12096867D+05 0.12096867D+05 0.12586151D+01  1  2 15  2  5  2        1 0.165850100144D-01 0.100000000000D+01
0.682730568630D-03 0.000000000000D+00 0.000000000000D+00 0.191173925501D-02 0.000000000000D+00  5 -2 1 25 -24 21 2 0.47832970D-02 0.18667366D+00 0.18532814D+05 0.18532814D+05 0.18532814D+05 0.12374855D+01  1  2 12  2  5  2        1 0.214464112095D+00 0.100000000000D+01
-.826420436960D-03 0.000000000000D+00 -.835279938330D-04 0.191173925501D-02 0.000000000000D+00  5 -2 1 25 -24 21 2 0.47832970D-02 0.18965073D+00 0.12096867D+05 0.12096867D+05 0.12096867D+05 0.12586151D+01  1  2  5  2  5  2        1 -.259763126219D+00 0.100000000000D+01
0.572654719446D-04 0.000000000000D+00 0.000000000000D+00 0.191173925501D-02 0.000000000000D+00  5 -2 21 25 -24 -1 2 0.47832970D-02 0.18667366D+00 0.18532814D+05 0.18532814D+05 0.18532814D+05 0.12374855D+01  1  2 12  4  5  2        1 0.240318100601D-01 0.100000000000D+01
-.655437269470D-04 0.000000000000D+00 -.715662181847D-05 0.191173925501D-02 0.000000000000D+00  5 -2 21 25 -24 -1 2 0.47832970D-02 0.18965073D+00 0.12096867D+05 0.12096867D+05 0.12096867D+05 0.12586151D+01  1  2  5  4  5  2        1 -.276354736366D-01 0.100000000000D+01
  </mgrwgt>
  </event>
  <event>
  4     66 0.46019439E-03 0.10582706E+03 0.75467711E-02 0.12339312E+00
       -2 -1    0    0    0  501 0.00000000E+00 0.00000000E+00 0.30411637E+02 0.30413320E+02 0.32000000E+00 0.0000E+00 0.9000E+01
        1 -1    0    0  501    0 0.00000000E+00 0.00000000E+00 -.36835185E+03 0.36835199E+03 0.32000000E+00 0.0000E+00 0.9000E+01
       25  1    1    2    0    0 0.20577637E+02 0.14065661E+02 -.20021427E+03 0.23734371E+03 0.12500000E+03 0.0000E+00 0.9000E+01
      -24  1    1    2    0    0 -.20577637E+02 -.14065661E+02 -.13772594E+03 0.16142160E+03 0.80419002E+02 0.0000E+00 0.9000E+01
#aMCatNLO 1  0  0  2  1 0.36657255D+02 0.00000000D+00  -5  5  0 0.00000000D+00 0.00000000D+00 0.00000000D+00 0.00000000D+00 0.00000000D+00
  <mgrwgt>
 0.6944738530D-01    4    2    0
 0.105842080906303D+03 0.000000000000000D+00 0.000000000000000D+00 0.105842080906303D+03
 0.105842080906303D+03 0.000000000000000D+00 0.000000000000000D+00 -.105842080906303D+03
 0.127472853769075D+03 0.205776367450983D+02 0.140656610101146D+02 0.174542097133680D+01
 0.842113080435306D+02 -.205776367450983D+02 -.140656610101146D+02 -.174542097133680D+01
 0.000000000000000D+00 -.000000000000000D+00 0.000000000000000D+00 0.000000000000000D+00
 0.131166646996244D+03 0.000000000000000D+00 0.000000000000000D+00 0.131166646996244D+03
 0.121562533118189D+03 0.000000000000000D+00 0.000000000000000D+00 -.121562533118189D+03
 0.131477515681332D+03 0.405087513128900D+02 0.416313613016349D+01 0.174542097133680D+01
 0.833571618795802D+02 -.768008275019393D+01 -.204736493286126D+02 -.174542097133680D+01
 0.378945025535204D+02 -.328286685626961D+02 0.163105131984491D+02 0.960411387805422D+01
0.150862692163D-03 0.000000000000D+00 0.000000000000D+00 0.313458960352D-02 0.000000000000D+00  5 -2 1 25 -24 21 0 0.46788536D-02 0.56669656D-01 0.11199367D+05 0.11199367D+05 0.11199367D+05 0.12625539D+01  1  2  2  2  5  2        1 0.179079980396D+00 0.100000000000D+01
-.838126047046D-05 0.000000000000D+00 -.579352460965D-06 0.313458960352D-02 0.000000000000D+00  5 -2 1 25 -24 21 2 0.46788536D-02 0.56669656D-01 0.11199367D+05 0.11199367D+05 0.11199367D+05 0.12625539D+01  1  2  3  2  5  2        1 -.158589481209D-01 0.100000000000D+01
0.104021696350D-04 0.000000000000D+00 0.000000000000D+00 0.313458960352D-02 0.000000000000D+00  5 -2 1 25 -24 21 2 0.46788536D-02 0.56669656D-01 0.11199367D+05 0.11199367D+05 0.11199367D+05 0.12625539D+01  1  2 15  2  5  2        1 0.196828948544D-01 0.100000000000D+01
-.599603972418D-04 0.000000000000D+00 0.000000000000D+00 0.313458960352D-02 0.000000000000D+00  5 -2 1 25 -24 21 2 0.46788536D-02 0.56669656D-01 0.11199367D+05 0.11199367D+05 0.11199367D+05 0.12625539D+01  1  2  4  2  5  2        1 -.113456541832D+00 0.100000000000D+01
  </mgrwgt>
  </event>
  <event>
  4     66 0.46019439E-03 0.12782899E+03 0.75467711E-02 0.12110332E+00
       -2 -1    0    0    0  501 0.00000000E+00 0.00000000E+00 0.10104042E+03 0.10104093E+03 0.32000000E+00 0.0000E+00 0.9000E+01
        1 -1    0    0  501    0 0.00000000E+00 0.00000000E+00 -.16269370E+03 0.16269401E+03 0.32000000E+00 0.0000E+00 0.9000E+01
       25  1    1    2    0    0 -.62449990E+02 0.41411565E+02 -.25012580E+02 0.14787004E+03 0.12500000E+03 0.0000E+00 0.9000E+01
      -24  1    1    2    0    0 0.62449990E+02 -.41411565E+02 -.36640694E+02 0.11586490E+03 0.80419002E+02 0.0000E+00 0.9000E+01
#aMCatNLO 1  0  0  1  1 0.26411948D+02 0.00000000D+00  -5  5  0 0.00000000D+00 0.00000000D+00 0.00000000D+00 0.00000000D+00 0.00000000D+00
  <mgrwgt>
 0.1539999357D+00    4    2    0
 0.128213681243819D+03 0.000000000000000D+00 0.000000000000000D+00 0.128213681243819D+03
 0.128213681243819D+03 0.000000000000000D+00 0.000000000000000D+00 -.128213681243819D+03
 0.146070168860407D+03 -.624499902581049D+02 0.414115651422021D+02 0.982726921090219D+01
 0.110357193627232D+03 0.624499902581049D+02 -.414115651422021D+02 -.982726921090219D+01
 0.000000000000000D+00 -.000000000000000D+00 0.000000000000000D+00 -.000000000000000D+00
 0.134243102246071D+03 0.000000000000000D+00 0.000000000000000D+00 0.134243102246071D+03
 0.161482945445550D+03 0.000000000000000D+00 0.000000000000000D+00 -.161482945445550D+03
 0.139989926325277D+03 -.553121983333845D+02 0.285686010847776D+02 0.982726921090219D+01
 0.117794059306473D+03 0.681428366152591D+02 -.516546517886705D+02 -.982726921090219D+01
 0.379420620598724D+02 -.128306382818746D+02 0.230860507038929D+02 -.272398431994788D+02
0.371110101440D-03 0.000000000000D+00 0.000000000000D+00 0.263259961436D-02 0.000000000000D+00  5 -2 1 25 -24 21 0 0.15544743D-01 0.25029863D-01 0.16340251D+05 0.16340251D+05 0.16340251D+05 0.12436075D+01  1  2  2  1  5  1       -2 0.190555941927D+00 0.100000000000D+01
-.206170015127D-04 0.000000000000D+00 -.142516050506D-05 0.263259961436D-02 0.000000000000D+00  5 -2 1 25 -24 21 2 0.15544743D-01 0.25029863D-01 0.16340251D+05 0.16340251D+05 0.16340251D+05 0.12436075D+01  1  2  3  1  5  1       -2 -.163723837253D-01 0.100000000000D+01
0.256645277461D-04 0.000000000000D+00 0.000000000000D+00 0.263259961436D-02 0.000000000000D+00  5 -2 1 25 -24 21 2 0.15544743D-01 0.25029863D-01 0.16340251D+05 0.16340251D+05 0.16340251D+05 0.12436075D+01  1  2 15  1  5  1       -2 0.203807278246D-01 0.100000000000D+01
-.510808497291D-04 0.000000000000D+00 0.000000000000D+00 0.263259961436D-02 0.000000000000D+00  5 -2 1 25 -24 21 2 0.15544743D-01 0.25029863D-01 0.16340251D+05 0.16340251D+05 0.16340251D+05 0.12436075D+01  1  2  4  1  5  1       -2 -.405643503623D-01 0.100000000000D+01
  </mgrwgt>
  </event>
  <event>
  5     66 -.46019439E-03 0.11221383E+03 0.75467711E-02 0.12488256E+00
       21 -1    0    0  502  501 0.00000000E+00 0.00000000E+00 0.30510143E+02 0.30519360E+02 0.75000000E+00 0.0000E+00 0.9000E+01
        1 -1    0    0  501    0 0.00000000E+00 0.00000000E+00 -.11299949E+04 0.11299949E+04 0.32000000E+00 0.0000E+00 0.9000E+01
       25  1    1    2    0    0 0.12061719E+02 0.37982633E+02 -.40428688E+03 0.42504241E+03 0.12500000E+03 0.0000E+00 0.9000E+01
      -24  1    1    2    0    0 -.10889901E+02 -.46404891E+02 -.71121614E+03 0.71733369E+03 0.80419002E+02 0.0000E+00 0.9000E+01
        2  1    1    2  502    0 -.11718185E+01 0.84222583E+01 0.16018263E+02 0.18138213E+02 0.32000000E+00 0.0000E+00 0.9000E+01
#aMCatNLO 2  0  0  1  2 0.85033872D+01 0.00000000D+00  -5  5  0 0.00000000D+00 0.00000000D+00 0.00000000D+00 0.00000000D+00 0.00000000D+00
  <mgrwgt>
 -.4812930940D-01    2    2    0
 0.123089236834481D+03 0.000000000000000D+00 0.000000000000000D+00 0.123089236834481D+03
 0.123089236834481D+03 0.000000000000000D+00 0.000000000000000D+00 -.123089236834481D+03
 0.141689124771767D+03 0.113906292781420D+02 0.428059850256764D+02 0.498869651233537D+02
 0.104489348897195D+03 -.113906292781420D+02 -.428059850256764D+02 -.498869651233537D+02
 0.000000000000000D+00 -.000000000000000D+00 0.000000000000000D+00 0.000000000000000D+00
 0.279705667973074D+03 0.000000000000000D+00 0.000000000000000D+00 0.279705667973074D+03
 0.123278120590846D+03 0.000000000000000D+00 0.000000000000000D+00 -.123278120590846D+03
 0.140363366953142D+03 0.120617192221574D+02 0.379826331710893D+02 0.498869651233537D+02
 0.105961923042736D+03 -.108899007384278D+02 -.464048914795919D+02 -.498869651233537D+02
 0.156658498568042D+03 -.117181848372955D+01 0.842225830850260D+01 0.156427547382228D+03
-.740209653367D-03 0.000000000000D+00 0.000000000000D+00 0.233700666890D-02 0.000000000000D+00  5 21 1 25 -24 2 2 0.46939774D-02 0.17357949D+00 0.13593943D+05 0.13593943D+05 0.13593943D+05 0.12527252D+01  1  2 13  3  5  1       -2 -.508524017940D+01 0.100000000000D+01
0.735390785335D-03 0.000000000000D+00 0.000000000000D+00 0.233700666890D-02 0.324680532670D-04  5 21 1 25 -24 2 2 0.46945744D-02 0.17384585D+00 0.13593943D+05 0.13593943D+05 0.13593943D+05 0.12527252D+01  1  2  1  3  5  1       -2 0.503711087000D+01 0.100000000000D+01
  </mgrwgt>
  </event>
  <event>
  4     66 0.46019439E-03 0.13861489E+03 0.75467711E-02 0.11605583E+00
       -2 -1    0    0    0  501 0.00000000E+00 0.00000000E+00 0.14809387E+03 0.14809422E+03 0.32000000E+00 0.0000E+00 0.9000E+01
        1 -1    0    0  501    0 0.00000000E+00 0.00000000E+00 -.13020354E+03 0.13020393E+03 0.32000000E+00 0.0000E+00 0.9000E+01
       25  1    1    2    0    0 0.62760232E+02 0.67096422E+02 0.17807415E+01 0.15514170E+03 0.12500000E+03 0.0000E+00 0.9000E+01
      -24  1    1    2    0    0 -.62760232E+02 -.67096422E+02 0.16109591E+02 0.12315645E+03 0.80419002E+02 0.0000E+00 0.9000E+01
#aMCatNLO 1  0  0  1  2 0.85322597D+02 0.00000000D+00  -5  5  0 0.00000000D+00 0.00000000D+00 0.00000000D+00 0.00000000D+00 0.00000000D+00
  <mgrwgt>
 0.2679942885D+00    3    2    0
 0.138861259675380D+03 0.000000000000000D+00 0.000000000000000D+00 0.138861259675380D+03
 0.138861259675380D+03 0.000000000000000D+00 0.000000000000000D+00 -.138861259675380D+03
 0.155348550779893D+03 0.627602321521236D+02 0.670964216996058D+02 -.820948748298059D+01
 0.122373968570867D+03 -.627602321521236D+02 -.670964216996058D+02 0.820948748298059D+01
 0.000000000000000D+00 -.000000000000000D+00 0.000000000000000D+00 -.000000000000000D+00
 0.149906333092059D+03 0.000000000000000D+00 0.000000000000000D+00 0.149906333092059D+03
 0.537542559008641D+03 0.000000000000000D+00 0.000000000000000D+00 -.537542559008641D+03
 0.160192731577902D+03 0.945812760955348D+02 0.319952774295947D+02 -.820948748298059D+01
 0.130340817862780D+03 -.372749826019986D+02 -.952086804553843D+02 0.820948748298059D+01
 0.396915342660018D+03 -.573062934935363D+02 0.632134030257896D+02 -.387636225916582D+03
0.729765332032D-03 0.000000000000D+00 0.000000000000D+00 0.250502594743D-02 0.000000000000D+00  5 -2 1 25 -24 21 0 0.22783730D-01 0.20031371D-01 0.19214087D+05 0.19214087D+05 0.19214087D+05 0.12357474D+01  1  2  2  1  5  1       -2 0.262575932762D+00 0.100000000000D+01
-.405423629964D-04 0.000000000000D+00 -.280249102663D-05 0.250502594743D-02 0.000000000000D+00  5 -2 1 25 -24 21 2 0.22783730D-01 0.20031371D-01 0.19214087D+05 0.19214087D+05 0.19214087D+05 0.12357474D+01  1  2  3  1  5  1       -2 -.222761504320D-01 0.100000000000D+01
0.504037142845D-04 0.000000000000D+00 0.000000000000D+00 0.250502594743D-02 0.000000000000D+00  5 -2 1 25 -24 21 2 0.22783730D-01 0.20031371D-01 0.19214087D+05 0.19214087D+05 0.19214087D+05 0.12357474D+01  1  2 15  1  5  1       -2 0.276945061597D-01 0.100000000000D+01
  </mgrwgt>
  </event>
  <event>
  4     66 0.46019439E-03 0.10485573E+03 0.75467711E-02 0.12426047E+00
       -2 -1    0    0    0  501 0.00000000E+00 0.00000000E+00 0.25318011E+03 0.25318031E+03 0.32000000E+00 0.0000E+00 0.9000E+01
        1 -1    0    0  501    0 0.00000000E+00 0.00000000E+00 -.43722856E+02 0.43724027E+02 0.32000000E+00 0.0000E+00 0.9000E+01
       25  1    1    2    0    0 -.18937925E+02 0.81673620E+01 0.11441611E+03 0.17070851E+03 0.12500000E+03 0.0000E+00 0.9000E+01
      -24  1    1    2    0    0 0.18937925E+02 -.81673620E+01 0.95041147E+02 0.12619583E+03 0.80419002E+02 0.0000E+00 0.9000E+01
#aMCatNLO 1  0  0  1  2 0.28906127D+02 0.00000000D+00  -5  5  0 0.00000000D+00 0.00000000D+00 0.00000000D+00 0.00000000D+00 0.00000000D+00
  <mgrwgt>
 0.1679620297D+00    4    2    0
 0.105213883263845D+03 0.000000000000000D+00 0.000000000000000D+00 0.105213883263845D+03
 0.105213883263845D+03 0.000000000000000D+00 0.000000000000000D+00 -.105213883263845D+03
 0.126973806387926D+03 -.189379252322533D+02 0.816736196171901D+01 -.848508663022780D+01
 0.834539601397630D+02 0.189379252322533D+02 -.816736196171901D+01 0.848508663022780D+01
 0.000000000000000D+00 -.000000000000000D+00 -.000000000000000D+00 -.000000000000000D+00
 0.109895243023678D+03 0.000000000000000D+00 0.000000000000000D+00 0.109895243023678D+03
 0.162761368889650D+03 0.000000000000000D+00 0.000000000000000D+00 -.162761368889650D+03
 0.129016566332700D+03 -.171504457712183D+02 0.255761588790438D+02 -.848508663022780D+01
 0.833873157316545D+02 0.201029118319584D+02 0.317879085724919D+01 0.848508663022780D+01
 0.602527298489736D+02 -.295246606074010D+01 -.287549497362930D+02 -.528661258659724D+02
0.319565255662D-03 0.000000000000D+00 0.000000000000D+00 0.313895104097D-02 0.000000000000D+00  5 -2 1 25 -24 21 0 0.38950892D-01 0.67266988D-02 0.10994724D+05 0.10994724D+05 0.10994724D+05 0.12635018D+01  1  2  2  1  5  1       -2 0.179646711976D+00 0.100000000000D+01
-.177533743357D-04 0.000000000000D+00 -.122721472521D-05 0.313895104097D-02 0.000000000000D+00  5 -2 1 25 -24 21 2 0.38950892D-01 0.67266988D-02 0.10994724D+05 0.10994724D+05 0.10994724D+05 0.12635018D+01  1  2  3  1  5  1       -2 -.159328101499D-01 0.100000000000D+01
0.220685275866D-04 0.000000000000D+00 0.000000000000D+00 0.313895104097D-02 0.000000000000D+00  5 -2 1 25 -24 21 2 0.38950892D-01 0.67266988D-02 0.10994724D+05 0.10994724D+05 0.10994724D+05 0.12635018D+01  1  2 15  1  5  1       -2 0.198054552153D-01 0.100000000000D+01
-.173349869461D-04 0.000000000000D+00 0.000000000000D+00 0.313895104097D-02 0.000000000000D+00  5 -2 1 25 -24 21 2 0.38950892D-01 0.67266988D-02 0.10994724D+05 0.10994724D+05 0.10994724D+05 0.12635018D+01  1  2  4  1  5  1       -2 -.155573273419D-01 0.100000000000D+01
  </mgrwgt>
  </event>
  <event>
  4     66 0.46019439E-03 0.23607218E+03 0.75467711E-02 0.10372525E+00
       -2 -1    0    0    0  501 0.00000000E+00 0.00000000E+00 0.12323857E+03 0.12323899E+03 0.32000000E+00 0.0000E+00 0.9000E+01
        1 -1    0    0  501    0 0.00000000E+00 0.00000000E+00 -.89013708E+03 0.89013713E+03 0.32000000E+00 0.0000E+00 0.9000E+01
       25  1    1    2    0    0 -.18711049E+03 -.98831584E+02 -.36208592E+02 0.24842319E+03 0.12500000E+03 0.0000E+00 0.9000E+01
      -24  1    1    2    0    0 0.18711049E+03 0.98831584E+02 -.73068991E+03 0.76495293E+03 0.80419002E+02 0.0000E+00 0.9000E+01
#aMCatNLO 1  0  0  1  2 0.30204269D+03 0.00000000D+00  -5  5  0 0.00000000D+00 0.00000000D+00 0.00000000D+00 0.00000000D+00 0.00000000D+00
  <mgrwgt>
 0.2076298434D+00    5    2    0
 0.331209087700722D+03 0.000000000000000D+00 0.000000000000000D+00 0.331209087700722D+03
 0.331209087700722D+03 0.000000000000000D+00 0.000000000000000D+00 -.331209087700722D+03
 0.338121476570547D+03 -.187110493180502D+03 -.988315836860559D+02 0.232213510214420D+03
 0.324296698830897D+03 0.187110493180502D+03 0.988315836860559D+02 -.232213510214420D+03
 0.000000000000000D+00 -.000000000000000D+00 -.000000000000000D+00 0.000000000000000D+00
 0.741878607681324D+03 0.000000000000000D+00 0.000000000000000D+00 0.741878607681324D+03
 0.424373920068837D+03 0.000000000000000D+00 0.000000000000000D+00 -.424373920068837D+03
 0.275731276082133D+03 -.769133112599921D+02 -.237479438015684D+02 0.232213510214420D+03
 0.452298687636709D+03 0.326522791506742D+03 0.193821152571283D+03 -.232213510214420D+03
 0.438222564031318D+03 -.249609480246750D+03 -.170073208769715D+03 0.317504687612487D+03
0.516978580289D-02 0.000000000000D+00 0.000000000000D+00 0.102792865479D-02 0.000000000000D+00  5 -2 1 25 -24 21 0 0.18959816D-01 0.13694420D+00 0.55730074D+05 0.55730074D+05 0.55730074D+05 0.11876432D+01  1  2  2  1  5  1       -2 0.205338049706D+00 0.100000000000D+01
-.247170983684D-03 0.000000000000D+00 -.198533387190D-04 0.102792865479D-02 0.000000000000D+00  5 -2 1 25 -24 21 2 0.18959816D-01 0.13694420D+00 0.55730074D+05 0.55730074D+05 0.55730074D+05 0.11876432D+01  1  2  3  1  5  1       -2 -.138473402209D-01 0.100000000000D+01
0.353287450610D-03 0.000000000000D+00 0.000000000000D+00 0.102792865479D-02 0.000000000000D+00  5 -2 1 25 -24 21 2 0.18959816D-01 0.13694420D+00 0.55730074D+05 0.55730074D+05 0.55730074D+05 0.11876432D+01  1  2 15  1  5  1       -2 0.197923374801D-01 0.100000000000D+01
-.580595476630D-03 0.000000000000D+00 -.141852077359D-02 0.102792865479D-02 0.000000000000D+00  5 -2 1 25 -24 21 2 0.53054499D-01 0.13694420D+00 0.55730074D+05 0.55730074D+05 0.55730074D+05 0.11876432D+01  1  2  5  1  5  1       -2 -.487712859477D-02 0.100000000000D+01
0.121258395075D-04 0.000000000000D+00 -.163901172652D-03 0.102792865479D-02 0.000000000000D+00  5 21 1 25 -24 2 2 0.53054499D-01 0.13694420D+00 0.55730074D+05 0.55730074D+05 0.55730074D+05 0.11876432D+01  1  2  5  3  5  1       -2 0.122392506684D-02 0.100000000000D+01
  </mgrwgt>
  </event>
  <event>
  4     66 0.46019439E-03 0.10997425E+03 0.75467711E-02 0.12217472E+00
       -2 -1    0    0    0  501 0.00000000E+00 0.00000000E+00 0.32020405E+03 0.32020421E+03 0.32000000E+00 0.0000E+00 0.9000E+01
        1 -1    0    0  501    0 0.00000000E+00 0.00000000E+00 -.78523390E+02 0.78524042E+02 0.32000000E+00 0.0000E+00 0.9000E+01
       25  1    1    2    0    0 -.36149618E+02 -.13222015E+02 -.10537386E+02 0.13121606E+03 0.12500000E+03 0.0000E+00 0.9000E+01
      -24  1    1    2    0    0 0.36149618E+02 0.13222015E+02 0.25221804E+03 0.26751219E+03 0.80419002E+02 0.0000E+00 0.9000E+01
#aMCatNLO 1  0  0  2  2 0.43508651D+02 0.00000000D+00  -5  5  0 0.00000000D+00 0.00000000D+00 0.00000000D+00 0.00000000D+00 0.00000000D+00
  <mgrwgt>
 0.9839285649D-01    4    2    0
 0.158567553378617D+03 0.000000000000000D+00 0.000000000000000D+00 0.158567553378617D+03
 0.158567553378617D+03 0.000000000000000D+00 0.000000000000000D+00 -.158567553378617D+03
 0.173005854043702D+03 -.361496183834499D+02 -.132220153174896D+02 -.113244906883557D+03
 0.144129252713532D+03 0.361496183834499D+02 0.132220153174896D+02 0.113244906883557D+03
 0.000000000000000D+00 -.000000000000000D+00 0.000000000000000D+00 0.000000000000000D+00
 0.205563555201093D+03 0.000000000000000D+00 0.000000000000000D+00 0.205563555201093D+03
 0.170451535969238D+03 0.000000000000000D+00 0.000000000000000D+00 -.170451535969238D+03
 0.174308869544320D+03 -.266795665578479D+02 -.349624626569470D+02 -.113244906883557D+03
 0.145796860895856D+03 0.440548845153087D+02 -.492614534826749D+01 0.113244906883557D+03
 0.559093607301555D+02 -.173753179574608D+02 0.398886080052145D+02 0.351120192318548D+02
0.860571325772D-03 0.000000000000D+00 0.000000000000D+00 0.124207117172D-02 0.000000000000D+00  5 -2 1 25 -24 21 0 0.49262223D-01 0.12080584D-01 0.12094335D+05 0.12094335D+05 0.12094335D+05 0.12586257D+01  1  2  2  2  5  2        1 0.142585882139D+00 0.100000000000D+01
-.400255224503D-04 0.000000000000D+00 -.330482048460D-05 0.124207117172D-02 0.000000000000D+00  5 -2 1 25 -24 21 2 0.49262223D-01 0.12080584D-01 0.12094335D+05 0.12094335D+05 0.12094335D+05 0.12586257D+01  1  2  3  2  5  2        1 -.105055763458D-01 0.100000000000D+01
0.587027021100D-04 0.000000000000D+00 0.000000000000D+00 0.124207117172D-02 0.000000000000D+00  5 -2 1 25 -24 21 2 0.49262223D-01 0.12080584D-01 0.12094335D+05 0.12094335D+05 0.12094335D+05 0.12586257D+01  1  2 15  2  5  2        1 0.154078118402D-01 0.100000000000D+01
-.187049564203D-03 0.000000000000D+00 0.000000000000D+00 0.124207117172D-02 0.000000000000D+00  5 -2 1 25 -24 21 2 0.49262223D-01 0.12080584D-01 0.12094335D+05 0.12094335D+05 0.12094335D+05 0.12586257D+01  1  2  4  2  5  2        1 -.490952611454D-01 0.100000000000D+01
  </mgrwgt>
  </event>
  <event>
  4     66 0.46019439E-03 0.73731629E+02 0.75467711E-02 0.12015225E+00
       -2 -1    0    0    0  501 0.00000000E+00 0.00000000E+00 0.17369039E+02 0.17371987E+02 0.32000000E+00 0.0000E+00 0.9000E+01
        1 -1    0    0  501    0 0.00000000E+00 0.00000000E+00 -.70260321E+03 0.70260329E+03 0.32000000E+00 0.0000E+00 0.9000E+01
       25  1    1    2    0    0 -.34008971E+02 -.13270136E+02 -.35482361E+03 0.37796495E+03 0.12500000E+03 0.0000E+00 0.9000E+01
      -24  1    1    2    0    0 0.34008971E+02 0.13270136E+02 -.33041056E+03 0.34201032E+03 0.80419002E+02 0.0000E+00 0.9000E+01
#aMCatNLO 1  0  0  2  1 0.69065926D+02 0.00000000D+00  -5  5  0 0.00000000D+00 0.00000000D+00 0.00000000D+00 0.00000000D+00 0.00000000D+00
  <mgrwgt>
 0.2040985482D+00    9    2    0
 0.110474567478384D+03 0.000000000000000D+00 0.000000000000000D+00 0.110474567478384D+03
 0.110474567478384D+03 0.000000000000000D+00 0.000000000000000D+00 -.110474567478384D+03
 0.131198305653284D+03 -.340089707951025D+02 -.132701358269533D+02 0.159777597580067D+02
 0.897508293034835D+02 0.340089707951025D+02 0.132701358269533D+02 -.159777597580067D+02
 0.000000000000000D+00 -.000000000000000D+00 0.000000000000000D+00 -.000000000000000D+00
 0.141441273779405D+03 0.000000000000000D+00 0.000000000000000D+00 0.141441273779405D+03
 0.162156537976270D+03 0.000000000000000D+00 0.000000000000000D+00 -.162156537976270D+03
 0.131664671725233D+03 -.246278933457863D+01 -.380687751618325D+02 0.159777597580067D+02
 0.998274931184171D+02 0.567602620562194D+02 -.461478844171776D+01 -.159777597580067D+02
 0.721056469120245D+02 -.542974727216407D+02 0.426835636035502D+02 -.207152641968650D+02
0.143610699771D-03 0.000000000000D+00 0.000000000000D+00 0.294606538992D-02 0.000000000000D+00  5 -2 1 25 -24 21 0 0.26723922D-02 0.10809303D+00 0.11939816D+05 0.11939816D+05 0.11939816D+05 0.12592801D+01  1  2  2  2  5  2        1 0.167337984631D+00 0.100000000000D+01
-.797720518911D-05 0.000000000000D+00 -.551502900686D-06 0.294606538992D-02 0.000000000000D+00  5 -2 1 25 -24 21 2 0.26723922D-02 0.10809303D+00 0.11939816D+05 0.11939816D+05 0.11939816D+05 0.12592801D+01  1  2  3  2  5  2        1 -.147401934206D-01 0.100000000000D+01
0.993492305422D-05 0.000000000000D+00 0.000000000000D+00 0.294606538992D-02 0.000000000000D+00  5 -2 1 25 -24 21 2 0.26723922D-02 0.10809303D+00 0.11939816D+05 0.11939816D+05 0.11939816D+05 0.12592801D+01  1  2 15  2  5  2        1 0.183576433057D-01 0.100000000000D+01
0.246172012001D-04 0.000000000000D+00 0.000000000000D+00 0.294606538992D-02 0.000000000000D+00  5 -2 1 25 -24 21 2 0.26723922D-02 0.16806090D+00 0.22245437D+05 0.22245437D+05 0.22245437D+05 0.12287708D+01  1  2 12  2  5  2        1 0.219749299769D-01 0.100000000000D+01
-.699240352658D-04 0.000000000000D+00 0.000000000000D+00 0.294606538992D-02 0.000000000000D+00  5 -2 1 25 -24 21 2 0.26723922D-02 0.10809303D+00 0.11939816D+05 0.11939816D+05 0.11939816D+05 0.12592801D+01  1  2  4  2  5  2        1 -.129204875659D+00 0.100000000000D+01
-.922949854407D-04 0.000000000000D+00 -.578693021472D-04 0.294606538992D-02 0.000000000000D+00  5 -2 1 25 -24 21 2 0.26723922D-02 0.18798601D+00 0.11939816D+05 0.11939816D+05 0.11939816D+05 0.12592801D+01  1  2  5  2  5  2        1 -.695496868009D-01 0.100000000000D+01
0.114232347961D-03 0.000000000000D+00 0.500141145416D-04 0.294606538992D-02 0.000000000000D+00  5 -2 1 25 -24 21 2 0.26723922D-02 0.10809303D+00 0.11939816D+05 0.11939816D+05 0.11939816D+05 0.12592801D+01  1  2  6  2  5  2        1 0.211077296360D+00 0.100000000000D+01
0.126057445894D-05 0.000000000000D+00 0.000000000000D+00 0.294606538992D-02 0.000000000000D+00  5 -2 21 25 -24 -1 2 0.26723922D-02 0.16806090D+00 0.22245437D+05 0.22245437D+05 0.22245437D+05 0.12287708D+01  1  2 12  4  5  2        1 0.164366757142D-02 0.100000000000D+01
-.274499339355D-05 0.000000000000D+00 -.354355793714D-05 0.294606538992D-02 0.000000000000D+00  5 -2 21 25 -24 -1 2 0.26723922D-02 0.18798601D+00 0.11939816D+05 0.11939816D+05 0.11939816D+05 0.12592801D+01  1  2  5  4  5  2        1 -.279821779275D-02 0.100000000000D+01
  </mgrwgt>
  </event>
  <event>
  4     66 0.46019439E-03 0.11615484E+03 0.75467711E-02 0.11338348E+00
       -2 -1    0    0    0  501 0.00000000E+00 0.00000000E+00 0.10448772E+02 0.10453671E+02 0.32000000E+00 0.0000E+00 0.9000E+01
        1 -1    0    0  501    0 0.00000000E+00 0.00000000E+00 -.12932466E+04 0.12932466E+04 0.32000000E+00 0.0000E+00 0.9000E+01
       25  1    1    2    0    0 -.47124005E+01 -.53029494E+02 -.72290985E+03 0.73556644E+03 0.12500000E+03 0.0000E+00 0.9000E+01
      -24  1    1    2    0    0 0.47124005E+01 0.53029494E+02 -.55988798E+03 0.56813387E+03 0.80419002E+02 0.0000E+00 0.9000E+01
#aMCatNLO 1  0  0  1  2 0.15875568D+03 0.00000000D+00  -5  5  0 0.00000000D+00 0.00000000D+00 0.00000000D+00 0.00000000D+00 0.00000000D+00
  <mgrwgt>
 0.2510562939D+00    3    2    0
 0.116258585487515D+03 0.000000000000000D+00 0.000000000000000D+00 0.116258585487515D+03
 0.116258585487515D+03 0.000000000000000D+00 0.000000000000000D+00 -.116258585487515D+03
 0.135951290347177D+03 -.471240050104091D+01 -.530294944866764D+02 0.483935357952462D+01
 0.965658806278535D+02 0.471240050104091D+01 0.530294944866764D+02 -.483935357952462D+01
 0.000000000000000D+00 0.000000000000000D+00 -.000000000000000D+00 -.000000000000000D+00
 0.210282500802698D+03 0.000000000000000D+00 0.000000000000000D+00 0.210282500802698D+03
 0.231419081562491D+03 0.000000000000000D+00 0.000000000000000D+00 -.231419081562491D+03
 0.164807854357621D+03 -.972717880394366D+02 -.452924802423765D+02 0.483935357952462D+01
 0.116737172359415D+03 -.609321535953937D+02 0.585167050615535D+02 -.483935357952462D+01
 0.160156555648154D+03 0.158203941634830D+03 -.132242248191770D+02 -.211365807597931D+02
0.276139498363D-03 0.000000000000D+00 0.000000000000D+00 0.285498678522D-02 0.000000000000D+00  5 -2 1 25 -24 21 0 0.16078833D-02 0.19896140D+00 0.13491946D+05 0.13491946D+05 0.13491946D+05 0.12531029D+01  1  2  2  1  5  1       -2 0.245811668125D+00 0.100000000000D+01
-.153410683750D-04 0.000000000000D+00 -.106044838291D-05 0.285498678522D-02 0.000000000000D+00  5 -2 1 25 -24 21 2 0.16078833D-02 0.19896140D+00 0.13491946D+05 0.13491946D+05 0.13491946D+05 0.12531029D+01  1  2  3  1  5  1       -2 -.214438621833D-01 0.100000000000D+01
0.190931052688D-04 0.000000000000D+00 0.000000000000D+00 0.285498678522D-02 0.000000000000D+00  5 -2 1 25 -24 21 2 0.16078833D-02 0.19896140D+00 0.13491946D+05 0.13491946D+05 0.13491946D+05 0.12531029D+01  1  2 15  1  5  1       -2 0.266884879218D-01 0.100000000000D+01
  </mgrwgt>
  </event>
  <event>
  4     66 0.46019439E-03 0.96571747E+02 0.75467711E-02 0.11495640E+00
       -2 -1    0    0    0  501 0.00000000E+00 0.00000000E+00 0.14358452E+03 0.14358488E+03 0.32000000E+00 0.0000E+00 0.9000E+01
        1 -1    0    0  501    0 0.00000000E+00 0.00000000E+00 -.19846952E+03 0.19846977E+03 0.32000000E+00 0.0000E+00 0.9000E+01
       25  1    1    2    0    0 -.11948031E+03 -.41737818E+02 -.70393184E+02 0.19130549E+03 0.12500000E+03 0.0000E+00 0.9000E+01
      -24  1    1    2    0    0 0.11948031E+03 0.41737818E+02 0.15508191E+02 0.15074916E+03 0.80419002E+02 0.0000E+00 0.9000E+01
#aMCatNLO 1  0  0  1  2 0.65948882D+02 0.00000000D+00  -5  5  0 0.00000000D+00 0.00000000D+00 0.00000000D+00 0.00000000D+00 0.00000000D+00
  <mgrwgt>
 0.2217950912D+00    9    2    0
 0.168811302080284D+03 0.000000000000000D+00 0.000000000000000D+00 0.168811302080284D+03
 0.168811302080284D+03 0.000000000000000D+00 0.000000000000000D+00 -.168811302080284D+03
 0.182373462807642D+03 -.119480310700918D+03 -.417378179128304D+02 -.402180288818046D+02
 0.155249141352926D+03 0.119480310700918D+03 0.417378179128304D+02 0.402180288818046D+02
 0.000000000000000D+00 -.000000000000000D+00 -.000000000000000D+00 0.000000000000000D+00
 0.217278371878912D+03 0.000000000000000D+00 0.000000000000000D+00 0.217278371878912D+03
 0.196016510338054D+03 0.000000000000000D+00 0.000000000000000D+00 -.196016510338054D+03
 0.173668568142041D+03 -.113388393989501D+03 -.783286804756636D+01 -.402180288818046D+02
 0.170334742793519D+03 0.125051085307246D+03 0.727423182508346D+02 0.402180288818046D+02
 0.692915712814061D+02 -.116626913177453D+02 -.649094502032682D+02 0.212618615408580D+02
0.733085171204D-03 0.000000000000D+00 0.000000000000D+00 0.216575258986D-02 0.000000000000D+00  5 -2 1 25 -24 21 0 0.22089974D-01 0.30533819D-01 0.26868617D+05 0.26868617D+05 0.26868617D+05 0.12199555D+01  1  2  2  1  5  1       -2 0.164941338253D+00 0.100000000000D+01
-.406840814020D-04 0.000000000000D+00 -.281524008318D-05 0.216575258986D-02 0.000000000000D+00  5 -2 1 25 -24 21 2 0.22089974D-01 0.30533819D-01 0.26868617D+05 0.26868617D+05 0.26868617D+05 0.12199555D+01  1  2  3  1  5  1       -2 -.136234645765D-01 0.100000000000D+01
0.504567503643D-04 0.000000000000D+00 0.000000000000D+00 0.216575258986D-02 0.000000000000D+00  5 -2 1 25 -24 21 2 0.22089974D-01 0.30533819D-01 0.26868617D+05 0.26868617D+05 0.26868617D+05 0.12199555D+01  1  2 15  1  5  1       -2 0.168959388426D-01 0.100000000000D+01
0.319165547416D-03 0.000000000000D+00 0.000000000000D+00 0.216575258986D-02 0.000000000000D+00  5 -2 1 25 -24 21 2 0.29798641D-01 0.30533819D-01 0.40083071D+05 0.40083071D+05 0.40083071D+05 0.12019088D+01  1  2 12  1  5  1       -2 0.615751419848D-01 0.100000000000D+01
-.372721401205D-03 0.000000000000D+00 0.000000000000D+00 0.216575258986D-02 0.000000000000D+00  5 -2 1 25 -24 21 2 0.22089974D-01 0.30533819D-01 0.26868617D+05 0.26868617D+05 0.26868617D+05 0.12199555D+01  1  2  4  1  5  1       -2 -.124809424995D+00 0.100000000000D+01
-.649432446386D-03 0.000000000000D+00 -.271724927588D-03 0.216575258986D-02 0.000000000000D+00  5 -2 1 25 -24 21 2 0.32670452D-01 0.30533819D-01 0.26868617D+05 0.26868617D+05 0.26868617D+05 0.12199555D+01  1  2  5  1  5  1       -2 -.108597098075D+00 0.100000000000D+01
0.719523702140D-03 0.000000000000D+00 0.252167180764D-03 0.216575258986D-02 0.000000000000D+00  5 -2 1 25 -24 21 2 0.22089974D-01 0.30533819D-01 0.26868617D+05 0.26868617D+05 0.26868617D+05 0.12199555D+01  1  2  6  1  5  1       -2 0.240939584483D+00 0.100000000000D+01
0.123177761898D-04 0.000000000000D+00 0.000000000000D+00 0.216575258986D-02 0.000000000000D+00  5 21 1 25 -24 2 2 0.29798641D-01 0.30533819D-01 0.40083071D+05 0.40083071D+05 0.40083071D+05 0.12019088D+01  1  2 12  3  5  1       -2 0.308253094409D-01 0.100000000000D+01
-.214198918566D-04 0.000000000000D+00 -.127285300844D-04 0.216575258986D-02 0.000000000000D+00  5 21 1 25 -24 2 2 0.32670452D-01 0.30533819D-01 0.26868617D+05 0.26868617D+05 0.26868617D+05 0.12199555D+01  1  2  5  3  5  1       -2 -.463522341740D-01 0.100000000000D+01
  </mgrwgt>
  </event>
  <event>
  4     66 0.46019439E-03 0.74347264E+02 0.75467711E-02 0.12066838E+00
       -2 -1    0    0    0  501 0.00000000E+00 0.00000000E+00 0.15640598E+02 0.15643872E+02 0.32000000E+00 0.0000E+00 0.9000E+01
        1 -1    0    0  501    0 0.00000000E+00 0.00000000E+00 -.85565823E+03 0.85565829E+03 0.32000000E+00 0.0000E+00 0.9000E+01
       25  1    1    2    0    0 -.26827995E+02 0.42007125E+02 -.43283555E+03 0.45327249E+03 0.12500000E+03 0.0000E+00 0.9000E+01
      -24  1    1    2    0    0 0.26827995E+02 -.42007125E+02 -.40718208E+03 0.41802967E+03 0.80419002E+02 0.0000E+00 0.9000E+01
#aMCatNLO 1  0  0  2  1 0.54487052D+02 0.00000000D+00  -5  5  0 0.00000000D+00 0.00000000D+00 0.00000000D+00 0.00000000D+00 0.00000000D+00
  <mgrwgt>
 0.2207485587D+00    9    2    0
 0.115691221460271D+03 0.000000000000000D+00 0.000000000000000D+00 0.115691221460271D+03
 0.115691221460271D+03 0.000000000000000D+00 0.000000000000000D+00 -.115691221460271D+03
 0.135480501774799D+03 -.268279947708467D+02 0.420071245872365D+02 0.156724772017387D+02
 0.959019411457440D+02 0.268279947708467D+02 -.420071245872365D+02 -.156724772017387D+02
 0.000000000000000D+00 -.000000000000000D+00 0.000000000000000D+00 -.000000000000000D+00
 0.127857841068876D+03 0.000000000000000D+00 0.000000000000000D+00 0.127857841068876D+03
 0.201303445513302D+03 0.000000000000000D+00 0.000000000000000D+00 -.201303445513302D+03
 0.127654156655411D+03 -.154605559924262D+02 0.136355556604897D+02 0.156724772017387D+02
 0.110057167615155D+03 0.357254451244591D+02 -.642139409950834D+02 -.156724772017387D+02
 0.914499623116122D+02 -.202648891320329D+02 0.505783853345937D+02 -.734456044444259D+02
0.202223755881D-03 0.000000000000D+00 0.000000000000D+00 0.282661388764D-02 0.000000000000D+00  5 -2 1 25 -24 21 0 0.24065023D-02 0.13163998D+00 0.13131282D+05 0.13131282D+05 0.13131282D+05 0.12544643D+01  1  2  2  2  5  2        1 0.205806039925D+00 0.100000000000D+01
-.112334077047D-04 0.000000000000D+00 -.776592469319D-06 0.282661388764D-02 0.000000000000D+00  5 -2 1 25 -24 21 2 0.24065023D-02 0.13163998D+00 0.13131282D+05 0.13131282D+05 0.13131282D+05 0.12544643D+01  1  2  3  2  5  2        1 -.179909490960D-01 0.100000000000D+01
0.139961808064D-04 0.000000000000D+00 0.000000000000D+00 0.282661388764D-02 0.000000000000D+00  5 -2 1 25 -24 21 2 0.24065023D-02 0.13163998D+00 0.13131282D+05 0.13131282D+05 0.13131282D+05 0.12544643D+01  1  2 15  2  5  2        1 0.224156892589D-01 0.100000000000D+01
0.175775899066D-03 0.000000000000D+00 0.000000000000D+00 0.282661388764D-02 0.000000000000D+00  5 -2 1 25 -24 21 2 0.24065023D-02 0.23153731D+00 0.21041102D+05 0.21041102D+05 0.21041102D+05 0.12314072D+01  1  2 12  2  5  2        1 0.968175924822D-01 0.100000000000D+01
-.241945517582D-03 0.000000000000D+00 0.000000000000D+00 0.282661388764D-02 0.000000000000D+00  5 -2 1 25 -24 21 2 0.24065023D-02 0.13163998D+00 0.13131282D+05 0.13131282D+05 0.13131282D+05 0.12544643D+01  1  2  4  2  5  2        1 -.387489674128D+00 0.100000000000D+01
-.272236581075D-03 0.000000000000D+00 -.767647265692D-04 0.282661388764D-02 0.000000000000D+00  5 -2 1 25 -24 21 2 0.24065023D-02 0.23895579D+00 0.13131282D+05 0.13131282D+05 0.13131282D+05 0.12544643D+01  1  2  5  2  5  2        1 -.144113362913D+00 0.100000000000D+01
0.278838420609D-03 0.000000000000D+00 0.648866213438D-04 0.282661388764D-02 0.000000000000D+00  5 -2 1 25 -24 21 2 0.24065023D-02 0.13163998D+00 0.13131282D+05 0.13131282D+05 0.13131282D+05 0.12544643D+01  1  2  6  2  5  2        1 0.446575782084D+00 0.100000000000D+01
0.109481217867D-04 0.000000000000D+00 0.000000000000D+00 0.282661388764D-02 0.000000000000D+00  5 -2 21 25 -24 -1 2 0.24065023D-02 0.23153731D+00 0.21041102D+05 0.21041102D+05 0.21041102D+05 0.12314072D+01  1  2 12  4  5  2        1 0.659333971169D-02 0.100000000000D+01
-.136366271968D-04 0.000000000000D+00 -.501047947135D-05 0.282661388764D-02 0.000000000000D+00  5 -2 21 25 -24 -1 2 0.24065023D-02 0.23895579D+00 0.13131282D+05 0.13131282D+05 0.13131282D+05 0.12544643D+01  1  2  5  4  5  2        1 -.786589861964D-02 0.100000000000D+01
  </mgrwgt>
  </event>
  <event>
  4     66 0.46019439E-03 0.12631679E+03 0.75467711E-02 0.12068426E+00
       -2 -1    0    0    0  501 0.00000000E+00 0.00000000E+00 0.66545266E+02 0.66546036E+02 0.32000000E+00 0.0000E+00 0.9000E+01
        1 -1    0    0  501    0 0.00000000E+00 0.00000000E+00 -.26603577E+03 0.26603596E+03 0.32000000E+00 0.0000E+00 0.9000E+01
       25  1    1    2    0    0 -.72154453E+02 -.56621331E+01 -.16440490E+03 0.21884308E+03 0.12500000E+03 0.0000E+00 0.9000E+01
      -24  1    1    2    0    0 0.72154453E+02 0.56621331E+01 -.35085606E+02 0.11373891E+03 0.80419002E+02 0.0000E+00 0.9000E+01
#aMCatNLO 1  0  0  2  2 0.34661731D+02 0.00000000D+00  -5  5  0 0.00000000D+00 0.00000000D+00 0.00000000D+00 0.00000000D+00 0.00000000D+00
  <mgrwgt>
 0.2225738645D+00    4    2    0
 0.133054804486482D+03 0.000000000000000D+00 0.000000000000000D+00 0.133054804486482D+03
 0.133054804486482D+03 0.000000000000000D+00 0.000000000000000D+00 -.133054804486482D+03
 0.150261593976297D+03 -.721544532802218D+02 -.566213314935823D+01 -.414152356546318D+02
 0.115848014996667D+03 0.721544532802218D+02 0.566213314935823D+01 0.414152356546318D+02
 0.000000000000000D+00 -.000000000000000D+00 -.000000000000000D+00 0.000000000000000D+00
 0.216593700976346D+03 0.000000000000000D+00 0.000000000000000D+00 0.216593700976346D+03
 0.137823232591048D+03 0.000000000000000D+00 0.000000000000000D+00 -.137823232591048D+03
 0.142133388250084D+03 -.534273570811397D+02 -.268250376417948D+01 -.414152356546318D+02
 0.126224133754783D+03 0.876585100949763D+02 0.812895143146794D+01 0.414152356546318D+02
 0.860594115625270D+02 -.342311530138366D+02 -.544644766728847D+01 0.787704683852978D+02
0.440532266390D-03 0.000000000000D+00 0.000000000000D+00 0.235799052680D-02 0.000000000000D+00  5 -2 1 25 -24 21 0 0.10237807D-01 0.40928654D-01 0.15955930D+05 0.15955930D+05 0.15955930D+05 0.12447753D+01  1  2  2  2  5  2        1 0.239909000855D+00 0.100000000000D+01
-.243936507551D-04 0.000000000000D+00 -.169175989775D-05 0.235799052680D-02 0.000000000000D+00  5 -2 1 25 -24 21 2 0.10237807D-01 0.40928654D-01 0.15955930D+05 0.15955930D+05 0.15955930D+05 0.12447753D+01  1  2  3  2  5  2        1 -.205838957037D-01 0.100000000000D+01
0.304074401948D-04 0.000000000000D+00 0.000000000000D+00 0.235799052680D-02 0.000000000000D+00  5 -2 1 25 -24 21 2 0.10237807D-01 0.40928654D-01 0.15955930D+05 0.15955930D+05 0.15955930D+05 0.12447753D+01  1  2 15  2  5  2        1 0.256584626824D-01 0.100000000000D+01
-.265573865982D-04 0.000000000000D+00 0.000000000000D+00 0.235799052680D-02 0.000000000000D+00  5 -2 1 25 -24 21 2 0.10237807D-01 0.40928654D-01 0.15955930D+05 0.15955930D+05 0.15955930D+05 0.12447753D+01  1  2  4  2  5  2        1 -.224097033030D-01 0.100000000000D+01
  </mgrwgt>
  </event>
  <event>
  4     66 0.46019439E-03 0.10675360E+03 0.75467711E-02 0.11877055E+00
       -2 -1    0    0    0  501 0.00000000E+00 0.00000000E+00 0.43336646E+03 0.43336658E+03 0.32000000E+00 0.0000E+00 0.9000E+01
        1 -1    0    0  501    0 0.00000000E+00 0.00000000E+00 -.28681832E+02 0.28683617E+02 0.32000000E+00 0.0000E+00 0.9000E+01
       25  1    1    2    0    0 0.27685582E+02 0.66080421E+01 0.17422797E+03 0.21631122E+03 0.12500000E+03 0.0000E+00 0.9000E+01
      -24  1    1    2    0    0 -.27685582E+02 -.66080421E+01 0.23045666E+03 0.24573898E+03 0.80419002E+02 0.0000E+00 0.9000E+01
#aMCatNLO 1  0  0  1  2 0.90131049D+02 0.00000000D+00  -5  5  0 0.00000000D+00 0.00000000D+00 0.00000000D+00 0.00000000D+00 0.00000000D+00
  <mgrwgt>
 0.1779435185D+00    5    2    0
 0.111490734130263D+03 0.000000000000000D+00 0.000000000000000D+00 0.111490734130263D+03
 0.111490734130263D+03 0.000000000000000D+00 0.000000000000000D+00 -.111490734130263D+03
 0.132025588701518D+03 0.276855820617864D+02 0.660804209151464D+01 -.315531044051014D+02
 0.909558795590088D+02 -.276855820617864D+02 -.660804209151464D+01 0.315531044051014D+02
 0.000000000000000D+00 -.000000000000000D+00 -.000000000000000D+00 0.000000000000000D+00
 0.180941401745141D+03 0.000000000000000D+00 0.000000000000000D+00 0.180941401745141D+03
 0.153719353008595D+03 0.000000000000000D+00 0.000000000000000D+00 -.153719353008595D+03
 0.146108902496622D+03 0.327428145491371D+02 0.604575974263702D+02 -.315531044051014D+02
 0.943996031107990D+02 -.243153212766955D+02 0.292785905862574D+02 0.315531044051014D+02
 0.941522491463141D+02 -.842749327244157D+01 -.897361880126276D+02 0.272220487365463D+02
0.544558880395D-03 0.000000000000D+00 0.000000000000D+00 0.277128482967D-02 0.000000000000D+00  5 -2 1 25 -24 21 0 0.66671909D-01 0.44127360D-02 0.11396331D+05 0.11396331D+05 0.11396331D+05 0.12616598D+01  1  2  2  1  5  1       -2 0.187305761842D+00 0.100000000000D+01
-.301839292847D-04 0.000000000000D+00 -.209124948636D-05 0.277128482967D-02 0.000000000000D+00  5 -2 1 25 -24 21 2 0.66671909D-01 0.44127360D-02 0.11396331D+05 0.11396331D+05 0.11396331D+05 0.12616598D+01  1  2  3  1  5  1       -2 -.165259555195D-01 0.100000000000D+01
0.375994035943D-04 0.000000000000D+00 0.000000000000D+00 0.277128482967D-02 0.000000000000D+00  5 -2 1 25 -24 21 2 0.66671909D-01 0.44127360D-02 0.11396331D+05 0.11396331D+05 0.11396331D+05 0.12616598D+01  1  2 15  1  5  1       -2 0.205859901637D-01 0.100000000000D+01
-.120760199649D-03 0.000000000000D+00 -.142725221471D-03 0.277128482967D-02 0.000000000000D+00  5 -2 1 25 -24 21 2 0.13883074D+00 0.44127360D-02 0.11396331D+05 0.11396331D+05 0.11396331D+05 0.12616598D+01  1  2  5  1  5  1       -2 -.124570175478D-01 0.100000000000D+01
-.778212434205D-06 0.000000000000D+00 -.113202607680D-04 0.277128482967D-02 0.000000000000D+00  5 21 1 25 -24 2 2 0.13883074D+00 0.44127360D-02 0.11396331D+05 0.11396331D+05 0.11396331D+05 0.12616598D+01  1  2  5  3  5  1       -2 -.965260429234D-03 0.100000000000D+01
  </mgrwgt>
  </event>
  <event>
  5     66 0.46019439E-03 0.10540857E+03 0.75467711E-02 0.12596403E+00
       21 -1    0    0  502  501 0.00000000E+00 0.00000000E+00 0.49008800E+02 0.49014538E+02 0.75000000E+00 0.0000E+00 0.9000E+01
        3 -1    0    0  501    0 0.00000000E+00 0.00000000E+00 -.26765926E+03 0.26765973E+03 0.50000000E+00 0.0000E+00 0.9000E+01
       25  1    1    2    0    0 -.62899558E+01 0.22923144E+02 -.84120446E+02 0.15253289E+03 0.12500000E+03 0.0000E+00 0.9000E+01
      -24  1    1    2    0    0 0.15047626E+02 -.18191268E+02 -.11698728E+03 0.14391176E+03 0.80419002E+02 0.0000E+00 0.9000E+01
        4  1    1    2  502    0 -.87576697E+01 -.47318760E+01 -.17542732E+02 0.20229616E+02 0.15500000E+01 0.0000E+00 0.9000E+01
#aMCatNLO 2  0  0  1  1 0.99542669D+01 0.00000000D+00  -5  5  0 0.00000000D+00 0.00000000D+00 0.00000000D+00 0.00000000D+00 0.00000000D+00
  <mgrwgt>
 0.1613856196D-01    1    2    0
 0.108784217668785D+03 0.000000000000000D+00 0.000000000000000D+00 0.108784217668785D+03
 0.108784217668785D+03 0.000000000000000D+00 0.000000000000000D+00 -.108784217668785D+03
 0.129829972838694D+03 -.115154040462631D+02 0.200997706162664D+02 0.263479892614387D+02
 0.877384624988758D+02 0.115154040462631D+02 -.200997706162664D+02 -.263479892614387D+02
 0.000000000000000D+00 -.000000000000000D+00 -.000000000000000D+00 -.000000000000000D+00
 0.111914515970389D+03 0.000000000000000D+00 0.000000000000000D+00 0.111914515970389D+03
 0.117110134910998D+03 0.000000000000000D+00 0.000000000000000D+00 -.117110134910998D+03
 0.129939411343275D+03 -.628995584610763D+01 0.229231441466906D+02 0.263479892614387D+02
 0.878566204953905D+02 0.150476255714363D+02 -.181912681537462D+02 -.263479892614387D+02
 0.112286190427210D+02 -.875766972532864D+01 -.473187599294434D+01 -.519561894060912D+01
0.277098687845D-05 0.000000000000D+00 0.000000000000D+00 0.289642879715D-02 0.132161914233D-05  5 21 3 25 -24 4 2 0.75367520D-02 0.41159488D-01 0.12211027D+05 0.12211027D+05 0.12211027D+05 0.12581378D+01  1  2  1  3  5  1       -4 0.161385619572D-01 0.100000000000D+01
  </mgrwgt>
  </event>
  <event>
  4     66 0.46019439E-03 0.11264970E+03 0.75467711E-02 0.12426926E+00
       -2 -1    0    0    0  501 0.00000000E+00 0.00000000E+00 0.55818242E+02 0.55819159E+02 0.32000000E+00 0.0000E+00 0.9000E+01
        1 -1    0    0  501    0 0.00000000E+00 0.00000000E+00 -.25847058E+03 0.25847077E+03 0.32000000E+00 0.0000E+00 0.9000E+01
       25  1    1    2    0    0 -.49653105E+01 0.45080385E+02 -.63656132E+02 0.14742455E+03 0.12500000E+03 0.0000E+00 0.9000E+01
      -24  1    1    2    0    0 0.49653105E+01 -.45080385E+02 -.13899620E+03 0.16686538E+03 0.80419002E+02 0.0000E+00 0.9000E+01
#aMCatNLO 1  0  0  1  1 0.14611368D+02 0.00000000D+00  -5  5  0 0.00000000D+00 0.00000000D+00 0.00000000D+00 0.00000000D+00 0.00000000D+00
  <mgrwgt>
 0.2055842065D+00    4    2    0
 0.120114730252169D+03 0.000000000000000D+00 0.000000000000000D+00 0.120114730252169D+03
 0.120114730252169D+03 0.000000000000000D+00 0.000000000000000D+00 -.120114730252169D+03
 0.139175223553872D+03 -.496531047442102D+01 0.450803849111911D+02 0.410834204932090D+02
 0.101054236950466D+03 0.496531047442102D+01 -.450803849111911D+02 -.410834204932090D+02
 0.000000000000000D+00 0.000000000000000D+00 0.000000000000000D+00 -.000000000000000D+00
 0.121604271926561D+03 0.000000000000000D+00 0.000000000000000D+00 0.121604271926561D+03
 0.162443212446870D+03 0.000000000000000D+00 0.000000000000000D+00 -.162443212446870D+03
 0.137025063723315D+03 -.823613159379187D+01 0.373521992033470D+02 0.410834204932090D+02
 0.103648336908723D+03 0.254118011464241D+01 -.508080382791612D+02 -.410834204932090D+02
 0.433740837413933D+02 0.569495147914947D+01 0.134558390758142D+02 -.408389405203089D+02
0.293415029390D-03 0.000000000000D+00 0.000000000000D+00 0.249965720359D-02 0.000000000000D+00  5 -2 1 25 -24 21 0 0.85875076D-02 0.39764790D-01 0.12689955D+05 0.12689955D+05 0.12689955D+05 0.12561886D+01  1  2  2  1  5  1       -2 0.215989319680D+00 0.100000000000D+01
-.162192370560D-04 0.000000000000D+00 -.112679097081D-05 0.249965720359D-02 0.000000000000D+00  5 -2 1 25 -24 21 2 0.85875076D-02 0.39764790D-01 0.12689955D+05 0.12689955D+05 0.12689955D+05 0.12561886D+01  1  2  3  1  5  1       -2 -.188403956647D-01 0.100000000000D+01
0.202769992988D-04 0.000000000000D+00 0.000000000000D+00 0.249965720359D-02 0.000000000000D+00  5 -2 1 25 -24 21 2 0.85875076D-02 0.39764790D-01 0.12689955D+05 0.12689955D+05 0.12689955D+05 0.12561886D+01  1  2 15  1  5  1       -2 0.235539247847D-01 0.100000000000D+01
-.130152703283D-04 0.000000000000D+00 0.000000000000D+00 0.249965720359D-02 0.000000000000D+00  5 -2 1 25 -24 21 2 0.85875076D-02 0.39764790D-01 0.12689955D+05 0.12689955D+05 0.12689955D+05 0.12561886D+01  1  2  4  1  5  1       -2 -.151186422531D-01 0.100000000000D+01
  </mgrwgt>
  </event>
  <event>
  4     66 0.46019439E-03 0.11139684E+03 0.75467711E-02 0.11239523E+00
       -2 -1    0    0    0  501 0.00000000E+00 0.00000000E+00 0.99849185E+02 0.99849698E+02 0.32000000E+00 0.0000E+00 0.9000E+01
        1 -1    0    0  501    0 0.00000000E+00 0.00000000E+00 -.12484607E+03 0.12484648E+03 0.32000000E+00 0.0000E+00 0.9000E+01
       25  1    1    2    0    0 0.22990140E+02 0.35454103E+02 -.73512590E+01 0.13215363E+03 0.12500000E+03 0.0000E+00 0.9000E+01
      -24  1    1    2    0    0 -.22990140E+02 -.35454103E+02 -.17645627E+02 0.92542553E+02 0.80419002E+02 0.0000E+00 0.9000E+01
#aMCatNLO 1  0  0  1  1 0.18083548D+03 0.00000000D+00  -5  5  0 0.00000000D+00 0.00000000D+00 0.00000000D+00 0.00000000D+00 0.00000000D+00
  <mgrwgt>
 0.1874026801D+00    3    2    0
 0.111650715094058D+03 0.000000000000000D+00 0.000000000000000D+00 0.111650715094058D+03
 0.111650715094058D+03 0.000000000000000D+00 0.000000000000000D+00 -.111650715094058D+03
 0.132156145887570D+03 0.229901401706334D+02 0.354541032951691D+02 0.739641199007084D+01
 0.911452843005456D+02 -.229901401706334D+02 -.354541032951691D+02 -.739641199007084D+01
 0.000000000000000D+00 -.000000000000000D+00 -.000000000000000D+00 -.000000000000000D+00
 0.198877290573364D+03 0.000000000000000D+00 0.000000000000000D+00 0.198877290573364D+03
 0.291757258213369D+03 0.000000000000000D+00 0.000000000000000D+00 -.291757258213369D+03
 0.202302308869554D+03 0.504475030589623D+02 0.150670390915872D+03 0.739641199007084D+01
 0.850389530693511D+02 -.852629728712294D+01 0.252389169538930D+02 -.739641199007084D+01
 0.203293286847827D+03 -.419212057718394D+02 -.175909307869765D+03 -.928799676400048D+02
0.253637702865D-03 0.000000000000D+00 0.000000000000D+00 0.295691686336D-02 0.000000000000D+00  5 -2 1 25 -24 21 0 0.15361484D-01 0.19207159D-01 0.12409257D+05 0.12409257D+05 0.12409257D+05 0.12573207D+01  1  2  2  1  5  1       -2 0.183472458378D+00 0.100000000000D+01
-.140908947117D-04 0.000000000000D+00 -.974035563341D-06 0.295691686336D-02 0.000000000000D+00  5 -2 1 25 -24 21 2 0.15361484D-01 0.19207159D-01 0.12409257D+05 0.12409257D+05 0.12409257D+05 0.12573207D+01  1  2  3  1  5  1       -2 -.161134225416D-01 0.100000000000D+01
0.175278020625D-04 0.000000000000D+00 0.000000000000D+00 0.295691686336D-02 0.000000000000D+00  5 -2 1 25 -24 21 2 0.15361484D-01 0.19207159D-01 0.12409257D+05 0.12409257D+05 0.12409257D+05 0.12573207D+01  1  2 15  1  5  1       -2 0.200436442566D-01 0.100000000000D+01
  </mgrwgt>
  </event>
  <event>
  4     66 0.46019439E-03 0.10389561E+03 0.75467711E-02 0.11332816E+00
       -2 -1    0    0    0  501 0.00000000E+00 0.00000000E+00 0.88099328E+02 0.88099909E+02 0.32000000E+00 0.0000E+00 0.9000E+01
        1 -1    0    0  501    0 0.00000000E+00 0.00000000E+00 -.12424631E+03 0.12424672E+03 0.32000000E+00 0.0000E+00 0.9000E+01
       25  1    1    2    0    0 0.15120724E+02 -.22672315E+01 -.34077337E+02 0.13046088E+03 0.12500000E+03 0.0000E+00 0.9000E+01
      -24  1    1    2    0    0 -.15120724E+02 0.22672315E+01 -.20696448E+01 0.81885750E+02 0.80419002E+02 0.0000E+00 0.9000E+01
#aMCatNLO 1  0  0  2  1 0.17195885D+03 0.00000000D+00  -5  5  0 0.00000000D+00 0.00000000D+00 0.00000000D+00 0.00000000D+00 0.00000000D+00
  <mgrwgt>
 0.1823521814D+00    5    2    0
 0.104623715513976D+03 0.000000000000000D+00 0.000000000000000D+00 0.104623715513976D+03
 0.104623715513976D+03 0.000000000000000D+00 0.000000000000000D+00 -.104623715513976D+03
 0.126506383321750D+03 0.151207240024965D+02 -.226723153075776D+01 -.120452641305924D+02
 0.827410477062021D+02 -.151207240024965D+02 0.226723153075776D+01 0.120452641305924D+02
 0.000000000000000D+00 -.000000000000000D+00 0.000000000000000D+00 -.000000000000000D+00
 0.174170053858623D+03 0.000000000000000D+00 0.000000000000000D+00 0.174170053858623D+03
 0.326193071248329D+03 0.000000000000000D+00 0.000000000000000D+00 -.326193071248329D+03
 0.176175108886385D+03 0.118854335575064D+03 -.337820591166960D+02 -.120452641305924D+02
 0.946649400124905D+02 0.456790417393877D+02 -.162040634099424D+02 0.120452641305924D+02
 0.229523076208077D+03 -.164533377314452D+03 0.499861225266384D+02 -.152023017389706D+03
0.183760846516D-03 0.000000000000D+00 0.000000000000D+00 0.314108569122D-02 0.000000000000D+00  5 -2 1 25 -24 21 0 0.13553819D-01 0.19114893D-01 0.10794298D+05 0.10794298D+05 0.10794298D+05 0.12644497D+01  1  2  2  2  5  2        1 0.162792527600D+00 0.100000000000D+01
-.102083305512D-04 0.000000000000D+00 -.705690035962D-06 0.314108569122D-02 0.000000000000D+00  5 -2 1 25 -24 21 2 0.13553819D-01 0.19114893D-01 0.10794298D+05 0.10794298D+05 0.10794298D+05 0.12644497D+01  1  2  3  2  5  2        1 -.144590353684D-01 0.100000000000D+01
0.127267434508D-04 0.000000000000D+00 0.000000000000D+00 0.314108569122D-02 0.000000000000D+00  5 -2 1 25 -24 21 2 0.13553819D-01 0.19114893D-01 0.10794298D+05 0.10794298D+05 0.10794298D+05 0.12644497D+01  1  2 15  2  5  2        1 0.180261045386D-01 0.100000000000D+01
0.573102479744D-04 0.000000000000D+00 -.949114264575D-04 0.314108569122D-02 0.000000000000D+00  5 -2 1 25 -24 21 2 0.13553819D-01 0.92190412D-01 0.10794298D+05 0.10794298D+05 0.10794298D+05 0.12644497D+01  1  2  5  2  5  2        1 0.113405126282D-01 0.100000000000D+01
0.891691531969D-05 0.000000000000D+00 -.181581236232D-04 0.314108569122D-02 0.000000000000D+00  5 -2 21 25 -24 -1 2 0.13553819D-01 0.92190412D-01 0.10794298D+05 0.10794298D+05 0.10794298D+05 0.12644497D+01  1  2  5  4  5  2        1 0.465207204200D-02 0.100000000000D+01
  </mgrwgt>
  </event>
  <event>
  4     66 0.46019439E-03 0.56811320E+02 0.75467711E-02 0.12325373E+00
       -2 -1    0    0    0  501 0.00000000E+00 0.00000000E+00 0.31997251E+03 0.31997267E+03 0.32000000E+00 0.0000E+00 0.9000E+01
        1 -1    0    0  501    0 0.00000000E+00 0.00000000E+00 -.65036987E+02 0.65037774E+02 0.32000000E+00 0.0000E+00 0.9000E+01
       25  1    1    2    0    0 0.27346363E+02 0.58608470E+02 0.24341091E+03 0.28117014E+03 0.12500000E+03 0.0000E+00 0.9000E+01
      -24  1    1    2    0    0 -.27346363E+02 -.58608470E+02 0.11524615E+02 0.10384031E+03 0.80419002E+02 0.0000E+00 0.9000E+01
#aMCatNLO 1  0  0  2  1 0.91594840D+01 0.00000000D+00  -5  5  0 0.00000000D+00 0.00000000D+00 0.00000000D+00 0.00000000D+00 0.00000000D+00
  <mgrwgt>
 0.3048689309D+00    8    2    0
 0.144257512993783D+03 0.000000000000000D+00 0.000000000000000D+00 0.144257512993783D+03
 0.144257512993783D+03 0.000000000000000D+00 0.000000000000000D+00 -.144257512993783D+03
 0.160128062567905D+03 0.273463630134976D+02 0.586084699126757D+02 0.763755203332839D+02
 0.128386963419661D+03 -.273463630134976D+02 -.586084699126757D+02 -.763755203332839D+02
 0.000000000000000D+00 0.000000000000000D+00 -.000000000000000D+00 0.000000000000000D+00
 0.150041092630754D+03 0.000000000000000D+00 0.000000000000000D+00 0.150041092630754D+03
 0.148002822769669D+03 0.000000000000000D+00 0.000000000000000D+00 -.148002822769669D+03
 0.160230958804995D+03 0.227627927790901D+02 0.608078557283877D+02 0.763755203332839D+02
 0.128429423596406D+03 -.310207903550168D+02 -.568453283085314D+02 -.763755203332839D+02
 0.938353299902202D+01 0.825799757592669D+01 -.396252741985630D+01 0.203826986108591D+01
0.563801130779D-03 0.000000000000D+00 0.000000000000D+00 0.183401910677D-02 0.000000000000D+00  5 -2 1 25 -24 21 0 0.49226613D-01 0.10005763D-01 0.14876547D+05 0.14876547D+05 0.14876547D+05 0.12482319D+01  1  2  2  2  5  2        1 0.120481608283D+00 0.100000000000D+01
-.302496032735D-04 0.000000000000D+00 -.216514479444D-05 0.183401910677D-02 0.000000000000D+00  5 -2 1 25 -24 21 2 0.49226613D-01 0.10005763D-01 0.14876547D+05 0.14876547D+05 0.14876547D+05 0.12482319D+01  1  2  3  2  5  2        1 -.100717527205D-01 0.100000000000D+01
0.385787694901D-04 0.000000000000D+00 0.000000000000D+00 0.183401910677D-02 0.000000000000D+00  5 -2 1 25 -24 21 2 0.49226613D-01 0.10005763D-01 0.14876547D+05 0.14876547D+05 0.14876547D+05 0.12482319D+01  1  2 15  2  5  2        1 0.128449891740D-01 0.100000000000D+01
0.126745951185D-02 0.000000000000D+00 0.000000000000D+00 0.183401910677D-02 0.000000000000D+00  5 -2 1 25 -24 21 2 0.49226613D-01 0.10459695D-01 0.16036203D+05 0.16036203D+05 0.16036203D+05 0.12445288D+01  1  2 12  2  5  2        1 0.396486046740D+00 0.100000000000D+01
-.793464255880D-03 0.000000000000D+00 0.000000000000D+00 0.183401910677D-02 0.000000000000D+00  5 -2 1 25 -24 21 2 0.49226613D-01 0.10005763D-01 0.14876547D+05 0.14876547D+05 0.14876547D+05 0.12482319D+01  1  2  4  2  5  2        1 -.264187788035D+00 0.100000000000D+01
0.951037456777D-07 0.000000000000D+00 0.000000000000D+00 0.183401910677D-02 0.180841773897D-03  5 -2 1 25 -24 21 2 0.51200208D-01 0.10265539D-01 0.16036203D+05 0.16036203D+05 0.16036203D+05 0.12445288D+01  1  2 11  2  5  2        1 0.282158639926D-04 0.100000000000D+01
0.133193243282D-04 0.000000000000D+00 0.000000000000D+00 0.183401910677D-02 0.000000000000D+00  5 -2 21 25 -24 -1 2 0.49226613D-01 0.10459695D-01 0.16036203D+05 0.16036203D+05 0.16036203D+05 0.12445288D+01  1  2 12  4  5  2        1 0.492829839060D-01 0.100000000000D+01
0.130806319299D-08 0.000000000000D+00 0.000000000000D+00 0.183401910677D-02 0.857787426249D-06  5 -2 21 25 -24 -1 2 0.51200208D-01 0.10265539D-01 0.16036203D+05 0.16036203D+05 0.16036203D+05 0.12445288D+01  1  2 11  4  5  2        1 0.462767017507D-05 0.100000000000D+01
  </mgrwgt>
  </event>
  <event>
  4     66 0.46019439E-03 0.93360290E+02 0.75467711E-02 0.11585604E+00
       -4 -1    0    0    0  501 0.00000000E+00 0.00000000E+00 0.75554399E+01 0.77127927E+01 0.15500000E+01 0.0000E+00 0.9000E+01
        3 -1    0    0  501    0 0.00000000E+00 0.00000000E+00 -.36724436E+04 0.36724436E+04 0.50000000E+00 0.0000E+00 0.9000E+01
       25  1    1    2    0    0 -.79388501E+02 -.91933373E+02 -.25230330E+04 0.25290462E+04 0.12500000E+03 0.0000E+00 0.9000E+01
      -24  1    1    2    0    0 0.79388501E+02 0.91933373E+02 -.11418552E+04 0.11511103E+04 0.80419002E+02 0.0000E+00 0.9000E+01
#aMCatNLO 1  0  0  1  2 0.55486702D+02 0.00000000D+00  -5  5  0 0.00000000D+00 0.00000000D+00 0.00000000D+00 0.00000000D+00 0.00000000D+00
  <mgrwgt>
 0.3793886977D-02    9    2    0
 0.167441108768801D+03 0.000000000000000D+00 0.000000000000000D+00 0.167441108768801D+03
 0.167441108768801D+03 0.000000000000000D+00 0.000000000000000D+00 -.167441108768801D+03
 0.181114250497506D+03 -.793885007417201D+02 -.919333732164314D+02 -.492249182051483D+02
 0.153767967040095D+03 0.793885007417201D+02 0.919333732164314D+02 0.492249182051483D+02
 0.000000000000000D+00 0.000000000000000D+00 0.000000000000000D+00 0.000000000000000D+00
 0.268261801785335D+03 0.000000000000000D+00 0.000000000000000D+00 0.268261801785335D+03
 0.177535093360377D+03 0.000000000000000D+00 0.000000000000000D+00 -.177535093360377D+03
 0.200658991902901D+03 -.109392726468093D+03 -.101238183779945D+03 -.492249182051483D+02
 0.138788903560691D+03 0.563959454538853D+02 0.848029985393618D+02 0.492249182051483D+02
 0.106348999682120D+03 0.529967810142081D+02 0.164351852405830D+02 0.907267084249577D+02
0.317705248846D-02 0.000000000000D+00 0.000000000000D+00 0.210945596050D-02 0.000000000000D+00  5 -4 3 25 -24 21 0 0.11744820D-02 0.56500343D+00 0.25595603D+05 0.25595603D+05 0.25595603D+05 0.12222029D+01  1  2  2  1  5  1       -4 0.337031278408D-02 0.100000000000D+01
-.176057781575D-03 0.000000000000D+00 -.122007180928D-04 0.210945596050D-02 0.000000000000D+00  5 -4 3 25 -24 21 2 0.11744820D-02 0.56500343D+00 0.25595603D+05 0.25595603D+05 0.25595603D+05 0.12222029D+01  1  2  3  1  5  1       -4 -.278989362100D-03 0.100000000000D+01
0.219067704678D-03 0.000000000000D+00 0.000000000000D+00 0.210945596050D-02 0.000000000000D+00  5 -4 3 25 -24 21 2 0.11744820D-02 0.56500343D+00 0.25595603D+05 0.25595603D+05 0.25595603D+05 0.12222029D+01  1  2 15  1  5  1       -4 0.347144889809D-03 0.100000000000D+01
0.391386382816D-02 0.000000000000D+00 0.000000000000D+00 0.210945596050D-02 0.000000000000D+00  5 -4 3 25 -24 21 2 0.18992582D-02 0.56500343D+00 0.36058284D+05 0.36058284D+05 0.36058284D+05 0.12066026D+01  1  2 12  1  5  1       -4 0.289972434998D-02 0.100000000000D+01
-.417625278109D-02 0.000000000000D+00 0.000000000000D+00 0.210945596050D-02 0.000000000000D+00  5 -4 3 25 -24 21 2 0.11744820D-02 0.56500343D+00 0.25595603D+05 0.25595603D+05 0.25595603D+05 0.12222029D+01  1  2  4  1  5  1       -4 -.661788470207D-02 0.100000000000D+01
-.469572010741D-02 0.000000000000D+00 -.970132576602D-03 0.210945596050D-02 0.000000000000D+00  5 -4 3 25 -24 21 2 0.20788485D-02 0.56500343D+00 0.25595603D+05 0.25595603D+05 0.25595603D+05 0.12222029D+01  1  2  5  1  5  1       -4 -.310239274207D-02 0.100000000000D+01
0.461573865412D-02 0.000000000000D+00 0.830955582964D-03 0.210945596050D-02 0.000000000000D+00  5 -4 3 25 -24 21 2 0.11744820D-02 0.56500343D+00 0.25595603D+05 0.25595603D+05 0.25595603D+05 0.12222029D+01  1  2  6  1  5  1       -4 0.731431448934D-02 0.100000000000D+01
0.213934959236D-03 0.000000000000D+00 0.000000000000D+00 0.210945596050D-02 0.000000000000D+00  5 21 3 25 -24 4 2 0.18992582D-02 0.56500343D+00 0.36058284D+05 0.36058284D+05 0.36058284D+05 0.12066026D+01  1  2 12  3  5  1       -4 0.457366108881D-02 0.100000000000D+01
-.245027654512D-03 0.000000000000D+00 -.609983637812D-04 0.210945596050D-02 0.000000000000D+00  5 21 3 25 -24 4 2 0.20788485D-02 0.56500343D+00 0.25595603D+05 0.25595603D+05 0.25595603D+05 0.12222029D+01  1  2  5  3  5  1       -4 -.471200381913D-02 0.100000000000D+01
  </mgrwgt>
  </event>
  <event>
  4     66 0.46019439E-03 0.10287387E+03 0.75467711E-02 0.12523280E+00
       -2 -1    0    0    0  501 0.00000000E+00 0.00000000E+00 0.63439356E+01 0.63520011E+01 0.32000000E+00 0.0000E+00 0.9000E+01
        1 -1    0    0  501    0 0.00000000E+00 0.00000000E+00 -.16992478E+04 0.16992479E+04 0.32000000E+00 0.0000E+00 0.9000E+01
       25  1    1    2    0    0 -.56373019E+01 -.65221339E+00 -.11406016E+04 0.11474447E+04 0.12500000E+03 0.0000E+00 0.9000E+01
      -24  1    1    2    0    0 0.56373019E+01 0.65221339E+00 -.55230229E+03 0.55815521E+03 0.80419002E+02 0.0000E+00 0.9000E+01
#aMCatNLO 1  0  0  1  2 0.22200564D+02 0.00000000D+00  -5  5  0 0.00000000D+00 0.00000000D+00 0.00000000D+00 0.00000000D+00 0.00000000D+00
  <mgrwgt>
 0.2955751045D+00    4    2    0
 0.103859630294277D+03 0.000000000000000D+00 0.000000000000000D+00 0.103859630294277D+03
 0.103859630294277D+03 0.000000000000000D+00 0.000000000000000D+00 -.103859630294277D+03
 0.125903286765231D+03 -.563730192639064D+01 -.652213387915724D+00 -.139439256658738D+02
 0.818159738233226D+02 0.563730192639064D+01 0.652213387915724D+00 0.139439256658738D+02
 0.000000000000000D+00 -.000000000000000D+00 -.000000000000000D+00 -.000000000000000D+00
 0.107826949737455D+03 0.000000000000000D+00 0.000000000000000D+00 0.107826949737455D+03
 0.140950816974366D+03 0.000000000000000D+00 0.000000000000000D+00 -.140950816974366D+03
 0.126182216764201D+03 0.293393298046521D+01 0.969075857807029D+01 -.139439256658738D+02
 0.827200481420737D+02 0.112317406194524D+02 0.740306355088141D+01 0.139439256658738D+02
 0.398755018055462D+02 -.141656735999176D+02 -.170938221289517D+02 -.331238672369105D+02
0.326801653543D-03 0.000000000000D+00 0.000000000000D+00 0.315480645332D-02 0.000000000000D+00  5 -2 1 25 -24 21 0 0.97661283D-03 0.26142337D+00 0.10583033D+05 0.10583033D+05 0.10583033D+05 0.12654705D+01  1  2  2  1  5  1       -2 0.322495721520D+00 0.100000000000D+01
-.181536397934D-04 0.000000000000D+00 -.125500439846D-05 0.315480645332D-02 0.000000000000D+00  5 -2 1 25 -24 21 2 0.97661283D-03 0.26142337D+00 0.10583033D+05 0.10583033D+05 0.10583033D+05 0.12654705D+01  1  2  3  1  5  1       -2 -.286884770284D-01 0.100000000000D+01
0.223285302859D-04 0.000000000000D+00 0.000000000000D+00 0.315480645332D-02 0.000000000000D+00  5 -2 1 25 -24 21 2 0.97661283D-03 0.26142337D+00 0.10583033D+05 0.10583033D+05 0.10583033D+05 0.12654705D+01  1  2 15  1  5  1       -2 0.352861208814D-01 0.100000000000D+01
-.212098548619D-04 0.000000000000D+00 0.000000000000D+00 0.315480645332D-02 0.000000000000D+00  5 -2 1 25 -24 21 2 0.97661283D-03 0.26142337D+00 0.10583033D+05 0.10583033D+05 0.10583033D+05 0.12654705D+01  1  2  4  1  5  1       -2 -.335182608505D-01 0.100000000000D+01
  </mgrwgt>
  </event>
  <event>
  4     66 0.46019439E-03 0.11942044E+03 0.75467711E-02 0.11964806E+00
       -2 -1    0    0    0  501 0.00000000E+00 0.00000000E+00 0.64496475E+01 0.64575810E+01 0.32000000E+00 0.0000E+00 0.9000E+01
        1 -1    0    0  501    0 0.00000000E+00 0.00000000E+00 -.22260997E+04 0.22260997E+04 0.32000000E+00 0.0000E+00 0.9000E+01
       25  1    1    2    0    0 0.36764318E+02 0.47234083E+02 -.11923959E+04 0.12004231E+04 0.12500000E+03 0.0000E+00 0.9000E+01
      -24  1    1    2    0    0 -.36764318E+02 -.47234083E+02 -.10272542E+04 0.10321342E+04 0.80419002E+02 0.0000E+00 0.9000E+01
#aMCatNLO 1  0  0  2  2 0.60248483D+02 0.00000000D+00  -5  5  0 0.00000000D+00 0.00000000D+00 0.00000000D+00 0.00000000D+00 0.00000000D+00
  <mgrwgt>
 0.1032689175D+00    4    2    0
 0.119860085575050D+03 0.000000000000000D+00 0.000000000000000D+00 0.119860085575050D+03
 0.119860085575050D+03 0.000000000000000D+00 0.000000000000000D+00 -.119860085575050D+03
 0.138961073200942D+03 0.367643179897970D+02 0.472340827287009D+02 0.101245353809851D+02
 0.100759097949158D+03 -.367643179897970D+02 -.472340827287009D+02 -.101245353809851D+02
 0.000000000000000D+00 0.000000000000000D+00 0.000000000000000D+00 0.000000000000000D+00
 0.157645068101751D+03 0.000000000000000D+00 0.000000000000000D+00 0.157645068101751D+03
 0.150232964290007D+03 0.000000000000000D+00 0.000000000000000D+00 -.150232964290007D+03
 0.128532681989487D+03 0.219637168964855D+02 0.176277980139565D+02 0.101245353809851D+02
 0.118642640686786D+03 -.489039569522762D+02 -.715175294070781D+02 -.101245353809851D+02
 0.607027097154855D+02 0.269402400557907D+02 0.538897313931216D+02 0.741210381174367D+01
0.450049710113D-03 0.000000000000D+00 0.000000000000D+00 0.276875195356D-02 0.000000000000D+00  5 -2 1 25 -24 21 0 0.99286550D-03 0.34247749D+00 0.14261243D+05 0.14261243D+05 0.14261243D+05 0.12503308D+01  1  2  2  2  5  2        1 0.202552452408D+00 0.100000000000D+01
-.250023511742D-04 0.000000000000D+00 -.172830938765D-05 0.276875195356D-02 0.000000000000D+00  5 -2 1 25 -24 21 2 0.99286550D-03 0.34247749D+00 0.14261243D+05 0.14261243D+05 0.14261243D+05 0.12503308D+01  1  2  3  2  5  2        1 -.175916966884D-01 0.100000000000D+01
0.311098187675D-04 0.000000000000D+00 0.000000000000D+00 0.276875195356D-02 0.000000000000D+00  5 -2 1 25 -24 21 2 0.99286550D-03 0.34247749D+00 0.14261243D+05 0.14261243D+05 0.14261243D+05 0.12503308D+01  1  2 15  2  5  2        1 0.218889212449D-01 0.100000000000D+01
-.147215050911D-03 0.000000000000D+00 0.000000000000D+00 0.276875195356D-02 0.000000000000D+00  5 -2 1 25 -24 21 2 0.99286550D-03 0.34247749D+00 0.14261243D+05 0.14261243D+05 0.14261243D+05 0.12503308D+01  1  2  4  2  5  2        1 -.103580759488D+00 0.100000000000D+01
  </mgrwgt>
  </event>
  <event>
  4     66 0.46019439E-03 0.12736125E+03 0.75467711E-02 0.10260074E+00
       -2 -1    0    0    0  501 0.00000000E+00 0.00000000E+00 0.19203499E+02 0.19206165E+02 0.32000000E+00 0.0000E+00 0.9000E+01
        1 -1    0    0  501    0 0.00000000E+00 0.00000000E+00 -.84683736E+03 0.84683742E+03 0.32000000E+00 0.0000E+00 0.9000E+01
       25  1    1    2    0    0 -.73128838E+02 -.12251069E+02 -.45014745E+03 0.47302816E+03 0.12500000E+03 0.0000E+00 0.9000E+01
      -24  1    1    2    0    0 0.73128838E+02 0.12251069E+02 -.37748641E+03 0.39301542E+03 0.80419002E+02 0.0000E+00 0.9000E+01
#aMCatNLO 1  0  0  1  1 0.42021252D+03 0.00000000D+00  -5  5  0 0.00000000D+00 0.00000000D+00 0.00000000D+00 0.00000000D+00 0.00000000D+00
  <mgrwgt>
 0.2851908371D+00    3    2    0
 0.127528117063893D+03 0.000000000000000D+00 0.000000000000000D+00 0.127528117063893D+03
 0.127528117063893D+03 0.000000000000000D+00 0.000000000000000D+00 -.127528117063893D+03
 0.145480597380530D+03 -.731288382403705D+02 -.122510688412232D+02 0.645666663667932D+01
 0.109575636747255D+03 0.731288382403705D+02 0.122510688412232D+02 -.645666663667932D+01
 0.000000000000000D+00 -.000000000000000D+00 -.000000000000000D+00 -.000000000000000D+00
 0.332247647787960D+03 0.000000000000000D+00 0.000000000000000D+00 0.332247647787960D+03
 0.756317151789269D+03 0.000000000000000D+00 0.000000000000000D+00 -.756317151789269D+03
 0.184962549315772D+03 0.509520365574789D+02 0.126286761285487D+03 0.645666663667932D+01
 0.306598477477387D+03 0.229401554674321D+03 0.186731487987506D+03 -.645666663667932D+01
 0.597003772784070D+03 -.280353591231800D+03 -.313018249272993D+03 -.424069504001309D+03
0.362109347843D-03 0.000000000000D+00 0.000000000000D+00 0.265042508013D-02 0.000000000000D+00  5 -2 1 25 -24 21 0 0.29545941D-02 0.13028288D+00 0.16220887D+05 0.16220887D+05 0.16220887D+05 0.12439669D+01  1  2  2  1  5  1       -2 0.279370763497D+00 0.100000000000D+01
-.201171440572D-04 0.000000000000D+00 -.139059524130D-05 0.265042508013D-02 0.000000000000D+00  5 -2 1 25 -24 21 2 0.29545941D-02 0.13028288D+00 0.16220887D+05 0.16220887D+05 0.16220887D+05 0.12439669D+01  1  2  3  1  5  1       -2 -.240173563335D-01 0.100000000000D+01
0.249920876964D-04 0.000000000000D+00 0.000000000000D+00 0.265042508013D-02 0.000000000000D+00  5 -2 1 25 -24 21 2 0.29545941D-02 0.13028288D+00 0.16220887D+05 0.16220887D+05 0.16220887D+05 0.12439669D+01  1  2 15  1  5  1       -2 0.298374299063D-01 0.100000000000D+01
  </mgrwgt>
  </event>
  <event>
  4     66 0.46019439E-03 0.51873739E+02 0.75467711E-02 0.12116296E+00
       -4 -1    0    0    0  501 0.00000000E+00 0.00000000E+00 0.44478234E+03 0.44478504E+03 0.15500000E+01 0.0000E+00 0.9000E+01
        3 -1    0    0  501    0 0.00000000E+00 0.00000000E+00 -.33575709E+02 0.33579432E+02 0.50000000E+00 0.0000E+00 0.9000E+01
       25  1    1    2    0    0 -.55347348E+02 -.69058449E+00 0.16999158E+03 0.21814203E+03 0.12500000E+03 0.0000E+00 0.9000E+01
      -24  1    1    2    0    0 0.55347348E+02 0.69058449E+00 0.24121505E+03 0.26022245E+03 0.80419002E+02 0.0000E+00 0.9000E+01
#aMCatNLO 1  0  0  2  1 0.44088382D+02 0.00000000D+00  -5  5  0 0.00000000D+00 0.00000000D+00 0.00000000D+00 0.00000000D+00 0.00000000D+00
  <mgrwgt>
 0.6060414425D-01    9    2    0
 0.122210552014518D+03 0.000000000000000D+00 0.000000000000000D+00 0.122210552014518D+03
 0.122210552014518D+03 0.000000000000000D+00 0.000000000000000D+00 -.122210552014518D+03
 0.140944171768853D+03 -.553473480553580D+02 -.690584490082731D+00 -.342994710150036D+02
 0.103476932260183D+03 0.553473480553580D+02 0.690584490082731D+00 0.342994710150036D+02
 0.000000000000000D+00 -.000000000000000D+00 0.000000000000000D+00 -.000000000000000D+00
 0.145691741924712D+03 0.000000000000000D+00 0.000000000000000D+00 0.145691741924712D+03
 0.146775539490236D+03 0.000000000000000D+00 0.000000000000000D+00 -.146775539490236D+03
 0.142984574081462D+03 -.544347945338998D+02 -.260765767960468D+02 -.342994710150036D+02
 0.105381006288779D+03 0.560186222750097D+02 -.179833472569996D+02 0.342994710150036D+02
 0.441017010447076D+02 -.158382774110993D+01 0.440599240530464D+02 -.108379756552409D+01
0.490554870229D-03 0.000000000000D+00 0.000000000000D+00 0.255486715851D-02 0.000000000000D+00  5 -4 3 25 -24 21 0 0.68428547D-01 0.51659878D-02 0.13728101D+05 0.13728101D+05 0.13728101D+05 0.12522334D+01  1  2  2  2  5  2        3 0.402907598142D-01 0.100000000000D+01
-.271941917883D-04 0.000000000000D+00 -.188385986774D-05 0.255486715851D-02 0.000000000000D+00  5 -4 3 25 -24 21 2 0.68428547D-01 0.51659878D-02 0.13728101D+05 0.13728101D+05 0.13728101D+05 0.12522334D+01  1  2  3  2  5  2        3 -.350239063554D-02 0.100000000000D+01
0.339187599782D-04 0.000000000000D+00 0.000000000000D+00 0.255486715851D-02 0.000000000000D+00  5 -4 3 25 -24 21 2 0.68428547D-01 0.51659878D-02 0.13728101D+05 0.13728101D+05 0.13728101D+05 0.12522334D+01  1  2 15  2  5  2        3 0.436846030364D-02 0.100000000000D+01
0.280095215731D-03 0.000000000000D+00 0.000000000000D+00 0.255486715851D-02 0.000000000000D+00  5 -4 3 25 -24 21 2 0.68428547D-01 0.66101699D-02 0.19957349D+05 0.19957349D+05 0.19957349D+05 0.12339281D+01  1  2 12  2  5  2        3 0.244682481553D-01 0.100000000000D+01
-.277269164944D-03 0.000000000000D+00 0.000000000000D+00 0.255486715851D-02 0.000000000000D+00  5 -4 3 25 -24 21 2 0.68428547D-01 0.51659878D-02 0.13728101D+05 0.13728101D+05 0.13728101D+05 0.12522334D+01  1  2  4  2  5  2        3 -.357100124314D-01 0.100000000000D+01
-.636274511267D-03 0.000000000000D+00 -.286203011338D-03 0.255486715851D-02 0.000000000000D+00  5 -4 3 25 -24 21 2 0.68428547D-01 0.73943122D-02 0.13728101D+05 0.13728101D+05 0.13728101D+05 0.12522334D+01  1  2  5  2  5  2        3 -.462433444948D-01 0.100000000000D+01
0.710217374386D-03 0.000000000000D+00 0.268736645246D-03 0.255486715851D-02 0.000000000000D+00  5 -4 3 25 -24 21 2 0.68428547D-01 0.51659878D-02 0.13728101D+05 0.13728101D+05 0.13728101D+05 0.12522334D+01  1  2  6  2  5  2        3 0.914702191045D-01 0.100000000000D+01
0.938150683210D-05 0.000000000000D+00 0.000000000000D+00 0.255486715851D-02 0.000000000000D+00  5 -4 21 25 -24 -3 2 0.68428547D-01 0.66101699D-02 0.19957349D+05 0.19957349D+05 0.19957349D+05 0.12339281D+01  1  2 12  4  5  2        3 0.195646682963D-01 0.100000000000D+01
-.195889382821D-04 0.000000000000D+00 -.125826055971D-04 0.255486715851D-02 0.000000000000D+00  5 -4 21 25 -24 -3 2 0.68428547D-01 0.73943122D-02 0.13728101D+05 0.13728101D+05 0.13728101D+05 0.12522334D+01  1  2  5  4  5  2        3 -.341024638619D-01 0.100000000000D+01
  </mgrwgt>
  </event>
  <event>
  4     66 0.46019439E-03 0.10566154E+03 0.75467711E-02 0.12064260E+00
       -2 -1    0    0    0  501 0.00000000E+00 0.00000000E+00 0.10836636E+02 0.10841360E+02 0.32000000E+00 0.0000E+00 0.9000E+01
        1 -1    0    0  501    0 0.00000000E+00 0.00000000E+00 -.11763203E+04 0.11763203E+04 0.32000000E+00 0.0000E+00 0.9000E+01
       25  1    1    2    0    0 -.21938946E+02 -.10316306E+02 -.48193182E+03 0.49846868E+03 0.12500000E+03 0.0000E+00 0.9000E+01
      -24  1    1    2    0    0 0.21938946E+02 0.10316306E+02 -.68355181E+03 0.68869299E+03 0.80419002E+02 0.0000E+00 0.9000E+01
#aMCatNLO 1  0  0  1  1 0.68172723D+02 0.00000000D+00  -5  5  0 0.00000000D+00 0.00000000D+00 0.00000000D+00 0.00000000D+00 0.00000000D+00
  <mgrwgt>
 0.3342021058D+00    3    2    0
 0.112916713503432D+03 0.000000000000000D+00 0.000000000000000D+00 0.112916713503432D+03
 0.112916713503432D+03 0.000000000000000D+00 0.000000000000000D+00 -.112916713503432D+03
 0.133192241725725D+03 -.219389462396838D+02 -.103163064891217D+02 0.390823453011551D+02
 0.926411852811399D+02 0.219389462396838D+02 0.103163064891217D+02 -.390823453011551D+02
 0.000000000000000D+00 -.000000000000000D+00 -.000000000000000D+00 -.000000000000000D+00
 0.129675897286183D+03 0.000000000000000D+00 0.000000000000000D+00 0.129675897286183D+03
 0.217031125782720D+03 0.000000000000000D+00 0.000000000000000D+00 -.217031125782720D+03
 0.132289737991174D+03 0.171465091137327D+02 -.735814438206412D+01 0.390823453011551D+02
 0.103609089793424D+03 0.508317975462101D+02 0.125030467260457D+02 -.390823453011551D+02
 0.110808195284304D+03 -.679783066599428D+02 -.514490234398160D+01 -.873552284965371D+02
0.324989126777D-03 0.000000000000D+00 0.000000000000D+00 0.263817775401D-02 0.000000000000D+00  5 -2 1 25 -24 21 0 0.16675415D-02 0.18097272D+00 0.11164361D+05 0.11164361D+05 0.11164361D+05 0.12627147D+01  1  2  2  1  5  1       -2 0.327292440190D+00 0.100000000000D+01
-.179581373551D-04 0.000000000000D+00 -.124804381843D-05 0.263817775401D-02 0.000000000000D+00  5 -2 1 25 -24 21 2 0.16675415D-02 0.18097272D+00 0.11164361D+05 0.11164361D+05 0.11164361D+05 0.12627147D+01  1  2  3  1  5  1       -2 -.288362564868D-01 0.100000000000D+01
0.222612175481D-04 0.000000000000D+00 0.000000000000D+00 0.263817775401D-02 0.000000000000D+00  5 -2 1 25 -24 21 2 0.16675415D-02 0.18097272D+00 0.11164361D+05 0.11164361D+05 0.11164361D+05 0.12627147D+01  1  2 15  1  5  1       -2 0.357459220983D-01 0.100000000000D+01
  </mgrwgt>
  </event>
  <event>
  4     66 0.46019439E-03 0.10415872E+03 0.75467711E-02 0.98544478E-01
       -2 -1    0    0    0  501 0.00000000E+00 0.00000000E+00 0.13077374E+02 0.13081289E+02 0.32000000E+00 0.0000E+00 0.9000E+01
        1 -1    0    0  501    0 0.00000000E+00 0.00000000E+00 -.85115501E+03 0.85115507E+03 0.32000000E+00 0.0000E+00 0.9000E+01
       25  1    1    2    0    0 -.99190325E+01 0.13699612E+02 -.43776456E+03 0.45557533E+03 0.12500000E+03 0.0000E+00 0.9000E+01
      -24  1    1    2    0    0 0.99190325E+01 -.13699612E+02 -.40031307E+03 0.40866103E+03 0.80419002E+02 0.0000E+00 0.9000E+01
#aMCatNLO 1  0  0  1  1 0.60783536D+03 0.00000000D+00  -5  5  0 0.00000000D+00 0.00000000D+00 0.00000000D+00 0.00000000D+00 0.00000000D+00
  <mgrwgt>
 0.2696923353D+00    5    2    0
 0.105511090858469D+03 0.000000000000000D+00 0.000000000000000D+00 0.105511090858469D+03
 0.105511090858469D+03 0.000000000000000D+00 0.000000000000000D+00 -.105511090858469D+03
 0.127209719815669D+03 -.991903250468105D+01 0.136996123878556D+02 0.164695546440910D+02
 0.838124619012688D+02 0.991903250468105D+01 -.136996123878556D+02 -.164695546440910D+02
 0.000000000000000D+00 -.000000000000000D+00 0.000000000000000D+00 0.000000000000000D+00
 0.168261865693833D+04 0.000000000000000D+00 0.000000000000000D+00 0.168261865693833D+04
 0.389582789414092D+03 0.000000000000000D+00 0.000000000000000D+00 -.389582789414092D+03
 0.339355277390437D+03 0.159548620278425D+03 -.271679951100218D+03 0.164695546440910D+02
 0.304068518455127D+03 0.150806753816467D+03 -.250951239754439D+03 -.164695546440910D+02
 0.142877765050686D+04 -.310355374094892D+03 0.522631190854658D+03 0.129303586752424D+04
0.190669856773D-03 0.000000000000D+00 0.000000000000D+00 0.308281607659D-02 0.000000000000D+00  5 -2 1 25 -24 21 0 0.20122095D-02 0.13094723D+00 0.10849038D+05 0.10849038D+05 0.10849038D+05 0.12641889D+01  1  2  2  1  5  1       -2 0.251735457120D+00 0.100000000000D+01
-.105906265123D-04 0.000000000000D+00 -.732222454533D-06 0.308281607659D-02 0.000000000000D+00  5 -2 1 25 -24 21 2 0.20122095D-02 0.13094723D+00 0.10849038D+05 0.10849038D+05 0.10849038D+05 0.12641889D+01  1  2  3  1  5  1       -2 -.223464181951D-01 0.100000000000D+01
0.131976959373D-04 0.000000000000D+00 0.000000000000D+00 0.308281607659D-02 0.000000000000D+00  5 -2 1 25 -24 21 2 0.20122095D-02 0.13094723D+00 0.10849038D+05 0.10849038D+05 0.10849038D+05 0.12641889D+01  1  2 15  1  5  1       -2 0.278473829932D-01 0.100000000000D+01
0.217725436199D-02 0.000000000000D+00 -.721261274437D-03 0.308281607659D-02 0.000000000000D+00  5 -2 1 25 -24 21 2 0.13183237D+00 0.13094723D+00 0.10849038D+05 0.10849038D+05 0.10849038D+05 0.12641889D+01  1  2  5  1  5  1       -2 0.313134520464D-02 0.100000000000D+01
0.537266783511D-03 0.000000000000D+00 -.258277925485D-03 0.308281607659D-02 0.000000000000D+00  5 21 1 25 -24 2 2 0.13183237D+00 0.13094723D+00 0.10849038D+05 0.10849038D+05 0.10849038D+05 0.12641889D+01  1  2  5  3  5  1       -2 0.932456818147D-02 0.100000000000D+01
  </mgrwgt>
  </event>
  <event>
  4     66 0.46019439E-03 0.10976901E+03 0.75467711E-02 0.11759843E+00
       -2 -1    0    0    0  501 0.00000000E+00 0.00000000E+00 0.36010410E+01 0.36152311E+01 0.32000000E+00 0.0000E+00 0.9000E+01
        1 -1    0    0  501    0 0.00000000E+00 0.00000000E+00 -.34894780E+04 0.34894780E+04 0.32000000E+00 0.0000E+00 0.9000E+01
       25  1    1    2    0    0 0.37280832E+02 -.69483007E+01 -.17040333E+04 0.17090327E+04 0.12500000E+03 0.0000E+00 0.9000E+01
      -24  1    1    2    0    0 -.37280832E+02 0.69483007E+01 -.17818437E+04 0.17840606E+04 0.80419002E+02 0.0000E+00 0.9000E+01
#aMCatNLO 1  0  0  1  1 0.10163255D+03 0.00000000D+00  -5  5  0 0.00000000D+00 0.00000000D+00 0.00000000D+00 0.00000000D+00 0.00000000D+00
  <mgrwgt>
 0.1838166727D+00    5    2    0
 0.112207676840417D+03 0.000000000000000D+00 0.000000000000000D+00 0.112207676840417D+03
 0.112207676840417D+03 0.000000000000000D+00 0.000000000000000D+00 -.112207676840417D+03
 0.132611325466557D+03 0.372808323610789D+02 -.694830074994858D+01 0.228609776070601D+02
 0.918040282142763D+02 -.372808323610789D+02 0.694830074994858D+01 -.228609776070601D+02
 0.000000000000000D+00 0.000000000000000D+00 -.000000000000000D+00 0.000000000000000D+00
 0.177584712489605D+03 0.000000000000000D+00 0.000000000000000D+00 0.177584712489605D+03
 0.170641054136166D+03 0.000000000000000D+00 0.000000000000000D+00 -.170641054136166D+03
 0.142260221049273D+03 0.366838219447335D+02 0.523893443685310D+02 0.228609776070601D+02
 0.104096076448462D+03 -.377063198461579D+02 0.492380576800320D+02 -.228609776070601D+02
 0.101869469128036D+03 0.102249790142440D+01 -.101627402048563D+03 0.694365835343977D+01
0.908265444552D-03 0.000000000000D+00 0.000000000000D+00 0.285012383645D-02 0.000000000000D+00  5 -2 1 25 -24 21 0 0.55509899D-03 0.53684387D+00 0.12049235D+05 0.12049235D+05 0.12049235D+05 0.12588158D+01  1  2  2  1  5  1       -2 0.129975377427D+00 0.100000000000D+01
-.504295698345D-04 0.000000000000D+00 -.348797845886D-05 0.285012383645D-02 0.000000000000D+00  5 -2 1 25 -24 21 2 0.55509899D-03 0.53684387D+00 0.12049235D+05 0.12049235D+05 0.12049235D+05 0.12588158D+01  1  2  3  1  5  1       -2 -.114355721225D-01 0.100000000000D+01
0.629619045359D-04 0.000000000000D+00 0.000000000000D+00 0.285012383645D-02 0.000000000000D+00  5 -2 1 25 -24 21 2 0.55509899D-03 0.53684387D+00 0.12049235D+05 0.12049235D+05 0.12049235D+05 0.12588158D+01  1  2 15  1  5  1       -2 0.142774448137D-01 0.100000000000D+01
0.508129407178D-03 0.000000000000D+00 -.339833847220D-03 0.285012383645D-02 0.000000000000D+00  5 -2 1 25 -24 21 2 0.28214422D-02 0.53684387D+00 0.12049235D+05 0.12049235D+05 0.12049235D+05 0.12588158D+01  1  2  5  1  5  1       -2 0.112588324059D-01 0.100000000000D+01
0.900614124065D-04 0.000000000000D+00 -.674016363016D-04 0.285012383645D-02 0.000000000000D+00  5 21 1 25 -24 2 2 0.28214422D-02 0.53684387D+00 0.12049235D+05 0.12049235D+05 0.12049235D+05 0.12588158D+01  1  2  5  3  5  1       -2 0.397405901627D-01 0.100000000000D+01
  </mgrwgt>
  </event>
  <event>
  5     66 0.46019439E-03 0.15571418E+03 0.75467711E-02 0.10928474E+00
       21 -1    0    0  502  501 0.00000000E+00 0.00000000E+00 0.82996370E+02 0.82999758E+02 0.75000000E+00 0.0000E+00 0.9000E+01
        1 -1    0    0  501    0 0.00000000E+00 0.00000000E+00 -.11917985E+04 0.11917985E+04 0.32000000E+00 0.0000E+00 0.9000E+01
       25  1    1    2    0    0 -.25903397E+02 0.93459480E+02 -.58019077E+03 0.60137508E+03 0.12500000E+03 0.0000E+00 0.9000E+01
      -24  1    1    2    0    0 -.17468289E+03 -.88449187E+02 -.21979409E+03 0.30514591E+03 0.80419002E+02 0.0000E+00 0.9000E+01
        2  1    1    2  502    0 0.20058629E+03 -.50102926E+01 -.30881725E+03 0.36827729E+03 0.32000000E+00 0.0000E+00 0.9000E+01
#aMCatNLO 2  0  0  1  1 0.20064885D+03 0.00000000D+00  -5  5  0 0.00000000D+00 0.00000000D+00 0.00000000D+00 0.00000000D+00 0.00000000D+00
  <mgrwgt>
 0.3993074466D-01    1    2    0
 0.188112054302388D+03 0.000000000000000D+00 0.000000000000000D+00 0.188112054302388D+03
 0.188112054302388D+03 0.000000000000000D+00 0.000000000000000D+00 -.188112054302388D+03
 0.200282704502865D+03 0.716363531508803D+02 0.910231081608482D+02 -.105219714934810D+03
 0.175941404101912D+03 -.716363531508803D+02 -.910231081608482D+02 0.105219714934810D+03
 0.000000000000000D+00 0.000000000000000D+00 -.000000000000000D+00 0.000000000000000D+00
 0.332179874904212D+03 0.000000000000000D+00 0.000000000000000D+00 0.332179874904212D+03
 0.297781600658196D+03 0.000000000000000D+00 0.000000000000000D+00 -.297781600658196D+03
 0.190004864932228D+03 -.259033970204145D+02 0.934594795071863D+02 -.105219714934810D+03
 0.236380573032464D+03 -.174682890600262D+03 -.884491869570299D+02 0.105219714934810D+03
 0.203576037597717D+03 0.200586287620676D+03 -.501029255015646D+01 0.343982742460156D+02
0.435039003247D-04 0.000000000000D+00 0.000000000000D+00 0.155093023535D-02 0.461683427509D-07  5 21 1 25 -24 2 2 0.12768931D-01 0.18335380D+00 0.81376292D+05 0.81376292D+05 0.81376292D+05 0.11718842D+01  1  2  1  3  5  1       -2 0.399307446587D-01 0.100000000000D+01
  </mgrwgt>
  </event>
  <event>
  4     66 0.46019439E-03 0.44288171E+02 0.75467711E-02 0.11821655E+00
       -2 -1    0    0    0  501 0.00000000E+00 0.00000000E+00 0.85795103E+01 0.85854759E+01 0.32000000E+00 0.0000E+00 0.9000E+01
        1 -1    0    0  501    0 0.00000000E+00 0.00000000E+00 -.16457257E+04 0.16457257E+04 0.32000000E+00 0.0000E+00 0.9000E+01
       25  1    1    2    0    0 0.51010161E+02 -.16969323E+02 -.78663269E+03 0.79831446E+03 0.12500000E+03 0.0000E+00 0.9000E+01
      -24  1    1    2    0    0 -.51010161E+02 0.16969323E+02 -.85051347E+03 0.85599671E+03 0.80419002E+02 0.0000E+00 0.9000E+01
#aMCatNLO 1  0  0  2  1 0.84374513D+02 0.00000000D+00  -5  5  0 0.00000000D+00 0.00000000D+00 0.00000000D+00 0.00000000D+00 0.00000000D+00
  <mgrwgt>
 0.3697066081D+00    8    2    0
 0.118846457619548D+03 0.000000000000000D+00 0.000000000000000D+00 0.118846457619548D+03
 0.118846457619548D+03 0.000000000000000D+00 0.000000000000000D+00 -.118846457619548D+03
 0.138110355402150D+03 0.510101614172795D+02 -.169693225928702D+02 0.236532406285159D+02
 0.995825598369454D+02 -.510101614172795D+02 0.169693225928702D+02 -.236532406285159D+02
 0.000000000000000D+00 -.000000000000000D+00 0.000000000000000D+00 -.000000000000000D+00
 0.147246146281949D+03 0.000000000000000D+00 0.000000000000000D+00 0.147246146281949D+03
 0.210324921350963D+03 0.000000000000000D+00 0.000000000000000D+00 -.210324921350963D+03
 0.155645728831857D+03 0.598418367011761D+02 -.667837681746045D+02 0.236532406285159D+02
 0.965783390896141D+02 -.451126516951095D+02 -.162951677421012D+02 -.236532406285159D+02
 0.105346999711441D+03 -.147291850060667D+02 0.830789359167057D+02 -.630787750690142D+02
0.259581676735D-03 0.000000000000D+00 0.000000000000D+00 0.270983920454D-02 0.000000000000D+00  5 -2 1 25 -24 21 0 0.13203859D-02 0.25318903D+00 0.13549250D+05 0.13549250D+05 0.13549250D+05 0.12528903D+01  1  2  2  2  5  2        1 0.181195435963D+00 0.100000000000D+01
-.144136262245D-04 0.000000000000D+00 -.996861988087D-06 0.270983920454D-02 0.000000000000D+00  5 -2 1 25 -24 21 2 0.13203859D-02 0.25318903D+00 0.13549250D+05 0.13549250D+05 0.13549250D+05 0.12528903D+01  1  2  3  2  5  2        1 -.157932889476D-01 0.100000000000D+01
0.179819143040D-04 0.000000000000D+00 0.000000000000D+00 0.270983920454D-02 0.000000000000D+00  5 -2 1 25 -24 21 2 0.13203859D-02 0.25318903D+00 0.13549250D+05 0.13549250D+05 0.13549250D+05 0.12528903D+01  1  2 15  2  5  2        1 0.197031311907D-01 0.100000000000D+01
0.257334903677D-04 0.000000000000D+00 0.000000000000D+00 0.270983920454D-02 0.000000000000D+00  5 -2 1 25 -24 21 2 0.13203859D-02 0.45891663D+00 0.27531028D+05 0.27531028D+05 0.27531028D+05 0.12188326D+01  1  2 12  2  5  2        1 0.360876485742D-02 0.100000000000D+01
-.153976779183D-03 0.000000000000D+00 -.826997720020D-04 0.270983920454D-02 0.000000000000D+00  5 -2 1 25 -24 21 2 0.13203859D-02 0.47783416D+00 0.13549250D+05 0.13549250D+05 0.13549250D+05 0.12528903D+01  1  2  5  2  5  2        1 -.189597326117D-01 0.100000000000D+01
0.182673945498D-03 0.000000000000D+00 0.684280568834D-04 0.270983920454D-02 0.000000000000D+00  5 -2 1 25 -24 21 2 0.13203859D-02 0.25318903D+00 0.13549250D+05 0.13549250D+05 0.13549250D+05 0.12528903D+01  1  2  6  2  5  2        1 0.200159374159D+00 0.100000000000D+01
0.167599864496D-05 0.000000000000D+00 0.000000000000D+00 0.270983920454D-02 0.000000000000D+00  5 -2 21 25 -24 -1 2 0.13203859D-02 0.45891663D+00 0.27531028D+05 0.27531028D+05 0.27531028D+05 0.12188326D+01  1  2 12  4  5  2        1 0.101622895695D-03 0.100000000000D+01
-.594961936156D-05 0.000000000000D+00 -.571221561498D-05 0.270983920454D-02 0.000000000000D+00  5 -2 21 25 -24 -1 2 0.13203859D-02 0.47783416D+00 0.13549250D+05 0.13549250D+05 0.13549250D+05 0.12528903D+01  1  2  5  4  5  2        1 -.308699416158D-03 0.100000000000D+01
  </mgrwgt>
  </event>
  <event>
  5     66 0.46019439E-03 0.10770641E+03 0.75467711E-02 0.12125068E+00
       -2 -1    0    0    0  502 0.00000000E+00 0.00000000E+00 0.91711555E+03 0.91711561E+03 0.32000000E+00 0.0000E+00 0.9000E+01
        1 -1    0    0  501    0 0.00000000E+00 0.00000000E+00 -.95132045E+02 0.95132583E+02 0.32000000E+00 0.0000E+00 0.9000E+01
       25  1    1    2    0    0 0.23972792E+02 0.18488088E+01 -.14936277E+02 0.12816476E+03 0.12500000E+03 0.0000E+00 0.9000E+01
      -24  1    1    2    0    0 -.41480558E+01 0.52469080E+02 0.80257321E+02 0.12521447E+03 0.80419002E+02 0.0000E+00 0.9000E+01
       21  1    1    2  501  502 -.19824736E+02 -.54317889E+02 0.75666247E+03 0.75886896E+03 0.75000000E+00 0.0000E+00 0.9000E+01
#aMCatNLO 2  0  0  1  2 0.57822601D+02 0.00000000D+00  -5  5  0 0.00000000D+00 0.00000000D+00 0.00000000D+00 0.00000000D+00 0.00000000D+00
  <mgrwgt>
 0.4743963402D-01    2    2    0
 0.118944044346875D+03 0.000000000000000D+00 0.000000000000000D+00 0.118944044346875D+03
 0.118944044346875D+03 0.000000000000000D+00 0.000000000000000D+00 -.118944044346875D+03
 0.138192137212548D+03 0.126856148457491D+02 -.290769810117695D+02 -.496555247540309D+02
 0.996959514812021D+02 -.126856148457491D+02 0.290769810117695D+02 0.496555247540309D+02
 0.000000000000000D+00 -.000000000000000D+00 -.000000000000000D+00 0.000000000000000D+00
 0.704495573030421D+03 0.000000000000000D+00 0.000000000000000D+00 0.704495573030421D+03
 0.123843281150182D+03 0.000000000000000D+00 0.000000000000000D+00 -.123843281150182D+03
 0.136633758563859D+03 0.239727917997799D+02 0.184880880924452D+01 -.496555247540309D+02
 0.108180856840742D+03 -.414805577206607D+01 0.524690797245414D+02 0.496555247540309D+02
 0.583524238776001D+03 -.198247360277139D+02 -.543178885337859D+02 0.580652291880239D+03
-.255871541264D-02 0.000000000000D+00 0.000000000000D+00 0.238235818571D-02 0.000000000000D+00  5 -2 1 25 -24 21 2 0.13794896D+00 0.14056728D-01 0.19771957D+05 0.19771957D+05 0.19771957D+05 0.12343747D+01  1  2 13  1  5  1       -2 -.549770401613D-01 0.100000000000D+01
0.531536349030D-02 0.000000000000D+00 0.000000000000D+00 0.238235818571D-02 0.187556952759D-04  5 -2 1 25 -24 21 2 0.14109447D+00 0.14635717D-01 0.19771957D+05 0.19771957D+05 0.19771957D+05 0.12343747D+01  1  2  1  1  5  1       -2 0.102416674186D+00 0.100000000000D+01
  </mgrwgt>
  </event>
  <event>
  4     66 0.46019439E-03 0.10947879E+03 0.75467711E-02 0.10965737E+00
       -2 -1    0    0    0  501 0.00000000E+00 0.00000000E+00 0.27639161E+02 0.27641014E+02 0.32000000E+00 0.0000E+00 0.9000E+01
        1 -1    0    0  501    0 0.00000000E+00 0.00000000E+00 -.43407479E+03 0.43407491E+03 0.32000000E+00 0.0000E+00 0.9000E+01
       25  1    1    2    0    0 0.36599835E+02 0.61049962E+01 -.23473641E+03 0.26852002E+03 0.12500000E+03 0.0000E+00 0.9000E+01
      -24  1    1    2    0    0 -.36599835E+02 -.61049962E+01 -.17169922E+03 0.19319590E+03 0.80419002E+02 0.0000E+00 0.9000E+01
#aMCatNLO 1  0  0  1  2 0.23533116D+03 0.00000000D+00  -5  5  0 0.00000000D+00 0.00000000D+00 0.00000000D+00 0.00000000D+00 0.00000000D+00
  <mgrwgt>
 0.1922257227D+00    3    2    0
 0.109535008409064D+03 0.000000000000000D+00 0.000000000000000D+00 0.109535008409064D+03
 0.109535008409064D+03 0.000000000000000D+00 0.000000000000000D+00 -.109535008409064D+03
 0.130436508711664D+03 0.365998350423413D+02 0.610499624973076D+01 0.344440133436625D+01
 0.886335081064635D+02 -.365998350423413D+02 -.610499624973076D+01 -.344440133436625D+01
 0.000000000000000D+00 0.000000000000000D+00 -.000000000000000D+00 -.000000000000000D+00
 0.264278977362770D+03 0.000000000000000D+00 0.000000000000000D+00 0.264278977362770D+03
 0.294500634016003D+03 0.000000000000000D+00 0.000000000000000D+00 -.294500634016003D+03
 0.180686802972798D+03 -.208786326693618D+02 0.128743697188780D+03 0.344440133436625D+01
 0.140829024120326D+03 -.789918842855670D+02 0.843446287369645D+02 -.344440133436625D+01
 0.237263784285649D+03 0.998705169549287D+02 -.213088325925744D+03 -.302216566532332D+02
0.168430645628D-03 0.000000000000D+00 0.000000000000D+00 0.302196740223D-02 0.000000000000D+00  5 -2 1 25 -24 21 0 0.42523302D-02 0.66780889D-01 0.11985605D+05 0.11985605D+05 0.11985605D+05 0.12590852D+01  1  2  2  1  5  1       -2 0.188179152355D+00 0.100000000000D+01
-.935725509191D-05 0.000000000000D+00 -.646818028019D-06 0.302196740223D-02 0.000000000000D+00  5 -2 1 25 -24 21 2 0.42523302D-02 0.66780889D-01 0.11985605D+05 0.11985605D+05 0.11985605D+05 0.12590852D+01  1  2  3  1  5  1       -2 -.165733042851D-01 0.100000000000D+01
0.116419407786D-04 0.000000000000D+00 0.000000000000D+00 0.302196740223D-02 0.000000000000D+00  5 -2 1 25 -24 21 2 0.42523302D-02 0.66780889D-01 0.11985605D+05 0.11985605D+05 0.11985605D+05 0.12590852D+01  1  2 15  1  5  1       -2 0.206198746424D-01 0.100000000000D+01
  </mgrwgt>
  </event>
  <event>
  4     66 0.46019439E-03 0.76299776E+02 0.75467711E-02 0.12373654E+00
       -2 -1    0    0    0  501 0.00000000E+00 0.00000000E+00 0.49342073E+01 0.49445730E+01 0.32000000E+00 0.0000E+00 0.9000E+01
        1 -1    0    0  501    0 0.00000000E+00 0.00000000E+00 -.28024343E+04 0.28024344E+04 0.32000000E+00 0.0000E+00 0.9000E+01
       25  1    1    2    0    0 -.21189493E+02 0.51250426E+02 -.15111945E+04 0.15173693E+04 0.12500000E+03 0.0000E+00 0.9000E+01
      -24  1    1    2    0    0 0.21189493E+02 -.51250426E+02 -.12863056E+04 0.12900096E+04 0.80419002E+02 0.0000E+00 0.9000E+01
#aMCatNLO 1  0  0  2  1 0.12323546D+02 0.00000000D+00  -5  5  0 0.00000000D+00 0.00000000D+00 0.00000000D+00 0.00000000D+00 0.00000000D+00
  <mgrwgt>
 0.7931448022D+00    9    2    0
 0.117653592162938D+03 0.000000000000000D+00 0.000000000000000D+00 0.117653592162938D+03
 0.117653592162938D+03 0.000000000000000D+00 0.000000000000000D+00 -.117653592162938D+03
 0.137112802624075D+03 -.211894930733116D+02 0.512504264007415D+02 0.996593299529380D+01
 0.981943817018009D+02 0.211894930733116D+02 -.512504264007415D+02 -.996593299529380D+01
 0.000000000000000D+00 0.000000000000000D+00 0.000000000000000D+00 -.000000000000000D+00
 0.120396714964527D+03 0.000000000000000D+00 0.000000000000000D+00 0.120396714964527D+03
 0.132520179992692D+03 0.000000000000000D+00 0.000000000000000D+00 -.132520179992692D+03
 0.137464942237398D+03 -.279741430041620D+02 0.488849449938045D+02 0.996593299529380D+01
 0.981647264845038D+02 0.163375783252676D+02 -.529420559234903D+02 -.996593299529380D+01
 0.172872262353167D+02 0.116365646788944D+02 0.405711092968574D+01 -.121234650281656D+02
0.102169344319D-02 0.000000000000D+00 0.000000000000D+00 0.281229539364D-02 0.000000000000D+00  5 -2 1 25 -24 21 0 0.75990758D-03 0.43114454D+00 0.13740233D+05 0.13740233D+05 0.13740233D+05 0.12521892D+01  1  2  2  2  5  2        1 0.283395869024D+00 0.100000000000D+01
-.567598005891D-04 0.000000000000D+00 -.392357183991D-05 0.281229539364D-02 0.000000000000D+00  5 -2 1 25 -24 21 2 0.75990758D-03 0.43114454D+00 0.13740233D+05 0.13740233D+05 0.13740233D+05 0.12521892D+01  1  2  3  2  5  2        1 -.246861670481D-01 0.100000000000D+01
0.706804331564D-04 0.000000000000D+00 0.000000000000D+00 0.281229539364D-02 0.000000000000D+00  5 -2 1 25 -24 21 2 0.75990758D-03 0.43114454D+00 0.13740233D+05 0.13740233D+05 0.13740233D+05 0.12521892D+01  1  2 15  2  5  2        1 0.307405762850D-01 0.100000000000D+01
0.274444617827D-02 0.000000000000D+00 0.000000000000D+00 0.281229539364D-02 0.000000000000D+00  5 -2 1 25 -24 21 2 0.75990758D-03 0.49023005D+00 0.15262662D+05 0.15262662D+05 0.15262662D+05 0.12469640D+01  1  2 12  2  5  2        1 0.645711439410D+00 0.100000000000D+01
-.278427849740D-02 0.000000000000D+00 0.000000000000D+00 0.281229539364D-02 0.000000000000D+00  5 -2 1 25 -24 21 2 0.75990758D-03 0.43114454D+00 0.13740233D+05 0.13740233D+05 0.13740233D+05 0.12521892D+01  1  2  4  2  5  2        1 -.121094794876D+01 0.100000000000D+01
-.540027874232D-02 0.000000000000D+00 -.826434441211D-03 0.281229539364D-02 0.000000000000D+00  5 -2 1 25 -24 21 2 0.75990758D-03 0.48861451D+00 0.13740233D+05 0.13740233D+05 0.13740233D+05 0.12521892D+01  1  2  5  2  5  2        1 -.130417191877D+01 0.100000000000D+01
0.546726086722D-02 0.000000000000D+00 0.820006381254D-03 0.281229539364D-02 0.000000000000D+00  5 -2 1 25 -24 21 2 0.75990758D-03 0.43114454D+00 0.13740233D+05 0.13740233D+05 0.13740233D+05 0.12521892D+01  1  2  6  2  5  2        1 0.237783983846D+01 0.100000000000D+01
0.551148773172D-04 0.000000000000D+00 0.000000000000D+00 0.281229539364D-02 0.000000000000D+00  5 -2 21 25 -24 -1 2 0.75990758D-03 0.49023005D+00 0.15262662D+05 0.15262662D+05 0.15262662D+05 0.12469640D+01  1  2 12  4  5  2        1 0.505459203555D-02 0.100000000000D+01
-.101994496859D-03 0.000000000000D+00 -.162404624827D-04 0.281229539364D-02 0.000000000000D+00  5 -2 21 25 -24 -1 2 0.75990758D-03 0.48861451D+00 0.13740233D+05 0.13740233D+05 0.13740233D+05 0.12521892D+01  1  2  5  4  5  2        1 -.979147838490D-02 0.100000000000D+01
  </mgrwgt>
  </event>
  <event>
  4     66 0.46019439E-03 0.51555074E+02 0.75467711E-02 0.12237746E+00
       -2 -1    0    0    0  501 0.00000000E+00 0.00000000E+00 0.98850126E+02 0.98850644E+02 0.32000000E+00 0.0000E+00 0.9000E+01
        1 -1    0    0  501    0 0.00000000E+00 0.00000000E+00 -.17784301E+03 0.17784330E+03 0.32000000E+00 0.0000E+00 0.9000E+01
       25  1    1    2    0    0 0.15431253E+02 0.75144803E+02 -.76751472E+02 0.16553143E+03 0.12500000E+03 0.0000E+00 0.9000E+01
      -24  1    1    2    0    0 -.15431253E+02 -.75144803E+02 -.22414131E+01 0.11116252E+03 0.80419002E+02 0.0000E+00 0.9000E+01
#aMCatNLO 1  0  0  2  1 0.71522820D+01 0.00000000D+00  -5  5  0 0.00000000D+00 0.00000000D+00 0.00000000D+00 0.00000000D+00 0.00000000D+00
  <mgrwgt>
 0.2525292476D+00    8    2    0
 0.132589273726036D+03 0.000000000000000D+00 0.000000000000000D+00 0.132589273726036D+03
 0.132589273726036D+03 0.000000000000000D+00 0.000000000000000D+00 -.132589273726036D+03
 0.149856477528192D+03 0.154312526374508D+02 0.751448028810134D+02 -.307749719605143D+02
 0.115322069923880D+03 -.154312526374508D+02 -.751448028810134D+02 0.307749719605143D+02
 0.000000000000000D+00 0.000000000000000D+00 -.000000000000000D+00 0.000000000000000D+00
 0.136416323334471D+03 0.000000000000000D+00 0.000000000000000D+00 0.136416323334471D+03
 0.136021814734792D+03 0.000000000000000D+00 0.000000000000000D+00 -.136021814734792D+03
 0.151643035060172D+03 0.139375125551847D+02 0.789256417576958D+02 -.307749719605143D+02
 0.113631948998145D+03 -.165655755161968D+02 -.722736929137648D+02 0.307749719605143D+02
 0.716315401094654D+01 0.262806296101209D+01 -.665194884393098D+01 0.394508599679587D+00
0.263187845800D-03 0.000000000000D+00 0.000000000000D+00 0.246253969534D-02 0.000000000000D+00  5 -2 1 25 -24 21 0 0.15207774D-01 0.27360525D-01 0.16615511D+05 0.16615511D+05 0.16615511D+05 0.12427899D+01  1  2  2  2  5  2        1 0.125390239249D+00 0.100000000000D+01
-.146073992281D-04 0.000000000000D+00 -.101071062682D-05 0.246253969534D-02 0.000000000000D+00  5 -2 1 25 -24 21 2 0.15207774D-01 0.27360525D-01 0.16615511D+05 0.16615511D+05 0.16615511D+05 0.12427899D+01  1  2  3  2  5  2        1 -.107489548492D-01 0.100000000000D+01
0.182038010980D-04 0.000000000000D+00 0.000000000000D+00 0.246253969534D-02 0.000000000000D+00  5 -2 1 25 -24 21 2 0.15207774D-01 0.27360525D-01 0.16615511D+05 0.16615511D+05 0.16615511D+05 0.12427899D+01  1  2 15  2  5  2        1 0.133953918170D-01 0.100000000000D+01
0.560304209900D-03 0.000000000000D+00 0.000000000000D+00 0.246253969534D-02 0.000000000000D+00  5 -2 1 25 -24 21 2 0.15207774D-01 0.28453085D-01 0.17559548D+05 0.17559548D+05 0.17559548D+05 0.12400970D+01  1  2 12  2  5  2        1 0.391672058561D+00 0.100000000000D+01
-.433360815127D-03 0.000000000000D+00 0.000000000000D+00 0.246253969534D-02 0.000000000000D+00  5 -2 1 25 -24 21 2 0.15207774D-01 0.27360525D-01 0.16615511D+05 0.16615511D+05 0.16615511D+05 0.12427899D+01  1  2  4  2  5  2        1 -.318891526308D+00 0.100000000000D+01
0.248886555257D-04 0.000000000000D+00 0.000000000000D+00 0.246253969534D-02 0.395058336477D-03  5 -2 1 25 -24 21 2 0.15646730D-01 0.28068849D-01 0.17559548D+05 0.17559548D+05 0.17559548D+05 0.12400970D+01  1  2 11  2  5  2        1 0.168894027823D-01 0.100000000000D+01
0.703973008384D-05 0.000000000000D+00 0.000000000000D+00 0.246253969534D-02 0.000000000000D+00  5 -2 21 25 -24 -1 2 0.15207774D-01 0.28453085D-01 0.17559548D+05 0.17559548D+05 0.17559548D+05 0.12400970D+01  1  2 12  4  5  2        1 0.336409475216D-01 0.100000000000D+01
0.252412898995D-06 0.000000000000D+00 0.000000000000D+00 0.246253969534D-02 0.184231503382D-05  5 -2 21 25 -24 -1 2 0.15646730D-01 0.28068849D-01 0.17559548D+05 0.17559548D+05 0.17559548D+05 0.12400970D+01  1  2 11  4  5  2        1 0.118168877941D-02 0.100000000000D+01
  </mgrwgt>
  </event>
  <event>
  4     66 0.46019439E-03 0.24424922E+03 0.75467711E-02 0.10878156E+00
       -2 -1    0    0    0  501 0.00000000E+00 0.00000000E+00 0.44533263E+03 0.44533275E+03 0.32000000E+00 0.0000E+00 0.9000E+01
        1 -1    0    0  501    0 0.00000000E+00 0.00000000E+00 -.13434917E+03 0.13434955E+03 0.32000000E+00 0.0000E+00 0.9000E+01
       25  1    1    2    0    0 0.18274887E+03 0.12370240E+03 0.14588877E+03 0.29258840E+03 0.12500000E+03 0.0000E+00 0.9000E+01
      -24  1    1    2    0    0 -.18274887E+03 -.12370240E+03 0.16509469E+03 0.28709390E+03 0.80419002E+02 0.0000E+00 0.9000E+01
#aMCatNLO 1  0  0  1  2 0.92633768D+02 0.00000000D+00  -5  5  0 0.00000000D+00 0.00000000D+00 0.00000000D+00 0.00000000D+00 0.00000000D+00
  <mgrwgt>
 0.2678140931D+00    4    2    0
 0.244602152460225D+03 0.000000000000000D+00 0.000000000000000D+00 0.244602152460225D+03
 0.244602152460225D+03 0.000000000000000D+00 0.000000000000000D+00 -.244602152460225D+03
 0.253962029257629D+03 0.182748873510149D+03 0.123702404363637D+03 -.131254215200636D+02
 0.235242275662822D+03 -.182748873510149D+03 -.123702404363637D+03 0.131254215200636D+02
 0.000000000000000D+00 -.000000000000000D+00 -.000000000000000D+00 -.000000000000000D+00
 0.266262033482740D+03 0.000000000000000D+00 0.000000000000000D+00 0.266262033482740D+03
 0.372856495018567D+03 0.000000000000000D+00 0.000000000000000D+00 -.372856495018567D+03
 0.298368548945516D+03 0.232374750833333D+03 0.138666829072131D+03 -.131254215200636D+02
 0.199528897157835D+03 -.143685490569727D+03 -.111923044795560D+03 0.131254215200636D+02
 0.141221082397956D+03 -.886892602636062D+02 -.267437842765711D+02 -.106594461535827D+03
0.690787538271D-02 0.000000000000D+00 0.000000000000D+00 0.206392890911D-02 0.000000000000D+00  5 -2 1 25 -24 21 0 0.68512751D-01 0.20669141D-01 0.59657683D+05 0.59657683D+05 0.59657683D+05 0.11847599D+01  1  2  2  1  5  1       -2 0.297106480340D+00 0.100000000000D+01
-.383769881768D-03 0.000000000000D+00 -.265280603550D-04 0.206392890911D-02 0.000000000000D+00  5 -2 1 25 -24 21 2 0.68512751D-01 0.20669141D-01 0.59657683D+05 0.59657683D+05 0.59657683D+05 0.11847599D+01  1  2  3  1  5  1       -2 -.231685704935D-01 0.100000000000D+01
0.473633192674D-03 0.000000000000D+00 0.000000000000D+00 0.206392890911D-02 0.000000000000D+00  5 -2 1 25 -24 21 2 0.68512751D-01 0.20669141D-01 0.59657683D+05 0.59657683D+05 0.59657683D+05 0.11847599D+01  1  2 15  1  5  1       -2 0.285937081931D-01 0.100000000000D+01
-.575069594605D-03 0.000000000000D+00 0.000000000000D+00 0.206392890911D-02 0.000000000000D+00  5 -2 1 25 -24 21 2 0.68512751D-01 0.20669141D-01 0.59657683D+05 0.59657683D+05 0.59657683D+05 0.11847599D+01  1  2  4  1  5  1       -2 -.347175249395D-01 0.100000000000D+01
  </mgrwgt>
  </event>
  <event>
  4     66 0.46019439E-03 0.10380065E+03 0.75467711E-02 0.11300457E+00
       -2 -1    0    0    0  501 0.00000000E+00 0.00000000E+00 0.14703489E+02 0.14706971E+02 0.32000000E+00 0.0000E+00 0.9000E+01
        1 -1    0    0  501    0 0.00000000E+00 0.00000000E+00 -.13011310E+04 0.13011310E+04 0.32000000E+00 0.0000E+00 0.9000E+01
       25  1    1    2    0    0 -.19146106E+01 0.14535375E+02 -.29088161E+03 0.31694172E+03 0.12500000E+03 0.0000E+00 0.9000E+01
      -24  1    1    2    0    0 0.19146106E+01 -.14535375E+02 -.99554589E+03 0.99889628E+03 0.80419002E+02 0.0000E+00 0.9000E+01
#aMCatNLO 1  0  0  1  2 0.17664847D+03 0.00000000D+00  -5  5  0 0.00000000D+00 0.00000000D+00 0.00000000D+00 0.00000000D+00 0.00000000D+00
  <mgrwgt>
 0.2558059111D+00    5    2    0
 0.138323831500706D+03 0.000000000000000D+00 0.000000000000000D+00 0.138323831500706D+03
 0.138323831500706D+03 0.000000000000000D+00 0.000000000000000D+00 -.138323831500706D+03
 0.154875180509540D+03 -.191461056652721D+01 0.145353754101631D+02 0.902572914834413D+02
 0.121772482491872D+03 0.191461056652721D+01 -.145353754101631D+02 -.902572914834413D+02
 0.000000000000000D+00 -.000000000000000D+00 0.000000000000000D+00 0.000000000000000D+00
 0.305088166632733D+03 0.000000000000000D+00 0.000000000000000D+00 0.305088166632733D+03
 0.219456881055933D+03 0.000000000000000D+00 0.000000000000000D+00 -.219456881055933D+03
 0.174396149266320D+03 0.864060957409307D+01 -.810430631157408D+02 0.902572914834413D+02
 0.153839453134881D+03 0.107497091337275D+02 -.945379631369437D+02 -.902572914834413D+02
 0.196309445287465D+03 -.193903187078206D+02 0.175581026252685D+03 0.856312855768000D+02
0.364080847093D-03 0.000000000000D+00 0.000000000000D+00 0.155522869461D-02 0.000000000000D+00  5 -2 1 25 -24 21 0 0.22623462D-02 0.20017427D+00 0.10774576D+05 0.10774576D+05 0.10774576D+05 0.12645440D+01  1  2  2  1  5  1       -2 0.194648187976D+00 0.100000000000D+01
-.181992659913D-04 0.000000000000D+00 -.139816631753D-05 0.155522869461D-02 0.000000000000D+00  5 -2 1 25 -24 21 2 0.22623462D-02 0.20017427D+00 0.10774576D+05 0.10774576D+05 0.10774576D+05 0.12645440D+01  1  2  3  1  5  1       -2 -.155587363424D-01 0.100000000000D+01
0.249647995726D-04 0.000000000000D+00 0.000000000000D+00 0.155522869461D-02 0.000000000000D+00  5 -2 1 25 -24 21 2 0.22623462D-02 0.20017427D+00 0.10774576D+05 0.10774576D+05 0.10774576D+05 0.12645440D+01  1  2 15  1  5  1       -2 0.213426593455D-01 0.100000000000D+01
0.114653362522D-03 0.000000000000D+00 -.112423863901D-03 0.155522869461D-02 0.000000000000D+00  5 -2 1 25 -24 21 2 0.83484366D-02 0.20017427D+00 0.10774576D+05 0.10774576D+05 0.10774576D+05 0.12645440D+01  1  2  5  1  5  1       -2 0.141042840695D-01 0.100000000000D+01
0.204005355401D-04 0.000000000000D+00 -.173190445158D-04 0.155522869461D-02 0.000000000000D+00  5 21 1 25 -24 2 2 0.83484366D-02 0.20017427D+00 0.10774576D+05 0.10774576D+05 0.10774576D+05 0.12645440D+01  1  2  5  3  5  1       -2 0.412695160650D-01 0.100000000000D+01
  </mgrwgt>
  </event>
  <event>
  4     66 0.46019439E-03 0.19086086E+03 0.75467711E-02 0.10743745E+00
       -2 -1    0    0    0  501 0.00000000E+00 0.00000000E+00 0.48009274E+02 0.48010341E+02 0.32000000E+00 0.0000E+00 0.9000E+01
        1 -1    0    0  501    0 0.00000000E+00 0.00000000E+00 -.14775999E+04 0.14775999E+04 0.32000000E+00 0.0000E+00 0.9000E+01
       25  1    1    2    0    0 -.10489547E+03 0.12050970E+03 -.20635478E+03 0.28936645E+03 0.12500000E+03 0.0000E+00 0.9000E+01
      -24  1    1    2    0    0 0.10489547E+03 -.12050970E+03 -.12232358E+04 0.12362438E+04 0.80419002E+02 0.0000E+00 0.9000E+01
#aMCatNLO 1  0  0  1  2 0.20983833D+03 0.00000000D+00  -5  5  0 0.00000000D+00 0.00000000D+00 0.00000000D+00 0.00000000D+00 0.00000000D+00
  <mgrwgt>
 0.2392532920D+00    3    2    0
 0.266344398946087D+03 0.000000000000000D+00 0.000000000000000D+00 0.266344398946087D+03
 0.266344398946087D+03 0.000000000000000D+00 0.000000000000000D+00 -.266344398946087D+03
 0.274940209559964D+03 -.104895467739065D+03 0.120509702106000D+03 0.185584135580072D+03
 0.257748588332210D+03 0.104895467739065D+03 -.120509702106000D+03 -.185584135580072D+03
 0.000000000000000D+00 -.000000000000000D+00 -.000000000000000D+00 -.000000000000000D+00
 0.318096259329739D+03 0.000000000000000D+00 0.000000000000000D+00 0.318096259329739D+03
 0.632083767089035D+03 0.000000000000000D+00 0.000000000000000D+00 -.632083767089035D+03
 0.278824059000285D+03 -.101331925178222D+02 0.166053313450195D+03 0.185584135580072D+03
 0.293704963250798D+03 0.199262324168256D+03 -.751561326296407D+02 -.185584135580072D+03
 0.377651004167691D+03 -.189129131650434D+03 -.908971808205540D+02 -.313987507759296D+03
0.330159893842D-02 0.000000000000D+00 0.000000000000D+00 0.107683543114D-02 0.000000000000D+00  5 -2 1 25 -24 21 0 0.73861269D-02 0.22732315D+00 0.36427867D+05 0.36427867D+05 0.36427867D+05 0.12061478D+01  1  2  2  1  5  1       -2 0.232462846614D+00 0.100000000000D+01
-.158655813283D-03 0.000000000000D+00 -.126790092545D-04 0.107683543114D-02 0.000000000000D+00  5 -2 1 25 -24 21 2 0.73861269D-02 0.22732315D+00 0.36427867D+05 0.36427867D+05 0.36427867D+05 0.12061478D+01  1  2  3  1  5  1       -2 -.162512326371D-01 0.100000000000D+01
0.224948854502D-03 0.000000000000D+00 0.000000000000D+00 0.107683543114D-02 0.000000000000D+00  5 -2 1 25 -24 21 2 0.73861269D-02 0.22732315D+00 0.36427867D+05 0.36427867D+05 0.36427867D+05 0.12061478D+01  1  2 15  1  5  1       -2 0.230416780219D-01 0.100000000000D+01
  </mgrwgt>
  </event>
  <event>
  4     66 0.46019439E-03 0.15085468E+03 0.75467711E-02 0.11574569E+00
       -2 -1    0    0    0  501 0.00000000E+00 0.00000000E+00 0.41136643E+02 0.41137888E+02 0.32000000E+00 0.0000E+00 0.9000E+01
        1 -1    0    0  501    0 0.00000000E+00 0.00000000E+00 -.58213576E+03 0.58213585E+03 0.32000000E+00 0.0000E+00 0.9000E+01
       25  1    1    2    0    0 -.97956368E+02 -.48434532E+02 -.36550563E+03 0.40144828E+03 0.12500000E+03 0.0000E+00 0.9000E+01
      -24  1    1    2    0    0 0.97956368E+02 0.48434532E+02 -.17549348E+03 0.22182545E+03 0.80419002E+02 0.0000E+00 0.9000E+01
#aMCatNLO 1  0  0  1  2 0.72030479D+02 0.00000000D+00  -5  5  0 0.00000000D+00 0.00000000D+00 0.00000000D+00 0.00000000D+00 0.00000000D+00
  <mgrwgt>
 0.2926590984D+00    3    2    0
 0.154749883190206D+03 0.000000000000000D+00 0.000000000000000D+00 0.154749883190206D+03
 0.154749883190206D+03 0.000000000000000D+00 0.000000000000000D+00 -.154749883190206D+03
 0.169544375852881D+03 -.979563675573785D+02 -.484345323120614D+02 -.343357178171467D+02
 0.139955390527531D+03 0.979563675573785D+02 0.484345323120614D+02 0.343357178171467D+02
 0.000000000000000D+00 -.000000000000000D+00 0.000000000000000D+00 -.000000000000000D+00
 0.163547228319335D+03 0.000000000000000D+00 0.000000000000000D+00 0.163547228319335D+03
 0.437133552788060D+03 0.000000000000000D+00 0.000000000000000D+00 -.437133552788060D+03
 0.172264431650630D+03 -.780981294211624D+02 -.822907958085914D+02 -.343357178171467D+02
 0.145506705076283D+03 0.114541002443668D+03 0.201594272975863D+02 0.343357178171467D+02
 0.282909644380482D+03 -.364428730225058D+02 0.621313685110051D+02 -.273586324468725D+03
0.670712308033D-03 0.000000000000D+00 0.000000000000D+00 0.226585176797D-02 0.000000000000D+00  5 -2 1 25 -24 21 0 0.63288169D-02 0.89559450D-01 0.22757136D+05 0.22757136D+05 0.22757136D+05 0.12276987D+01  1  2  2  1  5  1       -2 0.286847569327D+00 0.100000000000D+01
-.372323512205D-04 0.000000000000D+00 -.257571186545D-05 0.226585176797D-02 0.000000000000D+00  5 -2 1 25 -24 21 2 0.63288169D-02 0.89559450D-01 0.22757136D+05 0.22757136D+05 0.22757136D+05 0.12276987D+01  1  2  3  1  5  1       -2 -.240004247664D-01 0.100000000000D+01
0.462478955184D-04 0.000000000000D+00 0.000000000000D+00 0.226585176797D-02 0.000000000000D+00  5 -2 1 25 -24 21 2 0.63288169D-02 0.89559450D-01 0.22757136D+05 0.22757136D+05 0.22757136D+05 0.12276987D+01  1  2 15  1  5  1       -2 0.298119538683D-01 0.100000000000D+01
  </mgrwgt>
  </event>
  <event>
  4     66 0.46019439E-03 0.13959385E+03 0.75467711E-02 0.11353256E+00
       -2 -1    0    0    0  501 0.00000000E+00 0.00000000E+00 0.99056137E+02 0.99056654E+02 0.32000000E+00 0.0000E+00 0.9000E+01
        1 -1    0    0  501    0 0.00000000E+00 0.00000000E+00 -.75422121E+03 0.75422128E+03 0.32000000E+00 0.0000E+00 0.9000E+01
       25  1    1    2    0    0 0.53328464E+02 0.17282768E+03 -.61253645E+03 0.65079892E+03 0.12500000E+03 0.0000E+00 0.9000E+01
      -24  1    1    2    0    0 -.53328464E+02 -.17282768E+03 -.42628622E+02 0.20247901E+03 0.80419002E+02 0.0000E+00 0.9000E+01
#aMCatNLO 1  0  0  1  2 0.17896664D+02 0.00000000D+00  -5  5  0 0.00000000D+00 0.00000000D+00 0.00000000D+00 0.00000000D+00 0.00000000D+00
  <mgrwgt>
 0.1324587620D+00    9    2    0
 0.273332195116404D+03 0.000000000000000D+00 0.000000000000000D+00 0.273332195116404D+03
 0.273332195116404D+03 0.000000000000000D+00 0.000000000000000D+00 -.273332195116404D+03
 0.281708251989003D+03 0.533284641256677D+02 0.172827684890649D+03 -.176128377861252D+03
 0.264956138243805D+03 -.533284641256677D+02 -.172827684890649D+03 0.176128377861252D+03
 0.000000000000000D+00 -.000000000000000D+00 0.000000000000000D+00 0.000000000000000D+00
 0.286471500775155D+03 0.000000000000000D+00 0.000000000000000D+00 0.286471500775155D+03
 0.279641445005562D+03 0.000000000000000D+00 0.000000000000000D+00 -.279641445005562D+03
 0.280497206902476D+03 0.612600541518784D+02 0.168165642618709D+03 -.176128377861252D+03
 0.266460054791369D+03 -.458312488109045D+02 -.177234409721830D+03 0.176128377861252D+03
 0.191556840868724D+02 -.154288053409739D+02 0.906876710312089D+01 0.683005576959261D+01
0.163208674562D-02 0.000000000000D+00 0.000000000000D+00 0.121071604771D-02 0.000000000000D+00  5 -2 1 25 -24 21 0 0.15239451D-01 0.11603408D+00 0.43639331D+05 0.43639331D+05 0.43639331D+05 0.11981787D+01  1  2  2  1  5  1       -2 0.121106101840D+00 0.100000000000D+01
-.827042000614D-04 0.000000000000D+00 -.626764284147D-05 0.121071604771D-02 0.000000000000D+00  5 -2 1 25 -24 21 2 0.15239451D-01 0.11603408D+00 0.43639331D+05 0.43639331D+05 0.43639331D+05 0.11981787D+01  1  2  3  1  5  1       -2 -.881035762690D-02 0.100000000000D+01
0.112142578987D-03 0.000000000000D+00 0.000000000000D+00 0.121071604771D-02 0.000000000000D+00  5 -2 1 25 -24 21 2 0.15239451D-01 0.11603408D+00 0.43639331D+05 0.43639331D+05 0.43639331D+05 0.11981787D+01  1  2 15  1  5  1       -2 0.119463851333D-01 0.100000000000D+01
0.401177660034D-02 0.000000000000D+00 0.000000000000D+00 0.121071604771D-02 0.000000000000D+00  5 -2 1 25 -24 21 2 0.16141545D-01 0.11603408D+00 0.47557136D+05 0.47557136D+05 0.47557136D+05 0.11944422D+01  1  2 12  1  5  1       -2 0.385956183067D+00 0.100000000000D+01
-.376875413939D-02 0.000000000000D+00 0.000000000000D+00 0.121071604771D-02 0.000000000000D+00  5 -2 1 25 -24 21 2 0.15239451D-01 0.11603408D+00 0.43639331D+05 0.43639331D+05 0.43639331D+05 0.11981787D+01  1  2  4  1  5  1       -2 -.401479873468D+00 0.100000000000D+01
-.154894755293D-01 0.000000000000D+00 -.274707309347D-02 0.121071604771D-02 0.000000000000D+00  5 -2 1 25 -24 21 2 0.16330450D-01 0.11603408D+00 0.43639331D+05 0.43639331D+05 0.43639331D+05 0.11981787D+01  1  2  5  1  5  1       -2 -.147122678886D+01 0.100000000000D+01
0.156485508377D-01 0.000000000000D+00 0.274051942465D-02 0.121071604771D-02 0.000000000000D+00  5 -2 1 25 -24 21 2 0.15239451D-01 0.11603408D+00 0.43639331D+05 0.43639331D+05 0.43639331D+05 0.11981787D+01  1  2  6  1  5  1       -2 0.166701726298D+01 0.100000000000D+01
0.490702546894D-04 0.000000000000D+00 0.000000000000D+00 0.121071604771D-02 0.000000000000D+00  5 21 1 25 -24 2 2 0.16141545D-01 0.11603408D+00 0.47557136D+05 0.47557136D+05 0.47557136D+05 0.11944422D+01  1  2 12  3  5  1       -2 0.671443211096D-01 0.100000000000D+01
-.177049181035D-03 0.000000000000D+00 -.321997020099D-04 0.121071604771D-02 0.000000000000D+00  5 21 1 25 -24 2 2 0.16330450D-01 0.11603408D+00 0.43639331D+05 0.43639331D+05 0.43639331D+05 0.11981787D+01  1  2  5  3  5  1       -2 -.239194472191D+00 0.100000000000D+01
  </mgrwgt>
  </event>
  <event>
  4     66 0.46019439E-03 0.13015454E+03 0.75467711E-02 0.11889179E+00
       -2 -1    0    0    0  501 0.00000000E+00 0.00000000E+00 0.33290431E+02 0.33291969E+02 0.32000000E+00 0.0000E+00 0.9000E+01
        1 -1    0    0  501    0 0.00000000E+00 0.00000000E+00 -.71401946E+03 0.71401953E+03 0.32000000E+00 0.0000E+00 0.9000E+01
       25  1    1    2    0    0 -.56807994E+02 0.54556057E+02 -.57213577E+03 0.59090426E+03 0.12500000E+03 0.0000E+00 0.9000E+01
      -24  1    1    2    0    0 0.56807994E+02 -.54556057E+02 -.10859326E+03 0.15640724E+03 0.80419002E+02 0.0000E+00 0.9000E+01
#aMCatNLO 1  0  0  1  2 0.54305091D+02 0.00000000D+00  -5  5  0 0.00000000D+00 0.00000000D+00 0.00000000D+00 0.00000000D+00 0.00000000D+00
  <mgrwgt>
 0.1656547135D+00    4    2    0
 0.154177225553422D+03 0.000000000000000D+00 0.000000000000000D+00 0.154177225553422D+03
 0.154177225553422D+03 0.000000000000000D+00 0.000000000000000D+00 -.154177225553422D+03
 0.169026669128434D+03 -.568079942436165D+02 0.545560565266306D+02 -.821066584567497D+02
 0.139327781978411D+03 0.568079942436165D+02 -.545560565266306D+02 0.821066584567497D+02
 0.000000000000000D+00 0.000000000000000D+00 0.000000000000000D+00 -.000000000000000D+00
 0.172018962415669D+03 0.000000000000000D+00 0.000000000000000D+00 0.172018962415669D+03
 0.204210321606479D+03 0.000000000000000D+00 0.000000000000000D+00 -.204210321606479D+03
 0.177348243894833D+03 -.849104229643475D+02 0.433141584434396D+02 -.821066584567497D+02
 0.135751597175487D+03 0.344899846113885D+02 -.634839962502209D+02 0.821066584567497D+02
 0.631294429518281D+02 0.504204383529590D+02 0.201698378067813D+02 -.321913591908095D+02
0.488776288165D-03 0.000000000000D+00 0.000000000000D+00 0.175807864744D-02 0.000000000000D+00  5 -2 1 25 -24 21 0 0.51217286D-02 0.10984927D+00 0.16940204D+05 0.16940204D+05 0.16940204D+05 0.12418448D+01  1  2  2  1  5  1       -2 0.215176865536D+00 0.100000000000D+01
-.262070317070D-04 0.000000000000D+00 -.187702964431D-05 0.175807864744D-02 0.000000000000D+00  5 -2 1 25 -24 21 2 0.51217286D-02 0.10984927D+00 0.16940204D+05 0.16940204D+05 0.16940204D+05 0.12418448D+01  1  2  3  1  5  1       -2 -.177925379659D-01 0.100000000000D+01
0.336048412915D-04 0.000000000000D+00 0.000000000000D+00 0.175807864744D-02 0.000000000000D+00  5 -2 1 25 -24 21 2 0.51217286D-02 0.10984927D+00 0.16940204D+05 0.16940204D+05 0.16940204D+05 0.12418448D+01  1  2 15  1  5  1       -2 0.228150757859D-01 0.100000000000D+01
-.803401077020D-04 0.000000000000D+00 0.000000000000D+00 0.175807864744D-02 0.000000000000D+00  5 -2 1 25 -24 21 2 0.51217286D-02 0.10984927D+00 0.16940204D+05 0.16940204D+05 0.16940204D+05 0.12418448D+01  1  2  4  1  5  1       -2 -.545446898548D-01 0.100000000000D+01
  </mgrwgt>
  </event>
  <event>
  4     66 0.46019439E-03 0.71171227E+02 0.75467711E-02 0.12253560E+00
       -2 -1    0    0    0  501 0.00000000E+00 0.00000000E+00 0.24555538E+02 0.24557623E+02 0.32000000E+00 0.0000E+00 0.9000E+01
        1 -1    0    0  501    0 0.00000000E+00 0.00000000E+00 -.68527043E+03 0.68527051E+03 0.32000000E+00 0.0000E+00 0.9000E+01
       25  1    1    2    0    0 0.54884134E+02 -.11681863E+01 -.22347142E+03 0.26187423E+03 0.12500000E+03 0.0000E+00 0.9000E+01
      -24  1    1    2    0    0 -.54884134E+02 0.11681863E+01 -.43724347E+03 0.44795390E+03 0.80419002E+02 0.0000E+00 0.9000E+01
#aMCatNLO 1  0  0  1  2 0.27719537D+02 0.00000000D+00  -5  5  0 0.00000000D+00 0.00000000D+00 0.00000000D+00 0.00000000D+00 0.00000000D+00
  <mgrwgt>
 0.2719536647D+00    6    2    0
 0.129722592194544D+03 0.000000000000000D+00 0.000000000000000D+00 0.129722592194544D+03
 0.129722592194544D+03 0.000000000000000D+00 0.000000000000000D+00 -.129722592194544D+03
 0.147371376208773D+03 0.548841337015293D+02 -.116818627528980D+01 0.554949523319596D+02
 0.112073808180315D+03 -.548841337015293D+02 0.116818627528980D+01 -.554949523319596D+02
 0.000000000000000D+00 -.000000000000000D+00 -.000000000000000D+00 -.000000000000000D+00
 0.142543185500116D+03 0.000000000000000D+00 0.000000000000000D+00 0.142543185500116D+03
 0.146359625541047D+03 0.000000000000000D+00 0.000000000000000D+00 -.146359625541047D+03
 0.153108994397876D+03 0.684375317622376D+02 0.734701827240896D+01 0.554949523319596D+02
 0.107812787865619D+03 -.449659797854918D+02 0.739947299411318D+01 -.554949523319596D+02
 0.279810287776684D+02 -.234715519767458D+02 -.147464912665221D+02 -.381644004093013D+01
0.264403650476D-03 0.000000000000D+00 0.000000000000D+00 0.219995181470D-02 0.000000000000D+00  5 -2 1 25 -24 21 0 0.37779413D-02 0.10542639D+00 0.13676487D+05 0.13676487D+05 0.13676487D+05 0.12524220D+01  1  2  2  1  5  1       -2 0.193031618193D+00 0.100000000000D+01
-.144971012361D-04 0.000000000000D+00 -.101537963691D-05 0.219995181470D-02 0.000000000000D+00  5 -2 1 25 -24 21 2 0.37779413D-02 0.10542639D+00 0.13676487D+05 0.13676487D+05 0.13676487D+05 0.12524220D+01  1  2  3  1  5  1       -2 -.166013550337D-01 0.100000000000D+01
0.182671303131D-04 0.000000000000D+00 0.000000000000D+00 0.219995181470D-02 0.000000000000D+00  5 -2 1 25 -24 21 2 0.37779413D-02 0.10542639D+00 0.13676487D+05 0.13676487D+05 0.13676487D+05 0.12524220D+01  1  2 15  1  5  1       -2 0.209186037150D-01 0.100000000000D+01
0.171515402423D-03 0.000000000000D+00 0.000000000000D+00 0.219995181470D-02 0.000000000000D+00  5 -2 1 25 -24 21 2 0.43682174D-02 0.10542639D+00 0.17272615D+05 0.17272615D+05 0.17272615D+05 0.12408980D+01  1  2 12  1  5  1       -2 0.156508632183D+00 0.100000000000D+01
-.127238442158D-03 0.000000000000D+00 0.000000000000D+00 0.219995181470D-02 0.000000000000D+00  5 -2 1 25 -24 21 2 0.37779413D-02 0.10542639D+00 0.13676487D+05 0.13676487D+05 0.13676487D+05 0.12524220D+01  1  2  4  1  5  1       -2 -.145707098116D+00 0.100000000000D+01
0.380995922781D-05 0.000000000000D+00 0.000000000000D+00 0.219995181470D-02 0.000000000000D+00  5 21 1 25 -24 2 2 0.43682174D-02 0.10542639D+00 0.17272615D+05 0.17272615D+05 0.17272615D+05 0.12408980D+01  1  2 12  3  5  1       -2 0.638032637410D-01 0.100000000000D+01
  </mgrwgt>
  </event>
  <event>
  5     66 0.46019439E-03 0.12687424E+03 0.75467711E-02 0.11940248E+00
       -2 -1    0    0    0  501 0.00000000E+00 0.00000000E+00 0.92549729E+03 0.92549734E+03 0.32000000E+00 0.0000E+00 0.9000E+01
       21 -1    0    0  501  502 0.00000000E+00 0.00000000E+00 -.29819153E+02 0.29828583E+02 0.75000000E+00 0.0000E+00 0.9000E+01
       25  1    1    2    0    0 -.38095391E+02 0.29872329E+02 0.24429300E+03 0.27865334E+03 0.12500000E+03 0.0000E+00 0.9000E+01
      -24  1    1    2    0    0 0.89625102E+02 -.33641604E+02 0.36917223E+03 0.38976886E+03 0.80419002E+02 0.0000E+00 0.9000E+01
       -1  1    1    2    0  502 -.51529711E+02 0.37692748E+01 0.28221291E+03 0.28690372E+03 0.32000000E+00 0.0000E+00 0.9000E+01
#aMCatNLO 2  0  0  2  2 0.51667383D+02 0.00000000D+00  -5  5  0 0.00000000D+00 0.00000000D+00 0.00000000D+00 0.00000000D+00 0.00000000D+00
  <mgrwgt>
 0.4528189514D-01    1    2    0
 0.130172134600425D+03 0.000000000000000D+00 0.000000000000000D+00 0.130172134600425D+03
 0.130172134600425D+03 0.000000000000000D+00 0.000000000000000D+00 -.130172134600425D+03
 0.147759969496389D+03 -.660154836129941D+02 0.319146172962891D+02 -.288343841922726D+02
 0.112584299704462D+03 0.660154836129941D+02 -.319146172962891D+02 0.288343841922726D+02
 0.000000000000000D+00 -.000000000000000D+00 0.000000000000000D+00 0.000000000000000D+00
 0.191629692057402D+03 0.000000000000000D+00 0.000000000000000D+00 0.191629692057402D+03
 0.144037925628887D+03 0.000000000000000D+00 0.000000000000000D+00 -.144037925628887D+03
 0.137113225528302D+03 -.380953912579078D+02 0.298723294695010D+02 -.288343841922726D+02
 0.128308433351612D+03 0.896251017591022D+02 -.336416042675958D+02 0.288343841922726D+02
 0.702459588063742D+02 -.515297105011944D+02 0.376927479809479D+01 0.475917664285153D+02
0.324123675878D-04 0.000000000000D+00 0.000000000000D+00 0.250482038675D-02 0.184072110591D-06  5 -2 21 25 -24 -1 2 0.14238459D+00 0.45882806D-02 0.24139988D+05 0.24139988D+05 0.24139988D+05 0.12249310D+01  1  2  1  4  5  2        1 0.452818951450D-01 0.100000000000D+01
  </mgrwgt>
  </event>
  <event>
  5     66 0.46019439E-03 0.17861719E+03 0.75467711E-02 0.11638487E+00
       -2 -1    0    0    0  501 0.00000000E+00 0.00000000E+00 0.81736242E+02 0.81736869E+02 0.32000000E+00 0.0000E+00 0.9000E+01
        1 -1    0    0  502    0 0.00000000E+00 0.00000000E+00 -.45952077E+03 0.45952089E+03 0.32000000E+00 0.0000E+00 0.9000E+01
       25  1    1    2    0    0 0.13784979E+03 0.61110231E+02 -.23694732E+03 0.30741838E+03 0.12500000E+03 0.0000E+00 0.9000E+01
      -24  1    1    2    0    0 -.12883531E+03 -.54930547E+02 -.96429599E+02 0.18810047E+03 0.80419002E+02 0.0000E+00 0.9000E+01
       21  1    1    2  502  501 -.90144775E+01 -.61796840E+01 -.44407611E+02 0.45738908E+02 0.75000000E+00 0.0000E+00 0.9000E+01
#aMCatNLO 2  0  0  2  1 0.10929286D+02 0.00000000D+00  -5  5  0 0.00000000D+00 0.00000000D+00 0.00000000D+00 0.00000000D+00 0.00000000D+00
  <mgrwgt>
 0.2839879712D-01    2    2    0
 0.183220704769434D+03 0.000000000000000D+00 0.000000000000000D+00 0.183220704769434D+03
 0.183220704769434D+03 0.000000000000000D+00 0.000000000000000D+00 -.183220704769434D+03
 0.195716268599343D+03 0.132982950668470D+03 0.577738711510501D+02 -.407132955946761D+02
 0.170725140939526D+03 -.132982950668470D+03 -.577738711510501D+02 0.407132955946761D+02
 0.000000000000000D+00 -.000000000000000D+00 -.000000000000000D+00 -.000000000000000D+00
 0.184800701255138D+03 0.000000000000000D+00 0.000000000000000D+00 0.184800701255138D+03
 0.203230033587048D+03 0.000000000000000D+00 0.000000000000000D+00 -.203230033587048D+03
 0.200048988286940D+03 0.137849791388788D+03 0.611102306534391D+02 -.407132955946761D+02
 0.166555370556581D+03 -.128835313909161D+03 -.549305466804940D+02 0.407132955946761D+02
 0.214263759986650D+02 -.901447747962657D+01 -.617968397294508D+01 -.184293323319104D+02
-.777532906338D-02 0.000000000000D+00 0.000000000000D+00 0.211763559490D-02 0.000000000000D+00  5 -2 1 25 -24 21 2 0.12466912D-01 0.70949565D-01 0.33910161D+05 0.33910161D+05 0.33910161D+05 0.12093533D+01  1  2 13  2  5  2        1 -.230682385086D+01 0.100000000000D+01
0.794348511850D-02 0.000000000000D+00 0.000000000000D+00 0.211763559490D-02 0.139099428197D-03  5 -2 1 25 -24 21 2 0.12574420D-01 0.70693068D-01 0.33910161D+05 0.33910161D+05 0.33910161D+05 0.12093533D+01  1  2  1  2  5  2        1 0.233522264798D+01 0.100000000000D+01
  </mgrwgt>
  </event>
  <event>
  5     66 0.46019439E-03 0.10803428E+03 0.75467711E-02 0.12392444E+00
       -2 -1    0    0    0  501 0.00000000E+00 0.00000000E+00 0.52897978E+03 0.52897988E+03 0.32000000E+00 0.0000E+00 0.9000E+01
        1 -1    0    0  502    0 0.00000000E+00 0.00000000E+00 -.29346591E+02 0.29348335E+02 0.32000000E+00 0.0000E+00 0.9000E+01
       25  1    1    2    0    0 0.15382636E+02 -.25991282E+02 0.20975671E+03 0.24603871E+03 0.12500000E+03 0.0000E+00 0.9000E+01
      -24  1    1    2    0    0 -.37174889E+02 0.10112136E+02 0.22544507E+03 0.24243952E+03 0.80419002E+02 0.0000E+00 0.9000E+01
       21  1    1    2  502  501 0.21792253E+02 0.15879146E+02 0.64431419E+02 0.69849981E+02 0.75000000E+00 0.0000E+00 0.9000E+01
#aMCatNLO 2  0  0  2  1 0.26963857D+02 0.00000000D+00  -5  5  0 0.00000000D+00 0.00000000D+00 0.00000000D+00 0.00000000D+00 0.00000000D+00
  <mgrwgt>
 0.1009776689D+00    1    2    0
 0.110094678178416D+03 0.000000000000000D+00 0.000000000000000D+00 0.110094678178416D+03
 0.110094678178416D+03 0.000000000000000D+00 0.000000000000000D+00 -.110094678178416D+03
 0.130889925044910D+03 0.282580511073609D+02 -.166094803328271D+02 -.208033696537219D+02
 0.892994313119222D+02 -.282580511073609D+02 0.166094803328271D+02 0.208033696537219D+02
 0.000000000000000D+00 0.000000000000000D+00 0.000000000000000D+00 0.000000000000000D+00
 0.127036580857009D+03 0.000000000000000D+00 0.000000000000000D+00 0.127036580857009D+03
 0.122193026456643D+03 0.000000000000000D+00 0.000000000000000D+00 -.122193026456643D+03
 0.130268769960925D+03 0.153826363904491D+02 -.259912819203344D+02 -.208033696537219D+02
 0.915654073408239D+02 -.371748892210963D+02 0.101121357571135D+02 0.208033696537219D+02
 0.273954300119031D+02 0.217922528306472D+02 0.158791461632209D+02 0.484355440036527D+01
0.294978149276D-03 0.000000000000D+00 0.000000000000D+00 0.291888148753D-02 0.338851462367D-04  5 -2 1 25 -24 21 2 0.81378284D-01 0.45148152D-02 0.14973397D+05 0.14973397D+05 0.14973397D+05 0.12479104D+01  1  2  1  2  5  2        1 0.100977668854D+00 0.100000000000D+01
  </mgrwgt>
  </event>
  <event>
  4     66 0.46019439E-03 0.62685507E+02 0.75467711E-02 0.11626643E+00
       -2 -1    0    0    0  501 0.00000000E+00 0.00000000E+00 0.25919393E+02 0.25921368E+02 0.32000000E+00 0.0000E+00 0.9000E+01
        1 -1    0    0  501    0 0.00000000E+00 0.00000000E+00 -.10135108E+04 0.10135108E+04 0.32000000E+00 0.0000E+00 0.9000E+01
       25  1    1    2    0    0 -.11141069E+03 -.22238258E+02 -.37595479E+03 0.41215759E+03 0.12500000E+03 0.0000E+00 0.9000E+01
      -24  1    1    2    0    0 0.11141069E+03 0.22238258E+02 -.61163658E+03 0.62727459E+03 0.80419002E+02 0.0000E+00 0.9000E+01
#aMCatNLO 1  0  0  1  2 0.57315485D+02 0.00000000D+00  -5  5  0 0.00000000D+00 0.00000000D+00 0.00000000D+00 0.00000000D+00 0.00000000D+00
  <mgrwgt>
 0.2455677933D+00    9    2    0
 0.162082189927471D+03 0.000000000000000D+00 0.000000000000000D+00 0.162082189927471D+03
 0.162082189927471D+03 0.000000000000000D+00 0.000000000000000D+00 -.162082189927471D+03
 0.176207406352741D+03 -.111410686084048D+03 -.222382575663305D+02 0.501713960365413D+02
 0.147956973502200D+03 0.111410686084048D+03 0.222382575663305D+02 -.501713960365413D+02
 0.000000000000000D+00 -.000000000000000D+00 -.000000000000000D+00 0.000000000000000D+00
 0.235787330616350D+03 0.000000000000000D+00 0.000000000000000D+00 0.235787330616350D+03
 0.176132251531725D+03 0.000000000000000D+00 0.000000000000000D+00 -.176132251531725D+03
 0.159778786319777D+03 -.855691895654111D+02 -.806259106518030D+01 0.501713960365413D+02
 0.169413573811454D+03 0.135820409079770D+03 0.356285073269536D+02 -.501713960365413D+02
 0.827272220168442D+02 -.502512195143587D+02 -.275659162617733D+02 0.596550790846250D+02
0.573282874141D-03 0.000000000000D+00 0.000000000000D+00 0.211843980843D-02 0.000000000000D+00  5 -2 1 25 -24 21 0 0.39877547D-02 0.15592489D+00 0.23732125D+05 0.23732125D+05 0.23732125D+05 0.12257285D+01  1  2  2  1  5  1       -2 0.213987073272D+00 0.100000000000D+01
-.317490727195D-04 0.000000000000D+00 -.220155718555D-05 0.211843980843D-02 0.000000000000D+00  5 -2 1 25 -24 21 2 0.39877547D-02 0.15592489D+00 0.23732125D+05 0.23732125D+05 0.23732125D+05 0.12257285D+01  1  2  3  1  5  1       -2 -.178048430363D-01 0.100000000000D+01
0.394838592304D-04 0.000000000000D+00 0.000000000000D+00 0.211843980843D-02 0.000000000000D+00  5 -2 1 25 -24 21 2 0.39877547D-02 0.15592489D+00 0.23732125D+05 0.23732125D+05 0.23732125D+05 0.12257285D+01  1  2 15  1  5  1       -2 0.221425023111D-01 0.100000000000D+01
0.475120173981D-03 0.000000000000D+00 0.000000000000D+00 0.211843980843D-02 0.000000000000D+00  5 -2 1 25 -24 21 2 0.59120187D-02 0.15592489D+00 0.34378150D+05 0.34378150D+05 0.34378150D+05 0.12087378D+01  1  2 12  1  5  1       -2 0.143680882722D+00 0.100000000000D+01
-.548046905787D-03 0.000000000000D+00 0.000000000000D+00 0.211843980843D-02 0.000000000000D+00  5 -2 1 25 -24 21 2 0.39877547D-02 0.15592489D+00 0.23732125D+05 0.23732125D+05 0.23732125D+05 0.12257285D+01  1  2  4  1  5  1       -2 -.307344067032D+00 0.100000000000D+01
-.676044475372D-03 0.000000000000D+00 -.195713125011D-03 0.211843980843D-02 0.000000000000D+00  5 -2 1 25 -24 21 2 0.63092142D-02 0.15592489D+00 0.23732125D+05 0.23732125D+05 0.23732125D+05 0.12257285D+01  1  2  5  1  5  1       -2 -.189899212701D+00 0.100000000000D+01
0.708849747808D-03 0.000000000000D+00 0.176780025969D-03 0.211843980843D-02 0.000000000000D+00  5 -2 1 25 -24 21 2 0.39877547D-02 0.15592489D+00 0.23732125D+05 0.23732125D+05 0.23732125D+05 0.12257285D+01  1  2  6  1  5  1       -2 0.397522113719D+00 0.100000000000D+01
0.223564874068D-04 0.000000000000D+00 0.000000000000D+00 0.211843980843D-02 0.000000000000D+00  5 21 1 25 -24 2 2 0.59120187D-02 0.15592489D+00 0.34378150D+05 0.34378150D+05 0.34378150D+05 0.12087378D+01  1  2 12  3  5  1       -2 0.116133754061D+00 0.100000000000D+01
-.276747031893D-04 0.000000000000D+00 -.103209585340D-04 0.211843980843D-02 0.000000000000D+00  5 21 1 25 -24 2 2 0.63092142D-02 0.15592489D+00 0.23732125D+05 0.23732125D+05 0.23732125D+05 0.12257285D+01  1  2  5  3  5  1       -2 -.132850409986D+00 0.100000000000D+01
  </mgrwgt>
  </event>
  <event>
  4     66 0.46019439E-03 0.10645635E+03 0.75467711E-02 0.11359463E+00
       -2 -1    0    0    0  501 0.00000000E+00 0.00000000E+00 0.37457413E+02 0.37458779E+02 0.32000000E+00 0.0000E+00 0.9000E+01
        1 -1    0    0  501    0 0.00000000E+00 0.00000000E+00 -.35869201E+03 0.35869215E+03 0.32000000E+00 0.0000E+00 0.9000E+01
       25  1    1    2    0    0 -.24236039E+02 0.12726623E+02 -.11098233E+03 0.16938545E+03 0.12500000E+03 0.0000E+00 0.9000E+01
      -24  1    1    2    0    0 0.24236039E+02 -.12726623E+02 -.21025227E+03 0.22676549E+03 0.80419002E+02 0.0000E+00 0.9000E+01
#aMCatNLO 1  0  0  1  2 0.16545213D+03 0.00000000D+00  -5  5  0 0.00000000D+00 0.00000000D+00 0.00000000D+00 0.00000000D+00 0.00000000D+00
  <mgrwgt>
 0.2344498211D+00    5    2    0
 0.115913647598727D+03 0.000000000000000D+00 0.000000000000000D+00 0.115913647598727D+03
 0.115913647598727D+03 0.000000000000000D+00 0.000000000000000D+00 -.115913647598727D+03
 0.135664954358851D+03 -.242360390338597D+02 0.127266225350837D+02 0.450624825324550D+02
 0.961623408386028D+02 0.242360390338597D+02 -.127266225350837D+02 -.450624825324550D+02
 0.000000000000000D+00 0.000000000000000D+00 -.000000000000000D+00 0.000000000000000D+00
 0.369839388715708D+03 0.000000000000000D+00 0.000000000000000D+00 0.369839388715708D+03
 0.172496998869627D+03 0.000000000000000D+00 0.000000000000000D+00 -.172496998869627D+03
 0.177793316233906D+03 -.364590336685025D+02 0.112363583199455D+03 0.450624825324550D+02
 0.107019431296248D+03 0.163131671760997D+02 0.518574581453678D+02 -.450624825324550D+02
 0.257523640055182D+03 0.201458664924028D+02 -.164221041344823D+03 0.197342389846082D+03
0.247673475764D-03 0.000000000000D+00 0.000000000000D+00 0.249630248679D-02 0.000000000000D+00  5 -2 1 25 -24 21 0 0.57627950D-02 0.55183503D-01 0.11332954D+05 0.11332954D+05 0.11332954D+05 0.12619456D+01  1  2  2  1  5  1       -2 0.222639530288D+00 0.100000000000D+01
-.136384509845D-04 0.000000000000D+00 -.951131360856D-06 0.249630248679D-02 0.000000000000D+00  5 -2 1 25 -24 21 2 0.57627950D-02 0.55183503D-01 0.11332954D+05 0.11332954D+05 0.11332954D+05 0.12619456D+01  1  2  3  1  5  1       -2 -.195240121387D-01 0.100000000000D+01
0.169880837604D-04 0.000000000000D+00 0.000000000000D+00 0.249630248679D-02 0.000000000000D+00  5 -2 1 25 -24 21 2 0.57627950D-02 0.55183503D-01 0.11332954D+05 0.11332954D+05 0.11332954D+05 0.12619456D+01  1  2 15  1  5  1       -2 0.243191513412D-01 0.100000000000D+01
0.215433071912D-04 0.000000000000D+00 -.870798835504D-04 0.249630248679D-02 0.000000000000D+00  5 -2 1 25 -24 21 2 0.26869129D-01 0.55183503D-01 0.11332954D+05 0.11332954D+05 0.11332954D+05 0.12619456D+01  1  2  5  1  5  1       -2 0.260563764938D-02 0.100000000000D+01
0.269385609511D-05 0.000000000000D+00 -.162600233480D-04 0.249630248679D-02 0.000000000000D+00  5 21 1 25 -24 2 2 0.26869129D-01 0.55183503D-01 0.11332954D+05 0.11332954D+05 0.11332954D+05 0.12619456D+01  1  2  5  3  5  1       -2 0.440951396348D-02 0.100000000000D+01
  </mgrwgt>
  </event>
  <event>
  5     66 0.46019439E-03 0.12948724E+03 0.75467711E-02 0.11716007E+00
       21 -1    0    0  502  501 0.00000000E+00 0.00000000E+00 0.68910768E+02 0.68914849E+02 0.75000000E+00 0.0000E+00 0.9000E+01
        1 -1    0    0  501    0 0.00000000E+00 0.00000000E+00 -.51160987E+03 0.51160997E+03 0.32000000E+00 0.0000E+00 0.9000E+01
       25  1    1    2    0    0 0.37745813E+02 0.34171578E+01 -.16369765E+03 0.20942384E+03 0.12500000E+03 0.0000E+00 0.9000E+01
      -24  1    1    2    0    0 -.10493168E+03 -.48404099E+02 -.94226925E+02 0.16940940E+03 0.80419002E+02 0.0000E+00 0.9000E+01
        2  1    1    2  502    0 0.67185871E+02 0.44986941E+02 -.18477453E+03 0.20169158E+03 0.32000000E+00 0.0000E+00 0.9000E+01
#aMCatNLO 2  0  0  1  2 0.80856453D+02 0.00000000D+00  -5  5  0 0.00000000D+00 0.00000000D+00 0.00000000D+00 0.00000000D+00 0.00000000D+00
  <mgrwgt>
 0.6203058684D-01    1    2    0
 0.132713760373328D+03 0.000000000000000D+00 0.000000000000000D+00 0.132713760373328D+03
 0.132713760373328D+03 0.000000000000000D+00 0.000000000000000D+00 -.132713760373328D+03
 0.149964767389986D+03 0.728582727168874D+02 0.269280854651220D+02 -.288267543824721D+02
 0.115462753356670D+03 -.728582727168874D+02 -.269280854651220D+02 0.288267543824721D+02
 0.000000000000000D+00 0.000000000000000D+00 0.000000000000000D+00 -.000000000000000D+00
 0.158145947218152D+03 0.000000000000000D+00 0.000000000000000D+00 0.158145947218152D+03
 0.222936730606837D+03 0.000000000000000D+00 0.000000000000000D+00 -.222936730606837D+03
 0.133762495223627D+03 0.377458129188068D+02 0.341715778417137D+01 -.288267543824721D+02
 0.143707385725648D+03 -.104931683659366D+03 -.484040985239176D+02 0.288267543824721D+02
 0.103612796875714D+03 0.671858707405590D+02 0.449869407397462D+02 -.647907833886846D+02
0.118824868658D-04 0.000000000000D+00 0.000000000000D+00 0.247638756672D-02 0.120639451249D-06  5 21 1 25 -24 2 2 0.10601963D-01 0.78709418D-01 0.31022184D+05 0.31022184D+05 0.31022184D+05 0.12133742D+01  1  2  1  3  5  1       -2 0.620305868429D-01 0.100000000000D+01
  </mgrwgt>
  </event>
  <event>
  4     66 0.46019439E-03 0.12271846E+03 0.75467711E-02 0.12110002E+00
       -2 -1    0    0    0  501 0.00000000E+00 0.00000000E+00 0.92750916E+01 0.92806101E+01 0.32000000E+00 0.0000E+00 0.9000E+01
        1 -1    0    0  501    0 0.00000000E+00 0.00000000E+00 -.17477508E+04 0.17477508E+04 0.32000000E+00 0.0000E+00 0.9000E+01
       25  1    1    2    0    0 0.29276849E+02 -.59199898E+02 -.12239597E+04 0.12320974E+04 0.12500000E+03 0.0000E+00 0.9000E+01
      -24  1    1    2    0    0 -.29276849E+02 0.59199898E+02 -.51451601E+03 0.52493400E+03 0.80419002E+02 0.0000E+00 0.9000E+01
#aMCatNLO 1  0  0  1  2 0.35545602D+02 0.00000000D+00  -5  5  0 0.00000000D+00 0.00000000D+00 0.00000000D+00 0.00000000D+00 0.00000000D+00
  <mgrwgt>
 0.1749722763D+00    4    2    0
 0.127339791492073D+03 0.000000000000000D+00 0.000000000000000D+00 0.127339791492073D+03
 0.127339791492073D+03 0.000000000000000D+00 0.000000000000000D+00 -.127339791492073D+03
 0.145318822120138D+03 0.292768486107362D+02 -.591998978949351D+02 -.336273443351932D+02
 0.109360760864009D+03 -.292768486107362D+02 0.591998978949351D+02 0.336273443351932D+02
 0.000000000000000D+00 0.000000000000000D+00 0.000000000000000D+00 -.000000000000000D+00
 0.140317053285977D+03 0.000000000000000D+00 0.000000000000000D+00 0.140317053285977D+03
 0.155472940194374D+03 0.000000000000000D+00 0.000000000000000D+00 -.155472940194374D+03
 0.148960711069435D+03 0.136983006667187D+02 -.724282521818540D+02 -.336273443351932D+02
 0.108187456003719D+03 -.407933998634739D+02 0.494207438504033D+02 0.336273443351932D+02
 0.386418264071965D+02 0.270950991967552D+02 0.230075083314507D+02 -.151558869083975D+02
0.481036059889D-03 0.000000000000D+00 0.000000000000D+00 0.249604771271D-02 0.000000000000D+00  5 -2 1 25 -24 21 0 0.14273639D-02 0.26888516D+00 0.15059820D+05 0.15059820D+05 0.15059820D+05 0.12476255D+01  1  2  2  1  5  1       -2 0.259117762338D+00 0.100000000000D+01
-.266798240610D-04 0.000000000000D+00 -.184730512968D-05 0.249604771271D-02 0.000000000000D+00  5 -2 1 25 -24 21 2 0.14273639D-02 0.26888516D+00 0.15059820D+05 0.15059820D+05 0.15059820D+05 0.12476255D+01  1  2  3  1  5  1       -2 -.223702592303D-01 0.100000000000D+01
0.332172527790D-04 0.000000000000D+00 0.000000000000D+00 0.249604771271D-02 0.000000000000D+00  5 -2 1 25 -24 21 2 0.14273639D-02 0.26888516D+00 0.15059820D+05 0.15059820D+05 0.15059820D+05 0.12476255D+01  1  2 15  1  5  1       -2 0.278517037402D-01 0.100000000000D+01
-.106893295828D-03 0.000000000000D+00 0.000000000000D+00 0.249604771271D-02 0.000000000000D+00  5 -2 1 25 -24 21 2 0.14273639D-02 0.26888516D+00 0.15059820D+05 0.15059820D+05 0.15059820D+05 0.12476255D+01  1  2  4  1  5  1       -2 -.896269305294D-01 0.100000000000D+01
  </mgrwgt>
  </event>
  <event>
  4     66 0.46019439E-03 0.10498185E+03 0.75467711E-02 0.12195083E+00
       -2 -1    0    0    0  501 0.00000000E+00 0.00000000E+00 0.50922444E+01 0.51022890E+01 0.32000000E+00 0.0000E+00 0.9000E+01
        1 -1    0    0  501    0 0.00000000E+00 0.00000000E+00 -.22914294E+04 0.22914294E+04 0.32000000E+00 0.0000E+00 0.9000E+01
       25  1    1    2    0    0 0.19796360E+02 0.76664418E+01 -.11001289E+04 0.11074111E+04 0.12500000E+03 0.0000E+00 0.9000E+01
      -24  1    1    2    0    0 -.19796360E+02 -.76664418E+01 -.11862082E+04 0.11891206E+04 0.80419002E+02 0.0000E+00 0.9000E+01
#aMCatNLO 1  0  0  1  2 0.54143253D+02 0.00000000D+00  -5  5  0 0.00000000D+00 0.00000000D+00 0.00000000D+00 0.00000000D+00 0.00000000D+00
  <mgrwgt>
 0.2316273861D+00    4    2    0
 0.108074408704736D+03 0.000000000000000D+00 0.000000000000000D+00 0.108074408704736D+03
 0.108074408704736D+03 0.000000000000000D+00 0.000000000000000D+00 -.108074408704736D+03
 0.129258387769218D+03 0.197963597913290D+02 0.766644176470137D+01 0.251408157858515D+02
 0.868904296402542D+02 -.197963597913290D+02 -.766644176470137D+01 -.251408157858515D+02
 0.000000000000000D+00 0.000000000000000D+00 -.000000000000000D+00 -.000000000000000D+00
 0.132151308021137D+03 0.000000000000000D+00 0.000000000000000D+00 0.132151308021137D+03
 0.146753234320772D+03 0.000000000000000D+00 0.000000000000000D+00 -.146753234320772D+03
 0.131755517502217D+03 0.192323405543291D+00 0.332026924451414D+02 0.251408157858515D+02
 0.910713280398497D+02 -.331625778447737D+02 0.974441629255400D+01 -.251408157858515D+02
 0.560776967998420D+02 0.329702544392304D+02 -.429471087376953D+02 -.146019262996358D+02
0.544585300069D-03 0.000000000000D+00 0.000000000000D+00 0.292807787629D-02 0.000000000000D+00  5 -2 1 25 -24 21 0 0.78419660D-03 0.35252837D+00 0.11021189D+05 0.11021189D+05 0.11021189D+05 0.12633781D+01  1  2  2  1  5  1       -2 0.310362493863D+00 0.100000000000D+01
-.302237330440D-04 0.000000000000D+00 -.209135094487D-05 0.292807787629D-02 0.000000000000D+00  5 -2 1 25 -24 21 2 0.78419660D-03 0.35252837D+00 0.11021189D+05 0.11021189D+05 0.11021189D+05 0.12633781D+01  1  2  3  1  5  1       -2 -.274927470074D-01 0.100000000000D+01
0.372777735591D-04 0.000000000000D+00 0.000000000000D+00 0.292807787629D-02 0.000000000000D+00  5 -2 1 25 -24 21 2 0.78419660D-03 0.35252837D+00 0.11021189D+05 0.11021189D+05 0.11021189D+05 0.12633781D+01  1  2 15  1  5  1       -2 0.339093915358D-01 0.100000000000D+01
-.936102830897D-04 0.000000000000D+00 0.000000000000D+00 0.292807787629D-02 0.000000000000D+00  5 -2 1 25 -24 21 2 0.78419660D-03 0.35252837D+00 0.11021189D+05 0.11021189D+05 0.11021189D+05 0.12633781D+01  1  2  4  1  5  1       -2 -.851517523178D-01 0.100000000000D+01
  </mgrwgt>
  </event>
  <event>
  4     66 0.46019439E-03 0.16248526E+03 0.75467711E-02 0.10160379E+00
       -2 -1    0    0    0  501 0.00000000E+00 0.00000000E+00 0.18726023E+03 0.18726051E+03 0.32000000E+00 0.0000E+00 0.9000E+01
        1 -1    0    0  501    0 0.00000000E+00 0.00000000E+00 -.19456878E+03 0.19456905E+03 0.32000000E+00 0.0000E+00 0.9000E+01
       25  1    1    2    0    0 0.10200260E+01 0.12471104E+03 -.10379697E+03 0.20482357E+03 0.12500000E+03 0.0000E+00 0.9000E+01
      -24  1    1    2    0    0 -.10200260E+01 -.12471104E+03 0.96488427E+02 0.17700598E+03 0.80419002E+02 0.0000E+00 0.9000E+01
#aMCatNLO 1  0  0  1  1 0.43834115D+03 0.00000000D+00  -5  5  0 0.00000000D+00 0.00000000D+00 0.00000000D+00 0.00000000D+00 0.00000000D+00
  <mgrwgt>
 0.2134495838D+00    5    2    0
 0.190879800872150D+03 0.000000000000000D+00 0.000000000000000D+00 0.190879800872150D+03
 0.190879800872150D+03 0.000000000000000D+00 0.000000000000000D+00 -.190879800872150D+03
 0.202873977316942D+03 0.102002600102040D+01 0.124711042144622D+03 -.998947755718721D+02
 0.178885624427358D+03 -.102002600102040D+01 -.124711042144622D+03 0.998947755718721D+02
 0.000000000000000D+00 -.000000000000000D+00 -.000000000000000D+00 0.000000000000000D+00
 0.518361850994463D+03 0.000000000000000D+00 0.000000000000000D+00 0.518361850994463D+03
 0.501577858095361D+03 0.000000000000000D+00 0.000000000000000D+00 -.501577858095361D+03
 0.341566963373740D+03 0.242751409467425D+03 0.179264546085894D+03 -.998947755718721D+02
 0.239710386021105D+03 0.184836299555351D+03 -.827673207984070D+02 0.998947755718721D+02
 0.438662359694979D+03 -.427587709022776D+03 -.964972252874873D+02 0.167839928991017D+02
0.133558953348D-02 0.000000000000D+00 0.000000000000D+00 0.162394824570D-02 0.000000000000D+00  5 -2 1 25 -24 21 0 0.28809308D-01 0.29933700D-01 0.26401459D+05 0.26401459D+05 0.26401459D+05 0.12207661D+01  1  2  2  1  5  1       -2 0.193160100134D+00 0.100000000000D+01
-.718592926136D-04 0.000000000000D+00 -.512901547735D-05 0.162394824570D-02 0.000000000000D+00  5 -2 1 25 -24 21 2 0.28809308D-01 0.29933700D-01 0.26401459D+05 0.26401459D+05 0.26401459D+05 0.12207661D+01  1  2  3  1  5  1       -2 -.154878912607D-01 0.100000000000D+01
0.919179107794D-04 0.000000000000D+00 0.000000000000D+00 0.162394824570D-02 0.000000000000D+00  5 -2 1 25 -24 21 2 0.28809308D-01 0.29933700D-01 0.26401459D+05 0.26401459D+05 0.26401459D+05 0.12207661D+01  1  2 15  1  5  1       -2 0.198111414027D-01 0.100000000000D+01
0.117285643094D-02 0.000000000000D+00 -.552898151433D-03 0.162394824570D-02 0.000000000000D+00  5 -2 1 25 -24 21 2 0.17547058D+00 0.29933700D-01 0.26401459D+05 0.26401459D+05 0.26401459D+05 0.12207661D+01  1  2  5  1  5  1       -2 0.502193470108D-02 0.100000000000D+01
0.222744406331D-03 0.000000000000D+00 -.122433590842D-03 0.162394824570D-02 0.000000000000D+00  5 21 1 25 -24 2 2 0.17547058D+00 0.29933700D-01 0.26401459D+05 0.26401459D+05 0.26401459D+05 0.12207661D+01  1  2  5  3  5  1       -2 0.109442988023D-01 0.100000000000D+01
  </mgrwgt>
  </event>
  <event>
  5     66 0.46019439E-03 0.14698754E+03 0.75467711E-02 0.11973404E+00
       -2 -1    0    0    0  502 0.00000000E+00 0.00000000E+00 0.20647418E+02 0.20649897E+02 0.32000000E+00 0.0000E+00 0.9000E+01
        1 -1    0    0  501    0 0.00000000E+00 0.00000000E+00 -.12453408E+04 0.12453408E+04 0.32000000E+00 0.0000E+00 0.9000E+01
       25  1    1    2    0    0 0.78628332E+02 0.58515397E+02 -.44180088E+03 0.46948853E+03 0.12500000E+03 0.0000E+00 0.9000E+01
      -24  1    1    2    0    0 -.87432834E+02 -.64966440E+02 -.71024378E+03 0.72303429E+03 0.80419002E+02 0.0000E+00 0.9000E+01
       21  1    1    2  501  502 0.88045020E+01 0.64510433E+01 -.72648676E+02 0.73467870E+02 0.75000000E+00 0.0000E+00 0.9000E+01
#aMCatNLO 2  0  0  1  2 0.10914908D+02 0.00000000D+00  -5  5  0 0.00000000D+00 0.00000000D+00 0.00000000D+00 0.00000000D+00 0.00000000D+00
  <mgrwgt>
 0.1315791938D+00    2    2    0
 0.153935577887330D+03 0.000000000000000D+00 0.000000000000000D+00 0.153935577887330D+03
 0.153935577887330D+03 0.000000000000000D+00 0.000000000000000D+00 -.153935577887330D+03
 0.168808332079886D+03 0.834032449934539D+02 0.620139672602706D+02 0.454908734670724D+02
 0.139062823694774D+03 -.834032449934539D+02 -.620139672602706D+02 -.454908734670724D+02
 0.000000000000000D+00 0.000000000000000D+00 0.000000000000000D+00 -.000000000000000D+00
 0.157138623087622D+03 0.000000000000000D+00 0.000000000000000D+00 0.157138623087622D+03
 0.163620375365698D+03 0.000000000000000D+00 0.000000000000000D+00 -.163620375365698D+03
 0.165229797199679D+03 0.786283322352106D+02 0.585153969802742D+02 0.454908734670724D+02
 0.142834780079778D+03 -.874328342732298D+02 -.649664403228366D+02 -.454908734670724D+02
 0.126944211738642D+02 0.880450203801923D+01 0.645104334256242D+01 -.648175227807640D+01
-.187266072281D-04 0.000000000000D+00 0.000000000000D+00 0.218835133997D-02 0.000000000000D+00  5 -2 1 25 -24 21 2 0.31117498D-02 0.18023811D+00 0.21605336D+05 0.21605336D+05 0.21605336D+05 0.12301516D+01  1  2  8  1  5  1       -2 -.117832743876D-01 0.100000000000D+01
0.265073642913D-03 0.000000000000D+00 0.000000000000D+00 0.218835133997D-02 0.147723725656D-03  5 -2 1 25 -24 21 2 0.31764982D-02 0.19157772D+00 0.23280060D+05 0.23280060D+05 0.23280060D+05 0.12266305D+01  1  2  1  1  5  1       -2 0.143362468198D+00 0.100000000000D+01
  </mgrwgt>
  </event>
  <event>
  4     66 0.46019439E-03 0.90986921E+02 0.75467711E-02 0.11539140E+00
       -4 -1    0    0    0  501 0.00000000E+00 0.00000000E+00 0.12705770E+03 0.12706716E+03 0.15500000E+01 0.0000E+00 0.9000E+01
        3 -1    0    0  501    0 0.00000000E+00 0.00000000E+00 -.22194041E+03 0.22194097E+03 0.50000000E+00 0.0000E+00 0.9000E+01
       25  1    1    2    0    0 0.10447266E+03 0.59715424E+02 -.10686750E+03 0.20377962E+03 0.12500000E+03 0.0000E+00 0.9000E+01
      -24  1    1    2    0    0 -.10447266E+03 -.59715424E+02 0.11984800E+02 0.14522851E+03 0.80419002E+02 0.0000E+00 0.9000E+01
#aMCatNLO 1  0  0  1  2 0.65272196D+02 0.00000000D+00  -5  5  0 0.00000000D+00 0.00000000D+00 0.00000000D+00 0.00000000D+00 0.00000000D+00
  <mgrwgt>
 0.3909383987D-01    9    2    0
 0.167931491158562D+03 0.000000000000000D+00 0.000000000000000D+00 0.167931491158562D+03
 0.167931491158562D+03 0.000000000000000D+00 0.000000000000000D+00 -.167931491158562D+03
 0.181564705486693D+03 0.104472658826910D+03 0.597154235483745D+02 -.534815297700414D+02
 0.154298276830430D+03 -.104472658826910D+03 -.597154235483745D+02 0.534815297700414D+02
 0.000000000000000D+00 0.000000000000000D+00 -.000000000000000D+00 0.000000000000000D+00
 0.208423733927694D+03 0.000000000000000D+00 0.000000000000000D+00 0.208423733927694D+03
 0.199590238733563D+03 0.000000000000000D+00 0.000000000000000D+00 -.199590238733563D+03
 0.167341089713963D+03 0.715410804172642D+02 0.663297828493596D+02 -.534815297700414D+02
 0.174805666093623D+03 -.135535233454237D+03 -.534764565956511D+02 0.534815297700414D+02
 0.658672168536707D+02 0.639941530369725D+02 -.128533262537085D+02 0.883349519413161D+01
0.735147228309D-03 0.000000000000D+00 0.000000000000D+00 0.207493438827D-02 0.000000000000D+00  5 -4 3 25 -24 21 0 0.19548109D-01 0.34145448D-01 0.25319560D+05 0.25319560D+05 0.25319560D+05 0.12227067D+01  1  2  2  1  5  1       -4 0.293409290894D-01 0.100000000000D+01
-.406973020086D-04 0.000000000000D+00 -.282315892542D-05 0.207493438827D-02 0.000000000000D+00  5 -4 3 25 -24 21 2 0.19548109D-01 0.34145448D-01 0.25319560D+05 0.25319560D+05 0.25319560D+05 0.12227067D+01  1  2  3  1  5  1       -4 -.242834132347D-02 0.100000000000D+01
0.505966328528D-04 0.000000000000D+00 0.000000000000D+00 0.207493438827D-02 0.000000000000D+00  5 -4 3 25 -24 21 2 0.19548109D-01 0.34145448D-01 0.25319560D+05 0.25319560D+05 0.25319560D+05 0.12227067D+01  1  2 15  1  5  1       -4 0.301901817371D-02 0.100000000000D+01
0.275287468728D-03 0.000000000000D+00 0.000000000000D+00 0.207493438827D-02 0.000000000000D+00  5 -4 3 25 -24 21 2 0.25723266D-01 0.34145448D-01 0.38075775D+05 0.38075775D+05 0.38075775D+05 0.12041807D+01  1  2 12  1  5  1       -4 0.991643200047D-02 0.100000000000D+01
-.307397959752D-03 0.000000000000D+00 0.000000000000D+00 0.207493438827D-02 0.000000000000D+00  5 -4 3 25 -24 21 2 0.19548109D-01 0.34145448D-01 0.25319560D+05 0.25319560D+05 0.25319560D+05 0.12227067D+01  1  2  4  1  5  1       -4 -.183419325502D-01 0.100000000000D+01
-.608149567484D-03 0.000000000000D+00 -.278744349646D-03 0.207493438827D-02 0.000000000000D+00  5 -4 3 25 -24 21 2 0.28582402D-01 0.34145448D-01 0.25319560D+05 0.25319560D+05 0.25319560D+05 0.12227067D+01  1  2  5  1  5  1       -4 -.180327931486D-01 0.100000000000D+01
0.683126594829D-03 0.000000000000D+00 0.259770939418D-03 0.207493438827D-02 0.000000000000D+00  5 -4 3 25 -24 21 2 0.19548109D-01 0.34145448D-01 0.25319560D+05 0.25319560D+05 0.25319560D+05 0.12227067D+01  1  2  6  1  5  1       -4 0.407610445291D-01 0.100000000000D+01
0.997781111173D-05 0.000000000000D+00 0.000000000000D+00 0.207493438827D-02 0.000000000000D+00  5 21 3 25 -24 4 2 0.25723266D-01 0.34145448D-01 0.38075775D+05 0.38075775D+05 0.38075775D+05 0.12041807D+01  1  2 12  3  5  1       -4 0.861764836682D-02 0.100000000000D+01
-.190160223869D-04 0.000000000000D+00 -.127780599303D-04 0.207493438827D-02 0.000000000000D+00  5 21 3 25 -24 4 2 0.28582402D-01 0.34145448D-01 0.25319560D+05 0.25319560D+05 0.25319560D+05 0.12227067D+01  1  2  5  3  5  1       -4 -.137581652639D-01 0.100000000000D+01
  </mgrwgt>
  </event>
  <event>
  5     66 -.46019439E-03 0.10550379E+03 0.75467711E-02 0.12596884E+00
       -2 -1    0    0    0  502 0.00000000E+00 0.00000000E+00 0.66480839E+02 0.66481609E+02 0.32000000E+00 0.0000E+00 0.9000E+01
        1 -1    0    0  501    0 0.00000000E+00 0.00000000E+00 -.22236005E+03 0.22236028E+03 0.32000000E+00 0.0000E+00 0.9000E+01
       25  1    1    2    0    0 0.16327204E+02 0.15684790E+02 -.30583313E+02 0.13066342E+03 0.12500000E+03 0.0000E+00 0.9000E+01
      -24  1    1    2    0    0 -.23346272E+02 -.89890379E+01 -.12127565E+03 0.14765111E+03 0.80419002E+02 0.0000E+00 0.9000E+01
       21  1    1    2  501  502 0.70190688E+01 -.66957526E+01 -.40202498E+01 0.10527361E+02 0.75000000E+00 0.0000E+00 0.9000E+01
#aMCatNLO 2  0  0  1  2 0.97005376D+01 0.00000000D+00  -5  5  0 0.00000000D+00 0.00000000D+00 0.00000000D+00 0.00000000D+00 0.00000000D+00
  <mgrwgt>
 -.6336930274D-01    3    2    0
 0.116515806724318D+03 0.000000000000000D+00 0.000000000000000D+00 0.116515806724318D+03
 0.116515806724318D+03 0.000000000000000D+00 0.000000000000000D+00 -.116515806724318D+03
 0.136165037809542D+03 0.204244187309382D+02 0.117763034761039D+02 0.485806475627485D+02
 0.968665756390950D+02 -.204244187309382D+02 -.117763034761039D+02 -.485806475627485D+02
 0.000000000000000D+00 0.000000000000000D+00 -.000000000000000D+00 0.000000000000000D+00
 0.122603236526332D+03 0.000000000000000D+00 0.000000000000000D+00 0.122603236526332D+03
 0.120546394657148D+03 0.000000000000000D+00 0.000000000000000D+00 -.120546394657148D+03
 0.136006137893978D+03 0.163272035640003D+02 0.156847904353029D+02 0.485806475627485D+02
 0.972272930197528D+02 -.233462723784565D+02 -.898903787917690D+01 -.485806475627485D+02
 0.991620026974888D+01 0.701906881445619D+01 -.669575255612600D+01 0.205684186918406D+01
-.416852626255D-03 0.000000000000D+00 0.000000000000D+00 0.242877409281D-02 0.000000000000D+00  5 -2 1 25 -24 21 2 0.10387495D-01 0.33061636D-01 0.12205245D+05 0.12205245D+05 0.12205245D+05 0.12581618D+01  1  2 13  1  5  1       -2 -.452667710857D+00 0.100000000000D+01
-.190680690982D-04 0.000000000000D+00 0.000000000000D+00 0.242877409281D-02 0.000000000000D+00  5 -2 1 25 -24 21 2 0.97189342D-02 0.33061636D-01 0.11131051D+05 0.11131051D+05 0.11131051D+05 0.12628682D+01  1  2  8  1  5  1       -2 -.230632344200D-01 0.100000000000D+01
0.386412609674D-03 0.000000000000D+00 0.000000000000D+00 0.242877409281D-02 0.218371346930D-03  5 -2 1 25 -24 21 2 0.10226705D-01 0.34205325D-01 0.12205245D+05 0.12205245D+05 0.12205245D+05 0.12581618D+01  1  2  1  1  5  1       -2 0.412361642533D+00 0.100000000000D+01
  </mgrwgt>
  </event>
  <event>
  4     66 0.46019439E-03 0.84350133E+02 0.75467711E-02 0.12604144E+00
       -2 -1    0    0    0  501 0.00000000E+00 0.00000000E+00 0.10484949E+02 0.10489831E+02 0.32000000E+00 0.0000E+00 0.9000E+01
        1 -1    0    0  501    0 0.00000000E+00 0.00000000E+00 -.13015560E+04 0.13015560E+04 0.32000000E+00 0.0000E+00 0.9000E+01
       25  1    1    2    0    0 -.36720591E+02 -.21263824E+01 -.52676705E+03 0.54264302E+03 0.12500000E+03 0.0000E+00 0.9000E+01
      -24  1    1    2    0    0 0.36720591E+02 0.21263824E+01 -.76430396E+03 0.76940281E+03 0.80419002E+02 0.0000E+00 0.9000E+01
#aMCatNLO 1  0  0  2  1 0.14275840D+01 0.00000000D+00  -5  5  0 0.00000000D+00 0.00000000D+00 0.00000000D+00 0.00000000D+00 0.00000000D+00
  <mgrwgt>
 0.5242764562D+00   11    2    0
 0.116833115073500D+03 0.000000000000000D+00 0.000000000000000D+00 0.116833115073500D+03
 0.116833115073500D+03 0.000000000000000D+00 0.000000000000000D+00 -.116833115073500D+03
 0.136428980594736D+03 -.367205905884607D+02 -.212638236068212D+01 0.404344342239329D+02
 0.972372495522640D+02 0.367205905884607D+02 0.212638236068212D+01 -.404344342239329D+02
 0.000000000000000D+00 -.000000000000000D+00 0.000000000000000D+00 -.000000000000000D+00
 0.117218760111232D+03 0.000000000000000D+00 0.000000000000000D+00 0.117218760111232D+03
 0.118163968456098D+03 0.000000000000000D+00 0.000000000000000D+00 -.118163968456098D+03
 0.136339884669140D+03 -.363373802367014D+02 -.286626553521193D+01 0.404344342239329D+02
 0.973307063500953D+02 0.369939372358147D+02 0.159861847261686D+01 -.404344342239329D+02
 0.171213754809470D+01 -.656556999113278D+00 0.126764706259507D+01 -.945208344866456D+00
0.152129301017D-03 0.000000000000D+00 0.000000000000D+00 0.255457943733D-02 0.000000000000D+00  5 -2 1 25 -24 21 0 0.16134477D-02 0.20023976D+00 0.11960803D+05 0.11960803D+05 0.11960803D+05 0.12591907D+01  1  2  2  2  5  2        1 0.132622167952D+00 0.100000000000D+01
-.840679596390D-05 0.000000000000D+00 -.584216572469D-06 0.255457943733D-02 0.000000000000D+00  5 -2 1 25 -24 21 2 0.16134477D-02 0.20023976D+00 0.11960803D+05 0.11960803D+05 0.11960803D+05 0.12591907D+01  1  2  3  2  5  2        1 -.116202843181D-01 0.100000000000D+01
0.105214585373D-04 0.000000000000D+00 0.000000000000D+00 0.255457943733D-02 0.000000000000D+00  5 -2 1 25 -24 21 2 0.16134477D-02 0.20023976D+00 0.11960803D+05 0.11960803D+05 0.11960803D+05 0.12591907D+01  1  2 15  2  5  2        1 0.145432742949D-01 0.100000000000D+01
0.149330945984D-07 0.000000000000D+00 0.000000000000D+00 0.255457943733D-02 0.000000000000D+00  5 -2 1 25 -24 21 2 0.16134477D-02 0.20284873D+00 0.12118482D+05 0.12118482D+05 0.12118482D+05 0.12585243D+01  1  2 12  2  5  2        1 0.201005866406D-04 0.100000000000D+01
-.385512544426D-02 0.000000000000D+00 0.000000000000D+00 0.255457943733D-02 0.000000000000D+00  5 -2 1 25 -24 21 2 0.16134477D-02 0.20023976D+00 0.11960803D+05 0.11960803D+05 0.11960803D+05 0.12591907D+01  1  2  4  2  5  2        1 -.532874283336D+01 0.100000000000D+01
-.156872640729D-01 0.000000000000D+00 -.155759801425D-02 0.255457943733D-02 0.000000000000D+00  5 -2 1 25 -24 21 2 0.16134477D-02 0.20286967D+00 0.11960803D+05 0.11960803D+05 0.11960803D+05 0.12591907D+01  1  2  5  2  5  2        1 -.211264471525D+02 0.100000000000D+01
0.157063835761D-01 0.000000000000D+00 0.155746542682D-02 0.255457943733D-02 0.000000000000D+00  5 -2 1 25 -24 21 2 0.16134477D-02 0.20023976D+00 0.11960803D+05 0.11960803D+05 0.11960803D+05 0.12591907D+01  1  2  6  2  5  2        1 0.217101311304D+02 0.100000000000D+01
0.385540912556D-02 0.000000000000D+00 0.000000000000D+00 0.255457943733D-02 0.105894067914D-01  5 -2 1 25 -24 21 2 0.16187734D-02 0.20252070D+00 0.12118482D+05 0.12118482D+05 0.12118482D+05 0.12585243D+01  1  2 11  2  5  2        1 0.518182042294D+01 0.100000000000D+01
0.126854967672D-08 0.000000000000D+00 0.000000000000D+00 0.255457943733D-02 0.000000000000D+00  5 -2 21 25 -24 -1 2 0.16134477D-02 0.20284873D+00 0.12118482D+05 0.12118482D+05 0.12118482D+05 0.12585243D+01  1  2 12  4  5  2        1 0.215737385904D-05 0.100000000000D+01
-.375416092234D-04 0.000000000000D+00 -.373724320149D-05 0.255457943733D-02 0.000000000000D+00  5 -2 21 25 -24 -1 2 0.16134477D-02 0.20286967D+00 0.11960803D+05 0.11960803D+05 0.11960803D+05 0.12591907D+01  1  2  5  4  5  2        1 -.639115396385D-01 0.100000000000D+01
0.932577014717D-05 0.000000000000D+00 0.000000000000D+00 0.255457943733D-02 0.221401513969D-04  5 -2 21 25 -24 -1 2 0.16187734D-02 0.20252070D+00 0.12118482D+05 0.12118482D+05 0.12118482D+05 0.12585243D+01  1  2 11  4  5  2        1 0.158590124540D-01 0.100000000000D+01
  </mgrwgt>
  </event>
  <event>
  4     66 0.46019439E-03 0.96747978E+02 0.75467711E-02 0.11764432E+00
       -2 -1    0    0    0  501 0.00000000E+00 0.00000000E+00 0.37734986E+03 0.37734999E+03 0.32000000E+00 0.0000E+00 0.9000E+01
        1 -1    0    0  501    0 0.00000000E+00 0.00000000E+00 -.72805745E+02 0.72806448E+02 0.32000000E+00 0.0000E+00 0.9000E+01
       25  1    1    2    0    0 0.77165995E+02 0.10278480E+03 0.15146385E+03 0.23470323E+03 0.12500000E+03 0.0000E+00 0.9000E+01
      -24  1    1    2    0    0 -.77165995E+02 -.10278480E+03 0.15308026E+03 0.21545321E+03 0.80419002E+02 0.0000E+00 0.9000E+01
#aMCatNLO 1  0  0  2  1 0.11604551D+02 0.00000000D+00  -5  5  0 0.00000000D+00 0.00000000D+00 0.00000000D+00 0.00000000D+00 0.00000000D+00
  <mgrwgt>
 0.1042935448D+00    9    2    0
 0.165751096446028D+03 0.000000000000000D+00 0.000000000000000D+00 0.165751096446028D+03
 0.165751096446028D+03 0.000000000000000D+00 0.000000000000000D+00 -.165751096446028D+03
 0.179563650694518D+03 0.771659954747042D+02 0.102784798124541D+03 -.993977201136688D+01
 0.151938542197539D+03 -.771659954747042D+02 -.102784798124541D+03 0.993977201136688D+01
 0.000000000000000D+00 0.000000000000000D+00 -.000000000000000D+00 -.000000000000000D+00
 0.166183816897012D+03 0.000000000000000D+00 0.000000000000000D+00 0.166183816897012D+03
 0.267504092583046D+03 0.000000000000000D+00 0.000000000000000D+00 -.267504092583046D+03
 0.181879804056920D+03 0.746199422582634D+02 0.108574068144834D+03 -.993977201136688D+01
 0.149825440852105D+03 -.792916589762826D+02 -.979514191898619D+02 0.993977201136688D+01
 0.101982664571033D+03 0.467171671801912D+01 -.106226489549721D+02 -.101320275686034D+03
0.688841390411D-03 0.000000000000D+00 0.000000000000D+00 0.229567077410D-02 0.000000000000D+00  5 -2 1 25 -24 21 0 0.58053888D-01 0.11200948D-01 0.27373933D+05 0.27373933D+05 0.27373933D+05 0.12190962D+01  1  2  2  2  5  2        1 0.924446177322D-01 0.100000000000D+01
-.382688130258D-04 0.000000000000D+00 -.264533231528D-05 0.229567077410D-02 0.000000000000D+00  5 -2 1 25 -24 21 2 0.58053888D-01 0.11200948D-01 0.27373933D+05 0.27373933D+05 0.27373933D+05 0.12190962D+01  1  2  3  2  5  2        1 -.763279029719D-02 0.100000000000D+01
0.475062328790D-04 0.000000000000D+00 0.000000000000D+00 0.229567077410D-02 0.000000000000D+00  5 -2 1 25 -24 21 2 0.58053888D-01 0.11200948D-01 0.27373933D+05 0.27373933D+05 0.27373933D+05 0.12190962D+01  1  2 15  2  5  2        1 0.947521192076D-02 0.100000000000D+01
0.317995684624D-01 0.000000000000D+00 0.000000000000D+00 0.229567077410D-02 0.000000000000D+00  5 -2 1 25 -24 21 2 0.58053888D-01 0.18084079D-01 0.29362178D+05 0.29362178D+05 0.29362178D+05 0.12158792D+01  1  2 12  2  5  2        1 0.337783508882D+01 0.100000000000D+01
-.285625198155D-01 0.000000000000D+00 0.000000000000D+00 0.229567077410D-02 0.000000000000D+00  5 -2 1 25 -24 21 2 0.58053888D-01 0.11200948D-01 0.27373933D+05 0.27373933D+05 0.27373933D+05 0.12190962D+01  1  2  4  2  5  2        1 -.569685095705D+01 0.100000000000D+01
-.319741043642D-01 0.000000000000D+00 -.331392007002D-03 0.229567077410D-02 0.000000000000D+00  5 -2 1 25 -24 21 2 0.58053888D-01 0.18098119D-01 0.27373933D+05 0.27373933D+05 0.27373933D+05 0.12190962D+01  1  2  5  2  5  2        1 -.340823293236D+01 0.100000000000D+01
0.287898788973D-01 0.000000000000D+00 0.296591722448D-03 0.229567077410D-02 0.000000000000D+00  5 -2 1 25 -24 21 2 0.58053888D-01 0.11200948D-01 0.27373933D+05 0.27373933D+05 0.27373933D+05 0.12190962D+01  1  2  6  2  5  2        1 0.574219817471D+01 0.100000000000D+01
0.173368118926D-02 0.000000000000D+00 0.000000000000D+00 0.229567077410D-02 0.000000000000D+00  5 -2 21 25 -24 -1 2 0.58053888D-01 0.18084079D-01 0.29362178D+05 0.29362178D+05 0.29362178D+05 0.12158792D+01  1  2 12  4  5  2        1 0.164659684669D+01 0.100000000000D+01
-.173113800362D-02 0.000000000000D+00 -.180899168318D-04 0.229567077410D-02 0.000000000000D+00  5 -2 21 25 -24 -1 2 0.58053888D-01 0.18098119D-01 0.27373933D+05 0.27373933D+05 0.27373933D+05 0.12190962D+01  1  2  5  4  5  2        1 -.165153971536D+01 0.100000000000D+01
  </mgrwgt>
  </event>
  <event>
  4     66 0.46019439E-03 0.96375976E+02 0.75467711E-02 0.11414373E+00
       -4 -1    0    0    0  501 0.00000000E+00 0.00000000E+00 0.23340214E+03 0.23340728E+03 0.15500000E+01 0.0000E+00 0.9000E+01
        3 -1    0    0  501    0 0.00000000E+00 0.00000000E+00 -.14187659E+03 0.14187747E+03 0.50000000E+00 0.0000E+00 0.9000E+01
       25  1    1    2    0    0 -.44556625E+02 0.13332649E+03 0.10013529E+03 0.21310402E+03 0.12500000E+03 0.0000E+00 0.9000E+01
      -24  1    1    2    0    0 0.44556625E+02 -.13332649E+03 -.86097367E+01 0.16218073E+03 0.80419002E+02 0.0000E+00 0.9000E+01
#aMCatNLO 1  0  0  2  1 0.64349689D+02 0.00000000D+00  -5  5  0 0.00000000D+00 0.00000000D+00 0.00000000D+00 0.00000000D+00 0.00000000D+00
  <mgrwgt>
 0.5749414109D-01    9    2    0
 0.181976451656850D+03 0.000000000000000D+00 0.000000000000000D+00 0.181976451656850D+03
 0.181976451656850D+03 0.000000000000000D+00 0.000000000000000D+00 -.181976451656850D+03
 0.194557453157663D+03 -.445566248295208D+02 0.133326491693189D+03 0.496624241835166D+02
 0.169395450156038D+03 0.445566248295208D+02 -.133326491693189D+03 -.496624241835166D+02
 0.000000000000000D+00 0.000000000000000D+00 0.000000000000000D+00 -.000000000000000D+00
 0.216803530325400D+03 0.000000000000000D+00 0.000000000000000D+00 0.216803530325400D+03
 0.217144951529401D+03 0.000000000000000D+00 0.000000000000000D+00 -.217144951529401D+03
 0.192528888744718D+03 -.739064583094480D+02 0.116249094816460D+03 0.496624241835166D+02
 0.177068998537959D+03 0.182868426772794D+02 -.148611740108170D+03 -.496624241835166D+02
 0.643505945721228D+02 0.556196156321686D+02 0.323626452917095D+02 -.341421204000634D+00
0.122169440483D-02 0.000000000000D+00 0.000000000000D+00 0.206984511109D-02 0.000000000000D+00  5 -4 3 25 -24 21 0 0.35908484D-01 0.21827631D-01 0.30636264D+05 0.30636264D+05 0.30636264D+05 0.12139430D+01  1  2  2  2  5  2        3 0.360609985285D-01 0.100000000000D+01
-.677469899037D-04 0.000000000000D+00 -.469162819409D-05 0.206984511109D-02 0.000000000000D+00  5 -4 3 25 -24 21 2 0.35908484D-01 0.21827631D-01 0.30636264D+05 0.30636264D+05 0.30636264D+05 0.12139430D+01  1  2  3  2  5  2        3 -.294687507886D-02 0.100000000000D+01
0.841050969625D-04 0.000000000000D+00 0.000000000000D+00 0.206984511109D-02 0.000000000000D+00  5 -4 3 25 -24 21 2 0.35908484D-01 0.21827631D-01 0.30636264D+05 0.30636264D+05 0.30636264D+05 0.12139430D+01  1  2 15  2  5  2        3 0.365842400667D-02 0.100000000000D+01
0.712626700707D-03 0.000000000000D+00 0.000000000000D+00 0.206984511109D-02 0.000000000000D+00  5 -4 3 25 -24 21 2 0.35908484D-01 0.27764036D-01 0.44168308D+05 0.44168308D+05 0.44168308D+05 0.11976529D+01  1  2 12  2  5  2        3 0.199673669878D-01 0.100000000000D+01
-.687347613688D-03 0.000000000000D+00 0.000000000000D+00 0.206984511109D-02 0.000000000000D+00  5 -4 3 25 -24 21 2 0.35908484D-01 0.21827631D-01 0.30636264D+05 0.30636264D+05 0.30636264D+05 0.12139430D+01  1  2  4  2  5  2        3 -.298984140279D-01 0.100000000000D+01
-.166846795057D-02 0.000000000000D+00 -.723300318215D-03 0.206984511109D-02 0.000000000000D+00  5 -4 3 25 -24 21 2 0.35908484D-01 0.30763862D-01 0.30636264D+05 0.30636264D+05 0.30636264D+05 0.12139430D+01  1  2  5  2  5  2        3 -.387968245900D-01 0.100000000000D+01
0.184742349471D-02 0.000000000000D+00 0.682706014863D-03 0.206984511109D-02 0.000000000000D+00  5 -4 3 25 -24 21 2 0.35908484D-01 0.21827631D-01 0.30636264D+05 0.30636264D+05 0.30636264D+05 0.12139430D+01  1  2  6  2  5  2        3 0.803596774468D-01 0.100000000000D+01
0.234407597515D-04 0.000000000000D+00 0.000000000000D+00 0.206984511109D-02 0.000000000000D+00  5 -4 21 25 -24 -3 2 0.35908484D-01 0.27764036D-01 0.44168308D+05 0.44168308D+05 0.44168308D+05 0.11976529D+01  1  2 12  4  5  2        3 0.132021631023D-01 0.100000000000D+01
-.511845709748D-04 0.000000000000D+00 -.308043096490D-04 0.206984511109D-02 0.000000000000D+00  5 -4 21 25 -24 -3 2 0.35908484D-01 0.30763862D-01 0.30636264D+05 0.30636264D+05 0.30636264D+05 0.12139430D+01  1  2  5  4  5  2        3 -.241123752875D-01 0.100000000000D+01
  </mgrwgt>
  </event>
  <event>
  4     66 0.46019439E-03 0.13074826E+03 0.75467711E-02 0.11308295E+00
       -4 -1    0    0    0  501 0.00000000E+00 0.00000000E+00 0.65711969E+03 0.65712152E+03 0.15500000E+01 0.0000E+00 0.9000E+01
        3 -1    0    0  501    0 0.00000000E+00 0.00000000E+00 -.36563070E+02 0.36566488E+02 0.50000000E+00 0.0000E+00 0.9000E+01
       25  1    1    2    0    0 0.75271955E+02 -.26262977E+02 0.15472499E+03 0.21429054E+03 0.12500000E+03 0.0000E+00 0.9000E+01
      -24  1    1    2    0    0 -.75271955E+02 0.26262977E+02 0.46583163E+03 0.47939747E+03 0.80419002E+02 0.0000E+00 0.9000E+01
#aMCatNLO 1  0  0  1  1 0.14780390D+03 0.00000000D+00  -5  5  0 0.00000000D+00 0.00000000D+00 0.00000000D+00 0.00000000D+00 0.00000000D+00
  <mgrwgt>
 0.5283732847D-01    3    2    0
 0.155010105203171D+03 0.000000000000000D+00 0.000000000000000D+00 0.155010105203171D+03
 0.155010105203171D+03 0.000000000000000D+00 0.000000000000000D+00 -.155010105203171D+03
 0.169779761725929D+03 0.752719549940211D+02 -.262629765556860D+02 -.827318339306386D+02
 0.140240448680414D+03 -.752719549940211D+02 0.262629765556860D+02 0.827318339306386D+02
 0.000000000000000D+00 0.000000000000000D+00 0.000000000000000D+00 -.000000000000000D+00
 0.212678666390257D+03 0.000000000000000D+00 0.000000000000000D+00 0.212678666390257D+03
 0.305084914561012D+03 0.000000000000000D+00 0.000000000000000D+00 -.305084914561012D+03
 0.156405086983311D+03 0.377967733063869D+01 -.444826812142292D+02 -.827318339306386D+02
 0.187045818993361D+03 -.147005638568033D+03 0.798174994626576D+01 0.827318339306386D+02
 0.174312674974597D+03 0.143225961237394D+03 0.365009312679635D+02 -.924062481707550D+02
0.168013361302D-02 0.000000000000D+00 0.000000000000D+00 0.175032053867D-02 0.000000000000D+00  5 -4 3 25 -24 21 0 0.10109574D+00 0.56254912D-02 0.17095107D+05 0.17095107D+05 0.17095107D+05 0.12414010D+01  1  2  2  1  5  1       -4 0.516226258346D-01 0.100000000000D+01
-.900525712995D-04 0.000000000000D+00 -.645215546335D-05 0.175032053867D-02 0.000000000000D+00  5 -4 3 25 -24 21 2 0.10109574D+00 0.56254912D-02 0.17095107D+05 0.17095107D+05 0.17095107D+05 0.12414010D+01  1  2  3  1  5  1       -4 -.426399376215D-02 0.100000000000D+01
0.115706242877D-03 0.000000000000D+00 0.000000000000D+00 0.175032053867D-02 0.000000000000D+00  5 -4 3 25 -24 21 2 0.10109574D+00 0.56254912D-02 0.17095107D+05 0.17095107D+05 0.17095107D+05 0.12414010D+01  1  2 15  1  5  1       -4 0.547869639645D-02 0.100000000000D+01
  </mgrwgt>
  </event>
  <event>
  4     66 0.46019439E-03 0.24828518E+03 0.75467711E-02 0.10474429E+00
       -2 -1    0    0    0  501 0.00000000E+00 0.00000000E+00 0.11525101E+03 0.11525145E+03 0.32000000E+00 0.0000E+00 0.9000E+01
        1 -1    0    0  501    0 0.00000000E+00 0.00000000E+00 -.75168421E+03 0.75168428E+03 0.32000000E+00 0.0000E+00 0.9000E+01
       25  1    1    2    0    0 -.10143891E+02 0.22490343E+03 -.55930696E+03 0.61573836E+03 0.12500000E+03 0.0000E+00 0.9000E+01
      -24  1    1    2    0    0 0.10143891E+02 -.22490343E+03 -.77126244E+02 0.25119738E+03 0.80419002E+02 0.0000E+00 0.9000E+01
#aMCatNLO 1  0  0  1  1 0.23232431D+03 0.00000000D+00  -5  5  0 0.00000000D+00 0.00000000D+00 0.00000000D+00 0.00000000D+00 0.00000000D+00
  <mgrwgt>
 0.1999096906D+00    5    2    0
 0.294334141163212D+03 0.000000000000000D+00 0.000000000000000D+00 0.294334141163212D+03
 0.294334141163212D+03 0.000000000000000D+00 0.000000000000000D+00 -.294334141163212D+03
 0.302112532084358D+03 -.101438912464645D+02 0.224903425494811D+03 -.157995356620067D+03
 0.286555750242065D+03 0.101438912464645D+02 -.224903425494811D+03 0.157995356620067D+03
 0.000000000000000D+00 -.000000000000000D+00 -.000000000000000D+00 0.000000000000000D+00
 0.432956153247041D+03 0.000000000000000D+00 0.000000000000000D+00 0.432956153247041D+03
 0.432223897028035D+03 0.000000000000000D+00 0.000000000000000D+00 -.432223897028035D+03
 0.350666067402646D+03 0.106877906499994D+03 0.266376183650704D+03 -.157995356620067D+03
 0.282188521340927D+03 0.112101089553740D+03 -.188769591379465D+03 0.157995356620067D+03
 0.232325461531503D+03 -.218978996053734D+03 -.776065922712387D+02 0.732256219006234D+00
0.328361111047D-02 0.000000000000D+00 0.000000000000D+00 0.144633581183D-02 0.000000000000D+00  5 -2 1 25 -24 21 0 0.17730964D-01 0.11564376D+00 0.61645530D+05 0.61645530D+05 0.61645530D+05 0.11833799D+01  1  2  2  1  5  1       -2 0.189879689670D+00 0.100000000000D+01
-.176002446479D-03 0.000000000000D+00 -.126099312589D-04 0.144633581183D-02 0.000000000000D+00  5 -2 1 25 -24 21 2 0.17730964D-01 0.11564376D+00 0.61645530D+05 0.61645530D+05 0.61645530D+05 0.11833799D+01  1  2  3  1  5  1       -2 -.142525927219D-01 0.100000000000D+01
0.224577398731D-03 0.000000000000D+00 0.000000000000D+00 0.144633581183D-02 0.000000000000D+00  5 -2 1 25 -24 21 2 0.17730964D-01 0.11564376D+00 0.61645530D+05 0.61645530D+05 0.61645530D+05 0.11833799D+01  1  2 15  1  5  1       -2 0.181861687874D-01 0.100000000000D+01
-.198729849475D-03 0.000000000000D+00 -.898293270404D-03 0.144633581183D-02 0.000000000000D+00  5 -2 1 25 -24 21 2 0.38102546D-01 0.11564376D+00 0.61645530D+05 0.61645530D+05 0.61645530D+05 0.11833799D+01  1  2  5  1  5  1       -2 -.411186375352D-02 0.100000000000D+01
0.397354131635D-04 0.000000000000D+00 -.743774620963D-04 0.144633581183D-02 0.000000000000D+00  5 21 1 25 -24 2 2 0.38102546D-01 0.11564376D+00 0.61645530D+05 0.61645530D+05 0.61645530D+05 0.11833799D+01  1  2  5  3  5  1       -2 0.102082886681D-01 0.100000000000D+01
  </mgrwgt>
  </event>
  <event>
  4     66 0.46019439E-03 0.13465399E+03 0.75467711E-02 0.12187880E+00
       -2 -1    0    0    0  501 0.00000000E+00 0.00000000E+00 0.10811880E+03 0.10811927E+03 0.32000000E+00 0.0000E+00 0.9000E+01
        1 -1    0    0  501    0 0.00000000E+00 0.00000000E+00 -.19270084E+03 0.19270110E+03 0.32000000E+00 0.0000E+00 0.9000E+01
       25  1    1    2    0    0 0.84764577E+02 -.13770897E+02 0.68605778E+01 0.15181152E+03 0.12500000E+03 0.0000E+00 0.9000E+01
      -24  1    1    2    0    0 -.84764577E+02 0.13770897E+02 -.91442613E+02 0.14900885E+03 0.80419002E+02 0.0000E+00 0.9000E+01
#aMCatNLO 1  0  0  1  2 0.27399955D+01 0.00000000D+00  -5  5  0 0.00000000D+00 0.00000000D+00 0.00000000D+00 0.00000000D+00 0.00000000D+00
  <mgrwgt>
 0.2180330723D+00    6    2    0
 0.144342282964461D+03 0.000000000000000D+00 0.000000000000000D+00 0.144342282964461D+03
 0.144342282964461D+03 0.000000000000000D+00 0.000000000000000D+00 -.144342282964461D+03
 0.160203512012439D+03 0.847645766525405D+02 -.137708974101333D+02 0.516284242501638D+02
 0.128481053916483D+03 -.847645766525405D+02 0.137708974101333D+02 -.516284242501638D+02
 0.000000000000000D+00 -.000000000000000D+00 -.000000000000000D+00 -.000000000000000D+00
 0.145028511794808D+03 0.000000000000000D+00 0.000000000000000D+00 0.145028511794808D+03
 0.147110029090738D+03 0.000000000000000D+00 0.000000000000000D+00 -.147110029090738D+03
 0.160854560384454D+03 0.861023248126388D+02 -.130416666028523D+02 0.516284242501638D+02
 0.127843008328566D+03 -.836965547831718D+02 0.143530955197806D+02 -.516284242501638D+02
 0.344097217252540D+01 -.240577002946702D+01 -.131142891692833D+01 -.208151729593021D+01
0.477687440325D-03 0.000000000000D+00 0.000000000000D+00 0.217302888568D-02 0.000000000000D+00  5 -2 1 25 -24 21 0 0.16633719D-01 0.29646339D-01 0.18131696D+05 0.18131696D+05 0.18131696D+05 0.12385427D+01  1  2  2  1  5  1       -2 0.178211098839D+00 0.100000000000D+01
-.263824296208D-04 0.000000000000D+00 -.183444554884D-05 0.217302888568D-02 0.000000000000D+00  5 -2 1 25 -24 21 2 0.16633719D-01 0.29646339D-01 0.18131696D+05 0.18131696D+05 0.18131696D+05 0.12385427D+01  1  2  3  1  5  1       -2 -.150982881986D-01 0.100000000000D+01
0.329697175078D-04 0.000000000000D+00 0.000000000000D+00 0.217302888568D-02 0.000000000000D+00  5 -2 1 25 -24 21 2 0.16633719D-01 0.29646339D-01 0.18131696D+05 0.18131696D+05 0.18131696D+05 0.12385427D+01  1  2 15  1  5  1       -2 0.188680991067D-01 0.100000000000D+01
-.795415825801D-03 0.000000000000D+00 0.000000000000D+00 0.217302888568D-02 0.000000000000D+00  5 -2 1 25 -24 21 2 0.16633719D-01 0.29646339D-01 0.18131696D+05 0.18131696D+05 0.18131696D+05 0.12385427D+01  1  2  4  1  5  1       -2 -.455205132669D+00 0.100000000000D+01
0.794905877484D-03 0.000000000000D+00 0.000000000000D+00 0.217302888568D-02 0.236462240739D-02  5 -2 1 25 -24 21 2 0.16712798D-01 0.30214804D-01 0.18501228D+05 0.18501228D+05 0.18501228D+05 0.12375678D+01  1  2 11  1  5  1       -2 0.440371585627D+00 0.100000000000D+01
0.636889773267D-05 0.000000000000D+00 0.000000000000D+00 0.217302888568D-02 0.210171020368D-05  5 21 1 25 -24 2 2 0.16712798D-01 0.30214804D-01 0.18501228D+05 0.18501228D+05 0.18501228D+05 0.12375678D+01  1  2 11  3  5  1       -2 0.508857096194D-01 0.100000000000D+01
  </mgrwgt>
  </event>
  <event>
  4     66 0.46019439E-03 0.39898790E+03 0.75467711E-02 0.10152928E+00
       -2 -1    0    0    0  501 0.00000000E+00 0.00000000E+00 0.75531379E+03 0.75531386E+03 0.32000000E+00 0.0000E+00 0.9000E+01
        1 -1    0    0  501    0 0.00000000E+00 0.00000000E+00 -.21660672E+03 0.21660696E+03 0.32000000E+00 0.0000E+00 0.9000E+01
       25  1    1    2    0    0 -.30955401E+03 -.22881101E+03 0.35294340E+03 0.53700298E+03 0.12500000E+03 0.0000E+00 0.9000E+01
      -24  1    1    2    0    0 0.30955401E+03 0.22881101E+03 0.18576367E+03 0.43491783E+03 0.80419002E+02 0.0000E+00 0.9000E+01
#aMCatNLO 1  0  0  1  2 0.17239881D+03 0.00000000D+00  -5  5  0 0.00000000D+00 0.00000000D+00 0.00000000D+00 0.00000000D+00 0.00000000D+00
  <mgrwgt>
 0.1593075638D+00    4    2    0
 0.404482623571491D+03 0.000000000000000D+00 0.000000000000000D+00 0.404482623571491D+03
 0.404482623571491D+03 0.000000000000000D+00 0.000000000000000D+00 -.404482623571491D+03
 0.410142807416206D+03 -.309554014667119D+03 -.228811005203537D+03 0.664376277154958D+02
 0.398822439726775D+03 0.309554014667119D+03 0.228811005203537D+03 -.664376277154958D+02
 0.000000000000000D+00 -.000000000000000D+00 -.000000000000000D+00 -.000000000000000D+00
 0.454352740139012D+03 0.000000000000000D+00 0.000000000000000D+00 0.454352740139012D+03
 0.595739291314059D+03 0.000000000000000D+00 0.000000000000000D+00 -.595739291314059D+03
 0.346222885083327D+03 -.230953485634954D+03 -.215619607763360D+03 0.664376277154958D+02
 0.480908374235633D+03 0.400974485041489D+03 0.244153952302311D+03 -.664376277154958D+02
 0.222960772134110D+03 -.170020999406535D+03 -.285343445389517D+02 -.141386551175047D+03
0.263174322500D-01 0.000000000000D+00 0.000000000000D+00 0.190527258876D-02 0.000000000000D+00  5 -2 1 25 -24 21 0 0.11620214D+00 0.33324135D-01 0.15919135D+06 0.15919135D+06 0.15919135D+06 0.11454664D+01  1  2  2  1  5  1       -2 0.183194076189D+00 0.100000000000D+01
-.146174700368D-02 0.000000000000D+00 -.101065869379D-03 0.190527258876D-02 0.000000000000D+00  5 -2 1 25 -24 21 2 0.11620214D+00 0.33324135D-01 0.15919135D+06 0.15919135D+06 0.15919135D+06 0.11454664D+01  1  2  3  1  5  1       -2 -.133507248007D-01 0.100000000000D+01
0.179872597822D-02 0.000000000000D+00 0.000000000000D+00 0.190527258876D-02 0.000000000000D+00  5 -2 1 25 -24 21 2 0.11620214D+00 0.33324135D-01 0.15919135D+06 0.15919135D+06 0.15919135D+06 0.11454664D+01  1  2 15  1  5  1       -2 0.164284896543D-01 0.100000000000D+01
-.295227053328D-02 0.000000000000D+00 0.000000000000D+00 0.190527258876D-02 0.000000000000D+00  5 -2 1 25 -24 21 2 0.11620214D+00 0.33324135D-01 0.15919135D+06 0.15919135D+06 0.15919135D+06 0.11454664D+01  1  2  4  1  5  1       -2 -.269642772161D-01 0.100000000000D+01
  </mgrwgt>
  </event>
  <event>
  4     66 0.46019439E-03 0.42366304E+02 0.75467711E-02 0.11664219E+00
       -2 -1    0    0    0  501 0.00000000E+00 0.00000000E+00 0.43174107E+02 0.43175293E+02 0.32000000E+00 0.0000E+00 0.9000E+01
        1 -1    0    0  501    0 0.00000000E+00 0.00000000E+00 -.80026158E+03 0.80026165E+03 0.32000000E+00 0.0000E+00 0.9000E+01
       25  1    1    2    0    0 -.79361033E+02 0.50688320E+02 -.67953505E+03 0.69732372E+03 0.12500000E+03 0.0000E+00 0.9000E+01
      -24  1    1    2    0    0 0.79361033E+02 -.50688320E+02 -.77552422E+02 0.14611322E+03 0.80419002E+02 0.0000E+00 0.9000E+01
#aMCatNLO 1  0  0  2  1 0.72519483D+02 0.00000000D+00  -5  5  0 0.00000000D+00 0.00000000D+00 0.00000000D+00 0.00000000D+00 0.00000000D+00
  <mgrwgt>
 0.1728888246D+00    9    2    0
 0.185879279395130D+03 0.000000000000000D+00 0.000000000000000D+00 0.185879279395130D+03
 0.185879279395130D+03 0.000000000000000D+00 0.000000000000000D+00 -.185879279395130D+03
 0.198196122987689D+03 -.793610333745868D+02 0.506883198022752D+02 -.121610952568800D+03
 0.173562435802571D+03 0.793610333745868D+02 -.506883198022752D+02 0.121610952568800D+03
 0.000000000000000D+00 -.000000000000000D+00 0.000000000000000D+00 -.000000000000000D+00
 0.205742305613141D+03 0.000000000000000D+00 0.000000000000000D+00 0.205742305613141D+03
 0.269750548987576D+03 0.000000000000000D+00 0.000000000000000D+00 -.269750548987576D+03
 0.188227814939176D+03 -.692692328397289D+02 0.147397392745334D+02 -.121610952568800D+03
 0.190537945792116D+03 0.888698346290645D+02 -.845601652116434D+02 0.121610952568800D+03
 0.967270938694243D+02 -.196006017893355D+02 0.698204259371100D+02 -.640082433744346D+02
0.713943298023D-03 0.000000000000D+00 0.000000000000D+00 0.131722497379D-02 0.000000000000D+00  5 -2 1 25 -24 21 0 0.66422665D-02 0.12311726D+00 0.19646798D+05 0.19646798D+05 0.19646798D+05 0.12346789D+01  1  2  2  2  5  2        1 0.179778982966D+00 0.100000000000D+01
-.358213213870D-04 0.000000000000D+00 -.274173025000D-05 0.131722497379D-02 0.000000000000D+00  5 -2 1 25 -24 21 2 0.66422665D-02 0.12311726D+00 0.19646798D+05 0.19646798D+05 0.19646798D+05 0.12346789D+01  1  2  3  2  5  2        1 -.137507007067D-01 0.100000000000D+01
0.485987593735D-04 0.000000000000D+00 0.000000000000D+00 0.131722497379D-02 0.000000000000D+00  5 -2 1 25 -24 21 2 0.66422665D-02 0.12311726D+00 0.19646798D+05 0.19646798D+05 0.19646798D+05 0.12346789D+01  1  2 15  2  5  2        1 0.186555651491D-01 0.100000000000D+01
0.465377862913D-03 0.000000000000D+00 0.000000000000D+00 0.131722497379D-02 0.000000000000D+00  5 -2 1 25 -24 21 2 0.66422665D-02 0.18290244D+00 0.32918484D+05 0.32918484D+05 0.32918484D+05 0.12106895D+01  1  2 12  2  5  2        1 0.885569612970D-01 0.100000000000D+01
-.789108301803D-03 0.000000000000D+00 0.000000000000D+00 0.131722497379D-02 0.000000000000D+00  5 -2 1 25 -24 21 2 0.66422665D-02 0.12311726D+00 0.19646798D+05 0.19646798D+05 0.19646798D+05 0.12346789D+01  1  2  4  2  5  2        1 -.302914344395D+00 0.100000000000D+01
-.885963234692D-03 0.000000000000D+00 -.326329118445D-03 0.131722497379D-02 0.000000000000D+00  5 -2 1 25 -24 21 2 0.66422665D-02 0.18880309D+00 0.19646798D+05 0.19646798D+05 0.19646798D+05 0.12346789D+01  1  2  5  2  5  2        1 -.165054944929D+00 0.100000000000D+01
0.963760161413D-03 0.000000000000D+00 0.298615242615D-03 0.131722497379D-02 0.000000000000D+00  5 -2 1 25 -24 21 2 0.66422665D-02 0.12311726D+00 0.19646798D+05 0.19646798D+05 0.19646798D+05 0.12346789D+01  1  2  6  2  5  2        1 0.369957807795D+00 0.100000000000D+01
0.219817420611D-04 0.000000000000D+00 0.000000000000D+00 0.131722497379D-02 0.000000000000D+00  5 -2 21 25 -24 -1 2 0.66422665D-02 0.18290244D+00 0.32918484D+05 0.32918484D+05 0.32918484D+05 0.12106895D+01  1  2 12  4  5  2        1 0.555608578608D-02 0.100000000000D+01
-.321343914233D-04 0.000000000000D+00 -.163180860427D-04 0.131722497379D-02 0.000000000000D+00  5 -2 21 25 -24 -1 2 0.66422665D-02 0.18880309D+00 0.19646798D+05 0.19646798D+05 0.19646798D+05 0.12346789D+01  1  2  5  4  5  2        1 -.789658831807D-02 0.100000000000D+01
  </mgrwgt>
  </event>
  <event>
  4     66 0.46019439E-03 0.12321939E+03 0.75467711E-02 0.11683411E+00
       -2 -1    0    0    0  501 0.00000000E+00 0.00000000E+00 0.29293487E+02 0.29295235E+02 0.32000000E+00 0.0000E+00 0.9000E+01
        1 -1    0    0  501    0 0.00000000E+00 0.00000000E+00 -.52065630E+03 0.52065639E+03 0.32000000E+00 0.0000E+00 0.9000E+01
       25  1    1    2    0    0 -.57049297E+02 -.35035892E+02 -.26423162E+03 0.29987578E+03 0.12500000E+03 0.0000E+00 0.9000E+01
      -24  1    1    2    0    0 0.57049297E+02 0.35035892E+02 -.22713119E+03 0.25007585E+03 0.80419002E+02 0.0000E+00 0.9000E+01
#aMCatNLO 1  0  0  2  1 0.94874057D+02 0.00000000D+00  -5  5  0 0.00000000D+00 0.00000000D+00 0.00000000D+00 0.00000000D+00 0.00000000D+00
  <mgrwgt>
 0.2579180408D+00    6    2    0
 0.123500388650492D+03 0.000000000000000D+00 0.000000000000000D+00 0.123500388650492D+03
 0.123500388650492D+03 0.000000000000000D+00 0.000000000000000D+00 -.123500388650492D+03
 0.142038354695979D+03 -.570492965415266D+02 -.350358915942837D+02 0.823154111035307D+01
 0.104962422605004D+03 0.570492965415266D+02 0.350358915942837D+02 -.823154111035307D+01
 0.000000000000000D+00 0.000000000000000D+00 0.000000000000000D+00 -.000000000000000D+00
 0.170114424250273D+03 0.000000000000000D+00 0.000000000000000D+00 0.170114424250273D+03
 0.191801748485970D+03 0.000000000000000D+00 0.000000000000000D+00 -.191801748485970D+03
 0.176894897333644D+03 -.970877556025990D+02 -.785685315229904D+02 0.823154111035307D+01
 0.877000205928521D+02 0.328627079826546D+02 0.873852462441332D+01 -.823154111035307D+01
 0.973212548097470D+02 0.642250476199443D+02 0.698300068985771D+02 -.216873242356975D+02
0.184738054737D-03 0.000000000000D+00 0.000000000000D+00 0.270988899684D-02 0.000000000000D+00  5 -2 1 25 -24 21 0 0.45068323D-02 0.80101111D-01 0.15183019D+05 0.15183019D+05 0.15183019D+05 0.12472226D+01  1  2  2  2  5  2        1 0.151175727489D+00 0.100000000000D+01
-.102631605161D-04 0.000000000000D+00 -.709442772838D-06 0.270988899684D-02 0.000000000000D+00  5 -2 1 25 -24 21 2 0.45068323D-02 0.80101111D-01 0.15183019D+05 0.15183019D+05 0.15183019D+05 0.12472226D+01  1  2  3  2  5  2        1 -.130645583475D-01 0.100000000000D+01
0.127637944100D-04 0.000000000000D+00 0.000000000000D+00 0.270988899684D-02 0.000000000000D+00  5 -2 1 25 -24 21 2 0.45068323D-02 0.80101111D-01 0.15183019D+05 0.15183019D+05 0.15183019D+05 0.12472226D+01  1  2 15  2  5  2        1 0.162477568721D-01 0.100000000000D+01
-.731760334889D-04 0.000000000000D+00 -.708362021570D-04 0.270988899684D-02 0.000000000000D+00  5 -2 1 25 -24 21 2 0.45068323D-02 0.15839147D+00 0.15183019D+05 0.15183019D+05 0.15183019D+05 0.12472226D+01  1  2  5  2  5  2        1 -.342412186453D-01 0.100000000000D+01
0.108937990262D-03 0.000000000000D+00 0.570544150184D-04 0.270988899684D-02 0.000000000000D+00  5 -2 1 25 -24 21 2 0.45068323D-02 0.80101111D-01 0.15183019D+05 0.15183019D+05 0.15183019D+05 0.12472226D+01  1  2  6  2  5  2        1 0.138673338277D+00 0.100000000000D+01
-.119134860830D-05 0.000000000000D+00 -.522861973793D-05 0.270988899684D-02 0.000000000000D+00  5 -2 21 25 -24 -1 2 0.45068323D-02 0.15839147D+00 0.15183019D+05 0.15183019D+05 0.15183019D+05 0.12472226D+01  1  2  5  4  5  2        1 -.873004830959D-03 0.100000000000D+01
  </mgrwgt>
  </event>
  <event>
  4     66 0.46019439E-03 0.74382433E+02 0.75467711E-02 0.12347870E+00
       -2 -1    0    0    0  501 0.00000000E+00 0.00000000E+00 0.23374057E+03 0.23374079E+03 0.32000000E+00 0.0000E+00 0.9000E+01
        1 -1    0    0  501    0 0.00000000E+00 0.00000000E+00 -.59083842E+02 0.59084708E+02 0.32000000E+00 0.0000E+00 0.9000E+01
       25  1    1    2    0    0 -.47691585E+02 0.28293713E+02 0.91467082E+02 0.16451823E+03 0.12500000E+03 0.0000E+00 0.9000E+01
      -24  1    1    2    0    0 0.47691585E+02 -.28293713E+02 0.83189651E+02 0.12830727E+03 0.80419002E+02 0.0000E+00 0.9000E+01
#aMCatNLO 1  0  0  2  1 0.15423280D+02 0.00000000D+00  -5  5  0 0.00000000D+00 0.00000000D+00 0.00000000D+00 0.00000000D+00 0.00000000D+00
  <mgrwgt>
 0.1938255570D+00    9    2    0
 0.117517870962369D+03 0.000000000000000D+00 0.000000000000000D+00 0.117517870962369D+03
 0.117517870962369D+03 0.000000000000000D+00 0.000000000000000D+00 -.117517870962369D+03
 0.136999554834437D+03 -.476915853887566D+02 0.282937127818006D+02 -.829798318639905D+01
 0.980361870903004D+02 0.476915853887566D+02 -.282937127818006D+02 0.829798318639905D+01
 0.000000000000000D+00 0.000000000000000D+00 0.000000000000000D+00 -.000000000000000D+00
 0.119119179320695D+03 0.000000000000000D+00 0.000000000000000D+00 0.119119179320695D+03
 0.161869148784114D+03 0.000000000000000D+00 0.000000000000000D+00 -.161869148784114D+03
 0.137843198822696D+03 -.534039686038474D+02 0.213285506790961D+02 -.829798318639905D+01
 0.976980450377086D+02 0.436234084863320D+02 -.332540788008397D+02 0.829798318639905D+01
 0.454470842444047D+02 0.978056011751544D+01 0.119255281217436D+02 -.427499694634182D+02
0.341375461728D-03 0.000000000000D+00 0.000000000000D+00 0.282041662168D-02 0.000000000000D+00  5 -2 1 25 -24 21 0 0.35960172D-01 0.90899053D-02 0.13739637D+05 0.13739637D+05 0.13739637D+05 0.12521914D+01  1  2  2  2  5  2        1 0.150354034331D+00 0.100000000000D+01
-.189651510877D-04 0.000000000000D+00 -.131097165926D-05 0.282041662168D-02 0.000000000000D+00  5 -2 1 25 -24 21 2 0.35960172D-01 0.90899053D-02 0.13739637D+05 0.13739637D+05 0.13739637D+05 0.12521914D+01  1  2  3  2  5  2        1 -.130972612653D-01 0.100000000000D+01
0.235764443050D-04 0.000000000000D+00 0.000000000000D+00 0.282041662168D-02 0.000000000000D+00  5 -2 1 25 -24 21 2 0.35960172D-01 0.90899053D-02 0.13739637D+05 0.13739637D+05 0.13739637D+05 0.12521914D+01  1  2 15  2  5  2        1 0.162818028362D-01 0.100000000000D+01
0.266352830366D-02 0.000000000000D+00 0.000000000000D+00 0.282041662168D-02 0.000000000000D+00  5 -2 1 25 -24 21 2 0.35960172D-01 0.12564997D-01 0.15670220D+05 0.15670220D+05 0.15670220D+05 0.12456641D+01  1  2 12  2  5  2        1 0.119398993841D+01 0.100000000000D+01
-.257914755053D-02 0.000000000000D+00 0.000000000000D+00 0.282041662168D-02 0.000000000000D+00  5 -2 1 25 -24 21 2 0.35960172D-01 0.90899053D-02 0.13739637D+05 0.13739637D+05 0.13739637D+05 0.12521914D+01  1  2  4  2  5  2        1 -.178114949651D+01 0.100000000000D+01
-.294054220014D-02 0.000000000000D+00 -.210273766653D-03 0.282041662168D-02 0.000000000000D+00  5 -2 1 25 -24 21 2 0.35960172D-01 0.12654935D-01 0.13739637D+05 0.13739637D+05 0.13739637D+05 0.12521914D+01  1  2  5  2  5  2        1 -.131435095934D+01 0.100000000000D+01
0.286296737414D-02 0.000000000000D+00 0.199265735489D-03 0.282041662168D-02 0.000000000000D+00  5 -2 1 25 -24 21 2 0.35960172D-01 0.90899053D-02 0.13739637D+05 0.13739637D+05 0.13739637D+05 0.12521914D+01  1  2  6  2  5  2        1 0.197715438805D+01 0.100000000000D+01
0.108775107505D-03 0.000000000000D+00 0.000000000000D+00 0.282041662168D-02 0.000000000000D+00  5 -2 21 25 -24 -1 2 0.35960172D-01 0.12564997D-01 0.15670220D+05 0.15670220D+05 0.15670220D+05 0.12456641D+01  1  2 12  4  5  2        1 0.531058387192D+00 0.100000000000D+01
-.116514212239D-03 0.000000000000D+00 -.872316195286D-05 0.282041662168D-02 0.000000000000D+00  5 -2 21 25 -24 -1 2 0.35960172D-01 0.12654935D-01 0.13739637D+05 0.13739637D+05 0.13739637D+05 0.12521914D+01  1  2  5  4  5  2        1 -.566415276742D+00 0.100000000000D+01
  </mgrwgt>
  </event>
  <event>
  4     66 0.46019439E-03 0.10594591E+03 0.75467711E-02 0.12134301E+00
       -4 -1    0    0    0  501 0.00000000E+00 0.00000000E+00 0.43877402E+02 0.43904771E+02 0.15500000E+01 0.0000E+00 0.9000E+01
        3 -1    0    0  501    0 0.00000000E+00 0.00000000E+00 -.25642661E+03 0.25642710E+03 0.50000000E+00 0.0000E+00 0.9000E+01
       25  1    1    2    0    0 0.15150576E+02 0.20392708E+02 -.13560462E+03 0.18616932E+03 0.12500000E+03 0.0000E+00 0.9000E+01
      -24  1    1    2    0    0 -.15150576E+02 -.20392708E+02 -.76944594E+02 0.11416256E+03 0.80419002E+02 0.0000E+00 0.9000E+01
#aMCatNLO 1  0  0  1  1 0.59710770D+02 0.00000000D+00  -5  5  0 0.00000000D+00 0.00000000D+00 0.00000000D+00 0.00000000D+00 0.00000000D+00
  <mgrwgt>
 0.1666402803D-01    4    2    0
 0.106092019549646D+03 0.000000000000000D+00 0.000000000000000D+00 0.106092019549646D+03
 0.106092019549646D+03 0.000000000000000D+00 0.000000000000000D+00 -.106092019549646D+03
 0.127671833197515D+03 0.151505760085514D+02 0.203927081769624D+02 -.544926525619475D+01
 0.845122059017782D+02 -.151505760085514D+02 -.203927081769624D+02 0.544926525619475D+01
 0.000000000000000D+00 0.000000000000000D+00 -.000000000000000D+00 -.000000000000000D+00
 0.136708545594352D+03 0.000000000000000D+00 0.000000000000000D+00 0.136708545594352D+03
 0.143853816697269D+03 0.000000000000000D+00 0.000000000000000D+00 -.143853816697269D+03
 0.137096004887943D+03 0.585324363621396D+01 0.557347252916678D+02 -.544926525619475D+01
 0.833295890401714D+02 -.210443468110359D+02 0.201132560710569D+01 0.544926525619475D+01
 0.601367683635063D+02 0.151911031748219D+02 -.577460508987735D+02 -.714527110291772D+01
0.147461523721D-03 0.000000000000D+00 0.000000000000D+00 0.312043376369D-02 0.000000000000D+00  5 -4 3 25 -24 21 0 0.67525124D-02 0.39452391D-01 0.11224537D+05 0.11224537D+05 0.11224537D+05 0.12624387D+01  1  2  2  1  5  1       -4 0.254750750694D-01 0.100000000000D+01
-.819228795646D-05 0.000000000000D+00 -.566291078599D-06 0.312043376369D-02 0.000000000000D+00  5 -4 3 25 -24 21 2 0.67525124D-02 0.39452391D-01 0.11224537D+05 0.11224537D+05 0.11224537D+05 0.12624387D+01  1  2  3  1  5  1       -4 -.225560232807D-02 0.100000000000D+01
0.102078278683D-04 0.000000000000D+00 0.000000000000D+00 0.312043376369D-02 0.000000000000D+00  5 -4 3 25 -24 21 2 0.67525124D-02 0.39452391D-01 0.11224537D+05 0.11224537D+05 0.11224537D+05 0.12624387D+01  1  2 15  1  5  1       -4 0.281054577508D-02 0.100000000000D+01
-.340170295400D-04 0.000000000000D+00 0.000000000000D+00 0.312043376369D-02 0.000000000000D+00  5 -4 3 25 -24 21 2 0.67525124D-02 0.39452391D-01 0.11224537D+05 0.11224537D+05 0.11224537D+05 0.12624387D+01  1  2  4  1  5  1       -4 -.936599048181D-02 0.100000000000D+01
  </mgrwgt>
  </event>
  <event>
  4     66 0.46019439E-03 0.60711040E+02 0.75467711E-02 0.12587915E+00
       -2 -1    0    0    0  501 0.00000000E+00 0.00000000E+00 0.10614242E+03 0.10614291E+03 0.32000000E+00 0.0000E+00 0.9000E+01
        1 -1    0    0  501    0 0.00000000E+00 0.00000000E+00 -.10592021E+03 0.10592069E+03 0.32000000E+00 0.0000E+00 0.9000E+01
       25  1    1    2    0    0 -.14203775E+02 -.19723966E+02 -.83549555E+01 0.12761500E+03 0.12500000E+03 0.0000E+00 0.9000E+01
      -24  1    1    2    0    0 0.14203775E+02 0.19723966E+02 0.85771743E+01 0.84448599E+02 0.80419002E+02 0.0000E+00 0.9000E+01
#aMCatNLO 1  0  0  1  2 0.10328895D+02 0.00000000D+00  -5  5  0 0.00000000D+00 0.00000000D+00 0.00000000D+00 0.00000000D+00 0.00000000D+00
  <mgrwgt>
 0.1297036663D+00    9    2    0
 0.106031739798275D+03 0.000000000000000D+00 0.000000000000000D+00 0.106031739798275D+03
 0.106031739798275D+03 0.000000000000000D+00 0.000000000000000D+00 -.106031739798275D+03
 0.127623821714152D+03 -.142037754894464D+02 -.197239660078305D+02 -.848868633494525D+01
 0.844396578823971D+02 0.142037754894464D+02 0.197239660078305D+02 0.848868633494525D+01
 0.000000000000000D+00 0.000000000000000D+00 0.000000000000000D+00 0.000000000000000D+00
 0.111885499026308D+03 0.000000000000000D+00 0.000000000000000D+00 0.111885499026308D+03
 0.110813726847066D+03 0.000000000000000D+00 0.000000000000000D+00 -.110813726847066D+03
 0.128583922630046D+03 -.203885566965073D+02 -.205200906204119D+02 -.848868633494525D+01
 0.837309507529470D+02 0.101441853996536D+02 0.192014027223604D+02 0.848868633494525D+01
 0.103843524903801D+02 0.102443712968536D+02 0.131868789805147D+01 0.107177217924198D+01
0.118783690047D-03 0.000000000000D+00 0.000000000000D+00 0.311260491802D-02 0.000000000000D+00  5 -2 1 25 -24 21 0 0.16329678D-01 0.16295491D-01 0.11167533D+05 0.11167533D+05 0.11167533D+05 0.12627001D+01  1  2  2  1  5  1       -2 0.954173833221D-01 0.100000000000D+01
-.659900355210D-05 0.000000000000D+00 -.456160646246D-06 0.311260491802D-02 0.000000000000D+00  5 -2 1 25 -24 21 2 0.16329678D-01 0.16295491D-01 0.11167533D+05 0.11167533D+05 0.11167533D+05 0.12627001D+01  1  2  3  1  5  1       -2 -.845180490270D-02 0.100000000000D+01
0.820950340741D-05 0.000000000000D+00 0.000000000000D+00 0.311260491802D-02 0.000000000000D+00  5 -2 1 25 -24 21 2 0.16329678D-01 0.16295491D-01 0.11167533D+05 0.11167533D+05 0.11167533D+05 0.12627001D+01  1  2 15  1  5  1       -2 0.105144845884D-01 0.100000000000D+01
0.201565019603D-03 0.000000000000D+00 0.000000000000D+00 0.311260491802D-02 0.000000000000D+00  5 -2 1 25 -24 21 2 0.17581174D-01 0.16295491D-01 0.12313438D+05 0.12313438D+05 0.12313438D+05 0.12577138D+01  1  2 12  1  5  1       -2 0.227728863346D+00 0.100000000000D+01
-.167202423116D-03 0.000000000000D+00 0.000000000000D+00 0.311260491802D-02 0.000000000000D+00  5 -2 1 25 -24 21 2 0.16329678D-01 0.16295491D-01 0.11167533D+05 0.11167533D+05 0.11167533D+05 0.12627001D+01  1  2  4  1  5  1       -2 -.214147825240D+00 0.100000000000D+01
-.741552310408D-03 0.000000000000D+00 -.145788343516D-03 0.311260491802D-02 0.000000000000D+00  5 -2 1 25 -24 21 2 0.17978731D-01 0.16295491D-01 0.11167533D+05 0.11167533D+05 0.11167533D+05 0.12627001D+01  1  2  5  1  5  1       -2 -.810429864755D+00 0.100000000000D+01
0.752763722178D-03 0.000000000000D+00 0.145116266783D-03 0.311260491802D-02 0.000000000000D+00  5 -2 1 25 -24 21 2 0.16329678D-01 0.16295491D-01 0.11167533D+05 0.11167533D+05 0.11167533D+05 0.12627001D+01  1  2  6  1  5  1       -2 0.964117092443D+00 0.100000000000D+01
0.251989882656D-05 0.000000000000D+00 0.000000000000D+00 0.311260491802D-02 0.000000000000D+00  5 21 1 25 -24 2 2 0.17581174D-01 0.16295491D-01 0.12313438D+05 0.12313438D+05 0.12313438D+05 0.12577138D+01  1  2 12  3  5  1       -2 0.410253051914D-01 0.100000000000D+01
-.112003497575D-04 0.000000000000D+00 -.228990840562D-05 0.311260491802D-02 0.000000000000D+00  5 21 1 25 -24 2 2 0.17978731D-01 0.16295491D-01 0.11167533D+05 0.11167533D+05 0.11167533D+05 0.12627001D+01  1  2  5  3  5  1       -2 -.176069967694D+00 0.100000000000D+01
  </mgrwgt>
  </event>
  <event>
  4     66 0.46019439E-03 0.31373469E+03 0.75467711E-02 0.99787153E-01
       -2 -1    0    0    0  501 0.00000000E+00 0.00000000E+00 0.15268231E+03 0.15268265E+03 0.32000000E+00 0.0000E+00 0.9000E+01
        1 -1    0    0  501    0 0.00000000E+00 0.00000000E+00 -.64478387E+03 0.64478395E+03 0.32000000E+00 0.0000E+00 0.9000E+01
       25  1    1    2    0    0 -.29568947E+03 -.20819519E+01 -.25713354E+03 0.41131406E+03 0.12500000E+03 0.0000E+00 0.9000E+01
      -24  1    1    2    0    0 0.29568947E+03 0.20819519E+01 -.23496801E+03 0.38615254E+03 0.80419002E+02 0.0000E+00 0.9000E+01
#aMCatNLO 1  0  0  1  2 0.39201374D+03 0.00000000D+00  -5  5  0 0.00000000D+00 0.00000000D+00 0.00000000D+00 0.00000000D+00 0.00000000D+00
  <mgrwgt>
 0.4299353895D+00    3    2    0
 0.313763062746401D+03 0.000000000000000D+00 0.000000000000000D+00 0.313763062746401D+03
 0.313763062746401D+03 0.000000000000000D+00 0.000000000000000D+00 -.313763062746401D+03
 0.321059798032472D+03 -.295689473866616D+03 -.208195193661286D+01 -.421834484954586D+01
 0.306466327460331D+03 0.295689473866616D+03 0.208195193661286D+01 0.421834484954586D+01
 0.000000000000000D+00 -.000000000000000D+00 0.000000000000000D+00 -.000000000000000D+00
 0.484066763445469D+03 0.000000000000000D+00 0.000000000000000D+00 0.484066763445469D+03
 0.706627008703517D+03 0.000000000000000D+00 0.000000000000000D+00 -.706627008703517D+03
 0.261413683179247D+03 -.188888358505380D+03 -.130443502487527D+03 -.421834484954586D+01
 0.478494291337561D+03 0.439618205914398D+03 -.170902339023198D+03 0.421834484954586D+01
 0.450785797632178D+03 -.250729847409019D+03 0.301345841510724D+03 -.222560245258048D+03
0.950902326097D-02 0.000000000000D+00 0.000000000000D+00 0.199889064941D-02 0.000000000000D+00  5 -2 1 25 -24 21 0 0.23489619D-01 0.99197551D-01 0.98429455D+05 0.98429455D+05 0.98429455D+05 0.11642037D+01  1  2  2  1  5  1       -2 0.422545033102D+00 0.100000000000D+01
-.528279064801D-03 0.000000000000D+00 -.365171531055D-04 0.199889064941D-02 0.000000000000D+00  5 -2 1 25 -24 21 2 0.23489619D-01 0.99197551D-01 0.98429455D+05 0.98429455D+05 0.98429455D+05 0.11642037D+01  1  2  3  1  5  1       -2 -.318169439704D-01 0.100000000000D+01
0.650986341544D-03 0.000000000000D+00 0.000000000000D+00 0.199889064941D-02 0.000000000000D+00  5 -2 1 25 -24 21 2 0.23489619D-01 0.99197551D-01 0.98429455D+05 0.98429455D+05 0.98429455D+05 0.11642037D+01  1  2 15  1  5  1       -2 0.392073003351D-01 0.100000000000D+01
  </mgrwgt>
  </event>
  <event>
  4     66 0.46019439E-03 0.11394579E+03 0.75467711E-02 0.12172144E+00
       -2 -1    0    0    0  501 0.00000000E+00 0.00000000E+00 0.10210046E+03 0.10210096E+03 0.32000000E+00 0.0000E+00 0.9000E+01
        1 -1    0    0  501    0 0.00000000E+00 0.00000000E+00 -.12750073E+03 0.12750114E+03 0.32000000E+00 0.0000E+00 0.9000E+01
       25  1    1    2    0    0 0.22337626E+02 -.42921685E+02 -.91292428E+01 0.13434874E+03 0.12500000E+03 0.0000E+00 0.9000E+01
      -24  1    1    2    0    0 -.22337626E+02 0.42921685E+02 -.16271029E+02 0.95253362E+02 0.80419002E+02 0.0000E+00 0.9000E+01
#aMCatNLO 1  0  0  2  2 0.42479503D+02 0.00000000D+00  -5  5  0 0.00000000D+00 0.00000000D+00 0.00000000D+00 0.00000000D+00 0.00000000D+00
  <mgrwgt>
 0.2328525077D+00    3    2    0
 0.114096396620533D+03 0.000000000000000D+00 0.000000000000000D+00 0.114096396620533D+03
 0.114096396620533D+03 0.000000000000000D+00 0.000000000000000D+00 -.114096396620533D+03
 0.134162288964370D+03 0.223376264971993D+02 -.429216849601636D+02 0.576881121300425D+01
 0.940305042766959D+02 -.223376264971993D+02 0.429216849601636D+02 -.576881121300425D+01
 0.000000000000000D+00 0.000000000000000D+00 -.000000000000000D+00 0.000000000000000D+00
 0.219215722030289D+03 0.000000000000000D+00 0.000000000000000D+00 0.219215722030289D+03
 0.120429630224375D+03 0.000000000000000D+00 0.000000000000000D+00 -.120429630224375D+03
 0.128204074603514D+03 0.353409241704846D+01 -.276679553440430D+02 0.576881121300425D+01
 0.103908956259995D+03 -.365237490679202D+02 0.544296960113067D+02 -.576881121300425D+01
 0.107532321391155D+03 0.329896566508717D+02 -.267617406672637D+02 0.987860918059140D+02
0.335052103470D-03 0.000000000000D+00 0.000000000000D+00 0.290161436398D-02 0.000000000000D+00  5 -2 1 25 -24 21 0 0.15707833D-01 0.19615567D-01 0.12983643D+05 0.12983643D+05 0.12983643D+05 0.12550338D+01  1  2  2  2  5  2        1 0.227959568726D+00 0.100000000000D+01
-.186139662636D-04 0.000000000000D+00 -.128668829857D-05 0.290161436398D-02 0.000000000000D+00  5 -2 1 25 -24 21 2 0.15707833D-01 0.19615567D-01 0.12983643D+05 0.12983643D+05 0.12983643D+05 0.12550338D+01  1  2  3  2  5  2        1 -.199478101942D-01 0.100000000000D+01
0.231797306110D-04 0.000000000000D+00 0.000000000000D+00 0.290161436398D-02 0.000000000000D+00  5 -2 1 25 -24 21 2 0.15707833D-01 0.19615567D-01 0.12983643D+05 0.12983643D+05 0.12983643D+05 0.12550338D+01  1  2 15  2  5  2        1 0.248407491467D-01 0.100000000000D+01
  </mgrwgt>
  </event>
  <event>
  5     66 0.46019439E-03 0.18206365E+03 0.75467711E-02 0.10928078E+00
       -2 -1    0    0    0  501 0.00000000E+00 0.00000000E+00 0.71373944E+02 0.71374661E+02 0.32000000E+00 0.0000E+00 0.9000E+01
        1 -1    0    0  502    0 0.00000000E+00 0.00000000E+00 -.13069046E+04 0.13069046E+04 0.32000000E+00 0.0000E+00 0.9000E+01
       25  1    1    2    0    0 -.11069302E+03 -.25534935E+02 -.44189133E+03 0.47307285E+03 0.12500000E+03 0.0000E+00 0.9000E+01
      -24  1    1    2    0    0 0.17351709E+03 -.13186196E+03 -.27717670E+03 0.36164886E+03 0.80419002E+02 0.0000E+00 0.9000E+01
       21  1    1    2  502  501 -.62824069E+02 0.15739690E+03 -.51646259E+03 0.54355755E+03 0.75000000E+00 0.0000E+00 0.9000E+01
#aMCatNLO 2  0  0  2  1 0.16947167D+03 0.00000000D+00  -5  5  0 0.00000000D+00 0.00000000D+00 0.00000000D+00 0.00000000D+00 0.00000000D+00
  <mgrwgt>
 0.3311794858D-01    2    2    0
 0.194281273713227D+03 0.000000000000000D+00 0.000000000000000D+00 0.194281273713227D+03
 0.194281273713227D+03 0.000000000000000D+00 0.000000000000000D+00 -.194281273713227D+03
 0.206065456345192D+03 -.140696683195191D+03 0.496350456172493D+02 -.676666674456327D+02
 0.182497091081263D+03 0.140696683195191D+03 -.496350456172493D+02 0.676666674456327D+02
 0.000000000000000D+00 -.000000000000000D+00 0.000000000000000D+00 -.000000000000000D+00
 0.261611781655647D+03 0.000000000000000D+00 0.000000000000000D+00 0.261611781655647D+03
 0.356554975614600D+03 0.000000000000000D+00 0.000000000000000D+00 -.356554975614600D+03
 0.181958112461840D+03 -.110693016576322D+03 -.255349346721684D+02 -.676666674456327D+02
 0.241954025172164D+03 0.173517085902244D+03 -.131861963277652D+03 0.676666674456327D+02
 0.194254619636244D+03 -.628240693259222D+02 0.157396897949820D+03 -.949431939589534D+02
-.326143201105D-05 0.000000000000D+00 0.000000000000D+00 0.193031730548D-02 0.000000000000D+00  5 -2 1 25 -24 21 2 0.81545723D-02 0.20715450D+00 0.81418681D+05 0.81418681D+05 0.81418681D+05 0.11718629D+01  1  2 13  2  5  2        1 -.327755212958D-03 0.100000000000D+01
0.502109230742D-03 0.000000000000D+00 0.000000000000D+00 0.193031730548D-02 0.574523872988D-06  5 -2 1 25 -24 21 2 0.10980637D-01 0.20106179D+00 0.81418681D+05 0.81418681D+05 0.81418681D+05 0.11718629D+01  1  2  1  2  5  2        1 0.334457037936D-01 0.100000000000D+01
  </mgrwgt>
  </event>
  <event>
  5     66 0.46019439E-03 0.10496369E+03 0.75467711E-02 0.12160014E+00
       -2 -1    0    0    0  502 0.00000000E+00 0.00000000E+00 0.99855600E+03 0.99855605E+03 0.32000000E+00 0.0000E+00 0.9000E+01
        1 -1    0    0  501    0 0.00000000E+00 0.00000000E+00 -.23609337E+02 0.23611505E+02 0.32000000E+00 0.0000E+00 0.9000E+01
       25  1    1    2    0    0 0.42234546E+02 0.25516204E+02 0.32822565E+03 0.35467155E+03 0.12500000E+03 0.0000E+00 0.9000E+01
      -24  1    1    2    0    0 -.73496510E+01 0.21089225E+02 0.19600172E+03 0.21303207E+03 0.80419002E+02 0.0000E+00 0.9000E+01
       21  1    1    2  501  502 -.34884895E+02 -.46605428E+02 0.45071930E+03 0.45446394E+03 0.75000000E+00 0.0000E+00 0.9000E+01
#aMCatNLO 2  0  0  1  2 0.58215306D+02 0.00000000D+00  -5  5  0 0.00000000D+00 0.00000000D+00 0.00000000D+00 0.00000000D+00 0.00000000D+00
  <mgrwgt>
 0.1807834447D-01    2    2    0
 0.104981006772235D+03 0.000000000000000D+00 0.000000000000000D+00 0.104981006772235D+03
 0.104981006772235D+03 0.000000000000000D+00 0.000000000000000D+00 -.104981006772235D+03
 0.126789199337720D+03 0.209381701403116D+02 -.293527143251612D+01 0.186501514546285D+01
 0.831728142067498D+02 -.209381701403116D+02 0.293527143251612D+01 -.186501514546285D+01
 0.000000000000000D+00 -.000000000000000D+00 -.000000000000000D+00 0.000000000000000D+00
 0.199249164084975D+03 0.000000000000000D+00 0.000000000000000D+00 0.199249164084975D+03
 0.118323463066873D+03 0.000000000000000D+00 0.000000000000000D+00 -.118323463066873D+03
 0.134399820805057D+03 0.422345462546688D+02 0.255162037458715D+02 0.186501514546285D+01
 0.834833336777965D+02 -.734965097063478D+01 0.210892246586928D+02 -.186501514546285D+01
 0.996894726689943D+02 -.348848952840340D+02 -.466054284045643D+02 0.809257010181016D+02
-.172451221730D-03 0.000000000000D+00 0.000000000000D+00 0.316280987732D-02 0.000000000000D+00  5 -2 1 25 -24 21 2 0.15461012D+00 0.32227442D-02 0.19052928D+05 0.19052928D+05 0.19052928D+05 0.12361522D+01  1  2 13  1  5  1       -2 -.202866633201D-01 0.100000000000D+01
0.378481372785D-03 0.000000000000D+00 0.000000000000D+00 0.316280987732D-02 0.932628750608D-05  5 -2 1 25 -24 21 2 0.15362245D+00 0.36323357D-02 0.19052928D+05 0.19052928D+05 0.19052928D+05 0.12361522D+01  1  2  1  1  5  1       -2 0.383650077937D-01 0.100000000000D+01
  </mgrwgt>
  </event>
  <event>
  4     66 0.46019439E-03 0.41519303E+02 0.75467711E-02 0.12374073E+00
       -4 -1    0    0    0  501 0.00000000E+00 0.00000000E+00 0.79552674E+02 0.79567773E+02 0.15500000E+01 0.0000E+00 0.9000E+01
        3 -1    0    0  501    0 0.00000000E+00 0.00000000E+00 -.16242099E+03 0.16242176E+03 0.50000000E+00 0.0000E+00 0.9000E+01
       25  1    1    2    0    0 -.26407277E+02 0.37634337E+02 -.34948357E+02 0.13769559E+03 0.12500000E+03 0.0000E+00 0.9000E+01
      -24  1    1    2    0    0 0.26407277E+02 -.37634337E+02 -.47919955E+02 0.10429394E+03 0.80419002E+02 0.0000E+00 0.9000E+01
#aMCatNLO 1  0  0  1  2 0.20297159D+02 0.00000000D+00  -5  5  0 0.00000000D+00 0.00000000D+00 0.00000000D+00 0.00000000D+00 0.00000000D+00
  <mgrwgt>
 0.3682748180D-01    9    2    0
 0.113679125694119D+03 0.000000000000000D+00 0.000000000000000D+00 0.113679125694119D+03
 0.113679125694119D+03 0.000000000000000D+00 0.000000000000000D+00 -.113679125694119D+03
 0.133818671960227D+03 -.264072774388998D+02 0.376343368802990D+02 0.129903560784100D+02
 0.935395794280115D+02 0.264072774388998D+02 -.376343368802990D+02 -.129903560784100D+02
 0.000000000000000D+00 0.000000000000000D+00 0.000000000000000D+00 0.000000000000000D+00
 0.197545232266728D+03 0.000000000000000D+00 0.000000000000000D+00 0.197545232266728D+03
 0.115365957082787D+03 0.000000000000000D+00 0.000000000000000D+00 -.115365957082787D+03
 0.133514363102320D+03 -.345572343270655D+02 0.289505329698523D+02 0.129903560784100D+02
 0.947480936056841D+02 0.206671098706132D+02 -.437505029238872D+02 -.129903560784100D+02
 0.846487326415112D+02 0.138901244564524D+02 0.147999699540349D+02 0.821792751839414D+02
0.184239417612D-03 0.000000000000D+00 0.000000000000D+00 0.288542826393D-02 0.000000000000D+00  5 -4 3 25 -24 21 0 0.12240094D-01 0.24989065D-01 0.12748649D+05 0.12748649D+05 0.12748649D+05 0.12559554D+01  1  2  2  1  5  1       -4 0.279076866364D-01 0.100000000000D+01
-.102349495243D-04 0.000000000000D+00 -.707527874984D-06 0.288542826393D-02 0.000000000000D+00  5 -4 3 25 -24 21 2 0.12240094D-01 0.24989065D-01 0.12748649D+05 0.12748649D+05 0.12748649D+05 0.12559554D+01  1  2  3  1  5  1       -4 -.244554368353D-02 0.100000000000D+01
0.127497327289D-04 0.000000000000D+00 0.000000000000D+00 0.288542826393D-02 0.000000000000D+00  5 -4 3 25 -24 21 2 0.12240094D-01 0.24989065D-01 0.12748649D+05 0.12748649D+05 0.12748649D+05 0.12559554D+01  1  2 15  1  5  1       -4 0.304642717269D-02 0.100000000000D+01
0.112640218585D-02 0.000000000000D+00 0.000000000000D+00 0.288542826393D-02 0.000000000000D+00  5 -4 3 25 -24 21 2 0.21300784D-01 0.24989065D-01 0.15256131D+05 0.15256131D+05 0.15256131D+05 0.12469851D+01  1  2 12  1  5  1       -4 0.102092633007D+00 0.100000000000D+01
-.996350874715D-03 0.000000000000D+00 0.000000000000D+00 0.288542826393D-02 0.000000000000D+00  5 -4 3 25 -24 21 2 0.12240094D-01 0.24989065D-01 0.12748649D+05 0.12748649D+05 0.12748649D+05 0.12559554D+01  1  2  4  1  5  1       -4 -.238068549578D+00 0.100000000000D+01
-.114941890669D-02 0.000000000000D+00 -.560486139292D-04 0.288542826393D-02 0.000000000000D+00  5 -4 3 25 -24 21 2 0.21465632D-01 0.24989065D-01 0.12748649D+05 0.12748649D+05 0.12748649D+05 0.12559554D+01  1  2  5  1  5  1       -4 -.102547233465D+00 0.100000000000D+01
0.102302099699D-02 0.000000000000D+00 0.482360010515D-04 0.288542826393D-02 0.000000000000D+00  5 -4 3 25 -24 21 2 0.12240094D-01 0.24989065D-01 0.12748649D+05 0.12748649D+05 0.12748649D+05 0.12559554D+01  1  2  6  1  5  1       -4 0.244441121217D+00 0.100000000000D+01
0.690419031730D-04 0.000000000000D+00 0.000000000000D+00 0.288542826393D-02 0.000000000000D+00  5 21 3 25 -24 4 2 0.21300784D-01 0.24989065D-01 0.15256131D+05 0.15256131D+05 0.15256131D+05 0.12469851D+01  1  2 12  3  5  1       -4 0.159142050670D+00 0.100000000000D+01
-.684195628957D-04 0.000000000000D+00 -.347561362698D-05 0.288542826393D-02 0.000000000000D+00  5 21 3 25 -24 4 2 0.21465632D-01 0.24989065D-01 0.12748649D+05 0.12748649D+05 0.12748649D+05 0.12559554D+01  1  2  5  3  5  1       -4 -.156741110178D+00 0.100000000000D+01
  </mgrwgt>
  </event>
  <event>
  4     66 0.46019439E-03 0.59083810E+02 0.75467711E-02 0.12180888E+00
       -2 -1    0    0    0  501 0.00000000E+00 0.00000000E+00 0.41533783E+01 0.41656873E+01 0.32000000E+00 0.0000E+00 0.9000E+01
        1 -1    0    0  501    0 0.00000000E+00 0.00000000E+00 -.29579104E+04 0.29579104E+04 0.32000000E+00 0.0000E+00 0.9000E+01
       25  1    1    2    0    0 -.38595325E+02 -.11663719E+02 -.18532479E+04 0.18578962E+04 0.12500000E+03 0.0000E+00 0.9000E+01
      -24  1    1    2    0    0 0.38595325E+02 0.11663719E+02 -.11005091E+04 0.11041799E+04 0.80419002E+02 0.0000E+00 0.9000E+01
#aMCatNLO 1  0  0  1  2 0.46833704D+02 0.00000000D+00  -5  5  0 0.00000000D+00 0.00000000D+00 0.00000000D+00 0.00000000D+00 0.00000000D+00
  <mgrwgt>
 0.2768615583D+00    9    2    0
 0.110921488384467D+03 0.000000000000000D+00 0.000000000000000D+00 0.110921488384467D+03
 0.110921488384467D+03 0.000000000000000D+00 0.000000000000000D+00 -.110921488384467D+03
 0.131561727212419D+03 -.385953247795603D+02 -.116637190017443D+02 -.760569729371711D+01
 0.902812495565141D+02 0.385953247795603D+02 0.116637190017443D+02 0.760569729371711D+01
 0.000000000000000D+00 -.000000000000000D+00 -.000000000000000D+00 0.000000000000000D+00
 0.170241565771789D+03 0.000000000000000D+00 0.000000000000000D+00 0.170241565771789D+03
 0.123007594517089D+03 0.000000000000000D+00 0.000000000000000D+00 -.123007594517089D+03
 0.131929595514427D+03 -.383601575797205D+02 0.158451838656306D+02 -.760569729371711D+01
 0.948030713077860D+02 0.387605133748485D+02 0.309868092357564D+02 0.760569729371711D+01
 0.665164934666653D+02 -.400355795128038D+00 -.468319931013871D+02 0.472339712547004D+02
0.878727322773D-03 0.000000000000D+00 0.000000000000D+00 0.297506463787D-02 0.000000000000D+00  5 -2 1 25 -24 21 0 0.63992945D-03 0.45506409D+00 0.12243645D+05 0.12243645D+05 0.12243645D+05 0.12580023D+01  1  2  2  1  5  1       -2 0.244172308150D+00 0.100000000000D+01
-.488178307826D-04 0.000000000000D+00 -.337454429367D-05 0.297506463787D-02 0.000000000000D+00  5 -2 1 25 -24 21 2 0.63992945D-03 0.45506409D+00 0.12243645D+05 0.12243645D+05 0.12243645D+05 0.12580023D+01  1  2  3  1  5  1       -2 -.214676067959D-01 0.100000000000D+01
0.607694646963D-04 0.000000000000D+00 0.000000000000D+00 0.297506463787D-02 0.000000000000D+00  5 -2 1 25 -24 21 2 0.63992945D-03 0.45506409D+00 0.12243645D+05 0.12243645D+05 0.12243645D+05 0.12580023D+01  1  2 15  1  5  1       -2 0.267233294144D-01 0.100000000000D+01
0.529502221418D-03 0.000000000000D+00 0.000000000000D+00 0.297506463787D-02 0.000000000000D+00  5 -2 1 25 -24 21 2 0.10019187D-02 0.45506409D+00 0.18637898D+05 0.18637898D+05 0.18637898D+05 0.12372128D+01  1  2 12  1  5  1       -2 0.118904850296D+00 0.100000000000D+01
-.665317937082D-03 0.000000000000D+00 0.000000000000D+00 0.297506463787D-02 0.000000000000D+00  5 -2 1 25 -24 21 2 0.63992945D-03 0.45506409D+00 0.12243645D+05 0.12243645D+05 0.12243645D+05 0.12580023D+01  1  2  4  1  5  1       -2 -.292573095497D+00 0.100000000000D+01
-.763509501453D-03 0.000000000000D+00 -.267158835993D-03 0.297506463787D-02 0.000000000000D+00  5 -2 1 25 -24 21 2 0.11398912D-02 0.45506409D+00 0.12243645D+05 0.12243645D+05 0.12243645D+05 0.12580023D+01  1  2  5  1  5  1       -2 -.147946916892D+00 0.100000000000D+01
0.816867990948D-03 0.000000000000D+00 0.228080489146D-03 0.297506463787D-02 0.000000000000D+00  5 -2 1 25 -24 21 2 0.63992945D-03 0.45506409D+00 0.12243645D+05 0.12243645D+05 0.12243645D+05 0.12580023D+01  1  2  6  1  5  1       -2 0.359217125233D+00 0.100000000000D+01
0.274375199683D-04 0.000000000000D+00 0.000000000000D+00 0.297506463787D-02 0.000000000000D+00  5 21 1 25 -24 2 2 0.10019187D-02 0.45506409D+00 0.18637898D+05 0.18637898D+05 0.18637898D+05 0.12372128D+01  1  2 12  3  5  1       -2 0.143799763495D+00 0.100000000000D+01
-.344894135614D-04 0.000000000000D+00 -.169575567285D-04 0.297506463787D-02 0.000000000000D+00  5 21 1 25 -24 2 2 0.11398912D-02 0.45506409D+00 0.12243645D+05 0.12243645D+05 0.12243645D+05 0.12580023D+01  1  2  5  3  5  1       -2 -.153968199061D+00 0.100000000000D+01
  </mgrwgt>
  </event>
  <event>
  4     66 0.46019439E-03 0.15468641E+03 0.75467711E-02 0.11056648E+00
       -4 -1    0    0    0  501 0.00000000E+00 0.00000000E+00 0.69111039E+02 0.69128418E+02 0.15500000E+01 0.0000E+00 0.9000E+01
        3 -1    0    0  501    0 0.00000000E+00 0.00000000E+00 -.65580053E+03 0.65580072E+03 0.50000000E+00 0.0000E+00 0.9000E+01
       25  1    1    2    0    0 0.11418759E+03 -.78757712E+01 -.55661470E+03 0.58184685E+03 0.12500000E+03 0.0000E+00 0.9000E+01
      -24  1    1    2    0    0 -.11418759E+03 0.78757712E+01 -.30074795E+02 0.14308229E+03 0.80419002E+02 0.0000E+00 0.9000E+01
#aMCatNLO 1  0  0  2  2 0.17960994D+03 0.00000000D+00  -5  5  0 0.00000000D+00 0.00000000D+00 0.00000000D+00 0.00000000D+00 0.00000000D+00
  <mgrwgt>
 0.1664656573D-01    3    2    0
 0.212907079464065D+03 0.000000000000000D+00 0.000000000000000D+00 0.212907079464065D+03
 0.212907079464065D+03 0.000000000000000D+00 0.000000000000000D+00 -.212907079464065D+03
 0.223660343362901D+03 0.114187588269706D+03 -.787577124605664D+01 -.145938740934813D+03
 0.202153815565230D+03 -.114187588269706D+03 0.787577124605664D+01 0.145938740934813D+03
 0.000000000000000D+00 -.000000000000000D+00 0.000000000000000D+00 0.000000000000000D+00
 0.104431271579320D+04 0.000000000000000D+00 0.000000000000000D+00 0.104431271579320D+04
 0.240989222753898D+03 0.000000000000000D+00 0.000000000000000D+00 -.240989222753898D+03
 0.284778132661806D+03 0.200037237846552D+03 -.645024977146549D+02 -.145938740934813D+03
 0.177366248000466D+03 -.501057651959667D+02 -.343928214004122D+02 0.145938740934813D+03
 0.823157557884824D+03 -.149931472650585D+03 0.988953191150671D+02 0.803323493039300D+03
0.131599274967D-02 0.000000000000D+00 0.000000000000D+00 0.117146464045D-02 0.000000000000D+00  5 -4 3 25 -24 21 0 0.10633819D-01 0.10089374D+00 0.23927884D+05 0.23927884D+05 0.23927884D+05 0.12253438D+01  1  2  2  2  5  2        3 0.161761833021D-01 0.100000000000D+01
-.640390971436D-04 0.000000000000D+00 -.505375866758D-05 0.117146464045D-02 0.000000000000D+00  5 -4 3 25 -24 21 2 0.10633819D-01 0.10089374D+00 0.23927884D+05 0.23927884D+05 0.23927884D+05 0.12253438D+01  1  2  3  2  5  2        3 -.118190798713D-02 0.100000000000D+01
0.895257391284D-04 0.000000000000D+00 0.000000000000D+00 0.117146464045D-02 0.000000000000D+00  5 -4 3 25 -24 21 2 0.10633819D-01 0.10089374D+00 0.23927884D+05 0.23927884D+05 0.23927884D+05 0.12253438D+01  1  2 15  2  5  2        3 0.165229041084D-02 0.100000000000D+01
  </mgrwgt>
  </event>
  <event>
  4     66 0.46019439E-03 0.79914291E+02 0.75467711E-02 0.11951416E+00
       -2 -1    0    0    0  501 0.00000000E+00 0.00000000E+00 0.14251247E+03 0.14251283E+03 0.32000000E+00 0.0000E+00 0.9000E+01
        1 -1    0    0  501    0 0.00000000E+00 0.00000000E+00 -.15810233E+03 0.15810265E+03 0.32000000E+00 0.0000E+00 0.9000E+01
       25  1    1    2    0    0 -.59392306E+02 -.87067196E+02 0.16145239E+02 0.16429793E+03 0.12500000E+03 0.0000E+00 0.9000E+01
      -24  1    1    2    0    0 0.59392306E+02 0.87067196E+02 -.31735097E+02 0.13631755E+03 0.80419002E+02 0.0000E+00 0.9000E+01
#aMCatNLO 1  0  0  2  1 0.12486880D+02 0.00000000D+00  -5  5  0 0.00000000D+00 0.00000000D+00 0.00000000D+00 0.00000000D+00 0.00000000D+00
  <mgrwgt>
 0.2497684159D+00    6    2    0
 0.150105485458453D+03 0.000000000000000D+00 0.000000000000000D+00 0.150105485458453D+03
 0.150105485458453D+03 0.000000000000000D+00 0.000000000000000D+00 -.150105485458453D+03
 0.165357732932387D+03 -.593923057801177D+02 -.870671959276634D+02 0.246989321217234D+02
 0.134853237984518D+03 0.593923057801177D+02 0.870671959276634D+02 -.246989321217234D+02
 0.000000000000000D+00 -.000000000000000D+00 -.000000000000000D+00 0.000000000000000D+00
 0.156796192281998D+03 0.000000000000000D+00 0.000000000000000D+00 0.156796192281998D+03
 0.156176596559135D+03 0.000000000000000D+00 0.000000000000000D+00 -.156176596559135D+03
 0.161554699237121D+03 -.583906310576860D+02 -.803456147050255D+02 0.246989321217234D+02
 0.138915847118392D+03 0.602311468437964D+02 0.926961074057448D+02 -.246989321217234D+02
 0.125022424856197D+02 -.184051578611034D+01 -.123504927007193D+02 0.619595722863478D+00
0.419252454044D-03 0.000000000000D+00 0.000000000000D+00 0.234889626848D-02 0.000000000000D+00  5 -2 1 25 -24 21 0 0.21925048D-01 0.24323488D-01 0.21915074D+05 0.21915074D+05 0.21915074D+05 0.12294778D+01  1  2  2  2  5  2        1 0.126499148185D+00 0.100000000000D+01
-.232863524209D-04 0.000000000000D+00 -.161003981524D-05 0.234889626848D-02 0.000000000000D+00  5 -2 1 25 -24 21 2 0.21925048D-01 0.24323488D-01 0.21915074D+05 0.21915074D+05 0.21915074D+05 0.12294778D+01  1  2  3  2  5  2        1 -.106207415768D-01 0.100000000000D+01
0.289104839580D-04 0.000000000000D+00 0.000000000000D+00 0.234889626848D-02 0.000000000000D+00  5 -2 1 25 -24 21 2 0.21925048D-01 0.24323488D-01 0.21915074D+05 0.21915074D+05 0.21915074D+05 0.12294778D+01  1  2 15  2  5  2        1 0.131858684189D-01 0.100000000000D+01
0.103013475450D-02 0.000000000000D+00 0.000000000000D+00 0.234889626848D-02 0.000000000000D+00  5 -2 1 25 -24 21 2 0.21925048D-01 0.25826883D-01 0.23846293D+05 0.23846293D+05 0.23846293D+05 0.12255037D+01  1  2 12  2  5  2        1 0.433782970637D+00 0.100000000000D+01
-.761907109005D-03 0.000000000000D+00 0.000000000000D+00 0.234889626848D-02 0.000000000000D+00  5 -2 1 25 -24 21 2 0.21925048D-01 0.24323488D-01 0.21915074D+05 0.21915074D+05 0.21915074D+05 0.12294778D+01  1  2  4  2  5  2        1 -.347500474268D+00 0.100000000000D+01
0.112828897677D-04 0.000000000000D+00 0.000000000000D+00 0.234889626848D-02 0.000000000000D+00  5 -2 21 25 -24 -1 2 0.21925048D-01 0.25826883D-01 0.23846293D+05 0.23846293D+05 0.23846293D+05 0.12255037D+01  1  2 12  4  5  2        1 0.344216444873D-01 0.100000000000D+01
  </mgrwgt>
  </event>
  <event>
  4     66 0.46019439E-03 0.12135436E+03 0.75467711E-02 0.11502590E+00
       -4 -1    0    0    0  501 0.00000000E+00 0.00000000E+00 0.97946538E+01 0.99165388E+01 0.15500000E+01 0.0000E+00 0.9000E+01
        3 -1    0    0  501    0 0.00000000E+00 0.00000000E+00 -.15934999E+04 0.15934999E+04 0.50000000E+00 0.0000E+00 0.9000E+01
       25  1    1    2    0    0 -.51859951E+02 0.36704731E+02 -.70943567E+03 0.72316019E+03 0.12500000E+03 0.0000E+00 0.9000E+01
      -24  1    1    2    0    0 0.51859951E+02 -.36704731E+02 -.87426954E+03 0.88025629E+03 0.80419002E+02 0.0000E+00 0.9000E+01
#aMCatNLO 1  0  0  1  2 0.12581061D+03 0.00000000D+00  -5  5  0 0.00000000D+00 0.00000000D+00 0.00000000D+00 0.00000000D+00 0.00000000D+00
  <mgrwgt>
 0.1175731711D-01    3    2    0
 0.125321805424341D+03 0.000000000000000D+00 0.000000000000000D+00 0.125321805424341D+03
 0.125321805424341D+03 0.000000000000000D+00 0.000000000000000D+00 -.125321805424341D+03
 0.143590342201762D+03 -.518599514305388D+02 0.367047313673110D+02 0.309272453751508D+02
 0.107053268646920D+03 0.518599514305388D+02 -.367047313673110D+02 -.309272453751508D+02
 0.000000000000000D+00 -.000000000000000D+00 -.000000000000000D+00 -.000000000000000D+00
 0.172782080408396D+03 0.000000000000000D+00 0.000000000000000D+00 0.172782080408396D+03
 0.261760685884298D+03 0.000000000000000D+00 0.000000000000000D+00 -.261760685884298D+03
 0.178019186809730D+03 -.487752735015867D+02 0.112828671270862D+03 0.309272453751508D+02
 0.102427827926635D+03 0.538691633998460D+02 0.128787696424662D+02 -.309272453751508D+02
 0.154095751556329D+03 -.509388989825930D+01 -.125707440913328D+03 -.889786054759021D+02
0.422024833241D-03 0.000000000000D+00 0.000000000000D+00 0.254692550763D-02 0.000000000000D+00  5 -4 3 25 -24 21 0 0.15162516D-02 0.24516321D+00 0.14726882D+05 0.14726882D+05 0.14726882D+05 0.12487333D+01  1  2  2  1  5  1       -4 0.115133698014D-01 0.100000000000D+01
-.234163222746D-04 0.000000000000D+00 -.162068648134D-05 0.254692550763D-02 0.000000000000D+00  5 -4 3 25 -24 21 2 0.15162516D-02 0.24516321D+00 0.14726882D+05 0.14726882D+05 0.14726882D+05 0.12487333D+01  1  2  3  1  5  1       -4 -.996144975464D-03 0.100000000000D+01
0.291507775970D-04 0.000000000000D+00 0.000000000000D+00 0.254692550763D-02 0.000000000000D+00  5 -4 3 25 -24 21 2 0.15162516D-02 0.24516321D+00 0.14726882D+05 0.14726882D+05 0.14726882D+05 0.12487333D+01  1  2 15  1  5  1       -4 0.124009228664D-02 0.100000000000D+01
  </mgrwgt>
  </event>
  <event>
  4     66 0.46019439E-03 0.10986369E+03 0.75467711E-02 0.12104620E+00
       -2 -1    0    0    0  501 0.00000000E+00 0.00000000E+00 0.71128819E+03 0.71128826E+03 0.32000000E+00 0.0000E+00 0.9000E+01
        1 -1    0    0  501    0 0.00000000E+00 0.00000000E+00 -.31074494E+02 0.31076141E+02 0.32000000E+00 0.0000E+00 0.9000E+01
       25  1    1    2    0    0 -.27382726E+02 0.68551605E+02 0.18445245E+03 0.23472717E+03 0.12500000E+03 0.0000E+00 0.9000E+01
      -24  1    1    2    0    0 0.27382726E+02 -.68551605E+02 0.49576124E+03 0.50763724E+03 0.80419002E+02 0.0000E+00 0.9000E+01
#aMCatNLO 1  0  0  2  1 0.29120418D+02 0.00000000D+00  -5  5  0 0.00000000D+00 0.00000000D+00 0.00000000D+00 0.00000000D+00 0.00000000D+00
  <mgrwgt>
 0.1352670166D+00    9    2    0
 0.148672656322680D+03 0.000000000000000D+00 0.000000000000000D+00 0.148672656322680D+03
 0.148672656322680D+03 0.000000000000000D+00 0.000000000000000D+00 -.148672656322680D+03
 0.164071896963395D+03 -.273827259375822D+02 0.685516045200671D+02 -.764555505579457D+02
 0.133273415681964D+03 0.273827259375822D+02 -.685516045200671D+02 0.764555505579457D+02
 0.000000000000000D+00 0.000000000000000D+00 -.000000000000000D+00 -.000000000000000D+00
 0.158943061884227D+03 0.000000000000000D+00 0.000000000000000D+00 0.158943061884227D+03
 0.171561641939868D+03 0.000000000000000D+00 0.000000000000000D+00 -.171561641939868D+03
 0.172044920903010D+03 -.318113663869772D+02 0.843625542880126D+02 -.764555505579457D+02
 0.126722938304991D+03 0.239570408520489D+02 -.563213646920481D+02 0.764555505579457D+02
 0.317368446160940D+02 0.785432553492828D+01 -.280411895959645D+02 -.126185800556418D+02
0.105055914162D-02 0.000000000000D+00 0.000000000000D+00 0.183630563092D-02 0.000000000000D+00  5 -2 1 25 -24 21 0 0.10942908D+00 0.47808236D-02 0.16171113D+05 0.16171113D+05 0.16171113D+05 0.12441176D+01  1  2  2  2  5  2        1 0.109347379476D+00 0.100000000000D+01
-.566317769880D-04 0.000000000000D+00 -.403442372239D-05 0.183630563092D-02 0.000000000000D+00  5 -2 1 25 -24 21 2 0.10942908D+00 0.47808236D-02 0.16171113D+05 0.16171113D+05 0.16171113D+05 0.12441176D+01  1  2  3  2  5  2        1 -.912369927356D-02 0.100000000000D+01
0.724961175615D-04 0.000000000000D+00 0.000000000000D+00 0.183630563092D-02 0.000000000000D+00  5 -2 1 25 -24 21 2 0.10942908D+00 0.47808236D-02 0.16171113D+05 0.16171113D+05 0.16171113D+05 0.12441176D+01  1  2 15  2  5  2        1 0.116795341822D-01 0.100000000000D+01
0.162790279471D-02 0.000000000000D+00 0.000000000000D+00 0.183630563092D-02 0.000000000000D+00  5 -2 1 25 -24 21 2 0.10942908D+00 0.56625613D-02 0.20207247D+05 0.20207247D+05 0.20207247D+05 0.12333335D+01  1  2 12  2  5  2        1 0.205720631424D+00 0.100000000000D+01
-.160304831580D-02 0.000000000000D+00 0.000000000000D+00 0.183630563092D-02 0.000000000000D+00  5 -2 1 25 -24 21 2 0.10942908D+00 0.47808236D-02 0.16171113D+05 0.16171113D+05 0.16171113D+05 0.12441176D+01  1  2  4  2  5  2        1 -.258260141783D+00 0.100000000000D+01
-.342697567218D-02 0.000000000000D+00 -.935530904146D-03 0.183630563092D-02 0.000000000000D+00  5 -2 1 25 -24 21 2 0.10942908D+00 0.58991349D-02 0.16171113D+05 0.16171113D+05 0.16171113D+05 0.12441176D+01  1  2  5  2  5  2        1 -.414716387676D+00 0.100000000000D+01
0.356487003564D-02 0.000000000000D+00 0.915238265043D-03 0.183630563092D-02 0.000000000000D+00  5 -2 1 25 -24 21 2 0.10942908D+00 0.47808236D-02 0.16171113D+05 0.16171113D+05 0.16171113D+05 0.12441176D+01  1  2  6  2  5  2        1 0.574320706225D+00 0.100000000000D+01
0.409054477617D-04 0.000000000000D+00 0.000000000000D+00 0.183630563092D-02 0.000000000000D+00  5 -2 21 25 -24 -1 2 0.10942908D+00 0.56625613D-02 0.20207247D+05 0.20207247D+05 0.20207247D+05 0.12333335D+01  1  2 12  4  5  2        1 0.769644497057D-01 0.100000000000D+01
-.901310492448D-04 0.000000000000D+00 -.278073778183D-04 0.183630563092D-02 0.000000000000D+00  5 -2 21 25 -24 -1 2 0.10942908D+00 0.58991349D-02 0.16171113D+05 0.16171113D+05 0.16171113D+05 0.12441176D+01  1  2  5  4  5  2        1 -.160665455648D+00 0.100000000000D+01
  </mgrwgt>
  </event>
  <event>
  4     66 0.46019439E-03 0.10968749E+03 0.75467711E-02 0.10360130E+00
       -2 -1    0    0    0  501 0.00000000E+00 0.00000000E+00 0.56878008E+02 0.56878908E+02 0.32000000E+00 0.0000E+00 0.9000E+01
        1 -1    0    0  501    0 0.00000000E+00 0.00000000E+00 -.23313594E+03 0.23313616E+03 0.32000000E+00 0.0000E+00 0.9000E+01
       25  1    1    2    0    0 -.37686599E+02 -.78487472E+00 -.59928061E+02 0.14365677E+03 0.12500000E+03 0.0000E+00 0.9000E+01
      -24  1    1    2    0    0 0.37686599E+02 0.78487472E+00 -.11632987E+03 0.14635829E+03 0.80419002E+02 0.0000E+00 0.9000E+01
#aMCatNLO 1  0  0  1  1 0.39487725D+03 0.00000000D+00  -5  5  0 0.00000000D+00 0.00000000D+00 0.00000000D+00 0.00000000D+00 0.00000000D+00
  <mgrwgt>
 0.2215337654D+00    3    2    0
 0.115154114915800D+03 0.000000000000000D+00 0.000000000000000D+00 0.115154114915800D+03
 0.115154114915800D+03 0.000000000000000D+00 0.000000000000000D+00 -.115154114915800D+03
 0.135035697202993D+03 -.376865986604099D+02 -.784874718416632D+00 0.344781637008701D+02
 0.952725326286068D+02 0.376865986604099D+02 0.784874718416632D+00 -.344781637008701D+02
 0.000000000000000D+00 0.000000000000000D+00 0.000000000000000D+00 -.000000000000000D+00
 0.400579068822055D+03 0.000000000000000D+00 0.000000000000000D+00 0.400579068822055D+03
 0.455188707590410D+03 0.000000000000000D+00 0.000000000000000D+00 -.455188707590410D+03
 0.278845085734861D+03 -.725860935913288D+02 -.235949352793028D+03 0.344781637008701D+02
 0.178287197574313D+03 0.146193367552978D+02 -.154650056854768D+03 -.344781637008701D+02
 0.398635493103291D+03 0.579667568360310D+02 0.390599409647796D+03 -.546096387683545D+02
0.267621320999D-03 0.000000000000D+00 0.000000000000D+00 0.266310419313D-02 0.000000000000D+00  5 -2 1 25 -24 21 0 0.87505489D-02 0.35867154D-01 0.12031345D+05 0.12031345D+05 0.12031345D+05 0.12588914D+01  1  2  2  1  5  1       -2 0.216787589569D+00 0.100000000000D+01
-.148250902898D-04 0.000000000000D+00 -.102773633895D-05 0.266310419313D-02 0.000000000000D+00  5 -2 1 25 -24 21 2 0.87505489D-02 0.35867154D-01 0.12031345D+05 0.12031345D+05 0.12031345D+05 0.12588914D+01  1  2  3  1  5  1       -2 -.190321368928D-01 0.100000000000D+01
0.185221257731D-04 0.000000000000D+00 0.000000000000D+00 0.266310419313D-02 0.000000000000D+00  5 -2 1 25 -24 21 2 0.87505489D-02 0.35867154D-01 0.12031345D+05 0.12031345D+05 0.12031345D+05 0.12588914D+01  1  2 15  1  5  1       -2 0.237783127367D-01 0.100000000000D+01
  </mgrwgt>
  </event>
  <event>
  4     66 0.46019439E-03 0.12079062E+03 0.75467711E-02 0.11518199E+00
       -2 -1    0    0    0  501 0.00000000E+00 0.00000000E+00 0.21597764E+02 0.21600134E+02 0.32000000E+00 0.0000E+00 0.9000E+01
        1 -1    0    0  501    0 0.00000000E+00 0.00000000E+00 -.87556206E+03 0.87556212E+03 0.32000000E+00 0.0000E+00 0.9000E+01
       25  1    1    2    0    0 0.45520415E+02 0.42794933E+02 -.26629892E+03 0.30073847E+03 0.12500000E+03 0.0000E+00 0.9000E+01
      -24  1    1    2    0    0 -.45520415E+02 -.42794933E+02 -.58766538E+03 0.59642378E+03 0.80419002E+02 0.0000E+00 0.9000E+01
#aMCatNLO 1  0  0  1  2 0.12330296D+03 0.00000000D+00  -5  5  0 0.00000000D+00 0.00000000D+00 0.00000000D+00 0.00000000D+00 0.00000000D+00
  <mgrwgt>
 0.2012054334D+00    5    2    0
 0.137518260999186D+03 0.000000000000000D+00 0.000000000000000D+00 0.137518260999186D+03
 0.137518260999186D+03 0.000000000000000D+00 0.000000000000000D+00 -.137518260999186D+03
 0.154166566429844D+03 0.455204150098093D+02 0.427949327110278D+02 0.651061883107957D+02
 0.120869955568528D+03 -.455204150098093D+02 -.427949327110278D+02 -.651061883107957D+02
 0.000000000000000D+00 0.000000000000000D+00 0.000000000000000D+00 0.000000000000000D+00
 0.235210873605815D+03 0.000000000000000D+00 0.000000000000000D+00 0.235210873605815D+03
 0.195683913257210D+03 0.000000000000000D+00 0.000000000000000D+00 -.195683913257210D+03
 0.146494672781928D+03 0.342852360176024D+02 -.205279319060769D+02 0.651061883107957D+02
 0.154916522135666D+03 -.558260681387597D+02 -.100878874081968D+03 -.651061883107957D+02
 0.129483591945431D+03 0.215408321211573D+02 0.121406805988045D+03 0.395269603486043D+02
0.300984395575D-03 0.000000000000D+00 0.000000000000D+00 0.201926831742D-02 0.000000000000D+00  5 -2 1 25 -24 21 0 0.33229197D-02 0.13470204D+00 0.14590374D+05 0.14590374D+05 0.14590374D+05 0.12491957D+01  1  2  2  1  5  1       -2 0.185015926886D+00 0.100000000000D+01
-.163793601481D-04 0.000000000000D+00 -.115585933002D-05 0.201926831742D-02 0.000000000000D+00  5 -2 1 25 -24 21 2 0.33229197D-02 0.13470204D+00 0.14590374D+05 0.14590374D+05 0.14590374D+05 0.12491957D+01  1  2  3  1  5  1       -2 -.157116948439D-01 0.100000000000D+01
0.207436301492D-04 0.000000000000D+00 0.000000000000D+00 0.201926831742D-02 0.000000000000D+00  5 -2 1 25 -24 21 2 0.33229197D-02 0.13470204D+00 0.14590374D+05 0.14590374D+05 0.14590374D+05 0.12491957D+01  1  2 15  1  5  1       -2 0.198980658532D-01 0.100000000000D+01
-.136543316294D-04 0.000000000000D+00 -.825298774464D-04 0.201926831742D-02 0.000000000000D+00  5 -2 1 25 -24 21 2 0.81873531D-02 0.13470204D+00 0.14590374D+05 0.14590374D+05 0.14590374D+05 0.12491957D+01  1  2  5  1  5  1       -2 -.337956617917D-02 0.100000000000D+01
0.378435176416D-05 0.000000000000D+00 -.817349171239D-05 0.201926831742D-02 0.000000000000D+00  5 21 1 25 -24 2 2 0.81873531D-02 0.13470204D+00 0.14590374D+05 0.14590374D+05 0.14590374D+05 0.12491957D+01  1  2  5  3  5  1       -2 0.153827016547D-01 0.100000000000D+01
  </mgrwgt>
  </event>
  <event>
  5     66 -.46019439E-03 0.12685869E+03 0.75467711E-02 0.12280220E+00
       -4 -1    0    0    0  501 0.00000000E+00 0.00000000E+00 0.89740280E+03 0.89740414E+03 0.15500000E+01 0.0000E+00 0.9000E+01
        3 -1    0    0  502    0 0.00000000E+00 0.00000000E+00 -.19326707E+02 0.19333173E+02 0.50000000E+00 0.0000E+00 0.9000E+01
       25  1    1    2    0    0 0.27255191E+02 0.68853906E+02 0.56533305E+03 0.58370383E+03 0.12500000E+03 0.0000E+00 0.9000E+01
      -24  1    1    2    0    0 -.21824320E+02 -.69465220E+02 0.28988968E+03 0.30952376E+03 0.80419002E+02 0.0000E+00 0.9000E+01
       21  1    1    2  502  501 -.54308716E+01 0.61131403E+00 0.22853364E+02 0.23509718E+02 0.75000000E+00 0.0000E+00 0.9000E+01
#aMCatNLO 2  0  0  2  1 0.54651689D+01 0.00000000D+00  -5  5  0 0.00000000D+00 0.00000000D+00 0.00000000D+00 0.00000000D+00 0.00000000D+00
  <mgrwgt>
 -.3477534024D-01    3    2    0
 0.128860148041275D+03 0.000000000000000D+00 0.000000000000000D+00 0.128860148041275D+03
 0.128860148041275D+03 0.000000000000000D+00 0.000000000000000D+00 -.128860148041275D+03
 0.146627053063564D+03 0.241617235371941D+02 0.692021149924619D+02 0.224002474626379D+02
 0.111093243018987D+03 -.241617235371941D+02 -.692021149924619D+02 -.224002474626379D+02
 0.000000000000000D+00 -.000000000000000D+00 0.000000000000000D+00 0.000000000000000D+00
 0.132281662643800D+03 0.000000000000000D+00 0.000000000000000D+00 0.132281662643800D+03
 0.131090126187934D+03 0.000000000000000D+00 0.000000000000000D+00 -.131090126187934D+03
 0.147005023258653D+03 0.272551913336236D+02 0.688539056427243D+02 0.224002474626379D+02
 0.110773212991491D+03 -.218243197175132D+02 -.694652196755185D+02 -.224002474626379D+02
 0.559355258159087D+01 -.543087161611037D+01 0.611314032794188D+00 0.119153645586591D+01
-.107158325931D-02 0.000000000000D+00 0.000000000000D+00 0.256661498221D-02 0.000000000000D+00  5 -4 3 25 -24 21 2 0.13446595D+00 0.30113442D-02 0.16801116D+05 0.16801116D+05 0.16801116D+05 0.12422471D+01  1  2 13  2  5  2        3 -.683362075119D-01 0.100000000000D+01
-.122631787657D-02 0.000000000000D+00 0.000000000000D+00 0.256661498221D-02 0.000000000000D+00  5 -4 3 25 -24 21 2 0.13446595D+00 0.29227941D-02 0.16093128D+05 0.16093128D+05 0.16093128D+05 0.12443549D+01  1  2  8  2  5  2        3 -.818672774393D-01 0.100000000000D+01
0.189374801512D-02 0.000000000000D+00 0.000000000000D+00 0.256661498221D-02 0.707598896276D-03  5 -4 3 25 -24 21 2 0.13803631D+00 0.29733742D-02 0.16801116D+05 0.16801116D+05 0.16801116D+05 0.12422471D+01  1  2  1  2  5  2        3 0.115428144712D+00 0.100000000000D+01
  </mgrwgt>
  </event>
  <event>
  4     66 0.46019439E-03 0.11637178E+03 0.75467711E-02 0.10828249E+00
       -2 -1    0    0    0  501 0.00000000E+00 0.00000000E+00 0.59746627E+02 0.59747484E+02 0.32000000E+00 0.0000E+00 0.9000E+01
        1 -1    0    0  501    0 0.00000000E+00 0.00000000E+00 -.12838398E+04 0.12838399E+04 0.32000000E+00 0.0000E+00 0.9000E+01
       25  1    1    2    0    0 0.65799794E+01 0.24585696E+03 -.45474634E+03 0.53189113E+03 0.12500000E+03 0.0000E+00 0.9000E+01
      -24  1    1    2    0    0 -.65799794E+01 -.24585696E+03 -.76934687E+03 0.81169623E+03 0.80419002E+02 0.0000E+00 0.9000E+01
#aMCatNLO 1  0  0  1  2 0.70571611D+02 0.00000000D+00  -5  5  0 0.00000000D+00 0.00000000D+00 0.00000000D+00 0.00000000D+00 0.00000000D+00
  <mgrwgt>
 0.2800142122D+00    9    2    0
 0.276957941941764D+03 0.000000000000000D+00 0.000000000000000D+00 0.276957941941764D+03
 0.276957941941764D+03 0.000000000000000D+00 0.000000000000000D+00 -.276957941941764D+03
 0.285224345119647D+03 0.657997938024447D+01 0.245856964197415D+03 0.723808267148009D+02
 0.268691538763880D+03 -.657997938024447D+01 -.245856964197415D+03 -.723808267148009D+02
 0.000000000000000D+00 -.000000000000000D+00 -.000000000000000D+00 0.000000000000000D+00
 0.330349711582672D+03 0.000000000000000D+00 0.000000000000000D+00 0.330349711582672D+03
 0.303537144867033D+03 0.000000000000000D+00 0.000000000000000D+00 -.303537144867033D+03
 0.299299953747942D+03 0.413103984063799D+02 0.258862761364219D+03 0.723808267148009D+02
 0.259093419029338D+03 0.247791835756175D+02 -.234113630135773D+03 -.723808267148009D+02
 0.754934836724240D+02 -.660895819819974D+02 -.247491312284456D+02 0.268125667156386D+02
0.321414257432D-02 0.000000000000D+00 0.000000000000D+00 0.189457345855D-02 0.000000000000D+00  5 -2 1 25 -24 21 0 0.91918577D-02 0.19751389D+00 0.71461703D+05 0.71461703D+05 0.71461703D+05 0.11772197D+01  1  2  2  1  5  1       -2 0.215178883219D+00 0.100000000000D+01
-.178291295998D-03 0.000000000000D+00 -.123431537886D-04 0.189457345855D-02 0.000000000000D+00  5 -2 1 25 -24 21 2 0.91918577D-02 0.19751389D+00 0.71461703D+05 0.71461703D+05 0.71461703D+05 0.11772197D+01  1  2  3  1  5  1       -2 -.165416836171D-01 0.100000000000D+01
0.220693923976D-03 0.000000000000D+00 0.000000000000D+00 0.189457345855D-02 0.000000000000D+00  5 -2 1 25 -24 21 2 0.91918577D-02 0.19751389D+00 0.71461703D+05 0.71461703D+05 0.71461703D+05 0.11772197D+01  1  2 15  1  5  1       -2 0.204757559599D-01 0.100000000000D+01
0.249115778949D-02 0.000000000000D+00 0.000000000000D+00 0.189457345855D-02 0.000000000000D+00  5 -2 1 25 -24 21 2 0.11338086D-01 0.19751389D+00 0.92953491D+05 0.92953491D+05 0.92953491D+05 0.11664981D+01  1  2 12  1  5  1       -2 0.161622171149D+00 0.100000000000D+01
-.247198640982D-02 0.000000000000D+00 0.000000000000D+00 0.189457345855D-02 0.000000000000D+00  5 -2 1 25 -24 21 2 0.91918577D-02 0.19751389D+00 0.71461703D+05 0.71461703D+05 0.71461703D+05 0.11772197D+01  1  2  4  1  5  1       -2 -.229348364249D+00 0.100000000000D+01
-.516801411265D-02 0.000000000000D+00 -.158203608407D-02 0.189457345855D-02 0.000000000000D+00  5 -2 1 25 -24 21 2 0.12059930D-01 0.19751389D+00 0.71461703D+05 0.71461703D+05 0.71461703D+05 0.11772197D+01  1  2  5  1  5  1       -2 -.310247034649D+00 0.100000000000D+01
0.545196460999D-02 0.000000000000D+00 0.152543862273D-02 0.189457345855D-02 0.000000000000D+00  5 -2 1 25 -24 21 2 0.91918577D-02 0.19751389D+00 0.71461703D+05 0.71461703D+05 0.71461703D+05 0.11772197D+01  1  2  6  1  5  1       -2 0.505827685897D+00 0.100000000000D+01
0.739542987876D-04 0.000000000000D+00 0.000000000000D+00 0.189457345855D-02 0.000000000000D+00  5 21 1 25 -24 2 2 0.11338086D-01 0.19751389D+00 0.92953491D+05 0.92953491D+05 0.92953491D+05 0.11664981D+01  1  2 12  3  5  1       -2 0.715696827620D-01 0.100000000000D+01
-.155529194442D-03 0.000000000000D+00 -.568916292159D-04 0.189457345855D-02 0.000000000000D+00  5 21 1 25 -24 2 2 0.12059930D-01 0.19751389D+00 0.71461703D+05 0.71461703D+05 0.71461703D+05 0.11772197D+01  1  2  5  3  5  1       -2 -.138522884283D+00 0.100000000000D+01
  </mgrwgt>
  </event>
  <event>
  4     66 0.46019439E-03 0.18233327E+03 0.75467711E-02 0.10310204E+00
       -2 -1    0    0    0  501 0.00000000E+00 0.00000000E+00 0.23991442E+04 0.23991442E+04 0.32000000E+00 0.0000E+00 0.9000E+01
        1 -1    0    0  501    0 0.00000000E+00 0.00000000E+00 -.15801357E+02 0.15804597E+02 0.32000000E+00 0.0000E+00 0.9000E+01
       25  1    1    2    0    0 -.14462700E+03 0.37947443E+02 0.84081462E+03 0.86310556E+03 0.12500000E+03 0.0000E+00 0.9000E+01
      -24  1    1    2    0    0 0.14462700E+03 -.37947443E+02 0.15425282E+04 0.15518433E+04 0.80419002E+02 0.0000E+00 0.9000E+01
#aMCatNLO 1  0  0  2  2 0.36662241D+03 0.00000000D+00  -5  5  0 0.00000000D+00 0.00000000D+00 0.00000000D+00 0.00000000D+00 0.00000000D+00
  <mgrwgt>
 0.6182458621D-01    5    2    0
 0.194714336630796D+03 0.000000000000000D+00 0.000000000000000D+00 0.194714336630796D+03
 0.194714336630796D+03 0.000000000000000D+00 0.000000000000000D+00 -.194714336630796D+03
 0.206472310137125D+03 -.144626996536132D+03 0.379474429820658D+02 -.681823899362704D+02
 0.182956363124467D+03 0.144626996536132D+03 -.379474429820658D+02 0.681823899362704D+02
 0.000000000000000D+00 -.000000000000000D+00 0.000000000000000D+00 -.000000000000000D+00
 0.293974247735574D+03 0.000000000000000D+00 0.000000000000000D+00 0.293974247735574D+03
 0.153315970652554D+04 0.000000000000000D+00 0.000000000000000D+00 -.153315970652554D+04
 0.143191003587014D+03 -.134281163346459D+02 -.703639840669624D+01 -.681823899362704D+02
 0.391661017672158D+03 0.360231991243428D+03 -.111871403839378D+03 0.681823899362704D+02
 0.129228193300194D+04 -.346803874908782D+03 0.118907802246074D+03 -.123918545878997D+04
0.131064720586D-01 0.000000000000D+00 0.000000000000D+00 0.192631369640D-02 0.000000000000D+00  5 -2 1 25 -24 21 0 0.36909936D+00 0.24312289D-02 0.33245422D+05 0.33245422D+05 0.33245422D+05 0.12102440D+01  1  2  2  2  5  2        1 0.752813170196D-01 0.100000000000D+01
-.724316215710D-03 0.000000000000D+00 -.503323037182D-04 0.192631369640D-02 0.000000000000D+00  5 -2 1 25 -24 21 2 0.36909936D+00 0.24312289D-02 0.33245422D+05 0.33245422D+05 0.33245422D+05 0.12102440D+01  1  2  3  2  5  2        1 -.609362216876D-02 0.100000000000D+01
0.904128637241D-03 0.000000000000D+00 0.000000000000D+00 0.192631369640D-02 0.000000000000D+00  5 -2 1 25 -24 21 2 0.36909936D+00 0.24312289D-02 0.33245422D+05 0.33245422D+05 0.33245422D+05 0.12102440D+01  1  2 15  2  5  2        1 0.760637162030D-02 0.100000000000D+01
-.146343552207D-01 0.000000000000D+00 -.166713951408D-01 0.192631369640D-02 0.000000000000D+00  5 -2 1 25 -24 21 2 0.36909936D+00 0.34562831D-01 0.33245422D+05 0.33245422D+05 0.33245422D+05 0.12102440D+01  1  2  5  2  5  2        1 -.355736307421D-02 0.100000000000D+01
-.797960646935D-02 0.000000000000D+00 -.502699128973D-02 0.192631369640D-02 0.000000000000D+00  5 -2 21 25 -24 -1 2 0.36909936D+00 0.34562831D-01 0.33245422D+05 0.33245422D+05 0.33245422D+05 0.12102440D+01  1  2  5  4  5  2        1 -.114121171836D-01 0.100000000000D+01
  </mgrwgt>
  </event>
  <event>
  5     66 -.46019439E-03 0.12289371E+03 0.75467711E-02 0.12288633E+00
       -4 -1    0    0    0  501 0.00000000E+00 0.00000000E+00 0.81615728E+02 0.81630445E+02 0.15500000E+01 0.0000E+00 0.9000E+01
        3 -1    0    0  502    0 0.00000000E+00 0.00000000E+00 -.20645544E+03 0.20645605E+03 0.50000000E+00 0.0000E+00 0.9000E+01
       25  1    1    2    0    0 0.50635926E+02 -.35036065E+02 -.81620943E+02 0.16148839E+03 0.12500000E+03 0.0000E+00 0.9000E+01
      -24  1    1    2    0    0 -.62336928E+02 0.32274492E+02 -.36554461E+02 0.11283164E+03 0.80419002E+02 0.0000E+00 0.9000E+01
       21  1    1    2  502  501 0.11701002E+02 0.27615733E+01 -.66643074E+01 0.13766453E+02 0.75000000E+00 0.0000E+00 0.9000E+01
#aMCatNLO 2  0  0  2  1 0.12022468D+02 0.00000000D+00  -5  5  0 0.00000000D+00 0.00000000D+00 0.00000000D+00 0.00000000D+00 0.00000000D+00
  <mgrwgt>
 -.1469277854D-01    3    2    0
 0.123634054204900D+03 0.000000000000000D+00 0.000000000000000D+00 0.123634054204900D+03
 0.123634054204900D+03 0.000000000000000D+00 0.000000000000000D+00 -.123634054204900D+03
 0.142151978138811D+03 0.573074268619476D+02 -.334615131109044D+02 -.133555552324988D+02
 0.105116130270989D+03 -.573074268619476D+02 0.334615131109044D+02 0.133555552324988D+02
 0.000000000000000D+00 0.000000000000000D+00 0.000000000000000D+00 -.000000000000000D+00
 0.129398543832289D+03 0.000000000000000D+00 0.000000000000000D+00 0.129398543832289D+03
 0.130211593902862D+03 0.000000000000000D+00 0.000000000000000D+00 -.130211593902862D+03
 0.139981762254949D+03 0.506359263456284D+02 -.350360652978162D+02 -.133555552324988D+02
 0.107578446915580D+03 -.623369280465208D+02 0.322744919797700D+02 0.133555552324988D+02
 0.120499285646218D+02 0.117010017008924D+02 0.276157331804623D+01 -.813050070572733D+00
-.433058139074D-03 0.000000000000D+00 0.000000000000D+00 0.269049373190D-02 0.000000000000D+00  5 -4 3 25 -24 21 2 0.11996954D-01 0.32429184D-01 0.16655432D+05 0.16655432D+05 0.16655432D+05 0.12426726D+01  1  2 13  2  5  2        3 -.667643039082D-01 0.100000000000D+01
-.210468129935D-05 0.000000000000D+00 0.000000000000D+00 0.269049373190D-02 0.000000000000D+00  5 -4 3 25 -24 21 2 0.11996954D-01 0.30156333D-01 0.15102864D+05 0.15102864D+05 0.15102864D+05 0.12474843D+01  1  2  8  2  5  2        3 -.370715479409D-03 0.100000000000D+01
0.353757756806D-03 0.000000000000D+00 0.000000000000D+00 0.269049373190D-02 0.153622572762D-03  5 -4 3 25 -24 21 2 0.12556317D-01 0.31760701D-01 0.16655432D+05 0.16655432D+05 0.16655432D+05 0.12426726D+01  1  2  1  2  5  2        3 0.524422408519D-01 0.100000000000D+01
  </mgrwgt>
  </event>
  <event>
  4     66 0.46019439E-03 0.10363621E+03 0.75467711E-02 0.11751115E+00
       -2 -1    0    0    0  501 0.00000000E+00 0.00000000E+00 0.82273731E+01 0.82335939E+01 0.32000000E+00 0.0000E+00 0.9000E+01
        1 -1    0    0  501    0 0.00000000E+00 0.00000000E+00 -.13163288E+04 0.13163288E+04 0.32000000E+00 0.0000E+00 0.9000E+01
       25  1    1    2    0    0 0.12640101E+02 -.47544370E+01 -.85242260E+03 0.86164475E+03 0.12500000E+03 0.0000E+00 0.9000E+01
      -24  1    1    2    0    0 -.12640101E+02 0.47544370E+01 -.45567883E+03 0.46291769E+03 0.80419002E+02 0.0000E+00 0.9000E+01
#aMCatNLO 1  0  0  1  2 0.11045319D+03 0.00000000D+00  -5  5  0 0.00000000D+00 0.00000000D+00 0.00000000D+00 0.00000000D+00 0.00000000D+00
  <mgrwgt>
 0.1776165588D+00    5    2    0
 0.104086857050484D+03 0.000000000000000D+00 0.000000000000000D+00 0.104086857050484D+03
 0.104086857050484D+03 0.000000000000000D+00 0.000000000000000D+00 -.104086857050484D+03
 0.126082391129267D+03 0.126401011222978D+02 -.475443697705360D+01 -.945476205532871D+01
 0.820913229717009D+02 -.126401011222978D+02 0.475443697705360D+01 0.945476205532871D+01
 0.000000000000000D+00 -.000000000000000D+00 -.000000000000000D+00 0.000000000000000D+00
 0.257987143087361D+03 0.000000000000000D+00 0.000000000000000D+00 0.257987143087361D+03
 0.139591814351890D+03 0.000000000000000D+00 0.000000000000000D+00 -.139591814351890D+03
 0.147861641922224D+03 0.750872441032116D+02 0.225959819303756D+02 -.945476205532871D+01
 0.877995585367132D+02 0.260875179849060D+02 0.217162474828300D+02 0.945476205532871D+01
 0.161917756980313D+03 -.101174762088118D+03 -.443122294132057D+02 0.118395328735470D+03
0.161695403933D-03 0.000000000000D+00 0.000000000000D+00 0.317254475873D-02 0.000000000000D+00  5 -2 1 25 -24 21 0 0.12662312D-02 0.20251261D+00 0.10740465D+05 0.10740465D+05 0.10740465D+05 0.12647077D+01  1  2  2  1  5  1       -2 0.194358031136D+00 0.100000000000D+01
-.898287237617D-05 0.000000000000D+00 -.620952926482D-06 0.317254475873D-02 0.000000000000D+00  5 -2 1 25 -24 21 2 0.12662312D-02 0.20251261D+00 0.10740465D+05 0.10740465D+05 0.10740465D+05 0.12647077D+01  1  2  3  1  5  1       -2 -.172703185404D-01 0.100000000000D+01
0.111739338506D-04 0.000000000000D+00 0.000000000000D+00 0.317254475873D-02 0.000000000000D+00  5 -2 1 25 -24 21 2 0.12662312D-02 0.20251261D+00 0.10740465D+05 0.10740465D+05 0.10740465D+05 0.12647077D+01  1  2 15  1  5  1       -2 0.214828162829D-01 0.100000000000D+01
-.263609252027D-04 0.000000000000D+00 -.482096630010D-04 0.317254475873D-02 0.000000000000D+00  5 -2 1 25 -24 21 2 0.43204184D-02 0.20251261D+00 0.10740465D+05 0.10740465D+05 0.10740465D+05 0.12647077D+01  1  2  5  1  5  1       -2 -.855325459524D-02 0.100000000000D+01
-.206388539043D-05 0.000000000000D+00 -.689240930916D-05 0.317254475873D-02 0.000000000000D+00  5 21 1 25 -24 2 2 0.43204184D-02 0.20251261D+00 0.10740465D+05 0.10740465D+05 0.10740465D+05 0.12647077D+01  1  2  5  3  5  1       -2 -.124007154930D-01 0.100000000000D+01
  </mgrwgt>
  </event>
  <event>
  4     66 0.46019439E-03 0.10404913E+03 0.75467711E-02 0.12036465E+00
       -2 -1    0    0    0  501 0.00000000E+00 0.00000000E+00 0.87106335E+01 0.87165093E+01 0.32000000E+00 0.0000E+00 0.9000E+01
        1 -1    0    0  501    0 0.00000000E+00 0.00000000E+00 -.12867450E+04 0.12867450E+04 0.32000000E+00 0.0000E+00 0.9000E+01
       25  1    1    2    0    0 -.14198183E+02 -.79170902E+01 -.65194424E+03 0.66401850E+03 0.12500000E+03 0.0000E+00 0.9000E+01
      -24  1    1    2    0    0 0.14198183E+02 0.79170902E+01 -.62609009E+03 0.63144302E+03 0.80419002E+02 0.0000E+00 0.9000E+01
#aMCatNLO 1  0  0  1  2 0.73992101D+02 0.00000000D+00  -5  5  0 0.00000000D+00 0.00000000D+00 0.00000000D+00 0.00000000D+00 0.00000000D+00
  <mgrwgt>
 0.1428550255D+00    4    2    0
 0.105887655295305D+03 0.000000000000000D+00 0.000000000000000D+00 0.105887655295305D+03
 0.105887655295305D+03 0.000000000000000D+00 0.000000000000000D+00 -.105887655295305D+03
 0.127509118203540D+03 -.141981827678445D+02 -.791709022136138D+01 0.192173492855282D+02
 0.842661923870707D+02 0.141981827678445D+02 0.791709022136138D+01 -.192173492855282D+02
 0.000000000000000D+00 -.000000000000000D+00 0.000000000000000D+00 -.000000000000000D+00
 0.148534053930292D+03 0.000000000000000D+00 0.000000000000000D+00 0.148534053930292D+03
 0.149798095237682D+03 0.000000000000000D+00 0.000000000000000D+00 -.149798095237682D+03
 0.132022274466663D+03 0.245250261065715D+02 -.288807468092630D+02 0.192173492855282D+02
 0.923069773015441D+02 0.405436651432987D+02 -.634561323776588D+01 -.192173492855282D+02
 0.740028973997683D+02 -.650686912498702D+02 0.352263600470289D+02 -.126404130738987D+01
0.182467268893D-03 0.000000000000D+00 0.000000000000D+00 0.304852311057D-02 0.000000000000D+00  5 -2 1 25 -24 21 0 0.13405525D-02 0.19796122D+00 0.10826222D+05 0.10826222D+05 0.10826222D+05 0.12642974D+01  1  2  2  1  5  1       -2 0.211542654809D+00 0.100000000000D+01
-.101332892356D-04 0.000000000000D+00 -.700722357285D-06 0.304852311057D-02 0.000000000000D+00  5 -2 1 25 -24 21 2 0.13405525D-02 0.19796122D+00 0.10826222D+05 0.10826222D+05 0.10826222D+05 0.12642974D+01  1  2  3  1  5  1       -2 -.187785435772D-01 0.100000000000D+01
0.125184060286D-04 0.000000000000D+00 0.000000000000D+00 0.304852311057D-02 0.000000000000D+00  5 -2 1 25 -24 21 2 0.13405525D-02 0.19796122D+00 0.10826222D+05 0.10826222D+05 0.10826222D+05 0.12642974D+01  1  2 15  1  5  1       -2 0.231985318546D-01 0.100000000000D+01
-.394503775841D-04 0.000000000000D+00 0.000000000000D+00 0.304852311057D-02 0.000000000000D+00  5 -2 1 25 -24 21 2 0.13405525D-02 0.19796122D+00 0.10826222D+05 0.10826222D+05 0.10826222D+05 0.12642974D+01  1  2  4  1  5  1       -2 -.731076176128D-01 0.100000000000D+01
  </mgrwgt>
  </event>
  <event>
  4     66 0.46019439E-03 0.37480645E+02 0.75467711E-02 0.12449244E+00
       -2 -1    0    0    0  501 0.00000000E+00 0.00000000E+00 0.12485812E+02 0.12489912E+02 0.32000000E+00 0.0000E+00 0.9000E+01
        1 -1    0    0  501    0 0.00000000E+00 0.00000000E+00 -.85889637E+03 0.85889643E+03 0.32000000E+00 0.0000E+00 0.9000E+01
       25  1    1    2    0    0 -.34853025E+01 -.85492470E+01 -.47517243E+03 0.49142555E+03 0.12500000E+03 0.0000E+00 0.9000E+01
      -24  1    1    2    0    0 0.34853025E+01 0.85492470E+01 -.37123813E+03 0.37996079E+03 0.80419002E+02 0.0000E+00 0.9000E+01
#aMCatNLO 1  0  0  1  2 0.29421947D+02 0.00000000D+00  -5  5  0 0.00000000D+00 0.00000000D+00 0.00000000D+00 0.00000000D+00 0.00000000D+00
  <mgrwgt>
 0.1665677698D+00    9    2    0
 0.103565588934273D+03 0.000000000000000D+00 0.000000000000000D+00 0.103565588934273D+03
 0.103565588934273D+03 0.000000000000000D+00 0.000000000000000D+00 -.103565588934273D+03
 0.125671831316193D+03 -.348530250403457D+01 -.854924699842827D+01 0.911988095212415D+01
 0.814593465523522D+02 0.348530250403457D+01 0.854924699842827D+01 -.911988095212415D+01
 0.000000000000000D+00 -.000000000000000D+00 0.000000000000000D+00 0.000000000000000D+00
 0.188092112470458D+03 0.000000000000000D+00 0.000000000000000D+00 0.188092112470458D+03
 0.107197356354917D+03 0.000000000000000D+00 0.000000000000000D+00 -.107197356354917D+03
 0.126710995525519D+03 0.139327360597054D+02 -.123847900417335D+02 0.911988095212415D+01
 0.824993670534066D+02 0.148008077314858D+02 0.605751366130131D+01 -.911988095212415D+01
 0.860791062464490D+02 -.287335437911912D+02 0.632727638043215D+01 0.808947561155405D+02
0.106828584692D-03 0.000000000000D+00 0.000000000000D+00 0.319211900666D-02 0.000000000000D+00  5 -2 1 25 -24 21 0 0.19212142D-02 0.13213822D+00 0.10638655D+05 0.10638655D+05 0.10638655D+05 0.12651995D+01  1  2  2  1  5  1       -2 0.148572025056D+00 0.100000000000D+01
-.593480122363D-05 0.000000000000D+00 -.410249893830D-06 0.319211900666D-02 0.000000000000D+00  5 -2 1 25 -24 21 2 0.19212142D-02 0.13213822D+00 0.10638655D+05 0.10638655D+05 0.10638655D+05 0.12651995D+01  1  2  3  1  5  1       -2 -.132121593489D-01 0.100000000000D+01
0.737541751952D-05 0.000000000000D+00 0.000000000000D+00 0.319211900666D-02 0.000000000000D+00  5 -2 1 25 -24 21 2 0.19212142D-02 0.13213822D+00 0.10638655D+05 0.10638655D+05 0.10638655D+05 0.12651995D+01  1  2 15  1  5  1       -2 0.164192848017D-01 0.100000000000D+01
0.282790314828D-03 0.000000000000D+00 0.000000000000D+00 0.319211900666D-02 0.000000000000D+00  5 -2 1 25 -24 21 2 0.34976916D-02 0.13213822D+00 0.14136979D+05 0.14136979D+05 0.14136979D+05 0.12507670D+01  1  2 12  1  5  1       -2 0.259625418103D+00 0.100000000000D+01
-.261753456126D-03 0.000000000000D+00 0.000000000000D+00 0.319211900666D-02 0.000000000000D+00  5 -2 1 25 -24 21 2 0.19212142D-02 0.13213822D+00 0.10638655D+05 0.10638655D+05 0.10638655D+05 0.12651995D+01  1  2  4  1  5  1       -2 -.582720169075D+00 0.100000000000D+01
-.303578326578D-03 0.000000000000D+00 -.313094582263D-04 0.319211900666D-02 0.000000000000D+00  5 -2 1 25 -24 21 2 0.36085696D-02 0.13213822D+00 0.10638655D+05 0.10638655D+05 0.10638655D+05 0.12651995D+01  1  2  5  1  5  1       -2 -.270371992904D+00 0.100000000000D+01
0.272660294836D-03 0.000000000000D+00 0.259756368747D-04 0.319211900666D-02 0.000000000000D+00  5 -2 1 25 -24 21 2 0.19212142D-02 0.13213822D+00 0.10638655D+05 0.10638655D+05 0.10638655D+05 0.12651995D+01  1  2  6  1  5  1       -2 0.607001166130D+00 0.100000000000D+01
0.185377317158D-04 0.000000000000D+00 0.000000000000D+00 0.319211900666D-02 0.000000000000D+00  5 21 1 25 -24 2 2 0.34976916D-02 0.13213822D+00 0.14136979D+05 0.14136979D+05 0.14136979D+05 0.12507670D+01  1  2 12  3  5  1       -2 0.325802596086D+00 0.100000000000D+01
-.190610168464D-04 0.000000000000D+00 -.214777323006D-05 0.319211900666D-02 0.000000000000D+00  5 21 1 25 -24 2 2 0.36085696D-02 0.13213822D+00 0.10638655D+05 0.10638655D+05 0.10638655D+05 0.12651995D+01  1  2  5  3  5  1       -2 -.324548399059D+00 0.100000000000D+01
  </mgrwgt>
  </event>
  <event>
  5     66 0.46019439E-03 0.10374182E+03 0.75467711E-02 0.11166960E+00
       21 -1    0    0  502  501 0.00000000E+00 0.00000000E+00 0.57351037E+02 0.57355941E+02 0.75000000E+00 0.0000E+00 0.9000E+01
        1 -1    0    0  501    0 0.00000000E+00 0.00000000E+00 -.13828008E+04 0.13828008E+04 0.32000000E+00 0.0000E+00 0.9000E+01
       25  1    1    2    0    0 -.75222813E+02 0.87000613E+02 -.77856131E+03 0.79687533E+03 0.12500000E+03 0.0000E+00 0.9000E+01
      -24  1    1    2    0    0 -.36890375E+02 0.79419373E+02 -.31464139E+03 0.33635511E+03 0.80419002E+02 0.0000E+00 0.9000E+01
        2  1    1    2  502    0 0.11211319E+03 -.16641999E+03 -.23224706E+03 0.30692634E+03 0.32000000E+00 0.0000E+00 0.9000E+01
#aMCatNLO 2  0  0  1  2 0.20066135D+03 0.00000000D+00  -5  5  0 0.00000000D+00 0.00000000D+00 0.00000000D+00 0.00000000D+00 0.00000000D+00
  <mgrwgt>
 0.7864487337D-01    1    2    0
 0.110514815119192D+03 0.000000000000000D+00 0.000000000000000D+00 0.110514815119192D+03
 0.110514815119192D+03 0.000000000000000D+00 0.000000000000000D+00 -.110514815119192D+03
 0.131231006056472D+03 -.937698938728156D+01 -.107404394264552D+02 -.373268265668447D+02
 0.897986241819126D+02 0.937698938728156D+01 0.107404394264552D+02 0.373268265668447D+02
 0.000000000000000D+00 0.000000000000000D+00 -.000000000000000D+00 0.000000000000000D+00
 0.427744207746172D+03 0.000000000000000D+00 0.000000000000000D+00 0.427744207746172D+03
 0.185411177371315D+03 0.000000000000000D+00 0.000000000000000D+00 -.185411177371315D+03
 0.173913398675111D+03 -.752228129574805D+02 0.870006130319825D+02 -.373268265668447D+02
 0.124614784406151D+03 -.368903753556293D+02 0.794193727171799D+02 0.373268265668447D+02
 0.314627202036225D+03 0.112113188313110D+03 -.166419985749162D+03 0.242333030374857D+03
0.579682034728D-04 0.000000000000D+00 0.000000000000D+00 0.271026929847D-02 0.363641275110D-06  5 21 1 25 -24 2 2 0.88236132D-02 0.21273888D+00 0.59881724D+05 0.59881724D+05 0.59881724D+05 0.11846019D+01  1  2  1  3  5  1       -2 0.786448733748D-01 0.100000000000D+01
  </mgrwgt>
  </event>
  <event>
  5     66 0.46019439E-03 0.10517669E+03 0.75467711E-02 0.11917954E+00
       21 -1    0    0  502  501 0.00000000E+00 0.00000000E+00 0.41588133E+02 0.41594896E+02 0.75000000E+00 0.0000E+00 0.9000E+01
        1 -1    0    0  501    0 0.00000000E+00 0.00000000E+00 -.75604760E+03 0.75604767E+03 0.32000000E+00 0.0000E+00 0.9000E+01
       25  1    1    2    0    0 0.48792788E+02 0.40932632E+02 -.46772687E+03 0.48831306E+03 0.12500000E+03 0.0000E+00 0.9000E+01
      -24  1    1    2    0    0 0.32462422E+02 -.98365068E+01 -.17873473E+03 0.19890673E+03 0.80419002E+02 0.0000E+00 0.9000E+01
        2  1    1    2  502    0 -.81255210E+02 -.31096126E+02 -.67997863E+02 0.11042278E+03 0.32000000E+00 0.0000E+00 0.9000E+01
#aMCatNLO 2  0  0  1  2 0.87002173D+02 0.00000000D+00  -5  5  0 0.00000000D+00 0.00000000D+00 0.00000000D+00 0.00000000D+00 0.00000000D+00
  <mgrwgt>
 0.1158733351D+00    2    2    0
 0.108153883769838D+03 0.000000000000000D+00 0.000000000000000D+00 0.108153883769838D+03
 0.108153883769838D+03 0.000000000000000D+00 0.000000000000000D+00 -.108153883769838D+03
 0.129322296143078D+03 -.338794909766082D+00 0.221301227451420D+02 -.246860115249921D+02
 0.869854713965988D+02 0.338794909766082D+00 -.221301227451420D+02 0.246860115249921D+02
 0.000000000000000D+00 -.000000000000000D+00 -.000000000000000D+00 0.000000000000000D+00
 0.237915737465277D+03 0.000000000000000D+00 0.000000000000000D+00 0.237915737465277D+03
 0.132169696613078D+03 0.000000000000000D+00 0.000000000000000D+00 -.132169696613078D+03
 0.142445132218644D+03 0.487927877099558D+02 0.409326324008856D+02 -.246860115249921D+02
 0.907038082264316D+02 0.324624219943848D+02 -.983650678102701D+01 0.246860115249921D+02
 0.136936493633280D+03 -.812552097043405D+02 -.310961256198586D+02 0.105746040852199D+03
-.483166874000D-06 0.000000000000D+00 0.000000000000D+00 0.293095234606D-02 0.000000000000D+00  5 21 1 25 -24 2 2 0.63666509D-02 0.95180374D-01 0.24738860D+05 0.24738860D+05 0.24738860D+05 0.12237869D+01  1  2 13  3  5  1       -2 -.481995930196D-02 0.100000000000D+01
0.162460215810D-04 0.000000000000D+00 0.000000000000D+00 0.293095234606D-02 0.511838782811D-06  5 21 1 25 -24 2 2 0.63986915D-02 0.11631539D+00 0.24738860D+05 0.24738860D+05 0.24738860D+05 0.12237869D+01  1  2  1  3  5  1       -2 0.120693294435D+00 0.100000000000D+01
  </mgrwgt>
  </event>
  <event>
  4     66 0.46019439E-03 0.10967016E+03 0.75467711E-02 0.11203562E+00
       -2 -1    0    0    0  501 0.00000000E+00 0.00000000E+00 0.39159854E+02 0.39161161E+02 0.32000000E+00 0.0000E+00 0.9000E+01
        1 -1    0    0  501    0 0.00000000E+00 0.00000000E+00 -.42743059E+03 0.42743071E+03 0.32000000E+00 0.0000E+00 0.9000E+01
       25  1    1    2    0    0 -.30033448E+02 0.22698557E+02 -.34283309E+03 0.36684706E+03 0.12500000E+03 0.0000E+00 0.9000E+01
      -24  1    1    2    0    0 0.30033448E+02 -.22698557E+02 -.45437640E+02 0.99744812E+02 0.80419002E+02 0.0000E+00 0.9000E+01
#aMCatNLO 1  0  0  2  2 0.19046539D+03 0.00000000D+00  -5  5  0 0.00000000D+00 0.00000000D+00 0.00000000D+00 0.00000000D+00 0.00000000D+00
  <mgrwgt>
 0.1923895752D+00    5    2    0
 0.129377170493718D+03 0.000000000000000D+00 0.000000000000000D+00 0.129377170493718D+03
 0.129377170493718D+03 0.000000000000000D+00 0.000000000000000D+00 -.129377170493718D+03
 0.147073074668083D+03 -.300334478640390D+02 0.226985567953118D+02 -.677366726458548D+02
 0.111681266319353D+03 0.300334478640390D+02 -.226985567953118D+02 0.677366726458548D+02
 0.000000000000000D+00 0.000000000000000D+00 -.000000000000000D+00 -.000000000000000D+00
 0.245526525365335D+03 0.000000000000000D+00 0.000000000000000D+00 0.245526525365335D+03
 0.267497516205005D+03 0.000000000000000D+00 0.000000000000000D+00 -.267497516205005D+03
 0.205986661340378D+03 -.704414111334324D+02 0.131359260908984D+03 -.677366726458548D+02
 0.115308955490214D+03 0.405423922051196D+01 0.471619082002070D+02 0.677366726458548D+02
 0.191728424739748D+03 0.663871719129204D+02 -.178521169109191D+03 -.219709908396700D+02
0.251567150655D-03 0.000000000000D+00 0.000000000000D+00 0.199258626326D-02 0.000000000000D+00  5 -2 1 25 -24 21 0 0.60247026D-02 0.65758662D-01 0.12027544D+05 0.12027544D+05 0.12027544D+05 0.12589074D+01  1  2  2  2  5  2        1 0.170298030974D+00 0.100000000000D+01
-.135118970089D-04 0.000000000000D+00 -.966084097669D-06 0.199258626326D-02 0.000000000000D+00  5 -2 1 25 -24 21 2 0.60247026D-02 0.65758662D-01 0.12027544D+05 0.12027544D+05 0.12027544D+05 0.12589074D+01  1  2  3  2  5  2        1 -.144963816484D-01 0.100000000000D+01
0.172189704750D-04 0.000000000000D+00 0.000000000000D+00 0.199258626326D-02 0.000000000000D+00  5 -2 1 25 -24 21 2 0.60247026D-02 0.65758662D-01 0.12027544D+05 0.12027544D+05 0.12027544D+05 0.12589074D+01  1  2 15  2  5  2        1 0.184735546336D-01 0.100000000000D+01
0.893584395177D-04 0.000000000000D+00 -.101168315262D-03 0.199258626326D-02 0.000000000000D+00  5 -2 1 25 -24 21 2 0.60247026D-02 0.21892825D+00 0.12027544D+05 0.12027544D+05 0.12027544D+05 0.12589074D+01  1  2  5  2  5  2        1 0.148914982746D-01 0.100000000000D+01
0.163619279876D-04 0.000000000000D+00 -.141137085575D-04 0.199258626326D-02 0.000000000000D+00  5 -2 21 25 -24 -1 2 0.60247026D-02 0.21892825D+00 0.12027544D+05 0.12027544D+05 0.12027544D+05 0.12589074D+01  1  2  5  4  5  2        1 0.322287292194D-02 0.100000000000D+01
  </mgrwgt>
  </event>
  <event>
  4     66 0.46019439E-03 0.15106944E+03 0.75467711E-02 0.11479496E+00
       -2 -1    0    0    0  501 0.00000000E+00 0.00000000E+00 0.28883150E+03 0.28883167E+03 0.32000000E+00 0.0000E+00 0.9000E+01
        1 -1    0    0  501    0 0.00000000E+00 0.00000000E+00 -.20378649E+03 0.20378674E+03 0.32000000E+00 0.0000E+00 0.9000E+01
       25  1    1    2    0    0 -.46362895E+02 0.99277491E+02 -.14817796E+03 0.22268194E+03 0.12500000E+03 0.0000E+00 0.9000E+01
      -24  1    1    2    0    0 0.46362895E+02 -.99277491E+02 0.23322296E+03 0.26993648E+03 0.80419002E+02 0.0000E+00 0.9000E+01
#aMCatNLO 1  0  0  1  2 0.88978022D+02 0.00000000D+00  -5  5  0 0.00000000D+00 0.00000000D+00 0.00000000D+00 0.00000000D+00 0.00000000D+00
  <mgrwgt>
 0.1206306517D+00    4    2    0
 0.242610928895817D+03 0.000000000000000D+00 0.000000000000000D+00 0.242610928895817D+03
 0.242610928895817D+03 0.000000000000000D+00 0.000000000000000D+00 -.242610928895817D+03
 0.252047626664657D+03 -.463628948977216D+02 0.992774911204927D+02 -.189466270984600D+03
 0.233174231126977D+03 0.463628948977216D+02 -.992774911204927D+02 0.189466270984600D+03
 0.000000000000000D+00 0.000000000000000D+00 0.000000000000000D+00 -.000000000000000D+00
 0.271784509840306D+03 0.000000000000000D+00 0.000000000000000D+00 0.271784509840306D+03
 0.325423275344937D+03 0.000000000000000D+00 0.000000000000000D+00 -.325423275344937D+03
 0.254515527033364D+03 -.862591706079302D+02 0.762564170827173D+02 -.189466270984600D+03
 0.238797091636704D+03 0.919102820582076D+01 -.120726518128736D+03 0.189466270984600D+03
 0.103895166515174D+03 0.770681424021095D+02 0.444701010460183D+02 -.536387655046310D+02
0.248762307097D-02 0.000000000000D+00 0.000000000000D+00 0.849706173115D-03 0.000000000000D+00  5 -2 1 25 -24 21 0 0.44435648D-01 0.31351801D-01 0.22821974D+05 0.22821974D+05 0.22821974D+05 0.12275647D+01  1  2  2  1  5  1       -2 0.151346390448D+00 0.100000000000D+01
-.100493060557D-03 0.000000000000D+00 -.955312759873D-05 0.849706173115D-03 0.000000000000D+00  5 -2 1 25 -24 21 2 0.44435648D-01 0.31351801D-01 0.22821974D+05 0.22821974D+05 0.22821974D+05 0.12275647D+01  1  2  3  1  5  1       -2 -.921323974349D-02 0.100000000000D+01
0.168928612347D-03 0.000000000000D+00 0.000000000000D+00 0.849706173115D-03 0.000000000000D+00  5 -2 1 25 -24 21 2 0.44435648D-01 0.31351801D-01 0.22821974D+05 0.22821974D+05 0.22821974D+05 0.12275647D+01  1  2 15  1  5  1       -2 0.154874356146D-01 0.100000000000D+01
-.403466299263D-03 0.000000000000D+00 0.000000000000D+00 0.849706173115D-03 0.000000000000D+00  5 -2 1 25 -24 21 2 0.44435648D-01 0.31351801D-01 0.22821974D+05 0.22821974D+05 0.22821974D+05 0.12275647D+01  1  2  4  1  5  1       -2 -.369899346575D-01 0.100000000000D+01
  </mgrwgt>
  </event>
  <event>
  4     66 0.46019439E-03 0.11056486E+03 0.75467711E-02 0.12590510E+00
       -2 -1    0    0    0  501 0.00000000E+00 0.00000000E+00 0.81683933E+01 0.81746590E+01 0.32000000E+00 0.0000E+00 0.9000E+01
        1 -1    0    0  501    0 0.00000000E+00 0.00000000E+00 -.19812668E+04 0.19812668E+04 0.32000000E+00 0.0000E+00 0.9000E+01
       25  1    1    2    0    0 -.34730659E+02 -.20025828E+02 -.16117876E+04 0.16171244E+04 0.12500000E+03 0.0000E+00 0.9000E+01
      -24  1    1    2    0    0 0.34730659E+02 0.20025828E+02 -.36131084E+03 0.37231706E+03 0.80419002E+02 0.0000E+00 0.9000E+01
#aMCatNLO 1  0  0  1  2 0.51345713D+00 0.00000000D+00  -5  5  0 0.00000000D+00 0.00000000D+00 0.00000000D+00 0.00000000D+00 0.00000000D+00
  <mgrwgt>
 0.2095009011D+00    6    2    0
 0.127240028007066D+03 0.000000000000000D+00 0.000000000000000D+00 0.127240028007066D+03
 0.127240028007066D+03 0.000000000000000D+00 0.000000000000000D+00 -.127240028007066D+03
 0.145233155227065D+03 -.347306588147206D+02 -.200258279675840D+02 -.621322535380532D+02
 0.109246900787067D+03 0.347306588147206D+02 0.200258279675840D+02 0.621322535380532D+02
 0.000000000000000D+00 -.000000000000000D+00 0.000000000000000D+00 -.000000000000000D+00
 0.127336222223150D+03 0.000000000000000D+00 0.000000000000000D+00 0.127336222223150D+03
 0.127927308472051D+03 0.000000000000000D+00 0.000000000000000D+00 -.127927308472051D+03
 0.145189457662320D+03 -.344698013863527D+02 -.201592281337144D+02 -.621322535380532D+02
 0.109291116345161D+03 0.349269495394082D+02 0.199254466387982D+02 0.621322535380532D+02
 0.782956687720701D+00 -.457148153055477D+00 0.233781494916194D+00 -.591086248900519D+00
0.362202305520D-03 0.000000000000D+00 0.000000000000D+00 0.210256156280D-02 0.000000000000D+00  5 -2 1 25 -24 21 0 0.12571599D-02 0.30481076D+00 0.12224588D+05 0.12224588D+05 0.12224588D+05 0.12580814D+01  1  2  2  1  5  1       -2 0.166093191533D+00 0.100000000000D+01
-.196395742381D-04 0.000000000000D+00 -.139095222325D-05 0.210256156280D-02 0.000000000000D+00  5 -2 1 25 -24 21 2 0.12571599D-02 0.30481076D+00 0.12224588D+05 0.12224588D+05 0.12224588D+05 0.12580814D+01  1  2  3  1  5  1       -2 -.142544403566D-01 0.100000000000D+01
0.247774079213D-04 0.000000000000D+00 0.000000000000D+00 0.210256156280D-02 0.000000000000D+00  5 -2 1 25 -24 21 2 0.12571599D-02 0.30481076D+00 0.12224588D+05 0.12224588D+05 0.12224588D+05 0.12580814D+01  1  2 15  1  5  1       -2 0.179834898213D-01 0.100000000000D+01
-.117258090372D-02 0.000000000000D+00 0.000000000000D+00 0.210256156280D-02 0.000000000000D+00  5 -2 1 25 -24 21 2 0.12571599D-02 0.30481076D+00 0.12224588D+05 0.12224588D+05 0.12224588D+05 0.12580814D+01  1  2  4  1  5  1       -2 -.851061451373D+00 0.100000000000D+01
0.117259732177D-02 0.000000000000D+00 0.000000000000D+00 0.210256156280D-02 0.672974078865D-01  5 -2 1 25 -24 21 2 0.12581103D-02 0.30645718D+00 0.12282023D+05 0.12282023D+05 0.12282023D+05 0.12578434D+01  1  2 11  1  5  1       -2 0.836771512440D+00 0.100000000000D+01
0.333233586671D-05 0.000000000000D+00 0.000000000000D+00 0.210256156280D-02 0.954742538459D-05  5 21 1 25 -24 2 2 0.12581103D-02 0.30645718D+00 0.12282023D+05 0.12282023D+05 0.12282023D+05 0.12578434D+01  1  2 11  3  5  1       -2 0.539685990013D-01 0.100000000000D+01
  </mgrwgt>
  </event>
  <event>
  4     66 0.46019439E-03 0.10596773E+03 0.75467711E-02 0.11715292E+00
       -2 -1    0    0    0  501 0.00000000E+00 0.00000000E+00 0.12407713E+02 0.12411839E+02 0.32000000E+00 0.0000E+00 0.9000E+01
        1 -1    0    0  501    0 0.00000000E+00 0.00000000E+00 -.92043396E+03 0.92043402E+03 0.32000000E+00 0.0000E+00 0.9000E+01
       25  1    1    2    0    0 0.14735746E+02 0.20801232E+02 -.48559419E+03 0.50207226E+03 0.12500000E+03 0.0000E+00 0.9000E+01
      -24  1    1    2    0    0 -.14735746E+02 -.20801232E+02 -.42243206E+03 0.43077360E+03 0.80419002E+02 0.0000E+00 0.9000E+01
#aMCatNLO 1  0  0  2  2 0.11252463D+03 0.00000000D+00  -5  5  0 0.00000000D+00 0.00000000D+00 0.00000000D+00 0.00000000D+00 0.00000000D+00
  <mgrwgt>
 0.1575751190D+00    5    2    0
 0.106875771282908D+03 0.000000000000000D+00 0.000000000000000D+00 0.106875771282908D+03
 0.106875771282908D+03 0.000000000000000D+00 0.000000000000000D+00 -.106875771282908D+03
 0.128297333756099D+03 0.147357458393089D+02 0.208012317701765D+02 0.136151533346734D+02
 0.854542088097158D+02 -.147357458393089D+02 -.208012317701765D+02 -.136151533346734D+02
 0.000000000000000D+00 -.000000000000000D+00 -.000000000000000D+00 -.000000000000000D+00
 0.174732410438907D+03 0.000000000000000D+00 0.000000000000000D+00 0.174732410438907D+03
 0.179451718383258D+03 0.000000000000000D+00 0.000000000000000D+00 -.179451718383258D+03
 0.155291731623015D+03 0.824839416438236D+02 0.387498242711650D+02 0.136151533346734D+02
 0.862688484068480D+02 0.262881465625540D+02 -.993273381563214D+01 -.136151533346734D+02
 0.112623548792302D+03 -.108772088206378D+03 -.288170904555329D+02 -.471930794435104D+01
0.126837710349D-03 0.000000000000D+00 0.000000000000D+00 0.306081710204D-02 0.000000000000D+00  5 -2 1 25 -24 21 0 0.19092005D-02 0.14160555D+00 0.11229160D+05 0.11229160D+05 0.11229160D+05 0.12624175D+01  1  2  2  2  5  2        1 0.160044100575D+00 0.100000000000D+01
-.704591571174D-05 0.000000000000D+00 -.487090204878D-06 0.306081710204D-02 0.000000000000D+00  5 -2 1 25 -24 21 2 0.19092005D-02 0.14160555D+00 0.11229160D+05 0.11229160D+05 0.11229160D+05 0.12624175D+01  1  2  3  2  5  2        1 -.141688547252D-01 0.100000000000D+01
0.877080770020D-05 0.000000000000D+00 0.000000000000D+00 0.306081710204D-02 0.000000000000D+00  5 -2 1 25 -24 21 2 0.19092005D-02 0.14160555D+00 0.11229160D+05 0.11229160D+05 0.11229160D+05 0.12624175D+01  1  2 15  2  5  2        1 0.176374945729D-01 0.100000000000D+01
-.180650982379D-04 0.000000000000D+00 -.437901598053D-04 0.306081710204D-02 0.000000000000D+00  5 -2 1 25 -24 21 2 0.19092005D-02 0.32001707D+00 0.11229160D+05 0.11229160D+05 0.11229160D+05 0.12624175D+01  1  2  5  2  5  2        1 -.627612966342D-02 0.100000000000D+01
0.116913329850D-05 0.000000000000D+00 -.387860806037D-05 0.306081710204D-02 0.000000000000D+00  5 -2 21 25 -24 -1 2 0.19092005D-02 0.32001707D+00 0.11229160D+05 0.11229160D+05 0.11229160D+05 0.12624175D+01  1  2  5  4  5  2        1 0.338508210316D-03 0.100000000000D+01
  </mgrwgt>
  </event>
  <event>
  4     66 0.46019439E-03 0.14601827E+03 0.75467711E-02 0.99903870E-01
       -2 -1    0    0    0  501 0.00000000E+00 0.00000000E+00 0.17421263E+02 0.17424201E+02 0.32000000E+00 0.0000E+00 0.9000E+01
        1 -1    0    0  501    0 0.00000000E+00 0.00000000E+00 -.15424553E+04 0.15424554E+04 0.32000000E+00 0.0000E+00 0.9000E+01
       25  1    1    2    0    0 0.99134709E+02 -.26331972E+02 -.11803723E+04 0.11913962E+04 0.12500000E+03 0.0000E+00 0.9000E+01
      -24  1    1    2    0    0 -.99134709E+02 0.26331972E+02 -.34466176E+03 0.36848339E+03 0.80419002E+02 0.0000E+00 0.9000E+01
#aMCatNLO 1  0  0  1  2 0.52292588D+03 0.00000000D+00  -5  5  0 0.00000000D+00 0.00000000D+00 0.00000000D+00 0.00000000D+00 0.00000000D+00
  <mgrwgt>
 0.2329237513D+00    5    2    0
 0.163932417409439D+03 0.000000000000000D+00 0.000000000000000D+00 0.163932417409439D+03
 0.163932417409439D+03 0.000000000000000D+00 0.000000000000000D+00 -.163932417409439D+03
 0.177898209213077D+03 0.991347092385751D+02 -.263319718945902D+02 -.741735095674022D+02
 0.149966625605801D+03 -.991347092385751D+02 0.263319718945902D+02 0.741735095674022D+02
 0.000000000000000D+00 0.000000000000000D+00 0.000000000000000D+00 0.000000000000000D+00
 0.104272666495653D+04 0.000000000000000D+00 0.000000000000000D+00 0.104272666495653D+04
 0.401726371807311D+03 0.000000000000000D+00 0.000000000000000D+00 -.401726371807311D+03
 0.360373187885497D+03 0.684377656086747D+02 -.322580838339325D+03 -.741735095674022D+02
 0.256835715459842D+03 -.122334137258557D+03 -.197560163294773D+03 0.741735095674022D+02
 0.827244133418502D+03 0.538963716498825D+02 0.520141001634098D+03 0.641000293149218D+03
0.688167765626D-03 0.000000000000D+00 0.000000000000D+00 0.187417226322D-02 0.000000000000D+00  5 -2 1 25 -24 21 0 0.26804229D-02 0.23730105D+00 0.21321335D+05 0.21321335D+05 0.21321335D+05 0.12307789D+01  1  2  2  1  5  1       -2 0.201882823936D+00 0.100000000000D+01
-.376090429996D-04 0.000000000000D+00 -.264274541874D-05 0.187417226322D-02 0.000000000000D+00  5 -2 1 25 -24 21 2 0.26804229D-02 0.23730105D+00 0.21321335D+05 0.21321335D+05 0.21321335D+05 0.12307789D+01  1  2  3  1  5  1       -2 -.167131155110D-01 0.100000000000D+01
0.474710739185D-04 0.000000000000D+00 0.000000000000D+00 0.187417226322D-02 0.000000000000D+00  5 -2 1 25 -24 21 2 0.26804229D-02 0.23730105D+00 0.21321335D+05 0.21321335D+05 0.21321335D+05 0.12307789D+01  1  2 15  1  5  1       -2 0.210957120563D-01 0.100000000000D+01
0.235065679222D-02 0.000000000000D+00 -.855968137552D-03 0.187417226322D-02 0.000000000000D+00  5 -2 1 25 -24 21 2 0.55740487D-01 0.23730105D+00 0.21321335D+05 0.21321335D+05 0.21321335D+05 0.12307789D+01  1  2  5  1  5  1       -2 0.698500553947D-02 0.100000000000D+01
0.538071478450D-03 0.000000000000D+00 -.276938717662D-03 0.187417226322D-02 0.000000000000D+00  5 21 1 25 -24 2 2 0.55740487D-01 0.23730105D+00 0.21321335D+05 0.21321335D+05 0.21321335D+05 0.12307789D+01  1  2  5  3  5  1       -2 0.196733252763D-01 0.100000000000D+01
  </mgrwgt>
  </event>
  <event>
  4     66 0.46019439E-03 0.56269844E+02 0.75467711E-02 0.12040856E+00
       -2 -1    0    0    0  501 0.00000000E+00 0.00000000E+00 0.26213727E+03 0.26213747E+03 0.32000000E+00 0.0000E+00 0.9000E+01
        1 -1    0    0  501    0 0.00000000E+00 0.00000000E+00 -.43655911E+02 0.43657084E+02 0.32000000E+00 0.0000E+00 0.9000E+01
       25  1    1    2    0    0 -.17445403E+02 -.14815747E+01 0.97593489E+02 0.15954945E+03 0.12500000E+03 0.0000E+00 0.9000E+01
      -24  1    1    2    0    0 0.17445403E+02 0.14815747E+01 0.12088787E+03 0.14624511E+03 0.80419002E+02 0.0000E+00 0.9000E+01
#aMCatNLO 1  0  0  2  1 0.73243283D+02 0.00000000D+00  -5  5  0 0.00000000D+00 0.00000000D+00 0.00000000D+00 0.00000000D+00 0.00000000D+00
  <mgrwgt>
 0.4416162450D-01    7    2    0
 0.106976870533376D+03 0.000000000000000D+00 0.000000000000000D+00 0.106976870533376D+03
 0.106976870533376D+03 0.000000000000000D+00 0.000000000000000D+00 -.106976870533376D+03
 0.128378188406973D+03 -.174454025181768D+02 -.148157472119853D+01 -.234397552457471D+02
 0.855755526597799D+02 0.174454025181768D+02 0.148157472119853D+01 0.234397552457471D+02
 0.000000000000000D+00 0.000000000000000D+00 0.000000000000000D+00 -.000000000000000D+00
 0.121854775324043D+03 0.000000000000000D+00 0.000000000000000D+00 0.121854775324043D+03
 0.265767043341198D+03 0.000000000000000D+00 0.000000000000000D+00 -.265767043341198D+03
 0.138551562395252D+03 -.352583299091918D+02 -.421777605877740D+02 -.234397552457471D+02
 0.875917147552188D+02 0.588949332598891D+01 -.249195562113712D+02 0.234397552457471D+02
 0.161478541514769D+03 0.293688365832028D+02 0.670973167991452D+02 -.143912268017155D+03
0.282207438383D-03 0.000000000000D+00 0.000000000000D+00 0.297597476783D-02 0.000000000000D+00  5 -2 1 25 -24 21 0 0.40328917D-01 0.67163993D-02 0.10870461D+05 0.10870461D+05 0.10870461D+05 0.12640872D+01  1  2  2  2  5  2        1 0.148845094999D+00 0.100000000000D+01
-.156655902585D-04 0.000000000000D+00 -.108375087032D-05 0.297597476783D-02 0.000000000000D+00  5 -2 1 25 -24 21 2 0.40328917D-01 0.67163993D-02 0.10870461D+05 0.10870461D+05 0.10870461D+05 0.12640872D+01  1  2  3  2  5  2        1 -.132028257841D-01 0.100000000000D+01
0.193092833551D-04 0.000000000000D+00 0.000000000000D+00 0.297597476783D-02 0.000000000000D+00  5 -2 1 25 -24 21 2 0.40328917D-01 0.67163993D-02 0.10870461D+05 0.10870461D+05 0.10870461D+05 0.12640872D+01  1  2 15  2  5  2        1 0.162736992317D-01 0.100000000000D+01
0.917509802275D-04 0.000000000000D+00 0.000000000000D+00 0.297597476783D-02 0.000000000000D+00  5 -2 1 25 -24 21 2 0.40328917D-01 0.16444018D-01 0.21637661D+05 0.21637661D+05 0.21637661D+05 0.12300807D+01  1  2 12  2  5  2        1 0.230063559117D-01 0.100000000000D+01
-.368985396749D-03 0.000000000000D+00 -.114200907609D-03 0.297597476783D-02 0.000000000000D+00  5 -2 1 25 -24 21 2 0.40328917D-01 0.18787770D-01 0.10870461D+05 0.10870461D+05 0.10870461D+05 0.12640872D+01  1  2  5  2  5  2        1 -.811747100069D-01 0.100000000000D+01
0.901425138649D-05 0.000000000000D+00 0.000000000000D+00 0.297597476783D-02 0.000000000000D+00  5 -2 21 25 -24 -1 2 0.40328917D-01 0.16444018D-01 0.21637661D+05 0.21637661D+05 0.21637661D+05 0.12300807D+01  1  2 12  4  5  2        1 0.214013046560D-01 0.100000000000D+01
-.362371377861D-04 0.000000000000D+00 -.131899359686D-04 0.297597476783D-02 0.000000000000D+00  5 -2 21 25 -24 -1 2 0.40328917D-01 0.18787770D-01 0.10870461D+05 0.10870461D+05 0.10870461D+05 0.12640872D+01  1  2  5  4  5  2        1 -.709872945038D-01 0.100000000000D+01
  </mgrwgt>
  </event>
  <event>
  4     66 0.46019439E-03 0.13926355E+03 0.75467711E-02 0.91501435E-01
       -2 -1    0    0    0  501 0.00000000E+00 0.00000000E+00 0.13855370E+03 0.13855407E+03 0.32000000E+00 0.0000E+00 0.9000E+01
        1 -1    0    0  501    0 0.00000000E+00 0.00000000E+00 -.14922319E+03 0.14922353E+03 0.32000000E+00 0.0000E+00 0.9000E+01
       25  1    1    2    0    0 -.27403283E+02 0.88699212E+02 -.41508962E+02 0.16114119E+03 0.12500000E+03 0.0000E+00 0.9000E+01
      -24  1    1    2    0    0 0.27403283E+02 -.88699212E+02 0.30839471E+02 0.12663641E+03 0.80419002E+02 0.0000E+00 0.9000E+01
#aMCatNLO 1  0  0  1  1 0.11415671D+04 0.00000000D+00  -5  5  0 0.00000000D+00 0.00000000D+00 0.00000000D+00 0.00000000D+00 0.00000000D+00
  <mgrwgt>
 0.3099402040D+00    3    2    0
 0.143789871031972D+03 0.000000000000000D+00 0.000000000000000D+00 0.143789871031972D+03
 0.143789871031972D+03 0.000000000000000D+00 0.000000000000000D+00 -.143789871031972D+03
 0.159712035750363D+03 -.274032829373229D+02 0.886992122693667D+02 -.355590240385787D+02
 0.127867706313580D+03 0.274032829373229D+02 -.886992122693667D+02 0.355590240385787D+02
 0.000000000000000D+00 0.000000000000000D+00 0.000000000000000D+00 -.000000000000000D+00
 0.808202050645678D+03 0.000000000000000D+00 0.000000000000000D+00 0.808202050645678D+03
 0.207229256954878D+04 0.000000000000000D+00 0.000000000000000D+00 -.207229256954878D+04
 0.542700910751514D+03 -.477377167254402D+03 -.223037832046740D+03 -.355590240385787D+02
 0.634532068176289D+03 -.460998859475003D+03 -.427058938510692D+03 0.355590240385787D+02
 0.170326164126665D+04 0.938376026729404D+03 0.650096770557432D+03 -.126409051890310D+04
0.894474112504D-03 0.000000000000D+00 0.000000000000D+00 0.232688098580D-02 0.000000000000D+00  5 -2 1 25 -24 21 0 0.21316008D-01 0.22957468D-01 0.19394336D+05 0.19394336D+05 0.19394336D+05 0.12352990D+01  1  2  2  1  5  1       -2 0.303643433628D+00 0.100000000000D+01
-.496311953249D-04 0.000000000000D+00 -.343501611246D-05 0.232688098580D-02 0.000000000000D+00  5 -2 1 25 -24 21 2 0.21316008D-01 0.22957468D-01 0.19394336D+05 0.19394336D+05 0.19394336D+05 0.12352990D+01  1  2  3  1  5  1       -2 -.257095845970D-01 0.100000000000D+01
0.617868270475D-04 0.000000000000D+00 0.000000000000D+00 0.232688098580D-02 0.000000000000D+00  5 -2 1 25 -24 21 2 0.21316008D-01 0.22957468D-01 0.19394336D+05 0.19394336D+05 0.19394336D+05 0.12352990D+01  1  2 15  1  5  1       -2 0.320063550064D-01 0.100000000000D+01
  </mgrwgt>
  </event>
  <event>
  4     66 0.46019439E-03 0.33183921E+03 0.75467711E-02 0.10156113E+00
       -2 -1    0    0    0  501 0.00000000E+00 0.00000000E+00 0.65938429E+02 0.65939205E+02 0.32000000E+00 0.0000E+00 0.9000E+01
        1 -1    0    0  501    0 0.00000000E+00 0.00000000E+00 -.16746726E+04 0.16746726E+04 0.32000000E+00 0.0000E+00 0.9000E+01
       25  1    1    2    0    0 -.12978569E+03 -.28683519E+03 -.77503663E+03 0.84582831E+03 0.12500000E+03 0.0000E+00 0.9000E+01
      -24  1    1    2    0    0 0.12978569E+03 0.28683519E+03 -.83369755E+03 0.89478353E+03 0.80419002E+02 0.0000E+00 0.9000E+01
#aMCatNLO 1  0  0  2  1 0.26979723D+03 0.00000000D+00  -5  5  0 0.00000000D+00 0.00000000D+00 0.00000000D+00 0.00000000D+00 0.00000000D+00
  <mgrwgt>
 0.2937626293D+00    3    2    0
 0.332304050852227D+03 0.000000000000000D+00 0.000000000000000D+00 0.332304050852227D+03
 0.332304050852227D+03 0.000000000000000D+00 0.000000000000000D+00 -.332304050852227D+03
 0.339193662957574D+03 -.129785689774794D+03 -.286835190632316D+03 0.175667053023554D+02
 0.325414438746880D+03 0.129785689774794D+03 0.286835190632316D+03 -.175667053023554D+02
 0.000000000000000D+00 0.000000000000000D+00 0.000000000000000D+00 0.000000000000000D+00
 0.582734126940602D+03 0.000000000000000D+00 0.000000000000000D+00 0.582734126940602D+03
 0.439847166645782D+03 0.000000000000000D+00 0.000000000000000D+00 -.439847166645782D+03
 0.490910217441179D+03 -.226701769215687D+03 -.416732000556045D+03 0.175667053023554D+02
 0.226372484981825D+03 0.653636016515001D+02 0.200490140521773D+03 -.175667053023554D+02
 0.305298591163380D+03 0.161338167564187D+03 0.216241860034271D+03 0.142886960294820D+03
0.929051297372D-02 0.000000000000D+00 0.000000000000D+00 0.198228180928D-02 0.000000000000D+00  5 -2 1 25 -24 21 0 0.10144436D-01 0.25764200D+00 0.11011726D+06 0.11011726D+06 0.11011726D+06 0.11597462D+01  1  2  2  2  5  2        1 0.288811977782D+00 0.100000000000D+01
-.516138379956D-03 0.000000000000D+00 -.356780160673D-04 0.198228180928D-02 0.000000000000D+00  5 -2 1 25 -24 21 2 0.10144436D-01 0.25764200D+00 0.11011726D+06 0.11011726D+06 0.11011726D+06 0.11597462D+01  1  2  3  2  5  2        1 -.215808018609D-01 0.100000000000D+01
0.634540896415D-03 0.000000000000D+00 0.000000000000D+00 0.198228180928D-02 0.000000000000D+00  5 -2 1 25 -24 21 2 0.10144436D-01 0.25764200D+00 0.11011726D+06 0.11011726D+06 0.11011726D+06 0.11597462D+01  1  2 15  2  5  2        1 0.265314533659D-01 0.100000000000D+01
  </mgrwgt>
  </event>
  <event>
  5     66 0.46019439E-03 0.18813822E+03 0.75467711E-02 0.11202006E+00
       21 -1    0    0  502  501 0.00000000E+00 0.00000000E+00 0.83606026E+03 0.83606060E+03 0.75000000E+00 0.0000E+00 0.9000E+01
        1 -1    0    0  501    0 0.00000000E+00 0.00000000E+00 -.95128683E+02 0.95129222E+02 0.32000000E+00 0.0000E+00 0.9000E+01
       25  1    1    2    0    0 0.17453618E+03 -.57402753E+02 0.11174010E+03 0.24873440E+03 0.12500000E+03 0.0000E+00 0.9000E+01
      -24  1    1    2    0    0 -.14069870E+03 -.28211007E+02 0.31934005E+03 0.35921758E+03 0.80419002E+02 0.0000E+00 0.9000E+01
        2  1    1    2  502    0 -.33837479E+02 0.85613760E+02 0.30985143E+03 0.32323784E+03 0.32000000E+00 0.0000E+00 0.9000E+01
#aMCatNLO 2  0  0  1  2 0.92058084D+02 0.00000000D+00  -5  5  0 0.00000000D+00 0.00000000D+00 0.00000000D+00 0.00000000D+00 0.00000000D+00
  <mgrwgt>
 0.2330208156D-01    2    2    0
 0.209344705196489D+03 0.000000000000000D+00 0.000000000000000D+00 0.209344705196489D+03
 0.209344705196489D+03 0.000000000000000D+00 0.000000000000000D+00 -.209344705196489D+03
 0.220280955097143D+03 0.156141018668069D+03 -.108603211089391D+02 -.916555229826207D+02
 0.198408455295836D+03 -.156141018668069D+03 0.108603211089391D+02 0.916555229826207D+02
 0.000000000000000D+00 -.000000000000000D+00 0.000000000000000D+00 0.000000000000000D+00
 0.344946978987162D+03 0.000000000000000D+00 0.000000000000000D+00 0.344946978987162D+03
 0.230567623495516D+03 0.000000000000000D+00 0.000000000000000D+00 -.230567623495516D+03
 0.240382377996473D+03 0.174536175943078D+03 -.574027529408505D+02 -.916555229826207D+02
 0.188308085246970D+03 -.140698696535852D+03 -.282110069813921D+02 0.916555229826207D+02
 0.146824139239235D+03 -.338374794072262D+02 0.856137599222426D+02 0.114379355491646D+03
-.905179952435D-04 0.000000000000D+00 0.000000000000D+00 0.174652341554D-02 0.000000000000D+00  5 21 1 25 -24 2 2 0.13042413D+00 0.13288118D-01 0.57307009D+05 0.57307009D+05 0.57307009D+05 0.11864593D+01  1  2 13  3  5  1       -2 -.250653540925D-01 0.100000000000D+01
0.191542240939D-03 0.000000000000D+00 0.000000000000D+00 0.174652341554D-02 0.118512730914D-06  5 21 1 25 -24 2 2 0.12862463D+00 0.14635239D-01 0.57307009D+05 0.57307009D+05 0.57307009D+05 0.11864593D+01  1  2  1  3  5  1       -2 0.483674356512D-01 0.100000000000D+01
  </mgrwgt>
  </event>
  <event>
  4     66 0.46019439E-03 0.11324532E+03 0.75467711E-02 0.11509896E+00
       -2 -1    0    0    0  501 0.00000000E+00 0.00000000E+00 0.65533545E+01 0.65611626E+01 0.32000000E+00 0.0000E+00 0.9000E+01
        1 -1    0    0  501    0 0.00000000E+00 0.00000000E+00 -.19617369E+04 0.19617369E+04 0.32000000E+00 0.0000E+00 0.9000E+01
       25  1    1    2    0    0 0.40150130E+02 0.23980727E+02 -.10981469E+04 0.11062272E+04 0.12500000E+03 0.0000E+00 0.9000E+01
      -24  1    1    2    0    0 -.40150130E+02 -.23980727E+02 -.85703669E+03 0.86207089E+03 0.80419002E+02 0.0000E+00 0.9000E+01
#aMCatNLO 1  0  0  2  2 0.13392818D+03 0.00000000D+00  -5  5  0 0.00000000D+00 0.00000000D+00 0.00000000D+00 0.00000000D+00 0.00000000D+00
  <mgrwgt>
 0.2696475434D+00    3    2    0
 0.113418108430700D+03 0.000000000000000D+00 0.000000000000000D+00 0.113418108430700D+03
 0.113418108430700D+03 0.000000000000000D+00 0.000000000000000D+00 -.113418108430700D+03
 0.133604003285455D+03 0.401501296273567D+02 0.239807266687683D+02 0.615804621971757D+01
 0.932322135759440D+02 -.401501296273567D+02 -.239807266687683D+02 -.615804621971757D+01
 0.000000000000000D+00 0.000000000000000D+00 -.000000000000000D+00 0.000000000000000D+00
 0.372391944043639D+03 0.000000000000000D+00 0.000000000000000D+00 0.372391944043639D+03
 0.150342544422356D+03 0.000000000000000D+00 0.000000000000000D+00 -.150342544422356D+03
 0.159134054236893D+03 0.947100389600018D+01 0.978316194787155D+02 0.615804621971757D+01
 0.104288471841124D+03 -.608504170916586D+02 0.258490736993289D+02 -.615804621971757D+01
 0.259311962387978D+03 0.513794131956584D+02 -.123680693178044D+03 0.222049399621283D+03
0.408521115570D-03 0.000000000000D+00 0.000000000000D+00 0.291670977673D-02 0.000000000000D+00  5 -2 1 25 -24 21 0 0.10088110D-02 0.30180628D+00 0.12824501D+05 0.12824501D+05 0.12824501D+05 0.12556558D+01  1  2  2  2  5  2        1 0.264002354423D+00 0.100000000000D+01
-.226955533849D-04 0.000000000000D+00 -.156882864987D-05 0.291670977673D-02 0.000000000000D+00  5 -2 1 25 -24 21 2 0.10088110D-02 0.30180628D+00 0.12824501D+05 0.12824501D+05 0.12824501D+05 0.12556558D+01  1  2  3  2  5  2        1 -.231246575001D-01 0.100000000000D+01
0.282359894738D-04 0.000000000000D+00 0.000000000000D+00 0.291670977673D-02 0.000000000000D+00  5 -2 1 25 -24 21 2 0.10088110D-02 0.30180628D+00 0.12824501D+05 0.12824501D+05 0.12824501D+05 0.12556558D+01  1  2 15  2  5  2        1 0.287698464402D-01 0.100000000000D+01
  </mgrwgt>
  </event>
  <event>
  4     66 0.46019439E-03 0.14462153E+03 0.75467711E-02 0.11625048E+00
       -2 -1    0    0    0  501 0.00000000E+00 0.00000000E+00 0.32938929E+02 0.32940484E+02 0.32000000E+00 0.0000E+00 0.9000E+01
        1 -1    0    0  501    0 0.00000000E+00 0.00000000E+00 -.73219551E+03 0.73219558E+03 0.32000000E+00 0.0000E+00 0.9000E+01
       25  1    1    2    0    0 -.64765653E+02 0.76975960E+02 -.52150625E+03 0.54563143E+03 0.12500000E+03 0.0000E+00 0.9000E+01
      -24  1    1    2    0    0 0.64765653E+02 -.76975960E+02 -.17775033E+03 0.21950463E+03 0.80419002E+02 0.0000E+00 0.9000E+01
#aMCatNLO 1  0  0  2  2 0.72727507D+02 0.00000000D+00  -5  5  0 0.00000000D+00 0.00000000D+00 0.00000000D+00 0.00000000D+00 0.00000000D+00
  <mgrwgt>
 0.2697792379D+00    3    2    0
 0.155300861086730D+03 0.000000000000000D+00 0.000000000000000D+00 0.155300861086730D+03
 0.155300861086730D+03 0.000000000000000D+00 0.000000000000000D+00 -.155300861086730D+03
 0.170042865705293D+03 -.647656532256631D+02 0.769759595865436D+02 -.562999821070325D+02
 0.140558856468167D+03 0.647656532256631D+02 -.769759595865436D+02 0.562999821070325D+02
 0.000000000000000D+00 -.000000000000000D+00 0.000000000000000D+00 0.000000000000000D+00
 0.366040498575124D+03 0.000000000000000D+00 0.000000000000000D+00 0.366040498575124D+03
 0.165903633257720D+03 0.000000000000000D+00 0.000000000000000D+00 -.165903633257720D+03
 0.154182135567413D+03 -.296216256750233D+02 0.640312598286562D+02 -.562999821070325D+02
 0.164820560430074D+03 0.978669335055363D+02 -.891682484244470D+02 0.562999821070325D+02
 0.212941435835356D+03 -.682453078305129D+02 0.251369885957908D+02 0.200136865317404D+03
0.609836061287D-03 0.000000000000D+00 0.000000000000D+00 0.208292981061D-02 0.000000000000D+00  5 -2 1 25 -24 21 0 0.50676525D-02 0.11264559D+00 0.20915388D+05 0.20915388D+05 0.20915388D+05 0.12316920D+01  1  2  2  2  5  2        1 0.264259701637D+00 0.100000000000D+01
-.336706978909D-04 0.000000000000D+00 -.234193104887D-05 0.208292981061D-02 0.000000000000D+00  5 -2 1 25 -24 21 2 0.50676525D-02 0.11264559D+00 0.20915388D+05 0.20915388D+05 0.20915388D+05 0.12316920D+01  1  2  3  2  5  2        1 -.221347298919D-01 0.100000000000D+01
0.420668536425D-04 0.000000000000D+00 0.000000000000D+00 0.208292981061D-02 0.000000000000D+00  5 -2 1 25 -24 21 2 0.50676525D-02 0.11264559D+00 0.20915388D+05 0.20915388D+05 0.20915388D+05 0.12316920D+01  1  2 15  2  5  2        1 0.276542662049D-01 0.100000000000D+01
  </mgrwgt>
  </event>
  <event>
  4     66 0.46019439E-03 0.26791344E+03 0.75467711E-02 0.10481883E+00
       -2 -1    0    0    0  501 0.00000000E+00 0.00000000E+00 0.88852108E+03 0.88852113E+03 0.32000000E+00 0.0000E+00 0.9000E+01
        1 -1    0    0  501    0 0.00000000E+00 0.00000000E+00 -.81564177E+02 0.81564805E+02 0.32000000E+00 0.0000E+00 0.9000E+01
       25  1    1    2    0    0 -.79553133E+01 -.24645738E+03 0.46367325E+03 0.53983554E+03 0.12500000E+03 0.0000E+00 0.9000E+01
      -24  1    1    2    0    0 0.79553133E+01 0.24645738E+03 0.34328365E+03 0.43025040E+03 0.80419002E+02 0.0000E+00 0.9000E+01
#aMCatNLO 1  0  0  1  2 0.20254396D+03 0.00000000D+00  -5  5  0 0.00000000D+00 0.00000000D+00 0.00000000D+00 0.00000000D+00 0.00000000D+00
  <mgrwgt>
 0.2241061104D+00    6    2    0
 0.269205912126529D+03 0.000000000000000D+00 0.000000000000000D+00 0.269205912126529D+03
 0.269205912126529D+03 0.000000000000000D+00 0.000000000000000D+00 -.269205912126529D+03
 0.277710353924714D+03 -.795531325987492D+01 -.246457379323699D+03 0.263346510290466D+02
 0.260701470328344D+03 0.795531325987492D+01 0.246457379323699D+03 -.263346510290466D+02
 0.000000000000000D+00 0.000000000000000D+00 0.000000000000000D+00 0.000000000000000D+00
 0.418161414374175D+03 0.000000000000000D+00 0.000000000000000D+00 0.418161414374175D+03
 0.366192375119544D+03 0.000000000000000D+00 0.000000000000000D+00 -.366192375119544D+03
 0.387288608135363D+03 -.378457380019258D+02 -.363650453405045D+03 0.263346510290466D+02
 0.187960336049689D+03 -.122111722886600D+02 0.167389502060484D+03 -.263346510290466D+02
 0.209104845308667D+03 0.500569102905858D+02 0.196260951344561D+03 0.519690392546309D+02
0.877970180255D-02 0.000000000000D+00 0.000000000000D+00 0.201895132376D-02 0.000000000000D+00  5 -2 1 25 -24 21 0 0.13669560D+00 0.12548388D-01 0.71777610D+05 0.71777610D+05 0.71777610D+05 0.11770373D+01  1  2  2  1  5  1       -2 0.146872156443D+00 0.100000000000D+01
-.487747475478D-03 0.000000000000D+00 -.337163666704D-04 0.201895132376D-02 0.000000000000D+00  5 -2 1 25 -24 21 2 0.13669560D+00 0.12548388D-01 0.71777610D+05 0.71777610D+05 0.71777610D+05 0.11770373D+01  1  2  3  1  5  1       -2 -.113040799686D-01 0.100000000000D+01
0.602781581300D-03 0.000000000000D+00 0.000000000000D+00 0.201895132376D-02 0.000000000000D+00  5 -2 1 25 -24 21 2 0.13669560D+00 0.12548388D-01 0.71777610D+05 0.71777610D+05 0.71777610D+05 0.11770373D+01  1  2 15  1  5  1       -2 0.139701208949D-01 0.100000000000D+01
-.277735253773D-02 0.000000000000D+00 -.222673254308D-02 0.201895132376D-02 0.000000000000D+00  5 -2 1 25 -24 21 2 0.25654766D+00 0.12548388D-01 0.71777610D+05 0.71777610D+05 0.71777610D+05 0.11770373D+01  1  2  5  1  5  1       -2 -.104974810345D-01 0.100000000000D+01
0.378296446167D-02 0.000000000000D+00 0.184821146239D-02 0.201895132376D-02 0.000000000000D+00  5 -2 1 25 -24 21 2 0.13669560D+00 0.12548388D-01 0.71777610D+05 0.71777610D+05 0.71777610D+05 0.11770373D+01  1  2  6  1  5  1       -2 0.876743293264D-01 0.100000000000D+01
-.649739425105D-04 0.000000000000D+00 -.152574486204D-03 0.201895132376D-02 0.000000000000D+00  5 21 1 25 -24 2 2 0.25654766D+00 0.12548388D-01 0.71777610D+05 0.71777610D+05 0.71777610D+05 0.11770373D+01  1  2  5  3  5  1       -2 -.260893527966D-02 0.100000000000D+01
  </mgrwgt>
  </event>
  <event>
  4     66 0.46019439E-03 0.70913194E+02 0.75467711E-02 0.12248548E+00
       -2 -1    0    0    0  501 0.00000000E+00 0.00000000E+00 0.51925611E+01 0.52024120E+01 0.32000000E+00 0.0000E+00 0.9000E+01
        1 -1    0    0  501    0 0.00000000E+00 0.00000000E+00 -.27975563E+04 0.27975563E+04 0.32000000E+00 0.0000E+00 0.9000E+01
       25  1    1    2    0    0 -.57899608E+01 -.61804040E+02 -.16298983E+04 0.16358626E+04 0.12500000E+03 0.0000E+00 0.9000E+01
      -24  1    1    2    0    0 0.57899608E+01 0.61804040E+02 -.11624655E+04 0.11668961E+04 0.80419002E+02 0.0000E+00 0.9000E+01
#aMCatNLO 1  0  0  1  2 0.21432577D+02 0.00000000D+00  -5  5  0 0.00000000D+00 0.00000000D+00 0.00000000D+00 0.00000000D+00 0.00000000D+00
  <mgrwgt>
 0.2345813917D+00    9    2    0
 0.120583218505809D+03 0.000000000000000D+00 0.000000000000000D+00 0.120583218505809D+03
 0.120583218505809D+03 0.000000000000000D+00 0.000000000000000D+00 -.120583218505809D+03
 0.139569658242422D+03 -.578996081669966D+01 -.618040400345207D+02 -.119435801115425D+01
 0.101596778769196D+03 0.578996081669966D+01 0.618040400345207D+02 0.119435801115425D+01
 0.000000000000000D+00 -.000000000000000D+00 0.000000000000000D+00 0.000000000000000D+00
 0.141959312579238D+03 0.000000000000000D+00 0.000000000000000D+00 0.141959312579238D+03
 0.126552920593039D+03 0.000000000000000D+00 0.000000000000000D+00 -.126552920593039D+03
 0.145278408783834D+03 -.243518540868245D+01 -.739828320607509D+02 -.119435801115425D+01
 0.968385168658568D+02 0.812701669644953D+01 0.533198603051913D+02 0.119435801115425D+01
 0.263953075225861D+02 -.569183128776708D+01 0.206629717555596D+02 0.154063919861996D+02
0.109541180161D-02 0.000000000000D+00 0.000000000000D+00 0.277204693577D-02 0.000000000000D+00  5 -2 1 25 -24 21 0 0.79961472D-03 0.43039404D+00 0.14538850D+05 0.14538850D+05 0.14538850D+05 0.12493715D+01  1  2  2  1  5  1       -2 0.284796980385D+00 0.100000000000D+01
-.608562110131D-04 0.000000000000D+00 -.420666974672D-05 0.277204693577D-02 0.000000000000D+00  5 -2 1 25 -24 21 2 0.79961472D-03 0.43039404D+00 0.14538850D+05 0.14538850D+05 0.14538850D+05 0.12493715D+01  1  2  3  1  5  1       -2 -.246971056566D-01 0.100000000000D+01
0.757406488655D-04 0.000000000000D+00 0.000000000000D+00 0.277204693577D-02 0.000000000000D+00  5 -2 1 25 -24 21 2 0.79961472D-03 0.43039404D+00 0.14538850D+05 0.14538850D+05 0.14538850D+05 0.12493715D+01  1  2 15  1  5  1       -2 0.307376153788D-01 0.100000000000D+01
0.148833112083D-02 0.000000000000D+00 0.000000000000D+00 0.277204693577D-02 0.000000000000D+00  5 -2 1 25 -24 21 2 0.95864655D-03 0.43039404D+00 0.17362968D+05 0.17362968D+05 0.17362968D+05 0.12406441D+01  1  2 12  1  5  1       -2 0.459783551247D+00 0.100000000000D+01
-.149895068014D-02 0.000000000000D+00 0.000000000000D+00 0.277204693577D-02 0.000000000000D+00  5 -2 1 25 -24 21 2 0.79961472D-03 0.43039404D+00 0.14538850D+05 0.14538850D+05 0.14538850D+05 0.12493715D+01  1  2  4  1  5  1       -2 -.608314955945D+00 0.100000000000D+01
-.278022406695D-02 0.000000000000D+00 -.627629096720D-03 0.277204693577D-02 0.000000000000D+00  5 -2 1 25 -24 21 2 0.10043457D-02 0.43039404D+00 0.14538850D+05 0.14538850D+05 0.14538850D+05 0.12493715D+01  1  2  5  1  5  1       -2 -.815597393054D+00 0.100000000000D+01
0.286450930604D-02 0.000000000000D+00 0.611667066662D-03 0.277204693577D-02 0.000000000000D+00  5 -2 1 25 -24 21 2 0.79961472D-03 0.43039404D+00 0.14538850D+05 0.14538850D+05 0.14538850D+05 0.12493715D+01  1  2  6  1  5  1       -2 0.116249578815D+01 0.100000000000D+01
0.394902888002D-04 0.000000000000D+00 0.000000000000D+00 0.277204693577D-02 0.000000000000D+00  5 21 1 25 -24 2 2 0.95864655D-03 0.43039404D+00 0.17362968D+05 0.17362968D+05 0.17362968D+05 0.12406441D+01  1  2 12  3  5  1       -2 0.286883749941D+00 0.100000000000D+01
-.788282800604D-04 0.000000000000D+00 -.198330762298D-04 0.277204693577D-02 0.000000000000D+00  5 21 1 25 -24 2 2 0.10043457D-02 0.43039404D+00 0.14538850D+05 0.14538850D+05 0.14538850D+05 0.12493715D+01  1  2  5  3  5  1       -2 -.541506838732D+00 0.100000000000D+01
  </mgrwgt>
  </event>
  <event>
  4     66 0.46019439E-03 0.11894346E+03 0.75467711E-02 0.11970285E+00
       -4 -1    0    0    0  501 0.00000000E+00 0.00000000E+00 0.63796203E+02 0.63815030E+02 0.15500000E+01 0.0000E+00 0.9000E+01
        3 -1    0    0  501    0 0.00000000E+00 0.00000000E+00 -.22635675E+03 0.22635730E+03 0.50000000E+00 0.0000E+00 0.9000E+01
       25  1    1    2    0    0 -.44282927E+02 -.38870998E+02 -.73663403E+02 0.15659894E+03 0.12500000E+03 0.0000E+00 0.9000E+01
      -24  1    1    2    0    0 0.44282927E+02 0.38870998E+02 -.88897144E+02 0.13357339E+03 0.80419002E+02 0.0000E+00 0.9000E+01
#aMCatNLO 1  0  0  2  2 0.60229737D+02 0.00000000D+00  -5  5  0 0.00000000D+00 0.00000000D+00 0.00000000D+00 0.00000000D+00 0.00000000D+00
  <mgrwgt>
 0.3621548994D-01    3    2    0
 0.120181166611663D+03 0.000000000000000D+00 0.000000000000000D+00 0.120181166611663D+03
 0.120181166611663D+03 0.000000000000000D+00 0.000000000000000D+00 -.120181166611663D+03
 0.139231123239269D+03 -.442829274258775D+02 -.388709979789912D+02 0.169815645092071D+02
 0.101131209984056D+03 0.442829274258775D+02 0.388709979789912D+02 -.169815645092071D+02
 0.000000000000000D+00 -.000000000000000D+00 -.000000000000000D+00 0.000000000000000D+00
 0.252852288779041D+03 0.000000000000000D+00 0.000000000000000D+00 0.252852288779041D+03
 0.130929504925851D+03 0.000000000000000D+00 0.000000000000000D+00 -.130929504925851D+03
 0.131465632951872D+03 -.364533490047937D+02 -.640253548141169D+01 0.169815645092071D+02
 0.116327975693937D+03 0.505726730866959D+02 0.649539312002321D+02 -.169815645092071D+02
 0.135988185059083D+03 -.141193240819021D+02 -.585513957188204D+02 0.121922783853190D+03
0.293647713613D-03 0.000000000000D+00 0.000000000000D+00 0.273181494637D-02 0.000000000000D+00  5 -4 3 25 -24 21 0 0.98162912D-02 0.34825606D-01 0.14147547D+05 0.14147547D+05 0.14147547D+05 0.12507298D+01  1  2  2  2  5  2        3 0.354612156893D-01 0.100000000000D+01
-.163116362360D-04 0.000000000000D+00 -.112768453949D-05 0.273181494637D-02 0.000000000000D+00  5 -4 3 25 -24 21 2 0.98162912D-02 0.34825606D-01 0.14147547D+05 0.14147547D+05 0.14147547D+05 0.12507298D+01  1  2  3  2  5  2        3 -.308142420450D-02 0.100000000000D+01
0.203044156527D-04 0.000000000000D+00 0.000000000000D+00 0.273181494637D-02 0.000000000000D+00  5 -4 3 25 -24 21 2 0.98162912D-02 0.34825606D-01 0.14147547D+05 0.14147547D+05 0.14147547D+05 0.12507298D+01  1  2 15  2  5  2        3 0.383569845142D-02 0.100000000000D+01
  </mgrwgt>
  </event>
  <event>
  4     66 0.46019439E-03 0.11600747E+03 0.75467711E-02 0.11798364E+00
       -2 -1    0    0    0  501 0.00000000E+00 0.00000000E+00 0.10589379E+02 0.10594213E+02 0.32000000E+00 0.0000E+00 0.9000E+01
        1 -1    0    0  501    0 0.00000000E+00 0.00000000E+00 -.20704137E+04 0.20704137E+04 0.32000000E+00 0.0000E+00 0.9000E+01
       25  1    1    2    0    0 -.52899278E+02 0.16656593E+01 -.49648537E+03 0.51470752E+03 0.12500000E+03 0.0000E+00 0.9000E+01
      -24  1    1    2    0    0 0.52899278E+02 -.16656593E+01 -.15633389E+04 0.15663004E+04 0.80419002E+02 0.0000E+00 0.9000E+01
#aMCatNLO 1  0  0  2  2 0.90377977D+02 0.00000000D+00  -5  5  0 0.00000000D+00 0.00000000D+00 0.00000000D+00 0.00000000D+00 0.00000000D+00
  <mgrwgt>
 0.2277245858D+00    7    2    0
 0.148085957277067D+03 0.000000000000000D+00 0.000000000000000D+00 0.148085957277067D+03
 0.148085957277067D+03 0.000000000000000D+00 0.000000000000000D+00 -.148085957277067D+03
 0.163546207887622D+03 -.528992781600109D+02 0.166565931336379D+01 0.912209080398937D+02
 0.132625706666512D+03 0.528992781600109D+02 -.166565931336379D+01 -.912209080398937D+02
 0.000000000000000D+00 0.000000000000000D+00 0.000000000000000D+00 -.000000000000000D+00
 0.195245643004396D+03 0.000000000000000D+00 0.000000000000000D+00 0.195245643004396D+03
 0.205350040820609D+03 0.000000000000000D+00 0.000000000000000D+00 -.205350040820609D+03
 0.185207673577797D+03 -.994505377643473D+02 -.215689319823480D+02 0.912209080398937D+02
 0.124446943323957D+03 0.185855219471854D+02 -.187922872113428D+02 -.912209080398937D+02
 0.909410669232514D+02 0.808650158171619D+02 0.403612191936909D+02 -.101043978162127D+02
0.621882089892D-03 0.000000000000D+00 0.000000000000D+00 0.158626461145D-02 0.000000000000D+00  5 -2 1 25 -24 21 0 0.16295090D-02 0.31852555D+00 0.13457733D+05 0.13457733D+05 0.13457733D+05 0.12532302D+01  1  2  2  2  5  2        1 0.172830024259D+00 0.100000000000D+01
-.320452664367D-04 0.000000000000D+00 -.238819097050D-05 0.158626461145D-02 0.000000000000D+00  5 -2 1 25 -24 21 2 0.16295090D-02 0.31852555D+00 0.13457733D+05 0.13457733D+05 0.13457733D+05 0.12532302D+01  1  2  3  2  5  2        1 -.139873924157D-01 0.100000000000D+01
0.425142838684D-04 0.000000000000D+00 0.000000000000D+00 0.158626461145D-02 0.000000000000D+00  5 -2 1 25 -24 21 2 0.16295090D-02 0.31852555D+00 0.13457733D+05 0.13457733D+05 0.13457733D+05 0.12532302D+01  1  2 15  2  5  2        1 0.185569988289D-01 0.100000000000D+01
-.228921032356D-03 0.000000000000D+00 0.000000000000D+00 0.158626461145D-02 0.000000000000D+00  5 -2 1 25 -24 21 2 0.16295090D-02 0.31852555D+00 0.13457733D+05 0.13457733D+05 0.13457733D+05 0.12532302D+01  1  2  4  2  5  2        1 -.999214132949D-01 0.100000000000D+01
-.330374229308D-03 0.000000000000D+00 -.220179581269D-03 0.158626461145D-02 0.000000000000D+00  5 -2 1 25 -24 21 2 0.16295090D-02 0.48956680D+00 0.13457733D+05 0.13457733D+05 0.13457733D+05 0.12532302D+01  1  2  5  2  5  2        1 -.266263324165D-01 0.100000000000D+01
0.405826070107D-03 0.000000000000D+00 0.201297342094D-03 0.158626461145D-02 0.000000000000D+00  5 -2 1 25 -24 21 2 0.16295090D-02 0.31852555D+00 0.13457733D+05 0.13457733D+05 0.13457733D+05 0.12532302D+01  1  2  6  2  5  2        1 0.177138439660D+00 0.100000000000D+01
-.831918703163D-05 0.000000000000D+00 -.110533229005D-04 0.158626461145D-02 0.000000000000D+00  5 -2 21 25 -24 -1 2 0.16295090D-02 0.48956680D+00 0.13457733D+05 0.13457733D+05 0.13457733D+05 0.12532302D+01  1  2  5  4  5  2        1 -.265738816355D-03 0.100000000000D+01
  </mgrwgt>
  </event>
  <event>
  4     66 0.46019439E-03 0.10361451E+03 0.75467711E-02 0.10933467E+00
       -2 -1    0    0    0  501 0.00000000E+00 0.00000000E+00 0.23346723E+02 0.23348916E+02 0.32000000E+00 0.0000E+00 0.9000E+01
        1 -1    0    0  501    0 0.00000000E+00 0.00000000E+00 -.46749508E+03 0.46749519E+03 0.32000000E+00 0.0000E+00 0.9000E+01
       25  1    1    2    0    0 -.12488673E+02 -.47028533E+01 -.29937890E+03 0.32470111E+03 0.12500000E+03 0.0000E+00 0.9000E+01
      -24  1    1    2    0    0 0.12488673E+02 0.47028533E+01 -.14476946E+03 0.16614300E+03 0.80419002E+02 0.0000E+00 0.9000E+01
#aMCatNLO 1  0  0  1  2 0.24656233D+03 0.00000000D+00  -5  5  0 0.00000000D+00 0.00000000D+00 0.00000000D+00 0.00000000D+00 0.00000000D+00
  <mgrwgt>
 0.3043775333D+00    3    2    0
 0.104475083653763D+03 0.000000000000000D+00 0.000000000000000D+00 0.104475083653763D+03
 0.104475083653763D+03 0.000000000000000D+00 0.000000000000000D+00 -.104475083653763D+03
 0.126388882919000D+03 -.124886732982206D+02 -.470285330134509D+01 -.130792176978952D+02
 0.825612843885264D+02 0.124886732982206D+02 0.470285330134509D+01 0.130792176978952D+02
 0.000000000000000D+00 -.000000000000000D+00 -.000000000000000D+00 -.000000000000000D+00
 0.185140035883395D+03 0.000000000000000D+00 0.000000000000000D+00 0.185140035883395D+03
 0.807122148219484D+03 0.000000000000000D+00 0.000000000000000D+00 -.807122148219484D+03
 0.189258062705257D+03 -.564386922096548D+01 0.141388454633237D+03 -.130792176978952D+02
 0.133934071706415D+03 0.171833751372476D+02 0.104903695324771D+03 0.130792176978952D+02
 0.669070049691206D+03 -.115395059162821D+02 -.246292149958008D+03 -.621982112336089D+03
0.229517826760D-03 0.000000000000D+00 0.000000000000D+00 0.313980437050D-02 0.000000000000D+00  5 -2 1 25 -24 21 0 0.35919806D-02 0.71922497D-01 0.10735967D+05 0.10735967D+05 0.10735967D+05 0.12647293D+01  1  2  2  1  5  1       -2 0.297954723373D+00 0.100000000000D+01
-.127499297472D-04 0.000000000000D+00 -.881408888191D-06 0.313980437050D-02 0.000000000000D+00  5 -2 1 25 -24 21 2 0.35919806D-02 0.71922497D-01 0.10735967D+05 0.10735967D+05 0.10735967D+05 0.12647293D+01  1  2  3  1  5  1       -2 -.264750502558D-01 0.100000000000D+01
0.158430447344D-04 0.000000000000D+00 0.000000000000D+00 0.313980437050D-02 0.000000000000D+00  5 -2 1 25 -24 21 2 0.35919806D-02 0.71922497D-01 0.10735967D+05 0.10735967D+05 0.10735967D+05 0.12647293D+01  1  2 15  1  5  1       -2 0.328978601346D-01 0.100000000000D+01
  </mgrwgt>
  </event>
  <event>
  4     66 0.46019439E-03 0.18987615E+03 0.75467711E-02 0.10312667E+00
       -2 -1    0    0    0  501 0.00000000E+00 0.00000000E+00 0.10602298E+04 0.10602298E+04 0.32000000E+00 0.0000E+00 0.9000E+01
        1 -1    0    0  501    0 0.00000000E+00 0.00000000E+00 -.36674094E+02 0.36675490E+02 0.32000000E+00 0.0000E+00 0.9000E+01
       25  1    1    2    0    0 0.52279790E+02 -.14972993E+03 0.68961640E+03 0.71857359E+03 0.12500000E+03 0.0000E+00 0.9000E+01
      -24  1    1    2    0    0 -.52279790E+02 0.14972993E+03 0.33393927E+03 0.37833171E+03 0.80419002E+02 0.0000E+00 0.9000E+01
#aMCatNLO 1  0  0  1  2 0.35617433D+03 0.00000000D+00  -5  5  0 0.00000000D+00 0.00000000D+00 0.00000000D+00 0.00000000D+00 0.00000000D+00
  <mgrwgt>
 0.2686394790D+00    3    2    0
 0.197189649382410D+03 0.000000000000000D+00 0.000000000000000D+00 0.197189649382410D+03
 0.197189649382410D+03 0.000000000000000D+00 0.000000000000000D+00 -.197189649382410D+03
 0.208800025579020D+03 0.522797896315312D+02 -.149729934066380D+03 0.531057541360595D+02
 0.185579273185800D+03 -.522797896315312D+02 0.149729934066380D+03 -.531057541360595D+02
 0.000000000000000D+00 0.000000000000000D+00 -.000000000000000D+00 -.000000000000000D+00
 0.292325398747146D+03 0.000000000000000D+00 0.000000000000000D+00 0.292325398747146D+03
 0.145705572200259D+04 0.000000000000000D+00 0.000000000000000D+00 -.145705572200259D+04
 0.227280364779365D+03 -.115271994616041D+03 -.141150665422169D+03 0.531057541360595D+02
 0.304128311399291D+03 -.240436334550620D+03 0.159364242368596D+03 -.531057541360595D+02
 0.121797244457107D+04 0.355708329166661D+03 -.182135769464276D+02 -.116473032325544D+04
0.843448844150D-02 0.000000000000D+00 0.000000000000D+00 0.202252482747D-02 0.000000000000D+00  5 -2 1 25 -24 21 0 0.16311238D+00 0.56422794D-02 0.36052952D+05 0.36052952D+05 0.36052952D+05 0.12066092D+01  1  2  2  1  5  1       -2 0.263494993429D+00 0.100000000000D+01
-.467768901938D-03 0.000000000000D+00 -.323906564672D-04 0.202252482747D-02 0.000000000000D+00  5 -2 1 25 -24 21 2 0.16311238D+00 0.56422794D-02 0.36052952D+05 0.36052952D+05 0.36052952D+05 0.12066092D+01  1  2  3  1  5  1       -2 -.212754256783D-01 0.100000000000D+01
0.580877348692D-03 0.000000000000D+00 0.000000000000D+00 0.202252482747D-02 0.000000000000D+00  5 -2 1 25 -24 21 2 0.16311238D+00 0.56422794D-02 0.36052952D+05 0.36052952D+05 0.36052952D+05 0.12066092D+01  1  2 15  1  5  1       -2 0.264199112191D-01 0.100000000000D+01
  </mgrwgt>
  </event>
  <event>
  4     66 0.46019439E-03 0.11006098E+03 0.75467711E-02 0.12379796E+00
       -2 -1    0    0    0  501 0.00000000E+00 0.00000000E+00 0.16711434E+03 0.16711465E+03 0.32000000E+00 0.0000E+00 0.9000E+01
        1 -1    0    0  501    0 0.00000000E+00 0.00000000E+00 -.75401967E+02 0.75402646E+02 0.32000000E+00 0.0000E+00 0.9000E+01
       25  1    1    2    0    0 -.23969212E+02 0.30421956E+02 0.77624117E+02 0.15215296E+03 0.12500000E+03 0.0000E+00 0.9000E+01
      -24  1    1    2    0    0 0.23969212E+02 -.30421956E+02 0.14088258E+02 0.90364338E+02 0.80419002E+02 0.0000E+00 0.9000E+01
#aMCatNLO 1  0  0  2  2 0.24804265D+02 0.00000000D+00  -5  5  0 0.00000000D+00 0.00000000D+00 0.00000000D+00 0.00000000D+00 0.00000000D+00
  <mgrwgt>
 0.1431887971D+00    4    2    0
 0.112253594840901D+03 0.000000000000000D+00 0.000000000000000D+00 0.112253594840901D+03
 0.112253594840901D+03 0.000000000000000D+00 0.000000000000000D+00 -.112253594840901D+03
 0.132648897233241D+03 -.239692123972518D+02 0.304219563466464D+02 0.216958836255434D+02
 0.918582924485617D+02 0.239692123972518D+02 -.304219563466464D+02 -.216958836255434D+02
 0.000000000000000D+00 0.000000000000000D+00 0.000000000000000D+00 0.000000000000000D+00
 0.143170951390472D+03 0.000000000000000D+00 0.000000000000000D+00 0.143170951390472D+03
 0.118023990756100D+03 0.000000000000000D+00 0.000000000000000D+00 -.118023990756100D+03
 0.133936689906471D+03 -.364493509920754D+02 0.226885510569873D+02 0.216958836255434D+02
 0.919365705458928D+02 0.153649011597307D+02 -.357536780685284D+02 -.216958836255434D+02
 0.353216816942084D+02 0.210844498323447D+02 0.130651270115411D+02 0.251469606343712D+02
0.345992976745D-03 0.000000000000D+00 0.000000000000D+00 0.285936425739D-02 0.000000000000D+00  5 -2 1 25 -24 21 0 0.25709975D-01 0.11600378D-01 0.12113419D+05 0.12113419D+05 0.12113419D+05 0.12585456D+01  1  2  2  2  5  2        1 0.200955078430D+00 0.100000000000D+01
-.192127380802D-04 0.000000000000D+00 -.132870413274D-05 0.285936425739D-02 0.000000000000D+00  5 -2 1 25 -24 21 2 0.25709975D-01 0.11600378D-01 0.12113419D+05 0.12113419D+05 0.12113419D+05 0.12585456D+01  1  2  3  2  5  2        1 -.176749769725D-01 0.100000000000D+01
0.239155503835D-04 0.000000000000D+00 0.000000000000D+00 0.285936425739D-02 0.000000000000D+00  5 -2 1 25 -24 21 2 0.25709975D-01 0.11600378D-01 0.12113419D+05 0.12113419D+05 0.12113419D+05 0.12585456D+01  1  2 15  2  5  2        1 0.220013826528D-01 0.100000000000D+01
-.674948846914D-04 0.000000000000D+00 0.000000000000D+00 0.285936425739D-02 0.000000000000D+00  5 -2 1 25 -24 21 2 0.25709975D-01 0.11600378D-01 0.12113419D+05 0.12113419D+05 0.12113419D+05 0.12585456D+01  1  2  4  2  5  2        1 -.620926870339D-01 0.100000000000D+01
  </mgrwgt>
  </event>
  <event>
  4     66 0.46019439E-03 0.10717288E+03 0.75467711E-02 0.11650650E+00
       -2 -1    0    0    0  501 0.00000000E+00 0.00000000E+00 0.20153851E+02 0.20156391E+02 0.32000000E+00 0.0000E+00 0.9000E+01
        1 -1    0    0  501    0 0.00000000E+00 0.00000000E+00 -.63132232E+03 0.63132240E+03 0.32000000E+00 0.0000E+00 0.9000E+01
       25  1    1    2    0    0 -.11366481E+01 0.29916026E+02 -.46034840E+03 0.47795597E+03 0.12500000E+03 0.0000E+00 0.9000E+01
      -24  1    1    2    0    0 0.11366481E+01 -.29916026E+02 -.15082007E+03 0.17352282E+03 0.80419002E+02 0.0000E+00 0.9000E+01
#aMCatNLO 1  0  0  2  1 0.11983840D+03 0.00000000D+00  -5  5  0 0.00000000D+00 0.00000000D+00 0.00000000D+00 0.00000000D+00 0.00000000D+00
  <mgrwgt>
 0.1938840024D+00    5    2    0
 0.112802614946793D+03 0.000000000000000D+00 0.000000000000000D+00 0.112802614946793D+03
 0.112802614946793D+03 0.000000000000000D+00 0.000000000000000D+00 -.112802614946793D+03
 0.133098651634305D+03 -.113664808696422D+01 0.299160260836587D+02 -.345541673515406D+02
 0.925065782592814D+02 0.113664808696422D+01 -.299160260836587D+02 0.345541673515406D+02
 0.000000000000000D+00 0.000000000000000D+00 0.000000000000000D+00 -.000000000000000D+00
 0.139376646998813D+03 0.000000000000000D+00 0.000000000000000D+00 0.139376646998813D+03
 0.435977014133632D+03 0.000000000000000D+00 0.000000000000000D+00 -.435977014133632D+03
 0.136925569341888D+03 -.324334412318020D+02 -.296258830772190D+02 -.345541673515406D+02
 0.118532766293582D+03 -.233235825101845D+02 -.764514273795508D+02 0.345541673515406D+02
 0.319895325496976D+03 0.557570237419866D+02 0.106077310456770D+03 -.296600367134819D+03
0.191886121707D-03 0.000000000000D+00 0.000000000000D+00 0.270542095233D-02 0.000000000000D+00  5 -2 1 25 -24 21 0 0.31007941D-02 0.97126713D-01 0.11486026D+05 0.11486026D+05 0.11486026D+05 0.12612583D+01  1  2  2  2  5  2        1 0.208604938134D+00 0.100000000000D+01
-.106263674219D-04 0.000000000000D+00 -.736893232131D-06 0.270542095233D-02 0.000000000000D+00  5 -2 1 25 -24 21 2 0.31007941D-02 0.97126713D-01 0.11486026D+05 0.11486026D+05 0.11486026D+05 0.12612583D+01  1  2  3  2  5  2        1 -.183769721050D-01 0.100000000000D+01
0.131381098963D-04 0.000000000000D+00 0.000000000000D+00 0.270542095233D-02 0.000000000000D+00  5 -2 1 25 -24 21 2 0.31007941D-02 0.97126713D-01 0.11486026D+05 0.11486026D+05 0.11486026D+05 0.12612583D+01  1  2 15  2  5  2        1 0.227207162609D-01 0.100000000000D+01
-.210221697347D-03 0.000000000000D+00 -.824244189666D-04 0.270542095233D-02 0.000000000000D+00  5 -2 1 25 -24 21 2 0.31007941D-02 0.39683029D+00 0.11486026D+05 0.11486026D+05 0.11486026D+05 0.12612583D+01  1  2  5  2  5  2        1 -.172784145825D-01 0.100000000000D+01
-.347340386655D-04 0.000000000000D+00 -.138820459245D-04 0.270542095233D-02 0.000000000000D+00  5 -2 21 25 -24 -1 2 0.31007941D-02 0.39683029D+00 0.11486026D+05 0.11486026D+05 0.11486026D+05 0.12612583D+01  1  2  5  4  5  2        1 -.178626535512D-02 0.100000000000D+01
  </mgrwgt>
  </event>
  <event>
  4     66 0.46019439E-03 0.11807148E+03 0.75467711E-02 0.11646182E+00
       -2 -1    0    0    0  501 0.00000000E+00 0.00000000E+00 0.48053512E+02 0.48054577E+02 0.32000000E+00 0.0000E+00 0.9000E+01
        1 -1    0    0  501    0 0.00000000E+00 0.00000000E+00 -.31039321E+03 0.31039338E+03 0.32000000E+00 0.0000E+00 0.9000E+01
       25  1    1    2    0    0 -.23938802E+02 0.51939254E+02 -.10606633E+03 0.17362551E+03 0.12500000E+03 0.0000E+00 0.9000E+01
      -24  1    1    2    0    0 0.23938802E+02 -.51939254E+02 -.15627337E+03 0.18482244E+03 0.80419002E+02 0.0000E+00 0.9000E+01
#aMCatNLO 1  0  0  2  1 0.10749079D+03 0.00000000D+00  -5  5  0 0.00000000D+00 0.00000000D+00 0.00000000D+00 0.00000000D+00 0.00000000D+00
  <mgrwgt>
 0.1347089177D+00    5    2    0
 0.122129866628398D+03 0.000000000000000D+00 0.000000000000000D+00 0.122129866628398D+03
 0.122129866628398D+03 0.000000000000000D+00 0.000000000000000D+00 -.122129866628398D+03
 0.140875862793066D+03 -.239388015724852D+02 0.519392542530987D+02 0.308262285172212D+02
 0.103383870463730D+03 0.239388015724852D+02 -.519392542530987D+02 -.308262285172212D+02
 0.000000000000000D+00 -.000000000000000D+00 -.000000000000000D+00 -.000000000000000D+00
 0.166760472844060D+03 0.000000000000000D+00 0.000000000000000D+00 0.166760472844060D+03
 0.220103999226606D+03 0.000000000000000D+00 0.000000000000000D+00 -.220103999226606D+03
 0.165438395826839D+03 0.157229003746258D+02 0.102700520217629D+03 0.308262285172212D+02
 0.101426902153476D+03 0.504577884968936D+02 -.179987705548733D+02 -.308262285172212D+02
 0.119999174090351D+03 -.661806888715194D+02 -.847017496627557D+02 -.533435263825463D+02
0.208663139268D-03 0.000000000000D+00 0.000000000000D+00 0.259216810221D-02 0.000000000000D+00  5 -2 1 25 -24 21 0 0.73929426D-02 0.47752897D-01 0.13940875D+05 0.13940875D+05 0.13940875D+05 0.12514643D+01  1  2  2  2  5  2        1 0.154928807004D+00 0.100000000000D+01
-.115762993391D-04 0.000000000000D+00 -.801321397056D-06 0.259216810221D-02 0.000000000000D+00  5 -2 1 25 -24 21 2 0.73929426D-02 0.47752897D-01 0.13940875D+05 0.13940875D+05 0.13940875D+05 0.12514643D+01  1  2  3  2  5  2        1 -.134614892292D-01 0.100000000000D+01
0.144466136690D-04 0.000000000000D+00 0.000000000000D+00 0.259216810221D-02 0.000000000000D+00  5 -2 1 25 -24 21 2 0.73929426D-02 0.47752897D-01 0.13940875D+05 0.13940875D+05 0.13940875D+05 0.12514643D+01  1  2 15  2  5  2        1 0.167992316548D-01 0.100000000000D+01
-.594602101505D-04 0.000000000000D+00 -.797314574357D-04 0.259216810221D-02 0.000000000000D+00  5 -2 1 25 -24 21 2 0.73929426D-02 0.11049209D+00 0.13940875D+05 0.13940875D+05 0.13940875D+05 0.12514643D+01  1  2  5  2  5  2        1 -.232218275289D-01 0.100000000000D+01
-.390108834081D-06 0.000000000000D+00 -.728423900719D-05 0.259216810221D-02 0.000000000000D+00  5 -2 21 25 -24 -1 2 0.73929426D-02 0.11049209D+00 0.13940875D+05 0.13940875D+05 0.13940875D+05 0.12514643D+01  1  2  5  4  5  2        1 -.335804151746D-03 0.100000000000D+01
  </mgrwgt>
  </event>
  <event>
  5     66 0.46019439E-03 0.10647562E+03 0.75467711E-02 0.12543045E+00
       -2 -1    0    0    0  501 0.00000000E+00 0.00000000E+00 0.50345138E+03 0.50345148E+03 0.32000000E+00 0.0000E+00 0.9000E+01
        1 -1    0    0  502    0 0.00000000E+00 0.00000000E+00 -.25974368E+02 0.25976339E+02 0.32000000E+00 0.0000E+00 0.9000E+01
       25  1    1    2    0    0 0.33128454E+02 -.74469937E+01 0.27685154E+03 0.30565459E+03 0.12500000E+03 0.0000E+00 0.9000E+01
      -24  1    1    2    0    0 -.20422913E+02 0.12095187E+02 0.15561113E+03 0.17676376E+03 0.80419002E+02 0.0000E+00 0.9000E+01
       21  1    1    2  502  501 -.12705541E+02 -.46481935E+01 0.45014348E+02 0.47009473E+02 0.75000000E+00 0.0000E+00 0.9000E+01
#aMCatNLO 2  0  0  2  1 0.13529098D+02 0.00000000D+00  -5  5  0 0.00000000D+00 0.00000000D+00 0.00000000D+00 0.00000000D+00 0.00000000D+00
  <mgrwgt>
 0.1241329854D+00    1    2    0
 0.106677633995337D+03 0.000000000000000D+00 0.000000000000000D+00 0.106677633995337D+03
 0.106677633995337D+03 0.000000000000000D+00 0.000000000000000D+00 -.106677633995337D+03
 0.128138983724066D+03 0.254591824797814D+02 -.102527189795552D+02 0.642735799718871D+01
 0.852162842666066D+02 -.254591824797814D+02 0.102527189795552D+02 -.642735799718871D+01
 0.000000000000000D+00 -.000000000000000D+00 -.000000000000000D+00 0.000000000000000D+00
 0.117633921165863D+03 0.000000000000000D+00 0.000000000000000D+00 0.117633921165863D+03
 0.111151713803308D+03 0.000000000000000D+00 0.000000000000000D+00 -.111151713803308D+03
 0.129689101737037D+03 0.331284539833861D+02 -.744699370257752D+01 0.642735799718871D+01
 0.840946835703511D+02 -.204229127554902D+02 0.120951872323063D+02 -.642735799718871D+01
 0.150018496617827D+02 -.127055412278958D+02 -.464819352972882D+01 0.648220736255445D+01
0.273685823588D-03 0.000000000000D+00 0.000000000000D+00 0.309939346787D-02 0.143143899110D-03  5 -2 1 25 -24 21 2 0.77447797D-01 0.39958848D-02 0.12871757D+05 0.12871757D+05 0.12871757D+05 0.12554702D+01  1  2  1  2  5  2        1 0.124132985363D+00 0.100000000000D+01
  </mgrwgt>
  </event>
  <event>
  4     66 0.46019439E-03 0.12041782E+03 0.75467711E-02 0.11309824E+00
       -2 -1    0    0    0  501 0.00000000E+00 0.00000000E+00 0.48090397E+03 0.48090408E+03 0.32000000E+00 0.0000E+00 0.9000E+01
        1 -1    0    0  501    0 0.00000000E+00 0.00000000E+00 -.30682089E+02 0.30683757E+02 0.32000000E+00 0.0000E+00 0.9000E+01
       25  1    1    2    0    0 -.44874031E+02 0.42451612E+02 0.22681733E+03 0.26624597E+03 0.12500000E+03 0.0000E+00 0.9000E+01
      -24  1    1    2    0    0 0.44874031E+02 -.42451612E+02 0.22340455E+03 0.24534186E+03 0.80419002E+02 0.0000E+00 0.9000E+01
#aMCatNLO 1  0  0  2  1 0.15923951D+03 0.00000000D+00  -5  5  0 0.00000000D+00 0.00000000D+00 0.00000000D+00 0.00000000D+00 0.00000000D+00
  <mgrwgt>
 0.1324526392D+00    5    2    0
 0.121472599117015D+03 0.000000000000000D+00 0.000000000000000D+00 0.121472599117015D+03
 0.121472599117015D+03 0.000000000000000D+00 0.000000000000000D+00 -.121472599117015D+03
 0.140320026668984D+03 -.448740312411411D+02 0.424516124709282D+02 -.157763051178580D+02
 0.102625171565046D+03 0.448740312411411D+02 -.424516124709282D+02 0.157763051178580D+02
 0.000000000000000D+00 0.000000000000000D+00 0.000000000000000D+00 -.000000000000000D+00
 0.166980584520677D+03 0.000000000000000D+00 0.000000000000000D+00 0.166980584520677D+03
 0.436840485382249D+03 0.000000000000000D+00 0.000000000000000D+00 -.436840485382249D+03
 0.183594571786496D+03 -.133487806221606D+03 0.375240941768968D+01 -.157763051178580D+02
 0.106887083455400D+03 -.124425327870261D+02 -.674827698742660D+02 0.157763051178580D+02
 0.313339414661030D+03 0.145930339008632D+03 0.637303604565763D+02 -.269859900861572D+03
0.619625854653D-03 0.000000000000D+00 0.000000000000D+00 0.271558931610D-02 0.000000000000D+00  5 -2 1 25 -24 21 0 0.73985363D-01 0.47204579D-02 0.14500450D+05 0.14500450D+05 0.14500450D+05 0.12495030D+01  1  2  2  2  5  2        1 0.157394519510D+00 0.100000000000D+01
-.344204751725D-04 0.000000000000D+00 -.237952643310D-05 0.271558931610D-02 0.000000000000D+00  5 -2 1 25 -24 21 2 0.73985363D-01 0.47204579D-02 0.14500450D+05 0.14500450D+05 0.14500450D+05 0.12495030D+01  1  2  3  2  5  2        1 -.136505928453D-01 0.100000000000D+01
0.428229656397D-04 0.000000000000D+00 0.000000000000D+00 0.271558931610D-02 0.000000000000D+00  5 -2 1 25 -24 21 2 0.73985363D-01 0.47204579D-02 0.14500450D+05 0.14500450D+05 0.14500450D+05 0.12495030D+01  1  2 15  2  5  2        1 0.169828820040D-01 0.100000000000D+01
-.203483432174D-03 0.000000000000D+00 -.326957872937D-03 0.271558931610D-02 0.000000000000D+00  5 -2 1 25 -24 21 2 0.73985363D-01 0.23004242D-01 0.14500450D+05 0.14500450D+05 0.14500450D+05 0.12495030D+01  1  2  5  2  5  2        1 -.100506385723D-01 0.100000000000D+01
-.469077734663D-04 0.000000000000D+00 -.630100013502D-04 0.271558931610D-02 0.000000000000D+00  5 -2 21 25 -24 -1 2 0.73985363D-01 0.23004242D-01 0.14500450D+05 0.14500450D+05 0.14500450D+05 0.12495030D+01  1  2  5  4  5  2        1 -.182235309458D-01 0.100000000000D+01
  </mgrwgt>
  </event>
  <event>
  5     66 0.46019439E-03 0.12032829E+03 0.75467711E-02 0.11923564E+00
       -2 -1    0    0    0  502 0.00000000E+00 0.00000000E+00 0.23816077E+03 0.23816098E+03 0.32000000E+00 0.0000E+00 0.9000E+01
        1 -1    0    0  501    0 0.00000000E+00 0.00000000E+00 -.11234116E+03 0.11234162E+03 0.32000000E+00 0.0000E+00 0.9000E+01
       25  1    1    2    0    0 0.65561968E+02 0.54949111E+02 0.34243170E+02 0.15529125E+03 0.12500000E+03 0.0000E+00 0.9000E+01
      -24  1    1    2    0    0 -.11019800E+01 -.55419361E+02 0.21532961E+02 0.10001702E+03 0.80419002E+02 0.0000E+00 0.9000E+01
       21  1    1    2  501  502 -.64459988E+02 0.47025037E+00 0.70043472E+02 0.95194337E+02 0.75000000E+00 0.0000E+00 0.9000E+01
#aMCatNLO 2  0  0  1  2 0.64461703D+02 0.00000000D+00  -5  5  0 0.00000000D+00 0.00000000D+00 0.00000000D+00 0.00000000D+00 0.00000000D+00
  <mgrwgt>
 0.2201269288D-01    2    2    0
 0.120328740172825D+03 0.000000000000000D+00 0.000000000000000D+00 0.120328740172825D+03
 0.120328740172825D+03 0.000000000000000D+00 0.000000000000000D+00 -.120328740172825D+03
 0.139355333554581D+03 0.272880011385582D+02 0.552283281663220D+02 0.325195208612343D+00
 0.101302146791068D+03 -.272880011385582D+02 -.552283281663220D+02 -.325195208612343D+00
 0.000000000000000D+00 -.000000000000000D+00 0.000000000000000D+00 0.000000000000000D+00
 0.190736218683290D+03 0.000000000000000D+00 0.000000000000000D+00 0.190736218683290D+03
 0.140271012590652D+03 0.000000000000000D+00 0.000000000000000D+00 -.140271012590652D+03
 0.151469079978078D+03 0.655619680750825D+02 0.549491108172239D+02 0.325195208612343D+00
 0.976721130121812D+02 -.110197999809516D+01 -.554193611841012D+02 -.325195208612343D+00
 0.818660382836823D+02 -.644599880769873D+02 0.470250366877216D+00 0.504652060926382D+02
-.947920013991D-04 0.000000000000D+00 0.000000000000D+00 0.277703139901D-02 0.000000000000D+00  5 -2 1 25 -24 21 2 0.37639726D-01 0.14825977D-01 0.24586555D+05 0.24586555D+05 0.24586555D+05 0.12240749D+01  1  2 13  1  5  1       -2 -.307516557713D-01 0.100000000000D+01
0.188611325723D-03 0.000000000000D+00 0.000000000000D+00 0.277703139901D-02 0.597934338372D-05  5 -2 1 25 -24 21 2 0.36639750D-01 0.17283110D-01 0.24586555D+05 0.24586555D+05 0.24586555D+05 0.12240749D+01  1  2  1  1  5  1       -2 0.527643486550D-01 0.100000000000D+01
  </mgrwgt>
  </event>
  <event>
  5     66 0.46019439E-03 0.12606165E+03 0.75467711E-02 0.11997689E+00
       -4 -1    0    0    0  502 0.00000000E+00 0.00000000E+00 0.86954764E+02 0.86968577E+02 0.15500000E+01 0.0000E+00 0.9000E+01
        3 -1    0    0  501    0 0.00000000E+00 0.00000000E+00 -.36375538E+03 0.36375572E+03 0.50000000E+00 0.0000E+00 0.9000E+01
       25  1    1    2    0    0 -.93639284E+02 0.14035200E+02 -.23979717E+03 0.28651873E+03 0.12500000E+03 0.0000E+00 0.9000E+01
      -24  1    1    2    0    0 0.49375416E+02 -.27105290E+02 0.95513650E+01 0.98646201E+02 0.80419002E+02 0.0000E+00 0.9000E+01
       21  1    1    2  501  502 0.44263869E+02 0.13070091E+02 -.46554810E+02 0.65559364E+02 0.75000000E+00 0.0000E+00 0.9000E+01
#aMCatNLO 2  0  0  1  2 0.46153194D+02 0.00000000D+00  -5  5  0 0.00000000D+00 0.00000000D+00 0.00000000D+00 0.00000000D+00 0.00000000D+00
  <mgrwgt>
 0.6726920357D-02    1    2    0
 0.152650564102158D+03 0.000000000000000D+00 0.000000000000000D+00 0.152650564102158D+03
 0.152650564102158D+03 0.000000000000000D+00 0.000000000000000D+00 -.152650564102158D+03
 0.167648517269728D+03 -.686811587389073D+02 0.214047536502616D+02 -.854737404013128D+02
 0.137652610934587D+03 0.686811587389073D+02 -.214047536502616D+02 0.854737404013128D+02
 0.000000000000000D+00 0.000000000000000D+00 0.000000000000000D+00 -.000000000000000D+00
 0.173321088714400D+03 0.000000000000000D+00 0.000000000000000D+00 0.173321088714400D+03
 0.182507423027576D+03 0.000000000000000D+00 0.000000000000000D+00 -.182507423027576D+03
 0.178594688397098D+03 -.936392844642956D+02 0.140351996950618D+02 -.854737404013128D+02
 0.130175284584387D+03 0.493754158976718D+02 -.271052904245022D+02 0.854737404013128D+02
 0.470585387604904D+02 0.442638685666238D+02 0.130700907294404D+02 -.918633431317561D+01
0.152019066419D-03 0.000000000000D+00 0.000000000000D+00 0.170205264272D-02 0.663924128646D-05  5 -4 3 25 -24 21 2 0.13378519D-01 0.55962510D-01 0.22672659D+05 0.22672659D+05 0.22672659D+05 0.12278738D+01  1  2  1  1  5  1       -4 0.672692035669D-02 0.100000000000D+01
  </mgrwgt>
  </event>
  <event>
  4     66 -.46019439E-03 0.57358392E+02 0.75467711E-02 0.11958174E+00
       -2 -1    0    0    0  501 0.00000000E+00 0.00000000E+00 0.12329283E+03 0.12329325E+03 0.32000000E+00 0.0000E+00 0.9000E+01
        1 -1    0    0  501    0 0.00000000E+00 0.00000000E+00 -.10375862E+03 0.10375912E+03 0.32000000E+00 0.0000E+00 0.9000E+01
       25  1    1    2    0    0 -.14196152E+02 0.35836792E+02 -.14477471E+02 0.13160700E+03 0.12500000E+03 0.0000E+00 0.9000E+01
      -24  1    1    2    0    0 0.14196152E+02 -.35836792E+02 0.34011683E+02 0.95445361E+02 0.80419002E+02 0.0000E+00 0.9000E+01
#aMCatNLO 1  0  0  2  1 0.75433190D+02 0.00000000D+00  -5  5  0 0.00000000D+00 0.00000000D+00 0.00000000D+00 0.00000000D+00 0.00000000D+00
  <mgrwgt>
 -.1492668645D+00    7    2    0
 0.113105250665680D+03 0.000000000000000D+00 0.000000000000000D+00 0.113105250665680D+03
 0.113105250665680D+03 0.000000000000000D+00 0.000000000000000D+00 -.113105250665680D+03
 0.133346981247884D+03 -.141961522580108D+02 0.358367915173155D+02 -.258961588413297D+02
 0.928635200834756D+02 0.141961522580108D+02 -.358367915173155D+02 0.258961588413297D+02
 0.000000000000000D+00 -.000000000000000D+00 -.000000000000000D+00 -.000000000000000D+00
 0.121780988412577D+03 0.000000000000000D+00 0.000000000000000D+00 0.121780988412577D+03
 0.676455814214206D+03 0.000000000000000D+00 0.000000000000000D+00 -.676455814214206D+03
 0.151780571718949D+03 -.804327015200436D+01 0.817131367275629D+02 -.258961588413297D+02
 0.866756234537133D+02 0.180704996232624D+02 -.694937028439682D+01 0.258961588413297D+02
 0.559780607454121D+03 -.100272294712581D+02 -.747637664431661D+02 -.554674825801629D+03
0.239526977339D-03 0.000000000000D+00 0.000000000000D+00 0.280130776087D-02 0.000000000000D+00  5 -2 1 25 -24 21 0 0.18968198D-01 0.15962935D-01 0.12098680D+05 0.12098680D+05 0.12098680D+05 0.12586075D+01  1  2  2  2  5  2        1 0.154699489939D+00 0.100000000000D+01
-.132944663906D-04 0.000000000000D+00 -.919846661883D-06 0.280130776087D-02 0.000000000000D+00  5 -2 1 25 -24 21 2 0.18968198D-01 0.15962935D-01 0.12098680D+05 0.12098680D+05 0.12098680D+05 0.12586075D+01  1  2  3  2  5  2        1 -.136014738460D-01 0.100000000000D+01
0.165572873578D-04 0.000000000000D+00 0.000000000000D+00 0.280130776087D-02 0.000000000000D+00  5 -2 1 25 -24 21 2 0.18968198D-01 0.15962935D-01 0.12098680D+05 0.12098680D+05 0.12098680D+05 0.12586075D+01  1  2 15  2  5  2        1 0.169396427312D-01 0.100000000000D+01
0.621220014968D-03 0.000000000000D+00 0.000000000000D+00 0.280130776087D-02 0.000000000000D+00  5 -2 1 25 -24 21 2 0.18968198D-01 0.91632654D-01 0.23670592D+05 0.23670592D+05 0.23670592D+05 0.12258501D+01  1  2 12  2  5  2        1 0.673362061774D-01 0.100000000000D+01
-.254649644276D-02 0.000000000000D+00 -.147612667204D-03 0.280130776087D-02 0.000000000000D+00  5 -2 1 25 -24 21 2 0.18968198D-01 0.98334598D-01 0.12098680D+05 0.12098680D+05 0.12098680D+05 0.12586075D+01  1  2  5  2  5  2        1 -.263940243054D+00 0.100000000000D+01
0.132989650907D-03 0.000000000000D+00 0.000000000000D+00 0.280130776087D-02 0.000000000000D+00  5 -2 21 25 -24 -1 2 0.18968198D-01 0.91632654D-01 0.23670592D+05 0.23670592D+05 0.23670592D+05 0.12258501D+01  1  2 12  4  5  2        1 0.373593201906D-01 0.100000000000D+01
-.577618957037D-03 0.000000000000D+00 -.328915430214D-04 0.280130776087D-02 0.000000000000D+00  5 -2 21 25 -24 -1 2 0.18968198D-01 0.98334598D-01 0.12098680D+05 0.12098680D+05 0.12098680D+05 0.12586075D+01  1  2  5  4  5  2        1 -.148059806622D+00 0.100000000000D+01
  </mgrwgt>
  </event>
  <event>
  4     66 0.46019439E-03 0.17290710E+03 0.75467711E-02 0.10158285E+00
       -4 -1    0    0    0  501 0.00000000E+00 0.00000000E+00 0.65185157E+03 0.65185341E+03 0.15500000E+01 0.0000E+00 0.9000E+01
        3 -1    0    0  501    0 0.00000000E+00 0.00000000E+00 -.76417207E+02 0.76418843E+02 0.50000000E+00 0.0000E+00 0.9000E+01
       25  1    1    2    0    0 -.75518555E+02 0.11542541E+03 0.53078589E+03 0.56248088E+03 0.12500000E+03 0.0000E+00 0.9000E+01
      -24  1    1    2    0    0 0.75518555E+02 -.11542541E+03 0.44648471E+02 0.16579137E+03 0.80419002E+02 0.0000E+00 0.9000E+01
#aMCatNLO 1  0  0  1  1 0.43626663D+03 0.00000000D+00  -5  5  0 0.00000000D+00 0.00000000D+00 0.00000000D+00 0.00000000D+00 0.00000000D+00
  <mgrwgt>
 0.3157765341D-01    5    2    0
 0.223190374005444D+03 0.000000000000000D+00 0.000000000000000D+00 0.223190374005444D+03
 0.223190374005444D+03 0.000000000000000D+00 0.000000000000000D+00 -.223190374005444D+03
 0.233448190999610D+03 -.755185547692488D+02 0.115425412905569D+03 0.140879309418145D+03
 0.212932557011278D+03 0.755185547692488D+02 -.115425412905569D+03 -.140879309418145D+03
 0.000000000000000D+00 0.000000000000000D+00 0.000000000000000D+00 0.000000000000000D+00
 0.821560127128924D+03 0.000000000000000D+00 0.000000000000000D+00 0.821560127128924D+03
 0.405477612305695D+03 0.000000000000000D+00 0.000000000000000D+00 -.405477612305695D+03
 0.221673480219651D+03 -.943061835457686D+02 -.690904896175314D+02 0.140879309418145D+03
 0.402493437317760D+03 0.501134909103928D+02 -.364932061260909D+03 -.140879309418145D+03
 0.602870821897208D+03 0.441926926353758D+02 0.434022550878440D+03 0.416082514823229D+03
0.312353156717D-02 0.000000000000D+00 0.000000000000D+00 0.129993857381D-02 0.000000000000D+00  5 -4 3 25 -24 21 0 0.10028512D+00 0.11756761D-01 0.29896865D+05 0.29896865D+05 0.29896865D+05 0.12150554D+01  1  2  2  1  5  1       -4 0.305029953524D-01 0.100000000000D+01
-.159780988070D-03 0.000000000000D+00 -.119951836627D-04 0.129993857381D-02 0.000000000000D+00  5 -4 3 25 -24 21 2 0.10028512D+00 0.11756761D-01 0.29896865D+05 0.29896865D+05 0.29896865D+05 0.12150554D+01  1  2  3  1  5  1       -4 -.230363597011D-02 0.100000000000D+01
0.214772261011D-03 0.000000000000D+00 0.000000000000D+00 0.129993857381D-02 0.000000000000D+00  5 -4 3 25 -24 21 2 0.10028512D+00 0.11756761D-01 0.29896865D+05 0.29896865D+05 0.29896865D+05 0.12150554D+01  1  2 15  1  5  1       -4 0.309647043634D-02 0.100000000000D+01
0.994786785890D-03 0.000000000000D+00 -.993013255867D-03 0.129993857381D-02 0.000000000000D+00  5 -4 3 25 -24 21 2 0.46700142D+00 0.11756761D-01 0.29896865D+05 0.29896865D+05 0.29896865D+05 0.12150554D+01  1  2  5  1  5  1       -4 0.519374094635D-04 0.100000000000D+01
0.170658201884D-03 0.000000000000D+00 -.185252730144D-03 0.129993857381D-02 0.000000000000D+00  5 21 3 25 -24 4 2 0.46700142D+00 0.11756761D-01 0.29896865D+05 0.29896865D+05 0.29896865D+05 0.12150554D+01  1  2  5  3  5  1       -4 0.229886178402D-03 0.100000000000D+01
  </mgrwgt>
  </event>
  <event>
  4     66 0.46019439E-03 0.11217238E+03 0.75467711E-02 0.11936438E+00
       -2 -1    0    0    0  501 0.00000000E+00 0.00000000E+00 0.56586091E+01 0.56676500E+01 0.32000000E+00 0.0000E+00 0.9000E+01
        1 -1    0    0  501    0 0.00000000E+00 0.00000000E+00 -.22391536E+04 0.22391536E+04 0.32000000E+00 0.0000E+00 0.9000E+01
       25  1    1    2    0    0 -.33294601E+01 -.44068371E+02 -.12213222E+04 0.12284974E+04 0.12500000E+03 0.0000E+00 0.9000E+01
      -24  1    1    2    0    0 0.33294601E+01 0.44068371E+02 -.10121728E+04 0.10163238E+04 0.80419002E+02 0.0000E+00 0.9000E+01
#aMCatNLO 1  0  0  2  1 0.74911089D+02 0.00000000D+00  -5  5  0 0.00000000D+00 0.00000000D+00 0.00000000D+00 0.00000000D+00 0.00000000D+00
  <mgrwgt>
 0.1590291399D+00    4    2    0
 0.112608473087692D+03 0.000000000000000D+00 0.000000000000000D+00 0.112608473087692D+03
 0.112608473087692D+03 0.000000000000000D+00 0.000000000000000D+00 -.112608473087692D+03
 0.132939501016865D+03 -.332946011103947D+01 -.440683711781400D+02 0.973674933885910D+01
 0.922774451585198D+02 0.332946011103947D+01 0.440683711781400D+02 -.973674933885910D+01
 0.000000000000000D+00 0.000000000000000D+00 0.000000000000000D+00 0.000000000000000D+00
 0.174116170438680D+03 0.000000000000000D+00 0.000000000000000D+00 0.174116170438680D+03
 0.143978580455107D+03 0.000000000000000D+00 0.000000000000000D+00 -.143978580455107D+03
 0.151763588099433D+03 -.340693907936810D+02 -.784325123661997D+02 0.973674933885910D+01
 0.855849827846362D+02 -.158746824326529D+02 0.226000772974473D+02 -.973674933885910D+01
 0.807461800097182D+02 0.499440732263338D+02 0.558324350687524D+02 0.301375899835731D+02
0.422632132623D-03 0.000000000000D+00 0.000000000000D+00 0.292513825847D-02 0.000000000000D+00  5 -2 1 25 -24 21 0 0.87125246D-03 0.34448587D+00 0.12582644D+05 0.12582644D+05 0.12582644D+05 0.12566180D+01  1  2  2  2  5  2        1 0.224395733063D+00 0.100000000000D+01
-.234791331255D-04 0.000000000000D+00 -.162301867087D-05 0.292513825847D-02 0.000000000000D+00  5 -2 1 25 -24 21 2 0.87125246D-03 0.34448587D+00 0.12582644D+05 0.12582644D+05 0.12582644D+05 0.12566180D+01  1  2  3  2  5  2        1 -.196852403883D-01 0.100000000000D+01
0.291590768771D-04 0.000000000000D+00 0.000000000000D+00 0.292513825847D-02 0.000000000000D+00  5 -2 1 25 -24 21 2 0.87125246D-03 0.34448587D+00 0.12582644D+05 0.12582644D+05 0.12582644D+05 0.12566180D+01  1  2 15  2  5  2        1 0.244473863135D-01 0.100000000000D+01
-.836444954947D-04 0.000000000000D+00 0.000000000000D+00 0.292513825847D-02 0.000000000000D+00  5 -2 1 25 -24 21 2 0.87125246D-03 0.34448587D+00 0.12582644D+05 0.12582644D+05 0.12582644D+05 0.12566180D+01  1  2  4  2  5  2        1 -.701287390878D-01 0.100000000000D+01
  </mgrwgt>
  </event>
  <event>
  4     66 0.46019439E-03 0.56897173E+02 0.75467711E-02 0.12523611E+00
       -2 -1    0    0    0  501 0.00000000E+00 0.00000000E+00 0.20127734E+02 0.20130278E+02 0.32000000E+00 0.0000E+00 0.9000E+01
        1 -1    0    0  501    0 0.00000000E+00 0.00000000E+00 -.62131034E+03 0.62131042E+03 0.32000000E+00 0.0000E+00 0.9000E+01
       25  1    1    2    0    0 -.22050647E+02 -.22470662E+02 -.27014522E+03 0.29932357E+03 0.12500000E+03 0.0000E+00 0.9000E+01
      -24  1    1    2    0    0 0.22050647E+02 0.22470662E+02 -.33103739E+03 0.34211713E+03 0.80419002E+02 0.0000E+00 0.9000E+01
#aMCatNLO 1  0  0  1  2 0.13477134D+02 0.00000000D+00  -5  5  0 0.00000000D+00 0.00000000D+00 0.00000000D+00 0.00000000D+00 0.00000000D+00
  <mgrwgt>
 0.1200412096D+00    9    2    0
 0.111832068725805D+03 0.000000000000000D+00 0.000000000000000D+00 0.111832068725805D+03
 0.111832068725805D+03 0.000000000000000D+00 0.000000000000000D+00 -.111832068725805D+03
 0.132304246675233D+03 -.220506470915199D+02 -.224706618062749D+02 0.298035569879552D+02
 0.913598907763772D+02 0.220506470915199D+02 0.224706618062749D+02 -.298035569879552D+02
 0.000000000000000D+00 0.000000000000000D+00 0.000000000000000D+00 0.000000000000000D+00
 0.120761203869210D+03 0.000000000000000D+00 0.000000000000000D+00 0.120761203869210D+03
 0.117238517920721D+03 0.000000000000000D+00 0.000000000000000D+00 -.117238517920721D+03
 0.134237222398455D+03 -.296491466626258D+02 -.250461168706066D+02 0.298035569879552D+02
 0.898325870862512D+02 0.168852558669890D+02 0.207198907673372D+02 -.298035569879552D+02
 0.139299123052241D+02 0.127638907956368D+02 0.432622610326937D+01 0.352268594848901D+01
0.140886757505D-03 0.000000000000D+00 0.000000000000D+00 0.278558754999D-02 0.000000000000D+00  5 -2 1 25 -24 21 0 0.30967765D-02 0.95586408D-01 0.11584819D+05 0.11584819D+05 0.11584819D+05 0.12608203D+01  1  2  2  1  5  1       -2 0.156891735380D+00 0.100000000000D+01
-.781310206108D-05 0.000000000000D+00 -.541042245156D-06 0.278558754999D-02 0.000000000000D+00  5 -2 1 25 -24 21 2 0.30967765D-02 0.95586408D-01 0.11584819D+05 0.11584819D+05 0.11584819D+05 0.12608203D+01  1  2  3  1  5  1       -2 -.138311966176D-01 0.100000000000D+01
0.972551882149D-05 0.000000000000D+00 0.000000000000D+00 0.278558754999D-02 0.000000000000D+00  5 -2 1 25 -24 21 2 0.30967765D-02 0.95586408D-01 0.11584819D+05 0.11584819D+05 0.11584819D+05 0.12608203D+01  1  2 15  1  5  1       -2 0.172166652857D-01 0.100000000000D+01
0.216663417273D-03 0.000000000000D+00 0.000000000000D+00 0.278558754999D-02 0.000000000000D+00  5 -2 1 25 -24 21 2 0.34140482D-02 0.95586408D-01 0.13122687D+05 0.13122687D+05 0.13122687D+05 0.12544972D+01  1  2 12  1  5  1       -2 0.330634409878D+00 0.100000000000D+01
-.195897461404D-03 0.000000000000D+00 0.000000000000D+00 0.278558754999D-02 0.000000000000D+00  5 -2 1 25 -24 21 2 0.30967765D-02 0.95586408D-01 0.11584819D+05 0.11584819D+05 0.11584819D+05 0.12608203D+01  1  2  4  1  5  1       -2 -.346788802244D+00 0.100000000000D+01
-.648608528093D-03 0.000000000000D+00 -.137872927586D-03 0.278558754999D-02 0.000000000000D+00  5 -2 1 25 -24 21 2 0.35068875D-02 0.95586408D-01 0.11584819D+05 0.11584819D+05 0.11584819D+05 0.12608203D+01  1  2  5  1  5  1       -2 -.956860759471D+00 0.100000000000D+01
0.661690968236D-03 0.000000000000D+00 0.136813502792D-03 0.278558754999D-02 0.000000000000D+00  5 -2 1 25 -24 21 2 0.30967765D-02 0.95586408D-01 0.11584819D+05 0.11584819D+05 0.11584819D+05 0.12608203D+01  1  2  6  1  5  1       -2 0.117136289917D+01 0.100000000000D+01
0.344398345649D-05 0.000000000000D+00 0.000000000000D+00 0.278558754999D-02 0.000000000000D+00  5 21 1 25 -24 2 2 0.34140482D-02 0.95586408D-01 0.13122687D+05 0.13122687D+05 0.13122687D+05 0.12544972D+01  1  2 12  3  5  1       -2 0.101146737599D+00 0.100000000000D+01
-.120000267340D-04 0.000000000000D+00 -.269555717238D-05 0.278558754999D-02 0.000000000000D+00  5 21 1 25 -24 2 2 0.35068875D-02 0.95586408D-01 0.11584819D+05 0.11584819D+05 0.11584819D+05 0.12608203D+01  1  2  5  3  5  1       -2 -.339730479408D+00 0.100000000000D+01
  </mgrwgt>
  </event>
  <event>
  5     66 0.46019439E-03 0.12436780E+03 0.75467711E-02 0.11732772E+00
       -4 -1    0    0    0  501 0.00000000E+00 0.00000000E+00 0.12768408E+04 0.12768418E+04 0.15500000E+01 0.0000E+00 0.9000E+01
       21 -1    0    0  501  502 0.00000000E+00 0.00000000E+00 -.30997673E+02 0.31006745E+02 0.75000000E+00 0.0000E+00 0.9000E+01
       25  1    1    2    0    0 0.33446649E+01 -.42984526E+02 0.20049060E+03 0.24016731E+03 0.12500000E+03 0.0000E+00 0.9000E+01
      -24  1    1    2    0    0 -.87578531E+02 0.56048228E+02 0.66972904E+03 0.68250686E+03 0.80419002E+02 0.0000E+00 0.9000E+01
       -3  1    1    2    0  502 0.84233866E+02 -.13063702E+02 0.37562352E+03 0.38517436E+03 0.50000000E+00 0.0000E+00 0.9000E+01
#aMCatNLO 2  0  0  2  2 0.85240861D+02 0.00000000D+00  -5  5  0 0.00000000D+00 0.00000000D+00 0.00000000D+00 0.00000000D+00 0.00000000D+00
  <mgrwgt>
 0.2662311194D-01    1    2    0
 0.147291707277918D+03 0.000000000000000D+00 0.000000000000000D+00 0.147291707277918D+03
 0.147291707277918D+03 0.000000000000000D+00 0.000000000000000D+00 -.147291707277918D+03
 0.162835325134744D+03 0.476861002822901D+02 -.498613719022891D+02 -.782957377104700D+02
 0.131748089421093D+03 -.476861002822901D+02 0.498613719022891D+02 0.782957377104700D+02
 0.000000000000000D+00 0.000000000000000D+00 -.000000000000000D+00 0.000000000000000D+00
 0.218399250857302D+03 0.000000000000000D+00 0.000000000000000D+00 0.218399250857302D+03
 0.181252296933186D+03 0.000000000000000D+00 0.000000000000000D+00 -.181252296933186D+03
 0.153668730800793D+03 0.334466491228011D+01 -.429845262731182D+02 -.782957377104700D+02
 0.152999481735906D+03 -.875785306838676D+02 0.560482281317930D+02 0.782957377104700D+02
 0.929833352537891D+02 0.842338657715875D+02 -.130637018586747D+02 0.371469539241159D+02
0.965724030548D-04 0.000000000000D+00 0.000000000000D+00 0.180614508962D-02 0.111645217022D-06  5 -4 21 25 -24 -3 2 0.19643714D+00 0.47696263D-02 0.30435516D+05 0.30435516D+05 0.30435516D+05 0.12142420D+01  1  2  1  4  5  2        3 0.266231119438D-01 0.100000000000D+01
  </mgrwgt>
  </event>
  <event>
  4     66 0.46019439E-03 0.54832306E+02 0.75467711E-02 0.11612436E+00
       -2 -1    0    0    0  501 0.00000000E+00 0.00000000E+00 0.23380104E+02 0.23382293E+02 0.32000000E+00 0.0000E+00 0.9000E+01
        1 -1    0    0  501    0 0.00000000E+00 0.00000000E+00 -.85177881E+03 0.85177887E+03 0.32000000E+00 0.0000E+00 0.9000E+01
       25  1    1    2    0    0 0.54304430E+02 0.77916021E+02 -.49475561E+03 0.51906453E+03 0.12500000E+03 0.0000E+00 0.9000E+01
      -24  1    1    2    0    0 -.54304430E+02 -.77916021E+02 -.33364310E+03 0.35609663E+03 0.80419002E+02 0.0000E+00 0.9000E+01
#aMCatNLO 1  0  0  1  2 0.81022915D+02 0.00000000D+00  -5  5  0 0.00000000D+00 0.00000000D+00 0.00000000D+00 0.00000000D+00 0.00000000D+00
  <mgrwgt>
 0.2276533178D+00    9    2    0
 0.141122858712812D+03 0.000000000000000D+00 0.000000000000000D+00 0.141122858712812D+03
 0.141122858712812D+03 0.000000000000000D+00 0.000000000000000D+00 -.141122858712812D+03
 0.157345928683825D+03 0.543044296461627D+02 0.779160206350962D+02 -.106237433408186D+02
 0.124899788741798D+03 -.543044296461627D+02 -.779160206350962D+02 0.106237433408186D+02
 0.000000000000000D+00 0.000000000000000D+00 0.000000000000000D+00 0.000000000000000D+00
 0.222769261306565D+03 0.000000000000000D+00 0.000000000000000D+00 0.222769261306565D+03
 0.168432056348922D+03 0.000000000000000D+00 0.000000000000000D+00 -.168432056348922D+03
 0.137512858567374D+03 0.220550369870715D+02 0.518217878145670D+02 -.106237433408186D+02
 0.156132093186360D+03 -.850415414497983D+02 -.102786608435409D+03 0.106237433408186D+02
 0.975563659017530D+02 0.629865044627269D+02 0.509648206208423D+02 0.543372049576437D+02
0.378979420866D-03 0.000000000000D+00 0.000000000000D+00 0.247665445794D-02 0.000000000000D+00  5 -2 1 25 -24 21 0 0.35971121D-02 0.13104307D+00 0.19801277D+05 0.19801277D+05 0.19801277D+05 0.12343038D+01  1  2  2  1  5  1       -2 0.217952605924D+00 0.100000000000D+01
-.210541999419D-04 0.000000000000D+00 -.145538076370D-05 0.247665445794D-02 0.000000000000D+00  5 -2 1 25 -24 21 2 0.35971121D-02 0.13104307D+00 0.19801277D+05 0.19801277D+05 0.19801277D+05 0.12343038D+01  1  2  3  1  5  1       -2 -.184471506849D-01 0.100000000000D+01
0.261369131352D-04 0.000000000000D+00 0.000000000000D+00 0.247665445794D-02 0.000000000000D+00  5 -2 1 25 -24 21 2 0.35971121D-02 0.13104307D+00 0.19801277D+05 0.19801277D+05 0.19801277D+05 0.12343038D+01  1  2 15  1  5  1       -2 0.229004937909D-01 0.100000000000D+01
0.878024272297D-04 0.000000000000D+00 0.000000000000D+00 0.247665445794D-02 0.000000000000D+00  5 -2 1 25 -24 21 2 0.58625166D-02 0.13104307D+00 0.34949371D+05 0.34949371D+05 0.34949371D+05 0.12079991D+01  1  2 12  1  5  1       -2 0.357303040435D-01 0.100000000000D+01
-.186897994600D-03 0.000000000000D+00 0.000000000000D+00 0.247665445794D-02 0.000000000000D+00  5 -2 1 25 -24 21 2 0.35971121D-02 0.13104307D+00 0.19801277D+05 0.19801277D+05 0.19801277D+05 0.12343038D+01  1  2  4  1  5  1       -2 -.163755235468D+00 0.100000000000D+01
-.202049548205D-03 0.000000000000D+00 -.110525162783D-03 0.247665445794D-02 0.000000000000D+00  5 -2 1 25 -24 21 2 0.67949359D-02 0.13104307D+00 0.19801277D+05 0.19801277D+05 0.19801277D+05 0.12343038D+01  1  2  5  1  5  1       -2 -.680582655431D-01 0.100000000000D+01
0.241045350496D-03 0.000000000000D+00 0.914043408878D-04 0.247665445794D-02 0.000000000000D+00  5 -2 1 25 -24 21 2 0.35971121D-02 0.13104307D+00 0.19801277D+05 0.19801277D+05 0.19801277D+05 0.12343038D+01  1  2  6  1  5  1       -2 0.211197761718D+00 0.100000000000D+01
0.486016167320D-05 0.000000000000D+00 0.000000000000D+00 0.247665445794D-02 0.000000000000D+00  5 21 1 25 -24 2 2 0.58625166D-02 0.13104307D+00 0.34949371D+05 0.34949371D+05 0.34949371D+05 0.12079991D+01  1  2 12  3  5  1       -2 0.340151633583D-01 0.100000000000D+01
-.770517765646D-05 0.000000000000D+00 -.764426467215D-05 0.247665445794D-02 0.000000000000D+00  5 21 1 25 -24 2 2 0.67949359D-02 0.13104307D+00 0.19801277D+05 0.19801277D+05 0.19801277D+05 0.12343038D+01  1  2  5  3  5  1       -2 -.438823593373D-01 0.100000000000D+01
  </mgrwgt>
  </event>
  <event>
  4     66 0.46019439E-03 0.14073580E+03 0.75467711E-02 0.10307381E+00
       -2 -1    0    0    0  501 0.00000000E+00 0.00000000E+00 0.41920187E+03 0.41920199E+03 0.32000000E+00 0.0000E+00 0.9000E+01
        1 -1    0    0  501    0 0.00000000E+00 0.00000000E+00 -.47530692E+02 0.47531769E+02 0.32000000E+00 0.0000E+00 0.9000E+01
       25  1    1    2    0    0 0.56334531E+02 -.76495209E+02 0.22507806E+03 0.27442709E+03 0.12500000E+03 0.0000E+00 0.9000E+01
      -24  1    1    2    0    0 -.56334531E+02 0.76495209E+02 0.14659312E+03 0.19230667E+03 0.80419002E+02 0.0000E+00 0.9000E+01
#aMCatNLO 1  0  0  1  2 0.39501309D+03 0.00000000D+00  -5  5  0 0.00000000D+00 0.00000000D+00 0.00000000D+00 0.00000000D+00 0.00000000D+00
  <mgrwgt>
 0.2081906887D+00    5    2    0
 0.141156773804626D+03 0.000000000000000D+00 0.000000000000000D+00 0.141156773804626D+03
 0.141156773804626D+03 0.000000000000000D+00 0.000000000000000D+00 -.141156773804626D+03
 0.157375945932888D+03 0.563345309703305D+02 -.764952089124099D+02 0.108209053258453D+02
 0.124937601676364D+03 -.563345309703305D+02 0.764952089124099D+02 -.108209053258453D+02
 0.000000000000000D+00 -.000000000000000D+00 -.000000000000000D+00 0.000000000000000D+00
 0.753873743274293D+03 0.000000000000000D+00 0.000000000000000D+00 0.753873743274293D+03
 0.319085151863171D+03 0.000000000000000D+00 0.000000000000000D+00 -.319085151863171D+03
 0.253375203222991D+03 0.208747163096297D+03 0.698679004655845D+02 0.108209053258453D+02
 0.232151602751984D+03 0.761663899949273D+02 0.203736937615676D+03 -.108209053258453D+02
 0.587432089162490D+03 -.284913553091224D+03 -.273604838081261D+03 0.434788591411123D+03
0.107352362688D-02 0.000000000000D+00 0.000000000000D+00 0.247584276124D-02 0.000000000000D+00  5 -2 1 25 -24 21 0 0.64492688D-01 0.73125064D-02 0.19806567D+05 0.19806567D+05 0.19806567D+05 0.12342910D+01  1  2  2  1  5  1       -2 0.203383336588D+00 0.100000000000D+01
-.596395546272D-04 0.000000000000D+00 -.412261339250D-05 0.247584276124D-02 0.000000000000D+00  5 -2 1 25 -24 21 2 0.64492688D-01 0.73125064D-02 0.19806567D+05 0.19806567D+05 0.19806567D+05 0.12342910D+01  1  2  3  1  5  1       -2 -.172136619136D-01 0.100000000000D+01
0.741365811497D-04 0.000000000000D+00 0.000000000000D+00 0.247584276124D-02 0.000000000000D+00  5 -2 1 25 -24 21 2 0.64492688D-01 0.73125064D-02 0.19806567D+05 0.19806567D+05 0.19806567D+05 0.12342910D+01  1  2 15  1  5  1       -2 0.213979137054D-01 0.100000000000D+01
0.641850158184D-03 0.000000000000D+00 -.507852522620D-03 0.247584276124D-02 0.000000000000D+00  5 -2 1 25 -24 21 2 0.48846361D+00 0.73125064D-02 0.19806567D+05 0.19806567D+05 0.19806567D+05 0.12342910D+01  1  2  5  1  5  1       -2 0.214551656618D-03 0.100000000000D+01
0.102781779978D-03 0.000000000000D+00 -.125230361601D-03 0.247584276124D-02 0.000000000000D+00  5 21 1 25 -24 2 2 0.48846361D+00 0.73125064D-02 0.19806567D+05 0.19806567D+05 0.19806567D+05 0.12342910D+01  1  2  5  3  5  1       -2 0.408548661224D-03 0.100000000000D+01
  </mgrwgt>
  </event>
  <event>
  4     66 0.46019439E-03 0.11193414E+03 0.75467711E-02 0.11538185E+00
       -2 -1    0    0    0  501 0.00000000E+00 0.00000000E+00 0.10112040E+03 0.10112090E+03 0.32000000E+00 0.0000E+00 0.9000E+01
        1 -1    0    0  501    0 0.00000000E+00 0.00000000E+00 -.13443387E+03 0.13443425E+03 0.32000000E+00 0.0000E+00 0.9000E+01
       25  1    1    2    0    0 -.24091134E+02 -.36347029E+02 0.12990359E+02 0.13302345E+03 0.12500000E+03 0.0000E+00 0.9000E+01
      -24  1    1    2    0    0 0.24091134E+02 0.36347029E+02 -.46303827E+02 0.10253170E+03 0.80419002E+02 0.0000E+00 0.9000E+01
#aMCatNLO 1  0  0  1  2 0.13092784D+03 0.00000000D+00  -5  5  0 0.00000000D+00 0.00000000D+00 0.00000000D+00 0.00000000D+00 0.00000000D+00
  <mgrwgt>
 0.1651949132D+00    5    2    0
 0.116593784814510D+03 0.000000000000000D+00 0.000000000000000D+00 0.116593784814510D+03
 0.116593784814510D+03 0.000000000000000D+00 0.000000000000000D+00 -.116593784814510D+03
 0.136229874465855D+03 -.240911341273021D+02 -.363470290555194D+02 0.321261487309064D+02
 0.969576951631653D+02 0.240911341273021D+02 0.363470290555194D+02 -.321261487309064D+02
 0.000000000000000D+00 0.000000000000000D+00 -.000000000000000D+00 0.000000000000000D+00
 0.214557826338571D+03 0.000000000000000D+00 0.000000000000000D+00 0.214557826338571D+03
 0.186725169458800D+03 0.000000000000000D+00 0.000000000000000D+00 -.186725169458800D+03
 0.143405256883019D+03 -.548405086680155D+02 0.300082801646085D+02 0.321261487309064D+02
 0.124024251474461D+03 -.208590342649270D+00 0.887843795789463D+02 -.321261487309064D+02
 0.133853487439891D+03 0.550490990106648D+02 -.118792659743555D+03 0.278326568797705D+02
0.232640857828D-03 0.000000000000D+00 0.000000000000D+00 0.266650802821D-02 0.000000000000D+00  5 -2 1 25 -24 21 0 0.15557053D-01 0.20682202D-01 0.12529251D+05 0.12529251D+05 0.12529251D+05 0.12568333D+01  1  2  2  1  5  1       -2 0.150185998116D+00 0.100000000000D+01
-.128983522633D-04 0.000000000000D+00 -.893402149802D-06 0.266650802821D-02 0.000000000000D+00  5 -2 1 25 -24 21 2 0.15557053D-01 0.20682202D-01 0.12529251D+05 0.12529251D+05 0.12529251D+05 0.12568333D+01  1  2  3  1  5  1       -2 -.131532483767D-01 0.100000000000D+01
0.160952582075D-04 0.000000000000D+00 0.000000000000D+00 0.266650802821D-02 0.000000000000D+00  5 -2 1 25 -24 21 2 0.15557053D-01 0.20682202D-01 0.12529251D+05 0.12529251D+05 0.12529251D+05 0.12568333D+01  1  2 15  1  5  1       -2 0.164133312975D-01 0.100000000000D+01
0.116080590268D-04 0.000000000000D+00 -.643907996475D-04 0.266650802821D-02 0.000000000000D+00  5 -2 1 25 -24 21 2 0.44527092D-01 0.20682202D-01 0.12529251D+05 0.12529251D+05 0.12529251D+05 0.12568333D+01  1  2  5  1  5  1       -2 0.185697920481D-02 0.100000000000D+01
0.486123108735D-05 0.000000000000D+00 -.763575083551D-05 0.266650802821D-02 0.000000000000D+00  5 21 1 25 -24 2 2 0.44527092D-01 0.20682202D-01 0.12529251D+05 0.12529251D+05 0.12529251D+05 0.12568333D+01  1  2  5  3  5  1       -2 0.989185298466D-02 0.100000000000D+01
  </mgrwgt>
  </event>
  <event>
  5     66 0.46019439E-03 0.11042214E+03 0.75467711E-02 0.11944611E+00
       21 -1    0    0  502  501 0.00000000E+00 0.00000000E+00 0.22107496E+02 0.22120215E+02 0.75000000E+00 0.0000E+00 0.9000E+01
        1 -1    0    0  501    0 0.00000000E+00 0.00000000E+00 -.10887628E+04 0.10887629E+04 0.32000000E+00 0.0000E+00 0.9000E+01
       25  1    1    2    0    0 -.62663200E+02 0.27938241E+02 -.46502560E+03 0.48639596E+03 0.12500000E+03 0.0000E+00 0.9000E+01
      -24  1    1    2    0    0 0.21981144E+02 0.36654361E+02 -.32611294E+03 0.33859057E+03 0.80419002E+02 0.0000E+00 0.9000E+01
        2  1    1    2  502    0 0.40682056E+02 -.64592602E+02 -.27551681E+03 0.28589657E+03 0.32000000E+00 0.0000E+00 0.9000E+01
#aMCatNLO 2  0  0  1  1 0.76336321D+02 0.00000000D+00  -5  5  0 0.00000000D+00 0.00000000D+00 0.00000000D+00 0.00000000D+00 0.00000000D+00
  <mgrwgt>
 0.5645676536D-01    1    2    0
 0.110538865514051D+03 0.000000000000000D+00 0.000000000000000D+00 0.110538865514051D+03
 0.110538865514051D+03 0.000000000000000D+00 0.000000000000000D+00 -.110538865514051D+03
 0.131250549144605D+03 -.381689543516806D+02 -.109522974134761D+02 0.498846227072962D+01
 0.898271818834975D+02 0.381689543516806D+02 0.109522974134761D+02 -.498846227072962D+01
 0.000000000000000D+00 0.000000000000000D+00 -.000000000000000D+00 -.000000000000000D+00
 0.152804091383112D+03 0.000000000000000D+00 0.000000000000000D+00 0.152804091383112D+03
 0.157566506134316D+03 0.000000000000000D+00 0.000000000000000D+00 -.157566506134316D+03
 0.142678333126627D+03 -.626632001254819D+02 0.279382414979889D+02 0.498846227072962D+01
 0.912075303006340D+02 0.219811442271649D+02 0.366543608839195D+02 -.498846227072962D+01
 0.764847340901674D+02 0.406820558983170D+02 -.645926023819085D+02 -.476241475120460D+01
0.472353773740D-05 0.000000000000D+00 0.000000000000D+00 0.299192586686D-02 0.293937149002D-06  5 21 1 25 -24 2 2 0.34021279D-02 0.16750260D+00 0.24024757D+05 0.24024757D+05 0.24024757D+05 0.12251547D+01  1  2  1  3  5  1       -2 0.564567653629D-01 0.100000000000D+01
  </mgrwgt>
  </event>
  <event>
  4     66 0.46019439E-03 0.17660442E+03 0.75467711E-02 0.11214315E+00
       -4 -1    0    0    0  501 0.00000000E+00 0.00000000E+00 0.17693160E+02 0.17760923E+02 0.15500000E+01 0.0000E+00 0.9000E+01
        3 -1    0    0  501    0 0.00000000E+00 0.00000000E+00 -.18587652E+04 0.18587653E+04 0.50000000E+00 0.0000E+00 0.9000E+01
       25  1    1    2    0    0 -.59442526E+02 0.12952859E+03 -.76808540E+03 0.79113289E+03 0.12500000E+03 0.0000E+00 0.9000E+01
      -24  1    1    2    0    0 0.59442526E+02 -.12952859E+03 -.10729866E+04 0.10853933E+04 0.80419002E+02 0.0000E+00 0.9000E+01
#aMCatNLO 1  0  0  2  1 0.10632801D+03 0.00000000D+00  -5  5  0 0.00000000D+00 0.00000000D+00 0.00000000D+00 0.00000000D+00 0.00000000D+00
  <mgrwgt>
 0.1426099974D-01    7    2    0
 0.181524300805652D+03 0.000000000000000D+00 0.000000000000000D+00 0.181524300805652D+03
 0.181524300805652D+03 0.000000000000000D+00 0.000000000000000D+00 -.181524300805652D+03
 0.194136639766586D+03 -.594425256939506D+02 0.129528589502940D+03 0.418684313100445D+02
 0.168911961844719D+03 0.594425256939506D+02 -.129528589502940D+03 -.418684313100445D+02
 0.000000000000000D+00 -.000000000000000D+00 -.000000000000000D+00 -.000000000000000D+00
 0.242287295636347D+03 0.000000000000000D+00 0.000000000000000D+00 0.242287295636347D+03
 0.242339460414592D+03 0.000000000000000D+00 0.000000000000000D+00 -.242339460414592D+03
 0.210581334102742D+03 -.125452436756002D+02 0.163734998070805D+03 0.418684313100445D+02
 0.167717400452346D+03 0.984499411254185D+02 -.101076970731022D+03 -.418684313100445D+02
 0.106328021495850D+03 -.859046974498183D+02 -.626580273397834D+02 -.521647782454433D-01
0.137663314424D-02 0.000000000000D+00 0.000000000000D+00 0.211623370256D-02 0.000000000000D+00  5 -4 3 25 -24 21 0 0.27272423D-02 0.28596909D+00 0.31189120D+05 0.31189120D+05 0.31189120D+05 0.12131306D+01  1  2  2  2  5  2        3 0.959050113433D-02 0.100000000000D+01
-.764094132673D-04 0.000000000000D+00 -.528663374972D-05 0.211623370256D-02 0.000000000000D+00  5 -4 3 25 -24 21 2 0.27272423D-02 0.28596909D+00 0.31189120D+05 0.31189120D+05 0.31189120D+05 0.12131306D+01  1  2  3  2  5  2        3 -.783402651338D-03 0.100000000000D+01
0.947965262090D-04 0.000000000000D+00 0.000000000000D+00 0.211623370256D-02 0.000000000000D+00  5 -4 3 25 -24 21 2 0.27272423D-02 0.28596909D+00 0.31189120D+05 0.31189120D+05 0.31189120D+05 0.12131306D+01  1  2 15  2  5  2        3 0.971920170489D-03 0.100000000000D+01
-.478287533638D-03 0.000000000000D+00 0.000000000000D+00 0.211623370256D-02 0.000000000000D+00  5 -4 3 25 -24 21 2 0.27272423D-02 0.28596909D+00 0.31189120D+05 0.31189120D+05 0.31189120D+05 0.12131306D+01  1  2  4  2  5  2        3 -.490373771937D-02 0.100000000000D+01
-.990572052003D-03 0.000000000000D+00 -.520261718058D-03 0.211623370256D-02 0.000000000000D+00  5 -4 3 25 -24 21 2 0.27272423D-02 0.43410469D+00 0.31189120D+05 0.31189120D+05 0.31189120D+05 0.12131306D+01  1  2  5  2  5  2        3 -.176492649155D-02 0.100000000000D+01
0.114847222138D-02 0.000000000000D+00 0.478012871429D-03 0.211623370256D-02 0.000000000000D+00  5 -4 3 25 -24 21 2 0.27272423D-02 0.28596909D+00 0.31189120D+05 0.31189120D+05 0.31189120D+05 0.12131306D+01  1  2  6  2  5  2        3 0.117749390388D-01 0.100000000000D+01
-.298566335879D-04 0.000000000000D+00 -.255543659821D-04 0.211623370256D-02 0.000000000000D+00  5 -4 21 25 -24 -3 2 0.27272423D-02 0.43410469D+00 0.31189120D+05 0.31189120D+05 0.31189120D+05 0.12131306D+01  1  2  5  4  5  2        3 -.624293737751D-03 0.100000000000D+01
  </mgrwgt>
  </event>
  <event>
  4     66 0.46019439E-03 0.10467326E+03 0.75467711E-02 0.11479293E+00
       -2 -1    0    0    0  501 0.00000000E+00 0.00000000E+00 0.10692792E+02 0.10697579E+02 0.32000000E+00 0.0000E+00 0.9000E+01
        1 -1    0    0  501    0 0.00000000E+00 0.00000000E+00 -.13344211E+04 0.13344211E+04 0.32000000E+00 0.0000E+00 0.9000E+01
       25  1    1    2    0    0 0.10974894E+02 -.16380864E+02 -.44935664E+03 0.46683527E+03 0.12500000E+03 0.0000E+00 0.9000E+01
      -24  1    1    2    0    0 -.10974894E+02 0.16380864E+02 -.87437163E+03 0.87828340E+03 0.80419002E+02 0.0000E+00 0.9000E+01
#aMCatNLO 1  0  0  1  1 0.14866954D+03 0.00000000D+00  -5  5  0 0.00000000D+00 0.00000000D+00 0.00000000D+00 0.00000000D+00 0.00000000D+00
  <mgrwgt>
 0.2747860831D+00    5    2    0
 0.119465192828034D+03 0.000000000000000D+00 0.000000000000000D+00 0.119465192828034D+03
 0.119465192828034D+03 0.000000000000000D+00 0.000000000000000D+00 -.119465192828034D+03
 0.138629318856801D+03 0.109748943991380D+02 -.163808639872841D+02 0.566065988614264D+02
 0.100301066799267D+03 -.109748943991380D+02 0.163808639872841D+02 -.566065988614264D+02
 0.000000000000000D+00 -.000000000000000D+00 0.000000000000000D+00 0.000000000000000D+00
 0.225163621983199D+03 0.000000000000000D+00 0.000000000000000D+00 0.225163621983199D+03
 0.206127500113584D+03 0.000000000000000D+00 0.000000000000000D+00 -.206127500113584D+03
 0.175344922498099D+03 0.467293626353446D+02 -.986554685706796D+02 0.566065988614264D+02
 0.106062895582323D+03 0.125252300258147D+02 -.376952708317390D+02 -.566065988614264D+02
 0.149883304016362D+03 -.592545926611594D+02 0.136350739402419D+03 0.190361218696157D+02
0.258533248714D-03 0.000000000000D+00 0.000000000000D+00 0.225193106068D-02 0.000000000000D+00  5 -2 1 25 -24 21 0 0.16454161D-02 0.20529592D+00 0.10956491D+05 0.10956491D+05 0.10956491D+05 0.12636811D+01  1  2  2  1  5  1       -2 0.207967494940D+00 0.100000000000D+01
-.140578415637D-04 0.000000000000D+00 -.992835748428D-06 0.225193106068D-02 0.000000000000D+00  5 -2 1 25 -24 21 2 0.16454161D-02 0.20529592D+00 0.10956491D+05 0.10956491D+05 0.10956491D+05 0.12636811D+01  1  2  3  1  5  1       -2 -.180581272128D-01 0.100000000000D+01
0.177498388113D-04 0.000000000000D+00 0.000000000000D+00 0.225193106068D-02 0.000000000000D+00  5 -2 1 25 -24 21 2 0.16454161D-02 0.20529592D+00 0.10956491D+05 0.10956491D+05 0.10956491D+05 0.12636811D+01  1  2 15  1  5  1       -2 0.228007155871D-01 0.100000000000D+01
0.736963066990D-04 0.000000000000D+00 -.782847028800D-04 0.225193106068D-02 0.000000000000D+00  5 -2 1 25 -24 21 2 0.58190627D-02 0.20529592D+00 0.10956491D+05 0.10956491D+05 0.10956491D+05 0.12636811D+01  1  2  5  1  5  1       -2 0.148984369212D-01 0.100000000000D+01
0.132974925864D-04 0.000000000000D+00 -.115886299621D-04 0.225193106068D-02 0.000000000000D+00  5 21 1 25 -24 2 2 0.58190627D-02 0.20529592D+00 0.10956491D+05 0.10956491D+05 0.10956491D+05 0.12636811D+01  1  2  5  3  5  1       -2 0.471775628789D-01 0.100000000000D+01
  </mgrwgt>
  </event>
  <event>
  4     66 0.46019439E-03 0.12272600E+03 0.75467711E-02 0.11900904E+00
       -2 -1    0    0    0  501 0.00000000E+00 0.00000000E+00 0.21876749E+02 0.21879090E+02 0.32000000E+00 0.0000E+00 0.9000E+01
        1 -1    0    0  501    0 0.00000000E+00 0.00000000E+00 -.14419617E+04 0.14419617E+04 0.32000000E+00 0.0000E+00 0.9000E+01
       25  1    1    2    0    0 0.42520863E+01 0.65920319E+02 -.23540187E+03 0.27459535E+03 0.12500000E+03 0.0000E+00 0.9000E+01
      -24  1    1    2    0    0 -.42520863E+01 -.65920319E+02 -.11846831E+04 0.11892455E+04 0.80419002E+02 0.0000E+00 0.9000E+01
#aMCatNLO 1  0  0  1  1 0.62778501D+02 0.00000000D+00  -5  5  0 0.00000000D+00 0.00000000D+00 0.00000000D+00 0.00000000D+00 0.00000000D+00
  <mgrwgt>
 0.2153122983D+00    4    2    0
 0.177615239342763D+03 0.000000000000000D+00 0.000000000000000D+00 0.177615239342763D+03
 0.177615239342763D+03 0.000000000000000D+00 0.000000000000000D+00 -.177615239342763D+03
 0.190505158135086D+03 0.425208634286921D+01 0.659203193645178D+02 0.127685733473584D+03
 0.164725320550439D+03 -.425208634286921D+01 -.659203193645178D+02 -.127685733473584D+03
 0.000000000000000D+00 -.000000000000000D+00 0.000000000000000D+00 -.000000000000000D+00
 0.192436354006161D+03 0.000000000000000D+00 0.000000000000000D+00 0.192436354006161D+03
 0.262006659654535D+03 0.000000000000000D+00 0.000000000000000D+00 -.262006659654535D+03
 0.181948362090675D+03 0.764278083641706D+01 0.334387176171400D+02 0.127685733473584D+03
 0.178786766812586D+03 -.112486514656280D+01 -.958779441719647D+02 -.127685733473584D+03
 0.937078847574363D+02 -.651791568985426D+01 0.624392265548247D+02 -.695703056483741D+02
0.968286805202D-03 0.000000000000D+00 0.000000000000D+00 0.115540019239D-02 0.000000000000D+00  5 -2 1 25 -24 21 0 0.33658365D-02 0.22184044D+00 0.15061670D+05 0.15061670D+05 0.15061670D+05 0.12476194D+01  1  2  2  1  5  1       -2 0.235584314776D+00 0.100000000000D+01
-.448559096577D-04 0.000000000000D+00 -.371847628775D-05 0.115540019239D-02 0.000000000000D+00  5 -2 1 25 -24 21 2 0.33658365D-02 0.22184044D+00 0.15061670D+05 0.15061670D+05 0.15061670D+05 0.12476194D+01  1  2  3  1  5  1       -2 -.169873760000D-01 0.100000000000D+01
0.660522206935D-04 0.000000000000D+00 0.000000000000D+00 0.115540019239D-02 0.000000000000D+00  5 -2 1 25 -24 21 2 0.33658365D-02 0.22184044D+00 0.15061670D+05 0.15061670D+05 0.15061670D+05 0.12476194D+01  1  2 15  1  5  1       -2 0.250146283315D-01 0.100000000000D+01
-.747254576768D-04 0.000000000000D+00 0.000000000000D+00 0.115540019239D-02 0.000000000000D+00  5 -2 1 25 -24 21 2 0.33658365D-02 0.22184044D+00 0.15061670D+05 0.15061670D+05 0.15061670D+05 0.12476194D+01  1  2  4  1  5  1       -2 -.282992688369D-01 0.100000000000D+01
  </mgrwgt>
  </event>
  <event>
  4     66 0.46019439E-03 0.10517674E+03 0.75467711E-02 0.11482167E+00
       -4 -1    0    0    0  501 0.00000000E+00 0.00000000E+00 0.23740732E+03 0.23741238E+03 0.15500000E+01 0.0000E+00 0.9000E+01
        3 -1    0    0  501    0 0.00000000E+00 0.00000000E+00 -.46604303E+02 0.46606985E+02 0.50000000E+00 0.0000E+00 0.9000E+01
       25  1    1    2    0    0 -.16486902E+02 0.14766497E+02 0.11748656E+03 0.17296809E+03 0.12500000E+03 0.0000E+00 0.9000E+01
      -24  1    1    2    0    0 0.16486902E+02 -.14766497E+02 0.73316450E+02 0.11105127E+03 0.80419002E+02 0.0000E+00 0.9000E+01
#aMCatNLO 1  0  0  2  2 0.14700111D+03 0.00000000D+00  -5  5  0 0.00000000D+00 0.00000000D+00 0.00000000D+00 0.00000000D+00 0.00000000D+00
  <mgrwgt>
 0.4689531247D-01    3    2    0
 0.105191739474770D+03 0.000000000000000D+00 0.000000000000000D+00 0.105191739474770D+03
 0.105191739474770D+03 0.000000000000000D+00 0.000000000000000D+00 -.105191739474770D+03
 0.126956243254618D+03 -.164869023363976D+02 0.147664973436899D+02 0.173790358610656D+01
 0.834272356949231D+02 0.164869023363976D+02 -.147664973436899D+02 -.173790358610656D+01
 0.000000000000000D+00 -.000000000000000D+00 0.000000000000000D+00 0.000000000000000D+00
 0.236319528411087D+03 0.000000000000000D+00 0.000000000000000D+00 0.236319528411087D+03
 0.178350992384887D+03 0.000000000000000D+00 0.000000000000000D+00 -.178350992384887D+03
 0.140634410434715D+03 0.631877526202124D+02 -.125429266222873D+02 0.173790358610656D+01
 0.116018145255183D+03 0.758714200346059D+02 -.351212384055575D+02 -.173790358610656D+01
 0.158017965106076D+03 -.139059172654818D+03 0.476641650278448D+02 0.579685360261999D+02
0.269109675834D-03 0.000000000000D+00 0.000000000000D+00 0.315589209664D-02 0.000000000000D+00  5 -4 3 25 -24 21 0 0.36524798D-01 0.71704884D-02 0.11062147D+05 0.11062147D+05 0.11062147D+05 0.12631873D+01  1  2  2  2  5  2        3 0.459043907959D-01 0.100000000000D+01
-.149505371767D-04 0.000000000000D+00 -.103345201341D-05 0.315589209664D-02 0.000000000000D+00  5 -4 3 25 -24 21 2 0.36524798D-01 0.71704884D-02 0.11062147D+05 0.11062147D+05 0.11062147D+05 0.12631873D+01  1  2  3  2  5  2        3 -.406927691464D-02 0.100000000000D+01
0.185911867841D-04 0.000000000000D+00 0.000000000000D+00 0.315589209664D-02 0.000000000000D+00  5 -4 3 25 -24 21 2 0.36524798D-01 0.71704884D-02 0.11062147D+05 0.11062147D+05 0.11062147D+05 0.12631873D+01  1  2 15  2  5  2        3 0.506019859368D-02 0.100000000000D+01
  </mgrwgt>
  </event>
  <event>
  4     66 0.46019439E-03 0.13460720E+03 0.75467711E-02 0.10025735E+00
       -2 -1    0    0    0  501 0.00000000E+00 0.00000000E+00 0.27417807E+02 0.27419675E+02 0.32000000E+00 0.0000E+00 0.9000E+01
        1 -1    0    0  501    0 0.00000000E+00 0.00000000E+00 -.74062338E+03 0.74062345E+03 0.32000000E+00 0.0000E+00 0.9000E+01
       25  1    1    2    0    0 0.85366956E+02 -.86462515E+01 -.27165642E+03 0.31110205E+03 0.12500000E+03 0.0000E+00 0.9000E+01
      -24  1    1    2    0    0 -.85366956E+02 0.86462515E+01 -.44154915E+03 0.45694107E+03 0.80419002E+02 0.0000E+00 0.9000E+01
#aMCatNLO 1  0  0  2  2 0.51277391D+03 0.00000000D+00  -5  5  0 0.00000000D+00 0.00000000D+00 0.00000000D+00 0.00000000D+00 0.00000000D+00
  <mgrwgt>
 0.2471460667D+00    5    2    0
 0.142502676163764D+03 0.000000000000000D+00 0.000000000000000D+00 0.142502676163764D+03
 0.142502676163764D+03 0.000000000000000D+00 0.000000000000000D+00 -.142502676163764D+03
 0.158568662242344D+03 0.853669557796547D+02 -.864625151662321D+01 0.464407777815172D+02
 0.126436690085185D+03 -.853669557796547D+02 0.864625151662321D+01 -.464407777815172D+02
 0.000000000000000D+00 0.000000000000000D+00 0.000000000000000D+00 -.000000000000000D+00
 0.406310664717687D+03 0.000000000000000D+00 0.000000000000000D+00 0.406310664717687D+03
 0.875136124176003D+03 0.000000000000000D+00 0.000000000000000D+00 -.875136124176003D+03
 0.181626366369803D+03 -.108356769852994D+03 -.588659625485804D+02 0.464407777815172D+02
 0.405029523369884D+03 -.388009870164432D+03 -.698089798012664D+02 -.464407777815172D+02
 0.694790899154002D+03 0.496366640017426D+03 0.128674942349847D+03 -.468825459458317D+03
0.432850968404D-03 0.000000000000D+00 0.000000000000D+00 0.223790813019D-02 0.000000000000D+00  5 -2 1 25 -24 21 0 0.42182731D-02 0.11394221D+00 0.18119099D+05 0.18119099D+05 0.18119099D+05 0.12385764D+01  1  2  2  2  5  2        1 0.241964288974D+00 0.100000000000D+01
-.239522823038D-04 0.000000000000D+00 -.166226169095D-05 0.223790813019D-02 0.000000000000D+00  5 -2 1 25 -24 21 2 0.42182731D-02 0.11394221D+00 0.18119099D+05 0.18119099D+05 0.18119099D+05 0.12385764D+01  1  2  3  2  5  2        1 -.205402327666D-01 0.100000000000D+01
0.299060689748D-04 0.000000000000D+00 0.000000000000D+00 0.223790813019D-02 0.000000000000D+00  5 -2 1 25 -24 21 2 0.42182731D-02 0.11394221D+00 0.18119099D+05 0.18119099D+05 0.18119099D+05 0.12385764D+01  1  2 15  2  5  2        1 0.256458908629D-01 0.100000000000D+01
0.408580259483D-03 0.000000000000D+00 -.270612771270D-03 0.223790813019D-02 0.000000000000D+00  5 -2 1 25 -24 21 2 0.42182731D-02 0.81811555D+00 0.18119099D+05 0.18119099D+05 0.18119099D+05 0.12385764D+01  1  2  5  2  5  2        1 0.755016235377D-04 0.100000000000D+01
0.715539231296D-04 0.000000000000D+00 -.651411585802D-04 0.223790813019D-02 0.000000000000D+00  5 -2 21 25 -24 -1 2 0.42182731D-02 0.81811555D+00 0.18119099D+05 0.18119099D+05 0.18119099D+05 0.12385764D+01  1  2  5  4  5  2        1 0.617998922848D-06 0.100000000000D+01
  </mgrwgt>
  </event>
  <event>
  5     66 -.46019439E-03 0.18141228E+03 0.75467711E-02 0.11554226E+00
       -2 -1    0    0    0  502 0.00000000E+00 0.00000000E+00 0.14786367E+03 0.14786402E+03 0.32000000E+00 0.0000E+00 0.9000E+01
        1 -1    0    0  501    0 0.00000000E+00 0.00000000E+00 -.26046589E+03 0.26046609E+03 0.32000000E+00 0.0000E+00 0.9000E+01
       25  1    1    2    0    0 -.15115999E+03 0.55804024E+02 -.89270773E+02 0.22261560E+03 0.12500000E+03 0.0000E+00 0.9000E+01
      -24  1    1    2    0    0 0.12951891E+03 -.47175149E+02 -.12689718E+02 0.16009025E+03 0.80419002E+02 0.0000E+00 0.9000E+01
       21  1    1    2  501  502 0.21641085E+02 -.86288749E+01 -.10641728E+02 0.25624264E+02 0.75000000E+00 0.0000E+00 0.9000E+01
#aMCatNLO 2  0  0  1  2 0.23297941D+02 0.00000000D+00  -5  5  0 0.00000000D+00 0.00000000D+00 0.00000000D+00 0.00000000D+00 0.00000000D+00
  <mgrwgt>
 -.7895238543D-01    2    2    0
 0.184068620135020D+03 0.000000000000000D+00 0.000000000000000D+00 0.184068620135020D+03
 0.184068620135020D+03 0.000000000000000D+00 0.000000000000000D+00 -.184068620135020D+03
 0.196506622928369D+03 -.139332610843713D+03 0.510881321962893D+02 -.310850311063259D+02
 0.171630617341671D+03 0.139332610843713D+03 -.510881321962893D+02 0.310850311063259D+02
 0.000000000000000D+00 0.000000000000000D+00 -.000000000000000D+00 -.000000000000000D+00
 0.194273802235973D+03 0.000000000000000D+00 0.000000000000000D+00 0.194273802235973D+03
 0.198231646252401D+03 0.000000000000000D+00 0.000000000000000D+00 -.198231646252401D+03
 0.206287934938647D+03 -.151159994257943D+03 0.558040238541003D+02 -.310850311063259D+02
 0.162585785607960D+03 0.129518909382744D+03 -.471751489749665D+02 0.310850311063259D+02
 0.236317279417666D+02 0.216410848751987D+02 -.862887487913379D+01 -.395784401642752D+01
-.999382668385D-03 0.000000000000D+00 0.000000000000D+00 0.215803204582D-02 0.000000000000D+00  5 -2 1 25 -24 21 2 0.23524781D-01 0.37207590D-01 0.37406826D+05 0.37406826D+05 0.37406826D+05 0.12049676D+01  1  2 13  1  5  1       -2 -.229990765488D+00 0.100000000000D+01
0.679145094116D-03 0.000000000000D+00 0.000000000000D+00 0.215803204582D-02 0.308530776772D-04  5 -2 1 25 -24 21 2 0.22747608D-01 0.40070501D-01 0.37406826D+05 0.37406826D+05 0.37406826D+05 0.12049676D+01  1  2  1  1  5  1       -2 0.151038380059D+00 0.100000000000D+01
  </mgrwgt>
  </event>
  <event>
  4     66 0.46019439E-03 0.22794569E+03 0.75467711E-02 0.10668519E+00
       -2 -1    0    0    0  501 0.00000000E+00 0.00000000E+00 0.45418594E+02 0.45419721E+02 0.32000000E+00 0.0000E+00 0.9000E+01
        1 -1    0    0  501    0 0.00000000E+00 0.00000000E+00 -.14021623E+04 0.14021623E+04 0.32000000E+00 0.0000E+00 0.9000E+01
       25  1    1    2    0    0 0.20034499E+03 -.29595524E+02 -.10130878E+04 0.10406661E+04 0.12500000E+03 0.0000E+00 0.9000E+01
      -24  1    1    2    0    0 -.20034499E+03 0.29595524E+02 -.34365587E+03 0.40691594E+03 0.80419002E+02 0.0000E+00 0.9000E+01
#aMCatNLO 1  0  0  2  1 0.19186090D+03 0.00000000D+00  -5  5  0 0.00000000D+00 0.00000000D+00 0.00000000D+00 0.00000000D+00 0.00000000D+00
  <mgrwgt>
 0.2813478882D+00    3    2    0
 0.252359036472460D+03 0.000000000000000D+00 0.000000000000000D+00 0.252359036472460D+03
 0.252359036472460D+03 0.000000000000000D+00 0.000000000000000D+00 -.252359036472460D+03
 0.261431214126210D+03 0.200344985758620D+03 -.295955244835168D+02 -.108200144784692D+03
 0.243286858818710D+03 -.200344985758620D+03 0.295955244835168D+02 0.108200144784692D+03
 0.000000000000000D+00 -.000000000000000D+00 0.000000000000000D+00 0.000000000000000D+00
 0.433274726066080D+03 0.000000000000000D+00 0.000000000000000D+00 0.433274726066080D+03
 0.326332431916981D+03 0.000000000000000D+00 0.000000000000000D+00 -.326332431916981D+03
 0.356271447383701D+03 0.313674240415662D+03 -.347209416506311D+02 -.108200144784692D+03
 0.183683123026466D+03 -.122009254315979D+03 0.260527207833636D+02 0.108200144784692D+03
 0.219652587572894D+03 -.191664986099683D+03 0.866822086726749D+01 0.106942294149099D+03
0.321587886827D-02 0.000000000000D+00 0.000000000000D+00 0.169152358987D-02 0.000000000000D+00  5 -2 1 25 -24 21 0 0.69875655D-02 0.21571737D+00 0.51959238D+05 0.51959238D+05 0.51959238D+05 0.11906321D+01  1  2  2  2  5  2        1 0.275914450307D+00 0.100000000000D+01
-.176411201482D-03 0.000000000000D+00 -.123498216145D-04 0.169152358987D-02 0.000000000000D+00  5 -2 1 25 -24 21 2 0.69875655D-02 0.21571737D+00 0.51959238D+05 0.51959238D+05 0.51959238D+05 0.11906321D+01  1  2  3  2  5  2        1 -.214563626318D-01 0.100000000000D+01
0.221084164723D-03 0.000000000000D+00 0.000000000000D+00 0.169152358987D-02 0.000000000000D+00  5 -2 1 25 -24 21 2 0.69875655D-02 0.21571737D+00 0.51959238D+05 0.51959238D+05 0.51959238D+05 0.11906321D+01  1  2 15  2  5  2        1 0.268898004809D-01 0.100000000000D+01
  </mgrwgt>
  </event>
  <event>
  4     66 -.46019439E-03 0.21788122E+03 0.75467711E-02 0.11234580E+00
       -2 -1    0    0    0  501 0.00000000E+00 0.00000000E+00 0.25649311E+02 0.25651307E+02 0.32000000E+00 0.0000E+00 0.9000E+01
        1 -1    0    0  501    0 0.00000000E+00 0.00000000E+00 -.18967044E+04 0.18967045E+04 0.32000000E+00 0.0000E+00 0.9000E+01
       25  1    1    2    0    0 -.12816483E+03 -.14181081E+03 -.11290032E+04 0.11518723E+04 0.12500000E+03 0.0000E+00 0.9000E+01
      -24  1    1    2    0    0 0.12816483E+03 0.14181081E+03 -.74205194E+03 0.77048350E+03 0.80419002E+02 0.0000E+00 0.9000E+01
#aMCatNLO 1  0  0  2  2 0.32210264D+02 0.00000000D+00  -5  5  0 0.00000000D+00 0.00000000D+00 0.00000000D+00 0.00000000D+00 0.00000000D+00
  <mgrwgt>
 -.1351669927D-01    4    2    0
 0.220569958712356D+03 0.000000000000000D+00 0.000000000000000D+00 0.220569958712356D+03
 0.220569958712356D+03 0.000000000000000D+00 0.000000000000000D+00 -.220569958712356D+03
 0.230949640627213D+03 -.128164829519264D+03 -.141810811815873D+03 -.342958690261622D+02
 0.210190276797499D+03 0.128164829519264D+03 0.141810811815873D+03 0.342958690261622D+02
 0.000000000000000D+00 -.000000000000000D+00 0.000000000000000D+00 0.000000000000000D+00
 0.242491071119390D+03 0.000000000000000D+00 0.000000000000000D+00 0.242491071119390D+03
 0.233315020726430D+03 0.000000000000000D+00 0.000000000000000D+00 -.233315020726430D+03
 0.233273962792732D+03 -.117092514171110D+03 -.154612024790615D+03 -.342958690261622D+02
 0.209040323526507D+03 0.138164005296167D+03 0.130250304851686D+03 0.342958690261622D+02
 0.334918055265807D+02 -.210714911250569D+02 0.243617199389289D+02 0.917605039296035D+01
0.258016081257D-02 0.000000000000D+00 0.000000000000D+00 0.206354703380D-02 0.000000000000D+00  5 -2 1 25 -24 21 0 0.39462035D-02 0.29180084D+00 0.47472225D+05 0.47472225D+05 0.47472225D+05 0.11945195D+01  1  2  2  2  5  2        1 0.251625557598D+00 0.100000000000D+01
-.143316050398D-03 0.000000000000D+00 -.990849689220D-05 0.206354703380D-02 0.000000000000D+00  5 -2 1 25 -24 21 2 0.39462035D-02 0.29180084D+00 0.47472225D+05 0.47472225D+05 0.47472225D+05 0.11945195D+01  1  2  3  2  5  2        1 -.199429465578D-01 0.100000000000D+01
0.177067867507D-03 0.000000000000D+00 0.000000000000D+00 0.206354703380D-02 0.000000000000D+00  5 -2 1 25 -24 21 2 0.39462035D-02 0.29180084D+00 0.47472225D+05 0.47472225D+05 0.47472225D+05 0.11945195D+01  1  2 15  2  5  2        1 0.246396339348D-01 0.100000000000D+01
-.193914432957D-02 0.000000000000D+00 0.000000000000D+00 0.206354703380D-02 0.000000000000D+00  5 -2 1 25 -24 21 2 0.39462035D-02 0.29180084D+00 0.47472225D+05 0.47472225D+05 0.47472225D+05 0.11945195D+01  1  2  4  2  5  2        1 -.269838944242D+00 0.100000000000D+01
  </mgrwgt>
  </event>
  <event>
  4     66 0.46019439E-03 0.24801342E+02 0.75467711E-02 0.12355578E+00
       -2 -1    0    0    0  501 0.00000000E+00 0.00000000E+00 0.30317073E+02 0.30318762E+02 0.32000000E+00 0.0000E+00 0.9000E+01
        1 -1    0    0  501    0 0.00000000E+00 0.00000000E+00 -.47355793E+03 0.47355804E+03 0.32000000E+00 0.0000E+00 0.9000E+01
       25  1    1    2    0    0 -.28661184E+02 0.51881576E+02 -.23010360E+03 0.26848804E+03 0.12500000E+03 0.0000E+00 0.9000E+01
      -24  1    1    2    0    0 0.28661184E+02 -.51881576E+02 -.21313726E+03 0.23538876E+03 0.80419002E+02 0.0000E+00 0.9000E+01
#aMCatNLO 1  0  0  1  2 0.10895485D+02 0.00000000D+00  -5  5  0 0.00000000D+00 0.00000000D+00 0.00000000D+00 0.00000000D+00 0.00000000D+00
  <mgrwgt>
 0.2219619702D+00    6    2    0
 0.119822130710579D+03 0.000000000000000D+00 0.000000000000000D+00 0.119822130710579D+03
 0.119822130710579D+03 0.000000000000000D+00 0.000000000000000D+00 -.119822130710579D+03
 0.138929168766323D+03 -.286611844043512D+02 0.518815759022937D+02 0.127731172599261D+02
 0.100715092654835D+03 0.286611844043512D+02 -.518815759022937D+02 -.127731172599261D+02
 0.000000000000000D+00 0.000000000000000D+00 -.000000000000000D+00 -.000000000000000D+00
 0.124875033913377D+03 0.000000000000000D+00 0.000000000000000D+00 0.124875033913377D+03
 0.125966833855627D+03 0.000000000000000D+00 0.000000000000000D+00 -.125966833855627D+03
 0.141750243434422D+03 -.323558576781391D+02 0.570795713289280D+02 0.127731172599261D+02
 0.981415730737557D+02 0.260435702287290D+02 -.481988831429342D+02 -.127731172599261D+02
 0.109500512608264D+02 0.631228744941008D+01 -.888068818599372D+01 -.109179994225032D+01
0.130975510049D-03 0.000000000000D+00 0.000000000000D+00 0.275928997758D-02 0.000000000000D+00  5 -2 1 25 -24 21 0 0.46643033D-02 0.72855204D-01 0.14189882D+05 0.14189882D+05 0.14189882D+05 0.12505808D+01  1  2  2  1  5  1       -2 0.114884658349D+00 0.100000000000D+01
-.727611278020D-05 0.000000000000D+00 -.502980445234D-06 0.275928997758D-02 0.000000000000D+00  5 -2 1 25 -24 21 2 0.46643033D-02 0.72855204D-01 0.14189882D+05 0.14189882D+05 0.14189882D+05 0.12505808D+01  1  2  3  1  5  1       -2 -.998147822700D-02 0.100000000000D+01
0.906640341540D-05 0.000000000000D+00 0.000000000000D+00 0.275928997758D-02 0.000000000000D+00  5 -2 1 25 -24 21 2 0.46643033D-02 0.72855204D-01 0.14189882D+05 0.14189882D+05 0.14189882D+05 0.12505808D+01  1  2 15  1  5  1       -2 0.124374251777D-01 0.100000000000D+01
0.202567765579D-03 0.000000000000D+00 0.000000000000D+00 0.275928997758D-02 0.000000000000D+00  5 -2 1 25 -24 21 2 0.49751844D-02 0.72855204D-01 0.15547082D+05 0.15547082D+05 0.15547082D+05 0.12460528D+01  1  2 12  1  5  1       -2 0.251320942517D+00 0.100000000000D+01
-.143929601465D-03 0.000000000000D+00 0.000000000000D+00 0.275928997758D-02 0.000000000000D+00  5 -2 1 25 -24 21 2 0.46643033D-02 0.72855204D-01 0.14189882D+05 0.14189882D+05 0.14189882D+05 0.12505808D+01  1  2  4  1  5  1       -2 -.197444738234D+00 0.100000000000D+01
0.227771619498D-05 0.000000000000D+00 0.000000000000D+00 0.275928997758D-02 0.000000000000D+00  5 21 1 25 -24 2 2 0.49751844D-02 0.72855204D-01 0.15547082D+05 0.15547082D+05 0.15547082D+05 0.12460528D+01  1  2 12  3  5  1       -2 0.507451605680D-01 0.100000000000D+01
  </mgrwgt>
  </event>
  <event>
  4     66 0.46019439E-03 0.10892371E+03 0.75467711E-02 0.11885294E+00
       -2 -1    0    0    0  501 0.00000000E+00 0.00000000E+00 0.32030004E+03 0.32030020E+03 0.32000000E+00 0.0000E+00 0.9000E+01
        1 -1    0    0  501    0 0.00000000E+00 0.00000000E+00 -.40856620E+02 0.40857873E+02 0.32000000E+00 0.0000E+00 0.9000E+01
       25  1    1    2    0    0 -.98573784E+01 0.34101143E+02 0.21841262E+03 0.25414391E+03 0.12500000E+03 0.0000E+00 0.9000E+01
      -24  1    1    2    0    0 0.98573784E+01 -.34101143E+02 0.61030799E+02 0.10701416E+03 0.80419002E+02 0.0000E+00 0.9000E+01
#aMCatNLO 1  0  0  2  2 0.86373594D+02 0.00000000D+00  -5  5  0 0.00000000D+00 0.00000000D+00 0.00000000D+00 0.00000000D+00 0.00000000D+00
  <mgrwgt>
 0.2229221026D+00    3    2    0
 0.114396818611672D+03 0.000000000000000D+00 0.000000000000000D+00 0.114396818611672D+03
 0.114396818611672D+03 0.000000000000000D+00 0.000000000000000D+00 -.114396818611672D+03
 0.134410015125284D+03 -.985737839545610D+01 0.341011426113912D+02 0.343656271548385D+02
 0.943836220980608D+02 0.985737839545610D+01 -.341011426113912D+02 -.343656271548385D+02
 0.000000000000000D+00 -.000000000000000D+00 -.000000000000000D+00 0.000000000000000D+00
 0.250400420801218D+03 0.000000000000000D+00 0.000000000000000D+00 0.250400420801218D+03
 0.136834357158968D+03 0.000000000000000D+00 0.000000000000000D+00 -.136834357158968D+03
 0.153518127274072D+03 0.136462458457364D+02 0.810900674947959D+02 0.343656271548385D+02
 0.910364190430977D+02 0.249932485380962D+02 -.384120236221880D+01 -.343656271548385D+02
 0.142680231643016D+03 -.386394943838326D+02 -.772488651325771D+02 0.113566063642249D+03
0.554308411545D-03 0.000000000000D+00 0.000000000000D+00 0.267811517672D-02 0.000000000000D+00  5 -2 1 25 -24 21 0 0.49277038D-01 0.62857425D-02 0.11864374D+05 0.11864374D+05 0.11864374D+05 0.12596031D+01  1  2  2  2  5  2        1 0.218176137600D+00 0.100000000000D+01
-.307049193355D-04 0.000000000000D+00 -.212869025309D-05 0.267811517672D-02 0.000000000000D+00  5 -2 1 25 -24 21 2 0.49277038D-01 0.62857425D-02 0.11864374D+05 0.11864374D+05 0.11864374D+05 0.12596031D+01  1  2  3  2  5  2        1 -.191748138338D-01 0.100000000000D+01
0.383047048699D-04 0.000000000000D+00 0.000000000000D+00 0.267811517672D-02 0.000000000000D+00  5 -2 1 25 -24 21 2 0.49277038D-01 0.62857425D-02 0.11864374D+05 0.11864374D+05 0.11864374D+05 0.12596031D+01  1  2 15  2  5  2        1 0.239207788438D-01 0.100000000000D+01
  </mgrwgt>
  </event>
  <event>
  4     66 0.46019439E-03 0.90998313E+02 0.75467711E-02 0.12044300E+00
       -2 -1    0    0    0  501 0.00000000E+00 0.00000000E+00 0.31141752E+02 0.31143396E+02 0.32000000E+00 0.0000E+00 0.9000E+01
        1 -1    0    0  501    0 0.00000000E+00 0.00000000E+00 -.65958040E+03 0.65958047E+03 0.32000000E+00 0.0000E+00 0.9000E+01
       25  1    1    2    0    0 -.97067365E+02 -.15683631E+02 -.37107538E+03 0.40372018E+03 0.12500000E+03 0.0000E+00 0.9000E+01
      -24  1    1    2    0    0 0.97067365E+02 0.15683631E+02 -.25736326E+03 0.28700369E+03 0.80419002E+02 0.0000E+00 0.9000E+01
#aMCatNLO 1  0  0  2  1 0.74901543D+01 0.00000000D+00  -5  5  0 0.00000000D+00 0.00000000D+00 0.00000000D+00 0.00000000D+00 0.00000000D+00
  <mgrwgt>
 0.4207396682D+00   11    2    0
 0.143321608940147D+03 0.000000000000000D+00 0.000000000000000D+00 0.143321608940147D+03
 0.143321608940147D+03 0.000000000000000D+00 0.000000000000000D+00 -.143321608940147D+03
 0.159295794747421D+03 -.970673647134192D+02 -.156836314234197D+02 -.906094019287389D+01
 0.127347423132873D+03 0.970673647134192D+02 0.156836314234197D+02 0.906094019287389D+01
 0.000000000000000D+00 0.000000000000000D+00 -.000000000000000D+00 -.000000000000000D+00
 0.145184587078630D+03 0.000000000000000D+00 0.000000000000000D+00 0.145184587078630D+03
 0.151102157347063D+03 0.000000000000000D+00 0.000000000000000D+00 -.151102157347063D+03
 0.160849398980341D+03 -.100018139874635D+03 -.127200711938269D+02 -.906094019287389D+01
 0.125891663247432D+03 0.947332624979868D+02 0.180278467971893D+02 0.906094019287389D+01
 0.954568219792077D+01 0.528487737664826D+01 -.530777560336241D+01 -.591757026843312D+01
0.311465876666D-03 0.000000000000D+00 0.000000000000D+00 0.245889368772D-02 0.000000000000D+00  5 -2 1 25 -24 21 0 0.47911712D-02 0.10147404D+00 0.20457946D+05 0.20457946D+05 0.20457946D+05 0.12327451D+01  1  2  2  2  5  2        1 0.170389753015D+00 0.100000000000D+01
-.173035733043D-04 0.000000000000D+00 -.119611097725D-05 0.245889368772D-02 0.000000000000D+00  5 -2 1 25 -24 21 2 0.47911712D-02 0.10147404D+00 0.20457946D+05 0.20457946D+05 0.20457946D+05 0.12327451D+01  1  2  3  2  5  2        1 -.143851819988D-01 0.100000000000D+01
0.215120243516D-04 0.000000000000D+00 0.000000000000D+00 0.245889368772D-02 0.000000000000D+00  5 -2 1 25 -24 21 2 0.47911712D-02 0.10147404D+00 0.20457946D+05 0.20457946D+05 0.20457946D+05 0.12327451D+01  1  2 15  2  5  2        1 0.178838428351D-01 0.100000000000D+01
0.163006828854D-02 0.000000000000D+00 0.000000000000D+00 0.245889368772D-02 0.000000000000D+00  5 -2 1 25 -24 21 2 0.47911712D-02 0.10761911D+00 0.21557478D+05 0.21557478D+05 0.21557478D+05 0.12302566D+01  1  2 12  2  5  2        1 0.124327513119D+01 0.100000000000D+01
-.167691750515D-02 0.000000000000D+00 0.000000000000D+00 0.245889368772D-02 0.000000000000D+00  5 -2 1 25 -24 21 2 0.47911712D-02 0.10147404D+00 0.20457946D+05 0.20457946D+05 0.20457946D+05 0.12327451D+01  1  2  4  2  5  2        1 -.139409144483D+01 0.100000000000D+01
-.582358125450D-02 0.000000000000D+00 -.783344112673D-03 0.245889368772D-02 0.000000000000D+00  5 -2 1 25 -24 21 2 0.47911712D-02 0.10788201D+00 0.20457946D+05 0.20457946D+05 0.20457946D+05 0.12327451D+01  1  2  5  2  5  2        1 -.443870699340D+01 0.100000000000D+01
0.586202185091D-02 0.000000000000D+00 0.781877734266D-03 0.245889368772D-02 0.000000000000D+00  5 -2 1 25 -24 21 2 0.47911712D-02 0.10147404D+00 0.20457946D+05 0.20457946D+05 0.20457946D+05 0.12327451D+01  1  2  6  2  5  2        1 0.487334319468D+01 0.100000000000D+01
0.362059348303D-04 0.000000000000D+00 0.000000000000D+00 0.245889368772D-02 0.354299099793D-03  5 -2 1 25 -24 21 2 0.48534496D-02 0.10698279D+00 0.21557478D+05 0.21557478D+05 0.21557478D+05 0.12302566D+01  1  2 11  2  5  2        1 0.273152440759D-01 0.100000000000D+01
0.218585171347D-04 0.000000000000D+00 0.000000000000D+00 0.245889368772D-02 0.000000000000D+00  5 -2 21 25 -24 -1 2 0.47911712D-02 0.10761911D+00 0.21557478D+05 0.21557478D+05 0.21557478D+05 0.12302566D+01  1  2 12  4  5  2        1 0.371744584703D-01 0.100000000000D+01
-.601150421067D-04 0.000000000000D+00 -.822329783629D-05 0.245889368772D-02 0.000000000000D+00  5 -2 21 25 -24 -1 2 0.47911712D-02 0.10788201D+00 0.20457946D+05 0.20457946D+05 0.20457946D+05 0.12327451D+01  1  2  5  4  5  2        1 -.102092489334D+00 0.100000000000D+01
0.374835595145D-06 0.000000000000D+00 0.000000000000D+00 0.245889368772D-02 0.327305897310D-05  5 -2 21 25 -24 -1 2 0.48534496D-02 0.10698279D+00 0.21557478D+05 0.21557478D+05 0.21557478D+05 0.12302566D+01  1  2 11  4  5  2        1 0.634153478761D-03 0.100000000000D+01
  </mgrwgt>
  </event>
  <event>
  4     66 0.46019439E-03 0.91021408E+02 0.75467711E-02 0.11146123E+00
       -2 -1    0    0    0  501 0.00000000E+00 0.00000000E+00 0.28074779E+02 0.28076602E+02 0.32000000E+00 0.0000E+00 0.9000E+01
        1 -1    0    0  501    0 0.00000000E+00 0.00000000E+00 -.12857722E+04 0.12857723E+04 0.32000000E+00 0.0000E+00 0.9000E+01
       25  1    1    2    0    0 -.27119527E+02 -.11783544E+03 -.31313433E+03 0.35818817E+03 0.12500000E+03 0.0000E+00 0.9000E+01
      -24  1    1    2    0    0 0.27119527E+02 0.11783544E+03 -.94456312E+03 0.95566070E+03 0.80419002E+02 0.0000E+00 0.9000E+01
#aMCatNLO 1  0  0  2  1 0.14525171D+03 0.00000000D+00  -5  5  0 0.00000000D+00 0.00000000D+00 0.00000000D+00 0.00000000D+00 0.00000000D+00
  <mgrwgt>
 0.1715584145D+00    7    2    0
 0.189997355405277D+03 0.000000000000000D+00 0.000000000000000D+00 0.189997355405277D+03
 0.189997355405277D+03 0.000000000000000D+00 0.000000000000000D+00 -.189997355405277D+03
 0.202047238976150D+03 -.271195265002487D+02 -.117835444135595D+03 0.102846614750584D+03
 0.177947471834405D+03 0.271195265002487D+02 0.117835444135595D+03 -.102846614750584D+03
 0.000000000000000D+00 0.000000000000000D+00 -.000000000000000D+00 -.000000000000000D+00
 0.230132064411815D+03 0.000000000000000D+00 0.000000000000000D+00 0.230132064411815D+03
 0.400750581046740D+03 0.000000000000000D+00 0.000000000000000D+00 -.400750581046740D+03
 0.190202551518488D+03 -.761848923749019D+02 -.645789951324160D+02 0.102846614750584D+03
 0.216607033482056D+03 -.222341293332770D+02 0.171404808353389D+03 -.102846614750584D+03
 0.224073060458011D+03 0.984190217081789D+02 -.106825813220973D+03 -.170618516634925D+03
0.848511724389D-03 0.000000000000D+00 0.000000000000D+00 0.158674707140D-02 0.000000000000D+00  5 -2 1 25 -24 21 0 0.43193401D-02 0.19781126D+00 0.25460901D+05 0.25460901D+05 0.25460901D+05 0.12224480D+01  1  2  2  2  5  2        1 0.181466049769D+00 0.100000000000D+01
-.453930793388D-04 0.000000000000D+00 -.325850843992D-05 0.158674707140D-02 0.000000000000D+00  5 -2 1 25 -24 21 2 0.43193401D-02 0.19781126D+00 0.25460901D+05 0.25460901D+05 0.25460901D+05 0.12224480D+01  1  2  3  2  5  2        1 -.145073450836D-01 0.100000000000D+01
0.583507387574D-04 0.000000000000D+00 0.000000000000D+00 0.158674707140D-02 0.000000000000D+00  5 -2 1 25 -24 21 2 0.43193401D-02 0.19781126D+00 0.25460901D+05 0.25460901D+05 0.25460901D+05 0.12224480D+01  1  2 15  2  5  2        1 0.186485322293D-01 0.100000000000D+01
0.851453019694D-05 0.000000000000D+00 0.000000000000D+00 0.158674707140D-02 0.000000000000D+00  5 -2 1 25 -24 21 2 0.43193401D-02 0.41714769D+00 0.61475245D+05 0.61475245D+05 0.61475245D+05 0.11834962D+01  1  2 12  2  5  2        1 0.294795661376D-03 0.100000000000D+01
-.469959847345D-03 0.000000000000D+00 -.274268137330D-03 0.158674707140D-02 0.000000000000D+00  5 -2 1 25 -24 21 2 0.43193401D-02 0.44097173D+00 0.25460901D+05 0.25460901D+05 0.25460901D+05 0.12224480D+01  1  2  5  2  5  2        1 -.140208073637D-01 0.100000000000D+01
0.687146636488D-06 0.000000000000D+00 0.000000000000D+00 0.158674707140D-02 0.000000000000D+00  5 -2 21 25 -24 -1 2 0.43193401D-02 0.41714769D+00 0.61475245D+05 0.61475245D+05 0.61475245D+05 0.11834962D+01  1  2 12  4  5  2        1 0.116753701713D-04 0.100000000000D+01
-.235596470568D-04 0.000000000000D+00 -.238563327500D-04 0.158674707140D-02 0.000000000000D+00  5 -2 21 25 -24 -1 2 0.43193401D-02 0.44097173D+00 0.25460901D+05 0.25460901D+05 0.25460901D+05 0.12224480D+01  1  2  5  4  5  2        1 -.334486062859D-03 0.100000000000D+01
  </mgrwgt>
  </event>
  <event>
  4     66 0.46019439E-03 0.11808149E+03 0.75467711E-02 0.11220231E+00
       -2 -1    0    0    0  501 0.00000000E+00 0.00000000E+00 0.84072066E+02 0.84072675E+02 0.32000000E+00 0.0000E+00 0.9000E+01
        1 -1    0    0  501    0 0.00000000E+00 0.00000000E+00 -.19556656E+03 0.19556683E+03 0.32000000E+00 0.0000E+00 0.9000E+01
       25  1    1    2    0    0 0.45509161E+02 0.34669399E+02 -.96311086E+01 0.13780715E+03 0.12500000E+03 0.0000E+00 0.9000E+01
      -24  1    1    2    0    0 -.45509161E+02 -.34669399E+02 -.10186339E+03 0.14183235E+03 0.80419002E+02 0.0000E+00 0.9000E+01
#aMCatNLO 1  0  0  2  2 0.17976053D+03 0.00000000D+00  -5  5  0 0.00000000D+00 0.00000000D+00 0.00000000D+00 0.00000000D+00 0.00000000D+00
  <mgrwgt>
 0.2262378995D+00    5    2    0
 0.128225608791220D+03 0.000000000000000D+00 0.000000000000000D+00 0.128225608791220D+03
 0.128225608791220D+03 0.000000000000000D+00 0.000000000000000D+00 -.128225608791220D+03
 0.146080435397152D+03 0.455091614303024D+02 0.346693986158957D+02 0.494109565920801D+02
 0.110370782185287D+03 -.455091614303024D+02 -.346693986158957D+02 -.494109565920801D+02
 0.000000000000000D+00 -.000000000000000D+00 -.000000000000000D+00 -.000000000000000D+00
 0.242249396461205D+03 0.000000000000000D+00 0.000000000000000D+00 0.242249396461205D+03
 0.250898047651707D+03 0.000000000000000D+00 0.000000000000000D+00 -.250898047651707D+03
 0.218495645522338D+03 0.136804539320035D+03 0.104682484219242D+03 0.494109565920801D+02
 0.946833369043405D+02 0.583949875310647D+01 0.470913537057043D+01 -.494109565920801D+02
 0.179968461686233D+03 -.142644038073142D+03 -.109391619589812D+03 -.864865119050171D+01
0.348304369406D-03 0.000000000000D+00 0.000000000000D+00 0.229971089812D-02 0.000000000000D+00  5 -2 1 25 -24 21 0 0.12934231D-01 0.30087231D-01 0.13943237D+05 0.13943237D+05 0.13943237D+05 0.12514558D+01  1  2  2  2  5  2        1 0.190533081905D+00 0.100000000000D+01
-.191904362281D-04 0.000000000000D+00 -.133758048917D-05 0.229971089812D-02 0.000000000000D+00  5 -2 1 25 -24 21 2 0.12934231D-01 0.30087231D-01 0.13943237D+05 0.13943237D+05 0.13943237D+05 0.12514558D+01  1  2  3  2  5  2        1 -.164409671524D-01 0.100000000000D+01
0.240588884609D-04 0.000000000000D+00 0.000000000000D+00 0.229971089812D-02 0.000000000000D+00  5 -2 1 25 -24 21 2 0.12934231D-01 0.30087231D-01 0.13943237D+05 0.13943237D+05 0.13943237D+05 0.12514558D+01  1  2 15  2  5  2        1 0.206119022104D-01 0.100000000000D+01
0.122236818810D-03 0.000000000000D+00 -.147194224672D-03 0.229971089812D-02 0.000000000000D+00  5 -2 1 25 -24 21 2 0.12934231D-01 0.10311591D+00 0.13943237D+05 0.13943237D+05 0.13943237D+05 0.12514558D+01  1  2  5  2  5  2        1 0.219504473984D-01 0.100000000000D+01
0.226716896802D-04 0.000000000000D+00 -.211363299078D-04 0.229971089812D-02 0.000000000000D+00  5 -2 21 25 -24 -1 2 0.12934231D-01 0.10311591D+00 0.13943237D+05 0.13943237D+05 0.13943237D+05 0.12514558D+01  1  2  5  4  5  2        1 0.958343509416D-02 0.100000000000D+01
  </mgrwgt>
  </event>
  <event>
  4     66 0.46019439E-03 0.77260333E+02 0.75467711E-02 0.12102680E+00
       -2 -1    0    0    0  501 0.00000000E+00 0.00000000E+00 0.10558964E+02 0.10563812E+02 0.32000000E+00 0.0000E+00 0.9000E+01
        1 -1    0    0  501    0 0.00000000E+00 0.00000000E+00 -.15363634E+04 0.15363634E+04 0.32000000E+00 0.0000E+00 0.9000E+01
       25  1    1    2    0    0 -.57758689E+01 0.17365144E+01 -.42159709E+03 0.43977891E+03 0.12500000E+03 0.0000E+00 0.9000E+01
      -24  1    1    2    0    0 0.57758689E+01 -.17365144E+01 -.11042073E+04 0.11071483E+04 0.80419002E+02 0.0000E+00 0.9000E+01
#aMCatNLO 1  0  0  1  2 0.67936657D+02 0.00000000D+00  -5  5  0 0.00000000D+00 0.00000000D+00 0.00000000D+00 0.00000000D+00 0.00000000D+00
  <mgrwgt>
 0.1981207716D+00    9    2    0
 0.127382029097580D+03 0.000000000000000D+00 0.000000000000000D+00 0.127382029097580D+03
 0.127382029097580D+03 0.000000000000000D+00 0.000000000000000D+00 -.127382029097580D+03
 0.145355098200236D+03 -.577586885120654D+01 0.173651441473270D+01 0.739373277140943D+02
 0.109408959994924D+03 0.577586885120654D+01 -.173651441473270D+01 -.739373277140943D+02
 0.000000000000000D+00 0.000000000000000D+00 -.000000000000000D+00 0.000000000000000D+00
 0.177623596979326D+03 0.000000000000000D+00 0.000000000000000D+00 0.177623596979326D+03
 0.157031868735619D+03 0.000000000000000D+00 0.000000000000000D+00 -.157031868735619D+03
 0.151053420879263D+03 -.976898265359728D+01 0.403729427678983D+02 0.739373277140943D+02
 0.112613252593224D+03 0.278486183063814D+01 0.272037648191869D+02 -.739373277140943D+02
 0.709887922424575D+02 0.698412082295914D+01 -.675767075870853D+02 0.205917282437070D+02
0.308343507254D-03 0.000000000000D+00 0.000000000000D+00 0.187032699769D-02 0.000000000000D+00  5 -2 1 25 -24 21 0 0.16248315D-02 0.23636397D+00 0.10587409D+05 0.10587409D+05 0.10587409D+05 0.12654491D+01  1  2  2  1  5  1       -2 0.186780306829D+00 0.100000000000D+01
-.161809911379D-04 0.000000000000D+00 -.118412025657D-05 0.187032699769D-02 0.000000000000D+00  5 -2 1 25 -24 21 2 0.16248315D-02 0.23636397D+00 0.10587409D+05 0.10587409D+05 0.10587409D+05 0.12654491D+01  1  2  3  1  5  1       -2 -.156960650763D-01 0.100000000000D+01
0.211518907307D-04 0.000000000000D+00 0.000000000000D+00 0.187032699769D-02 0.000000000000D+00  5 -2 1 25 -24 21 2 0.16248315D-02 0.23636397D+00 0.10587409D+05 0.10587409D+05 0.10587409D+05 0.12654491D+01  1  2 15  1  5  1       -2 0.205179924126D-01 0.100000000000D+01
0.334697832319D-04 0.000000000000D+00 0.000000000000D+00 0.187032699769D-02 0.000000000000D+00  5 -2 1 25 -24 21 2 0.23941084D-02 0.23636397D+00 0.20249127D+05 0.20249127D+05 0.20249127D+05 0.12332346D+01  1  2 12  1  5  1       -2 0.177708012848D-01 0.100000000000D+01
-.114803857369D-03 0.000000000000D+00 0.000000000000D+00 0.187032699769D-02 0.000000000000D+00  5 -2 1 25 -24 21 2 0.16248315D-02 0.23636397D+00 0.10587409D+05 0.10587409D+05 0.10587409D+05 0.12654491D+01  1  2  4  1  5  1       -2 -.111363315196D+00 0.100000000000D+01
-.108200707910D-03 0.000000000000D+00 -.943571149583D-04 0.187032699769D-02 0.000000000000D+00  5 -2 1 25 -24 21 2 0.28665095D-02 0.23636397D+00 0.10587409D+05 0.10587409D+05 0.10587409D+05 0.12654491D+01  1  2  5  1  5  1       -2 -.462236142183D-01 0.100000000000D+01
0.150290989894D-03 0.000000000000D+00 0.809577374269D-04 0.187032699769D-02 0.000000000000D+00  5 -2 1 25 -24 21 2 0.16248315D-02 0.23636397D+00 0.10587409D+05 0.10587409D+05 0.10587409D+05 0.12654491D+01  1  2  6  1  5  1       -2 0.145786938369D+00 0.100000000000D+01
0.155688181044D-05 0.000000000000D+00 0.000000000000D+00 0.187032699769D-02 0.000000000000D+00  5 21 1 25 -24 2 2 0.23941084D-02 0.23636397D+00 0.20249127D+05 0.20249127D+05 0.20249127D+05 0.12332346D+01  1  2 12  3  5  1       -2 0.167979619516D-01 0.100000000000D+01
-.191176751028D-05 0.000000000000D+00 -.590365682551D-05 0.187032699769D-02 0.000000000000D+00  5 21 1 25 -24 2 2 0.28665095D-02 0.23636397D+00 0.10587409D+05 0.10587409D+05 0.10587409D+05 0.12654491D+01  1  2  5  3  5  1       -2 -.162502347514D-01 0.100000000000D+01
  </mgrwgt>
  </event>
  <event>
  5     66 0.46019439E-03 0.12819391E+03 0.75467711E-02 0.10878480E+00
       21 -1    0    0  502  501 0.00000000E+00 0.00000000E+00 0.28537064E+03 0.28537163E+03 0.75000000E+00 0.0000E+00 0.9000E+01
        1 -1    0    0  501    0 0.00000000E+00 0.00000000E+00 -.32291701E+03 0.32291717E+03 0.32000000E+00 0.0000E+00 0.9000E+01
       25  1    1    2    0    0 0.18378872E+03 0.10644130E+03 -.26426403E+02 0.24785359E+03 0.12500000E+03 0.0000E+00 0.9000E+01
      -24  1    1    2    0    0 -.15013789E+02 0.63629621E+02 -.54252670E+02 0.11698167E+03 0.80419002E+02 0.0000E+00 0.9000E+01
        2  1    1    2  502    0 -.16877494E+03 -.17007092E+03 0.43132702E+02 0.24345354E+03 0.32000000E+00 0.0000E+00 0.9000E+01
#aMCatNLO 2  0  0  1  2 0.23960195D+03 0.00000000D+00  -5  5  0 0.00000000D+00 0.00000000D+00 0.00000000D+00 0.00000000D+00 0.00000000D+00
  <mgrwgt>
 0.2678568267D-01    1    2    0
 0.131516684915633D+03 0.000000000000000D+00 0.000000000000000D+00 0.131516684915633D+03
 0.131516684915633D+03 0.000000000000000D+00 0.000000000000000D+00 -.131516684915633D+03
 0.148924711987453D+03 0.754937875536762D+02 -.268521157532781D+01 0.291040808159586D+02
 0.114108657843812D+03 -.754937875536762D+02 0.268521157532781D+01 -.291040808159586D+02
 0.000000000000000D+00 -.000000000000000D+00 -.000000000000000D+00 0.000000000000000D+00
 0.357324090969679D+03 0.000000000000000D+00 0.000000000000000D+00 0.357324090969679D+03
 0.257892827559947D+03 0.000000000000000D+00 0.000000000000000D+00 -.257892827559947D+03
 0.248153365043061D+03 0.183788724699366D+03 0.106441297133366D+03 0.291040808159586D+02
 0.107649459262349D+03 -.150137894305041D+02 0.636296214973829D+02 -.291040808159586D+02
 0.259414094224216D+03 -.168774935268862D+03 -.170070918630749D+03 0.994312634097316D+02
0.462560273726D-04 0.000000000000D+00 0.000000000000D+00 0.248739613638D-02 0.132186422323D-06  5 21 1 25 -24 2 2 0.43903249D-01 0.49679611D-01 0.86931579D+05 0.86931579D+05 0.86931579D+05 0.11692006D+01  1  2  1  3  5  1       -2 0.267856826692D-01 0.100000000000D+01
  </mgrwgt>
  </event>
  <event>
  4     66 0.46019439E-03 0.10460362E+03 0.75467711E-02 0.10603319E+00
       -2 -1    0    0    0  501 0.00000000E+00 0.00000000E+00 0.45088288E+02 0.45089424E+02 0.32000000E+00 0.0000E+00 0.9000E+01
        1 -1    0    0  501    0 0.00000000E+00 0.00000000E+00 -.29039210E+03 0.29039227E+03 0.32000000E+00 0.0000E+00 0.9000E+01
       25  1    1    2    0    0 -.15777283E+02 -.11221459E+02 -.77356401E+02 0.14826954E+03 0.12500000E+03 0.0000E+00 0.9000E+01
      -24  1    1    2    0    0 0.15777283E+02 0.11221459E+02 -.16794741E+03 0.18721216E+03 0.80419002E+02 0.0000E+00 0.9000E+01
#aMCatNLO 1  0  0  1  2 0.32518868D+03 0.00000000D+00  -5  5  0 0.00000000D+00 0.00000000D+00 0.00000000D+00 0.00000000D+00 0.00000000D+00
  <mgrwgt>
 0.2634525624D+00    3    2    0
 0.114426843846974D+03 0.000000000000000D+00 0.000000000000000D+00 0.114426843846974D+03
 0.114426843846974D+03 0.000000000000000D+00 0.000000000000000D+00 -.114426843846974D+03
 0.134434788962275D+03 -.157772826744712D+02 -.112214594840961D+02 0.455287676286989D+02
 0.944188987316733D+02 0.157772826744712D+02 0.112214594840961D+02 -.455287676286989D+02
 0.000000000000000D+00 0.000000000000000D+00 0.000000000000000D+00 -.000000000000000D+00
 0.293622145828951D+03 0.000000000000000D+00 0.000000000000000D+00 0.293622145828951D+03
 0.477694343298197D+03 0.000000000000000D+00 0.000000000000000D+00 -.477694343298197D+03
 0.255930043839495D+03 -.813550564173693D+02 -.202937609755373D+03 0.455287676286989D+02
 0.141715132645429D+03 -.238911064360548D+02 -.104748791008842D+03 -.455287676286989D+02
 0.373671312642225D+03 0.105246162853424D+03 0.307686400764215D+03 -.184072197469246D+03
0.293100950129D-03 0.000000000000D+00 0.000000000000D+00 0.250941082132D-02 0.000000000000D+00  5 -2 1 25 -24 21 0 0.69367606D-02 0.44675808D-01 0.10941917D+05 0.10941917D+05 0.10941917D+05 0.12637497D+01  1  2  2  1  5  1       -2 0.257876449553D+00 0.100000000000D+01
-.161238832719D-04 0.000000000000D+00 -.112558482375D-05 0.250941082132D-02 0.000000000000D+00  5 -2 1 25 -24 21 2 0.69367606D-02 0.44675808D-01 0.10941917D+05 0.10941917D+05 0.10941917D+05 0.12637497D+01  1  2  3  1  5  1       -2 -.226561554002D-01 0.100000000000D+01
0.200922790952D-04 0.000000000000D+00 0.000000000000D+00 0.250941082132D-02 0.000000000000D+00  5 -2 1 25 -24 21 2 0.69367606D-02 0.44675808D-01 0.10941917D+05 0.10941917D+05 0.10941917D+05 0.12637497D+01  1  2 15  1  5  1       -2 0.282322682351D-01 0.100000000000D+01
  </mgrwgt>
  </event>
  <event>
  4     66 0.46019439E-03 0.26671799E+03 0.75467711E-02 0.90731660E-01
       -2 -1    0    0    0  501 0.00000000E+00 0.00000000E+00 0.56201279E+03 0.56201288E+03 0.32000000E+00 0.0000E+00 0.9000E+01
        1 -1    0    0  501    0 0.00000000E+00 0.00000000E+00 -.12780133E+03 0.12780173E+03 0.32000000E+00 0.0000E+00 0.9000E+01
       25  1    1    2    0    0 0.23391945E+03 -.73808864E+02 0.25775681E+03 0.37713344E+03 0.12500000E+03 0.0000E+00 0.9000E+01
      -24  1    1    2    0    0 -.23391945E+03 0.73808864E+02 0.17645466E+03 0.31268118E+03 0.80419002E+02 0.0000E+00 0.9000E+01
#aMCatNLO 1  0  0  2  2 0.11897218D+04 0.00000000D+00  -5  5  0 0.00000000D+00 0.00000000D+00 0.00000000D+00 0.00000000D+00 0.00000000D+00
  <mgrwgt>
 0.2711948309D+00    3    2    0
 0.268004015567696D+03 0.000000000000000D+00 0.000000000000000D+00 0.268004015567696D+03
 0.268004015567696D+03 0.000000000000000D+00 0.000000000000000D+00 -.268004015567696D+03
 0.276546596568051D+03 0.233919450727016D+03 -.738088642427855D+02 0.262099638331223D+02
 0.259461434567342D+03 -.233919450727016D+03 0.738088642427855D+02 -.262099638331223D+02
 0.000000000000000D+00 -.000000000000000D+00 -.000000000000000D+00 0.000000000000000D+00
 0.131718565688764D+04 0.000000000000000D+00 0.000000000000000D+00 0.131718565688764D+04
 0.118477378977351D+04 0.000000000000000D+00 0.000000000000000D+00 -.118477378977351D+04
 0.106677613040065D+04 0.101287685478033D+04 0.309483161478528D+03 0.262099638331223D+02
 0.238115679164780D+03 0.546123883074820D+02 0.215783191071392D+03 -.262099638331223D+02
 0.119706763709573D+04 -.106748924308781D+04 -.525266352549920D+03 0.132411867114137D+03
0.966593132844D-02 0.000000000000D+00 0.000000000000D+00 0.202029087484D-02 0.000000000000D+00  5 -2 1 25 -24 21 0 0.86463544D-01 0.19661781D-01 0.71138485D+05 0.71138485D+05 0.71138485D+05 0.11774072D+01  1  2  2  2  5  2        1 0.266314748069D+00 0.100000000000D+01
-.536981078571D-03 0.000000000000D+00 -.371197213994D-04 0.202029087484D-02 0.000000000000D+00  5 -2 1 25 -24 21 2 0.86463544D-01 0.19661781D-01 0.71138485D+05 0.71138485D+05 0.71138485D+05 0.11774072D+01  1  2  3  2  5  2        1 -.205099168668D-01 0.100000000000D+01
0.664749131903D-03 0.000000000000D+00 0.000000000000D+00 0.202029087484D-02 0.000000000000D+00  5 -2 1 25 -24 21 2 0.86463544D-01 0.19661781D-01 0.71138485D+05 0.71138485D+05 0.71138485D+05 0.11774072D+01  1  2 15  2  5  2        1 0.253899997163D-01 0.100000000000D+01
  </mgrwgt>
  </event>
  <event>
  4     66 0.46019439E-03 0.13375804E+03 0.75467711E-02 0.11202235E+00
       -4 -1    0    0    0  501 0.00000000E+00 0.00000000E+00 0.10662424E+03 0.10663551E+03 0.15500000E+01 0.0000E+00 0.9000E+01
        3 -1    0    0  501    0 0.00000000E+00 0.00000000E+00 -.18456429E+03 0.18456497E+03 0.50000000E+00 0.0000E+00 0.9000E+01
       25  1    1    2    0    0 -.75302734E+02 0.38308896E+02 -.87080318E+02 0.17420119E+03 0.12500000E+03 0.0000E+00 0.9000E+01
      -24  1    1    2    0    0 0.75302734E+02 -.38308896E+02 0.91402648E+01 0.11699929E+03 0.80419002E+02 0.0000E+00 0.9000E+01
#aMCatNLO 1  0  0  1  2 0.16453833D+03 0.00000000D+00  -5  5  0 0.00000000D+00 0.00000000D+00 0.00000000D+00 0.00000000D+00 0.00000000D+00
  <mgrwgt>
 0.4053823765D-01    3    2    0
 0.140288156753029D+03 0.000000000000000D+00 0.000000000000000D+00 0.140288156753029D+03
 0.140288156753029D+03 0.000000000000000D+00 0.000000000000000D+00 -.140288156753029D+03
 0.156607752536427D+03 -.753027339585716D+02 0.383088955643558D+02 -.419870805547907D+02
 0.123968560969631D+03 0.753027339585716D+02 -.383088955643558D+02 0.419870805547907D+02
 0.000000000000000D+00 -.000000000000000D+00 -.000000000000000D+00 -.000000000000000D+00
 0.208081971959991D+03 0.000000000000000D+00 0.000000000000000D+00 0.208081971959991D+03
 0.311545286703900D+03 0.000000000000000D+00 0.000000000000000D+00 -.311545286703900D+03
 0.174556282978532D+03 -.236138547666710D+02 0.111912317717156D+03 -.419870805547907D+02
 0.150706578537409D+03 0.118174690392248D+03 0.227394915788267D+02 0.419870805547907D+02
 0.194364397147950D+03 -.945608356255770D+02 -.134651809295982D+03 -.103463314743908D+03
0.531665855231D-03 0.000000000000D+00 0.000000000000D+00 0.229623493527D-02 0.000000000000D+00  5 -4 3 25 -24 21 0 0.16404648D-01 0.28395426D-01 0.17891213D+05 0.17891213D+05 0.17891213D+05 0.12391892D+01  1  2  2  1  5  1       -4 0.397081214317D-01 0.100000000000D+01
-.294553963364D-04 0.000000000000D+00 -.204173687492D-05 0.229623493527D-02 0.000000000000D+00  5 -4 3 25 -24 21 2 0.16404648D-01 0.28395426D-01 0.17891213D+05 0.17891213D+05 0.17891213D+05 0.12391892D+01  1  2  3  1  5  1       -4 -.337816375541D-02 0.100000000000D+01
0.366934711991D-04 0.000000000000D+00 0.000000000000D+00 0.229623493527D-02 0.000000000000D+00  5 -4 3 25 -24 21 2 0.16404648D-01 0.28395426D-01 0.17891213D+05 0.17891213D+05 0.17891213D+05 0.12391892D+01  1  2 15  1  5  1       -4 0.420827997183D-02 0.100000000000D+01
  </mgrwgt>
  </event>
  <event>
  4     66 0.46019439E-03 0.12125858E+03 0.75467711E-02 0.12104510E+00
       -2 -1    0    0    0  501 0.00000000E+00 0.00000000E+00 0.43395848E+02 0.43397028E+02 0.32000000E+00 0.0000E+00 0.9000E+01
        1 -1    0    0  501    0 0.00000000E+00 0.00000000E+00 -.35745694E+03 0.35745708E+03 0.32000000E+00 0.0000E+00 0.9000E+01
       25  1    1    2    0    0 0.42295050E+02 0.47171434E+02 -.22544200E+03 0.26544888E+03 0.12500000E+03 0.0000E+00 0.9000E+01
      -24  1    1    2    0    0 -.42295050E+02 -.47171434E+02 -.88619092E+02 0.13540522E+03 0.80419002E+02 0.0000E+00 0.9000E+01
#aMCatNLO 1  0  0  1  2 0.38630586D+02 0.00000000D+00  -5  5  0 0.00000000D+00 0.00000000D+00 0.00000000D+00 0.00000000D+00 0.00000000D+00
  <mgrwgt>
 0.9452318425D-01    4    2    0
 0.124548833981121D+03 0.000000000000000D+00 0.000000000000000D+00 0.124548833981121D+03
 0.124548833981121D+03 0.000000000000000D+00 0.000000000000000D+00 -.124548833981121D+03
 0.142930748433683D+03 0.422950502327153D+02 0.471714342529304D+02 -.281102003576348D+02
 0.106166919528558D+03 -.422950502327153D+02 -.471714342529304D+02 0.281102003576348D+02
 0.000000000000000D+00 0.000000000000000D+00 0.000000000000000D+00 -.000000000000000D+00
 0.141895193143999D+03 0.000000000000000D+00 0.000000000000000D+00 0.141895193143999D+03
 0.149564691798256D+03 0.000000000000000D+00 0.000000000000000D+00 -.149564691798256D+03
 0.135133622153354D+03 0.244144937712788D+02 0.353531464799296D+02 -.281102003576348D+02
 0.116941704669553D+03 -.566417511192248D+02 -.566539937043442D+02 0.281102003576348D+02
 0.393845581193473D+02 0.322272573479460D+02 0.213008472244146D+02 -.766949865425718D+01
0.252034491039D-03 0.000000000000D+00 0.000000000000D+00 0.258256568021D-02 0.000000000000D+00  5 -2 1 25 -24 21 0 0.66763861D-02 0.54993477D-01 0.14703643D+05 0.14703643D+05 0.14703643D+05 0.12488117D+01  1  2  2  1  5  1       -2 0.183908877985D+00 0.100000000000D+01
-.139897136326D-04 0.000000000000D+00 -.967878807795D-06 0.258256568021D-02 0.000000000000D+00  5 -2 1 25 -24 21 2 0.66763861D-02 0.54993477D-01 0.14703643D+05 0.14703643D+05 0.14703643D+05 0.12488117D+01  1  2  3  1  5  1       -2 -.159200881621D-01 0.100000000000D+01
0.173840853348D-04 0.000000000000D+00 0.000000000000D+00 0.258256568021D-02 0.000000000000D+00  5 -2 1 25 -24 21 2 0.66763861D-02 0.54993477D-01 0.14703643D+05 0.14703643D+05 0.14703643D+05 0.12488117D+01  1  2 15  1  5  1       -2 0.197828331883D-01 0.100000000000D+01
-.819416916317D-04 0.000000000000D+00 0.000000000000D+00 0.258256568021D-02 0.000000000000D+00  5 -2 1 25 -24 21 2 0.66763861D-02 0.54993477D-01 0.14703643D+05 0.14703643D+05 0.14703643D+05 0.12488117D+01  1  2  4  1  5  1       -2 -.932484387590D-01 0.100000000000D+01
  </mgrwgt>
  </event>
  <event>
  4     66 0.46019439E-03 0.11000574E+03 0.75467711E-02 0.11661221E+00
       -2 -1    0    0    0  501 0.00000000E+00 0.00000000E+00 0.21338551E+04 0.21338551E+04 0.32000000E+00 0.0000E+00 0.9000E+01
        1 -1    0    0  501    0 0.00000000E+00 0.00000000E+00 -.57711303E+01 0.57799952E+01 0.32000000E+00 0.0000E+00 0.9000E+01
       25  1    1    2    0    0 -.37241558E+02 -.10067946E+02 0.14030623E+04 0.14091476E+04 0.12500000E+03 0.0000E+00 0.9000E+01
      -24  1    1    2    0    0 0.37241558E+02 0.10067946E+02 0.72502169E+03 0.73048749E+03 0.80419002E+02 0.0000E+00 0.9000E+01
#aMCatNLO 1  0  0  1  2 0.11515538D+03 0.00000000D+00  -5  5  0 0.00000000D+00 0.00000000D+00 0.00000000D+00 0.00000000D+00 0.00000000D+00
  <mgrwgt>
 0.1130614209D+00    6    2    0
 0.111014706995740D+03 0.000000000000000D+00 0.000000000000000D+00 0.111014706995740D+03
 0.111014706995740D+03 0.000000000000000D+00 0.000000000000000D+00 -.111014706995740D+03
 0.131637614296619D+03 -.372415578856359D+02 -.100679457046891D+02 0.146684809453327D+02
 0.903917996948609D+02 0.372415578856359D+02 0.100679457046891D+02 -.146684809453327D+02
 0.000000000000000D+00 -.000000000000000D+00 0.000000000000000D+00 0.000000000000000D+00
 0.200886206637888D+03 0.000000000000000D+00 0.000000000000000D+00 0.200886206637888D+03
 0.168777450877815D+03 0.000000000000000D+00 0.000000000000000D+00 -.168777450877815D+03
 0.145602457909807D+03 -.109888771696522D+02 -.723820143038565D+02 0.146684809453327D+02
 0.104513159908225D+03 0.556976837757335D+02 -.337400107944045D+02 -.146684809453327D+02
 0.119548039697671D+03 -.447088066060813D+02 0.106122025098261D+03 0.321087557600729D+02
0.185613856754D-02 0.000000000000D+00 0.000000000000D+00 0.294056030192D-02 0.000000000000D+00  5 -2 1 25 -24 21 0 0.32828608D+00 0.88854996D-03 0.12101263D+05 0.12101263D+05 0.12101263D+05 0.12585966D+01  1  2  2  1  5  1       -2 0.763694014948D-01 0.100000000000D+01
-.103108357957D-03 0.000000000000D+00 -.712806083187D-05 0.294056030192D-02 0.000000000000D+00  5 -2 1 25 -24 21 2 0.32828608D+00 0.88854996D-03 0.12101263D+05 0.12101263D+05 0.12101263D+05 0.12585966D+01  1  2  3  1  5  1       -2 -.672010384087D-02 0.100000000000D+01
0.128691166991D-03 0.000000000000D+00 0.000000000000D+00 0.294056030192D-02 0.000000000000D+00  5 -2 1 25 -24 21 2 0.32828608D+00 0.88854996D-03 0.12101263D+05 0.12101263D+05 0.12101263D+05 0.12585966D+01  1  2 15  1  5  1       -2 0.838746754115D-02 0.100000000000D+01
-.362228672028D-03 0.000000000000D+00 -.355435684727D-03 0.294056030192D-02 0.000000000000D+00  5 -2 1 25 -24 21 2 0.65492163D+00 0.88854996D-03 0.12101263D+05 0.12101263D+05 0.12101263D+05 0.12585966D+01  1  2  5  1  5  1       -2 -.372873445043D-03 0.100000000000D+01
0.543508082734D-03 0.000000000000D+00 0.284777722305D-03 0.294056030192D-02 0.000000000000D+00  5 -2 1 25 -24 21 2 0.32828608D+00 0.88854996D-03 0.12101263D+05 0.12101263D+05 0.12101263D+05 0.12585966D+01  1  2  6  1  5  1       -2 0.354232268529D-01 0.100000000000D+01
-.578871358343D-05 0.000000000000D+00 -.265638503823D-04 0.294056030192D-02 0.000000000000D+00  5 21 1 25 -24 2 2 0.65492163D+00 0.88854996D-03 0.12101263D+05 0.12101263D+05 0.12101263D+05 0.12585966D+01  1  2  5  3  5  1       -2 -.256976685664D-04 0.100000000000D+01
  </mgrwgt>
  </event>
  <event>
  4     66 0.46019439E-03 0.89368841E+02 0.75467711E-02 0.11671920E+00
       -2 -1    0    0    0  501 0.00000000E+00 0.00000000E+00 0.24125249E+03 0.24125270E+03 0.32000000E+00 0.0000E+00 0.9000E+01
        1 -1    0    0  501    0 0.00000000E+00 0.00000000E+00 -.10711820E+03 0.10711868E+03 0.32000000E+00 0.0000E+00 0.9000E+01
       25  1    1    2    0    0 -.45687085E+02 -.10674728E+03 0.30805294E+02 0.17336741E+03 0.12500000E+03 0.0000E+00 0.9000E+01
      -24  1    1    2    0    0 0.45687085E+02 0.10674728E+03 0.10332899E+03 0.17500397E+03 0.80419002E+02 0.0000E+00 0.9000E+01
#aMCatNLO 1  0  0  2  1 0.45975298D+02 0.00000000D+00  -5  5  0 0.00000000D+00 0.00000000D+00 0.00000000D+00 0.00000000D+00 0.00000000D+00
  <mgrwgt>
 0.2156335169D+00    9    2    0
 0.160756500980948D+03 0.000000000000000D+00 0.000000000000000D+00 0.160756500980948D+03
 0.160756500980948D+03 0.000000000000000D+00 0.000000000000000D+00 -.160756500980948D+03
 0.174998201922664D+03 -.456870851621115D+02 -.106747284410190D+03 -.389496880167941D+02
 0.146514800039232D+03 0.456870851621115D+02 0.106747284410190D+03 0.389496880167941D+02
 0.000000000000000D+00 -.000000000000000D+00 -.000000000000000D+00 -.000000000000000D+00
 0.177339951673898D+03 0.000000000000000D+00 0.000000000000000D+00 0.177339951673898D+03
 0.197742667225730D+03 0.000000000000000D+00 0.000000000000000D+00 -.197742667225730D+03
 0.168108409798843D+03 -.215357462917744D+02 -.103220980813720D+03 -.389496880167941D+02
 0.156675115686863D+03 0.670286803008066D+02 0.109863341209195D+03 0.389496880167941D+02
 0.502990934139224D+02 -.454929340090321D+02 -.664236039547500D+01 -.204027155518319D+02
0.748114997528D-03 0.000000000000D+00 0.000000000000D+00 0.220626588349D-02 0.000000000000D+00  5 -2 1 25 -24 21 0 0.37115821D-01 0.16479776D-01 0.24312812D+05 0.24312812D+05 0.24312812D+05 0.12245976D+01  1  2  2  2  5  2        1 0.144945029325D+00 0.100000000000D+01
-.415149004716D-04 0.000000000000D+00 -.287295857371D-05 0.220626588349D-02 0.000000000000D+00  5 -2 1 25 -24 21 2 0.37115821D-01 0.16479776D-01 0.24312812D+05 0.24312812D+05 0.24312812D+05 0.12245976D+01  1  2  3  2  5  2        1 -.120621783818D-01 0.100000000000D+01
0.515162938207D-04 0.000000000000D+00 0.000000000000D+00 0.220626588349D-02 0.000000000000D+00  5 -2 1 25 -24 21 2 0.37115821D-01 0.16479776D-01 0.24312812D+05 0.24312812D+05 0.24312812D+05 0.12245976D+01  1  2 15  2  5  2        1 0.149680890133D-01 0.100000000000D+01
0.793302824407D-03 0.000000000000D+00 0.000000000000D+00 0.220626588349D-02 0.000000000000D+00  5 -2 1 25 -24 21 2 0.37115821D-01 0.20969186D-01 0.32628226D+05 0.32628226D+05 0.32628226D+05 0.12110890D+01  1  2 12  2  5  2        1 0.166371010039D+00 0.100000000000D+01
-.818077329768D-03 0.000000000000D+00 0.000000000000D+00 0.220626588349D-02 0.000000000000D+00  5 -2 1 25 -24 21 2 0.37115821D-01 0.16479776D-01 0.24312812D+05 0.24312812D+05 0.24312812D+05 0.12245976D+01  1  2  4  2  5  2        1 -.237692842081D+00 0.100000000000D+01
-.156070414003D-02 0.000000000000D+00 -.492950148242D-03 0.220626588349D-02 0.000000000000D+00  5 -2 1 25 -24 21 2 0.37115821D-01 0.22236809D-01 0.24312812D+05 0.24312812D+05 0.24312812D+05 0.12245976D+01  1  2  5  2  5  2        1 -.309034300510D+00 0.100000000000D+01
0.165489043808D-02 0.000000000000D+00 0.471622726696D-03 0.220626588349D-02 0.000000000000D+00  5 -2 1 25 -24 21 2 0.37115821D-01 0.16479776D-01 0.24312812D+05 0.24312812D+05 0.24312812D+05 0.12245976D+01  1  2  6  2  5  2        1 0.480829375470D+00 0.100000000000D+01
0.261230642821D-04 0.000000000000D+00 0.000000000000D+00 0.220626588349D-02 0.000000000000D+00  5 -2 21 25 -24 -1 2 0.37115821D-01 0.20969186D-01 0.32628226D+05 0.32628226D+05 0.32628226D+05 0.12110890D+01  1  2 12  4  5  2        1 0.448830801974D-01 0.100000000000D+01
-.492427521232D-04 0.000000000000D+00 -.190374426859D-04 0.220626588349D-02 0.000000000000D+00  5 -2 21 25 -24 -1 2 0.37115821D-01 0.22236809D-01 0.24312812D+05 0.24312812D+05 0.24312812D+05 0.12245976D+01  1  2  5  4  5  2        1 -.775737462108D-01 0.100000000000D+01
  </mgrwgt>
  </event>
  <event>
  5     66 -.46019439E-03 0.12978703E+03 0.75467711E-02 0.12221285E+00
       -2 -1    0    0    0  502 0.00000000E+00 0.00000000E+00 0.10727408E+02 0.10732180E+02 0.32000000E+00 0.0000E+00 0.9000E+01
        1 -1    0    0  501    0 0.00000000E+00 0.00000000E+00 -.18058299E+04 0.18058299E+04 0.32000000E+00 0.0000E+00 0.9000E+01
       25  1    1    2    0    0 0.79239654E+02 -.10926740E+02 -.12406431E+04 0.12494873E+04 0.12500000E+03 0.0000E+00 0.9000E+01
      -24  1    1    2    0    0 -.74933409E+02 0.17245901E+02 -.51835057E+03 0.53015749E+03 0.80419002E+02 0.0000E+00 0.9000E+01
       21  1    1    2  501  502 -.43062445E+01 -.63191605E+01 -.36108781E+02 0.36917233E+02 0.75000000E+00 0.0000E+00 0.9000E+01
#aMCatNLO 2  0  0  1  2 0.76469296D+01 0.00000000D+00  -5  5  0 0.00000000D+00 0.00000000D+00 0.00000000D+00 0.00000000D+00 0.00000000D+00
  <mgrwgt>
 -.7687382337D-01    3    2    0
 0.135109704091139D+03 0.000000000000000D+00 0.000000000000000D+00 0.135109704091139D+03
 0.135109704091139D+03 0.000000000000000D+00 0.000000000000000D+00 -.135109704091139D+03
 0.152054793467273D+03 0.768094414448003D+02 -.144929339475707D+02 -.372280107836057D+02
 0.118164614715005D+03 -.768094414448003D+02 0.144929339475707D+02 0.372280107836057D+02
 0.000000000000000D+00 -.000000000000000D+00 -.000000000000000D+00 0.000000000000000D+00
 0.140437541266728D+03 0.000000000000000D+00 0.000000000000000D+00 0.140437541266728D+03
 0.137935803488093D+03 0.000000000000000D+00 0.000000000000000D+00 -.137935803488093D+03
 0.153000788111522D+03 0.792396537066742D+02 -.109267404237877D+02 -.372280107836057D+02
 0.117326798513217D+03 -.749334091590398D+02 0.172459009590729D+02 0.372280107836057D+02
 0.804575813008239D+01 -.430624454763436D+01 -.631916053528520D+01 0.250173777863514D+01
-.697051087287D-03 0.000000000000D+00 0.000000000000D+00 0.238199142765D-02 0.000000000000D+00  5 -2 1 25 -24 21 2 0.16666333D-02 0.27209403D+00 0.17864109D+05 0.17864109D+05 0.17864109D+05 0.12392627D+01  1  2 13  1  5  1       -2 -.448387988101D+00 0.100000000000D+01
-.346549593622D-03 0.000000000000D+00 0.000000000000D+00 0.238199142765D-02 0.000000000000D+00  5 -2 1 25 -24 21 2 0.15879154D-02 0.27209403D+00 0.16844673D+05 0.16844673D+05 0.16844673D+05 0.12421207D+01  1  2  8  1  5  1       -2 -.239989752141D+00 0.100000000000D+01
0.989565982133D-03 0.000000000000D+00 0.000000000000D+00 0.238199142765D-02 0.333956386248D-03  5 -2 1 25 -24 21 2 0.16505323D-02 0.27778544D+00 0.17864109D+05 0.17864109D+05 0.17864109D+05 0.12392627D+01  1  2  1  1  5  1       -2 0.611503916875D+00 0.100000000000D+01
  </mgrwgt>
  </event>
  <event>
  4     66 0.46019439E-03 0.18038064E+03 0.75467711E-02 0.11475581E+00
       -2 -1    0    0    0  501 0.00000000E+00 0.00000000E+00 0.13155925E+03 0.13155964E+03 0.32000000E+00 0.0000E+00 0.9000E+01
        1 -1    0    0  501    0 0.00000000E+00 0.00000000E+00 -.41968589E+03 0.41968601E+03 0.32000000E+00 0.0000E+00 0.9000E+01
       25  1    1    2    0    0 -.95332611E+02 -.11208861E+03 0.26341524E+02 0.19486159E+03 0.12500000E+03 0.0000E+00 0.9000E+01
      -24  1    1    2    0    0 0.95332611E+02 0.11208861E+03 -.31446816E+03 0.35638407E+03 0.80419002E+02 0.0000E+00 0.9000E+01
#aMCatNLO 1  0  0  1  2 0.41693601D+02 0.00000000D+00  -5  5  0 0.00000000D+00 0.00000000D+00 0.00000000D+00 0.00000000D+00 0.00000000D+00
  <mgrwgt>
 0.1799440340D+00    4    2    0
 0.234975964536294D+03 0.000000000000000D+00 0.000000000000000D+00 0.234975964536294D+03
 0.234975964536294D+03 0.000000000000000D+00 0.000000000000000D+00 -.234975964536294D+03
 0.244719284521917D+03 -.953326111798052D+02 -.112088610122708D+03 0.150367433120734D+03
 0.225232644550672D+03 0.953326111798052D+02 0.112088610122708D+03 -.150367433120734D+03
 0.000000000000000D+00 -.000000000000000D+00 -.000000000000000D+00 -.000000000000000D+00
 0.242982375770177D+03 0.000000000000000D+00 0.000000000000000D+00 0.242982375770177D+03
 0.297251461107381D+03 0.000000000000000D+00 0.000000000000000D+00 -.297251461107381D+03
 0.234562899265464D+03 -.751528658459233D+02 -.105529311206158D+03 0.150367433120734D+03
 0.237234909133101D+03 0.114804391634432D+03 0.118417789521463D+03 -.150367433120734D+03
 0.684360284789934D+02 -.396515257885085D+02 -.128884783153048D+02 -.542690853372043D+02
0.202721363612D-02 0.000000000000D+00 0.000000000000D+00 0.126088692804D-02 0.000000000000D+00  5 -2 1 25 -24 21 0 0.20239925D-01 0.64567100D-01 0.32537177D+05 0.32537177D+05 0.32537177D+05 0.12112152D+01  1  2  2  1  5  1       -2 0.207954224291D+00 0.100000000000D+01
-.103049338336D-03 0.000000000000D+00 -.778503414030D-05 0.126088692804D-02 0.000000000000D+00  5 -2 1 25 -24 21 2 0.20239925D-01 0.64567100D-01 0.32537177D+05 0.32537177D+05 0.32537177D+05 0.12112152D+01  1  2  3  1  5  1       -2 -.155080096782D-01 0.100000000000D+01
0.139041931010D-03 0.000000000000D+00 0.000000000000D+00 0.126088692804D-02 0.000000000000D+00  5 -2 1 25 -24 21 2 0.20239925D-01 0.64567100D-01 0.32537177D+05 0.32537177D+05 0.32537177D+05 0.12112152D+01  1  2 15  1  5  1       -2 0.209245750298D-01 0.100000000000D+01
-.222117803802D-03 0.000000000000D+00 0.000000000000D+00 0.126088692804D-02 0.000000000000D+00  5 -2 1 25 -24 21 2 0.20239925D-01 0.64567100D-01 0.32537177D+05 0.32537177D+05 0.32537177D+05 0.12112152D+01  1  2  4  1  5  1       -2 -.334267556366D-01 0.100000000000D+01
  </mgrwgt>
  </event>
  <event>
  5     66 0.46019439E-03 0.10858754E+03 0.75467711E-02 0.11140959E+00
       21 -1    0    0  502  501 0.00000000E+00 0.00000000E+00 0.21045565E+02 0.21058924E+02 0.75000000E+00 0.0000E+00 0.9000E+01
        1 -1    0    0  501    0 0.00000000E+00 0.00000000E+00 -.30860573E+04 0.30860574E+04 0.32000000E+00 0.0000E+00 0.9000E+01
       25  1    1    2    0    0 0.14812646E+03 0.12781105E+01 -.12003633E+04 0.12159112E+04 0.12500000E+03 0.0000E+00 0.9000E+01
      -24  1    1    2    0    0 0.50067884E+02 -.38078201E+02 -.40348593E+03 0.41620290E+03 0.80419002E+02 0.0000E+00 0.9000E+01
        2  1    1    2  502    0 -.19819434E+03 0.36800091E+02 -.14611626E+04 0.14750022E+04 0.32000000E+00 0.0000E+00 0.9000E+01
#aMCatNLO 2  0  0  1  2 0.20158185D+03 0.00000000D+00  -5  5  0 0.00000000D+00 0.00000000D+00 0.00000000D+00 0.00000000D+00 0.00000000D+00
  <mgrwgt>
 0.1578431985D-01    1    2    0
 0.112726389065791D+03 0.000000000000000D+00 0.000000000000000D+00 0.112726389065791D+03
 0.112726389065791D+03 0.000000000000000D+00 0.000000000000000D+00 -.112726389065791D+03
 0.133036149986734D+03 0.245549849511830D+02 0.242224658200473D+02 -.297311632287827D+02
 0.924166281448487D+02 -.245549849511830D+02 -.242224658200473D+02 0.297311632287827D+02
 0.000000000000000D+00 -.000000000000000D+00 0.000000000000000D+00 -.000000000000000D+00
 0.225256009141566D+03 0.000000000000000D+00 0.000000000000000D+00 0.225256009141566D+03
 0.288420881651440D+03 0.000000000000000D+00 0.000000000000000D+00 -.288420881651440D+03
 0.196091872440020D+03 0.148126455448567D+03 0.127811045699779D+01 -.297311632287827D+02
 0.106338612317793D+03 0.500678841437619D+02 -.380782014508779D+02 0.297311632287827D+02
 0.211246406035193D+03 -.198194339592329D+03 0.368000909938801D+02 -.631648725098737D+02
0.284024764245D-04 0.000000000000D+00 0.000000000000D+00 0.276764324868D-02 0.184737726720D-06  5 21 1 25 -24 2 2 0.32388066D-02 0.47477885D+00 0.61877684D+05 0.61877684D+05 0.61877684D+05 0.11832220D+01  1  2  1  3  5  1       -2 0.157843198476D-01 0.100000000000D+01
  </mgrwgt>
  </event>
  <event>
  5     66 0.46019439E-03 0.11968374E+03 0.75467711E-02 0.11407546E+00
       -4 -1    0    0    0  501 0.00000000E+00 0.00000000E+00 0.17000127E+03 0.17000833E+03 0.15500000E+01 0.0000E+00 0.9000E+01
       21 -1    0    0  501  502 0.00000000E+00 0.00000000E+00 -.36667114E+03 0.36667190E+03 0.75000000E+00 0.0000E+00 0.9000E+01
       25  1    1    2    0    0 0.93648280E+02 0.90926562E+02 0.17288339E+02 0.18155310E+03 0.12500000E+03 0.0000E+00 0.9000E+01
      -24  1    1    2    0    0 -.38412460E+02 0.41152008E+02 -.57341574E+00 0.98165929E+02 0.80419002E+02 0.0000E+00 0.9000E+01
       -3  1    1    2    0  502 -.55235820E+02 -.13207857E+03 -.21338479E+03 0.25696121E+03 0.50000000E+00 0.0000E+00 0.9000E+01
#aMCatNLO 2  0  0  2  2 0.14316335D+03 0.00000000D+00  -5  5  0 0.00000000D+00 0.00000000D+00 0.00000000D+00 0.00000000D+00 0.00000000D+00
  <mgrwgt>
 0.1865591740D-01    1    2    0
 0.119862003955792D+03 0.000000000000000D+00 0.000000000000000D+00 0.119862003955792D+03
 0.119862003955792D+03 0.000000000000000D+00 0.000000000000000D+00 -.119862003955792D+03
 0.138962685872071D+03 0.596084471557592D+02 0.953132863903257D+01 0.645095859804324D+01
 0.100761322039513D+03 -.596084471557592D+02 -.953132863903257D+01 -.645095859804324D+01
 0.000000000000000D+00 -.000000000000000D+00 -.000000000000000D+00 -.000000000000000D+00
 0.160132280752349D+03 0.000000000000000D+00 0.000000000000000D+00 0.160132280752349D+03
 0.389281269187456D+03 0.000000000000000D+00 0.000000000000000D+00 -.389281269187456D+03
 0.180843177836810D+03 0.936482800072422D+02 0.909265624279700D+02 0.645095859804324D+01
 0.983759913659098D+02 -.384124603648962D+02 0.411520077849992D+02 -.645095859804324D+01
 0.270194380737085D+03 -.552358196423460D+02 -.132078570212969D+03 -.229148988435107D+03
0.759677058494D-04 0.000000000000D+00 0.000000000000D+00 0.277892274944D-02 0.373243936196D-06  5 -4 21 25 -24 -3 2 0.26154610D-01 0.56411473D-01 0.44532751D+05 0.44532751D+05 0.44532751D+05 0.11972947D+01  1  2  1  4  5  2        3 0.186559173990D-01 0.100000000000D+01
  </mgrwgt>
  </event>
  <event>
  4     66 0.46019439E-03 0.81340676E+02 0.75467711E-02 0.12599916E+00
       -4 -1    0    0    0  501 0.00000000E+00 0.00000000E+00 0.10070595E+03 0.10071788E+03 0.15500000E+01 0.0000E+00 0.9000E+01
        3 -1    0    0  501    0 0.00000000E+00 0.00000000E+00 -.11057678E+03 0.11057791E+03 0.50000000E+00 0.0000E+00 0.9000E+01
       25  1    1    2    0    0 0.14493034E+02 -.12821064E+02 -.19647874E+02 0.12800573E+03 0.12500000E+03 0.0000E+00 0.9000E+01
      -24  1    1    2    0    0 -.14493034E+02 0.12821064E+02 0.97770475E+01 0.83290061E+02 0.80419002E+02 0.0000E+00 0.9000E+01
#aMCatNLO 1  0  0  1  2 0.11122854D+02 0.00000000D+00  -5  5  0 0.00000000D+00 0.00000000D+00 0.00000000D+00 0.00000000D+00 0.00000000D+00
  <mgrwgt>
 0.5759232798D-01    6    2    0
 0.105532551691538D+03 0.000000000000000D+00 0.000000000000000D+00 0.105532551691538D+03
 0.105532551691538D+03 0.000000000000000D+00 0.000000000000000D+00 -.105532551691538D+03
 0.127226768070378D+03 0.144930343453385D+02 -.128210639359869D+02 -.136829378661153D+02
 0.838383353126977D+02 -.144930343453385D+02 0.128210639359869D+02 0.136829378661153D+02
 0.000000000000000D+00 0.000000000000000D+00 0.000000000000000D+00 -.000000000000000D+00
 0.110662379968280D+03 0.000000000000000D+00 0.000000000000000D+00 0.110662379968280D+03
 0.111885502093631D+03 0.000000000000000D+00 0.000000000000000D+00 -.111885502093631D+03
 0.126835491854023D+03 0.802125924793925D+01 -.145147719679435D+02 -.136829378661153D+02
 0.845224882287672D+02 -.187817208487865D+02 0.116986851962880D+02 0.136829378661153D+02
 0.111899019791205D+02 0.107604616008472D+02 0.281608677165555D+01 -.122312212535125D+01
0.145752068969D-03 0.000000000000D+00 0.000000000000D+00 0.310172985104D-02 0.000000000000D+00  5 -4 3 25 -24 21 0 0.15494228D-01 0.17012817D-01 0.10941481D+05 0.10941481D+05 0.10941481D+05 0.12637517D+01  1  2  2  1  5  1       -4 0.284416013569D-01 0.100000000000D+01
-.809656411104D-05 0.000000000000D+00 -.559726322243D-06 0.310172985104D-02 0.000000000000D+00  5 -4 3 25 -24 21 2 0.15494228D-01 0.17012817D-01 0.10941481D+05 0.10941481D+05 0.10941481D+05 0.12637517D+01  1  2  3  1  5  1       -4 -.252326925878D-02 0.100000000000D+01
0.100866777562D-04 0.000000000000D+00 0.000000000000D+00 0.310172985104D-02 0.000000000000D+00  5 -4 3 25 -24 21 2 0.15494228D-01 0.17012817D-01 0.10941481D+05 0.10941481D+05 0.10941481D+05 0.12637517D+01  1  2 15  1  5  1       -4 0.314348204453D-02 0.100000000000D+01
0.199137500864D-03 0.000000000000D+00 0.000000000000D+00 0.310172985104D-02 0.000000000000D+00  5 -4 3 25 -24 21 2 0.16689342D-01 0.17012817D-01 0.12168929D+05 0.12168929D+05 0.12168929D+05 0.12583132D+01  1  2 12  1  5  1       -4 0.546613254470D-01 0.100000000000D+01
-.141049523657D-03 0.000000000000D+00 0.000000000000D+00 0.310172985104D-02 0.000000000000D+00  5 -4 3 25 -24 21 2 0.15494228D-01 0.17012817D-01 0.10941481D+05 0.10941481D+05 0.10941481D+05 0.12637517D+01  1  2  4  1  5  1       -4 -.439576494584D-01 0.100000000000D+01
0.249019565123D-05 0.000000000000D+00 0.000000000000D+00 0.310172985104D-02 0.000000000000D+00  5 21 3 25 -24 4 2 0.16689342D-01 0.17012817D-01 0.12168929D+05 0.12168929D+05 0.12168929D+05 0.12583132D+01  1  2 12  3  5  1       -4 0.178268378486D-01 0.100000000000D+01
  </mgrwgt>
  </event>
  <event>
  4     66 0.46019439E-03 0.19150803E+03 0.75467711E-02 0.11499903E+00
       -2 -1    0    0    0  501 0.00000000E+00 0.00000000E+00 0.10998584E+04 0.10998584E+04 0.32000000E+00 0.0000E+00 0.9000E+01
        1 -1    0    0  501    0 0.00000000E+00 0.00000000E+00 -.78600932E+02 0.78601584E+02 0.32000000E+00 0.0000E+00 0.9000E+01
       25  1    1    2    0    0 0.12457417E+03 -.10125913E+03 0.77418789E+02 0.21769429E+03 0.12500000E+03 0.0000E+00 0.9000E+01
      -24  1    1    2    0    0 -.12457417E+03 0.10125913E+03 0.94383864E+03 0.96076570E+03 0.80419002E+02 0.0000E+00 0.9000E+01
#aMCatNLO 1  0  0  1  2 0.16374949D+02 0.00000000D+00  -5  5  0 0.00000000D+00 0.00000000D+00 0.00000000D+00 0.00000000D+00 0.00000000D+00
  <mgrwgt>
 0.1152333550D+00    4    2    0
 0.294024324318137D+03 0.000000000000000D+00 0.000000000000000D+00 0.294024324318137D+03
 0.294024324318137D+03 0.000000000000000D+00 0.000000000000000D+00 -.294024324318137D+03
 0.301810911420128D+03 0.124574171544988D+03 -.101259129562434D+03 -.222918574184357D+03
 0.286237737216145D+03 -.124574171544988D+03 0.101259129562434D+03 0.222918574184357D+03
 0.000000000000000D+00 -.000000000000000D+00 -.000000000000000D+00 -.000000000000000D+00
 0.295312821782920D+03 0.000000000000000D+00 0.000000000000000D+00 0.295312821782920D+03
 0.351212245063010D+03 0.000000000000000D+00 0.000000000000000D+00 -.351212245063010D+03
 0.304527744106447D+03 0.132714226601183D+03 -.990272198530529D+02 -.222918574184357D+03
 0.283748850806544D+03 -.116922140513306D+03 0.103357228683163D+03 0.222918574184357D+03
 0.582484719329390D+02 -.157920860878766D+02 -.433000883011054D+01 -.558994232800898D+02
0.119302840880D-01 0.000000000000D+00 0.000000000000D+00 0.881895977675D-03 0.000000000000D+00  5 -2 1 25 -24 21 0 0.16920903D+00 0.12092505D-01 0.36675326D+05 0.36675326D+05 0.36675326D+05 0.12058462D+01  1  2  2  1  5  1       -2 0.120700567881D+00 0.100000000000D+01
-.514666937952D-03 0.000000000000D+00 -.458154322138D-04 0.881895977675D-03 0.000000000000D+00  5 -2 1 25 -24 21 2 0.16920903D+00 0.12092505D-01 0.36675326D+05 0.36675326D+05 0.36675326D+05 0.12058462D+01  1  2  3  1  5  1       -2 -.757126800950D-02 0.100000000000D+01
0.807338394090D-03 0.000000000000D+00 0.000000000000D+00 0.881895977675D-03 0.000000000000D+00  5 -2 1 25 -24 21 2 0.16920903D+00 0.12092505D-01 0.36675326D+05 0.36675326D+05 0.36675326D+05 0.12058462D+01  1  2 15  1  5  1       -2 0.118767593278D-01 0.100000000000D+01
-.664312471535D-03 0.000000000000D+00 0.000000000000D+00 0.881895977675D-03 0.000000000000D+00  5 -2 1 25 -24 21 2 0.16920903D+00 0.12092505D-01 0.36675326D+05 0.36675326D+05 0.36675326D+05 0.12058462D+01  1  2  4  1  5  1       -2 -.977270423482D-02 0.100000000000D+01
  </mgrwgt>
  </event>
  <event>
  4     66 0.46019439E-03 0.11310259E+03 0.75467711E-02 0.11720727E+00
       -4 -1    0    0    0  501 0.00000000E+00 0.00000000E+00 0.39162298E+03 0.39162604E+03 0.15500000E+01 0.0000E+00 0.9000E+01
        3 -1    0    0  501    0 0.00000000E+00 0.00000000E+00 -.48277719E+02 0.48280308E+02 0.50000000E+00 0.0000E+00 0.9000E+01
       25  1    1    2    0    0 -.46394671E+02 -.18356521E+01 0.31618931E+03 0.34315670E+03 0.12500000E+03 0.0000E+00 0.9000E+01
      -24  1    1    2    0    0 0.46394671E+02 0.18356521E+01 0.27155944E+02 0.96749658E+02 0.80419002E+02 0.0000E+00 0.9000E+01
#aMCatNLO 1  0  0  1  2 0.10207964D+03 0.00000000D+00  -5  5  0 0.00000000D+00 0.00000000D+00 0.00000000D+00 0.00000000D+00 0.00000000D+00
  <mgrwgt>
 0.5978976717D-01    3    2    0
 0.137506030018798D+03 0.000000000000000D+00 0.000000000000000D+00 0.137506030018798D+03
 0.137506030018798D+03 0.000000000000000D+00 0.000000000000000D+00 -.137506030018798D+03
 0.154155816294312D+03 -.463946706072339D+02 -.183565213783597D+01 0.773510220865946D+02
 0.120856243743285D+03 0.463946706072339D+02 0.183565213783597D+01 -.773510220865946D+02
 0.000000000000000D+00 -.000000000000000D+00 0.000000000000000D+00 -.000000000000000D+00
 0.167307242616966D+03 0.000000000000000D+00 0.000000000000000D+00 0.167307242616966D+03
 0.272922567460367D+03 0.000000000000000D+00 0.000000000000000D+00 -.272922567460367D+03
 0.147232452939500D+03 0.772128526173682D+01 -.309779512689623D+01 0.773510220865946D+02
 0.146113563269283D+03 0.943305983437966D+02 0.717645550956240D+00 -.773510220865946D+02
 0.146883793868549D+03 -.102051883605533D+03 0.238014957593999D+01 -.105615324843401D+03
0.975055921797D-03 0.000000000000D+00 0.000000000000D+00 0.181006235036D-02 0.000000000000D+00  5 -4 3 25 -24 21 0 0.60250124D-01 0.74277765D-02 0.12792196D+05 0.12792196D+05 0.12792196D+05 0.12557832D+01  1  2  2  1  5  1       -4 0.583647594587D-01 0.100000000000D+01
-.516557733527D-04 0.000000000000D+00 -.374447147782D-05 0.181006235036D-02 0.000000000000D+00  5 -4 3 25 -24 21 2 0.60250124D-01 0.74277765D-02 0.12792196D+05 0.12792196D+05 0.12792196D+05 0.12557832D+01  1  2  3  1  5  1       -4 -.487606363667D-02 0.100000000000D+01
0.667519412051D-04 0.000000000000D+00 0.000000000000D+00 0.181006235036D-02 0.000000000000D+00  5 -4 3 25 -24 21 2 0.60250124D-01 0.74277765D-02 0.12792196D+05 0.12792196D+05 0.12792196D+05 0.12557832D+01  1  2 15  1  5  1       -4 0.630107134328D-02 0.100000000000D+01
  </mgrwgt>
  </event>
  <event>
  4     66 0.46019439E-03 0.16400867E+03 0.75467711E-02 0.10250920E+00
       -4 -1    0    0    0  501 0.00000000E+00 0.00000000E+00 0.11733474E+03 0.11734498E+03 0.15500000E+01 0.0000E+00 0.9000E+01
        3 -1    0    0  501    0 0.00000000E+00 0.00000000E+00 -.23834945E+03 0.23834997E+03 0.50000000E+00 0.0000E+00 0.9000E+01
       25  1    1    2    0    0 0.10157012E+03 0.75704084E+02 -.30799955E+02 0.18061350E+03 0.12500000E+03 0.0000E+00 0.9000E+01
      -24  1    1    2    0    0 -.10157012E+03 -.75704084E+02 -.90214751E+02 0.17508145E+03 0.80419002E+02 0.0000E+00 0.9000E+01
#aMCatNLO 1  0  0  1  2 0.40030211D+03 0.00000000D+00  -5  5  0 0.00000000D+00 0.00000000D+00 0.00000000D+00 0.00000000D+00 0.00000000D+00
  <mgrwgt>
 0.3690014110D-01    5    2    0
 0.167238105938001D+03 0.000000000000000D+00 0.000000000000000D+00 0.167238105938001D+03
 0.167238105938001D+03 0.000000000000000D+00 0.000000000000000D+00 -.167238105938001D+03
 0.180927844879772D+03 0.101570119005414D+03 0.757040844700265D+02 0.325927533758621D+02
 0.153548366996231D+03 -.101570119005414D+03 -.757040844700265D+02 -.325927533758621D+02
 0.000000000000000D+00 -.000000000000000D+00 0.000000000000000D+00 0.000000000000000D+00
 0.120671472236682D+04 0.000000000000000D+00 0.000000000000000D+00 0.120671472236682D+04
 0.303175824070040D+03 0.000000000000000D+00 0.000000000000000D+00 -.303175824070040D+03
 0.264895733428253D+03 0.206284676016003D+03 -.104542309410328D+03 0.325927533758621D+02
 0.256751766621459D+03 -.519927003367722D+01 -.241588355943259D+03 -.325927533758621D+02
 0.988243046387152D+03 -.201085405982326D+03 0.346130665353586D+03 0.903538898296784D+03
0.899046366292D-03 0.000000000000D+00 0.000000000000D+00 0.221400881143D-02 0.000000000000D+00  5 -4 3 25 -24 21 0 0.18052326D-01 0.36669973D-01 0.26898843D+05 0.26898843D+05 0.26898843D+05 0.12199036D+01  1  2  2  1  5  1       -4 0.363103816312D-01 0.100000000000D+01
-.499239300824D-04 0.000000000000D+00 -.345257477091D-05 0.221400881143D-02 0.000000000000D+00  5 -4 3 25 -24 21 2 0.18052326D-01 0.36669973D-01 0.26898843D+05 0.26898843D+05 0.26898843D+05 0.12199036D+01  1  2  3  1  5  1       -4 -.300060276309D-02 0.100000000000D+01
0.620246766136D-04 0.000000000000D+00 0.000000000000D+00 0.221400881143D-02 0.000000000000D+00  5 -4 3 25 -24 21 2 0.18052326D-01 0.36669973D-01 0.26898843D+05 0.26898843D+05 0.26898843D+05 0.12199036D+01  1  2 15  1  5  1       -4 0.372789994135D-02 0.100000000000D+01
0.271445149042D-03 0.000000000000D+00 -.610100347729D-03 0.221400881143D-02 0.000000000000D+00  5 -4 3 25 -24 21 2 0.19734496D+00 0.36669973D-01 0.26898843D+05 0.26898843D+05 0.26898843D+05 0.12199036D+01  1  2  5  1  5  1       -4 0.925344091429D-04 0.100000000000D+01
-.299564088397D-04 0.000000000000D+00 -.171871302430D-03 0.221400881143D-02 0.000000000000D+00  5 21 3 25 -24 4 2 0.19734496D+00 0.36669973D-01 0.26898843D+05 0.26898843D+05 0.26898843D+05 0.12199036D+01  1  2  5  3  5  1       -4 -.230072121646D-03 0.100000000000D+01
  </mgrwgt>
  </event>
  <event>
  5     66 0.46019439E-03 0.13360421E+03 0.75467711E-02 0.11988612E+00
       21 -1    0    0  502  501 0.00000000E+00 0.00000000E+00 0.69308093E+02 0.69312151E+02 0.75000000E+00 0.0000E+00 0.9000E+01
        1 -1    0    0  501    0 0.00000000E+00 0.00000000E+00 -.36713325E+03 0.36713339E+03 0.32000000E+00 0.0000E+00 0.9000E+01
       25  1    1    2    0    0 -.28162886E+02 -.67272509E+02 -.12139573E+03 0.18889326E+03 0.12500000E+03 0.0000E+00 0.9000E+01
      -24  1    1    2    0    0 0.91686129E+01 0.94687287E+02 -.86548999E+02 0.15168286E+03 0.80419002E+02 0.0000E+00 0.9000E+01
        2  1    1    2  502    0 0.18994273E+02 -.27414778E+02 -.89880422E+02 0.95869417E+02 0.32000000E+00 0.0000E+00 0.9000E+01
#aMCatNLO 2  0  0  1  2 0.33351948D+02 0.00000000D+00  -5  5  0 0.00000000D+00 0.00000000D+00 0.00000000D+00 0.00000000D+00 0.00000000D+00
  <mgrwgt>
 0.6293193933D-01    1    2    0
 0.133827061476010D+03 0.000000000000000D+00 0.000000000000000D+00 0.133827061476010D+03
 0.133827061476010D+03 0.000000000000000D+00 0.000000000000000D+00 -.133827061476010D+03
 0.150934558167311D+03 -.177054864045602D+02 -.823658625303808D+02 -.765645413789778D+01
 0.116719564784709D+03 0.177054864045602D+02 0.823658625303808D+02 0.765645413789778D+01
 0.000000000000000D+00 0.000000000000000D+00 -.000000000000000D+00 -.000000000000000D+00
 0.140951284270891D+03 0.000000000000000D+00 0.000000000000000D+00 0.140951284270891D+03
 0.180530800813882D+03 0.000000000000000D+00 0.000000000000000D+00 -.180530800813882D+03
 0.144921909474864D+03 -.281628855542552D+02 -.672725087471312D+02 -.765645413789778D+01
 0.124802175442902D+03 0.916861289620812D+01 0.946872868367453D+02 0.765645413789778D+01
 0.517580001670076D+02 0.189942726580471D+02 -.274147780896141D+02 -.395795165429915D+02
0.777288086664D-05 0.000000000000D+00 0.000000000000D+00 0.256339748307D-02 0.210284088663D-06  5 21 1 25 -24 2 2 0.10663070D-01 0.56482169D-01 0.22897525D+05 0.22897525D+05 0.22897525D+05 0.12274092D+01  1  2  1  3  5  1       -2 0.629319393313D-01 0.100000000000D+01
  </mgrwgt>
  </event>
  <event>
  4     66 0.46019439E-03 0.10760350E+03 0.75467711E-02 0.11387572E+00
       -2 -1    0    0    0  501 0.00000000E+00 0.00000000E+00 0.43241255E+02 0.43242439E+02 0.32000000E+00 0.0000E+00 0.9000E+01
        1 -1    0    0  501    0 0.00000000E+00 0.00000000E+00 -.26975303E+03 0.26975322E+03 0.32000000E+00 0.0000E+00 0.9000E+01
       25  1    1    2    0    0 0.29164271E+02 -.11599460E+02 -.14867145E+03 0.19675696E+03 0.12500000E+03 0.0000E+00 0.9000E+01
      -24  1    1    2    0    0 -.29164271E+02 0.11599460E+02 -.77840323E+02 0.11623869E+03 0.80419002E+02 0.0000E+00 0.9000E+01
#aMCatNLO 1  0  0  1  2 0.15936208D+03 0.00000000D+00  -5  5  0 0.00000000D+00 0.00000000D+00 0.00000000D+00 0.00000000D+00 0.00000000D+00
  <mgrwgt>
 0.1712774954D+00    5    2    0
 0.108003122226944D+03 0.000000000000000D+00 0.000000000000000D+00 0.108003122226944D+03
 0.108003122226944D+03 0.000000000000000D+00 0.000000000000000D+00 -.108003122226944D+03
 0.129201083583993D+03 0.291642712391198D+02 -.115994599972520D+02 -.910042911851792D+01
 0.868051608698959D+02 -.291642712391198D+02 0.115994599972520D+02 0.910042911851792D+01
 0.000000000000000D+00 0.000000000000000D+00 -.000000000000000D+00 0.000000000000000D+00
 0.223906723741775D+03 0.000000000000000D+00 0.000000000000000D+00 0.223906723741775D+03
 0.205003179536694D+03 0.000000000000000D+00 0.000000000000000D+00 -.205003179536694D+03
 0.142712310481096D+03 -.138266845334984D+02 0.668416677494118D+02 -.910042911851792D+01
 0.125718258537971D+03 -.627653557161211D+02 0.729078657425747D+02 0.910042911851792D+01
 0.160479334259401D+03 0.765920402496195D+02 -.139749533491987D+03 0.189035442050812D+02
0.139221165435D-03 0.000000000000D+00 0.000000000000D+00 0.305030330868D-02 0.000000000000D+00  5 -2 1 25 -24 21 0 0.66526065D-02 0.41500571D-01 0.11578513D+05 0.11578513D+05 0.11578513D+05 0.12608481D+01  1  2  2  1  5  1       -2 0.143206933643D+00 0.100000000000D+01
-.773437996328D-05 0.000000000000D+00 -.534645933047D-06 0.305030330868D-02 0.000000000000D+00  5 -2 1 25 -24 21 2 0.66526065D-02 0.41500571D-01 0.11578513D+05 0.11578513D+05 0.11578513D+05 0.12608481D+01  1  2  3  1  5  1       -2 -.126476496231D-01 0.100000000000D+01
0.965023640135D-05 0.000000000000D+00 0.000000000000D+00 0.305030330868D-02 0.000000000000D+00  5 -2 1 25 -24 21 2 0.66526065D-02 0.41500571D-01 0.11578513D+05 0.11578513D+05 0.11578513D+05 0.12608481D+01  1  2 15  1  5  1       -2 0.157805550495D-01 0.100000000000D+01
0.392725285659D-04 0.000000000000D+00 -.438873971480D-04 0.305030330868D-02 0.000000000000D+00  5 -2 1 25 -24 21 2 0.25786952D-01 0.41500571D-01 0.11578513D+05 0.11578513D+05 0.11578513D+05 0.12608481D+01  1  2  5  1  5  1       -2 0.723769588908D-02 0.100000000000D+01
0.705905231148D-05 0.000000000000D+00 -.706623020444D-05 0.305030330868D-02 0.000000000000D+00  5 21 1 25 -24 2 2 0.25786952D-01 0.41500571D-01 0.11578513D+05 0.11578513D+05 0.11578513D+05 0.12608481D+01  1  2  5  3  5  1       -2 0.176999604515D-01 0.100000000000D+01
  </mgrwgt>
  </event>
  <event>
  4     66 0.46019439E-03 0.68149502E+02 0.75467711E-02 0.12317974E+00
       -2 -1    0    0    0  501 0.00000000E+00 0.00000000E+00 0.14112613E+02 0.14116240E+02 0.32000000E+00 0.0000E+00 0.9000E+01
        1 -1    0    0  501    0 0.00000000E+00 0.00000000E+00 -.11020847E+04 0.11020847E+04 0.32000000E+00 0.0000E+00 0.9000E+01
       25  1    1    2    0    0 0.18092303E+02 -.54870498E+02 -.79782518E+03 0.80962221E+03 0.12500000E+03 0.0000E+00 0.9000E+01
      -24  1    1    2    0    0 -.18092303E+02 0.54870498E+02 -.29014689E+03 0.30657876E+03 0.80419002E+02 0.0000E+00 0.9000E+01
#aMCatNLO 1  0  0  2  1 0.16868706D+02 0.00000000D+00  -5  5  0 0.00000000D+00 0.00000000D+00 0.00000000D+00 0.00000000D+00 0.00000000D+00
  <mgrwgt>
 0.3658560925D+00    9    2    0
 0.124721068677630D+03 0.000000000000000D+00 0.000000000000000D+00 0.124721068677630D+03
 0.124721068677630D+03 0.000000000000000D+00 0.000000000000000D+00 -.124721068677630D+03
 0.143077598457895D+03 0.180923030805327D+02 -.548704983249703D+02 -.388342138235097D+02
 0.106364538897365D+03 -.180923030805327D+02 0.548704983249703D+02 0.388342138235097D+02
 0.000000000000000D+00 -.000000000000000D+00 -.000000000000000D+00 -.000000000000000D+00
 0.126981696414465D+03 0.000000000000000D+00 0.000000000000000D+00 0.126981696414465D+03
 0.161011413650293D+03 0.000000000000000D+00 0.000000000000000D+00 -.161011413650293D+03
 0.142327323595031D+03 0.260600527322824D+02 -.494453691464161D+02 -.388342138235097D+02
 0.107684542393014D+03 -.121166195476730D+02 0.589392575748049D+02 0.388342138235097D+02
 0.379812440767119D+02 -.139434331846094D+02 -.949388842838882D+01 -.340297172358278D+02
0.287965353862D-03 0.000000000000D+00 0.000000000000D+00 0.247114076575D-02 0.000000000000D+00  5 -2 1 25 -24 21 0 0.21714538D-02 0.16955177D+00 0.14010083D+05 0.14010083D+05 0.14010083D+05 0.12512170D+01  1  2  2  2  5  2        1 0.224411999865D+00 0.100000000000D+01
-.159448427066D-04 0.000000000000D+00 -.110586278185D-05 0.247114076575D-02 0.000000000000D+00  5 -2 1 25 -24 21 2 0.21714538D-02 0.16955177D+00 0.14010083D+05 0.14010083D+05 0.14010083D+05 0.12512170D+01  1  2  3  2  5  2        1 -.194532120718D-01 0.100000000000D+01
0.198943778406D-04 0.000000000000D+00 0.000000000000D+00 0.247114076575D-02 0.000000000000D+00  5 -2 1 25 -24 21 2 0.21714538D-02 0.16955177D+00 0.14010083D+05 0.14010083D+05 0.14010083D+05 0.12512170D+01  1  2 15  2  5  2        1 0.242717697684D-01 0.100000000000D+01
0.139828221342D-02 0.000000000000D+00 0.000000000000D+00 0.247114076575D-02 0.000000000000D+00  5 -2 1 25 -24 21 2 0.21714538D-02 0.22010799D+00 0.16158725D+05 0.16158725D+05 0.16158725D+05 0.12441552D+01  1  2 12  2  5  2        1 0.101719762027D+01 0.100000000000D+01
-.138852850486D-02 0.000000000000D+00 0.000000000000D+00 0.247114076575D-02 0.000000000000D+00  5 -2 1 25 -24 21 2 0.21714538D-02 0.16955177D+00 0.14010083D+05 0.14010083D+05 0.14010083D+05 0.12512170D+01  1  2  4  2  5  2        1 -.169404866324D+01 0.100000000000D+01
-.169513237435D-02 0.000000000000D+00 -.177955211543D-03 0.247114076575D-02 0.000000000000D+00  5 -2 1 25 -24 21 2 0.21714538D-02 0.22040286D+00 0.14010083D+05 0.14010083D+05 0.14010083D+05 0.12512170D+01  1  2  5  2  5  2        1 -.124075063083D+01 0.100000000000D+01
0.168931392491D-02 0.000000000000D+00 0.172004210424D-03 0.247114076575D-02 0.000000000000D+00  5 -2 1 25 -24 21 2 0.21714538D-02 0.16955177D+00 0.14010083D+05 0.14010083D+05 0.14010083D+05 0.12512170D+01  1  2  6  2  5  2        1 0.206101638265D+01 0.100000000000D+01
0.488393631850D-04 0.000000000000D+00 0.000000000000D+00 0.247114076575D-02 0.000000000000D+00  5 -2 21 25 -24 -1 2 0.21714538D-02 0.22010799D+00 0.16158725D+05 0.16158725D+05 0.16158725D+05 0.12441552D+01  1  2 12  4  5  2        1 0.411910186748D-01 0.100000000000D+01
-.562053893185D-04 0.000000000000D+00 -.623899475055D-05 0.247114076575D-02 0.000000000000D+00  5 -2 21 25 -24 -1 2 0.21714538D-02 0.22040286D+00 0.14010083D+05 0.14010083D+05 0.14010083D+05 0.12512170D+01  1  2  5  4  5  2        1 -.479801925818D-01 0.100000000000D+01
  </mgrwgt>
  </event>
  <event>
  5     66 0.46019439E-03 0.12670488E+03 0.75467711E-02 0.11725879E+00
       -2 -1    0    0    0  501 0.00000000E+00 0.00000000E+00 0.34119452E+02 0.34120952E+02 0.32000000E+00 0.0000E+00 0.9000E+01
        1 -1    0    0  502    0 0.00000000E+00 0.00000000E+00 -.12675361E+04 0.12675361E+04 0.32000000E+00 0.0000E+00 0.9000E+01
       25  1    1    2    0    0 0.17953601E+02 -.10653770E+03 -.25572629E+03 0.30445615E+03 0.12500000E+03 0.0000E+00 0.9000E+01
      -24  1    1    2    0    0 -.53216672E+02 0.30320136E+02 -.36345259E+03 0.37724836E+03 0.80419002E+02 0.0000E+00 0.9000E+01
       21  1    1    2  502  501 0.35263071E+02 0.76217566E+02 -.61423775E+03 0.61995256E+03 0.75000000E+00 0.0000E+00 0.9000E+01
#aMCatNLO 2  0  0  2  1 0.83979769D+02 0.00000000D+00  -5  5  0 0.00000000D+00 0.00000000D+00 0.00000000D+00 0.00000000D+00 0.00000000D+00
  <mgrwgt>
 0.7302789682D-01    2    2    0
 0.136277251887301D+03 0.000000000000000D+00 0.000000000000000D+00 0.136277251887301D+03
 0.136277251887301D+03 0.000000000000000D+00 0.000000000000000D+00 -.136277251887301D+03
 0.153077165150159D+03 0.385403408550230D+02 -.620415424781115D+02 0.497303491253016D+02
 0.119477338624442D+03 -.385403408550230D+02 0.620415424781115D+02 -.497303491253016D+02
 0.000000000000000D+00 0.000000000000000D+00 0.000000000000000D+00 -.000000000000000D+00
 0.155632219667926D+03 0.000000000000000D+00 0.000000000000000D+00 0.155632219667926D+03
 0.277886843889945D+03 0.000000000000000D+00 0.000000000000000D+00 -.277886843889945D+03
 0.172541940743504D+03 0.179536008092240D+02 -.106537701821438D+03 0.497303491253016D+02
 0.112657216154974D+03 -.532166717225728D+02 0.303201356208304D+02 -.497303491253016D+02
 0.148319906659392D+03 0.352630709133489D+02 0.762175662006074D+02 -.122254624222019D+03
-.108533759836D-03 0.000000000000D+00 0.000000000000D+00 0.223861374147D-02 0.000000000000D+00  5 -2 1 25 -24 21 2 0.45964218D-02 0.19525827D+00 0.30675151D+05 0.30675151D+05 0.30675151D+05 0.12138853D+01  1  2 13  2  5  2        1 -.319985139944D-01 0.100000000000D+01
0.434196260320D-03 0.000000000000D+00 0.000000000000D+00 0.223861374147D-02 0.311353265195D-05  5 -2 1 25 -24 21 2 0.52492350D-02 0.19500456D+00 0.30675151D+05 0.30675151D+05 0.30675151D+05 0.12138853D+01  1  2  1  2  5  2        1 0.105026410817D+00 0.100000000000D+01
  </mgrwgt>
  </event>
  <event>
  4     66 0.46019439E-03 0.12085134E+03 0.75467711E-02 0.11696461E+00
       -2 -1    0    0    0  501 0.00000000E+00 0.00000000E+00 0.78386033E+01 0.78451324E+01 0.32000000E+00 0.0000E+00 0.9000E+01
        1 -1    0    0  501    0 0.00000000E+00 0.00000000E+00 -.18752885E+04 0.18752885E+04 0.32000000E+00 0.0000E+00 0.9000E+01
       25  1    1    2    0    0 0.16005304E+02 -.60511619E+02 -.11560750E+04 0.11644966E+04 0.12500000E+03 0.0000E+00 0.9000E+01
      -24  1    1    2    0    0 -.16005304E+02 0.60511619E+02 -.71137487E+03 0.71863708E+03 0.80419002E+02 0.0000E+00 0.9000E+01
#aMCatNLO 1  0  0  2  1 0.96159442D+02 0.00000000D+00  -5  5  0 0.00000000D+00 0.00000000D+00 0.00000000D+00 0.00000000D+00 0.00000000D+00
  <mgrwgt>
 0.3002457371D+00    3    2    0
 0.121267539130073D+03 0.000000000000000D+00 0.000000000000000D+00 0.121267539130073D+03
 0.121267539130073D+03 0.000000000000000D+00 0.000000000000000D+00 -.121267539130073D+03
 0.140146837150227D+03 0.160053044511130D+02 -.605116187170077D+02 -.991514966537938D+01
 0.102388241109918D+03 -.160053044511130D+02 0.605116187170077D+02 0.991514966537938D+01
 0.000000000000000D+00 0.000000000000000D+00 0.000000000000000D+00 0.000000000000000D+00
 0.415820439438655D+03 0.000000000000000D+00 0.000000000000000D+00 0.415820439438655D+03
 0.138551633721816D+03 0.000000000000000D+00 0.000000000000000D+00 -.138551633721816D+03
 0.172759206033665D+03 0.281375345945189D+01 -.118804527977535D+03 -.991514966537938D+01
 0.881428875856113D+02 -.240377511054229D+02 0.250165746349505D+02 0.991514966537938D+01
 0.293469979541195D+03 0.212239976459710D+02 0.937879533425843D+02 0.277268805716839D+03
0.516841231772D-03 0.000000000000D+00 0.000000000000D+00 0.274365964553D-02 0.000000000000D+00  5 -2 1 25 -24 21 0 0.12064433D-02 0.28850643D+00 0.14605047D+05 0.14605047D+05 0.14605047D+05 0.12491458D+01  1  2  2  2  5  2        1 0.294026512028D+00 0.100000000000D+01
-.287129891265D-04 0.000000000000D+00 -.198480641743D-05 0.274365964553D-02 0.000000000000D+00  5 -2 1 25 -24 21 2 0.12064433D-02 0.28850643D+00 0.14605047D+05 0.14605047D+05 0.14605047D+05 0.12491458D+01  1  2  3  2  5  2        1 -.254878965687D-01 0.100000000000D+01
0.357191593628D-04 0.000000000000D+00 0.000000000000D+00 0.274365964553D-02 0.000000000000D+00  5 -2 1 25 -24 21 2 0.12064433D-02 0.28850643D+00 0.14605047D+05 0.14605047D+05 0.14605047D+05 0.12491458D+01  1  2 15  2  5  2        1 0.317071216566D-01 0.100000000000D+01
  </mgrwgt>
  </event>
  <event>
  4     66 0.46019439E-03 0.41160815E+02 0.75467711E-02 0.12250086E+00
       -2 -1    0    0    0  501 0.00000000E+00 0.00000000E+00 0.24969691E+02 0.24971742E+02 0.32000000E+00 0.0000E+00 0.9000E+01
        1 -1    0    0  501    0 0.00000000E+00 0.00000000E+00 -.55824375E+03 0.55824385E+03 0.32000000E+00 0.0000E+00 0.9000E+01
       25  1    1    2    0    0 0.20216254E+02 -.35333899E+02 -.40960895E+03 0.43018795E+03 0.12500000E+03 0.0000E+00 0.9000E+01
      -24  1    1    2    0    0 -.20216254E+02 0.35333899E+02 -.12366511E+03 0.15302763E+03 0.80419002E+02 0.0000E+00 0.9000E+01
#aMCatNLO 1  0  0  1  2 0.38229797D+02 0.00000000D+00  -5  5  0 0.00000000D+00 0.00000000D+00 0.00000000D+00 0.00000000D+00 0.00000000D+00
  <mgrwgt>
 0.2156820403D+00    9    2    0
 0.118066925483846D+03 0.000000000000000D+00 0.000000000000000D+00 0.118066925483846D+03
 0.118066925483846D+03 0.000000000000000D+00 0.000000000000000D+00 -.118066925483846D+03
 0.137458012378208D+03 0.202162538709703D+02 -.353338993703362D+02 -.401562423749897D+02
 0.986758385894846D+02 -.202162538709703D+02 0.353338993703362D+02 0.401562423749897D+02
 0.000000000000000D+00 -.000000000000000D+00 -.000000000000000D+00 0.000000000000000D+00
 0.163142226956524D+03 0.000000000000000D+00 0.000000000000000D+00 0.163142226956524D+03
 0.127996456568878D+03 0.000000000000000D+00 0.000000000000000D+00 -.127996456568878D+03
 0.133660033389037D+03 0.210711348387713D+02 -.135457742667569D+02 -.401562423749897D+02
 0.105548480153346D+03 -.195723001173155D+02 0.517461783588844D+02 0.401562423749897D+02
 0.519301699830187D+02 -.149883472145575D+01 -.382004040921275D+02 0.351457703876461D+02
0.194102549944D-03 0.000000000000D+00 0.000000000000D+00 0.254052505130D-02 0.000000000000D+00  5 -2 1 25 -24 21 0 0.38416557D-02 0.85883819D-01 0.12276324D+05 0.12276324D+05 0.12276324D+05 0.12578670D+01  1  2  2  1  5  1       -2 0.182248251024D+00 0.100000000000D+01
-.107305448053D-04 0.000000000000D+00 -.745404900159D-06 0.254052505130D-02 0.000000000000D+00  5 -2 1 25 -24 21 2 0.38416557D-02 0.85883819D-01 0.12276324D+05 0.12276324D+05 0.12276324D+05 0.12578670D+01  1  2  3  1  5  1       -2 -.159412857647D-01 0.100000000000D+01
0.134017235384D-04 0.000000000000D+00 0.000000000000D+00 0.254052505130D-02 0.000000000000D+00  5 -2 1 25 -24 21 2 0.38416557D-02 0.85883819D-01 0.12276324D+05 0.12276324D+05 0.12276324D+05 0.12578670D+01  1  2 15  1  5  1       -2 0.199095860035D-01 0.100000000000D+01
0.166856373991D-03 0.000000000000D+00 0.000000000000D+00 0.254052505130D-02 0.000000000000D+00  5 -2 1 25 -24 21 2 0.54223977D-02 0.85883819D-01 0.17335182D+05 0.17335182D+05 0.17335182D+05 0.12407220D+01  1  2 12  1  5  1       -2 0.145901479268D+00 0.100000000000D+01
-.186903250877D-03 0.000000000000D+00 0.000000000000D+00 0.254052505130D-02 0.000000000000D+00  5 -2 1 25 -24 21 2 0.38416557D-02 0.85883819D-01 0.12276324D+05 0.12276324D+05 0.12276324D+05 0.12578670D+01  1  2  4  1  5  1       -2 -.277663267491D+00 0.100000000000D+01
-.247366728213D-03 0.000000000000D+00 -.718595707591D-04 0.254052505130D-02 0.000000000000D+00  5 -2 1 25 -24 21 2 0.57489629D-02 0.85883819D-01 0.12276324D+05 0.12276324D+05 0.12276324D+05 0.12578670D+01  1  2  5  1  5  1       -2 -.201599252386D+00 0.100000000000D+01
0.260359743651D-03 0.000000000000D+00 0.663917132037D-04 0.254052505130D-02 0.000000000000D+00  5 -2 1 25 -24 21 2 0.38416557D-02 0.85883819D-01 0.12276324D+05 0.12276324D+05 0.12276324D+05 0.12578670D+01  1  2  6  1  5  1       -2 0.386790153761D+00 0.100000000000D+01
0.712811167467D-05 0.000000000000D+00 0.000000000000D+00 0.254052505130D-02 0.000000000000D+00  5 21 1 25 -24 2 2 0.54223977D-02 0.85883819D-01 0.17335182D+05 0.17335182D+05 0.17335182D+05 0.12407220D+01  1  2 12  3  5  1       -2 0.110021634454D+00 0.100000000000D+01
-.936330596609D-05 0.000000000000D+00 -.344005206891D-05 0.254052505130D-02 0.000000000000D+00  5 21 1 25 -24 2 2 0.57489629D-02 0.85883819D-01 0.12276324D+05 0.12276324D+05 0.12276324D+05 0.12578670D+01  1  2  5  3  5  1       -2 -.133985258556D+00 0.100000000000D+01
  </mgrwgt>
  </event>
  <event>
  4     66 0.46019439E-03 0.10266830E+03 0.75467711E-02 0.11249216E+00
       -2 -1    0    0    0  501 0.00000000E+00 0.00000000E+00 0.44791589E+02 0.44792732E+02 0.32000000E+00 0.0000E+00 0.9000E+01
        1 -1    0    0  501    0 0.00000000E+00 0.00000000E+00 -.65268116E+03 0.65268124E+03 0.32000000E+00 0.0000E+00 0.9000E+01
       25  1    1    2    0    0 0.41529101E+01 -.11853037E+03 -.19397743E+03 0.25945894E+03 0.12500000E+03 0.0000E+00 0.9000E+01
      -24  1    1    2    0    0 -.41529101E+01 0.11853037E+03 -.41391214E+03 0.43801503E+03 0.80419002E+02 0.0000E+00 0.9000E+01
#aMCatNLO 1  0  0  1  2 0.12572665D+03 0.00000000D+00  -5  5  0 0.00000000D+00 0.00000000D+00 0.00000000D+00 0.00000000D+00 0.00000000D+00
  <mgrwgt>
 0.1685647450D+00    7    2    0
 0.170982607665679D+03 0.000000000000000D+00 0.000000000000000D+00 0.170982607665679D+03
 0.170982607665679D+03 0.000000000000000D+00 0.000000000000000D+00 -.170982607665679D+03
 0.184372542716172D+03 0.415291010413473D+01 -.118530370373061D+03 0.655861200599521D+02
 0.157592672615186D+03 -.415291010413473D+01 0.118530370373061D+03 -.655861200599521D+02
 0.000000000000000D+00 0.000000000000000D+00 0.000000000000000D+00 0.000000000000000D+00
 0.322546800750741D+03 0.000000000000000D+00 0.000000000000000D+00 0.322546800750741D+03
 0.210324457592767D+03 0.000000000000000D+00 0.000000000000000D+00 -.210324457592767D+03
 0.210445739361826D+03 -.615708930746812D+02 -.143422087549349D+03 0.655861200599521D+02
 0.153899424766954D+03 -.560057402019464D+02 0.988920366315828D+02 -.655861200599521D+02
 0.168526094214729D+03 0.117576633276628D+03 0.445300509177665D+02 0.112222343157975D+03
0.627732432837D-03 0.000000000000D+00 0.000000000000D+00 0.196287930417D-02 0.000000000000D+00  5 -2 1 25 -24 21 0 0.68911076D-02 0.10041258D+00 0.24902318D+05 0.24902318D+05 0.24902318D+05 0.12234800D+01  1  2  2  1  5  1       -2 0.201673867239D+00 0.100000000000D+01
-.346012689360D-04 0.000000000000D+00 -.241065782784D-05 0.196287930417D-02 0.000000000000D+00  5 -2 1 25 -24 21 2 0.68911076D-02 0.10041258D+00 0.24902318D+05 0.24902318D+05 0.24902318D+05 0.12234800D+01  1  2  3  1  5  1       -2 -.166402869932D-01 0.100000000000D+01
0.431795204316D-04 0.000000000000D+00 0.000000000000D+00 0.196287930417D-02 0.000000000000D+00  5 -2 1 25 -24 21 2 0.68911076D-02 0.10041258D+00 0.24902318D+05 0.24902318D+05 0.24902318D+05 0.12234800D+01  1  2 15  1  5  1       -2 0.207657012100D-01 0.100000000000D+01
0.260904023234D-04 0.000000000000D+00 0.000000000000D+00 0.196287930417D-02 0.000000000000D+00  5 -2 1 25 -24 21 2 0.13190962D-01 0.10041258D+00 0.54036707D+05 0.54036707D+05 0.54036707D+05 0.11889567D+01  1  2 12  1  5  1       -2 0.428259739682D-02 0.100000000000D+01
-.223248245185D-03 0.000000000000D+00 -.171748438819D-03 0.196287930417D-02 0.000000000000D+00  5 -2 1 25 -24 21 2 0.15911425D-01 0.10041258D+00 0.24902318D+05 0.24902318D+05 0.24902318D+05 0.12234800D+01  1  2  5  1  5  1       -2 -.284708852823D-01 0.100000000000D+01
0.183911475859D-05 0.000000000000D+00 0.000000000000D+00 0.196287930417D-02 0.000000000000D+00  5 21 1 25 -24 2 2 0.13190962D-01 0.10041258D+00 0.54036707D+05 0.54036707D+05 0.54036707D+05 0.11889567D+01  1  2 12  3  5  1       -2 0.443523634802D-02 0.100000000000D+01
-.947737261400D-05 0.000000000000D+00 -.156479044634D-04 0.196287930417D-02 0.000000000000D+00  5 21 1 25 -24 2 2 0.15911425D-01 0.10041258D+00 0.24902318D+05 0.24902318D+05 0.24902318D+05 0.12234800D+01  1  2  5  3  5  1       -2 -.174814849122D-01 0.100000000000D+01
  </mgrwgt>
  </event>
  <event>
  4     66 0.46019439E-03 0.10739143E+03 0.75467711E-02 0.11511267E+00
       -2 -1    0    0    0  501 0.00000000E+00 0.00000000E+00 0.96690509E+03 0.96690514E+03 0.32000000E+00 0.0000E+00 0.9000E+01
        1 -1    0    0  501    0 0.00000000E+00 0.00000000E+00 -.23596275E+02 0.23598445E+02 0.32000000E+00 0.0000E+00 0.9000E+01
       25  1    1    2    0    0 -.10373416E+00 -.30680401E+02 0.17419038E+03 0.21658390E+03 0.12500000E+03 0.0000E+00 0.9000E+01
      -24  1    1    2    0    0 0.10373416E+00 0.30680401E+02 0.76911843E+03 0.77391968E+03 0.80419002E+02 0.0000E+00 0.9000E+01
#aMCatNLO 1  0  0  2  2 0.14144538D+03 0.00000000D+00  -5  5  0 0.00000000D+00 0.00000000D+00 0.00000000D+00 0.00000000D+00 0.00000000D+00
  <mgrwgt>
 0.1281527028D+00    5    2    0
 0.151051180252173D+03 0.000000000000000D+00 0.000000000000000D+00 0.151051180252173D+03
 0.151051180252173D+03 0.000000000000000D+00 0.000000000000000D+00 -.151051180252173D+03
 0.166207937104951D+03 -.103734159836788D+00 -.306804006586257D+02 -.105160737023537D+03
 0.135894423399394D+03 0.103734159836788D+00 0.306804006586257D+02 0.105160737023537D+03
 0.000000000000000D+00 -.000000000000000D+00 0.000000000000000D+00 -.000000000000000D+00
 0.191847840063218D+03 0.000000000000000D+00 0.000000000000000D+00 0.191847840063218D+03
 0.366376115799271D+03 0.000000000000000D+00 0.000000000000000D+00 -.366376115799271D+03
 0.192482795673973D+03 0.621145433952685D+02 -.806698798680915D+02 -.105160737023537D+03
 0.141092732730440D+03 0.481497587274888D+02 -.792233539582250D+01 0.105160737023537D+03
 0.224648427458076D+03 -.110264302122757D+03 0.885922152639140D+02 -.174528275736053D+03
0.189726080729D-02 0.000000000000D+00 0.000000000000D+00 0.133612132521D-02 0.000000000000D+00  5 -2 1 25 -24 21 0 0.14875480D+00 0.36303671D-02 0.11532919D+05 0.11532919D+05 0.11532919D+05 0.12610499D+01  1  2  2  2  5  2        1 0.135021984082D+00 0.100000000000D+01
-.904892744436D-04 0.000000000000D+00 -.728598106025D-05 0.133612132521D-02 0.000000000000D+00  5 -2 1 25 -24 21 2 0.14875480D+00 0.36303671D-02 0.11532919D+05 0.11532919D+05 0.11532919D+05 0.12610499D+01  1  2  3  2  5  2        1 -.102409227474D-01 0.100000000000D+01
0.129397321742D-03 0.000000000000D+00 0.000000000000D+00 0.133612132521D-02 0.000000000000D+00  5 -2 1 25 -24 21 2 0.14875480D+00 0.36303671D-02 0.11532919D+05 0.11532919D+05 0.11532919D+05 0.12610499D+01  1  2 15  2  5  2        1 0.146442546238D-01 0.100000000000D+01
-.354585592675D-03 0.000000000000D+00 -.791801260987D-03 0.133612132521D-02 0.000000000000D+00  5 -2 1 25 -24 21 2 0.14875480D+00 0.11225720D-01 0.11532919D+05 0.11532919D+05 0.11532919D+05 0.12610499D+01  1  2  5  2  5  2        1 -.881019330288D-02 0.100000000000D+01
-.860223214450D-05 0.000000000000D+00 -.102284388295D-03 0.133612132521D-02 0.000000000000D+00  5 -2 21 25 -24 -1 2 0.14875480D+00 0.11225720D-01 0.11532919D+05 0.11532919D+05 0.11532919D+05 0.12610499D+01  1  2  5  4  5  2        1 -.246241982571D-02 0.100000000000D+01
  </mgrwgt>
  </event>
  <event>
  4     66 0.46019439E-03 0.14778791E+03 0.75467711E-02 0.11201565E+00
       -2 -1    0    0    0  501 0.00000000E+00 0.00000000E+00 0.26469307E+03 0.26469327E+03 0.32000000E+00 0.0000E+00 0.9000E+01
        1 -1    0    0  501    0 0.00000000E+00 0.00000000E+00 -.89414465E+02 0.89415038E+02 0.32000000E+00 0.0000E+00 0.9000E+01
       25  1    1    2    0    0 0.79354137E+02 -.68833591E+02 0.47184425E+02 0.16996033E+03 0.12500000E+03 0.0000E+00 0.9000E+01
      -24  1    1    2    0    0 -.79354137E+02 0.68833591E+02 0.12809418E+03 0.18414798E+03 0.80419002E+02 0.0000E+00 0.9000E+01
#aMCatNLO 1  0  0  1  2 0.14824636D+03 0.00000000D+00  -5  5  0 0.00000000D+00 0.00000000D+00 0.00000000D+00 0.00000000D+00 0.00000000D+00
  <mgrwgt>
 0.1570571632D+00    5    2    0
 0.153842533775252D+03 0.000000000000000D+00 0.000000000000000D+00 0.153842533775252D+03
 0.153842533775252D+03 0.000000000000000D+00 0.000000000000000D+00 -.153842533775252D+03
 0.168724283023818D+03 0.793541372077078D+02 -.688335909974794D+02 -.425175415600843D+02
 0.138960784526686D+03 -.793541372077078D+02 0.688335909974794D+02 0.425175415600843D+02
 0.000000000000000D+00 0.000000000000000D+00 0.000000000000000D+00 0.000000000000000D+00
 0.284901883563903D+03 0.000000000000000D+00 0.000000000000000D+00 0.284901883563903D+03
 0.218906858677930D+03 0.000000000000000D+00 0.000000000000000D+00 -.218906858677930D+03
 0.187839761480308D+03 0.266780625751705D+02 -.130917209067032D+03 -.425175415600843D+02
 0.153696596852638D+03 -.122589124865365D+03 0.178771657189374D+02 0.425175415600843D+02
 0.162272383908886D+03 0.959110622901944D+02 0.113040043348094D+03 0.659950248859728D+02
0.761609431655D-03 0.000000000000D+00 0.000000000000D+00 0.221292708658D-02 0.000000000000D+00  5 -2 1 25 -24 21 0 0.40722070D-01 0.13756130D-01 0.21841266D+05 0.21841266D+05 0.21841266D+05 0.12296374D+01  1  2  2  1  5  1       -2 0.156220576146D+00 0.100000000000D+01
-.422286992676D-04 0.000000000000D+00 -.292478075393D-05 0.221292708658D-02 0.000000000000D+00  5 -2 1 25 -24 21 2 0.40722070D-01 0.13756130D-01 0.21841266D+05 0.21841266D+05 0.21841266D+05 0.12296374D+01  1  2  3  1  5  1       -2 -.130968768923D-01 0.100000000000D+01
0.525689286791D-04 0.000000000000D+00 0.000000000000D+00 0.221292708658D-02 0.000000000000D+00  5 -2 1 25 -24 21 2 0.40722070D-01 0.13756130D-01 0.21841266D+05 0.21841266D+05 0.21841266D+05 0.12296374D+01  1  2 15  1  5  1       -2 0.163038123174D-01 0.100000000000D+01
-.911532780560D-04 0.000000000000D+00 -.201054461095D-03 0.221292708658D-02 0.000000000000D+00  5 -2 1 25 -24 21 2 0.10105738D+00 0.13756130D-01 0.21841266D+05 0.21841266D+05 0.21841266D+05 0.12296374D+01  1  2  5  1  5  1       -2 -.421771617501D-02 0.100000000000D+01
0.336269045973D-05 0.000000000000D+00 -.200923019974D-04 0.221292708658D-02 0.000000000000D+00  5 21 1 25 -24 2 2 0.10105738D+00 0.13756130D-01 0.21841266D+05 0.21841266D+05 0.21841266D+05 0.12296374D+01  1  2  5  3  5  1       -2 0.184736778385D-02 0.100000000000D+01
  </mgrwgt>
  </event>
  <event>
  4     66 0.46019439E-03 0.10946225E+03 0.75467711E-02 0.12388480E+00
       -2 -1    0    0    0  501 0.00000000E+00 0.00000000E+00 0.49286646E+02 0.49287685E+02 0.32000000E+00 0.0000E+00 0.9000E+01
        1 -1    0    0  501    0 0.00000000E+00 0.00000000E+00 -.24358967E+03 0.24358988E+03 0.32000000E+00 0.0000E+00 0.9000E+01
       25  1    1    2    0    0 0.10039617E+02 -.35672610E+02 -.10926176E+03 0.17010721E+03 0.12500000E+03 0.0000E+00 0.9000E+01
      -24  1    1    2    0    0 -.10039617E+02 0.35672610E+02 -.85041265E+02 0.12277036E+03 0.80419002E+02 0.0000E+00 0.9000E+01
#aMCatNLO 1  0  0  1  2 0.24891677D+02 0.00000000D+00  -5  5  0 0.00000000D+00 0.00000000D+00 0.00000000D+00 0.00000000D+00 0.00000000D+00
  <mgrwgt>
 0.2070172336D+00    4    2    0
 0.109571441871303D+03 0.000000000000000D+00 0.000000000000000D+00 0.109571441871303D+03
 0.109571441871303D+03 0.000000000000000D+00 0.000000000000000D+00 -.109571441871303D+03
 0.130465992242342D+03 0.100396174212883D+02 -.356726095357145D+02 0.480063982459623D+01
 0.886768915002630D+02 -.100396174212883D+02 0.356726095357145D+02 -.480063982459623D+01
 0.000000000000000D+00 -.000000000000000D+00 0.000000000000000D+00 -.000000000000000D+00
 0.114032527220271D+03 0.000000000000000D+00 0.000000000000000D+00 0.114032527220271D+03
 0.151510795206903D+03 0.000000000000000D+00 0.000000000000000D+00 -.151510795206903D+03
 0.132764476626326D+03 0.248940553352483D+02 -.368598171468939D+02 0.480063982459623D+01
 0.877875559738026D+02 -.814990078284321D-01 0.348767292713812D+02 -.480063982459623D+01
 0.449912898270452D+02 -.248125563274199D+02 0.198308787551269D+01 -.374782679866318D+02
0.240814103975D-03 0.000000000000D+00 0.000000000000D+00 0.301859648823D-02 0.000000000000D+00  5 -2 1 25 -24 21 0 0.75826571D-02 0.37475430D-01 0.11981983D+05 0.11981983D+05 0.11981983D+05 0.12591006D+01  1  2  2  1  5  1       -2 0.230349376351D+00 0.100000000000D+01
-.133785451607D-04 0.000000000000D+00 -.924789567075D-06 0.301859648823D-02 0.000000000000D+00  5 -2 1 25 -24 21 2 0.75826571D-02 0.37475430D-01 0.11981983D+05 0.11981983D+05 0.11981983D+05 0.12591006D+01  1  2  3  1  5  1       -2 -.202877958365D-01 0.100000000000D+01
0.166532823096D-04 0.000000000000D+00 0.000000000000D+00 0.301859648823D-02 0.000000000000D+00  5 -2 1 25 -24 21 2 0.75826571D-02 0.37475430D-01 0.11981983D+05 0.11981983D+05 0.11981983D+05 0.12591006D+01  1  2 15  1  5  1       -2 0.252537467598D-01 0.100000000000D+01
-.186608406220D-04 0.000000000000D+00 0.000000000000D+00 0.301859648823D-02 0.000000000000D+00  5 -2 1 25 -24 21 2 0.75826571D-02 0.37475430D-01 0.11981983D+05 0.11981983D+05 0.11981983D+05 0.12591006D+01  1  2  4  1  5  1       -2 -.282980937111D-01 0.100000000000D+01
  </mgrwgt>
  </event>
  <event>
  4     66 0.46019439E-03 0.10663491E+03 0.75467711E-02 0.10860353E+00
       -2 -1    0    0    0  501 0.00000000E+00 0.00000000E+00 0.17789312E+02 0.17792190E+02 0.32000000E+00 0.0000E+00 0.9000E+01
        1 -1    0    0  501    0 0.00000000E+00 0.00000000E+00 -.65481661E+03 0.65481669E+03 0.32000000E+00 0.0000E+00 0.9000E+01
       25  1    1    2    0    0 0.60887590E+01 0.27363878E+02 -.33012932E+03 0.35411329E+03 0.12500000E+03 0.0000E+00 0.9000E+01
      -24  1    1    2    0    0 -.60887590E+01 -.27363878E+02 -.30689798E+03 0.31849559E+03 0.80419002E+02 0.0000E+00 0.9000E+01
#aMCatNLO 1  0  0  2  2 0.26028710D+03 0.00000000D+00  -5  5  0 0.00000000D+00 0.00000000D+00 0.00000000D+00 0.00000000D+00 0.00000000D+00
  <mgrwgt>
 0.1928472646D+00    5    2    0
 0.107933921471418D+03 0.000000000000000D+00 0.000000000000000D+00 0.107933921471418D+03
 0.107933921471418D+03 0.000000000000000D+00 0.000000000000000D+00 -.107933921471418D+03
 0.129145473689630D+03 0.608875900049060D+01 0.273638775170633D+02 0.163614973515265D+02
 0.867223692532062D+02 -.608875900049060D+01 -.273638775170633D+02 -.163614973515265D+02
 0.000000000000000D+00 -.000000000000000D+00 0.000000000000000D+00 -.000000000000000D+00
 0.246258301163463D+03 0.000000000000000D+00 0.000000000000000D+00 0.246258301163463D+03
 0.388526294070831D+03 0.000000000000000D+00 0.000000000000000D+00 -.388526294070831D+03
 0.189222199262799D+03 0.128138549337343D+03 -.591003745503179D+02 0.163614973515265D+02
 0.148932057614853D+03 0.842519879870194D+02 -.913643571403783D+02 -.163614973515265D+02
 0.296630338356641D+03 -.212390537324362D+03 0.150464731690696D+03 -.142267992907368D+03
0.150172761612D-03 0.000000000000D+00 0.000000000000D+00 0.301174011226D-02 0.000000000000D+00  5 -2 1 25 -24 21 0 0.27370447D-02 0.10074124D+00 0.11371004D+05 0.11371004D+05 0.11371004D+05 0.12617738D+01  1  2  2  2  5  2        1 0.186177130278D+00 0.100000000000D+01
-.834144402139D-05 0.000000000000D+00 -.576702945987D-06 0.301174011226D-02 0.000000000000D+00  5 -2 1 25 -24 21 2 0.27370447D-02 0.10074124D+00 0.11371004D+05 0.11371004D+05 0.11371004D+05 0.12617738D+01  1  2  3  2  5  2        1 -.164641529896D-01 0.100000000000D+01
0.103815747388D-04 0.000000000000D+00 0.000000000000D+00 0.301174011226D-02 0.000000000000D+00  5 -2 1 25 -24 21 2 0.27370447D-02 0.10074124D+00 0.11371004D+05 0.11371004D+05 0.11371004D+05 0.12617738D+01  1  2 15  2  5  2        1 0.204909167206D-01 0.100000000000D+01
0.837443292036D-04 0.000000000000D+00 -.738768809481D-04 0.301174011226D-02 0.000000000000D+00  5 -2 1 25 -24 21 2 0.27370447D-02 0.51439219D+00 0.11371004D+05 0.11371004D+05 0.11371004D+05 0.12617738D+01  1  2  5  2  5  2        1 0.249374232631D-02 0.100000000000D+01
0.142651608801D-04 0.000000000000D+00 -.146972776352D-04 0.301174011226D-02 0.000000000000D+00  5 -2 21 25 -24 -1 2 0.27370447D-02 0.51439219D+00 0.11371004D+05 0.11371004D+05 0.11371004D+05 0.12617738D+01  1  2  5  4  5  2        1 0.149628292694D-03 0.100000000000D+01
  </mgrwgt>
  </event>
  <event>
  5     66 0.46019439E-03 0.10434421E+03 0.75467711E-02 0.11948244E+00
       -2 -1    0    0    0  501 0.00000000E+00 0.00000000E+00 0.71190093E+02 0.71190812E+02 0.32000000E+00 0.0000E+00 0.9000E+01
        1 -1    0    0  502    0 0.00000000E+00 0.00000000E+00 -.34700663E+03 0.34700678E+03 0.32000000E+00 0.0000E+00 0.9000E+01
       25  1    1    2    0    0 -.28903380E+02 0.14913785E+02 -.13733091E+03 0.18852747E+03 0.12500000E+03 0.0000E+00 0.9000E+01
      -24  1    1    2    0    0 -.40062278E+02 0.33575506E+02 -.94204497E+02 0.13443959E+03 0.80419002E+02 0.0000E+00 0.9000E+01
       21  1    1    2  502  501 0.68965657E+02 -.48489291E+02 -.44281128E+02 0.95230531E+02 0.75000000E+00 0.0000E+00 0.9000E+01
#aMCatNLO 2  0  0  2  2 0.84305831D+02 0.00000000D+00  -5  5  0 0.00000000D+00 0.00000000D+00 0.00000000D+00 0.00000000D+00 0.00000000D+00
  <mgrwgt>
 0.2104153094D-01    1    2    0
 0.104393010154953D+03 0.000000000000000D+00 0.000000000000000D+00 0.104393010154953D+03
 0.104393010154953D+03 0.000000000000000D+00 0.000000000000000D+00 -.104393010154953D+03
 0.126324037989184D+03 0.117057673303417D+02 -.136382340889845D+02 -.312028140312278D+01
 0.824619823207231D+02 -.117057673303417D+02 0.136382340889845D+02 0.312028140312278D+01
 0.000000000000000D+00 0.000000000000000D+00 -.000000000000000D+00 0.000000000000000D+00
 0.175315875542500D+03 0.000000000000000D+00 0.000000000000000D+00 0.175315875542500D+03
 0.140906305250871D+03 0.000000000000000D+00 0.000000000000000D+00 -.140906305250871D+03
 0.129199700000761D+03 -.289033795890543D+02 0.149137846498811D+02 -.312028140312278D+01
 0.959648520518996D+02 -.400622777211128D+02 0.335755062915541D+02 0.312028140312278D+01
 0.910576287407108D+02 0.689656573101672D+02 -.484892909414352D+02 0.344095702916289D+02
0.393550086508D-04 0.000000000000D+00 0.000000000000D+00 0.318124436534D-02 0.425787074992D-05  5 -2 1 25 -24 21 2 0.10952277D-01 0.53385159D-01 0.23929299D+05 0.23929299D+05 0.23929299D+05 0.12253410D+01  1  2  1  2  5  2        1 0.210415309395D-01 0.100000000000D+01
  </mgrwgt>
  </event>
  <event>
  4     66 0.46019439E-03 0.64068041E+02 0.75467711E-02 0.11891331E+00
       -2 -1    0    0    0  501 0.00000000E+00 0.00000000E+00 0.52921337E+03 0.52921347E+03 0.32000000E+00 0.0000E+00 0.9000E+01
        1 -1    0    0  501    0 0.00000000E+00 0.00000000E+00 -.55118053E+02 0.55118982E+02 0.32000000E+00 0.0000E+00 0.9000E+01
       25  1    1    2    0    0 0.64842519E+02 0.90699763E+02 0.38674070E+03 0.42145506E+03 0.12500000E+03 0.0000E+00 0.9000E+01
      -24  1    1    2    0    0 -.64842519E+02 -.90699763E+02 0.87354624E+02 0.16287739E+03 0.80419002E+02 0.0000E+00 0.9000E+01
#aMCatNLO 1  0  0  2  1 0.14017006D+02 0.00000000D+00  -5  5  0 0.00000000D+00 0.00000000D+00 0.00000000D+00 0.00000000D+00 0.00000000D+00
  <mgrwgt>
 0.7868494956D-01    9    2    0
 0.170790838000234D+03 0.000000000000000D+00 0.000000000000000D+00 0.170790838000234D+03
 0.170790838000234D+03 0.000000000000000D+00 0.000000000000000D+00 -.170790838000234D+03
 0.184195807717662D+03 0.648425194170511D+02 0.906997626941216D+02 0.766296046162410D+02
 0.157385868282805D+03 -.648425194170511D+02 -.906997626941216D+02 -.766296046162410D+02
 0.000000000000000D+00 0.000000000000000D+00 -.000000000000000D+00 -.000000000000000D+00
 0.173624497323441D+03 0.000000000000000D+00 0.000000000000000D+00 0.173624497323441D+03
 0.189195007853086D+03 0.000000000000000D+00 0.000000000000000D+00 -.189195007853086D+03
 0.186034925653002D+03 0.607247350094255D+02 0.970793686480887D+02 0.766296046162410D+02
 0.155834227435910D+03 -.683262194723198D+02 -.853025317042548D+02 -.766296046162410D+02
 0.209503520876153D+02 0.760148446289435D+01 -.117768369438339D+02 -.155705105296446D+02
0.110357637696D-02 0.000000000000D+00 0.000000000000D+00 0.184859995488D-02 0.000000000000D+00  5 -2 1 25 -24 21 0 0.81417521D-01 0.84797793D-02 0.23251680D+05 0.23251680D+05 0.23251680D+05 0.12266878D+01  1  2  2  2  5  2        1 0.104364098139D+00 0.100000000000D+01
-.603516498097D-04 0.000000000000D+00 -.423802386586D-05 0.184859995488D-02 0.000000000000D+00  5 -2 1 25 -24 21 2 0.81417521D-01 0.84797793D-02 0.23251680D+05 0.23251680D+05 0.23251680D+05 0.12266878D+01  1  2  3  2  5  2        1 -.858827499968D-02 0.100000000000D+01
0.759923434919D-04 0.000000000000D+00 0.000000000000D+00 0.184859995488D-02 0.000000000000D+00  5 -2 1 25 -24 21 2 0.81417521D-01 0.84797793D-02 0.23251680D+05 0.23251680D+05 0.23251680D+05 0.12266878D+01  1  2 15  2  5  2        1 0.108140066732D-01 0.100000000000D+01
0.632696419075D-02 0.000000000000D+00 0.000000000000D+00 0.184859995488D-02 0.000000000000D+00  5 -2 1 25 -24 21 2 0.81417521D-01 0.94590481D-02 0.25476663D+05 0.25476663D+05 0.25476663D+05 0.12224192D+01  1  2 12  2  5  2        1 0.773778906959D+00 0.100000000000D+01
-.643770869928D-02 0.000000000000D+00 0.000000000000D+00 0.184859995488D-02 0.000000000000D+00  5 -2 1 25 -24 21 2 0.81417521D-01 0.84797793D-02 0.23251680D+05 0.23251680D+05 0.23251680D+05 0.12266878D+01  1  2  4  2  5  2        1 -.916111040072D+00 0.100000000000D+01
-.114521685772D-01 0.000000000000D+00 -.164460647447D-02 0.184859995488D-02 0.000000000000D+00  5 -2 1 25 -24 21 2 0.81417521D-01 0.95404746D-02 0.23251680D+05 0.23251680D+05 0.23251680D+05 0.12266878D+01  1  2  5  2  5  2        1 -.139199550111D+01 0.100000000000D+01
0.115768581211D-01 0.000000000000D+00 0.163324984765D-02 0.184859995488D-02 0.000000000000D+00  5 -2 1 25 -24 21 2 0.81417521D-01 0.84797793D-02 0.23251680D+05 0.23251680D+05 0.23251680D+05 0.12266878D+01  1  2  6  2  5  2        1 0.164743203359D+01 0.100000000000D+01
0.110905587985D-03 0.000000000000D+00 0.000000000000D+00 0.184859995488D-02 0.000000000000D+00  5 -2 21 25 -24 -1 2 0.81417521D-01 0.94590481D-02 0.25476663D+05 0.25476663D+05 0.25476663D+05 0.12224192D+01  1  2 12  4  5  2        1 0.166325251507D+00 0.100000000000D+01
-.206663200224D-03 0.000000000000D+00 -.307348867063D-04 0.184859995488D-02 0.000000000000D+00  5 -2 21 25 -24 -1 2 0.81417521D-01 0.95404746D-02 0.23251680D+05 0.23251680D+05 0.23251680D+05 0.12266878D+01  1  2  5  4  5  2        1 -.307334531126D+00 0.100000000000D+01
  </mgrwgt>
  </event>
  <event>
  4     66 0.46019439E-03 0.18533000E+03 0.75467711E-02 0.10681670E+00
       -2 -1    0    0    0  501 0.00000000E+00 0.00000000E+00 0.13133832E+02 0.13137730E+02 0.32000000E+00 0.0000E+00 0.9000E+01
        1 -1    0    0  501    0 0.00000000E+00 0.00000000E+00 -.26768845E+04 0.26768845E+04 0.32000000E+00 0.0000E+00 0.9000E+01
       25  1    1    2    0    0 -.11982930E+03 -.95365843E+02 -.16230176E+04 0.16350122E+04 0.12500000E+03 0.0000E+00 0.9000E+01
      -24  1    1    2    0    0 0.11982930E+03 0.95365843E+02 -.10407331E+04 0.10550101E+04 0.80419002E+02 0.0000E+00 0.9000E+01
#aMCatNLO 1  0  0  2  2 0.23538568D+03 0.00000000D+00  -5  5  0 0.00000000D+00 0.00000000D+00 0.00000000D+00 0.00000000D+00 0.00000000D+00
  <mgrwgt>
 0.2580271442D+00    3    2    0
 0.187518051854625D+03 0.000000000000000D+00 0.000000000000000D+00 0.187518051854625D+03
 0.187518051854625D+03 0.000000000000000D+00 0.000000000000000D+00 -.187518051854625D+03
 0.199727255122064D+03 -.119829304872031D+03 -.953658426761861D+02 -.285003540879880D+02
 0.175308848587185D+03 0.119829304872031D+03 0.953658426761861D+02 0.285003540879880D+02
 0.000000000000000D+00 0.000000000000000D+00 0.000000000000000D+00 0.000000000000000D+00
 0.396002346838058D+03 0.000000000000000D+00 0.000000000000000D+00 0.396002346838058D+03
 0.300721339718539D+03 0.000000000000000D+00 0.000000000000000D+00 -.300721339718539D+03
 0.317673832574125D+03 -.170479609765547D+03 -.235406236904164D+03 -.285003540879880D+02
 0.125111102172456D+03 0.904200854793469D+02 0.140538212313586D+02 0.285003540879880D+02
 0.253938751810016D+03 0.800595242862003D+02 0.221352415672805D+03 0.952810071195194D+02
0.309676144176D-02 0.000000000000D+00 0.000000000000D+00 0.215654895012D-02 0.000000000000D+00  5 -2 1 25 -24 21 0 0.20208908D-02 0.41182869D+00 0.34347209D+05 0.34347209D+05 0.34347209D+05 0.12087782D+01  1  2  2  2  5  2        1 0.253142870688D+00 0.100000000000D+01
-.172013486032D-03 0.000000000000D+00 -.118923793324D-04 0.215654895012D-02 0.000000000000D+00  5 -2 1 25 -24 21 2 0.20208908D-02 0.41182869D+00 0.34347209D+05 0.34347209D+05 0.34347209D+05 0.12087782D+01  1  2  3  2  5  2        1 -.205453572221D-01 0.100000000000D+01
0.212906467260D-03 0.000000000000D+00 0.000000000000D+00 0.215654895012D-02 0.000000000000D+00  5 -2 1 25 -24 21 2 0.20208908D-02 0.41182869D+00 0.34347209D+05 0.34347209D+05 0.34347209D+05 0.12087782D+01  1  2 15  2  5  2        1 0.254296306973D-01 0.100000000000D+01
  </mgrwgt>
  </event>
  <event>
  4     66 0.46019439E-03 0.79264306E+02 0.75467711E-02 0.12209284E+00
       -2 -1    0    0    0  501 0.00000000E+00 0.00000000E+00 0.31924902E+03 0.31924918E+03 0.32000000E+00 0.0000E+00 0.9000E+01
        1 -1    0    0  501    0 0.00000000E+00 0.00000000E+00 -.46481505E+02 0.46482606E+02 0.32000000E+00 0.0000E+00 0.9000E+01
       25  1    1    2    0    0 0.45192909E+02 0.23875317E+02 0.98629022E+02 0.16722773E+03 0.12500000E+03 0.0000E+00 0.9000E+01
      -24  1    1    2    0    0 -.45192909E+02 -.23875317E+02 0.17413849E+03 0.19850406E+03 0.80419002E+02 0.0000E+00 0.9000E+01
#aMCatNLO 1  0  0  1  2 0.36192556D+02 0.00000000D+00  -5  5  0 0.00000000D+00 0.00000000D+00 0.00000000D+00 0.00000000D+00 0.00000000D+00
  <mgrwgt>
 0.2180440213D+00    9    2    0
 0.121817099256758D+03 0.000000000000000D+00 0.000000000000000D+00 0.121817099256758D+03
 0.121817099256758D+03 0.000000000000000D+00 0.000000000000000D+00 -.121817099256758D+03
 0.140611226069627D+03 0.451929085020892D+02 0.238753174786939D+02 -.391674243883497D+02
 0.103022972443889D+03 -.451929085020892D+02 -.238753174786939D+02 0.391674243883497D+02
 0.000000000000000D+00 -.000000000000000D+00 -.000000000000000D+00 0.000000000000000D+00
 0.145523866818214D+03 0.000000000000000D+00 0.000000000000000D+00 0.145523866818214D+03
 0.137792945402743D+03 0.000000000000000D+00 0.000000000000000D+00 -.137792945402743D+03
 0.149548609331882D+03 0.659240140058706D+02 0.293210470010282D+02 -.391674243883497D+02
 0.967591733449702D+02 -.309190351509082D+02 -.201257994661398D+02 0.391674243883497D+02
 0.370090295441048D+02 -.350049788549624D+02 -.919524753488842D+01 0.773092141547080D+01
0.425618501107D-03 0.000000000000D+00 0.000000000000D+00 0.250277753667D-02 0.000000000000D+00  5 -2 1 25 -24 21 0 0.49115331D-01 0.71510978D-02 0.13263346D+05 0.13263346D+05 0.13263346D+05 0.12539610D+01  1  2  2  1  5  1       -2 0.142367875967D+00 0.100000000000D+01
-.235548596183D-04 0.000000000000D+00 -.163448711218D-05 0.250277753667D-02 0.000000000000D+00  5 -2 1 25 -24 21 2 0.49115331D-01 0.71510978D-02 0.13263346D+05 0.13263346D+05 0.13263346D+05 0.12539610D+01  1  2  3  1  5  1       -2 -.123891084437D-01 0.100000000000D+01
0.293648696207D-04 0.000000000000D+00 0.000000000000D+00 0.250277753667D-02 0.000000000000D+00  5 -2 1 25 -24 21 2 0.49115331D-01 0.71510978D-02 0.13263346D+05 0.13263346D+05 0.13263346D+05 0.12539610D+01  1  2 15  1  5  1       -2 0.154449892745D-01 0.100000000000D+01
0.247922172538D-03 0.000000000000D+00 0.000000000000D+00 0.250277753667D-02 0.000000000000D+00  5 -2 1 25 -24 21 2 0.61370716D-01 0.71510978D-02 0.18090035D+05 0.18090035D+05 0.18090035D+05 0.12386540D+01  1  2 12  1  5  1       -2 0.821053644186D-01 0.100000000000D+01
-.244226192464D-03 0.000000000000D+00 0.000000000000D+00 0.250277753667D-02 0.000000000000D+00  5 -2 1 25 -24 21 2 0.49115331D-01 0.71510978D-02 0.13263346D+05 0.13263346D+05 0.13263346D+05 0.12539610D+01  1  2  4  1  5  1       -2 -.128455224624D+00 0.100000000000D+01
-.557532409099D-03 0.000000000000D+00 -.193464071697D-03 0.250277753667D-02 0.000000000000D+00  5 -2 1 25 -24 21 2 0.65317749D-01 0.71510978D-02 0.13263346D+05 0.13263346D+05 0.13263346D+05 0.12539610D+01  1  2  5  1  5  1       -2 -.164701566181D+00 0.100000000000D+01
0.595910399204D-03 0.000000000000D+00 0.185859644754D-03 0.250277753667D-02 0.000000000000D+00  5 -2 1 25 -24 21 2 0.49115331D-01 0.71510978D-02 0.13263346D+05 0.13263346D+05 0.13263346D+05 0.12539610D+01  1  2  6  1  5  1       -2 0.313429953655D+00 0.100000000000D+01
0.769984999543D-05 0.000000000000D+00 0.000000000000D+00 0.250277753667D-02 0.000000000000D+00  5 21 1 25 -24 2 2 0.61370716D-01 0.71510978D-02 0.18090035D+05 0.18090035D+05 0.18090035D+05 0.12386540D+01  1  2 12  3  5  1       -2 0.312852239193D-01 0.100000000000D+01
-.167655274391D-04 0.000000000000D+00 -.720748195938D-05 0.250277753667D-02 0.000000000000D+00  5 21 1 25 -24 2 2 0.65317749D-01 0.71510978D-02 0.13263346D+05 0.13263346D+05 0.13263346D+05 0.12539610D+01  1  2  5  3  5  1       -2 -.610434867303D-01 0.100000000000D+01
  </mgrwgt>
  </event>
  <event>
  5     66 0.46019439E-03 0.11798810E+03 0.75467711E-02 0.11791870E+00
       -4 -1    0    0    0  501 0.00000000E+00 0.00000000E+00 0.25770614E+03 0.25771080E+03 0.15500000E+01 0.0000E+00 0.9000E+01
       21 -1    0    0  501  502 0.00000000E+00 0.00000000E+00 -.12401592E+03 0.12401819E+03 0.75000000E+00 0.0000E+00 0.9000E+01
       25  1    1    2    0    0 0.20520799E+02 -.47118419E+02 0.20795381E+02 0.13674318E+03 0.12500000E+03 0.0000E+00 0.9000E+01
      -24  1    1    2    0    0 -.82765197E+02 -.12532515E+02 0.19191502E+02 0.11765488E+03 0.80419002E+02 0.0000E+00 0.9000E+01
       -3  1    1    2    0  502 0.62244398E+02 0.59650934E+02 0.93703335E+02 0.12733092E+03 0.50000000E+00 0.0000E+00 0.9000E+01
#aMCatNLO 2  0  0  2  2 0.86212523D+02 0.00000000D+00  -5  5  0 0.00000000D+00 0.00000000D+00 0.00000000D+00 0.00000000D+00 0.00000000D+00
  <mgrwgt>
 0.1741986285D-01    1    2    0
 0.117990278358815D+03 0.000000000000000D+00 0.000000000000000D+00 0.117990278358815D+03
 0.117990278358815D+03 0.000000000000000D+00 0.000000000000000D+00 -.117990278358815D+03
 0.137393961808438D+03 0.553402736314113D+02 -.137497264891978D+02 -.707020007730546D+00
 0.985865949091918D+02 -.553402736314113D+02 0.137497264891978D+02 0.707020007730546D+00
 0.000000000000000D+00 0.000000000000000D+00 0.000000000000000D+00 0.000000000000000D+00
 0.219935334412236D+03 0.000000000000000D+00 0.000000000000000D+00 0.219935334412236D+03
 0.145318915017020D+03 0.000000000000000D+00 0.000000000000000D+00 -.145318915017020D+03
 0.135154535624163D+03 0.205207992068031D+02 -.471184191416255D+02 -.707020007730546D+00
 0.116081254401979D+03 -.827651971194754D+02 -.125325152164037D+02 0.707020007730546D+00
 0.114018459403114D+03 0.622443979126723D+02 0.596509343580291D+02 0.746164193952152D+02
0.180560325544D-04 0.000000000000D+00 0.000000000000D+00 0.282275216168D-02 0.183538448889D-06  5 -4 21 25 -24 -3 2 0.39647494D-01 0.19079839D-01 0.28467166D+05 0.28467166D+05 0.28467166D+05 0.12172962D+01  1  2  1  4  5  2        3 0.174198628469D-01 0.100000000000D+01
  </mgrwgt>
  </event>
  <event>
  4     66 0.46019439E-03 0.87710470E+02 0.75467711E-02 0.11897841E+00
       -2 -1    0    0    0  501 0.00000000E+00 0.00000000E+00 0.19921976E+02 0.19924546E+02 0.32000000E+00 0.0000E+00 0.9000E+01
        1 -1    0    0  501    0 0.00000000E+00 0.00000000E+00 -.12731113E+04 0.12731114E+04 0.32000000E+00 0.0000E+00 0.9000E+01
       25  1    1    2    0    0 0.74315446E+02 -.92756784E+02 -.76419019E+03 0.78341448E+03 0.12500000E+03 0.0000E+00 0.9000E+01
      -24  1    1    2    0    0 -.74315446E+02 0.92756784E+02 -.48899918E+03 0.50962145E+03 0.80419002E+02 0.0000E+00 0.9000E+01
#aMCatNLO 1  0  0  2  1 0.20805513D+01 0.00000000D+00  -5  5  0 0.00000000D+00 0.00000000D+00 0.00000000D+00 0.00000000D+00 0.00000000D+00
  <mgrwgt>
 0.5046915899D+00   11    2    0
 0.159262616415781D+03 0.000000000000000D+00 0.000000000000000D+00 0.159262616415781D+03
 0.159262616415781D+03 0.000000000000000D+00 0.000000000000000D+00 -.159262616415781D+03
 0.173637904621711D+03 0.743154459202019D+02 -.927567844906161D+02 -.199628492470720D+02
 0.144887328209850D+03 -.743154459202019D+02 0.927567844906161D+02 0.199628492470720D+02
 0.000000000000000D+00 0.000000000000000D+00 -.000000000000000D+00 -.000000000000000D+00
 0.159571858235934D+03 0.000000000000000D+00 0.000000000000000D+00 0.159571858235934D+03
 0.162804327595622D+03 0.000000000000000D+00 0.000000000000000D+00 -.162804327595622D+03
 0.172972375199875D+03 0.741530747762187D+02 -.916365032803925D+02 -.199628492470720D+02
 0.145559652458723D+03 -.744515071141801D+02 0.936955399573514D+02 0.199628492470720D+02
 0.384415817295804D+01 0.298432337961468D+00 -.205903667695897D+01 -.323246935968721D+01
0.411919057486D-03 0.000000000000D+00 0.000000000000D+00 0.230847921638D-02 0.000000000000D+00  5 -2 1 25 -24 21 0 0.30651201D-02 0.19586348D+00 0.24962739D+05 0.24962739D+05 0.24962739D+05 0.12233671D+01  1  2  2  2  5  2        1 0.149568180949D+00 0.100000000000D+01
-.228826181292D-04 0.000000000000D+00 -.158187764153D-05 0.230847921638D-02 0.000000000000D+00  5 -2 1 25 -24 21 2 0.30651201D-02 0.19586348D+00 0.24962739D+05 0.24962739D+05 0.24962739D+05 0.12233671D+01  1  2  3  2  5  2        1 -.124350241221D-01 0.100000000000D+01
0.284407492203D-04 0.000000000000D+00 0.000000000000D+00 0.230847921638D-02 0.000000000000D+00  5 -2 1 25 -24 21 2 0.30651201D-02 0.19586348D+00 0.24962739D+05 0.24962739D+05 0.24962739D+05 0.12233671D+01  1  2 15  2  5  2        1 0.154554605862D-01 0.100000000000D+01
0.216866514396D-05 0.000000000000D+00 0.000000000000D+00 0.230847921638D-02 0.000000000000D+00  5 -2 1 25 -24 21 2 0.30651201D-02 0.20040693D+00 0.25293936D+05 0.25293936D+05 0.25293936D+05 0.12227538D+01  1  2 12  2  5  2        1 0.112476027492D-02 0.100000000000D+01
-.158989628717D-01 0.000000000000D+00 0.000000000000D+00 0.230847921638D-02 0.000000000000D+00  5 -2 1 25 -24 21 2 0.30651201D-02 0.19586348D+00 0.24962739D+05 0.24962739D+05 0.24962739D+05 0.12233671D+01  1  2  4  2  5  2        1 -.863991986011D+01 0.100000000000D+01
-.316901703597D-01 0.000000000000D+00 -.243429358161D-02 0.230847921638D-02 0.000000000000D+00  5 -2 1 25 -24 21 2 0.30651201D-02 0.20038961D+00 0.24962739D+05 0.24962739D+05 0.24962739D+05 0.12233671D+01  1  2  5  2  5  2        1 -.164527960928D+02 0.100000000000D+01
0.317381356248D-01 0.000000000000D+00 0.243365846417D-02 0.230847921638D-02 0.000000000000D+00  5 -2 1 25 -24 21 2 0.30651201D-02 0.19586348D+00 0.24962739D+05 0.24962739D+05 0.24962739D+05 0.12233671D+01  1  2  6  2  5  2        1 0.172473481773D+02 0.100000000000D+01
0.159000620121D-01 0.000000000000D+00 0.000000000000D+00 0.230847921638D-02 0.425339955390D-02  5 -2 1 25 -24 21 2 0.30710717D-02 0.20021913D+00 0.25293936D+05 0.25293936D+05 0.25293936D+05 0.12227538D+01  1  2 11  2  5  2        1 0.823839346295D+01 0.100000000000D+01
0.102935254380D-06 0.000000000000D+00 0.000000000000D+00 0.230847921638D-02 0.000000000000D+00  5 -2 21 25 -24 -1 2 0.30651201D-02 0.20040693D+00 0.25293936D+05 0.25293936D+05 0.25293936D+05 0.12227538D+01  1  2 12  4  5  2        1 0.659540609694D-04 0.100000000000D+01
-.130749183581D-03 0.000000000000D+00 -.100791144332D-04 0.230847921638D-02 0.000000000000D+00  5 -2 21 25 -24 -1 2 0.30651201D-02 0.20038961D+00 0.24962739D+05 0.24962739D+05 0.24962739D+05 0.12233671D+01  1  2  5  4  5  2        1 -.839187919407D-01 0.100000000000D+01
0.652538161751D-04 0.000000000000D+00 0.000000000000D+00 0.230847921638D-02 0.170104528713D-04  5 -2 21 25 -24 -1 2 0.30710717D-02 0.20021913D+00 0.25293936D+05 0.25293936D+05 0.25293936D+05 0.12227538D+01  1  2 11  4  5  2        1 0.418053627521D-01 0.100000000000D+01
  </mgrwgt>
  </event>
  <event>
  4     66 0.46019439E-03 0.14679100E+03 0.75467711E-02 0.11920315E+00
       -2 -1    0    0    0  501 0.00000000E+00 0.00000000E+00 0.10500827E+02 0.10505702E+02 0.32000000E+00 0.0000E+00 0.9000E+01
        1 -1    0    0  501    0 0.00000000E+00 0.00000000E+00 -.22367642E+04 0.22367642E+04 0.32000000E+00 0.0000E+00 0.9000E+01
       25  1    1    2    0    0 0.78804934E+02 -.67338892E+02 -.15432984E+04 0.15518182E+04 0.12500000E+03 0.0000E+00 0.9000E+01
      -24  1    1    2    0    0 -.78804934E+02 0.67338892E+02 -.68296490E+03 0.69545166E+03 0.80419002E+02 0.0000E+00 0.9000E+01
#aMCatNLO 1  0  0  1  1 0.19856486D+02 0.00000000D+00  -5  5  0 0.00000000D+00 0.00000000D+00 0.00000000D+00 0.00000000D+00 0.00000000D+00
  <mgrwgt>
 0.2724209630D+00    4    2    0
 0.153275495274579D+03 0.000000000000000D+00 0.000000000000000D+00 0.153275495274579D+03
 0.153275495274579D+03 0.000000000000000D+00 0.000000000000000D+00 -.153275495274579D+03
 0.168212299147280D+03 0.788049340123604D+02 -.673388924042087D+02 -.438820410816975D+02
 0.138338691401879D+03 -.788049340123604D+02 0.673388924042087D+02 0.438820410816975D+02
 0.000000000000000D+00 0.000000000000000D+00 0.000000000000000D+00 -.000000000000000D+00
 0.155533634617206D+03 0.000000000000000D+00 0.000000000000000D+00 0.155533634617206D+03
 0.204486501735711D+03 0.000000000000000D+00 0.000000000000000D+00 -.204486501735711D+03
 0.165264632043357D+03 0.686695468607868D+02 -.710370213963441D+02 -.438820410816975D+02
 0.141928775841881D+03 -.873231222911250D+02 0.642308355966032D+02 0.438820410816975D+02
 0.528267284676788D+02 0.186535754303382D+02 0.680618579974090D+01 -.489528671185044D+02
0.127868370686D-02 0.000000000000D+00 0.000000000000D+00 0.220471751162D-02 0.000000000000D+00  5 -2 1 25 -24 21 0 0.16158886D-02 0.34411794D+00 0.21547597D+05 0.21547597D+05 0.21547597D+05 0.12302784D+01  1  2  2  1  5  1       -2 0.282026986204D+00 0.100000000000D+01
-.708765905810D-04 0.000000000000D+00 -.491048211951D-05 0.220471751162D-02 0.000000000000D+00  5 -2 1 25 -24 21 2 0.16158886D-02 0.34411794D+00 0.21547597D+05 0.21547597D+05 0.21547597D+05 0.12302784D+01  1  2  3  1  5  1       -2 -.236612192742D-01 0.100000000000D+01
0.881408200790D-04 0.000000000000D+00 0.000000000000D+00 0.220471751162D-02 0.000000000000D+00  5 -2 1 25 -24 21 2 0.16158886D-02 0.34411794D+00 0.21547597D+05 0.21547597D+05 0.21547597D+05 0.12302784D+01  1  2 15  1  5  1       -2 0.294246556416D-01 0.100000000000D+01
-.460388318500D-04 0.000000000000D+00 0.000000000000D+00 0.220471751162D-02 0.000000000000D+00  5 -2 1 25 -24 21 2 0.16158886D-02 0.34411794D+00 0.21547597D+05 0.21547597D+05 0.21547597D+05 0.12302784D+01  1  2  4  1  5  1       -2 -.153694596001D-01 0.100000000000D+01
  </mgrwgt>
  </event>
  <event>
  4     66 0.46019439E-03 0.11646729E+03 0.75467711E-02 0.11260470E+00
       -2 -1    0    0    0  501 0.00000000E+00 0.00000000E+00 0.19167214E+03 0.19167241E+03 0.32000000E+00 0.0000E+00 0.9000E+01
        1 -1    0    0  501    0 0.00000000E+00 0.00000000E+00 -.91595039E+02 0.91595598E+02 0.32000000E+00 0.0000E+00 0.9000E+01
       25  1    1    2    0    0 0.46018883E+02 -.28057053E+02 -.10223920E+02 0.13650811E+03 0.12500000E+03 0.0000E+00 0.9000E+01
      -24  1    1    2    0    0 -.46018883E+02 0.28057053E+02 0.11030103E+03 0.14675990E+03 0.80419002E+02 0.0000E+00 0.9000E+01
#aMCatNLO 1  0  0  2  1 0.17179357D+03 0.00000000D+00  -5  5  0 0.00000000D+00 0.00000000D+00 0.00000000D+00 0.00000000D+00 0.00000000D+00
  <mgrwgt>
 0.1871147344D+00    5    2    0
 0.132500319153110D+03 0.000000000000000D+00 0.000000000000000D+00 0.132500319153110D+03
 0.132500319153110D+03 0.000000000000000D+00 0.000000000000000D+00 -.132500319153110D+03
 0.149779115355569D+03 0.460188827441930D+02 -.280570528668969D+02 -.624807779408783D+02
 0.115221522950652D+03 -.460188827441930D+02 0.280570528668969D+02 0.624807779408783D+02
 0.000000000000000D+00 0.000000000000000D+00 -.000000000000000D+00 -.000000000000000D+00
 0.227534277565623D+03 0.000000000000000D+00 0.000000000000000D+00 0.227534277565623D+03
 0.263874695801162D+03 0.000000000000000D+00 0.000000000000000D+00 -.263874695801162D+03
 0.147303727009509D+03 -.361451207391184D+00 0.465769227388343D+02 -.624807779408783D+02
 0.168510094301092D+03 -.903148341899094D+02 0.993368966705945D+02 0.624807779408783D+02
 0.175595152056183D+03 0.906762853973006D+02 -.145913819409429D+03 -.363404182355394D+02
0.428909711834D-03 0.000000000000D+00 0.000000000000D+00 0.207595905982D-02 0.000000000000D+00  5 -2 1 25 -24 21 0 0.29488086D-01 0.14091608D-01 0.13564630D+05 0.13564630D+05 0.13564630D+05 0.12528334D+01  1  2  2  2  5  2        1 0.152462487658D+00 0.100000000000D+01
-.233463881898D-04 0.000000000000D+00 -.164712622796D-05 0.207595905982D-02 0.000000000000D+00  5 -2 1 25 -24 21 2 0.29488086D-01 0.14091608D-01 0.13564630D+05 0.13564630D+05 0.13564630D+05 0.12528334D+01  1  2  3  2  5  2        1 -.130257728259D-01 0.100000000000D+01
0.293571167405D-04 0.000000000000D+00 0.000000000000D+00 0.207595905982D-02 0.000000000000D+00  5 -2 1 25 -24 21 2 0.29488086D-01 0.14091608D-01 0.13564630D+05 0.13564630D+05 0.13564630D+05 0.12528334D+01  1  2 15  2  5  2        1 0.163793701354D-01 0.100000000000D+01
0.130844513769D-03 0.000000000000D+00 -.181649189070D-03 0.207595905982D-02 0.000000000000D+00  5 -2 1 25 -24 21 2 0.29488086D-01 0.46673873D-01 0.13564630D+05 0.13564630D+05 0.13564630D+05 0.12528334D+01  1  2  5  2  5  2        1 0.162938596521D-01 0.100000000000D+01
0.252700858987D-04 0.000000000000D+00 -.252098531640D-04 0.207595905982D-02 0.000000000000D+00  5 -2 21 25 -24 -1 2 0.29488086D-01 0.46673873D-01 0.13564630D+05 0.13564630D+05 0.13564630D+05 0.12528334D+01  1  2  5  4  5  2        1 0.150047897532D-01 0.100000000000D+01
  </mgrwgt>
  </event>
  <event>
  4     66 0.46019439E-03 0.14890197E+03 0.75467711E-02 0.10481827E+00
       -2 -1    0    0    0  501 0.00000000E+00 0.00000000E+00 0.26620700E+03 0.26620720E+03 0.32000000E+00 0.0000E+00 0.9000E+01
        1 -1    0    0  501    0 0.00000000E+00 0.00000000E+00 -.47280624E+03 0.47280635E+03 0.32000000E+00 0.0000E+00 0.9000E+01
       25  1    1    2    0    0 0.86424419E+02 -.32506805E+03 -.61963842E+02 0.36414686E+03 0.12500000E+03 0.0000E+00 0.9000E+01
      -24  1    1    2    0    0 -.86424419E+02 0.32506805E+03 -.14463540E+03 0.37486669E+03 0.80419002E+02 0.0000E+00 0.9000E+01
#aMCatNLO 1  0  0  1  2 0.67212776D+02 0.00000000D+00  -5  5  0 0.00000000D+00 0.00000000D+00 0.00000000D+00 0.00000000D+00 0.00000000D+00
  <mgrwgt>
 0.3643044117D+00    9    2    0
 0.354773793908919D+03 0.000000000000000D+00 0.000000000000000D+00 0.354773793908919D+03
 0.354773793908919D+03 0.000000000000000D+00 0.000000000000000D+00 -.354773793908919D+03
 0.361227049619218D+03 0.864244185222715D+02 -.325068052787752D+03 0.414917138290479D+02
 0.348320538198619D+03 -.864244185222715D+02 0.325068052787752D+03 -.414917138290479D+02
 0.000000000000000D+00 0.000000000000000D+00 -.000000000000000D+00 0.000000000000000D+00
 0.420029734963715D+03 0.000000000000000D+00 0.000000000000000D+00 0.420029734963715D+03
 0.374100728396731D+03 0.000000000000000D+00 0.000000000000000D+00 -.374100728396731D+03
 0.336444764045399D+03 0.615646956636756D+02 -.303411115789998D+03 0.414917138290479D+02
 0.376279121259805D+03 -.112243645219924D+03 0.347560876585603D+03 -.414917138290479D+02
 0.814065780552415D+02 0.506789495562486D+02 -.441497607956056D+02 0.459290065669848D+02
0.107718086204D-01 0.000000000000D+00 0.000000000000D+00 0.194961714347D-02 0.000000000000D+00  5 -2 1 25 -24 21 0 0.40954947D-01 0.72739445D-01 0.12414230D+06 0.12414230D+06 0.12414230D+06 0.11550413D+01  1  2  2  1  5  1       -2 0.262778593885D+00 0.100000000000D+01
-.598399286361D-03 0.000000000000D+00 -.413665813848D-04 0.194961714347D-02 0.000000000000D+00  5 -2 1 25 -24 21 2 0.40954947D-01 0.72739445D-01 0.12414230D+06 0.12414230D+06 0.12414230D+06 0.11550413D+01  1  2  3  1  5  1       -2 -.194754488379D-01 0.100000000000D+01
0.737895721947D-03 0.000000000000D+00 0.000000000000D+00 0.194961714347D-02 0.000000000000D+00  5 -2 1 25 -24 21 2 0.40954947D-01 0.72739445D-01 0.12414230D+06 0.12414230D+06 0.12414230D+06 0.11550413D+01  1  2 15  1  5  1       -2 0.240154871639D-01 0.100000000000D+01
0.142790431942D-01 0.000000000000D+00 0.000000000000D+00 0.194961714347D-02 0.000000000000D+00  5 -2 1 25 -24 21 2 0.49455183D-01 0.72739445D-01 0.15018484D+06 0.15018484D+06 0.15018484D+06 0.11476869D+01  1  2 12  1  5  1       -2 0.315544068003D+00 0.100000000000D+01
-.143810475050D-01 0.000000000000D+00 0.000000000000D+00 0.194961714347D-02 0.000000000000D+00  5 -2 1 25 -24 21 2 0.40954947D-01 0.72739445D-01 0.12414230D+06 0.12414230D+06 0.12414230D+06 0.11550413D+01  1  2  4  1  5  1       -2 -.468044266266D+00 0.100000000000D+01
-.279680066626D-01 0.000000000000D+00 -.627348600322D-02 0.194961714347D-02 0.000000000000D+00  5 -2 1 25 -24 21 2 0.50678023D-01 0.72739445D-01 0.12414230D+06 0.12414230D+06 0.12414230D+06 0.11550413D+01  1  2  5  1  5  1       -2 -.597631150966D+00 0.100000000000D+01
0.287884319487D-01 0.000000000000D+00 0.613379116301D-02 0.194961714347D-02 0.000000000000D+00  5 -2 1 25 -24 21 2 0.40954947D-01 0.72739445D-01 0.12414230D+06 0.12414230D+06 0.12414230D+06 0.11550413D+01  1  2  6  1  5  1       -2 0.936945692145D+00 0.100000000000D+01
0.390528338533D-03 0.000000000000D+00 0.000000000000D+00 0.194961714347D-02 0.000000000000D+00  5 21 1 25 -24 2 2 0.49455183D-01 0.72739445D-01 0.15018484D+06 0.15018484D+06 0.15018484D+06 0.11476869D+01  1  2 12  3  5  1       -2 0.101463626408D+00 0.100000000000D+01
-.759307227928D-03 0.000000000000D+00 -.188371070430D-03 0.194961714347D-02 0.000000000000D+00  5 21 1 25 -24 2 2 0.50678023D-01 0.72739445D-01 0.12414230D+06 0.12414230D+06 0.12414230D+06 0.11550413D+01  1  2  5  3  5  1       -2 -.191292189847D+00 0.100000000000D+01
  </mgrwgt>
  </event>
  <event>
  4     66 0.46019439E-03 0.10685199E+03 0.75467711E-02 0.99283195E-01
       -2 -1    0    0    0  501 0.00000000E+00 0.00000000E+00 0.68863780E+03 0.68863787E+03 0.32000000E+00 0.0000E+00 0.9000E+01
        1 -1    0    0  501    0 0.00000000E+00 0.00000000E+00 -.26210971E+02 0.26212924E+02 0.32000000E+00 0.0000E+00 0.9000E+01
       25  1    1    2    0    0 0.14060233E+02 -.25152264E+02 0.58712170E+03 0.60097189E+03 0.12500000E+03 0.0000E+00 0.9000E+01
      -24  1    1    2    0    0 -.14060233E+02 0.25152264E+02 0.75305130E+02 0.11387891E+03 0.80419002E+02 0.0000E+00 0.9000E+01
#aMCatNLO 1  0  0  1  2 0.56943607D+03 0.00000000D+00  -5  5  0 0.00000000D+00 0.00000000D+00 0.00000000D+00 0.00000000D+00 0.00000000D+00
  <mgrwgt>
 0.1583313218D+00    5    2    0
 0.134352484213818D+03 0.000000000000000D+00 0.000000000000000D+00 0.134352484213818D+03
 0.134352484213818D+03 0.000000000000000D+00 0.000000000000000D+00 -.134352484213818D+03
 0.151393077283640D+03 0.140602330944780D+02 -.251522638476814D+02 0.804023464712049D+02
 0.117311891143995D+03 -.140602330944780D+02 0.251522638476814D+02 -.804023464712049D+02
 0.000000000000000D+00 0.000000000000000D+00 -.000000000000000D+00 0.000000000000000D+00
 0.874504029534944D+03 0.000000000000000D+00 0.000000000000000D+00 0.874504029534944D+03
 0.459666143447603D+03 0.000000000000000D+00 0.000000000000000D+00 -.459666143447603D+03
 0.301230213748697D+03 -.229188036236692D+03 0.126976172579658D+03 0.804023464712049D+02
 0.328420325898969D+03 -.253605109659613D+03 0.174964583689598D+03 -.804023464712049D+02
 0.704519633334881D+03 0.482793145896305D+03 -.301940756269256D+03 0.414837886087341D+03
0.110050231033D-02 0.000000000000D+00 0.000000000000D+00 0.174495030135D-02 0.000000000000D+00  5 -2 1 25 -24 21 0 0.10594443D+00 0.40326130D-02 0.11417347D+05 0.11417347D+05 0.11417347D+05 0.12615654D+01  1  2  2  1  5  1       -2 0.154243270980D+00 0.100000000000D+01
-.572399982937D-04 0.000000000000D+00 -.422621864059D-05 0.174495030135D-02 0.000000000000D+00  5 -2 1 25 -24 21 2 0.10594443D+00 0.40326130D-02 0.11417347D+05 0.11417347D+05 0.11417347D+05 0.12615654D+01  1  2  3  1  5  1       -2 -.127683394393D-01 0.100000000000D+01
0.754348317728D-04 0.000000000000D+00 0.000000000000D+00 0.174495030135D-02 0.000000000000D+00  5 -2 1 25 -24 21 2 0.10594443D+00 0.40326130D-02 0.11417347D+05 0.11417347D+05 0.11417347D+05 0.12615654D+01  1  2 15  1  5  1       -2 0.168270015083D-01 0.100000000000D+01
0.112072530126D-02 0.000000000000D+00 -.514179601271D-03 0.174495030135D-02 0.000000000000D+00  5 -2 1 25 -24 21 2 0.83531315D+00 0.40326130D-02 0.11417347D+05 0.11417347D+05 0.11417347D+05 0.12615654D+01  1  2  5  1  5  1       -2 0.278971184222D-04 0.100000000000D+01
0.221072718834D-03 0.000000000000D+00 -.128996161670D-03 0.174495030135D-02 0.000000000000D+00  5 21 1 25 -24 2 2 0.83531315D+00 0.40326130D-02 0.11417347D+05 0.11417347D+05 0.11417347D+05 0.12615654D+01  1  2  5  3  5  1       -2 0.149168199710D-05 0.100000000000D+01
  </mgrwgt>
  </event>
  <event>
  4     66 0.46019439E-03 0.11379648E+03 0.75467711E-02 0.11598402E+00
       -2 -1    0    0    0  501 0.00000000E+00 0.00000000E+00 0.94799501E+02 0.94800041E+02 0.32000000E+00 0.0000E+00 0.9000E+01
        1 -1    0    0  501    0 0.00000000E+00 0.00000000E+00 -.16767942E+03 0.16767972E+03 0.32000000E+00 0.0000E+00 0.9000E+01
       25  1    1    2    0    0 0.23434853E+02 0.41941679E+02 0.14090140E+02 0.13465448E+03 0.12500000E+03 0.0000E+00 0.9000E+01
      -24  1    1    2    0    0 -.23434853E+02 -.41941679E+02 -.86970055E+02 0.12782528E+03 0.80419002E+02 0.0000E+00 0.9000E+01
#aMCatNLO 1  0  0  2  1 0.11937789D+03 0.00000000D+00  -5  5  0 0.00000000D+00 0.00000000D+00 0.00000000D+00 0.00000000D+00 0.00000000D+00
  <mgrwgt>
 0.1586571744D+00    5    2    0
 0.126079482715391D+03 0.000000000000000D+00 0.000000000000000D+00 0.126079482715391D+03
 0.126079482715391D+03 0.000000000000000D+00 0.000000000000000D+00 -.126079482715391D+03
 0.144238234338567D+03 0.234348533185196D+02 0.419416786246014D+02 0.535851797533382D+02
 0.107920731092214D+03 -.234348533185196D+02 -.419416786246014D+02 -.535851797533382D+02
 0.000000000000000D+00 0.000000000000000D+00 0.000000000000000D+00 -.000000000000000D+00
 0.197692984256733D+03 0.000000000000000D+00 0.000000000000000D+00 0.197692984256733D+03
 0.200712742566917D+03 0.000000000000000D+00 0.000000000000000D+00 -.200712742566917D+03
 0.137770289445904D+03 0.944317925840697D+01 -.198773119486585D+02 0.535851797533382D+02
 0.141219359931237D+03 -.357957809320801D+02 -.965555914656568D+02 -.535851797533382D+02
 0.119416077446508D+03 0.263526016736731D+02 0.116432903414315D+03 -.301975831018451D+01
0.273894303559D-03 0.000000000000D+00 0.000000000000D+00 0.225392413895D-02 0.000000000000D+00  5 -2 1 25 -24 21 0 0.14584604D-01 0.25796898D-01 0.12949640D+05 0.12949640D+05 0.12949640D+05 0.12551660D+01  1  2  2  2  5  2        1 0.149061244073D+00 0.100000000000D+01
-.150219720647D-04 0.000000000000D+00 -.105182624369D-05 0.225392413895D-02 0.000000000000D+00  5 -2 1 25 -24 21 2 0.14584604D-01 0.25796898D-01 0.12949640D+05 0.12949640D+05 0.12949640D+05 0.12551660D+01  1  2  3  2  5  2        1 -.128798558667D-01 0.100000000000D+01
0.189416557945D-04 0.000000000000D+00 0.000000000000D+00 0.225392413895D-02 0.000000000000D+00  5 -2 1 25 -24 21 2 0.14584604D-01 0.25796898D-01 0.12949640D+05 0.12949640D+05 0.12949640D+05 0.12551660D+01  1  2 15  2  5  2        1 0.162405971373D-01 0.100000000000D+01
-.272179909621D-05 0.000000000000D+00 -.106901076096D-03 0.225392413895D-02 0.000000000000D+00  5 -2 1 25 -24 21 2 0.14584604D-01 0.62060961D-01 0.12949640D+05 0.12949640D+05 0.12949640D+05 0.12551660D+01  1  2  5  2  5  2        1 -.788554875396D-03 0.100000000000D+01
0.645093244562D-05 0.000000000000D+00 -.102708309398D-04 0.225392413895D-02 0.000000000000D+00  5 -2 21 25 -24 -1 2 0.14584604D-01 0.62060961D-01 0.12949640D+05 0.12949640D+05 0.12949640D+05 0.12551660D+01  1  2  5  4  5  2        1 0.702374391655D-02 0.100000000000D+01
  </mgrwgt>
  </event>
  <event>
  4     66 0.46019439E-03 0.37500358E+02 0.75467711E-02 0.12384386E+00
       -2 -1    0    0    0  501 0.00000000E+00 0.00000000E+00 0.88070147E+02 0.88070729E+02 0.32000000E+00 0.0000E+00 0.9000E+01
        1 -1    0    0  501    0 0.00000000E+00 0.00000000E+00 -.17239791E+03 0.17239821E+03 0.32000000E+00 0.0000E+00 0.9000E+01
       25  1    1    2    0    0 0.56769135E+02 -.65258188E+01 -.11650080E+02 0.13793493E+03 0.12500000E+03 0.0000E+00 0.9000E+01
      -24  1    1    2    0    0 -.56769135E+02 0.65258188E+01 -.72677686E+02 0.12253401E+03 0.80419002E+02 0.0000E+00 0.9000E+01
#aMCatNLO 1  0  0  1  2 0.94937729D+01 0.00000000D+00  -5  5  0 0.00000000D+00 0.00000000D+00 0.00000000D+00 0.00000000D+00 0.00000000D+00
  <mgrwgt>
 0.2549527903D+00    8    2    0
 0.123220225743259D+03 0.000000000000000D+00 0.000000000000000D+00 0.123220225743259D+03
 0.123220225743259D+03 0.000000000000000D+00 0.000000000000000D+00 -.123220225743259D+03
 0.141800341122836D+03 0.567691350655692D+02 -.652581876281562D+01 0.348857526210170D+02
 0.104640110363681D+03 -.567691350655692D+02 0.652581876281562D+01 -.348857526210170D+02
 0.000000000000000D+00 -.000000000000000D+00 0.000000000000000D+00 -.000000000000000D+00
 0.127146791195486D+03 0.000000000000000D+00 0.000000000000000D+00 0.127146791195486D+03
 0.129186972774588D+03 0.000000000000000D+00 0.000000000000000D+00 -.129186972774588D+03
 0.143341316953868D+03 0.598513831848550D+02 -.110692972222300D+02 0.348857526210170D+02
 0.103281933882938D+03 -.545215948984821D+02 0.321276610104778D+01 -.348857526210170D+02
 0.971051313326792D+01 -.532978828637295D+01 0.785653112118223D+01 -.204018157910160D+01
0.209534032633D-03 0.000000000000D+00 0.000000000000D+00 0.253477210817D-02 0.000000000000D+00  5 -2 1 25 -24 21 0 0.13549321D-01 0.26522823D-01 0.13935293D+05 0.13935293D+05 0.13935293D+05 0.12514843D+01  1  2  2  1  5  1       -2 0.124403138542D+00 0.100000000000D+01
-.116147517389D-04 0.000000000000D+00 -.804665856889D-06 0.253477210817D-02 0.000000000000D+00  5 -2 1 25 -24 21 2 0.13549321D-01 0.26522823D-01 0.13935293D+05 0.13935293D+05 0.13935293D+05 0.12514843D+01  1  2  3  1  5  1       -2 -.108003418986D-01 0.100000000000D+01
0.144974139052D-04 0.000000000000D+00 0.000000000000D+00 0.253477210817D-02 0.000000000000D+00  5 -2 1 25 -24 21 2 0.13549321D-01 0.26522823D-01 0.13935293D+05 0.13935293D+05 0.13935293D+05 0.12514843D+01  1  2 15  1  5  1       -2 0.134808759017D-01 0.100000000000D+01
0.328939397400D-03 0.000000000000D+00 0.000000000000D+00 0.253477210817D-02 0.000000000000D+00  5 -2 1 25 -24 21 2 0.14296451D-01 0.26522823D-01 0.15096664D+05 0.15096664D+05 0.15096664D+05 0.12475046D+01  1  2 12  1  5  1       -2 0.279465262646D+00 0.100000000000D+01
-.208889611559D-03 0.000000000000D+00 0.000000000000D+00 0.253477210817D-02 0.000000000000D+00  5 -2 1 25 -24 21 2 0.13549321D-01 0.26522823D-01 0.13935293D+05 0.13935293D+05 0.13935293D+05 0.12514843D+01  1  2  4  1  5  1       -2 -.194242569673D+00 0.100000000000D+01
0.231750816939D-08 0.000000000000D+00 0.000000000000D+00 0.253477210817D-02 0.233772725642D-03  5 -2 1 25 -24 21 2 0.13981087D-01 0.27807150D-01 0.15096664D+05 0.15096664D+05 0.15096664D+05 0.12475046D+01  1  2 11  1  5  1       -2 0.192459333814D-05 0.100000000000D+01
0.337686185028D-05 0.000000000000D+00 0.000000000000D+00 0.253477210817D-02 0.000000000000D+00  5 21 1 25 -24 2 2 0.14296451D-01 0.26522823D-01 0.15096664D+05 0.15096664D+05 0.15096664D+05 0.12475046D+01  1  2 12  3  5  1       -2 0.426440298660D-01 0.100000000000D+01
0.379587786646D-10 0.000000000000D+00 0.000000000000D+00 0.253477210817D-02 0.134283958873D-05  5 21 1 25 -24 2 2 0.13981087D-01 0.27807150D-01 0.15096664D+05 0.15096664D+05 0.15096664D+05 0.12475046D+01  1  2 11  3  5  1       -2 0.470362626625D-06 0.100000000000D+01
  </mgrwgt>
  </event>
  <event>
  5     66 0.46019439E-03 0.11494986E+03 0.75467711E-02 0.11942133E+00
       -2 -1    0    0    0  501 0.00000000E+00 0.00000000E+00 0.89808288E+02 0.89808858E+02 0.32000000E+00 0.0000E+00 0.9000E+01
       21 -1    0    0  501  502 0.00000000E+00 0.00000000E+00 -.31768554E+03 0.31768643E+03 0.75000000E+00 0.0000E+00 0.9000E+01
       25  1    1    2    0    0 -.35407859E+01 0.12907273E+02 -.40509727E+02 0.13208018E+03 0.12500000E+03 0.0000E+00 0.9000E+01
      -24  1    1    2    0    0 -.16577722E+02 -.80013551E+02 -.58441975E+02 0.12868438E+03 0.80419002E+02 0.0000E+00 0.9000E+01
       -1  1    1    2    0  502 0.20118508E+02 0.67106278E+02 -.12892555E+03 0.14673073E+03 0.32000000E+00 0.0000E+00 0.9000E+01
#aMCatNLO 2  0  0  2  1 0.70057169D+02 0.00000000D+00  -5  5  0 0.00000000D+00 0.00000000D+00 0.00000000D+00 0.00000000D+00 0.00000000D+00
  <mgrwgt>
 0.3133379728D-01    2    2    0
 0.115432564077244D+03 0.000000000000000D+00 0.000000000000000D+00 0.115432564077244D+03
 0.115432564077244D+03 0.000000000000000D+00 0.000000000000000D+00 -.115432564077244D+03
 0.135266187541376D+03 0.759853512187429D+01 0.500630290245866D+02 0.103873423388183D+02
 0.955989406131119D+02 -.759853512187429D+01 -.500630290245866D+02 -.103873423388183D+02
 0.000000000000000D+00 0.000000000000000D+00 0.000000000000000D+00 -.000000000000000D+00
 0.133903747780037D+03 0.000000000000000D+00 0.000000000000000D+00 0.133903747780037D+03
 0.213070924452812D+03 0.000000000000000D+00 0.000000000000000D+00 -.213070924452812D+03
 0.126142902113056D+03 -.354078590723597D+01 0.129072734455962D+02 0.103873423388183D+02
 0.115117774969143D+03 -.165777222808724D+02 -.800135513684418D+02 -.103873423388183D+02
 0.105713995150649D+03 0.201185081881084D+02 0.671062779228456D+02 -.791671766727747D+02
-.620748505239D-05 0.000000000000D+00 0.000000000000D+00 0.285749432999D-02 0.000000000000D+00  5 -2 21 25 -24 -1 2 0.11910814D-01 0.49427648D-01 0.24090120D+05 0.24090120D+05 0.24090120D+05 0.12250276D+01  1  2 13  4  5  2        1 -.143484043934D-01 0.100000000000D+01
0.245301528141D-04 0.000000000000D+00 0.000000000000D+00 0.285749432999D-02 0.467033513420D-06  5 -2 21 25 -24 -1 2 0.13816748D-01 0.48874729D-01 0.24090120D+05 0.24090120D+05 0.24090120D+05 0.12250276D+01  1  2  1  4  5  2        1 0.456822016694D-01 0.100000000000D+01
  </mgrwgt>
  </event>
  <event>
  5     66 0.46019439E-03 0.10428854E+03 0.75467711E-02 0.12356752E+00
       21 -1    0    0  502  501 0.00000000E+00 0.00000000E+00 0.94919836E+02 0.94922799E+02 0.75000000E+00 0.0000E+00 0.9000E+01
        1 -1    0    0  501    0 0.00000000E+00 0.00000000E+00 -.18050626E+03 0.18050654E+03 0.32000000E+00 0.0000E+00 0.9000E+01
       25  1    1    2    0    0 0.98766339E+01 -.99861677E+01 -.46849070E+02 0.13422782E+03 0.12500000E+03 0.0000E+00 0.9000E+01
      -24  1    1    2    0    0 -.14798857E+02 -.27011963E+02 -.53142403E+02 0.10119280E+03 0.80419002E+02 0.0000E+00 0.9000E+01
        2  1    1    2  502    0 0.49222228E+01 0.36998131E+02 0.14405050E+02 0.40008722E+02 0.32000000E+00 0.0000E+00 0.9000E+01
#aMCatNLO 2  0  0  1  2 0.37324120D+02 0.00000000D+00  -5  5  0 0.00000000D+00 0.00000000D+00 0.00000000D+00 0.00000000D+00 0.00000000D+00
  <mgrwgt>
 0.3262853048D-01    2    2    0
 0.104918400802999D+03 0.000000000000000D+00 0.000000000000000D+00 0.104918400802999D+03
 0.104918400802999D+03 0.000000000000000D+00 0.000000000000000D+00 -.104918400802999D+03
 0.126739606557995D+03 0.128211901072833D+02 0.121467344369232D+02 0.112250522148942D+02
 0.830971950480031D+02 -.128211901072833D+02 -.121467344369232D+02 -.112250522148942D+02
 0.000000000000000D+00 0.000000000000000D+00 0.000000000000000D+00 0.000000000000000D+00
 0.149381177513146D+03 0.000000000000000D+00 0.000000000000000D+00 0.149381177513146D+03
 0.114699379346931D+03 0.000000000000000D+00 0.000000000000000D+00 -.114699379346931D+03
 0.126286472908933D+03 0.987663391375056D+01 -.998616768762307D+01 0.112250522148942D+02
 0.868439408446339D+02 -.147988566991339D+02 -.270119630946576D+02 -.112250522148942D+02
 0.509501431065093D+02 0.492222278538331D+01 0.369981307822807D+02 0.346817981662152D+02
-.681009125402D-05 0.000000000000D+00 0.000000000000D+00 0.313590321888D-02 0.000000000000D+00  5 21 1 25 -24 2 2 0.14922964D-01 0.25402215D-01 0.15528421D+05 0.15528421D+05 0.15528421D+05 0.12461120D+01  1  2 13  3  5  1       -2 -.838849979249D-01 0.100000000000D+01
0.101679158932D-04 0.000000000000D+00 0.000000000000D+00 0.313590321888D-02 0.993187784656D-06  5 21 1 25 -24 2 2 0.14603240D-01 0.27770327D-01 0.15528421D+05 0.15528421D+05 0.15528421D+05 0.12461120D+01  1  2  1  3  5  1       -2 0.116513528400D+00 0.100000000000D+01
  </mgrwgt>
  </event>
  <event>
  5     66 -.46019439E-03 0.10343275E+03 0.75467711E-02 0.12661640E+00
       -2 -1    0    0    0  501 0.00000000E+00 0.00000000E+00 0.36102959E+01 0.36244499E+01 0.32000000E+00 0.0000E+00 0.9000E+01
        1 -1    0    0  502    0 0.00000000E+00 0.00000000E+00 -.32909293E+04 0.32909293E+04 0.32000000E+00 0.0000E+00 0.9000E+01
       25  1    1    2    0    0 0.13967794E+02 -.80183237E+01 -.16208863E+04 0.16257788E+04 0.12500000E+03 0.0000E+00 0.9000E+01
      -24  1    1    2    0    0 -.85917051E+01 0.34027661E+01 -.14882375E+04 0.14904374E+04 0.80419002E+02 0.0000E+00 0.9000E+01
       21  1    1    2  502  501 -.53760888E+01 0.46155576E+01 -.17819515E+03 0.17833755E+03 0.75000000E+00 0.0000E+00 0.9000E+01
#aMCatNLO 2  0  0  2  1 0.70855983D+01 0.00000000D+00  -5  5  0 0.00000000D+00 0.00000000D+00 0.00000000D+00 0.00000000D+00 0.00000000D+00
  <mgrwgt>
 -.2700444792D-01    3    2    0
 0.105002608518973D+03 0.000000000000000D+00 0.000000000000000D+00 0.105002608518973D+03
 0.105002608518973D+03 0.000000000000000D+00 0.000000000000000D+00 -.105002608518973D+03
 0.126806314576368D+03 0.107165986411731D+02 -.522706049127019D+01 0.176825837655419D+02
 0.831989024615790D+02 -.107165986411731D+02 0.522706049127019D+01 -.176825837655419D+02
 0.000000000000000D+00 -.000000000000000D+00 0.000000000000000D+00 -.000000000000000D+00
 0.107154527549608D+03 0.000000000000000D+00 0.000000000000000D+00 0.107154527549608D+03
 0.111061600056978D+03 0.000000000000000D+00 0.000000000000000D+00 -.111061600056978D+03
 0.127267696409923D+03 0.139677938697638D+02 -.801832371975391D+01 0.176825837655419D+02
 0.828570210457068D+02 -.859170509503525D+01 0.340276610020474D+01 -.176825837655419D+02
 0.809141015095567D+01 -.537608877472860D+01 0.461555761954917D+01 -.390707250737009D+01
-.184898989515D-02 0.000000000000D+00 0.000000000000D+00 0.308904651133D-02 0.000000000000D+00  5 -2 1 25 -24 21 2 0.54525643D-03 0.51092272D+00 0.11456181D+05 0.11456181D+05 0.11456181D+05 0.12613915D+01  1  2 13  2  5  2        1 -.572436141071D+00 0.100000000000D+01
-.234292950184D-03 0.000000000000D+00 0.000000000000D+00 0.308904651133D-02 0.000000000000D+00  5 -2 1 25 -24 21 2 0.54525643D-03 0.47859997D+00 0.10698334D+05 0.10698334D+05 0.10698334D+05 0.12649106D+01  1  2  8  2  5  2        1 -.102526645977D+00 0.100000000000D+01
0.204804875106D-02 0.000000000000D+00 0.000000000000D+00 0.308904651133D-02 0.523037639720D-03  5 -2 1 25 -24 21 2 0.55643089D-03 0.50621674D+00 0.11456181D+05 0.11456181D+05 0.11456181D+05 0.12613915D+01  1  2  1  2  5  2        1 0.647958339131D+00 0.100000000000D+01
  </mgrwgt>
  </event>
  <event>
  4     66 0.46019439E-03 0.12049961E+03 0.75467711E-02 0.11377485E+00
       -2 -1    0    0    0  501 0.00000000E+00 0.00000000E+00 0.18728227E+02 0.18730961E+02 0.32000000E+00 0.0000E+00 0.9000E+01
        1 -1    0    0  501    0 0.00000000E+00 0.00000000E+00 -.77678436E+03 0.77678442E+03 0.32000000E+00 0.0000E+00 0.9000E+01
       25  1    1    2    0    0 -.45388541E+02 0.42129720E+02 -.42121127E+03 0.44371045E+03 0.12500000E+03 0.0000E+00 0.9000E+01
      -24  1    1    2    0    0 0.45388541E+02 -.42129720E+02 -.33684486E+03 0.35180493E+03 0.80419002E+02 0.0000E+00 0.9000E+01
#aMCatNLO 1  0  0  2  2 0.14734272D+03 0.00000000D+00  -5  5  0 0.00000000D+00 0.00000000D+00 0.00000000D+00 0.00000000D+00 0.00000000D+00
  <mgrwgt>
 0.1684271304D+00    5    2    0
 0.120618851755253D+03 0.000000000000000D+00 0.000000000000000D+00 0.120618851755253D+03
 0.120618851755253D+03 0.000000000000000D+00 0.000000000000000D+00 -.120618851755253D+03
 0.139599682513391D+03 -.453885409277019D+02 0.421297202502163D+02 0.529512813182355D+01
 0.101638020997116D+03 0.453885409277019D+02 -.421297202502163D+02 -.529512813182355D+01
 0.000000000000000D+00 0.000000000000000D+00 -.000000000000000D+00 -.000000000000000D+00
 0.214829572323018D+03 0.000000000000000D+00 0.000000000000000D+00 0.214829572323018D+03
 0.215189203842140D+03 0.000000000000000D+00 0.000000000000000D+00 -.215189203842140D+03
 0.194722645056800D+03 -.658305342931750D+02 0.133903737328946D+03 0.529512813182355D+01
 0.879529746949772D+02 0.337960819248627D+02 0.991444743393704D+01 -.529512813182355D+01
 0.147343156413381D+03 0.320344523683123D+02 -.143818184762883D+03 -.359631519121383D+00
0.180964854229D-03 0.000000000000D+00 0.000000000000D+00 0.276699193143D-02 0.000000000000D+00  5 -2 1 25 -24 21 0 0.28814811D-02 0.11950550D+00 0.14520156D+05 0.14520156D+05 0.14520156D+05 0.12494354D+01  1  2  2  2  5  2        1 0.164462341884D+00 0.100000000000D+01
-.100535910544D-04 0.000000000000D+00 -.694952689380D-06 0.276699193143D-02 0.000000000000D+00  5 -2 1 25 -24 21 2 0.28814811D-02 0.11950550D+00 0.14520156D+05 0.14520156D+05 0.14520156D+05 0.12494354D+01  1  2  3  2  5  2        1 -.142633353637D-01 0.100000000000D+01
0.125155056380D-04 0.000000000000D+00 0.000000000000D+00 0.276699193143D-02 0.000000000000D+00  5 -2 1 25 -24 21 2 0.28814811D-02 0.11950550D+00 0.14520156D+05 0.14520156D+05 0.14520156D+05 0.12494354D+01  1  2 15  2  5  2        1 0.177561284516D-01 0.100000000000D+01
-.967095087122D-06 0.000000000000D+00 -.640617930565D-04 0.276699193143D-02 0.000000000000D+00  5 -2 1 25 -24 21 2 0.28814811D-02 0.30813142D+00 0.14520156D+05 0.14520156D+05 0.14520156D+05 0.12494354D+01  1  2  5  2  5  2        1 -.202585741721D-03 0.100000000000D+01
0.378184596469D-05 0.000000000000D+00 -.671322484261D-05 0.276699193143D-02 0.000000000000D+00  5 -2 21 25 -24 -1 2 0.28814811D-02 0.30813142D+00 0.14520156D+05 0.14520156D+05 0.14520156D+05 0.12494354D+01  1  2  5  4  5  2        1 0.674581174398D-03 0.100000000000D+01
  </mgrwgt>
  </event>
  <event>
  5     66 -.46019439E-03 0.11006574E+03 0.75467711E-02 0.12526083E+00
       -2 -1    0    0    0  501 0.00000000E+00 0.00000000E+00 0.41894375E+03 0.41894387E+03 0.32000000E+00 0.0000E+00 0.9000E+01
        1 -1    0    0  502    0 0.00000000E+00 0.00000000E+00 -.37794669E+02 0.37796024E+02 0.32000000E+00 0.0000E+00 0.9000E+01
       25  1    1    2    0    0 -.16012948E+01 0.43718404E+02 0.30609609E+03 0.33351713E+03 0.12500000E+03 0.0000E+00 0.9000E+01
      -24  1    1    2    0    0 0.81031529E+00 -.35118302E+02 0.61598204E+02 0.10721710E+03 0.80419002E+02 0.0000E+00 0.9000E+01
       21  1    1    2  502  501 0.79097955E+00 -.86001013E+01 0.13454789E+02 0.16005662E+02 0.75000000E+00 0.0000E+00 0.9000E+01
#aMCatNLO 2  0  0  2  1 0.86363992D+01 0.00000000D+00  -5  5  0 0.00000000D+00 0.00000000D+00 0.00000000D+00 0.00000000D+00 0.00000000D+00
  <mgrwgt>
 -.1324921062D+00    3    2    0
 0.121421769037636D+03 0.000000000000000D+00 0.000000000000000D+00 0.121421769037636D+03
 0.121421769037636D+03 0.000000000000000D+00 0.000000000000000D+00 -.121421769037636D+03
 0.140277086577094D+03 -.114215145760604D+01 0.387262648533997D+02 0.505136904126974D+02
 0.102566451498178D+03 0.114215145760604D+01 -.387262648533997D+02 -.505136904126974D+02
 0.000000000000000D+00 0.000000000000000D+00 -.000000000000000D+00 0.000000000000000D+00
 0.125909873672888D+03 0.000000000000000D+00 0.000000000000000D+00 0.125909873672888D+03
 0.125725552617884D+03 0.000000000000000D+00 0.000000000000000D+00 -.125725552617884D+03
 0.141740946348635D+03 -.160129484357406D+01 0.437184035335322D+02 0.505136904126974D+02
 0.101256114076971D+03 0.810315291230430D+00 -.351183022598888D+02 -.505136904126974D+02
 0.863836586516613D+01 0.790979552343630D+00 -.860010127364346D+01 0.184321055003853D+00
-.103263017933D-02 0.000000000000D+00 0.000000000000D+00 0.234275280696D-02 0.000000000000D+00  5 -2 1 25 -24 21 2 0.62147520D-01 0.59140133D-02 0.13090457D+05 0.13090457D+05 0.13090457D+05 0.12546210D+01  1  2 13  2  5  2        1 -.437070994535D+00 0.100000000000D+01
-.162252557285D-03 0.000000000000D+00 0.000000000000D+00 0.234275280696D-02 0.000000000000D+00  5 -2 1 25 -24 21 2 0.62147520D-01 0.56149073D-02 0.12114466D+05 0.12114466D+05 0.12114466D+05 0.12585412D+01  1  2  8  2  5  2        1 -.739233715541D-01 0.100000000000D+01
0.942064261690D-03 0.000000000000D+00 0.000000000000D+00 0.234275280696D-02 0.264046599682D-03  5 -2 1 25 -24 21 2 0.64444675D-01 0.58139272D-02 0.13090457D+05 0.13090457D+05 0.13090457D+05 0.12546210D+01  1  2  1  2  5  2        1 0.378502259936D+00 0.100000000000D+01
  </mgrwgt>
  </event>
  <event>
  4     66 0.46019439E-03 0.13298068E+03 0.75467711E-02 0.11367211E+00
       -2 -1    0    0    0  501 0.00000000E+00 0.00000000E+00 0.44457723E+02 0.44458875E+02 0.32000000E+00 0.0000E+00 0.9000E+01
        1 -1    0    0  501    0 0.00000000E+00 0.00000000E+00 -.40992930E+03 0.40992942E+03 0.32000000E+00 0.0000E+00 0.9000E+01
       25  1    1    2    0    0 -.26140585E+02 -.79062178E+02 -.24451403E+03 0.28696040E+03 0.12500000E+03 0.0000E+00 0.9000E+01
      -24  1    1    2    0    0 0.26140585E+02 0.79062178E+02 -.12095754E+03 0.16742789E+03 0.80419002E+02 0.0000E+00 0.9000E+01
#aMCatNLO 1  0  0  2  1 0.13464967D+03 0.00000000D+00  -5  5  0 0.00000000D+00 0.00000000D+00 0.00000000D+00 0.00000000D+00 0.00000000D+00
  <mgrwgt>
 0.2446724614D+00    3    2    0
 0.134999308113578D+03 0.000000000000000D+00 0.000000000000000D+00 0.134999308113578D+03
 0.134999308113578D+03 0.000000000000000D+00 0.000000000000000D+00 -.134999308113578D+03
 0.151958254373370D+03 -.261405853477685D+02 -.790621778582497D+02 -.230684395265150D+02
 0.118040361853785D+03 0.261405853477685D+02 0.790621778582497D+02 0.230684395265150D+02
 0.000000000000000D+00 -.000000000000000D+00 0.000000000000000D+00 0.000000000000000D+00
 0.254661239239855D+03 0.000000000000000D+00 0.000000000000000D+00 0.254661239239855D+03
 0.194520380024868D+03 0.000000000000000D+00 0.000000000000000D+00 -.194520380024868D+03
 0.194854725757472D+03 0.202507870198383D+02 -.146291205726484D+03 -.230684395265150D+02
 0.106856703737821D+03 0.562238985798918D+02 0.354663150839154D+02 0.230684395265150D+02
 0.147470189769430D+03 -.764746855997301D+02 0.110824890642568D+03 0.601408592149865D+02
0.402212949075D-03 0.000000000000D+00 0.000000000000D+00 0.248996567366D-02 0.000000000000D+00  5 -2 1 25 -24 21 0 0.68397479D-02 0.63066144D-01 0.17683862D+05 0.17683862D+05 0.17683862D+05 0.12397545D+01  1  2  2  2  5  2        1 0.239731461535D+00 0.100000000000D+01
-.223389972131D-04 0.000000000000D+00 -.154460362955D-05 0.248996567366D-02 0.000000000000D+00  5 -2 1 25 -24 21 2 0.68397479D-02 0.63066144D-01 0.17683862D+05 0.17683862D+05 0.17683862D+05 0.12397545D+01  1  2  3  2  5  2        1 -.204646370874D-01 0.100000000000D+01
0.277325442418D-04 0.000000000000D+00 0.000000000000D+00 0.248996567366D-02 0.000000000000D+00  5 -2 1 25 -24 21 2 0.68397479D-02 0.63066144D-01 0.17683862D+05 0.17683862D+05 0.17683862D+05 0.12397545D+01  1  2 15  2  5  2        1 0.254056369678D-01 0.100000000000D+01
  </mgrwgt>
  </event>
  <event>
  4     66 0.46019439E-03 0.11356436E+03 0.75467711E-02 0.11658343E+00
       -2 -1    0    0    0  501 0.00000000E+00 0.00000000E+00 0.22927901E+03 0.22927924E+03 0.32000000E+00 0.0000E+00 0.9000E+01
        1 -1    0    0  501    0 0.00000000E+00 0.00000000E+00 -.64338776E+02 0.64339572E+02 0.32000000E+00 0.0000E+00 0.9000E+01
       25  1    1    2    0    0 -.31628686E+02 -.35451439E+02 0.14660480E+03 0.19843172E+03 0.12500000E+03 0.0000E+00 0.9000E+01
      -24  1    1    2    0    0 0.31628686E+02 0.35451439E+02 0.18335435E+02 0.95187092E+02 0.80419002E+02 0.0000E+00 0.9000E+01
#aMCatNLO 1  0  0  2  1 0.11092659D+03 0.00000000D+00  -5  5  0 0.00000000D+00 0.00000000D+00 0.00000000D+00 0.00000000D+00 0.00000000D+00
  <mgrwgt>
 0.1624492039D+00    5    2    0
 0.121456497385245D+03 0.000000000000000D+00 0.000000000000000D+00 0.121456497385245D+03
 0.121456497385245D+03 0.000000000000000D+00 0.000000000000000D+00 -.121456497385245D+03
 0.140306423578535D+03 -.316286862173829D+02 -.354514392527345D+02 0.424701561154557D+02
 0.102606571191955D+03 0.316286862173829D+02 0.354514392527345D+02 -.424701561154557D+02
 0.000000000000000D+00 -.000000000000000D+00 -.000000000000000D+00 -.000000000000000D+00
 0.187543165619466D+03 0.000000000000000D+00 0.000000000000000D+00 0.187543165619466D+03
 0.190463872703144D+03 0.000000000000000D+00 0.000000000000000D+00 -.190463872703144D+03
 0.134537788025779D+03 -.141420346720620D+02 0.217187730254844D+02 0.424701561154557D+02
 0.132504215233998D+03 0.465873436065221D+02 0.843567208681314D+02 -.424701561154557D+02
 0.110965035062833D+03 -.324453089344601D+02 -.106075493893616D+03 -.292070708367752D+01
0.369568478596D-03 0.000000000000D+00 0.000000000000D+00 0.246371286096D-02 0.000000000000D+00  5 -2 1 25 -24 21 0 0.35273773D-01 0.98983517D-02 0.12896865D+05 0.12896865D+05 0.12896865D+05 0.12553719D+01  1  2  2  2  5  2        1 0.150334102933D+00 0.100000000000D+01
-.204188970329D-04 0.000000000000D+00 -.141924026742D-05 0.246371286096D-02 0.000000000000D+00  5 -2 1 25 -24 21 2 0.35273773D-01 0.98983517D-02 0.12896865D+05 0.12896865D+05 0.12896865D+05 0.12553719D+01  1  2  3  2  5  2        1 -.130900010568D-01 0.100000000000D+01
0.255203079948D-04 0.000000000000D+00 0.000000000000D+00 0.246371286096D-02 0.000000000000D+00  5 -2 1 25 -24 21 2 0.35273773D-01 0.98983517D-02 0.12896865D+05 0.12896865D+05 0.12896865D+05 0.12553719D+01  1  2 15  2  5  2        1 0.163603772565D-01 0.100000000000D+01
-.167169613121D-04 0.000000000000D+00 -.146606119717D-03 0.246371286096D-02 0.000000000000D+00  5 -2 1 25 -24 21 2 0.35273773D-01 0.23675080D-01 0.12896865D+05 0.12896865D+05 0.12896865D+05 0.12553719D+01  1  2  5  2  5  2        1 -.349228959248D-02 0.100000000000D+01
0.762634039177D-05 0.000000000000D+00 -.139812152862D-04 0.246371286096D-02 0.000000000000D+00  5 -2 21 25 -24 -1 2 0.35273773D-01 0.23675080D-01 0.12896865D+05 0.12896865D+05 0.12896865D+05 0.12553719D+01  1  2  5  4  5  2        1 0.123370143881D-01 0.100000000000D+01
  </mgrwgt>
  </event>
  <event>
  4     66 0.46019439E-03 0.59843105E+02 0.75467711E-02 0.12150327E+00
       -2 -1    0    0    0  501 0.00000000E+00 0.00000000E+00 0.72188110E+03 0.72188117E+03 0.32000000E+00 0.0000E+00 0.9000E+01
        1 -1    0    0  501    0 0.00000000E+00 0.00000000E+00 -.26767451E+02 0.26769363E+02 0.32000000E+00 0.0000E+00 0.9000E+01
       25  1    1    2    0    0 0.72109652E+02 -.13077240E+02 0.54053801E+03 0.55962234E+03 0.12500000E+03 0.0000E+00 0.9000E+01
      -24  1    1    2    0    0 -.72109652E+02 0.13077240E+02 0.15457564E+03 0.18902820E+03 0.80419002E+02 0.0000E+00 0.9000E+01
#aMCatNLO 1  0  0  1  2 0.22594619D+02 0.00000000D+00  -5  5  0 0.00000000D+00 0.00000000D+00 0.00000000D+00 0.00000000D+00 0.00000000D+00
  <mgrwgt>
 0.2168230087D+00    9    2    0
 0.139009565118328D+03 0.000000000000000D+00 0.000000000000000D+00 0.139009565118328D+03
 0.139009565118328D+03 0.000000000000000D+00 0.000000000000000D+00 -.139009565118328D+03
 0.155479266390025D+03 0.721096521752893D+02 -.130772400247994D+02 0.563736297720215D+02
 0.122539863846631D+03 -.721096521752893D+02 0.130772400247994D+02 -.563736297720215D+02
 0.000000000000000D+00 0.000000000000000D+00 -.000000000000000D+00 0.000000000000000D+00
 0.160783163050310D+03 0.000000000000000D+00 0.000000000000000D+00 0.160783163050310D+03
 0.145455559728266D+03 0.000000000000000D+00 0.000000000000000D+00 -.145455559728266D+03
 0.152061191326839D+03 0.656805289218962D+02 -.238493073370188D+01 0.563736297720215D+02
 0.126874560384953D+03 -.773236525915702D+02 0.217486720222126D+02 -.563736297720215D+02
 0.273029710667837D+02 0.116431236696740D+02 -.193637412885107D+02 0.153276033220438D+02
0.113878113130D-02 0.000000000000D+00 0.000000000000D+00 0.213983760424D-02 0.000000000000D+00  5 -2 1 25 -24 21 0 0.11105878D+00 0.41182219D-02 0.16091183D+05 0.16091183D+05 0.16091183D+05 0.12443608D+01  1  2  2  1  5  1       -2 0.140411262195D+00 0.100000000000D+01
-.626211966345D-04 0.000000000000D+00 -.437321939215D-05 0.213983760424D-02 0.000000000000D+00  5 -2 1 25 -24 21 2 0.11105878D+00 0.41182219D-02 0.16091183D+05 0.16091183D+05 0.16091183D+05 0.12443608D+01  1  2  3  1  5  1       -2 -.119557185483D-01 0.100000000000D+01
0.786760251878D-04 0.000000000000D+00 0.000000000000D+00 0.213983760424D-02 0.000000000000D+00  5 -2 1 25 -24 21 2 0.11105878D+00 0.41182219D-02 0.16091183D+05 0.16091183D+05 0.16091183D+05 0.12443608D+01  1  2 15  1  5  1       -2 0.150209268459D-01 0.100000000000D+01
0.168895019217D-02 0.000000000000D+00 0.000000000000D+00 0.213983760424D-02 0.000000000000D+00  5 -2 1 25 -24 21 2 0.13074141D+00 0.41182219D-02 0.19249143D+05 0.19249143D+05 0.19249143D+05 0.12356598D+01  1  2 12  1  5  1       -2 0.215849492098D+00 0.100000000000D+01
-.169699104862D-02 0.000000000000D+00 0.000000000000D+00 0.213983760424D-02 0.000000000000D+00  5 -2 1 25 -24 21 2 0.11105878D+00 0.41182219D-02 0.16091183D+05 0.16091183D+05 0.16091183D+05 0.12443608D+01  1  2  4  1  5  1       -2 -.323991690462D+00 0.100000000000D+01
-.343985546359D-02 0.000000000000D+00 -.730803517419D-03 0.213983760424D-02 0.000000000000D+00  5 -2 1 25 -24 21 2 0.13224560D+00 0.41182219D-02 0.16091183D+05 0.16091183D+05 0.16091183D+05 0.12443608D+01  1  2  5  1  5  1       -2 -.431516748047D+00 0.100000000000D+01
0.352459309782D-02 0.000000000000D+00 0.719803798549D-03 0.213983760424D-02 0.000000000000D+00  5 -2 1 25 -24 21 2 0.11105878D+00 0.41182219D-02 0.16091183D+05 0.16091183D+05 0.16091183D+05 0.12443608D+01  1  2  6  1  5  1       -2 0.672919799359D+00 0.100000000000D+01
0.412195767929D-04 0.000000000000D+00 0.000000000000D+00 0.213983760424D-02 0.000000000000D+00  5 21 1 25 -24 2 2 0.13074141D+00 0.41182219D-02 0.19249143D+05 0.19249143D+05 0.19249143D+05 0.12356598D+01  1  2 12  3  5  1       -2 0.621437533410D-01 0.100000000000D+01
-.819352033233D-04 0.000000000000D+00 -.188189928224D-04 0.213983760424D-02 0.000000000000D+00  5 21 1 25 -24 2 2 0.13224560D+00 0.41182219D-02 0.16091183D+05 0.16091183D+05 0.16091183D+05 0.12443608D+01  1  2  5  3  5  1       -2 -.122058068101D+00 0.100000000000D+01
  </mgrwgt>
  </event>
  <event>
  4     66 0.46019439E-03 0.10356083E+03 0.75467711E-02 0.11772110E+00
       -4 -1    0    0    0  501 0.00000000E+00 0.00000000E+00 0.17015955E+03 0.17016661E+03 0.15500000E+01 0.0000E+00 0.9000E+01
        3 -1    0    0  501    0 0.00000000E+00 0.00000000E+00 -.63040665E+02 0.63042648E+02 0.50000000E+00 0.0000E+00 0.9000E+01
       25  1    1    2    0    0 0.60037749E+01 -.11464021E+02 0.66950541E+02 0.14238976E+03 0.12500000E+03 0.0000E+00 0.9000E+01
      -24  1    1    2    0    0 -.60037749E+01 0.11464021E+02 0.40168345E+02 0.90819497E+02 0.80419002E+02 0.0000E+00 0.9000E+01
#aMCatNLO 1  0  0  1  2 0.10775070D+03 0.00000000D+00  -5  5  0 0.00000000D+00 0.00000000D+00 0.00000000D+00 0.00000000D+00 0.00000000D+00
  <mgrwgt>
 0.2940785006D-01    5    2    0
 0.103576182268362D+03 0.000000000000000D+00 0.000000000000000D+00 0.103576182268362D+03
 0.103576182268362D+03 0.000000000000000D+00 0.000000000000000D+00 -.103576182268362D+03
 0.125680163717258D+03 0.600377489180063D+01 -.114640209196958D+02 0.174197112439308D+01
 0.814722008194660D+02 -.600377489180063D+01 0.114640209196958D+02 -.174197112439308D+01
 0.000000000000000D+00 0.000000000000000D+00 -.000000000000000D+00 0.000000000000000D+00
 0.229665568487735D+03 0.000000000000000D+00 0.000000000000000D+00 0.229665568487735D+03
 0.142455605109481D+03 0.000000000000000D+00 0.000000000000000D+00 -.142455605109481D+03
 0.135653880472280D+03 0.499508321875065D+01 0.524308112413598D+02 0.174197112439308D+01
 0.978462595226955D+02 -.669590453121377D+01 0.553064638837341D+02 -.174197112439308D+01
 0.138621033602241D+03 0.170082131246311D+01 -.107737275125094D+03 0.872099633782546D+02
0.154758562596D-03 0.000000000000D+00 0.000000000000D+00 0.321139021161D-02 0.000000000000D+00  5 -4 3 25 -24 21 0 0.26179088D-01 0.96992594D-02 0.10724846D+05 0.10724846D+05 0.10724846D+05 0.12647828D+01  1  2  2  1  5  1       -4 0.302230378093D-01 0.100000000000D+01
-.859769769242D-05 0.000000000000D+00 -.594313629235D-06 0.321139021161D-02 0.000000000000D+00  5 -4 3 25 -24 21 2 0.26179088D-01 0.96992594D-02 0.10724846D+05 0.10724846D+05 0.10724846D+05 0.12647828D+01  1  2  3  1  5  1       -4 -.268594730797D-02 0.100000000000D+01
0.107102540241D-04 0.000000000000D+00 0.000000000000D+00 0.321139021161D-02 0.000000000000D+00  5 -4 3 25 -24 21 2 0.26179088D-01 0.96992594D-02 0.10724846D+05 0.10724846D+05 0.10724846D+05 0.12647828D+01  1  2 15  1  5  1       -4 0.334591642935D-02 0.100000000000D+01
-.239111443733D-04 0.000000000000D+00 -.425311123426D-04 0.321139021161D-02 0.000000000000D+00  5 -4 3 25 -24 21 2 0.76040542D-01 0.96992594D-02 0.10724846D+05 0.10724846D+05 0.10724846D+05 0.12647828D+01  1  2  5  1  5  1       -4 -.888724044100D-03 0.100000000000D+01
-.633125923947D-06 0.000000000000D+00 -.512845687102D-05 0.321139021161D-02 0.000000000000D+00  5 21 3 25 -24 4 2 0.76040542D-01 0.96992594D-02 0.10724846D+05 0.10724846D+05 0.10724846D+05 0.12647828D+01  1  2  5  3  5  1       -4 -.586432828149D-03 0.100000000000D+01
  </mgrwgt>
  </event>
  <event>
  4     66 0.46019439E-03 0.63935746E+02 0.75467711E-02 0.12250789E+00
       -2 -1    0    0    0  501 0.00000000E+00 0.00000000E+00 0.26011930E+02 0.26013898E+02 0.32000000E+00 0.0000E+00 0.9000E+01
        1 -1    0    0  501    0 0.00000000E+00 0.00000000E+00 -.55433207E+03 0.55433216E+03 0.32000000E+00 0.0000E+00 0.9000E+01
       25  1    1    2    0    0 0.24329596E+02 -.45322482E+02 -.38592320E+03 0.40891047E+03 0.12500000E+03 0.0000E+00 0.9000E+01
      -24  1    1    2    0    0 -.24329596E+02 0.45322482E+02 -.14239693E+03 0.17143558E+03 0.80419002E+02 0.0000E+00 0.9000E+01
#aMCatNLO 1  0  0  1  2 0.30742835D+02 0.00000000D+00  -5  5  0 0.00000000D+00 0.00000000D+00 0.00000000D+00 0.00000000D+00 0.00000000D+00
  <mgrwgt>
 0.1840619166D+00    9    2    0
 0.120082657645489D+03 0.000000000000000D+00 0.000000000000000D+00 0.120082657645489D+03
 0.120082657645489D+03 0.000000000000000D+00 0.000000000000000D+00 -.120082657645489D+03
 0.139148241771436D+03 0.243295959110770D+02 -.453224817928554D+02 -.330329622501835D+02
 0.101017073519542D+03 -.243295959110770D+02 0.453224817928554D+02 0.330329622501835D+02
 0.000000000000000D+00 -.000000000000000D+00 0.000000000000000D+00 0.000000000000000D+00
 0.204447703942224D+03 0.000000000000000D+00 0.000000000000000D+00 0.204447703942224D+03
 0.123896085912225D+03 0.000000000000000D+00 0.000000000000000D+00 -.123896085912225D+03
 0.145944547472888D+03 0.398974128760008D+02 -.546976305505634D+02 -.330329622501835D+02
 0.961804214629185D+02 -.135614017523763D+02 0.388377304422220D+02 0.330329622501835D+02
 0.862188209186426D+02 -.263360111236244D+02 0.158599001083414D+02 0.805516180299981D+02
0.178512622453D-03 0.000000000000D+00 0.000000000000D+00 0.259963250431D-02 0.000000000000D+00  5 -2 1 25 -24 21 0 0.40019938D-02 0.85282015D-01 0.13298003D+05 0.13298003D+05 0.13298003D+05 0.12538298D+01  1  2  2  1  5  1       -2 0.159715800835D+00 0.100000000000D+01
-.989759381286D-05 0.000000000000D+00 -.685535473671D-06 0.259963250431D-02 0.000000000000D+00  5 -2 1 25 -24 21 2 0.40019938D-02 0.85282015D-01 0.13298003D+05 0.13298003D+05 0.13298003D+05 0.12538298D+01  1  2  3  1  5  1       -2 -.139214910776D-01 0.100000000000D+01
0.123306620627D-04 0.000000000000D+00 0.000000000000D+00 0.259963250431D-02 0.000000000000D+00  5 -2 1 25 -24 21 2 0.40019938D-02 0.85282015D-01 0.13298003D+05 0.13298003D+05 0.13298003D+05 0.12538298D+01  1  2 15  1  5  1       -2 0.173437307221D-01 0.100000000000D+01
0.491807001469D-03 0.000000000000D+00 0.000000000000D+00 0.259963250431D-02 0.000000000000D+00  5 -2 1 25 -24 21 2 0.68379373D-02 0.85282015D-01 0.17322488D+05 0.17322488D+05 0.17322488D+05 0.12407577D+01  1  2 12  1  5  1       -2 0.305377835627D+00 0.100000000000D+01
-.463159659935D-03 0.000000000000D+00 0.000000000000D+00 0.259963250431D-02 0.000000000000D+00  5 -2 1 25 -24 21 2 0.40019938D-02 0.85282015D-01 0.13298003D+05 0.13298003D+05 0.13298003D+05 0.12538298D+01  1  2  4  1  5  1       -2 -.651458646939D+00 0.100000000000D+01
-.528038015000D-03 0.000000000000D+00 -.548067675249D-04 0.259963250431D-02 0.000000000000D+00  5 -2 1 25 -24 21 2 0.70109476D-02 0.85282015D-01 0.13298003D+05 0.13298003D+05 0.13298003D+05 0.12538298D+01  1  2  5  1  5  1       -2 -.320233410856D+00 0.100000000000D+01
0.487695406287D-03 0.000000000000D+00 0.471926095618D-04 0.259963250431D-02 0.000000000000D+00  5 -2 1 25 -24 21 2 0.40019938D-02 0.85282015D-01 0.13298003D+05 0.13298003D+05 0.13298003D+05 0.12538298D+01  1  2  6  1  5  1       -2 0.685969476579D+00 0.100000000000D+01
0.293151604546D-04 0.000000000000D+00 0.000000000000D+00 0.259963250431D-02 0.000000000000D+00  5 21 1 25 -24 2 2 0.68379373D-02 0.85282015D-01 0.17322488D+05 0.17322488D+05 0.17322488D+05 0.12407577D+01  1  2 12  3  5  1       -2 0.308061588017D+00 0.100000000000D+01
-.299037130363D-04 0.000000000000D+00 -.339321243026D-05 0.259963250431D-02 0.000000000000D+00  5 21 1 25 -24 2 2 0.70109476D-02 0.85282015D-01 0.13298003D+05 0.13298003D+05 0.13298003D+05 0.12538298D+01  1  2  5  3  5  1       -2 -.306792966309D+00 0.100000000000D+01
  </mgrwgt>
  </event>
  <event>
  4     66 0.46019439E-03 0.10878578E+03 0.75467711E-02 0.12553605E+00
       -2 -1    0    0    0  501 0.00000000E+00 0.00000000E+00 0.82484217E+01 0.82546267E+01 0.32000000E+00 0.0000E+00 0.9000E+01
        1 -1    0    0  501    0 0.00000000E+00 0.00000000E+00 -.14654467E+04 0.14654467E+04 0.32000000E+00 0.0000E+00 0.9000E+01
       25  1    1    2    0    0 0.15934012E+02 0.31261098E+02 -.97216183E+03 0.98079293E+03 0.12500000E+03 0.0000E+00 0.9000E+01
      -24  1    1    2    0    0 -.15934012E+02 -.31261098E+02 -.48503643E+03 0.49290841E+03 0.80419002E+02 0.0000E+00 0.9000E+01
#aMCatNLO 1  0  0  1  2 0.79986537D+01 0.00000000D+00  -5  5  0 0.00000000D+00 0.00000000D+00 0.00000000D+00 0.00000000D+00 0.00000000D+00
  <mgrwgt>
 0.1446560353D+00    6    2    0
 0.109964631008947D+03 0.000000000000000D+00 0.000000000000000D+00 0.109964631008947D+03
 0.109964631008947D+03 0.000000000000000D+00 0.000000000000000D+00 -.109964631008947D+03
 0.130784470901113D+03 0.159340115602614D+02 0.312610977580538D+02 -.157616265481369D+02
 0.891447911167815D+02 -.159340115602614D+02 -.312610977580538D+02 0.157616265481369D+02
 0.000000000000000D+00 0.000000000000000D+00 0.000000000000000D+00 -.000000000000000D+00
 0.111610835602359D+03 0.000000000000000D+00 0.000000000000000D+00 0.111610835602359D+03
 0.120202309581949D+03 0.000000000000000D+00 0.000000000000000D+00 -.120202309581949D+03
 0.130155686435018D+03 0.112266711304089D+02 0.306763051109079D+02 -.157616265481369D+02
 0.899189798780412D+02 -.191643082586725D+02 -.316623973422842D+02 0.157616265481369D+02
 0.117384788712479D+02 0.793763712826355D+01 0.986092231376302D+00 -.859147397958962D+01
0.241294419653D-03 0.000000000000D+00 0.000000000000D+00 0.296068501611D-02 0.000000000000D+00  5 -2 1 25 -24 21 0 0.12694680D-02 0.22545381D+00 0.11834346D+05 0.11834346D+05 0.11834346D+05 0.12597323D+01  1  2  2  1  5  1       -2 0.231693919541D+00 0.100000000000D+01
-.134033521246D-04 0.000000000000D+00 -.926634105749D-06 0.296068501611D-02 0.000000000000D+00  5 -2 1 25 -24 21 2 0.12694680D-02 0.22545381D+00 0.11834346D+05 0.11834346D+05 0.11834346D+05 0.12597323D+01  1  2  3  1  5  1       -2 -.204238344369D-01 0.100000000000D+01
0.166790542456D-04 0.000000000000D+00 0.000000000000D+00 0.296068501611D-02 0.000000000000D+00  5 -2 1 25 -24 21 2 0.12694680D-02 0.22545381D+00 0.11834346D+05 0.11834346D+05 0.11834346D+05 0.12597323D+01  1  2 15  1  5  1       -2 0.254153020311D-01 0.100000000000D+01
-.608910047759D-04 0.000000000000D+00 0.000000000000D+00 0.296068501611D-02 0.000000000000D+00  5 -2 1 25 -24 21 2 0.12694680D-02 0.22545381D+00 0.11834346D+05 0.11834346D+05 0.11834346D+05 0.12597323D+01  1  2  4  1  5  1       -2 -.927848338741D-01 0.100000000000D+01
0.308674366470D-06 0.000000000000D+00 0.000000000000D+00 0.296068501611D-02 0.390882223455D-03  5 -2 1 25 -24 21 2 0.12884723D-02 0.24644351D+00 0.12737748D+05 0.12737748D+05 0.12737748D+05 0.12559986D+01  1  2 11  1  5  1       -2 0.374907141681D-03 0.100000000000D+01
0.138645028195D-07 0.000000000000D+00 0.000000000000D+00 0.296068501611D-02 0.111892627973D-05  5 21 1 25 -24 2 2 0.12884723D-02 0.24644351D+00 0.12737748D+05 0.12737748D+05 0.12737748D+05 0.12559986D+01  1  2 11  3  5  1       -2 0.380574887523D-03 0.100000000000D+01
  </mgrwgt>
  </event>
  <event>
  4     66 0.46019439E-03 0.24912217E+03 0.75467711E-02 0.10500908E+00
       -2 -1    0    0    0  501 0.00000000E+00 0.00000000E+00 0.63064363E+02 0.63065175E+02 0.32000000E+00 0.0000E+00 0.9000E+01
        1 -1    0    0  501    0 0.00000000E+00 0.00000000E+00 -.12304499E+04 0.12304499E+04 0.32000000E+00 0.0000E+00 0.9000E+01
       25  1    1    2    0    0 -.80604782E+02 0.21119440E+03 -.89014998E+03 0.92687226E+03 0.12500000E+03 0.0000E+00 0.9000E+01
      -24  1    1    2    0    0 0.80604782E+02 -.21119440E+03 -.27723551E+03 0.36664281E+03 0.80419002E+02 0.0000E+00 0.9000E+01
#aMCatNLO 1  0  0  1  2 0.22157159D+03 0.00000000D+00  -5  5  0 0.00000000D+00 0.00000000D+00 0.00000000D+00 0.00000000D+00 0.00000000D+00
  <mgrwgt>
 0.2812656265D+00    3    2    0
 0.278564334183509D+03 0.000000000000000D+00 0.000000000000000D+00 0.278564334183509D+03
 0.278564334183509D+03 0.000000000000000D+00 0.000000000000000D+00 -.278564334183509D+03
 0.286783067633783D+03 -.806047819244079D+02 0.211194396633778D+03 -.124576578227435D+03
 0.270345600733235D+03 0.806047819244079D+02 -.211194396633778D+03 0.124576578227435D+03
 0.000000000000000D+00 -.000000000000000D+00 0.000000000000000D+00 -.000000000000000D+00
 0.360763292331496D+03 0.000000000000000D+00 0.000000000000000D+00 0.360763292331496D+03
 0.501065250342230D+03 0.000000000000000D+00 0.000000000000000D+00 -.501065250342230D+03
 0.245835218639370D+03 0.130184748752688D+02 0.170649202144437D+03 -.124576578227435D+03
 0.353736563617747D+03 0.190305493002069D+03 -.258702214865094D+03 0.124576578227435D+03
 0.262256760416609D+03 -.203323967877337D+03 0.880530127206571D+02 -.140301958010735D+03
0.411814536506D-02 0.000000000000D+00 0.000000000000D+00 0.163250163970D-02 0.000000000000D+00  5 -2 1 25 -24 21 0 0.97022753D-02 0.18930004D+00 0.62061855D+05 0.62061855D+05 0.62061855D+05 0.11830971D+01  1  2  2  1  5  1       -2 0.275859944307D+00 0.100000000000D+01
-.225314804748D-03 0.000000000000D+00 -.158147625344D-04 0.163250163970D-02 0.000000000000D+00  5 -2 1 25 -24 21 2 0.97022753D-02 0.18930004D+00 0.62061855D+05 0.62061855D+05 0.62061855D+05 0.11830971D+01  1  2  3  1  5  1       -2 -.211260107091D-01 0.100000000000D+01
0.282967914942D-03 0.000000000000D+00 0.000000000000D+00 0.163250163970D-02 0.000000000000D+00  5 -2 1 25 -24 21 2 0.97022753D-02 0.18930004D+00 0.62061855D+05 0.62061855D+05 0.62061855D+05 0.11830971D+01  1  2 15  1  5  1       -2 0.265316928823D-01 0.100000000000D+01
  </mgrwgt>
  </event>
  <event>
  4     66 0.46019439E-03 0.11115293E+03 0.75467711E-02 0.11880315E+00
       -2 -1    0    0    0  501 0.00000000E+00 0.00000000E+00 0.85525578E+02 0.85526176E+02 0.32000000E+00 0.0000E+00 0.9000E+01
        1 -1    0    0  501    0 0.00000000E+00 0.00000000E+00 -.14523568E+03 0.14523603E+03 0.32000000E+00 0.0000E+00 0.9000E+01
       25  1    1    2    0    0 -.17849127E+01 0.41592382E+02 -.27060776E+02 0.13450055E+03 0.12500000E+03 0.0000E+00 0.9000E+01
      -24  1    1    2    0    0 0.17849127E+01 -.41592382E+02 -.32649322E+02 0.96261655E+02 0.80419002E+02 0.0000E+00 0.9000E+01
#aMCatNLO 1  0  0  1  2 0.83650540D+02 0.00000000D+00  -5  5  0 0.00000000D+00 0.00000000D+00 0.00000000D+00 0.00000000D+00 0.00000000D+00
  <mgrwgt>
 0.2028276316D+00    3    2    0
 0.111451670319430D+03 0.000000000000000D+00 0.000000000000000D+00 0.111451670319430D+03
 0.111451670319430D+03 0.000000000000000D+00 0.000000000000000D+00 -.111451670319430D+03
 0.131993722357283D+03 -.178491269734836D+01 0.415923816742135D+02 0.801440048044341D+01
 0.909096182815772D+02 0.178491269734836D+01 -.415923816742135D+02 -.801440048044341D+01
 0.000000000000000D+00 0.000000000000000D+00 0.000000000000000D+00 -.000000000000000D+00
 0.144337203879553D+03 0.000000000000000D+00 0.000000000000000D+00 0.144337203879553D+03
 0.188196843383356D+03 0.000000000000000D+00 0.000000000000000D+00 -.188196843383356D+03
 0.136268144376820D+03 -.475224213171148D+02 0.249278163704633D+02 0.801440048044341D+01
 0.101814429697802D+03 -.310737187324782D+02 -.535644987785010D+02 -.801440048044341D+01
 0.944514731882869D+02 0.785961400495930D+02 0.286366824080377D+02 -.438596395038038D+02
0.258665327629D-03 0.000000000000D+00 0.000000000000D+00 0.296007166527D-02 0.000000000000D+00  5 -2 1 25 -24 21 0 0.13157854D-01 0.22344023D-01 0.12354973D+05 0.12354973D+05 0.12354973D+05 0.12575430D+01  1  2  2  1  5  1       -2 0.198570761101D+00 0.100000000000D+01
-.143701701042D-04 0.000000000000D+00 -.993342966239D-06 0.296007166527D-02 0.000000000000D+00  5 -2 1 25 -24 21 2 0.13157854D-01 0.22344023D-01 0.12354973D+05 0.12354973D+05 0.12354973D+05 0.12575430D+01  1  2  3  1  5  1       -2 -.174455507425D-01 0.100000000000D+01
0.178766201763D-04 0.000000000000D+00 0.000000000000D+00 0.296007166527D-02 0.000000000000D+00  5 -2 1 25 -24 21 2 0.13157854D-01 0.22344023D-01 0.12354973D+05 0.12354973D+05 0.12354973D+05 0.12575430D+01  1  2 15  1  5  1       -2 0.217024212050D-01 0.100000000000D+01
  </mgrwgt>
  </event>
  <event>
  4     66 0.46019439E-03 0.68493021E+02 0.75467711E-02 0.12114617E+00
       -2 -1    0    0    0  501 0.00000000E+00 0.00000000E+00 0.84725320E+01 0.84785729E+01 0.32000000E+00 0.0000E+00 0.9000E+01
        1 -1    0    0  501    0 0.00000000E+00 0.00000000E+00 -.15367444E+04 0.15367444E+04 0.32000000E+00 0.0000E+00 0.9000E+01
       25  1    1    2    0    0 -.11672957E+02 0.36146114E+02 -.11058261E+04 0.11135166E+04 0.12500000E+03 0.0000E+00 0.9000E+01
      -24  1    1    2    0    0 0.11672957E+02 -.36146114E+02 -.42244574E+03 0.43170640E+03 0.80419002E+02 0.0000E+00 0.9000E+01
#aMCatNLO 1  0  0  2  1 0.56058057D+02 0.00000000D+00  -5  5  0 0.00000000D+00 0.00000000D+00 0.00000000D+00 0.00000000D+00 0.00000000D+00
  <mgrwgt>
 0.6582549412D+00    8    2    0
 0.114126285752915D+03 0.000000000000000D+00 0.000000000000000D+00 0.114126285752915D+03
 0.114126285752915D+03 0.000000000000000D+00 0.000000000000000D+00 -.114126285752915D+03
 0.134186922934818D+03 -.116729565175410D+02 0.361461142037184D+02 -.306321857010891D+02
 0.940656485710123D+02 0.116729565175410D+02 -.361461142037184D+02 0.306321857010891D+02
 0.000000000000000D+00 0.000000000000000D+00 0.000000000000000D+00 -.000000000000000D+00
 0.124962025331432D+03 0.000000000000000D+00 0.000000000000000D+00 0.124962025331432D+03
 0.223052961294110D+03 0.000000000000000D+00 0.000000000000000D+00 -.223052961294110D+03
 0.133835496737720D+03 -.343571979343988D+02 0.129688988084067D+02 -.306321857010891D+02
 0.101200122249844D+03 -.485348142433318D+01 -.530317047269886D+02 0.306321857010891D+02
 0.112979367637978D+03 0.392106793587320D+02 0.400628059185820D+02 -.980909359626780D+02
0.264075935059D-03 0.000000000000D+00 0.000000000000D+00 0.272911984072D-02 0.000000000000D+00  5 -2 1 25 -24 21 0 0.13039337D-02 0.23642268D+00 0.12054070D+05 0.12054070D+05 0.12054070D+05 0.12587953D+01  1  2  2  2  5  2        1 0.219702575751D+00 0.100000000000D+01
-.146441329985D-04 0.000000000000D+00 -.101412112342D-05 0.272911984072D-02 0.000000000000D+00  5 -2 1 25 -24 21 2 0.13039337D-02 0.23642268D+00 0.12054070D+05 0.12054070D+05 0.12054070D+05 0.12587953D+01  1  2  3  2  5  2        1 -.193054639632D-01 0.100000000000D+01
0.182684956383D-04 0.000000000000D+00 0.000000000000D+00 0.272911984072D-02 0.000000000000D+00  5 -2 1 25 -24 21 2 0.13039337D-02 0.23642268D+00 0.12054070D+05 0.12054070D+05 0.12054070D+05 0.12587953D+01  1  2 15  2  5  2        1 0.240834868302D-01 0.100000000000D+01
0.222096296430D-03 0.000000000000D+00 0.000000000000D+00 0.272911984072D-02 0.000000000000D+00  5 -2 1 25 -24 21 2 0.13039337D-02 0.46333395D+00 0.19993058D+05 0.19993058D+05 0.19993058D+05 0.12338426D+01  1  2 12  2  5  2        1 0.311963568366D-01 0.100000000000D+01
-.351951535491D-03 0.000000000000D+00 -.837426518769D-04 0.272911984072D-02 0.000000000000D+00  5 -2 1 25 -24 21 2 0.13039337D-02 0.47161756D+00 0.12054070D+05 0.12054070D+05 0.12054070D+05 0.12587953D+01  1  2  5  2  5  2        1 -.475745554929D-01 0.100000000000D+01
0.341670950106D-03 0.000000000000D+00 0.670985689510D-04 0.272911984072D-02 0.000000000000D+00  5 -2 1 25 -24 21 2 0.13039337D-02 0.23642268D+00 0.12054070D+05 0.12054070D+05 0.12054070D+05 0.12587953D+01  1  2  6  2  5  2        1 0.450427226744D+00 0.100000000000D+01
0.161878673500D-04 0.000000000000D+00 0.000000000000D+00 0.272911984072D-02 0.000000000000D+00  5 -2 21 25 -24 -1 2 0.13039337D-02 0.46333395D+00 0.19993058D+05 0.19993058D+05 0.19993058D+05 0.12338426D+01  1  2 12  4  5  2        1 0.992151678622D-03 0.100000000000D+01
-.212863874564D-04 0.000000000000D+00 -.625786507518D-05 0.272911984072D-02 0.000000000000D+00  5 -2 21 25 -24 -1 2 0.13039337D-02 0.47161756D+00 0.12054070D+05 0.12054070D+05 0.12054070D+05 0.12587953D+01  1  2  5  4  5  2        1 -.126683721839D-02 0.100000000000D+01
  </mgrwgt>
  </event>
  <event>
  5     66 0.46019439E-03 0.15533255E+03 0.75467711E-02 0.11388658E+00
       21 -1    0    0  502  501 0.00000000E+00 0.00000000E+00 0.29247780E+03 0.29247877E+03 0.75000000E+00 0.0000E+00 0.9000E+01
        1 -1    0    0  501    0 0.00000000E+00 0.00000000E+00 -.26695836E+03 0.26695855E+03 0.32000000E+00 0.0000E+00 0.9000E+01
       25  1    1    2    0    0 0.41608118E+02 -.54049044E+02 0.16964302E+03 0.22148655E+03 0.12500000E+03 0.0000E+00 0.9000E+01
      -24  1    1    2    0    0 -.65216135E+02 0.15190155E+03 -.30831860E+02 0.18640023E+03 0.80419002E+02 0.0000E+00 0.9000E+01
        2  1    1    2  502    0 0.23608016E+02 -.97852504E+02 -.11329172E+03 0.15155054E+03 0.32000000E+00 0.0000E+00 0.9000E+01
#aMCatNLO 2  0  0  1  1 0.10066008D+03 0.00000000D+00  -5  5  0 0.00000000D+00 0.00000000D+00 0.00000000D+00 0.00000000D+00 0.00000000D+00
  <mgrwgt>
 0.5334377299D-01    1    2    0
 0.185047716021420D+03 0.000000000000000D+00 0.000000000000000D+00 0.185047716021420D+03
 0.185047716021420D+03 0.000000000000000D+00 0.000000000000000D+00 -.185047716021420D+03
 0.197419908775976D+03 0.532476975354183D+02 -.102293757295147D+03 0.100251136186744D+03
 0.172675523266864D+03 -.532476975354183D+02 0.102293757295147D+03 -.100251136186744D+03
 0.000000000000000D+00 0.000000000000000D+00 -.000000000000000D+00 -.000000000000000D+00
 0.205190364473196D+03 0.000000000000000D+00 0.000000000000000D+00 0.205190364473196D+03
 0.380522869396902D+03 0.000000000000000D+00 0.000000000000000D+00 -.380522869396902D+03
 0.174148858779908D+03 0.416081184783237D+02 -.540490442496912D+02 0.100251136186744D+03
 0.209391334514042D+03 -.652161345638823D+02 0.151901548711701D+03 -.100251136186744D+03
 0.202173040576149D+03 0.236080160855586D+02 -.978525044620102D+02 -.175332504923706D+03
0.713859436904D-04 0.000000000000D+00 0.000000000000D+00 0.160068041681D-02 0.503386245511D-07  5 21 1 25 -24 2 2 0.44996648D-01 0.41070582D-01 0.45559180D+05 0.45559180D+05 0.45559180D+05 0.11963031D+01  1  2  1  3  5  1       -2 0.533437729871D-01 0.100000000000D+01
  </mgrwgt>
  </event>
  <event>
  4     66 0.46019439E-03 0.12811404E+03 0.75467711E-02 0.11537066E+00
       -2 -1    0    0    0  501 0.00000000E+00 0.00000000E+00 0.19233531E+03 0.19233557E+03 0.32000000E+00 0.0000E+00 0.9000E+01
        1 -1    0    0  501    0 0.00000000E+00 0.00000000E+00 -.90142465E+02 0.90143033E+02 0.32000000E+00 0.0000E+00 0.9000E+01
       25  1    1    2    0    0 -.29257383E+02 -.69501477E+02 0.90156451E+02 0.17157982E+03 0.12500000E+03 0.0000E+00 0.9000E+01
      -24  1    1    2    0    0 0.29257383E+02 0.69501477E+02 0.12036392E+02 0.11089878E+03 0.80419002E+02 0.0000E+00 0.9000E+01
#aMCatNLO 1  0  0  2  1 0.11129906D+03 0.00000000D+00  -5  5  0 0.00000000D+00 0.00000000D+00 0.00000000D+00 0.00000000D+00 0.00000000D+00
  <mgrwgt>
 0.1910187377D+00    3    2    0
 0.131672687085161D+03 0.000000000000000D+00 0.000000000000000D+00 0.131672687085161D+03
 0.131672687085161D+03 0.000000000000000D+00 0.000000000000000D+00 -.131672687085161D+03
 0.149060089606434D+03 -.292573831733757D+02 -.695014765563952D+02 0.301240867049161D+02
 0.114285284563887D+03 0.292573831733757D+02 0.695014765563952D+02 -.301240867049161D+02
 0.000000000000000D+00 -.000000000000000D+00 -.000000000000000D+00 0.000000000000000D+00
 0.225292093290723D+03 0.000000000000000D+00 0.000000000000000D+00 0.225292093290723D+03
 0.180559111224644D+03 0.000000000000000D+00 0.000000000000000D+00 -.180559111224644D+03
 0.131843782392704D+03 -.262699561396359D+02 -.126574784309856D+02 0.301240867049161D+02
 0.154055266368368D+03 0.321111986455458D+02 0.123803148034285D+03 -.301240867049161D+02
 0.119952155754296D+03 -.584124250590989D+01 -.111145669603300D+03 0.447329820660784D+02
0.515635816604D-03 0.000000000000D+00 0.000000000000D+00 0.247762347414D-02 0.000000000000D+00  5 -2 1 25 -24 21 0 0.29590111D-01 0.13868136D-01 0.16413207D+05 0.16413207D+05 0.16413207D+05 0.12433893D+01  1  2  2  2  5  2        1 0.187136031547D+00 0.100000000000D+01
-.286202884398D-04 0.000000000000D+00 -.198017730579D-05 0.247762347414D-02 0.000000000000D+00  5 -2 1 25 -24 21 2 0.29590111D-01 0.13868136D-01 0.16413207D+05 0.16413207D+05 0.16413207D+05 0.12433893D+01  1  2  3  2  5  2        1 -.160584128979D-01 0.100000000000D+01
0.355402855584D-04 0.000000000000D+00 0.000000000000D+00 0.247762347414D-02 0.000000000000D+00  5 -2 1 25 -24 21 2 0.29590111D-01 0.13868136D-01 0.16413207D+05 0.16413207D+05 0.16413207D+05 0.12433893D+01  1  2 15  2  5  2        1 0.199411190843D-01 0.100000000000D+01
  </mgrwgt>
  </event>
  <event>
  4     66 0.46019439E-03 0.56451166E+02 0.75467711E-02 0.12507780E+00
       -4 -1    0    0    0  501 0.00000000E+00 0.00000000E+00 0.58483819E+01 0.60502951E+01 0.15500000E+01 0.0000E+00 0.9000E+01
        3 -1    0    0  501    0 0.00000000E+00 0.00000000E+00 -.19924302E+04 0.19924303E+04 0.50000000E+00 0.0000E+00 0.9000E+01
       25  1    1    2    0    0 0.14614836E+02 -.22512436E+02 -.97384977E+03 0.98220608E+03 0.12500000E+03 0.0000E+00 0.9000E+01
      -24  1    1    2    0    0 -.14614836E+02 0.22512436E+02 -.10127321E+04 0.10162745E+04 0.80419002E+02 0.0000E+00 0.9000E+01
#aMCatNLO 1  0  0  2  1 0.17547906D+02 0.00000000D+00  -5  5  0 0.00000000D+00 0.00000000D+00 0.00000000D+00 0.00000000D+00 0.00000000D+00
  <mgrwgt>
 0.2140883733D-01    9    2    0
 0.108877477165094D+03 0.000000000000000D+00 0.000000000000000D+00 0.108877477165094D+03
 0.108877477165094D+03 0.000000000000000D+00 0.000000000000000D+00 -.108877477165094D+03
 0.129905205498070D+03 0.146148358481700D+02 -.225124358375835D+02 0.230208431923214D+02
 0.878497488321182D+02 -.146148358481700D+02 0.225124358375835D+02 -.230208431923214D+02
 0.000000000000000D+00 0.000000000000000D+00 0.000000000000000D+00 -.000000000000000D+00
 0.115775510693812D+03 0.000000000000000D+00 0.000000000000000D+00 0.115775510693812D+03
 0.120992285018206D+03 0.000000000000000D+00 0.000000000000000D+00 -.120992285018206D+03
 0.129151598225092D+03 0.419362227748258D+01 -.225297499986995D+02 0.230208431923214D+02
 0.893092658806500D+02 -.217415042149551D+02 0.225005953466958D+02 -.230208431923214D+02
 0.183069316062761D+02 0.175478819374725D+02 0.291546520037043D-01 -.521677432439471D+01
0.334427544338D-03 0.000000000000D+00 0.000000000000D+00 0.292933246340D-02 0.000000000000D+00  5 -4 3 25 -24 21 0 0.91528767D-03 0.30654326D+00 0.11302770D+05 0.11302770D+05 0.11302770D+05 0.12620823D+01  1  2  2  2  5  2        3 0.916978405352D-02 0.100000000000D+01
-.185664890055D-04 0.000000000000D+00 -.128428982705D-05 0.292933246340D-02 0.000000000000D+00  5 -4 3 25 -24 21 2 0.91528767D-03 0.30654326D+00 0.11302770D+05 0.11302770D+05 0.11302770D+05 0.12620823D+01  1  2  3  2  5  2        3 -.810890501766D-03 0.100000000000D+01
0.231102115266D-04 0.000000000000D+00 0.000000000000D+00 0.292933246340D-02 0.000000000000D+00  5 -4 3 25 -24 21 2 0.91528767D-03 0.30654326D+00 0.11302770D+05 0.11302770D+05 0.11302770D+05 0.12620823D+01  1  2 15  2  5  2        3 0.100933736127D-02 0.100000000000D+01
0.499633833093D-03 0.000000000000D+00 0.000000000000D+00 0.292933246340D-02 0.000000000000D+00  5 -4 3 25 -24 21 2 0.91528767D-03 0.34949920D+00 0.13331304D+05 0.13331304D+05 0.13331304D+05 0.12537041D+01  1  2 12  2  5  2        3 0.131575357087D-01 0.100000000000D+01
-.462098803491D-03 0.000000000000D+00 0.000000000000D+00 0.292933246340D-02 0.000000000000D+00  5 -4 3 25 -24 21 2 0.91528767D-03 0.30654326D+00 0.11302770D+05 0.11302770D+05 0.11302770D+05 0.12620823D+01  1  2  4  2  5  2        3 -.201821427044D-01 0.100000000000D+01
-.145540976529D-02 0.000000000000D+00 -.312891497685D-03 0.292933246340D-02 0.000000000000D+00  5 -4 3 25 -24 21 2 0.91528767D-03 0.34996664D+00 0.11302770D+05 0.11302770D+05 0.11302770D+05 0.12620823D+01  1  2  5  2  5  2        3 -.382761730286D-01 0.100000000000D+01
0.148652326045D-02 0.000000000000D+00 0.310165706841D-03 0.292933246340D-02 0.000000000000D+00  5 -4 3 25 -24 21 2 0.91528767D-03 0.30654326D+00 0.11302770D+05 0.11302770D+05 0.11302770D+05 0.12620823D+01  1  2  6  2  5  2        3 0.649238308977D-01 0.100000000000D+01
0.102093289857D-04 0.000000000000D+00 0.000000000000D+00 0.292933246340D-02 0.000000000000D+00  5 -4 21 25 -24 -3 2 0.91528767D-03 0.34949920D+00 0.13331304D+05 0.13331304D+05 0.13331304D+05 0.12537041D+01  1  2 12  4  5  2        3 0.419723742663D-02 0.100000000000D+01
-.282555181708D-04 0.000000000000D+00 -.644741232464D-05 0.292933246340D-02 0.000000000000D+00  5 -4 21 25 -24 -3 2 0.91528767D-03 0.34996664D+00 0.11302770D+05 0.11302770D+05 0.11302770D+05 0.12620823D+01  1  2  5  4  5  2        3 -.117796818869D-01 0.100000000000D+01
  </mgrwgt>
  </event>
  <event>
  4     66 0.46019439E-03 0.13438784E+03 0.75467711E-02 0.11069961E+00
       -4 -1    0    0    0  501 0.00000000E+00 0.00000000E+00 0.39881665E+03 0.39881967E+03 0.15500000E+01 0.0000E+00 0.9000E+01
        3 -1    0    0  501    0 0.00000000E+00 0.00000000E+00 -.61844026E+02 0.61846047E+02 0.50000000E+00 0.0000E+00 0.9000E+01
       25  1    1    2    0    0 -.82110378E+02 0.23708630E+02 0.30261810E+03 0.33838872E+03 0.12500000E+03 0.0000E+00 0.9000E+01
      -24  1    1    2    0    0 0.82110378E+02 -.23708630E+02 0.34354530E+02 0.12227699E+03 0.80419002E+02 0.0000E+00 0.9000E+01
#aMCatNLO 1  0  0  2  1 0.19497874D+03 0.00000000D+00  -5  5  0 0.00000000D+00 0.00000000D+00 0.00000000D+00 0.00000000D+00 0.00000000D+00
  <mgrwgt>
 0.6320010313D-01    3    2    0
 0.157052815469231D+03 0.000000000000000D+00 0.000000000000000D+00 0.157052815469231D+03
 0.157052815469231D+03 0.000000000000000D+00 0.000000000000000D+00 -.157052815469231D+03
 0.171630370189069D+03 -.821103776206930D+02 0.237086296114902D+02 0.807946207378262D+02
 0.142475260749392D+03 0.821103776206930D+02 -.237086296114902D+02 -.807946207378262D+02
 0.000000000000000D+00 0.000000000000000D+00 -.000000000000000D+00 0.000000000000000D+00
 0.106767936677351D+04 0.000000000000000D+00 0.000000000000000D+00 0.106767936677351D+04
 0.195616248501741D+03 0.000000000000000D+00 0.000000000000000D+00 -.195616248501741D+03
 0.247900517393709D+03 -.164880872434025D+03 0.110073583067393D+03 0.807946207378262D+02
 0.121800788229648D+03 0.299705710206568D+02 0.306954425203410D+02 -.807946207378262D+02
 0.893594309651890D+03 0.134910301413368D+03 -.140769025587733D+03 0.872063118271764D+03
0.155640530383D-02 0.000000000000D+00 0.000000000000D+00 0.178228255786D-02 0.000000000000D+00  5 -4 3 25 -24 21 0 0.61356795D-01 0.95148527D-02 0.18060092D+05 0.18060092D+05 0.18060092D+05 0.12387342D+01  1  2  2  2  5  2        3 0.617738323750D-01 0.100000000000D+01
-.839133340824D-04 0.000000000000D+00 -.597700617762D-05 0.178228255786D-02 0.000000000000D+00  5 -4 3 25 -24 21 2 0.61356795D-01 0.95148527D-02 0.18060092D+05 0.18060092D+05 0.18060092D+05 0.12387342D+01  1  2  3  2  5  2        3 -.511056706833D-02 0.100000000000D+01
0.107332092243D-03 0.000000000000D+00 0.000000000000D+00 0.178228255786D-02 0.000000000000D+00  5 -4 3 25 -24 21 2 0.61356795D-01 0.95148527D-02 0.18060092D+05 0.18060092D+05 0.18060092D+05 0.12387342D+01  1  2 15  2  5  2        3 0.653683782190D-02 0.100000000000D+01
  </mgrwgt>
  </event>
  <event>
  4     66 0.46019439E-03 0.79112750E+02 0.75467711E-02 0.11649654E+00
       -2 -1    0    0    0  501 0.00000000E+00 0.00000000E+00 0.21152644E+03 0.21152669E+03 0.32000000E+00 0.0000E+00 0.9000E+01
        1 -1    0    0  501    0 0.00000000E+00 0.00000000E+00 -.15268190E+03 0.15268223E+03 0.32000000E+00 0.0000E+00 0.9000E+01
       25  1    1    2    0    0 -.49111937E+02 0.12611562E+03 -.24869233E+02 0.18590484E+03 0.12500000E+03 0.0000E+00 0.9000E+01
      -24  1    1    2    0    0 0.49111937E+02 -.12611562E+03 0.83713779E+02 0.17830408E+03 0.80419002E+02 0.0000E+00 0.9000E+01
#aMCatNLO 1  0  0  1  2 0.23589894D+02 0.00000000D+00  -5  5  0 0.00000000D+00 0.00000000D+00 0.00000000D+00 0.00000000D+00 0.00000000D+00
  <mgrwgt>
 0.1894698555D+00    9    2    0
 0.179711892839652D+03 0.000000000000000D+00 0.000000000000000D+00 0.179711892839652D+03
 0.179711892839652D+03 0.000000000000000D+00 0.000000000000000D+00 -.179711892839652D+03
 0.192451428188323D+03 -.491119365487641D+02 0.126115619305649D+03 -.556365030111361D+02
 0.166972357490980D+03 0.491119365487641D+02 -.126115619305649D+03 0.556365030111361D+02
 0.000000000000000D+00 -.000000000000000D+00 -.000000000000000D+00 0.000000000000000D+00
 0.202495866156705D+03 0.000000000000000D+00 0.000000000000000D+00 0.202495866156705D+03
 0.186310034160587D+03 0.000000000000000D+00 0.000000000000000D+00 -.186310034160587D+03
 0.199763611404237D+03 -.451868758609656D+02 0.138359048218324D+03 -.556365030111361D+02
 0.160433474657986D+03 0.523884242685079D+02 -.115895281922168D+03 0.556365030111361D+02
 0.286088142550695D+02 -.720154840754223D+01 -.224637662961561D+02 0.161858319961186D+02
0.921430806988D-03 0.000000000000D+00 0.000000000000D+00 0.203388965720D-02 0.000000000000D+00  5 -2 1 25 -24 21 0 0.32542574D-01 0.23489567D-01 0.29183633D+05 0.29183633D+05 0.29183633D+05 0.12161580D+01  1  2  2  1  5  1       -2 0.145229164817D+00 0.100000000000D+01
-.510307807252D-04 0.000000000000D+00 -.353853691714D-05 0.203388965720D-02 0.000000000000D+00  5 -2 1 25 -24 21 2 0.32542574D-01 0.23489567D-01 0.29183633D+05 0.29183633D+05 0.29183633D+05 0.12161580D+01  1  2  3  1  5  1       -2 -.118960640722D-01 0.100000000000D+01
0.634148929870D-04 0.000000000000D+00 0.000000000000D+00 0.203388965720D-02 0.000000000000D+00  5 -2 1 25 -24 21 2 0.32542574D-01 0.23489567D-01 0.29183633D+05 0.29183633D+05 0.29183633D+05 0.12161580D+01  1  2 15  1  5  1       -2 0.147829921350D-01 0.100000000000D+01
0.175230083543D-02 0.000000000000D+00 0.000000000000D+00 0.203388965720D-02 0.000000000000D+00  5 -2 1 25 -24 21 2 0.37212702D-01 0.23489567D-01 0.33475630D+05 0.33475630D+05 0.33475630D+05 0.12099333D+01  1  2 12  1  5  1       -2 0.315990246823D+00 0.100000000000D+01
-.175168837843D-02 0.000000000000D+00 0.000000000000D+00 0.203388965720D-02 0.000000000000D+00  5 -2 1 25 -24 21 2 0.32542574D-01 0.23489567D-01 0.29183633D+05 0.29183633D+05 0.29183633D+05 0.12161580D+01  1  2  4  1  5  1       -2 -.408345647239D+00 0.100000000000D+01
-.377627939376D-02 0.000000000000D+00 -.734916754310D-03 0.203388965720D-02 0.000000000000D+00  5 -2 1 25 -24 21 2 0.37829091D-01 0.23489567D-01 0.29183633D+05 0.29183633D+05 0.29183633D+05 0.12161580D+01  1  2  5  1  5  1       -2 -.665728993694D+00 0.100000000000D+01
0.385143679989D-02 0.000000000000D+00 0.726668392844D-03 0.203388965720D-02 0.000000000000D+00  5 -2 1 25 -24 21 2 0.32542574D-01 0.23489567D-01 0.29183633D+05 0.29183633D+05 0.29183633D+05 0.12161580D+01  1  2  6  1  5  1       -2 0.897829472536D+00 0.100000000000D+01
0.364727180032D-04 0.000000000000D+00 0.000000000000D+00 0.203388965720D-02 0.000000000000D+00  5 21 1 25 -24 2 2 0.37212702D-01 0.23489567D-01 0.33475630D+05 0.33475630D+05 0.33475630D+05 0.12099333D+01  1  2 12  3  5  1       -2 0.832855319666D-01 0.100000000000D+01
-.812533641502D-04 0.000000000000D+00 -.168120067596D-04 0.203388965720D-02 0.000000000000D+00  5 21 1 25 -24 2 2 0.37829091D-01 0.23489567D-01 0.29183633D+05 0.29183633D+05 0.29183633D+05 0.12161580D+01  1  2  5  3  5  1       -2 -.181676847815D+00 0.100000000000D+01
  </mgrwgt>
  </event>
  <event>
  4     66 0.46019439E-03 0.10532740E+03 0.75467711E-02 0.11562116E+00
       -2 -1    0    0    0  501 0.00000000E+00 0.00000000E+00 0.17305729E+03 0.17305759E+03 0.32000000E+00 0.0000E+00 0.9000E+01
        1 -1    0    0  501    0 0.00000000E+00 0.00000000E+00 -.78823840E+02 0.78824489E+02 0.32000000E+00 0.0000E+00 0.9000E+01
       25  1    1    2    0    0 0.21764733E+02 -.68208085E+01 0.10849658E+03 0.16708302E+03 0.12500000E+03 0.0000E+00 0.9000E+01
      -24  1    1    2    0    0 -.21764733E+02 0.68208085E+01 -.14263131E+02 0.84799056E+02 0.80419002E+02 0.0000E+00 0.9000E+01
#aMCatNLO 1  0  0  2  2 0.13488063D+03 0.00000000D+00  -5  5  0 0.00000000D+00 0.00000000D+00 0.00000000D+00 0.00000000D+00 0.00000000D+00
  <mgrwgt>
 0.2355179794D+00    3    2    0
 0.116795372996652D+03 0.000000000000000D+00 0.000000000000000D+00 0.116795372996652D+03
 0.116795372996652D+03 0.000000000000000D+00 0.000000000000000D+00 -.116795372996652D+03
 0.136397570863454D+03 0.217647332083904D+02 -.682080848429873D+01 0.495890138784705D+02
 0.971931751298494D+02 -.217647332083904D+02 0.682080848429873D+01 -.495890138784705D+02
 0.000000000000000D+00 -.000000000000000D+00 -.000000000000000D+00 0.000000000000000D+00
 0.309581011204093D+03 0.000000000000000D+00 0.000000000000000D+00 0.309581011204093D+03
 0.160900291093200D+03 0.000000000000000D+00 0.000000000000000D+00 -.160900291093200D+03
 0.157910959751870D+03 0.476682942261991D+02 0.676722589979229D+02 0.495890138784705D+02
 0.111824877414291D+03 -.336801237063298D+01 0.597258189528008D+02 -.495890138784705D+02
 0.200745465131133D+03 -.443002818555662D+02 -.127398077950724D+03 0.148680720110893D+03
0.448563536255D-03 0.000000000000D+00 0.000000000000D+00 0.240766652732D-02 0.000000000000D+00  5 -2 1 25 -24 21 0 0.26624271D-01 0.12126817D-01 0.11093861D+05 0.11093861D+05 0.11093861D+05 0.12630402D+01  1  2  2  2  5  2        1 0.230475120897D+00 0.100000000000D+01
-.245965633868D-04 0.000000000000D+00 -.172260208871D-05 0.240766652732D-02 0.000000000000D+00  5 -2 1 25 -24 21 2 0.26624271D-01 0.12126817D-01 0.11093861D+05 0.11093861D+05 0.11093861D+05 0.12630402D+01  1  2  3  2  5  2        1 -.201608499203D-01 0.100000000000D+01
0.307489323666D-04 0.000000000000D+00 0.000000000000D+00 0.240766652732D-02 0.000000000000D+00  5 -2 1 25 -24 21 2 0.26624271D-01 0.12126817D-01 0.11093861D+05 0.11093861D+05 0.11093861D+05 0.12630402D+01  1  2 15  2  5  2        1 0.252037083760D-01 0.100000000000D+01
  </mgrwgt>
  </event>
  <event>
  4     66 0.46019439E-03 0.10348059E+03 0.75467711E-02 0.12396547E+00
       -2 -1    0    0    0  501 0.00000000E+00 0.00000000E+00 0.42522016E+01 0.42642255E+01 0.32000000E+00 0.0000E+00 0.9000E+01
        1 -1    0    0  501    0 0.00000000E+00 0.00000000E+00 -.25692865E+04 0.25692866E+04 0.32000000E+00 0.0000E+00 0.9000E+01
       25  1    1    2    0    0 0.15542708E+01 -.12214670E+02 -.13676032E+04 0.13733590E+04 0.12500000E+03 0.0000E+00 0.9000E+01
      -24  1    1    2    0    0 -.15542708E+01 0.12214670E+02 -.11974312E+04 0.12001918E+04 0.80419002E+02 0.0000E+00 0.9000E+01
#aMCatNLO 1  0  0  1  1 0.34405062D+02 0.00000000D+00  -5  5  0 0.00000000D+00 0.00000000D+00 0.00000000D+00 0.00000000D+00 0.00000000D+00
  <mgrwgt>
 0.2160685643D+00    4    2    0
 0.104597428317856D+03 0.000000000000000D+00 0.000000000000000D+00 0.104597428317856D+03
 0.104597428317856D+03 0.000000000000000D+00 0.000000000000000D+00 -.104597428317856D+03
 0.126485595629676D+03 0.155427081647742D+01 -.122146703333486D+02 0.148993950437801D+02
 0.827092610060354D+02 -.155427081647742D+01 0.122146703333486D+02 -.148993950437801D+02
 0.000000000000000D+00 0.000000000000000D+00 -.000000000000000D+00 -.000000000000000D+00
 0.115591818222293D+03 0.000000000000000D+00 0.000000000000000D+00 0.115591818222293D+03
 0.136862953276198D+03 0.000000000000000D+00 0.000000000000000D+00 -.136862953276198D+03
 0.126464521702207D+03 -.114753595194390D+02 0.382091619864923D+01 0.148993950437801D+02
 0.855406582223669D+02 -.102209370932815D+02 0.228807501408895D+02 -.148993950437801D+02
 0.404495915739168D+02 0.216962966127205D+02 -.267016663395387D+02 -.212711350539052D+02
0.541012476782D-03 0.000000000000D+00 0.000000000000D+00 0.312360029162D-02 0.000000000000D+00  5 -2 1 25 -24 21 0 0.65511131D-03 0.39527578D+00 0.10708233D+05 0.10708233D+05 0.10708233D+05 0.12648628D+01  1  2  2  1  5  1       -2 0.263310656044D+00 0.100000000000D+01
-.300520374544D-04 0.000000000000D+00 -.207763036270D-05 0.312360029162D-02 0.000000000000D+00  5 -2 1 25 -24 21 2 0.65511131D-03 0.39527578D+00 0.10708233D+05 0.10708233D+05 0.10708233D+05 0.12648628D+01  1  2  3  1  5  1       -2 -.234003272096D-01 0.100000000000D+01
0.371056573548D-04 0.000000000000D+00 0.000000000000D+00 0.312360029162D-02 0.000000000000D+00  5 -2 1 25 -24 21 2 0.65511131D-03 0.39527578D+00 0.10708233D+05 0.10708233D+05 0.10708233D+05 0.12648628D+01  1  2 15  1  5  1       -2 0.288927006944D-01 0.100000000000D+01
-.677246138627D-04 0.000000000000D+00 0.000000000000D+00 0.312360029162D-02 0.000000000000D+00  5 -2 1 25 -24 21 2 0.65511131D-03 0.39527578D+00 0.10708233D+05 0.10708233D+05 0.10708233D+05 0.12648628D+01  1  2  4  1  5  1       -2 -.527344652399D-01 0.100000000000D+01
  </mgrwgt>
  </event>
  <event>
  4     66 0.46019439E-03 0.32195898E+03 0.75467711E-02 0.10660237E+00
       -2 -1    0    0    0  501 0.00000000E+00 0.00000000E+00 0.12789481E+03 0.12789521E+03 0.32000000E+00 0.0000E+00 0.9000E+01
        1 -1    0    0  501    0 0.00000000E+00 0.00000000E+00 -.94119195E+03 0.94119201E+03 0.32000000E+00 0.0000E+00 0.9000E+01
       25  1    1    2    0    0 0.50922637E+02 -.30011485E+03 -.61353954E+03 0.69621678E+03 0.12500000E+03 0.0000E+00 0.9000E+01
      -24  1    1    2    0    0 -.50922637E+02 0.30011485E+03 -.19975761E+03 0.37287043E+03 0.80419002E+02 0.0000E+00 0.9000E+01
#aMCatNLO 1  0  0  1  1 0.38786198D+02 0.00000000D+00  -5  5  0 0.00000000D+00 0.00000000D+00 0.00000000D+00 0.00000000D+00 0.00000000D+00
  <mgrwgt>
 0.3306093719D+00    4    2    0
 0.346949282675018D+03 0.000000000000000D+00 0.000000000000000D+00 0.346949282675018D+03
 0.346949282675018D+03 0.000000000000000D+00 0.000000000000000D+00 -.346949282675018D+03
 0.353548074272901D+03 0.509226367374875D+02 -.300114853450639D+03 -.129264073230269D+03
 0.340350491077135D+03 -.509226367374875D+02 0.300114853450639D+03 0.129264073230269D+03
 0.000000000000000D+00 0.000000000000000D+00 0.000000000000000D+00 -.000000000000000D+00
 0.349008713689515D+03 0.000000000000000D+00 0.000000000000000D+00 0.349008713689515D+03
 0.595269701290827D+03 0.000000000000000D+00 0.000000000000000D+00 -.595269701290827D+03
 0.370026965240921D+03 0.470772681375445D+02 -.319952317075578D+03 -.129264073230269D+03
 0.324954752627519D+03 -.544583362210384D+02 0.281874908937986D+03 0.129264073230269D+03
 0.249296697111902D+03 0.738106808349385D+01 0.380774081375926D+02 -.246260987601312D+03
0.978976998265D-02 0.000000000000D+00 0.000000000000D+00 0.170947970755D-02 0.000000000000D+00  5 -2 1 25 -24 21 0 0.19676159D-01 0.14479880D+00 0.10365758D+06 0.10365758D+06 0.10365758D+06 0.11621412D+01  1  2  2  1  5  1       -2 0.330132965917D+00 0.100000000000D+01
-.540180757422D-03 0.000000000000D+00 -.375952944390D-04 0.170947970755D-02 0.000000000000D+00  5 -2 1 25 -24 21 2 0.19676159D-01 0.14479880D+00 0.10365758D+06 0.10365758D+06 0.10365758D+06 0.11621412D+01  1  2  3  1  5  1       -2 -.246021650212D-01 0.100000000000D+01
0.669535594010D-03 0.000000000000D+00 0.000000000000D+00 0.170947970755D-02 0.000000000000D+00  5 -2 1 25 -24 21 2 0.19676159D-01 0.14479880D+00 0.10365758D+06 0.10365758D+06 0.10365758D+06 0.11621412D+01  1  2 15  1  5  1       -2 0.304935430318D-01 0.100000000000D+01
-.118894564127D-03 0.000000000000D+00 0.000000000000D+00 0.170947970755D-02 0.000000000000D+00  5 -2 1 25 -24 21 2 0.19676159D-01 0.14479880D+00 0.10365758D+06 0.10365758D+06 0.10365758D+06 0.11621412D+01  1  2  4  1  5  1       -2 -.541497201922D-02 0.100000000000D+01
  </mgrwgt>
  </event>
  <event>
  4     66 0.46019439E-03 0.78336365E+02 0.75467711E-02 0.12034496E+00
       -2 -1    0    0    0  501 0.00000000E+00 0.00000000E+00 0.82108025E+01 0.82170358E+01 0.32000000E+00 0.0000E+00 0.9000E+01
        1 -1    0    0  501    0 0.00000000E+00 0.00000000E+00 -.18856671E+04 0.18856671E+04 0.32000000E+00 0.0000E+00 0.9000E+01
       25  1    1    2    0    0 -.61223504E+02 -.12069466E+02 -.85086542E+03 0.86225922E+03 0.12500000E+03 0.0000E+00 0.9000E+01
      -24  1    1    2    0    0 0.61223504E+02 0.12069466E+02 -.10265909E+04 0.10316250E+04 0.80419002E+02 0.0000E+00 0.9000E+01
#aMCatNLO 1  0  0  2  1 0.48707036D+02 0.00000000D+00  -5  5  0 0.00000000D+00 0.00000000D+00 0.00000000D+00 0.00000000D+00 0.00000000D+00
  <mgrwgt>
 0.3436141369D+00    9    2    0
 0.124453881062166D+03 0.000000000000000D+00 0.000000000000000D+00 0.124453881062166D+03
 0.124453881062166D+03 0.000000000000000D+00 0.000000000000000D+00 -.124453881062166D+03
 0.142849820119010D+03 -.612235037152679D+02 -.120694660947782D+02 0.297839166169782D+02
 0.106057942005321D+03 0.612235037152679D+02 0.120694660947782D+02 -.297839166169782D+02
 0.000000000000000D+00 -.000000000000000D+00 -.000000000000000D+00 -.000000000000000D+00
 0.142389748136948D+03 0.000000000000000D+00 0.000000000000000D+00 0.142389748136948D+03
 0.164893007244003D+03 0.000000000000000D+00 0.000000000000000D+00 -.164893007244003D+03
 0.135404502726459D+03 -.421165791006579D+02 0.696357913795359D+01 0.297839166169782D+02
 0.118224063146970D+03 0.766243043965868D+02 0.274107175991512D+02 -.297839166169782D+02
 0.536541895075221D+02 -.345077252959289D+02 -.343742967371048D+02 -.225032591070551D+02
0.386068325122D-03 0.000000000000D+00 0.000000000000D+00 0.256910319453D-02 0.000000000000D+00  5 -2 1 25 -24 21 0 0.12636820D-02 0.29010311D+00 0.14580609D+05 0.14580609D+05 0.14580609D+05 0.12492290D+01  1  2  2  2  5  2        1 0.202438819457D+00 0.100000000000D+01
-.214244383095D-04 0.000000000000D+00 -.148260402259D-05 0.256910319453D-02 0.000000000000D+00  5 -2 1 25 -24 21 2 0.12636820D-02 0.29010311D+00 0.14580609D+05 0.14580609D+05 0.14580609D+05 0.12492290D+01  1  2  3  2  5  2        1 -.175316650866D-01 0.100000000000D+01
0.266894641147D-04 0.000000000000D+00 0.000000000000D+00 0.256910319453D-02 0.000000000000D+00  5 -2 1 25 -24 21 2 0.12636820D-02 0.29010311D+00 0.14580609D+05 0.14580609D+05 0.14580609D+05 0.12492290D+01  1  2 15  2  5  2        1 0.218400473068D-01 0.100000000000D+01
0.231465873539D-03 0.000000000000D+00 0.000000000000D+00 0.256910319453D-02 0.000000000000D+00  5 -2 1 25 -24 21 2 0.12636820D-02 0.39990018D+00 0.21786664D+05 0.21786664D+05 0.21786664D+05 0.12297558D+01  1  2 12  2  5  2        1 0.639773891076D-01 0.100000000000D+01
-.278164591749D-03 0.000000000000D+00 0.000000000000D+00 0.256910319453D-02 0.000000000000D+00  5 -2 1 25 -24 21 2 0.12636820D-02 0.29010311D+00 0.14580609D+05 0.14580609D+05 0.14580609D+05 0.12492290D+01  1  2  4  2  5  2        1 -.227622698484D+00 0.100000000000D+01
-.500070074986D-03 0.000000000000D+00 -.169860293246D-03 0.256910319453D-02 0.000000000000D+00  5 -2 1 25 -24 21 2 0.12636820D-02 0.40441875D+00 0.14580609D+05 0.14580609D+05 0.14580609D+05 0.12492290D+01  1  2  5  2  5  2        1 -.136657920476D+00 0.100000000000D+01
0.535630366962D-03 0.000000000000D+00 0.160899385543D-03 0.256910319453D-02 0.000000000000D+00  5 -2 1 25 -24 21 2 0.12636820D-02 0.29010311D+00 0.14580609D+05 0.14580609D+05 0.14580609D+05 0.12492290D+01  1  2  6  2  5  2        1 0.438307509778D+00 0.100000000000D+01
0.939439814527D-05 0.000000000000D+00 0.000000000000D+00 0.256910319453D-02 0.000000000000D+00  5 -2 21 25 -24 -1 2 0.12636820D-02 0.39990018D+00 0.21786664D+05 0.21786664D+05 0.21786664D+05 0.12297558D+01  1  2 12  4  5  2        1 0.151211930704D-02 0.100000000000D+01
-.163572534899D-04 0.000000000000D+00 -.706703377590D-05 0.256910319453D-02 0.000000000000D+00  5 -2 21 25 -24 -1 2 0.12636820D-02 0.40441875D+00 0.14580609D+05 0.14580609D+05 0.14580609D+05 0.12492290D+01  1  2  5  4  5  2        1 -.264946396791D-02 0.100000000000D+01
  </mgrwgt>
  </event>
  <event>
  4     66 0.46019439E-03 0.71601987E+02 0.75467711E-02 0.11100099E+00
       -2 -1    0    0    0  501 0.00000000E+00 0.00000000E+00 0.47030354E+03 0.47030365E+03 0.32000000E+00 0.0000E+00 0.9000E+01
        1 -1    0    0  501    0 0.00000000E+00 0.00000000E+00 -.98633921E+02 0.98634440E+02 0.32000000E+00 0.0000E+00 0.9000E+01
       25  1    1    2    0    0 -.76263241E+02 -.16779804E+03 0.14414894E+03 0.26528510E+03 0.12500000E+03 0.0000E+00 0.9000E+01
      -24  1    1    2    0    0 0.76263241E+02 0.16779804E+03 0.22752068E+03 0.30365299E+03 0.80419002E+02 0.0000E+00 0.9000E+01
#aMCatNLO 1  0  0  2  1 0.79396061D+02 0.00000000D+00  -5  5  0 0.00000000D+00 0.00000000D+00 0.00000000D+00 0.00000000D+00 0.00000000D+00
  <mgrwgt>
 0.1918536413D+00    9    2    0
 0.215378877076094D+03 0.000000000000000D+00 0.000000000000000D+00 0.215378877076094D+03
 0.215378877076094D+03 0.000000000000000D+00 0.000000000000000D+00 -.215378877076094D+03
 0.226008731045472D+03 -.762632409808514D+02 -.167798042441998D+03 -.385056039624670D+02
 0.204749023106717D+03 0.762632409808514D+02 0.167798042441998D+03 0.385056039624670D+02
 0.000000000000000D+00 -.000000000000000D+00 -.000000000000000D+00 -.000000000000000D+00
 0.228775067002891D+03 0.000000000000000D+00 0.000000000000000D+00 0.228775067002891D+03
 0.380339391003934D+03 0.000000000000000D+00 0.000000000000000D+00 -.380339391003934D+03
 0.208141758189372D+03 -.379747739854614D+02 -.157395128598065D+03 -.385056039624670D+02
 0.229871914274888D+03 0.114593197595134D+03 0.178212228947509D+03 0.385056039624670D+02
 0.171100785542566D+03 -.766184236096725D+02 -.208171003494432D+02 -.151564324001043D+03
0.333114164600D-02 0.000000000000D+00 0.000000000000D+00 0.205893756827D-02 0.000000000000D+00  5 -2 1 25 -24 21 0 0.72354439D-01 0.15174498D-01 0.44901639D+05 0.44901639D+05 0.44901639D+05 0.11969354D+01  1  2  2  2  5  2        1 0.190072747085D+00 0.100000000000D+01
-.185003759783D-03 0.000000000000D+00 -.127924610304D-04 0.205893756827D-02 0.000000000000D+00  5 -2 1 25 -24 21 2 0.72354439D-01 0.15174498D-01 0.44901639D+05 0.44901639D+05 0.44901639D+05 0.11969354D+01  1  2  3  2  5  2        1 -.151233751084D-01 0.100000000000D+01
0.228624260965D-03 0.000000000000D+00 0.000000000000D+00 0.205893756827D-02 0.000000000000D+00  5 -2 1 25 -24 21 2 0.72354439D-01 0.15174498D-01 0.44901639D+05 0.44901639D+05 0.44901639D+05 0.11969354D+01  1  2 15  2  5  2        1 0.186891902170D-01 0.100000000000D+01
0.647437202925D-02 0.000000000000D+00 0.000000000000D+00 0.205893756827D-02 0.000000000000D+00  5 -2 1 25 -24 21 2 0.72354439D-01 0.26947138D-01 0.65170189D+05 0.65170189D+05 0.65170189D+05 0.11810502D+01  1  2 12  2  5  2        1 0.245969698089D+00 0.100000000000D+01
-.688893786064D-02 0.000000000000D+00 0.000000000000D+00 0.205893756827D-02 0.000000000000D+00  5 -2 1 25 -24 21 2 0.72354439D-01 0.15174498D-01 0.44901639D+05 0.44901639D+05 0.44901639D+05 0.11969354D+01  1  2  4  2  5  2        1 -.563145265193D+00 0.100000000000D+01
-.778943731804D-02 0.000000000000D+00 -.141401604028D-02 0.205893756827D-02 0.000000000000D+00  5 -2 1 25 -24 21 2 0.72354439D-01 0.28143935D-01 0.44901639D+05 0.44901639D+05 0.44901639D+05 0.11969354D+01  1  2  5  2  5  2        1 -.287848304962D+00 0.100000000000D+01
0.743196388866D-02 0.000000000000D+00 0.118136848560D-02 0.205893756827D-02 0.000000000000D+00  5 -2 1 25 -24 21 2 0.72354439D-01 0.15174498D-01 0.44901639D+05 0.44901639D+05 0.44901639D+05 0.11969354D+01  1  2  6  2  5  2        1 0.607535640421D+00 0.100000000000D+01
0.409078329831D-03 0.000000000000D+00 0.000000000000D+00 0.205893756827D-02 0.000000000000D+00  5 -2 21 25 -24 -1 2 0.72354439D-01 0.26947138D-01 0.65170189D+05 0.65170189D+05 0.65170189D+05 0.11810502D+01  1  2 12  4  5  2        1 0.106964270316D+00 0.100000000000D+01
-.446245664788D-03 0.000000000000D+00 -.952404151203D-04 0.205893756827D-02 0.000000000000D+00  5 -2 21 25 -24 -1 2 0.72354439D-01 0.28143935D-01 0.44901639D+05 0.44901639D+05 0.44901639D+05 0.11969354D+01  1  2  5  4  5  2        1 -.111260959601D+00 0.100000000000D+01
  </mgrwgt>
  </event>
  <event>
  4     66 0.46019439E-03 0.11318260E+03 0.75467711E-02 0.99334640E-01
       -4 -1    0    0    0  501 0.00000000E+00 0.00000000E+00 0.10201623E+04 0.10201635E+04 0.15500000E+01 0.0000E+00 0.9000E+01
        3 -1    0    0  501    0 0.00000000E+00 0.00000000E+00 -.13697970E+02 0.13707092E+02 0.50000000E+00 0.0000E+00 0.9000E+01
       25  1    1    2    0    0 0.93371623E+01 0.45674710E+02 0.73293968E+03 0.74498251E+03 0.12500000E+03 0.0000E+00 0.9000E+01
      -24  1    1    2    0    0 -.93371623E+01 -.45674710E+02 0.27352462E+03 0.28888804E+03 0.80419002E+02 0.0000E+00 0.9000E+01
#aMCatNLO 1  0  0  1  1 0.56547520D+03 0.00000000D+00  -5  5  0 0.00000000D+00 0.00000000D+00 0.00000000D+00 0.00000000D+00 0.00000000D+00
  <mgrwgt>
 0.8258517752D-01    3    2    0
 0.118234836508428D+03 0.000000000000000D+00 0.000000000000000D+00 0.118234836508428D+03
 0.118234836508428D+03 0.000000000000000D+00 0.000000000000000D+00 -.118234836508428D+03
 0.137598385180009D+03 0.933716226199896D+01 0.456747102304566D+02 0.336890761286658D+02
 0.988712878368470D+02 -.933716226199896D+01 -.456747102304566D+02 -.336890761286658D+02
 0.000000000000000D+00 0.000000000000000D+00 -.000000000000000D+00 -.000000000000000D+00
 0.429344887408199D+03 0.000000000000000D+00 0.000000000000000D+00 0.429344887408199D+03
 0.957015545092759D+03 0.000000000000000D+00 0.000000000000000D+00 -.957015545092759D+03
 0.463457925132725D+03 -.262544397026591D+02 0.444234171258613D+03 0.336890761286658D+02
 0.149469561918342D+03 -.240426873923361D+02 0.118999703017452D+03 -.336890761286658D+02
 0.773432945449891D+03 0.502971270949951D+02 -.563233874276066D+03 -.527670657684560D+03
0.171088408073D-02 0.000000000000D+00 0.000000000000D+00 0.262097846223D-02 0.000000000000D+00  5 -4 3 25 -24 21 0 0.15694883D+00 0.21081723D-02 0.12810302D+05 0.12810302D+05 0.12810302D+05 0.12557118D+01  1  2  2  1  5  1       -4 0.808308178521D-01 0.100000000000D+01
-.948287204538D-04 0.000000000000D+00 -.657024535611D-05 0.262097846223D-02 0.000000000000D+00  5 -4 3 25 -24 21 2 0.15694883D+00 0.21081723D-02 0.12810302D+05 0.12810302D+05 0.12810302D+05 0.12557118D+01  1  2  3  1  5  1       -4 -.706441501259D-02 0.100000000000D+01
0.118378254646D-03 0.000000000000D+00 0.000000000000D+00 0.262097846223D-02 0.000000000000D+00  5 -4 3 25 -24 21 2 0.15694883D+00 0.21081723D-02 0.12810302D+05 0.12810302D+05 0.12810302D+05 0.12557118D+01  1  2 15  1  5  1       -4 0.881877468434D-02 0.100000000000D+01
  </mgrwgt>
  </event>
  <event>
  5     66 0.46019439E-03 0.11829776E+03 0.75467711E-02 0.12098648E+00
       -2 -1    0    0    0  501 0.00000000E+00 0.00000000E+00 0.39562910E+02 0.39564204E+02 0.32000000E+00 0.0000E+00 0.9000E+01
        1 -1    0    0  502    0 0.00000000E+00 0.00000000E+00 -.51484386E+03 0.51484396E+03 0.32000000E+00 0.0000E+00 0.9000E+01
       25  1    1    2    0    0 0.42891575E+02 0.26424272E+02 -.23204976E+03 0.26834683E+03 0.12500000E+03 0.0000E+00 0.9000E+01
      -24  1    1    2    0    0 -.68266466E+02 0.10098756E+02 -.17637248E+03 0.20575900E+03 0.80419002E+02 0.0000E+00 0.9000E+01
       21  1    1    2  502  501 0.25374892E+02 -.36523028E+02 -.66858703E+02 0.80302338E+02 0.75000000E+00 0.0000E+00 0.9000E+01
#aMCatNLO 2  0  0  2  1 0.44472651D+02 0.00000000D+00  -5  5  0 0.00000000D+00 0.00000000D+00 0.00000000D+00 0.00000000D+00 0.00000000D+00
  <mgrwgt>
 0.7487411818D-01    1    2    0
 0.118310805453104D+03 0.000000000000000D+00 0.000000000000000D+00 0.118310805453104D+03
 0.118310805453104D+03 0.000000000000000D+00 0.000000000000000D+00 -.118310805453104D+03
 0.137661920532063D+03 0.573729539912279D+02 0.558068243976419D+01 -.173334889822858D+01
 0.989596903741446D+02 -.573729539912279D+02 -.558068243976419D+01 0.173334889822858D+01
 0.000000000000000D+00 0.000000000000000D+00 -.000000000000000D+00 0.000000000000000D+00
 0.145018080558296D+03 0.000000000000000D+00 0.000000000000000D+00 0.145018080558296D+03
 0.140452891256952D+03 0.000000000000000D+00 0.000000000000000D+00 -.140452891256952D+03
 0.134781058811908D+03 0.428915746903515D+02 0.264242717333519D+02 -.173334889822858D+01
 0.105983563716153D+03 -.682664664788095D+02 0.100987563442181D+02 0.173334889822858D+01
 0.447063492871876D+02 0.253748917884580D+02 -.365230280775700D+02 0.456518930134405D+01
0.923641555565D-04 0.000000000000D+00 0.000000000000D+00 0.281582256196D-02 0.119387335538D-04  5 -2 1 25 -24 21 2 0.60865744D-02 0.79205107D-01 0.20336464D+05 0.20336464D+05 0.20336464D+05 0.12330292D+01  1  2  1  2  5  2        1 0.748741181834D-01 0.100000000000D+01
  </mgrwgt>
  </event>
  <event>
  4     66 0.46019439E-03 0.15851163E+03 0.75467711E-02 0.11175525E+00
       -2 -1    0    0    0  501 0.00000000E+00 0.00000000E+00 0.28251405E+02 0.28253217E+02 0.32000000E+00 0.0000E+00 0.9000E+01
        1 -1    0    0  501    0 0.00000000E+00 0.00000000E+00 -.12421629E+04 0.12421630E+04 0.32000000E+00 0.0000E+00 0.9000E+01
       25  1    1    2    0    0 -.10446432E+03 -.58100301E+02 -.30902331E+03 0.35413111E+03 0.12500000E+03 0.0000E+00 0.9000E+01
      -24  1    1    2    0    0 0.10446432E+03 0.58100301E+02 -.90488821E+03 0.91628507E+03 0.80419002E+02 0.0000E+00 0.9000E+01
#aMCatNLO 1  0  0  2  1 0.14196527D+03 0.00000000D+00  -5  5  0 0.00000000D+00 0.00000000D+00 0.00000000D+00 0.00000000D+00 0.00000000D+00
  <mgrwgt>
 0.2179721282D+00    3    2    0
 0.187333993672656D+03 0.000000000000000D+00 0.000000000000000D+00 0.187333993672656D+03
 0.187333993672656D+03 0.000000000000000D+00 0.000000000000000D+00 -.187333993672656D+03
 0.199555192647402D+03 -.104464322130303D+03 -.581003012036128D+02 0.995431329346602D+02
 0.175112794697910D+03 0.104464322130303D+03 0.581003012036128D+02 -.995431329346602D+02
 0.000000000000000D+00 0.000000000000000D+00 -.000000000000000D+00 0.000000000000000D+00
 0.293278336087605D+03 0.000000000000000D+00 0.000000000000000D+00 0.293278336087605D+03
 0.254539681522605D+03 0.000000000000000D+00 0.000000000000000D+00 -.254539681522605D+03
 0.238052092943738D+03 -.175249884722865D+03 -.205533828132797D+02 0.995431329346602D+02
 0.162610155915160D+03 0.498356405550574D+02 0.870770949699278D+02 -.995431329346602D+02
 0.147155768751312D+03 0.125414244167808D+03 -.665237121566481D+02 0.387386545650005D+02
0.940054871260D-03 0.000000000000D+00 0.000000000000D+00 0.161684617351D-02 0.000000000000D+00  5 -2 1 25 -24 21 0 0.43465126D-02 0.19110213D+00 0.25125936D+05 0.25125936D+05 0.25125936D+05 0.12230637D+01  1  2  2  2  5  2        1 0.213170181118D+00 0.100000000000D+01
-.504529843676D-04 0.000000000000D+00 -.361005822777D-05 0.161684617351D-02 0.000000000000D+00  5 -2 1 25 -24 21 2 0.43465126D-02 0.19110213D+00 0.25125936D+05 0.25125936D+05 0.25125936D+05 0.12230637D+01  1  2  3  2  5  2        1 -.171142668220D-01 0.100000000000D+01
0.646091596126D-04 0.000000000000D+00 0.000000000000D+00 0.161684617351D-02 0.000000000000D+00  5 -2 1 25 -24 21 2 0.43465126D-02 0.19110213D+00 0.25125936D+05 0.25125936D+05 0.25125936D+05 0.12230637D+01  1  2 15  2  5  2        1 0.219162138893D-01 0.100000000000D+01
  </mgrwgt>
  </event>
  <event>
  4     66 0.46019439E-03 0.13119297E+03 0.75467711E-02 0.11555148E+00
       -2 -1    0    0    0  501 0.00000000E+00 0.00000000E+00 0.28673915E+02 0.28675700E+02 0.32000000E+00 0.0000E+00 0.9000E+01
        1 -1    0    0  501    0 0.00000000E+00 0.00000000E+00 -.64781324E+03 0.64781332E+03 0.32000000E+00 0.0000E+00 0.9000E+01
       25  1    1    2    0    0 -.74751922E+02 0.29701425E+02 -.43863781E+03 0.46313945E+03 0.12500000E+03 0.0000E+00 0.9000E+01
      -24  1    1    2    0    0 0.74751922E+02 -.29701425E+02 -.18050152E+03 0.21334957E+03 0.80419002E+02 0.0000E+00 0.9000E+01
#aMCatNLO 1  0  0  1  1 0.10420315D+03 0.00000000D+00  -5  5  0 0.00000000D+00 0.00000000D+00 0.00000000D+00 0.00000000D+00 0.00000000D+00
  <mgrwgt>
 0.2459417985D+00    3    2    0
 0.136293698192524D+03 0.000000000000000D+00 0.000000000000000D+00 0.136293698192524D+03
 0.136293698192524D+03 0.000000000000000D+00 0.000000000000000D+00 -.136293698192524D+03
 0.153091584241322D+03 -.747519222423625D+02 0.297014247139302D+02 -.366334363191945D+02
 0.119495812143725D+03 0.747519222423625D+02 -.297014247139302D+02 0.366334363191945D+02
 0.000000000000000D+00 -.000000000000000D+00 0.000000000000000D+00 -.000000000000000D+00
 0.178711326781633D+03 0.000000000000000D+00 0.000000000000000D+00 0.178711326781633D+03
 0.228677928992038D+03 0.000000000000000D+00 0.000000000000000D+00 -.228677928992038D+03
 0.133482844003746D+03 -.232416266937965D+02 0.176206633076673D+02 -.366334363191945D+02
 0.158342762196640D+03 0.124691992494638D+03 -.414139196026642D+02 0.366334363191945D+02
 0.115563649573284D+03 -.101450365800842D+03 0.237932562949969D+02 -.499666022104051D+02
0.381304776280D-03 0.000000000000D+00 0.000000000000D+00 0.237707249545D-02 0.000000000000D+00  5 -2 1 25 -24 21 0 0.44115149D-02 0.99663719D-01 0.17211596D+05 0.17211596D+05 0.17211596D+05 0.12410702D+01  1  2  2  1  5  1       -2 0.240923055162D+00 0.100000000000D+01
-.211461267266D-04 0.000000000000D+00 -.146431074077D-05 0.237707249545D-02 0.000000000000D+00  5 -2 1 25 -24 21 2 0.44115149D-02 0.99663719D-01 0.17211596D+05 0.17211596D+05 0.17211596D+05 0.12410702D+01  1  2  3  1  5  1       -2 -.205792554753D-01 0.100000000000D+01
0.263031151824D-04 0.000000000000D+00 0.000000000000D+00 0.237707249545D-02 0.000000000000D+00  5 -2 1 25 -24 21 2 0.44115149D-02 0.99663719D-01 0.17211596D+05 0.17211596D+05 0.17211596D+05 0.12410702D+01  1  2 15  1  5  1       -2 0.255979988265D-01 0.100000000000D+01
  </mgrwgt>
  </event>
  <event>
  4     66 0.46019439E-03 0.24569447E+03 0.75467711E-02 0.10828999E+00
       -2 -1    0    0    0  501 0.00000000E+00 0.00000000E+00 0.28945361E+02 0.28947129E+02 0.32000000E+00 0.0000E+00 0.9000E+01
        1 -1    0    0  501    0 0.00000000E+00 0.00000000E+00 -.20855354E+04 0.20855354E+04 0.32000000E+00 0.0000E+00 0.9000E+01
       25  1    1    2    0    0 -.13938905E+03 0.17313922E+03 -.10602300E+04 0.10904674E+04 0.12500000E+03 0.0000E+00 0.9000E+01
      -24  1    1    2    0    0 0.13938905E+03 -.17313922E+03 -.99636004E+03 0.10240152E+04 0.80419002E+02 0.0000E+00 0.9000E+01
#aMCatNLO 1  0  0  1  1 0.10663383D+03 0.00000000D+00  -5  5  0 0.00000000D+00 0.00000000D+00 0.00000000D+00 0.00000000D+00 0.00000000D+00
  <mgrwgt>
 0.2557800363D+00    4    2    0
 0.245699961150606D+03 0.000000000000000D+00 0.000000000000000D+00 0.245699961150606D+03
 0.245699961150606D+03 0.000000000000000D+00 0.000000000000000D+00 -.245699961150606D+03
 0.255018017208433D+03 -.139389045779847D+03 0.173139218677102D+03 0.164133280807330D+01
 0.236381905092778D+03 0.139389045779847D+03 -.173139218677102D+03 -.164133280807330D+01
 0.000000000000000D+00 -.000000000000000D+00 0.000000000000000D+00 -.000000000000000D+00
 0.277903121090806D+03 0.000000000000000D+00 0.000000000000000D+00 0.277903121090806D+03
 0.358751251938067D+03 0.000000000000000D+00 0.000000000000000D+00 -.358751251938067D+03
 0.214783243526069D+03 -.977852033812079D+02 0.144714207063051D+03 0.164133280807330D+01
 0.288053367040879D+03 0.185831071874082D+03 -.204869824674011D+03 -.164133280807330D+01
 0.133817762461925D+03 -.880458684928736D+02 0.601556176109599D+02 -.808481308472608D+02
0.472687726411D-02 0.000000000000D+00 0.000000000000D+00 0.206796831029D-02 0.000000000000D+00  5 -2 1 25 -24 21 0 0.44532704D-02 0.32085174D+00 0.60365773D+05 0.60365773D+05 0.60365773D+05 0.11842626D+01  1  2  2  1  5  1       -2 0.288975979156D+00 0.100000000000D+01
-.262604292291D-03 0.000000000000D+00 -.181524533096D-04 0.206796831029D-02 0.000000000000D+00  5 -2 1 25 -24 21 2 0.44532704D-02 0.32085174D+00 0.60365773D+05 0.60365773D+05 0.60365773D+05 0.11842626D+01  1  2  3  1  5  1       -2 -.225156895008D-01 0.100000000000D+01
0.324796418834D-03 0.000000000000D+00 0.000000000000D+00 0.206796831029D-02 0.000000000000D+00  5 -2 1 25 -24 21 2 0.44532704D-02 0.32085174D+00 0.60365773D+05 0.60365773D+05 0.60365773D+05 0.11842626D+01  1  2 15  1  5  1       -2 0.278480418337D-01 0.100000000000D+01
-.449362018419D-03 0.000000000000D+00 0.000000000000D+00 0.206796831029D-02 0.000000000000D+00  5 -2 1 25 -24 21 2 0.44532704D-02 0.32085174D+00 0.60365773D+05 0.60365773D+05 0.60365773D+05 0.11842626D+01  1  2  4  1  5  1       -2 -.385282951467D-01 0.100000000000D+01
  </mgrwgt>
  </event>
  <event>
  4     66 0.46019439E-03 0.12736037E+03 0.75467711E-02 0.11273350E+00
       -2 -1    0    0    0  501 0.00000000E+00 0.00000000E+00 0.11466039E+03 0.11466083E+03 0.32000000E+00 0.0000E+00 0.9000E+01
        1 -1    0    0  501    0 0.00000000E+00 0.00000000E+00 -.32477393E+03 0.32477408E+03 0.32000000E+00 0.0000E+00 0.9000E+01
       25  1    1    2    0    0 0.14523515E+03 -.53009137E+02 -.16764546E+03 0.26006387E+03 0.12500000E+03 0.0000E+00 0.9000E+01
      -24  1    1    2    0    0 -.14523515E+03 0.53009137E+02 -.42468081E+02 0.17937104E+03 0.80419002E+02 0.0000E+00 0.9000E+01
#aMCatNLO 1  0  0  2  1 0.77119511D+02 0.00000000D+00  -5  5  0 0.00000000D+00 0.00000000D+00 0.00000000D+00 0.00000000D+00 0.00000000D+00
  <mgrwgt>
 0.2329923936D+00    9    2    0
 0.192973667976644D+03 0.000000000000000D+00 0.000000000000000D+00 0.192973667976644D+03
 0.192973667976644D+03 0.000000000000000D+00 0.000000000000000D+00 -.192973667976644D+03
 0.204837701217099D+03 0.145235151004874D+03 -.530091371568926D+02 -.492977294647395D+02
 0.181109634736190D+03 -.145235151004874D+03 0.530091371568926D+02 0.492977294647395D+02
 0.000000000000000D+00 0.000000000000000D+00 -.000000000000000D+00 -.000000000000000D+00
 0.210168045717026D+03 0.000000000000000D+00 0.000000000000000D+00 0.210168045717026D+03
 0.307916909418321D+03 0.000000000000000D+00 0.000000000000000D+00 -.307916909418321D+03
 0.178639012786824D+03 0.112986003724891D+03 -.330271664142005D+02 -.492977294647395D+02
 0.214937873078934D+03 -.178541461252619D+03 0.736461391569593D+02 0.492977294647395D+02
 0.124508069269590D+03 0.655554575277280D+02 -.406189727427589D+02 -.977488637012946D+02
0.120177131074D-02 0.000000000000D+00 0.000000000000D+00 0.205045900676D-02 0.000000000000D+00  5 -2 1 25 -24 21 0 0.17640106D-01 0.49965266D-01 0.34798700D+05 0.34798700D+05 0.34798700D+05 0.12081926D+01  1  2  2  2  5  2        1 0.215302489387D+00 0.100000000000D+01
-.666718604417D-04 0.000000000000D+00 -.461511826690D-05 0.205045900676D-02 0.000000000000D+00  5 -2 1 25 -24 21 2 0.17640106D-01 0.49965266D-01 0.34798700D+05 0.34798700D+05 0.34798700D+05 0.12081926D+01  1  2  3  2  5  2        1 -.174358108668D-01 0.100000000000D+01
0.828235860880D-04 0.000000000000D+00 0.000000000000D+00 0.205045900676D-02 0.000000000000D+00  5 -2 1 25 -24 21 2 0.17640106D-01 0.49965266D-01 0.34798700D+05 0.34798700D+05 0.34798700D+05 0.12081926D+01  1  2 15  2  5  2        1 0.216597582965D-01 0.100000000000D+01
0.139847485368D-02 0.000000000000D+00 0.000000000000D+00 0.205045900676D-02 0.000000000000D+00  5 -2 1 25 -24 21 2 0.17640106D-01 0.80853689D-01 0.52447814D+05 0.52447814D+05 0.52447814D+05 0.11902315D+01  1  2 12  2  5  2        1 0.191604120639D+00 0.100000000000D+01
-.169289069779D-02 0.000000000000D+00 0.000000000000D+00 0.205045900676D-02 0.000000000000D+00  5 -2 1 25 -24 21 2 0.17640106D-01 0.49965266D-01 0.34798700D+05 0.34798700D+05 0.34798700D+05 0.12081926D+01  1  2  4  2  5  2        1 -.442719339605D+00 0.100000000000D+01
-.196459161411D-02 0.000000000000D+00 -.529019247625D-03 0.205045900676D-02 0.000000000000D+00  5 -2 1 25 -24 21 2 0.17640106D-01 0.84507397D-01 0.34798700D+05 0.34798700D+05 0.34798700D+05 0.12081926D+01  1  2  5  2  5  2        1 -.261019101245D+00 0.100000000000D+01
0.202235368575D-02 0.000000000000D+00 0.463528258496D-03 0.205045900676D-02 0.000000000000D+00  5 -2 1 25 -24 21 2 0.17640106D-01 0.49965266D-01 0.34798700D+05 0.34798700D+05 0.34798700D+05 0.12081926D+01  1  2  6  2  5  2        1 0.528879442346D+00 0.100000000000D+01
0.765255662352D-04 0.000000000000D+00 0.000000000000D+00 0.205045900676D-02 0.000000000000D+00  5 -2 21 25 -24 -1 2 0.17640106D-01 0.80853689D-01 0.52447814D+05 0.52447814D+05 0.52447814D+05 0.11902315D+01  1  2 12  4  5  2        1 0.297992022335D-01 0.100000000000D+01
-.900830717011D-04 0.000000000000D+00 -.310426254600D-04 0.205045900676D-02 0.000000000000D+00  5 -2 21 25 -24 -1 2 0.17640106D-01 0.84507397D-01 0.34798700D+05 0.34798700D+05 0.34798700D+05 0.12081926D+01  1  2  5  4  5  2        1 -.330783675861D-01 0.100000000000D+01
  </mgrwgt>
  </event>
  <event>
  4     66 0.46019439E-03 0.68066587E+02 0.75467711E-02 0.12215066E+00
       -2 -1    0    0    0  501 0.00000000E+00 0.00000000E+00 0.48296529E+02 0.48297589E+02 0.32000000E+00 0.0000E+00 0.9000E+01
        1 -1    0    0  501    0 0.00000000E+00 0.00000000E+00 -.29483297E+03 0.29483314E+03 0.32000000E+00 0.0000E+00 0.9000E+01
       25  1    1    2    0    0 0.81475195E+01 0.54065744E+02 -.17747672E+03 0.22385815E+03 0.12500000E+03 0.0000E+00 0.9000E+01
      -24  1    1    2    0    0 -.81475195E+01 -.54065744E+02 -.69059716E+02 0.11927257E+03 0.80419002E+02 0.0000E+00 0.9000E+01
#aMCatNLO 1  0  0  2  1 0.32245498D+02 0.00000000D+00  -5  5  0 0.00000000D+00 0.00000000D+00 0.00000000D+00 0.00000000D+00 0.00000000D+00
  <mgrwgt>
 0.1890166001D+00    9    2    0
 0.119329881227944D+03 0.000000000000000D+00 0.000000000000000D+00 0.119329881227944D+03
 0.119329881227944D+03 0.000000000000000D+00 0.000000000000000D+00 -.119329881227944D+03
 0.138515738012919D+03 0.814751946135784D+01 0.540657437321034D+02 -.239190919264264D+02
 0.100144024442969D+03 -.814751946135784D+01 -.540657437321034D+02 0.239190919264264D+02
 0.000000000000000D+00 -.000000000000000D+00 0.000000000000000D+00 -.000000000000000D+00
 0.123597945939840D+03 0.000000000000000D+00 0.000000000000000D+00 0.123597945939840D+03
 0.202059348813031D+03 0.000000000000000D+00 0.000000000000000D+00 -.202059348813031D+03
 0.136319992684811D+03 0.230148220122678D+02 0.430852110908790D+02 -.239190919264264D+02
 0.104508274680521D+03 0.292319409209426D+01 -.622422324474613D+02 0.239190919264264D+02
 0.848290273875390D+02 -.259380161043621D+02 0.191570213565824D+02 -.784614028731907D+02
0.210191847268D-03 0.000000000000D+00 0.000000000000D+00 0.269918251512D-02 0.000000000000D+00  5 -2 1 25 -24 21 0 0.74303302D-02 0.45359013D-01 0.13651644D+05 0.13651644D+05 0.13651644D+05 0.12525130D+01  1  2  2  2  5  2        1 0.164869215279D+00 0.100000000000D+01
-.116710132737D-04 0.000000000000D+00 -.807192038295D-06 0.269918251512D-02 0.000000000000D+00  5 -2 1 25 -24 21 2 0.74303302D-02 0.45359013D-01 0.13651644D+05 0.13651644D+05 0.13651644D+05 0.12525130D+01  1  2  3  2  5  2        1 -.143613999622D-01 0.100000000000D+01
0.145397183954D-04 0.000000000000D+00 0.000000000000D+00 0.269918251512D-02 0.000000000000D+00  5 -2 1 25 -24 21 2 0.74303302D-02 0.45359013D-01 0.13651644D+05 0.13651644D+05 0.13651644D+05 0.12525130D+01  1  2 15  2  5  2        1 0.178913952299D-01 0.100000000000D+01
0.726052408431D-03 0.000000000000D+00 0.000000000000D+00 0.269918251512D-02 0.000000000000D+00  5 -2 1 25 -24 21 2 0.74303302D-02 0.77125276D-01 0.17980782D+05 0.17980782D+05 0.17980782D+05 0.12389473D+01  1  2 12  2  5  2        1 0.452268531654D+00 0.100000000000D+01
-.692078671688D-03 0.000000000000D+00 0.000000000000D+00 0.269918251512D-02 0.000000000000D+00  5 -2 1 25 -24 21 2 0.74303302D-02 0.45359013D-01 0.13651644D+05 0.13651644D+05 0.13651644D+05 0.12525130D+01  1  2  4  2  5  2        1 -.851615740319D+00 0.100000000000D+01
-.791089782665D-03 0.000000000000D+00 -.913048508154D-04 0.269918251512D-02 0.000000000000D+00  5 -2 1 25 -24 21 2 0.74303302D-02 0.78237929D-01 0.13651644D+05 0.13651644D+05 0.13651644D+05 0.12525130D+01  1  2  5  2  5  2        1 -.490924494307D+00 0.100000000000D+01
0.740194689338D-03 0.000000000000D+00 0.792364657891D-04 0.269918251512D-02 0.000000000000D+00  5 -2 1 25 -24 21 2 0.74303302D-02 0.45359013D-01 0.13651644D+05 0.13651644D+05 0.13651644D+05 0.12525130D+01  1  2  6  2  5  2        1 0.910823399316D+00 0.100000000000D+01
0.429550978340D-04 0.000000000000D+00 0.000000000000D+00 0.269918251512D-02 0.000000000000D+00  5 -2 21 25 -24 -1 2 0.74303302D-02 0.77125276D-01 0.17980782D+05 0.17980782D+05 0.17980782D+05 0.12389473D+01  1  2 12  4  5  2        1 0.820382785955D-01 0.100000000000D+01
-.433226440380D-04 0.000000000000D+00 -.552157045549D-05 0.269918251512D-02 0.000000000000D+00  5 -2 21 25 -24 -1 2 0.74303302D-02 0.78237929D-01 0.13651644D+05 0.13651644D+05 0.13651644D+05 0.12525130D+01  1  2  5  4  5  2        1 -.819725853558D-01 0.100000000000D+01
  </mgrwgt>
  </event>
  <event>
  4     66 0.46019439E-03 0.13458252E+03 0.75467711E-02 0.11497743E+00
       -2 -1    0    0    0  501 0.00000000E+00 0.00000000E+00 0.38969117E+02 0.38970431E+02 0.32000000E+00 0.0000E+00 0.9000E+01
        1 -1    0    0  501    0 0.00000000E+00 0.00000000E+00 -.46872331E+03 0.46872342E+03 0.32000000E+00 0.0000E+00 0.9000E+01
       25  1    1    2    0    0 -.76981312E+02 -.37810250E+02 -.21871371E+03 0.26611355E+03 0.12500000E+03 0.0000E+00 0.9000E+01
      -24  1    1    2    0    0 0.76981312E+02 0.37810250E+02 -.21104049E+03 0.24158030E+03 0.80419002E+02 0.0000E+00 0.9000E+01
#aMCatNLO 1  0  0  2  1 0.10941220D+03 0.00000000D+00  -5  5  0 0.00000000D+00 0.00000000D+00 0.00000000D+00 0.00000000D+00 0.00000000D+00
  <mgrwgt>
 0.2008939942D+00    3    2    0
 0.135152117277399D+03 0.000000000000000D+00 0.000000000000000D+00 0.135152117277399D+03
 0.135152117277399D+03 0.000000000000000D+00 0.000000000000000D+00 -.135152117277399D+03
 0.152091888977078D+03 -.769813120508496D+02 -.378102495987745D+02 0.122965569499753D+02
 0.118212345577721D+03 0.769813120508496D+02 0.378102495987745D+02 -.122965569499753D+02
 0.000000000000000D+00 0.000000000000000D+00 0.000000000000000D+00 0.000000000000000D+00
 0.207761711420261D+03 0.000000000000000D+00 0.000000000000000D+00 0.207761711420261D+03
 0.194107507648021D+03 0.000000000000000D+00 0.000000000000000D+00 -.194107507648021D+03
 0.181073325423199D+03 -.805471945148747D+02 -.102584079285115D+03 0.122965569499753D+02
 0.110534988987576D+03 0.745330189105012D+02 -.666270330841375D+01 -.122965569499753D+02
 0.110260904657507D+03 0.601417560437351D+01 0.109246782593528D+03 0.136542037722405D+02
0.320380927967D-03 0.000000000000D+00 0.000000000000D+00 0.253593601304D-02 0.000000000000D+00  5 -2 1 25 -24 21 0 0.59953582D-02 0.72111388D-01 0.18112455D+05 0.18112455D+05 0.18112455D+05 0.12385941D+01  1  2  2  2  5  2        1 0.196831907384D+00 0.100000000000D+01
-.177985544354D-04 0.000000000000D+00 -.123034712163D-05 0.253593601304D-02 0.000000000000D+00  5 -2 1 25 -24 21 2 0.59953582D-02 0.72111388D-01 0.18112455D+05 0.18112455D+05 0.18112455D+05 0.12385941D+01  1  2  3  2  5  2        1 -.167753503536D-01 0.100000000000D+01
0.221084061560D-04 0.000000000000D+00 0.000000000000D+00 0.253593601304D-02 0.000000000000D+00  5 -2 1 25 -24 21 2 0.59953582D-02 0.72111388D-01 0.18112455D+05 0.18112455D+05 0.18112455D+05 0.12385941D+01  1  2 15  2  5  2        1 0.208374371285D-01 0.100000000000D+01
  </mgrwgt>
  </event>
  <event>
  4     66 0.46019439E-03 0.10711059E+03 0.75467711E-02 0.96145805E-01
       -2 -1    0    0    0  501 0.00000000E+00 0.00000000E+00 0.19796480E+03 0.19796506E+03 0.32000000E+00 0.0000E+00 0.9000E+01
        1 -1    0    0  501    0 0.00000000E+00 0.00000000E+00 -.58281330E+02 0.58282208E+02 0.32000000E+00 0.0000E+00 0.9000E+01
       25  1    1    2    0    0 -.15920715E+01 0.29680127E+02 0.93133343E+02 0.15868921E+03 0.12500000E+03 0.0000E+00 0.9000E+01
      -24  1    1    2    0    0 0.15920715E+01 -.29680127E+02 0.46550125E+02 0.97558058E+02 0.80419002E+02 0.0000E+00 0.9000E+01
#aMCatNLO 1  0  0  2  2 0.74835441D+03 0.00000000D+00  -5  5  0 0.00000000D+00 0.00000000D+00 0.00000000D+00 0.00000000D+00 0.00000000D+00
  <mgrwgt>
 0.2392711847D+00    3    2    0
 0.107414139317459D+03 0.000000000000000D+00 0.000000000000000D+00 0.107414139317459D+03
 0.107414139317459D+03 0.000000000000000D+00 0.000000000000000D+00 -.107414139317459D+03
 0.128728335250650D+03 -.159207153978955D+01 0.296801267179121D+02 0.790820350171668D+01
 0.860999433842684D+02 0.159207153978955D+01 -.296801267179121D+02 -.790820350171668D+01
 0.000000000000000D+00 -.000000000000000D+00 0.000000000000000D+00 0.000000000000000D+00
 0.197888360037586D+04 0.000000000000000D+00 0.000000000000000D+00 0.197888360037586D+04
 0.477367784104300D+03 0.000000000000000D+00 0.000000000000000D+00 -.477367784104300D+03
 0.363077423089422D+03 0.328187156082790D+02 -.339205848092944D+03 0.790820350171668D+01
 0.415501742446147D+03 0.366882625695163D+02 -.405913677680882D+03 -.790820350171668D+01
 0.167767221894459D+04 -.695069781777953D+02 0.745119525773827D+03 0.150151581627156D+04
0.388614414705D-03 0.000000000000D+00 0.000000000000D+00 0.307218572430D-02 0.000000000000D+00  5 -2 1 25 -24 21 0 0.30456210D-01 0.89664459D-02 0.11472679D+05 0.11472679D+05 0.11472679D+05 0.12613179D+01  1  2  2  2  5  2        1 0.234174472371D+00 0.100000000000D+01
-.215894794809D-04 0.000000000000D+00 -.149238167699D-05 0.307218572430D-02 0.000000000000D+00  5 -2 1 25 -24 21 2 0.30456210D-01 0.89664459D-02 0.11472679D+05 0.11472679D+05 0.11472679D+05 0.12613179D+01  1  2  3  2  5  2        1 -.206972147529D-01 0.100000000000D+01
0.269059130217D-04 0.000000000000D+00 0.000000000000D+00 0.307218572430D-02 0.000000000000D+00  5 -2 1 25 -24 21 2 0.30456210D-01 0.89664459D-02 0.11472679D+05 0.11472679D+05 0.11472679D+05 0.12613179D+01  1  2 15  2  5  2        1 0.257939271035D-01 0.100000000000D+01
  </mgrwgt>
  </event>
  <event>
  4     66 0.46019439E-03 0.54097639E+02 0.75467711E-02 0.12473140E+00
       -2 -1    0    0    0  501 0.00000000E+00 0.00000000E+00 0.31182338E+04 0.31182339E+04 0.32000000E+00 0.0000E+00 0.9000E+01
        1 -1    0    0  501    0 0.00000000E+00 0.00000000E+00 -.41730951E+01 0.41853462E+01 0.32000000E+00 0.0000E+00 0.9000E+01
       25  1    1    2    0    0 -.14987524E+02 0.31758907E+02 0.13658516E+04 0.13720091E+04 0.12500000E+03 0.0000E+00 0.9000E+01
      -24  1    1    2    0    0 0.14987524E+02 -.31758907E+02 0.17482092E+04 0.17504102E+04 0.80419002E+02 0.0000E+00 0.9000E+01
#aMCatNLO 1  0  0  1  2 0.16808635D+02 0.00000000D+00  -5  5  0 0.00000000D+00 0.00000000D+00 0.00000000D+00 0.00000000D+00 0.00000000D+00
  <mgrwgt>
 0.4901980762D-01    9    2    0
 0.114157077996469D+03 0.000000000000000D+00 0.000000000000000D+00 0.114157077996469D+03
 0.114157077996469D+03 0.000000000000000D+00 0.000000000000000D+00 -.114157077996469D+03
 0.134212304107619D+03 -.149875244649147D+02 0.317589073986595D+02 -.339807075431464D+02
 0.941018518853186D+02 0.149875244649147D+02 -.317589073986595D+02 0.339807075431464D+02
 0.000000000000000D+00 -.000000000000000D+00 -.000000000000000D+00 0.000000000000000D+00
 0.132271328414186D+03 0.000000000000000D+00 0.000000000000000D+00 0.132271328414186D+03
 0.118432964471669D+03 0.000000000000000D+00 0.000000000000000D+00 -.118432964471669D+03
 0.136770611630263D+03 -.138374228857242D+02 0.416537807223432D+02 -.339807075431464D+02
 0.921614394731082D+02 0.157780602998150D+02 -.249575499484105D+02 0.339807075431464D+02
 0.217722417824841D+02 -.194063741409077D+01 -.166962307739327D+02 0.138383639425172D+02
0.316882124936D-02 0.000000000000D+00 0.000000000000D+00 0.268748194298D-02 0.000000000000D+00  5 -2 1 25 -24 21 0 0.47972923D+00 0.64295828D-03 0.11836533D+05 0.11836533D+05 0.11836533D+05 0.12597228D+01  1  2  2  1  5  1       -2 0.231786971434D-01 0.100000000000D+01
-.175550357773D-03 0.000000000000D+00 -.121691079673D-04 0.268748194298D-02 0.000000000000D+00  5 -2 1 25 -24 21 2 0.47972923D+00 0.64295828D-03 0.11836533D+05 0.11836533D+05 0.11836533D+05 0.12597228D+01  1  2  3  1  5  1       -2 -.203771291376D-02 0.100000000000D+01
0.219142117396D-03 0.000000000000D+00 0.000000000000D+00 0.268748194298D-02 0.000000000000D+00  5 -2 1 25 -24 21 2 0.47972923D+00 0.64295828D-03 0.11836533D+05 0.11836533D+05 0.11836533D+05 0.12597228D+01  1  2 15  1  5  1       -2 0.254370727711D-02 0.100000000000D+01
0.359282505051D-02 0.000000000000D+00 0.000000000000D+00 0.268748194298D-02 0.000000000000D+00  5 -2 1 25 -24 21 2 0.56384682D+00 0.64295828D-03 0.13801429D+05 0.13801429D+05 0.13801429D+05 0.12519668D+01  1  2 12  1  5  1       -2 0.128199817030D-01 0.100000000000D+01
-.363120046248D-02 0.000000000000D+00 0.000000000000D+00 0.268748194298D-02 0.000000000000D+00  5 -2 1 25 -24 21 2 0.47972923D+00 0.64295828D-03 0.11836533D+05 0.11836533D+05 0.11836533D+05 0.12597228D+01  1  2  4  1  5  1       -2 -.421494103954D-01 0.100000000000D+01
-.715292098584D-02 0.000000000000D+00 -.131835064737D-02 0.268748194298D-02 0.000000000000D+00  5 -2 1 25 -24 21 2 0.56055353D+00 0.64295828D-03 0.11836533D+05 0.11836533D+05 0.11836533D+05 0.12597228D+01  1  2  5  1  5  1       -2 -.268524308121D-01 0.100000000000D+01
0.728552136198D-02 0.000000000000D+00 0.130252985093D-02 0.268748194298D-02 0.000000000000D+00  5 -2 1 25 -24 21 2 0.47972923D+00 0.64295828D-03 0.11836533D+05 0.11836533D+05 0.11836533D+05 0.12597228D+01  1  2  6  1  5  1       -2 0.845671928619D-01 0.100000000000D+01
0.869973564090D-04 0.000000000000D+00 0.000000000000D+00 0.268748194298D-02 0.000000000000D+00  5 21 1 25 -24 2 2 0.56384682D+00 0.64295828D-03 0.13801429D+05 0.13801429D+05 0.13801429D+05 0.12519668D+01  1  2 12  3  5  1       -2 0.309309415350D-02 0.100000000000D+01
-.158368860585D-03 0.000000000000D+00 -.309919370983D-04 0.268748194298D-02 0.000000000000D+00  5 21 1 25 -24 2 2 0.56055353D+00 0.64295828D-03 0.11836533D+05 0.11836533D+05 0.11836533D+05 0.12597228D+01  1  2  5  3  5  1       -2 -.614331139287D-02 0.100000000000D+01
  </mgrwgt>
  </event>
  <event>
  4     66 0.46019439E-03 0.39709561E+02 0.75467711E-02 0.12507610E+00
       -4 -1    0    0    0  501 0.00000000E+00 0.00000000E+00 0.21742580E+03 0.21743133E+03 0.15500000E+01 0.0000E+00 0.9000E+01
        3 -1    0    0  501    0 0.00000000E+00 0.00000000E+00 -.71231317E+02 0.71233072E+02 0.50000000E+00 0.0000E+00 0.9000E+01
       25  1    1    2    0    0 0.28874318E+02 0.28523113E+02 0.14882212E+03 0.19854551E+03 0.12500000E+03 0.0000E+00 0.9000E+01
      -24  1    1    2    0    0 -.28874318E+02 -.28523113E+02 -.26276375E+01 0.90118892E+02 0.80419002E+02 0.0000E+00 0.9000E+01
#aMCatNLO 1  0  0  1  2 0.92811656D+01 0.00000000D+00  -5  5  0 0.00000000D+00 0.00000000D+00 0.00000000D+00 0.00000000D+00 0.00000000D+00
  <mgrwgt>
 0.5811253909D-01    8    2    0
 0.124453111483770D+03 0.000000000000000D+00 0.000000000000000D+00 0.124453111483770D+03
 0.124453111483770D+03 0.000000000000000D+00 0.000000000000000D+00 -.124453111483770D+03
 0.142849164295241D+03 0.288743180803226D+02 0.285231131779381D+02 0.559784736294556D+02
 0.106057058672298D+03 -.288743180803226D+02 -.285231131779381D+02 -.559784736294556D+02
 0.000000000000000D+00 0.000000000000000D+00 -.000000000000000D+00 -.000000000000000D+00
 0.129130666003611D+03 0.000000000000000D+00 0.000000000000000D+00 0.129130666003611D+03
 0.129230233673689D+03 0.000000000000000D+00 0.000000000000000D+00 -.129230233673689D+03
 0.143367712596384D+03 0.263236208338104D+02 0.332081088204911D+02 0.559784736294556D+02
 0.105711487392981D+03 -.307615493757403D+02 -.250567392648397D+02 -.559784736294556D+02
 0.928169968793434D+01 0.443792854192985D+01 -.815136955565137D+01 -.995676700781457D-01
0.269257547408D-03 0.000000000000D+00 0.000000000000D+00 0.222614645624D-02 0.000000000000D+00  5 -4 3 25 -24 21 0 0.33450683D-01 0.10959224D-01 0.12266080D+05 0.12266080D+05 0.12266080D+05 0.12579094D+01  1  2  2  1  5  1       -4 0.275345737972D-01 0.100000000000D+01
-.147113432832D-04 0.000000000000D+00 -.103401987919D-05 0.222614645624D-02 0.000000000000D+00  5 -4 3 25 -24 21 2 0.33450683D-01 0.10959224D-01 0.12266080D+05 0.12266080D+05 0.12266080D+05 0.12579094D+01  1  2  3  1  5  1       -4 -.238046338793D-02 0.100000000000D+01
0.184651221629D-04 0.000000000000D+00 0.000000000000D+00 0.222614645624D-02 0.000000000000D+00  5 -4 3 25 -24 21 2 0.33450683D-01 0.10959224D-01 0.12266080D+05 0.12266080D+05 0.12266080D+05 0.12579094D+01  1  2 15  1  5  1       -4 0.298786768933D-02 0.100000000000D+01
0.478242775193D-03 0.000000000000D+00 0.000000000000D+00 0.222614645624D-02 0.000000000000D+00  5 -4 3 25 -24 21 2 0.35326000D-01 0.10959224D-01 0.13333571D+05 0.13333571D+05 0.13333571D+05 0.12536956D+01  1  2 12  1  5  1       -4 0.697982276956D-01 0.100000000000D+01
-.363992914057D-03 0.000000000000D+00 0.000000000000D+00 0.222614645624D-02 0.000000000000D+00  5 -4 3 25 -24 21 2 0.33450683D-01 0.10959224D-01 0.12266080D+05 0.12266080D+05 0.12266080D+05 0.12579094D+01  1  2  4  1  5  1       -4 -.588982113121D-01 0.100000000000D+01
0.188850757447D-07 0.000000000000D+00 0.000000000000D+00 0.222614645624D-02 0.216999342058D-03  5 -4 3 25 -24 21 2 0.34707923D-01 0.11379893D-01 0.13333571D+05 0.13333571D+05 0.13333571D+05 0.12536956D+01  1  2 11  1  5  1       -4 0.267851740402D-05 0.100000000000D+01
0.520801444386D-05 0.000000000000D+00 0.000000000000D+00 0.222614645624D-02 0.000000000000D+00  5 21 3 25 -24 4 2 0.35326000D-01 0.10959224D-01 0.13333571D+05 0.13333571D+05 0.13333571D+05 0.12536956D+01  1  2 12  3  5  1       -4 0.190669517165D-01 0.100000000000D+01
0.256841751012D-09 0.000000000000D+00 0.000000000000D+00 0.222614645624D-02 0.145273239962D-05  5 21 3 25 -24 4 2 0.34707923D-01 0.11379893D-01 0.13333571D+05 0.13333571D+05 0.13333571D+05 0.12536956D+01  1  2 11  3  5  1       -4 0.914372170535D-06 0.100000000000D+01
  </mgrwgt>
  </event>
  <event>
  4     66 0.46019439E-03 0.10346625E+03 0.75467711E-02 0.12275699E+00
       -2 -1    0    0    0  501 0.00000000E+00 0.00000000E+00 0.33167667E+01 0.33321677E+01 0.32000000E+00 0.0000E+00 0.9000E+01
        1 -1    0    0  501    0 0.00000000E+00 0.00000000E+00 -.34028956E+04 0.34028956E+04 0.32000000E+00 0.0000E+00 0.9000E+01
       25  1    1    2    0    0 0.56615615E+01 0.10804080E+02 -.16577212E+04 0.16624721E+04 0.12500000E+03 0.0000E+00 0.9000E+01
      -24  1    1    2    0    0 -.56615615E+01 -.10804080E+02 -.17418576E+04 0.17437557E+04 0.80419002E+02 0.0000E+00 0.9000E+01
#aMCatNLO 1  0  0  1  2 0.47510118D+02 0.00000000D+00  -5  5  0 0.00000000D+00 0.00000000D+00 0.00000000D+00 0.00000000D+00 0.00000000D+00
  <mgrwgt>
 0.2704339983D+00    4    2    0
 0.106361957473831D+03 0.000000000000000D+00 0.000000000000000D+00 0.106361957473831D+03
 0.106361957473831D+03 0.000000000000000D+00 0.000000000000000D+00 -.106361957473831D+03
 0.127887003324652D+03 0.566156150585744D+01 0.108040796518399D+02 0.241102510055737D+02
 0.848369116230088D+02 -.566156150585744D+01 -.108040796518399D+02 -.241102510055737D+02
 0.000000000000000D+00 0.000000000000000D+00 -.000000000000000D+00 -.000000000000000D+00
 0.116732886074351D+03 0.000000000000000D+00 0.000000000000000D+00 0.116732886074351D+03
 0.181791356192047D+03 0.000000000000000D+00 0.000000000000000D+00 -.181791356192047D+03
 0.130215031172788D+03 -.223709722256903D+02 0.157857448812499D+02 0.241102510055737D+02
 0.877498176604950D+02 -.244062541607512D+02 -.747295787279877D+01 -.241102510055737D+02
 0.805593934331146D+02 0.467772263864414D+02 -.831278700845115D+01 -.650584701176955D+02
0.150394065953D-02 0.000000000000D+00 0.000000000000D+00 0.298599802047D-02 0.000000000000D+00  5 -2 1 25 -24 21 0 0.51145765D-03 0.52352359D+00 0.10705265D+05 0.10705265D+05 0.10705265D+05 0.12648771D+01  1  2  2  1  5  1       -2 0.279661140757D+00 0.100000000000D+01
-.834748595861D-04 0.000000000000D+00 -.577552812926D-05 0.298599802047D-02 0.000000000000D+00  5 -2 1 25 -24 21 2 0.51145765D-03 0.52352359D+00 0.10705265D+05 0.10705265D+05 0.10705265D+05 0.12648771D+01  1  2  3  1  5  1       -2 -.248344076488D-01 0.100000000000D+01
0.103167905946D-03 0.000000000000D+00 0.000000000000D+00 0.298599802047D-02 0.000000000000D+00  5 -2 1 25 -24 21 2 0.51145765D-03 0.52352359D+00 0.10705265D+05 0.10705265D+05 0.10705265D+05 0.12648771D+01  1  2 15  1  5  1       -2 0.306932392008D-01 0.100000000000D+01
-.507078556436D-04 0.000000000000D+00 0.000000000000D+00 0.298599802047D-02 0.000000000000D+00  5 -2 1 25 -24 21 2 0.51145765D-03 0.52352359D+00 0.10705265D+05 0.10705265D+05 0.10705265D+05 0.12648771D+01  1  2  4  1  5  1       -2 -.150859739602D-01 0.100000000000D+01
  </mgrwgt>
  </event>
  <event>
  4     66 -.46019439E-03 0.99529922E+02 0.75467711E-02 0.11985792E+00
       -4 -1    0    0    0  501 0.00000000E+00 0.00000000E+00 0.31371432E+03 0.31371815E+03 0.15500000E+01 0.0000E+00 0.9000E+01
        3 -1    0    0  501    0 0.00000000E+00 0.00000000E+00 -.72786870E+02 0.72788587E+02 0.50000000E+00 0.0000E+00 0.9000E+01
       25  1    1    2    0    0 -.10847593E+03 0.79893249E+01 0.11500986E+03 0.20170058E+03 0.12500000E+03 0.0000E+00 0.9000E+01
      -24  1    1    2    0    0 0.10847593E+03 -.79893249E+01 0.12591759E+03 0.18480615E+03 0.80419002E+02 0.0000E+00 0.9000E+01
#aMCatNLO 1  0  0  2  1 0.21284584D+01 0.00000000D+00  -5  5  0 0.00000000D+00 0.00000000D+00 0.00000000D+00 0.00000000D+00 0.00000000D+00
  <mgrwgt>
 -.1125156436D+00   11    2    0
 0.151113714974931D+03 0.000000000000000D+00 0.000000000000000D+00 0.151113714974931D+03
 0.151113714974931D+03 0.000000000000000D+00 0.000000000000000D+00 -.151113714974931D+03
 0.166264199573812D+03 -.108475934826239D+03 0.798932492700643D+01 -.137086217653214D+02
 0.135963230376050D+03 0.108475934826239D+03 -.798932492700643D+01 0.137086217653214D+02
 0.000000000000000D+00 0.000000000000000D+00 0.000000000000000D+00 -.000000000000000D+00
 0.151970134665236D+03 0.000000000000000D+00 0.000000000000000D+00 0.151970134665236D+03
 0.152445738000387D+03 0.000000000000000D+00 0.000000000000000D+00 -.152445738000387D+03
 0.166917040655793D+03 -.109512636034372D+03 0.744007388310545D+01 -.137086217653214D+02
 0.135317884111846D+03 0.107631837304603D+03 -.843653328489722D+01 0.137086217653214D+02
 0.218094789798549D+01 0.188079872976917D+01 0.996459401791763D+00 -.475603335151050D+00
0.650551039655D-03 0.000000000000D+00 0.000000000000D+00 0.238242451112D-02 0.000000000000D+00  5 -4 3 25 -24 21 0 0.48264168D-01 0.11198407D-01 0.22645504D+05 0.22645504D+05 0.22645504D+05 0.12279303D+01  1  2  2  2  5  2        3 0.329782596460D-01 0.100000000000D+01
-.361409587188D-04 0.000000000000D+00 -.249828728630D-05 0.238242451112D-02 0.000000000000D+00  5 -4 3 25 -24 21 2 0.48264168D-01 0.11198407D-01 0.22645504D+05 0.22645504D+05 0.22645504D+05 0.12279303D+01  1  2  3  2  5  2        3 -.276244363091D-02 0.100000000000D+01
0.448502057447D-04 0.000000000000D+00 0.000000000000D+00 0.238242451112D-02 0.000000000000D+00  5 -4 3 25 -24 21 2 0.48264168D-01 0.11198407D-01 0.22645504D+05 0.22645504D+05 0.22645504D+05 0.12279303D+01  1  2 15  2  5  2        3 0.342813720489D-02 0.100000000000D+01
0.591862341125D-06 0.000000000000D+00 0.000000000000D+00 0.238242451112D-02 0.000000000000D+00  5 -4 3 25 -24 21 2 0.48264168D-01 0.11328620D-01 0.22967905D+05 0.22967905D+05 0.22967905D+05 0.12272649D+01  1  2 12  2  5  2        3 0.443768082062D-04 0.100000000000D+01
-.103931285666D-01 0.000000000000D+00 0.000000000000D+00 0.238242451112D-02 0.000000000000D+00  5 -4 3 25 -24 21 2 0.48264168D-01 0.11198407D-01 0.22645504D+05 0.22645504D+05 0.22645504D+05 0.12279303D+01  1  2  4  2  5  2        3 -.794401499897D+00 0.100000000000D+01
-.682766077493D-01 0.000000000000D+00 -.752629263499D-02 0.238242451112D-02 0.000000000000D+00  5 -4 3 25 -24 21 2 0.48264168D-01 0.11359539D-01 0.22645504D+05 0.22645504D+05 0.22645504D+05 0.12279303D+01  1  2  5  2  5  2        3 -.509556472792D+01 0.100000000000D+01
0.683779209835D-01 0.000000000000D+00 0.752552464178D-02 0.238242451112D-02 0.000000000000D+00  5 -4 3 25 -24 21 2 0.48264168D-01 0.11198407D-01 0.22645504D+05 0.22645504D+05 0.22645504D+05 0.12279303D+01  1  2  6  2  5  2        3 0.522648427191D+01 0.100000000000D+01
0.103930277537D-01 0.000000000000D+00 0.000000000000D+00 0.238242451112D-02 0.422456067530D-02  5 -4 3 25 -24 21 2 0.48537699D-01 0.11297117D-01 0.22967905D+05 0.22967905D+05 0.22967905D+05 0.12272649D+01  1  2 11  2  5  2        3 0.773953929523D+00 0.100000000000D+01
0.463745865123D-07 0.000000000000D+00 0.000000000000D+00 0.238242451112D-02 0.000000000000D+00  5 -4 21 25 -24 -3 2 0.48264168D-01 0.11328620D-01 0.22967905D+05 0.22967905D+05 0.22967905D+05 0.12272649D+01  1  2 12  4  5  2        3 0.782298819438D-04 0.100000000000D+01
-.178468951273D-03 0.000000000000D+00 -.197354270364D-04 0.238242451112D-02 0.000000000000D+00  5 -4 21 25 -24 -3 2 0.48264168D-01 0.11359539D-01 0.22645504D+05 0.22645504D+05 0.22645504D+05 0.12279303D+01  1  2  5  4  5  2        3 -.299754344210D+00 0.100000000000D+01
0.256578636225D-04 0.000000000000D+00 0.000000000000D+00 0.238242451112D-02 0.687618131565D-05  5 -4 21 25 -24 -3 2 0.48537699D-01 0.11297117D-01 0.22967905D+05 0.22967905D+05 0.22967905D+05 0.12272649D+01  1  2 11  4  5  2        3 0.430001670673D-01 0.100000000000D+01
  </mgrwgt>
  </event>
  <event>
  5     66 -.46019439E-03 0.13304276E+03 0.75467711E-02 0.12062019E+00
       -2 -1    0    0    0  502 0.00000000E+00 0.00000000E+00 0.95938478E+02 0.95939011E+02 0.32000000E+00 0.0000E+00 0.9000E+01
        1 -1    0    0  501    0 0.00000000E+00 0.00000000E+00 -.22425203E+03 0.22425226E+03 0.32000000E+00 0.0000E+00 0.9000E+01
       25  1    1    2    0    0 -.36328863E+02 -.71419770E+02 -.65623575E+02 0.16233306E+03 0.12500000E+03 0.0000E+00 0.9000E+01
      -24  1    1    2    0    0 0.17263008E+02 0.85533304E+02 -.62515540E+02 0.13412444E+03 0.80419002E+02 0.0000E+00 0.9000E+01
       21  1    1    2  501  502 0.19065855E+02 -.14113534E+02 -.17443808E+00 0.23733765E+02 0.75000000E+00 0.0000E+00 0.9000E+01
#aMCatNLO 2  0  0  1  2 0.23721270D+02 0.00000000D+00  -5  5  0 0.00000000D+00 0.00000000D+00 0.00000000D+00 0.00000000D+00 0.00000000D+00
  <mgrwgt>
 -.1137879075D-01    2    2    0
 0.133139702342018D+03 0.000000000000000D+00 0.000000000000000D+00 0.133139702342018D+03
 0.133139702342018D+03 0.000000000000000D+00 0.000000000000000D+00 -.133139702342018D+03
 0.150335519751359D+03 -.256493047025694D+02 -.793253320811326D+02 0.503719737593148D+01
 0.115943884932677D+03 0.256493047025694D+02 0.793253320811326D+02 -.503719737593148D+01
 0.000000000000000D+00 0.000000000000000D+00 -.000000000000000D+00 0.000000000000000D+00
 0.152370504555251D+03 0.000000000000000D+00 0.000000000000000D+00 0.152370504555251D+03
 0.141188237546467D+03 0.000000000000000D+00 0.000000000000000D+00 -.141188237546467D+03
 0.148562926478506D+03 -.363288627942608D+02 -.714197696336922D+02 0.503719737593148D+01
 0.118770984622303D+03 0.172630078983750D+02 0.855333036581502D+02 -.503719737593148D+01
 0.262248310009092D+02 0.190658548958858D+02 -.141135340244579D+02 0.111822670087842D+02
-.393721025947D-03 0.000000000000D+00 0.000000000000D+00 0.257618909051D-02 0.000000000000D+00  5 -2 1 25 -24 21 2 0.15106750D-01 0.32532445D-01 0.21150306D+05 0.21150306D+05 0.21150306D+05 0.12311612D+01  1  2 13  1  5  1       -2 -.233392886437D+00 0.100000000000D+01
0.387805660896D-03 0.000000000000D+00 0.000000000000D+00 0.257618909051D-02 0.373996233658D-04  5 -2 1 25 -24 21 2 0.14759276D-01 0.34499090D-01 0.21150306D+05 0.21150306D+05 0.21150306D+05 0.12311612D+01  1  2  1  1  5  1       -2 0.222014095691D+00 0.100000000000D+01
  </mgrwgt>
  </event>
  <event>
  5     66 0.46019439E-03 0.11549714E+03 0.75467711E-02 0.12336960E+00
       -2 -1    0    0    0  502 0.00000000E+00 0.00000000E+00 0.11965591E+03 0.11965634E+03 0.32000000E+00 0.0000E+00 0.9000E+01
        1 -1    0    0  501    0 0.00000000E+00 0.00000000E+00 -.15361724E+03 0.15361758E+03 0.32000000E+00 0.0000E+00 0.9000E+01
       25  1    1    2    0    0 0.21141087E+02 0.50182634E+02 0.32214015E+02 0.14009991E+03 0.12500000E+03 0.0000E+00 0.9000E+01
      -24  1    1    2    0    0 -.12447109E+01 -.51459746E+02 -.52251548E+02 0.10884436E+03 0.80419002E+02 0.0000E+00 0.9000E+01
       21  1    1    2  501  502 -.19896376E+02 0.12771119E+01 -.13923798E+02 0.24329642E+02 0.75000000E+00 0.0000E+00 0.9000E+01
#aMCatNLO 2  0  0  1  2 0.19937322D+02 0.00000000D+00  -5  5  0 0.00000000D+00 0.00000000D+00 0.00000000D+00 0.00000000D+00 0.00000000D+00
  <mgrwgt>
 0.6776232434D-01    1    2    0
 0.123667145369792D+03 0.000000000000000D+00 0.000000000000000D+00 0.123667145369792D+03
 0.123667145369792D+03 0.000000000000000D+00 0.000000000000000D+00 -.123667145369792D+03
 0.142180114231177D+03 0.968293426851081D+01 0.509181122917659D+02 0.436322301445330D+02
 0.105154176508407D+03 -.968293426851081D+01 -.509181122917659D+02 -.436322301445330D+02
 0.000000000000000D+00 -.000000000000000D+00 0.000000000000000D+00 -.000000000000000D+00
 0.129702371579092D+03 0.000000000000000D+00 0.000000000000000D+00 0.129702371579092D+03
 0.141706278923025D+03 0.000000000000000D+00 0.000000000000000D+00 -.141706278923025D+03
 0.143157304639327D+03 0.211410871045203D+02 0.501826344490857D+02 0.436322301445330D+02
 0.104979246834484D+03 -.124471088320205D+01 -.514597463946011D+02 -.436322301445330D+02
 0.232720990283071D+02 -.198963762213183D+02 0.127711194551545D+01 -.120039073439324D+02
0.104861875595D-03 0.000000000000D+00 0.000000000000D+00 0.242238928046D-02 0.509405238608D-04  5 -2 1 25 -24 21 2 0.18407822D-01 0.23632404D-01 0.15846488D+05 0.15846488D+05 0.15846488D+05 0.12451137D+01  1  2  1  1  5  1       -2 0.677623243391D-01 0.100000000000D+01
  </mgrwgt>
  </event>
  <event>
  4     66 0.46019439E-03 0.10854560E+03 0.75467711E-02 0.88181187E-01
       -4 -1    0    0    0  501 0.00000000E+00 0.00000000E+00 0.20062865E+03 0.20063464E+03 0.15500000E+01 0.0000E+00 0.9000E+01
        3 -1    0    0  501    0 0.00000000E+00 0.00000000E+00 -.64611985E+02 0.64613919E+02 0.50000000E+00 0.0000E+00 0.9000E+01
       25  1    1    2    0    0 -.31871211E+02 -.12850620E+02 0.11937028E+03 0.17622479E+03 0.12500000E+03 0.0000E+00 0.9000E+01
      -24  1    1    2    0    0 0.31871211E+02 0.12850620E+02 0.16646380E+02 0.89023763E+02 0.80419002E+02 0.0000E+00 0.9000E+01
#aMCatNLO 1  0  0  2  2 0.15966052D+04 0.00000000D+00  -5  5  0 0.00000000D+00 0.00000000D+00 0.00000000D+00 0.00000000D+00 0.00000000D+00
  <mgrwgt>
 0.5512279916D-01    5    2    0
 0.113859851335401D+03 0.000000000000000D+00 0.000000000000000D+00 0.113859851335401D+03
 0.113859851335401D+03 0.000000000000000D+00 0.000000000000000D+00 -.113859851335401D+03
 0.133967430825060D+03 -.318712107144077D+02 -.128506202958061D+02 0.337840200017424D+02
 0.937522718457415D+02 0.318712107144077D+02 0.128506202958061D+02 -.337840200017424D+02
 0.000000000000000D+00 -.000000000000000D+00 0.000000000000000D+00 -.000000000000000D+00
 0.151129870556049D+04 0.000000000000000D+00 0.000000000000000D+00 0.151129870556049D+04
 0.171044088073377D+04 0.000000000000000D+00 0.000000000000000D+00 -.171044088073377D+04
 0.926029577718844D+03 0.391010120816969D+03 -.829382604243278D+03 0.337840200017424D+02
 0.686733394055079D+03 0.343242672121340D+03 -.588369481349570D+03 -.337840200017424D+02
 0.160897661452034D+04 -.734252792938309D+03 0.141775208559285D+04 -.199142175173284D+03
0.386886556424D-03 0.000000000000D+00 0.000000000000D+00 0.269554067125D-02 0.000000000000D+00  5 -4 3 25 -24 21 0 0.30866555D-01 0.99409147D-02 0.11782147D+05 0.11782147D+05 0.11782147D+05 0.12599577D+01  1  2  2  2  5  2        3 0.539096334619D-01 0.100000000000D+01
-.214339924849D-04 0.000000000000D+00 -.148574624624D-05 0.269554067125D-02 0.000000000000D+00  5 -4 3 25 -24 21 2 0.30866555D-01 0.99409147D-02 0.11782147D+05 0.11782147D+05 0.11782147D+05 0.12599577D+01  1  2  3  2  5  2        3 -.474130340212D-02 0.100000000000D+01
0.267832432719D-04 0.000000000000D+00 0.000000000000D+00 0.269554067125D-02 0.000000000000D+00  5 -4 3 25 -24 21 2 0.30866555D-01 0.99409147D-02 0.11782147D+05 0.11782147D+05 0.11782147D+05 0.12599577D+01  1  2 15  2  5  2        3 0.592458369734D-02 0.100000000000D+01
0.112891217444D-01 0.000000000000D+00 -.229041516529D-02 0.269554067125D-02 0.000000000000D+00  5 -4 3 25 -24 21 2 0.30866555D-01 0.70617673D+00 0.11782147D+05 0.11782147D+05 0.11782147D+05 0.12599577D+01  1  2  5  2  5  2        3 0.182971736612D-04 0.100000000000D+01
0.328069155157D-02 0.000000000000D+00 -.823145912388D-03 0.269554067125D-02 0.000000000000D+00  5 -4 21 25 -24 -3 2 0.30866555D-01 0.70617673D+00 0.11782147D+05 0.11782147D+05 0.11782147D+05 0.12599577D+01  1  2  5  4  5  2        3 0.115882246161D-04 0.100000000000D+01
  </mgrwgt>
  </event>
  <event>
  5     66 0.46019439E-03 0.12742324E+03 0.75467711E-02 0.10808524E+00
       -2 -1    0    0    0  501 0.00000000E+00 0.00000000E+00 0.17758724E+03 0.17758753E+03 0.32000000E+00 0.0000E+00 0.9000E+01
        1 -1    0    0  502    0 0.00000000E+00 0.00000000E+00 -.62916396E+03 0.62916404E+03 0.32000000E+00 0.0000E+00 0.9000E+01
       25  1    1    2    0    0 -.14733326E+03 0.18889673E+03 -.15253805E+03 0.31029329E+03 0.12500000E+03 0.0000E+00 0.9000E+01
      -24  1    1    2    0    0 0.17075856E+02 0.34439169E+02 0.14244762E+02 0.90265001E+02 0.80419002E+02 0.0000E+00 0.9000E+01
       21  1    1    2  502  501 0.13025741E+03 -.22333590E+03 -.31328343E+03 0.40619329E+03 0.75000000E+00 0.0000E+00 0.9000E+01
#aMCatNLO 2  0  0  2  2 0.25854577D+03 0.00000000D+00  -5  5  0 0.00000000D+00 0.00000000D+00 0.00000000D+00 0.00000000D+00 0.00000000D+00
  <mgrwgt>
 0.1403166275D-01    1    2    0
 0.136451447368304D+03 0.000000000000000D+00 0.000000000000000D+00 0.136451447368304D+03
 0.136451447368304D+03 0.000000000000000D+00 0.000000000000000D+00 -.136451447368304D+03
 0.153229913669418D+03 -.614616901650527D+02 0.416636069878673D+02 -.483839946465038D+02
 0.119672981067189D+03 0.614616901650527D+02 -.416636069878673D+02 0.483839946465038D+02
 0.000000000000000D+00 0.000000000000000D+00 -.000000000000000D+00 -.000000000000000D+00
 0.254551683688968D+03 0.000000000000000D+00 0.000000000000000D+00 0.254551683688968D+03
 0.438933670505343D+03 0.000000000000000D+00 0.000000000000000D+00 -.438933670505343D+03
 0.274508792270269D+03 -.147333263577175D+03 0.188896732474194D+03 -.483839946465038D+02
 0.101419268951036D+03 0.170758557417155D+02 0.344391691672036D+02 0.483839946465038D+02
 0.317557292973006D+03 0.130257407835460D+03 -.223335901641398D+03 -.184381986816376D+03
0.293690085600D-03 0.000000000000D+00 0.000000000000D+00 0.225366890296D-02 0.551108917440D-06  5 -2 1 25 -24 21 2 0.27321102D-01 0.96794338D-01 0.95447277D+05 0.95447277D+05 0.95447277D+05 0.11654352D+01  1  2  1  2  5  2        1 0.140316627539D-01 0.100000000000D+01
  </mgrwgt>
  </event>
  <event>
  4     66 0.46019439E-03 0.11983270E+03 0.75467711E-02 0.11139522E+00
       -4 -1    0    0    0  501 0.00000000E+00 0.00000000E+00 0.30940784E+03 0.30941173E+03 0.15500000E+01 0.0000E+00 0.9000E+01
        3 -1    0    0  501    0 0.00000000E+00 0.00000000E+00 -.14497745E+03 0.14497832E+03 0.50000000E+00 0.0000E+00 0.9000E+01
       25  1    1    2    0    0 0.76797715E+02 0.16595302E+03 0.62649455E+02 0.23019176E+03 0.12500000E+03 0.0000E+00 0.9000E+01
      -24  1    1    2    0    0 -.76797715E+02 -.16595302E+03 0.10178094E+03 0.22419828E+03 0.80419002E+02 0.0000E+00 0.9000E+01
#aMCatNLO 1  0  0  1  2 0.70786256D+02 0.00000000D+00  -5  5  0 0.00000000D+00 0.00000000D+00 0.00000000D+00 0.00000000D+00 0.00000000D+00
  <mgrwgt>
 0.4730850292D-01    9    2    0
 0.211797638417141D+03 0.000000000000000D+00 0.000000000000000D+00 0.211797638417141D+03
 0.211797638417141D+03 0.000000000000000D+00 0.000000000000000D+00 -.211797638417141D+03
 0.222607230197849D+03 0.767977153538038D+02 0.165953020030624D+03 -.221514106889262D+02
 0.200988046636432D+03 -.767977153538038D+02 -.165953020030624D+03 0.221514106889262D+02
 0.000000000000000D+00 0.000000000000000D+00 -.000000000000000D+00 0.000000000000000D+00
 0.259584219568411D+03 0.000000000000000D+00 0.000000000000000D+00 0.259584219568411D+03
 0.242664994064753D+03 0.000000000000000D+00 0.000000000000000D+00 -.242664994064753D+03
 0.226978353085759D+03 0.436296091926668D+02 0.183029901862262D+03 -.221514106889262D+02
 0.202490682653627D+03 -.106564295565544D+03 -.150627442792710D+03 0.221514106889262D+02
 0.727801778937781D+02 0.629346863728769D+02 -.324024590695519D+02 0.169192255036578D+02
0.209701923799D-02 0.000000000000D+00 0.000000000000D+00 0.211011097391D-02 0.000000000000D+00  5 -4 3 25 -24 21 0 0.47601572D-01 0.22304589D-01 0.44366259D+05 0.44366259D+05 0.44366259D+05 0.11974579D+01  1  2  2  1  5  1       -4 0.347933084301D-01 0.100000000000D+01
-.116496762042D-03 0.000000000000D+00 -.805310603173D-05 0.211011097391D-02 0.000000000000D+00  5 -4 3 25 -24 21 2 0.47601572D-01 0.22304589D-01 0.44366259D+05 0.44366259D+05 0.44366259D+05 0.11974579D+01  1  2  3  1  5  1       -4 -.277158163755D-02 0.100000000000D+01
0.144127983600D-03 0.000000000000D+00 0.000000000000D+00 0.211011097391D-02 0.000000000000D+00  5 -4 3 25 -24 21 2 0.47601572D-01 0.22304589D-01 0.44366259D+05 0.44366259D+05 0.44366259D+05 0.11974579D+01  1  2 15  1  5  1       -4 0.342895773067D-02 0.100000000000D+01
0.109231145338D-02 0.000000000000D+00 0.000000000000D+00 0.211011097391D-02 0.000000000000D+00  5 -4 3 25 -24 21 2 0.61162914D-01 0.22304589D-01 0.61990176D+05 0.61990176D+05 0.61990176D+05 0.11831457D+01  1  2 12  1  5  1       -4 0.153249342544D-01 0.100000000000D+01
-.111624725906D-02 0.000000000000D+00 0.000000000000D+00 0.211011097391D-02 0.000000000000D+00  5 -4 3 25 -24 21 2 0.47601572D-01 0.22304589D-01 0.44366259D+05 0.44366259D+05 0.44366259D+05 0.11974579D+01  1  2  4  1  5  1       -4 -.265567072590D-01 0.100000000000D+01
-.239843189350D-02 0.000000000000D+00 -.870179580820D-03 0.211011097391D-02 0.000000000000D+00  5 -4 3 25 -24 21 2 0.65666750D-01 0.22304589D-01 0.44366259D+05 0.44366259D+05 0.44366259D+05 0.11974579D+01  1  2  5  1  5  1       -4 -.290872245165D-01 0.100000000000D+01
0.258654085070D-02 0.000000000000D+00 0.827008051298D-03 0.211011097391D-02 0.000000000000D+00  5 -4 3 25 -24 21 2 0.47601572D-01 0.22304589D-01 0.44366259D+05 0.44366259D+05 0.44366259D+05 0.11974579D+01  1  2  6  1  5  1       -4 0.615365526122D-01 0.100000000000D+01
0.370409701203D-04 0.000000000000D+00 0.000000000000D+00 0.211011097391D-02 0.000000000000D+00  5 21 3 25 -24 4 2 0.61162914D-01 0.22304589D-01 0.61990176D+05 0.61990176D+05 0.61990176D+05 0.11831457D+01  1  2 12  3  5  1       -4 0.117013746079D-01 0.100000000000D+01
-.757914730858D-04 0.000000000000D+00 -.353768804541D-04 0.211011097391D-02 0.000000000000D+00  5 21 3 25 -24 4 2 0.65666750D-01 0.22304589D-01 0.44366259D+05 0.44366259D+05 0.44366259D+05 0.11974579D+01  1  2  5  3  5  1       -4 -.210611112978D-01 0.100000000000D+01
  </mgrwgt>
  </event>
  <event>
  4     66 0.46019439E-03 0.13781487E+03 0.75467711E-02 0.12127793E+00
       -2 -1    0    0    0  501 0.00000000E+00 0.00000000E+00 0.23099965E+02 0.23102181E+02 0.32000000E+00 0.0000E+00 0.9000E+01
        1 -1    0    0  501    0 0.00000000E+00 0.00000000E+00 -.11229336E+04 0.11229336E+04 0.32000000E+00 0.0000E+00 0.9000E+01
       25  1    1    2    0    0 -.75351246E+02 0.50447945E+02 -.30347554E+03 0.34050728E+03 0.12500000E+03 0.0000E+00 0.9000E+01
      -24  1    1    2    0    0 0.75351246E+02 -.50447945E+02 -.79635809E+03 0.80552854E+03 0.80419002E+02 0.0000E+00 0.9000E+01
#aMCatNLO 1  0  0  2  2 0.52488549D+01 0.00000000D+00  -5  5  0 0.00000000D+00 0.00000000D+00 0.00000000D+00 0.00000000D+00 0.00000000D+00
  <mgrwgt>
 0.9760894107D-01    6    2    0
 0.161062169650407D+03 0.000000000000000D+00 0.000000000000000D+00 0.161062169650407D+03
 0.161062169650407D+03 0.000000000000000D+00 0.000000000000000D+00 -.161062169650407D+03
 0.175276842260224D+03 -.753512455381348D+02 0.504479446863434D+02 0.829105910332974D+02
 0.146847497040589D+03 0.753512455381348D+02 -.504479446863434D+02 -.829105910332974D+02
 0.000000000000000D+00 0.000000000000000D+00 -.000000000000000D+00 0.000000000000000D+00
 0.166319300351150D+03 0.000000000000000D+00 0.000000000000000D+00 0.166319300351150D+03
 0.162399048187630D+03 0.000000000000000D+00 0.000000000000000D+00 -.162399048187630D+03
 0.176668584578737D+03 -.769562789745400D+02 0.528237995410811D+02 0.829105910332974D+02
 0.145498515615908D+03 0.740180129130435D+02 -.484744236786364D+02 -.829105910332974D+02
 0.655124834413587D+01 0.293826606149655D+01 -.434937586244473D+01 0.392025216352005D+01
0.416876752725D-03 0.000000000000D+00 0.000000000000D+00 0.175941405512D-02 0.000000000000D+00  5 -2 1 25 -24 21 0 0.35540147D-02 0.17275919D+00 0.18992939D+05 0.18992939D+05 0.18992939D+05 0.12363039D+01  1  2  2  2  5  2        1 0.153678410509D+00 0.100000000000D+01
-.224756043014D-04 0.000000000000D+00 -.160091649663D-05 0.175941405512D-02 0.000000000000D+00  5 -2 1 25 -24 21 2 0.35540147D-02 0.17275919D+00 0.18992939D+05 0.18992939D+05 0.18992939D+05 0.12363039D+01  1  2  3  2  5  2        1 -.126638879032D-01 0.100000000000D+01
0.287368698628D-04 0.000000000000D+00 0.000000000000D+00 0.175941405512D-02 0.000000000000D+00  5 -2 1 25 -24 21 2 0.35540147D-02 0.17275919D+00 0.18992939D+05 0.18992939D+05 0.18992939D+05 0.12363039D+01  1  2 15  2  5  2        1 0.161918003961D-01 0.100000000000D+01
-.400035483707D-03 0.000000000000D+00 0.000000000000D+00 0.175941405512D-02 0.000000000000D+00  5 -2 1 25 -24 21 2 0.35540147D-02 0.17275919D+00 0.18992939D+05 0.18992939D+05 0.18992939D+05 0.12363039D+01  1  2  4  2  5  2        1 -.225400147423D+00 0.100000000000D+01
0.308036877263D-03 0.000000000000D+00 0.000000000000D+00 0.175941405512D-02 0.519491207472D-03  5 -2 1 25 -24 21 2 0.36700191D-02 0.17419316D+00 0.19714755D+05 0.19714755D+05 0.19714755D+05 0.12345135D+01  1  2 11  2  5  2        1 0.162653117216D+00 0.100000000000D+01
0.420085146017D-05 0.000000000000D+00 0.000000000000D+00 0.175941405512D-02 0.817969221653D-06  5 -2 21 25 -24 -1 2 0.36700191D-02 0.17419316D+00 0.19714755D+05 0.19714755D+05 0.19714755D+05 0.12345135D+01  1  2 11  4  5  2        1 0.314964827613D-02 0.100000000000D+01
  </mgrwgt>
  </event>
  <event>
  4     66 -.46019439E-03 0.59943206E+02 0.75467711E-02 0.12598300E+00
       -2 -1    0    0    0  501 0.00000000E+00 0.00000000E+00 0.66059444E+01 0.66136904E+01 0.32000000E+00 0.0000E+00 0.9000E+01
        1 -1    0    0  501    0 0.00000000E+00 0.00000000E+00 -.18131145E+04 0.18131145E+04 0.32000000E+00 0.0000E+00 0.9000E+01
       25  1    1    2    0    0 -.21569965E+02 -.30134499E+02 -.10884473E+04 0.10962281E+04 0.12500000E+03 0.0000E+00 0.9000E+01
      -24  1    1    2    0    0 0.21569965E+02 0.30134499E+02 -.71806119E+03 0.72350013E+03 0.80419002E+02 0.0000E+00 0.9000E+01
#aMCatNLO 1  0  0  1  2 0.18683229D+01 0.00000000D+00  -5  5  0 0.00000000D+00 0.00000000D+00 0.00000000D+00 0.00000000D+00 0.00000000D+00
  <mgrwgt>
 -.3805030216D+00   11    2    0
 0.109473315851615D+03 0.000000000000000D+00 0.000000000000000D+00 0.109473315851615D+03
 0.109473315851615D+03 0.000000000000000D+00 0.000000000000000D+00 -.109473315851615D+03
 0.130386594979020D+03 -.215699652357443D+02 -.301344987891755D+02 -.152076713437021D+01
 0.885600367242107D+02 0.215699652357443D+02 0.301344987891755D+02 0.152076713437021D+01
 0.000000000000000D+00 -.000000000000000D+00 0.000000000000000D+00 0.000000000000000D+00
 0.110824669610328D+03 0.000000000000000D+00 0.000000000000000D+00 0.110824669610328D+03
 0.110124977199542D+03 0.000000000000000D+00 0.000000000000000D+00 -.110124977199542D+03
 0.130265583243268D+03 -.204828400519738D+02 -.303687785140775D+02 -.152076713437021D+01
 0.886890197332789D+02 0.223092336139666D+02 0.299751835650740D+02 0.152076713437021D+01
 0.199504383332337D+01 -.182639356199279D+01 0.393594949003457D+00 0.699692410786255D+00
0.185380433313D-03 0.000000000000D+00 0.000000000000D+00 0.302570366414D-02 0.000000000000D+00  5 -2 1 25 -24 21 0 0.10168972D-02 0.27894129D+00 0.11982007D+05 0.11982007D+05 0.11982007D+05 0.12591005D+01  1  2  2  1  5  1       -2 0.146797993837D+00 0.100000000000D+01
-.102989128363D-04 0.000000000000D+00 -.711909675713D-06 0.302570366414D-02 0.000000000000D+00  5 -2 1 25 -24 21 2 0.10168972D-02 0.27894129D+00 0.11982007D+05 0.11982007D+05 0.11982007D+05 0.12591005D+01  1  2  3  1  5  1       -2 -.129291030479D-01 0.100000000000D+01
0.128115601745D-04 0.000000000000D+00 0.000000000000D+00 0.302570366414D-02 0.000000000000D+00  5 -2 1 25 -24 21 2 0.10168972D-02 0.27894129D+00 0.11982007D+05 0.11982007D+05 0.11982007D+05 0.12591005D+01  1  2 15  1  5  1       -2 0.160834434016D-01 0.100000000000D+01
0.759589706382D-07 0.000000000000D+00 0.000000000000D+00 0.302570366414D-02 0.000000000000D+00  5 -2 1 25 -24 21 2 0.10324487D-02 0.27894129D+00 0.12188271D+05 0.12188271D+05 0.12188271D+05 0.12582325D+01  1  2 12  1  5  1       -2 0.932246257535D-04 0.100000000000D+01
-.191206332297D-02 0.000000000000D+00 0.000000000000D+00 0.302570366414D-02 0.000000000000D+00  5 -2 1 25 -24 21 2 0.10168972D-02 0.27894129D+00 0.11982007D+05 0.11982007D+05 0.11982007D+05 0.12591005D+01  1  2  4  1  5  1       -2 -.240037605228D+01 0.100000000000D+01
-.986044151897D-02 0.000000000000D+00 -.112408173859D-02 0.302570366414D-02 0.000000000000D+00  5 -2 1 25 -24 21 2 0.10363505D-02 0.27894129D+00 0.11982007D+05 0.11982007D+05 0.11982007D+05 0.12591005D+01  1  2  5  1  5  1       -2 -.120492511910D+02 0.100000000000D+01
0.988017005770D-02 0.000000000000D+00 0.112387995095D-02 0.302570366414D-02 0.000000000000D+00  5 -2 1 25 -24 21 2 0.10168972D-02 0.27894129D+00 0.11982007D+05 0.11982007D+05 0.11982007D+05 0.12591005D+01  1  2  6  1  5  1       -2 0.124034195490D+02 0.100000000000D+01
0.191216830641D-02 0.000000000000D+00 0.000000000000D+00 0.302570366414D-02 0.731952648211D-02  5 -2 1 25 -24 21 2 0.10294499D-02 0.28060174D+00 0.12188271D+05 0.12188271D+05 0.12188271D+05 0.12582325D+01  1  2 11  1  5  1       -2 0.231987430484D+01 0.100000000000D+01
0.457385797286D-08 0.000000000000D+00 0.000000000000D+00 0.302570366414D-02 0.000000000000D+00  5 21 1 25 -24 2 2 0.10324487D-02 0.27894129D+00 0.12188271D+05 0.12188271D+05 0.12188271D+05 0.12582325D+01  1  2 12  3  5  1       -2 0.131261780191D-03 0.100000000000D+01
-.339115537359D-04 0.000000000000D+00 -.388273697014D-05 0.302570366414D-02 0.000000000000D+00  5 21 1 25 -24 2 2 0.10363505D-02 0.27894129D+00 0.11982007D+05 0.11982007D+05 0.11982007D+05 0.12591005D+01  1  2  5  3  5  1       -2 -.968683160440D+00 0.100000000000D+01
0.579035349920D-05 0.000000000000D+00 0.000000000000D+00 0.302570366414D-02 0.165846423857D-04  5 21 1 25 -24 2 2 0.10294499D-02 0.28060174D+00 0.12188271D+05 0.12188271D+05 0.12188271D+05 0.12582325D+01  1  2 11  3  5  1       -2 0.164336707717D+00 0.100000000000D+01
  </mgrwgt>
  </event>
  <event>
  4     66 0.46019439E-03 0.57430122E+02 0.75467711E-02 0.12490901E+00
       -2 -1    0    0    0  501 0.00000000E+00 0.00000000E+00 0.21148238E+02 0.21150659E+02 0.32000000E+00 0.0000E+00 0.9000E+01
        1 -1    0    0  501    0 0.00000000E+00 0.00000000E+00 -.68731496E+03 0.68731503E+03 0.32000000E+00 0.0000E+00 0.9000E+01
       25  1    1    2    0    0 -.47086372E+02 0.22066626E+02 -.48503877E+03 0.50357886E+03 0.12500000E+03 0.0000E+00 0.9000E+01
      -24  1    1    2    0    0 0.47086372E+02 -.22066626E+02 -.18112795E+03 0.20488683E+03 0.80419002E+02 0.0000E+00 0.9000E+01
#aMCatNLO 1  0  0  2  1 0.17181272D+01 0.00000000D+00  -5  5  0 0.00000000D+00 0.00000000D+00 0.00000000D+00 0.00000000D+00 0.00000000D+00
  <mgrwgt>
 0.4062667761D+00   11    2    0
 0.120566928678432D+03 0.000000000000000D+00 0.000000000000000D+00 0.120566928678432D+03
 0.120566928678432D+03 0.000000000000000D+00 0.000000000000000D+00 -.120566928678432D+03
 0.139555933677585D+03 -.470863719758153D+02 0.220666258275392D+02 -.338643798609271D+02
 0.101577923679278D+03 0.470863719758153D+02 -.220666258275392D+02 0.338643798609271D+02
 0.000000000000000D+00 0.000000000000000D+00 0.000000000000000D+00 -.000000000000000D+00
 0.121376355915886D+03 0.000000000000000D+00 0.000000000000000D+00 0.121376355915886D+03
 0.121485193359535D+03 0.000000000000000D+00 0.000000000000000D+00 -.121485193359535D+03
 0.139504435364448D+03 -.473698404386294D+02 0.211137272836196D+02 -.338643798609271D+02
 0.101635542915602D+03 0.468799485083894D+02 -.227605323721619D+02 0.338643798609271D+02
 0.172157099537110D+01 0.489891930240035D+00 0.164680508854224D+01 -.108837443649338D+00
0.147912300488D-03 0.000000000000D+00 0.000000000000D+00 0.258315911546D-02 0.000000000000D+00  5 -2 1 25 -24 21 0 0.32537670D-02 0.10574095D+00 0.13357772D+05 0.13357772D+05 0.13357772D+05 0.12536045D+01  1  2  2  2  5  2        1 0.133878794407D+00 0.100000000000D+01
-.819949149486D-05 0.000000000000D+00 -.568022180079D-06 0.258315911546D-02 0.000000000000D+00  5 -2 1 25 -24 21 2 0.32537670D-02 0.10574095D+00 0.13357772D+05 0.13357772D+05 0.13357772D+05 0.12536045D+01  1  2  3  2  5  2        1 -.116631405404D-01 0.100000000000D+01
0.102161900508D-04 0.000000000000D+00 0.000000000000D+00 0.258315911546D-02 0.000000000000D+00  5 -2 1 25 -24 21 2 0.32537670D-02 0.10574095D+00 0.13357772D+05 0.13357772D+05 0.13357772D+05 0.12536045D+01  1  2 15  2  5  2        1 0.145317377821D-01 0.100000000000D+01
0.294728580613D-07 0.000000000000D+00 0.000000000000D+00 0.258315911546D-02 0.000000000000D+00  5 -2 1 25 -24 21 2 0.32537670D-02 0.10689871D+00 0.13558019D+05 0.13558019D+05 0.13558019D+05 0.12528579D+01  1  2 12  2  5  2        1 0.412535580169D-04 0.100000000000D+01
-.187673130941D-02 0.000000000000D+00 0.000000000000D+00 0.258315911546D-02 0.000000000000D+00  5 -2 1 25 -24 21 2 0.32537670D-02 0.10574095D+00 0.13357772D+05 0.13357772D+05 0.13357772D+05 0.12536045D+01  1  2  4  2  5  2        1 -.266950469209D+01 0.100000000000D+01
-.153637815583D-01 0.000000000000D+00 -.170962881742D-02 0.258315911546D-02 0.000000000000D+00  5 -2 1 25 -24 21 2 0.32537670D-02 0.10711635D+00 0.13357772D+05 0.13357772D+05 0.13357772D+05 0.12536045D+01  1  2  5  2  5  2        1 -.214579314063D+02 0.100000000000D+01
0.153847336797D-01 0.000000000000D+00 0.170948606258D-02 0.258315911546D-02 0.000000000000D+00  5 -2 1 25 -24 21 2 0.32537670D-02 0.10574095D+00 0.13357772D+05 0.13357772D+05 0.13357772D+05 0.12536045D+01  1  2  6  2  5  2        1 0.218835901221D+02 0.100000000000D+01
0.187681023287D-02 0.000000000000D+00 0.000000000000D+00 0.258315911546D-02 0.732599360151D-02  5 -2 1 25 -24 21 2 0.32756112D-02 0.10654630D+00 0.13558019D+05 0.13558019D+05 0.13558019D+05 0.12528579D+01  1  2 11  2  5  2        1 0.261350724135D+01 0.100000000000D+01
0.222893164160D-08 0.000000000000D+00 0.000000000000D+00 0.258315911546D-02 0.000000000000D+00  5 -2 21 25 -24 -1 2 0.32537670D-02 0.10689871D+00 0.13558019D+05 0.13558019D+05 0.13558019D+05 0.12528579D+01  1  2 12  4  5  2        1 0.710208815541D-05 0.100000000000D+01
-.364116772729D-04 0.000000000000D+00 -.406348954320D-05 0.258315911546D-02 0.000000000000D+00  5 -2 21 25 -24 -1 2 0.32537670D-02 0.10711635D+00 0.13357772D+05 0.13357772D+05 0.13357772D+05 0.12536045D+01  1  2  5  4  5  2        1 -.115594973283D+00 0.100000000000D+01
0.484434851092D-05 0.000000000000D+00 0.000000000000D+00 0.258315911546D-02 0.103435871403D-04  5 -2 21 25 -24 -1 2 0.32756112D-02 0.10654630D+00 0.13558019D+05 0.13558019D+05 0.13558019D+05 0.12528579D+01  1  2 11  4  5  2        1 0.154047369646D-01 0.100000000000D+01
  </mgrwgt>
  </event>
  <event>
  4     66 0.46019439E-03 0.12636168E+03 0.75467711E-02 0.11364539E+00
       -2 -1    0    0    0  501 0.00000000E+00 0.00000000E+00 0.12318927E+02 0.12323082E+02 0.32000000E+00 0.0000E+00 0.9000E+01
        1 -1    0    0  501    0 0.00000000E+00 0.00000000E+00 -.13710204E+04 0.13710204E+04 0.32000000E+00 0.0000E+00 0.9000E+01
       25  1    1    2    0    0 -.88595674E+01 -.71909271E+02 -.93170910E+03 0.94284478E+03 0.12500000E+03 0.0000E+00 0.9000E+01
      -24  1    1    2    0    0 0.88595674E+01 0.71909271E+02 -.42699238E+03 0.44049874E+03 0.80419002E+02 0.0000E+00 0.9000E+01
#aMCatNLO 1  0  0  2  2 0.14299762D+03 0.00000000D+00  -5  5  0 0.00000000D+00 0.00000000D+00 0.00000000D+00 0.00000000D+00 0.00000000D+00
  <mgrwgt>
 0.2396328856D+00    3    2    0
 0.129970765114665D+03 0.000000000000000D+00 0.000000000000000D+00 0.129970765114665D+03
 0.129970765114665D+03 0.000000000000000D+00 0.000000000000000D+00 -.129970765114665D+03
 0.147585849625305D+03 -.885956742221913D+01 -.719092712565545D+02 -.301188941042918D+02
 0.112355680604025D+03 0.885956742221913D+01 0.719092712565545D+02 0.301188941042918D+02
 0.000000000000000D+00 0.000000000000000D+00 0.000000000000000D+00 0.000000000000000D+00
 0.255869295198339D+03 0.000000000000000D+00 0.000000000000000D+00 0.255869295198339D+03
 0.195879937896507D+03 0.000000000000000D+00 0.000000000000000D+00 -.195879937896507D+03
 0.180521205161534D+03 -.917089064737329D+02 -.874370299375445D+02 -.301188941042918D+02
 0.116156936286448D+03 -.488414755700053D+02 0.610948473699911D+02 0.301188941042918D+02
 0.155071091646864D+03 0.140550382043738D+03 0.263421825675534D+02 0.599893573018322D+02
0.374965916728D-03 0.000000000000D+00 0.000000000000D+00 0.249677367833D-02 0.000000000000D+00  5 -2 1 25 -24 21 0 0.18955420D-02 0.21092654D+00 0.15967274D+05 0.15967274D+05 0.15967274D+05 0.12447404D+01  1  2  2  2  5  2        1 0.234753420540D+00 0.100000000000D+01
-.208113532679D-04 0.000000000000D+00 -.143996785103D-05 0.249677367833D-02 0.000000000000D+00  5 -2 1 25 -24 21 2 0.18955420D-02 0.21092654D+00 0.15967274D+05 0.15967274D+05 0.15967274D+05 0.12447404D+01  1  2  3  2  5  2        1 -.201872909574D-01 0.100000000000D+01
0.258416602785D-04 0.000000000000D+00 0.000000000000D+00 0.249677367833D-02 0.000000000000D+00  5 -2 1 25 -24 21 2 0.18955420D-02 0.21092654D+00 0.15967274D+05 0.15967274D+05 0.15967274D+05 0.12447404D+01  1  2 15  2  5  2        1 0.250667560225D-01 0.100000000000D+01
  </mgrwgt>
  </event>
  <event>
  4     66 0.46019439E-03 0.66133908E+02 0.75467711E-02 0.12665041E+00
       -4 -1    0    0    0  501 0.00000000E+00 0.00000000E+00 0.19913395E+02 0.19973628E+02 0.15500000E+01 0.0000E+00 0.9000E+01
        3 -1    0    0  501    0 0.00000000E+00 0.00000000E+00 -.69928625E+03 0.69928643E+03 0.50000000E+00 0.0000E+00 0.9000E+01
       25  1    1    2    0    0 0.17768258E+02 0.25709453E+01 -.56096479E+03 0.57500331E+03 0.12500000E+03 0.0000E+00 0.9000E+01
      -24  1    1    2    0    0 -.17768258E+02 -.25709453E+01 -.11840807E+03 0.14425674E+03 0.80419002E+02 0.0000E+00 0.9000E+01
#aMCatNLO 1  0  0  1  2 0.50137183D+01 0.00000000D+00  -5  5  0 0.00000000D+00 0.00000000D+00 0.00000000D+00 0.00000000D+00 0.00000000D+00
  <mgrwgt>
 0.2237769630D-01    8    2    0
 0.118096944407773D+03 0.000000000000000D+00 0.000000000000000D+00 0.118096944407773D+03
 0.118096944407773D+03 0.000000000000000D+00 0.000000000000000D+00 -.118096944407773D+03
 0.137483102304477D+03 0.177682583438319D+02 0.257094534999814D+01 -.543533131896986D+02
 0.987107865110689D+02 -.177682583438319D+02 -.257094534999814D+01 0.543533131896986D+02
 0.000000000000000D+00 -.000000000000000D+00 -.000000000000000D+00 -.000000000000000D+00
 0.120562718966214D+03 0.000000000000000D+00 0.000000000000000D+00 0.120562718966214D+03
 0.120699973978647D+03 0.000000000000000D+00 0.000000000000000D+00 -.120699973978647D+03
 0.137895018216259D+03 0.206712124300287D+02 0.290764008045994D+01 -.543533131896986D+02
 0.983520780306756D+02 -.156908803488868D+02 -.233000381137682D+01 0.543533131896986D+02
 0.501559669792640D+01 -.498033208114196D+01 -.577636269083114D+00 -.137255012433403D+00
0.159997717029D-03 0.000000000000D+00 0.000000000000D+00 0.230663347673D-02 0.000000000000D+00  5 -4 3 25 -24 21 0 0.30682463D-02 0.10758715D+00 0.10886976D+05 0.10886976D+05 0.10886976D+05 0.12640090D+01  1  2  2  1  5  1       -4 0.119617083444D-01 0.100000000000D+01
-.872300313380D-05 0.000000000000D+00 -.614433361756D-06 0.230663347673D-02 0.000000000000D+00  5 -4 3 25 -24 21 2 0.30682463D-02 0.10758715D+00 0.10886976D+05 0.10886976D+05 0.10886976D+05 0.12640090D+01  1  2  3  1  5  1       -4 -.104194730439D-02 0.100000000000D+01
0.109284961934D-04 0.000000000000D+00 0.000000000000D+00 0.230663347673D-02 0.000000000000D+00  5 -4 3 25 -24 21 2 0.30682463D-02 0.10758715D+00 0.10886976D+05 0.10886976D+05 0.10886976D+05 0.12640090D+01  1  2 15  1  5  1       -4 0.130538955164D-02 0.100000000000D+01
0.755583382971D-04 0.000000000000D+00 0.000000000000D+00 0.230663347673D-02 0.000000000000D+00  5 -4 3 25 -24 21 2 0.31654062D-02 0.10758715D+00 0.11418347D+05 0.11418347D+05 0.11418347D+05 0.12615609D+01  1  2 12  1  5  1       -4 0.860328189711D-02 0.100000000000D+01
-.305010088694D-03 0.000000000000D+00 0.000000000000D+00 0.230663347673D-02 0.000000000000D+00  5 -4 3 25 -24 21 2 0.30682463D-02 0.10758715D+00 0.10886976D+05 0.10886976D+05 0.10886976D+05 0.12640090D+01  1  2  4  1  5  1       -4 -.364329159181D-01 0.100000000000D+01
0.248971749612D-03 0.000000000000D+00 0.000000000000D+00 0.230663347673D-02 0.779309939294D-03  5 -4 3 25 -24 21 2 0.31323090D-02 0.10995852D+00 0.11418347D+05 0.11418347D+05 0.11418347D+05 0.12615609D+01  1  2 11  1  5  1       -4 0.274129494937D-01 0.100000000000D+01
0.125440247456D-05 0.000000000000D+00 0.000000000000D+00 0.230663347673D-02 0.000000000000D+00  5 21 3 25 -24 4 2 0.31654062D-02 0.10758715D+00 0.11418347D+05 0.11418347D+05 0.11418347D+05 0.12615609D+01  1  2 12  3  5  1       -4 0.418082926650D-02 0.100000000000D+01
0.198063677093D-05 0.000000000000D+00 0.000000000000D+00 0.230663347673D-02 0.297524753234D-05  5 21 3 25 -24 4 2 0.31323090D-02 0.10995852D+00 0.11418347D+05 0.11418347D+05 0.11418347D+05 0.12615609D+01  1  2 11  3  5  1       -4 0.638840097326D-02 0.100000000000D+01
  </mgrwgt>
  </event>
  <event>
  4     66 0.46019439E-03 0.11046396E+03 0.75467711E-02 0.11348264E+00
       -2 -1    0    0    0  501 0.00000000E+00 0.00000000E+00 0.99383322E+01 0.99434826E+01 0.32000000E+00 0.0000E+00 0.9000E+01
        1 -1    0    0  501    0 0.00000000E+00 0.00000000E+00 -.12441772E+04 0.12441772E+04 0.32000000E+00 0.0000E+00 0.9000E+01
       25  1    1    2    0    0 0.29743943E+02 0.26476998E+02 -.65997566E+03 0.67288826E+03 0.12500000E+03 0.0000E+00 0.9000E+01
      -24  1    1    2    0    0 -.29743943E+02 -.26476998E+02 -.57426320E+03 0.58123246E+03 0.80419002E+02 0.0000E+00 0.9000E+01
#aMCatNLO 1  0  0  1  2 0.16292859D+03 0.00000000D+00  -5  5  0 0.00000000D+00 0.00000000D+00 0.00000000D+00 0.00000000D+00 0.00000000D+00
  <mgrwgt>
 0.2891217434D+00    5    2    0
 0.111212866751691D+03 0.000000000000000D+00 0.000000000000000D+00 0.111212866751691D+03
 0.111212866751691D+03 0.000000000000000D+00 0.000000000000000D+00 -.111212866751691D+03
 0.131799028032104D+03 0.297439427529228D+02 0.264769981600678D+02 0.126589979125512D+02
 0.906267054712787D+02 -.297439427529228D+02 -.264769981600678D+02 -.126589979125512D+02
 0.000000000000000D+00 0.000000000000000D+00 0.000000000000000D+00 0.000000000000000D+00
 0.223739180908676D+03 0.000000000000000D+00 0.000000000000000D+00 0.223739180908676D+03
 0.215131921782164D+03 0.000000000000000D+00 0.000000000000000D+00 -.215131921782164D+03
 0.135904136441730D+03 -.122796768777806D+02 -.503377950410995D+02 0.126589979125512D+02
 0.139811176446393D+03 -.659177172290166D+02 -.925988846159564D+02 -.126589979125512D+02
 0.163155789802717D+03 0.781973941067972D+02 0.142936679657056D+03 0.860725912651164D+01
0.214218299941D-03 0.000000000000D+00 0.000000000000D+00 0.294671667660D-02 0.000000000000D+00  5 -2 1 25 -24 21 0 0.15293735D-02 0.19141228D+00 0.12202286D+05 0.12202286D+05 0.12202286D+05 0.12581741D+01  1  2  2  1  5  1       -2 0.220353356971D+00 0.100000000000D+01
-.119003560495D-04 0.000000000000D+00 -.822654676749D-06 0.294671667660D-02 0.000000000000D+00  5 -2 1 25 -24 21 2 0.15293735D-02 0.19141228D+00 0.12202286D+05 0.12202286D+05 0.12202286D+05 0.12581741D+01  1  2  3  1  5  1       -2 -.193778043543D-01 0.100000000000D+01
0.148162059949D-04 0.000000000000D+00 0.000000000000D+00 0.294671667660D-02 0.000000000000D+00  5 -2 1 25 -24 21 2 0.15293735D-02 0.19141228D+00 0.12202286D+05 0.12202286D+05 0.12202286D+05 0.12581741D+01  1  2 15  1  5  1       -2 0.241257942072D-01 0.100000000000D+01
0.842602672053D-04 0.000000000000D+00 -.721231300893D-04 0.294671667660D-02 0.000000000000D+00  5 -2 1 25 -24 21 2 0.66025336D-02 0.19141228D+00 0.12202286D+05 0.12202286D+05 0.12202286D+05 0.12581741D+01  1  2  5  1  5  1       -2 0.160192979077D-01 0.100000000000D+01
0.147432565521D-04 0.000000000000D+00 -.127024816095D-04 0.294671667660D-02 0.000000000000D+00  5 21 1 25 -24 2 2 0.66025336D-02 0.19141228D+00 0.12202286D+05 0.12202286D+05 0.12202286D+05 0.12581741D+01  1  2  5  3  5  1       -2 0.480010986773D-01 0.100000000000D+01
  </mgrwgt>
  </event>
  <event>
  4     66 0.46019439E-03 0.74023001E+02 0.75467711E-02 0.12396370E+00
       -2 -1    0    0    0  501 0.00000000E+00 0.00000000E+00 0.57134390E+02 0.57135286E+02 0.32000000E+00 0.0000E+00 0.9000E+01
        1 -1    0    0  501    0 0.00000000E+00 0.00000000E+00 -.23792752E+03 0.23792773E+03 0.32000000E+00 0.0000E+00 0.9000E+01
       25  1    1    2    0    0 -.46119840E+02 -.28132493E+02 -.11052172E+03 0.17538109E+03 0.12500000E+03 0.0000E+00 0.9000E+01
      -24  1    1    2    0    0 0.46119840E+02 0.28132493E+02 -.70271409E+02 0.11968193E+03 0.80419002E+02 0.0000E+00 0.9000E+01
#aMCatNLO 1  0  0  2  1 0.10933452D+02 0.00000000D+00  -5  5  0 0.00000000D+00 0.00000000D+00 0.00000000D+00 0.00000000D+00 0.00000000D+00
  <mgrwgt>
 0.2532162332D+00    9    2    0
 0.116593342243673D+03 0.000000000000000D+00 0.000000000000000D+00 0.116593342243673D+03
 0.116593342243673D+03 0.000000000000000D+00 0.000000000000000D+00 -.116593342243673D+03
 0.136229506430669D+03 -.461198403915462D+02 -.281324928687663D+02 -.387318855606507D+01
 0.969571780566774D+02 0.461198403915462D+02 0.281324928687663D+02 0.387318855606507D+01
 0.000000000000000D+00 0.000000000000000D+00 -.000000000000000D+00 -.000000000000000D+00
 0.121029636262044D+03 0.000000000000000D+00 0.000000000000000D+00 0.121029636262044D+03
 0.123658216379973D+03 0.000000000000000D+00 0.000000000000000D+00 -.123658216379973D+03
 0.136761117035238D+03 -.502360742394834D+02 -.232365743632837D+02 -.387318855606507D+01
 0.966817457505648D+02 0.432000950818578D+02 0.316052875692333D+02 0.387318855606507D+01
 0.112449898562137D+02 0.703597915762558D+01 -.836871320594963D+01 -.262858011792904D+01
0.149672973054D-03 0.000000000000D+00 0.000000000000D+00 0.284932195879D-02 0.000000000000D+00  5 -2 1 25 -24 21 0 0.87899916D-02 0.36604319D-01 0.13578567D+05 0.13578567D+05 0.13578567D+05 0.12527820D+01  1  2  2  2  5  2        1 0.117974347580D+00 0.100000000000D+01
-.831516190539D-05 0.000000000000D+00 -.574783626326D-06 0.284932195879D-02 0.000000000000D+00  5 -2 1 25 -24 21 2 0.87899916D-02 0.36604319D-01 0.13578567D+05 0.13578567D+05 0.13578567D+05 0.12527820D+01  1  2  3  2  5  2        1 -.102864588899D-01 0.100000000000D+01
0.103676846533D-04 0.000000000000D+00 0.000000000000D+00 0.284932195879D-02 0.000000000000D+00  5 -2 1 25 -24 21 2 0.87899916D-02 0.36604319D-01 0.13578567D+05 0.13578567D+05 0.13578567D+05 0.12527820D+01  1  2 15  2  5  2        1 0.128255785254D-01 0.100000000000D+01
0.420091079899D-03 0.000000000000D+00 0.000000000000D+00 0.284932195879D-02 0.000000000000D+00  5 -2 1 25 -24 21 2 0.87899916D-02 0.39484182D-01 0.14913764D+05 0.14913764D+05 0.14913764D+05 0.12481081D+01  1  2 12  2  5  2        1 0.471514396470D+00 0.100000000000D+01
-.374917946934D-03 0.000000000000D+00 0.000000000000D+00 0.284932195879D-02 0.000000000000D+00  5 -2 1 25 -24 21 2 0.87899916D-02 0.36604319D-01 0.13578567D+05 0.13578567D+05 0.13578567D+05 0.12527820D+01  1  2  4  2  5  2        1 -.463800716341D+00 0.100000000000D+01
-.145120321655D-02 0.000000000000D+00 -.271471710216D-03 0.284932195879D-02 0.000000000000D+00  5 -2 1 25 -24 21 2 0.87899916D-02 0.40159341D-01 0.13578567D+05 0.13578567D+05 0.13578567D+05 0.12527820D+01  1  2  5  2  5  2        1 -.160171218255D+01 0.100000000000D+01
0.147120334630D-02 0.000000000000D+00 0.270309733751D-03 0.284932195879D-02 0.000000000000D+00  5 -2 1 25 -24 21 2 0.87899916D-02 0.36604319D-01 0.13578567D+05 0.13578567D+05 0.13578567D+05 0.12527820D+01  1  2  6  2  5  2        1 0.181998533673D+01 0.100000000000D+01
0.538751502284D-05 0.000000000000D+00 0.000000000000D+00 0.284932195879D-02 0.000000000000D+00  5 -2 21 25 -24 -1 2 0.87899916D-02 0.39484182D-01 0.14913764D+05 0.14913764D+05 0.14913764D+05 0.12481081D+01  1  2 12  4  5  2        1 0.328018269986D-01 0.100000000000D+01
-.212904339418D-04 0.000000000000D+00 -.412801845359D-05 0.284932195879D-02 0.000000000000D+00  5 -2 21 25 -24 -1 2 0.87899916D-02 0.40159341D-01 0.13578567D+05 0.13578567D+05 0.13578567D+05 0.12527820D+01  1  2  5  4  5  2        1 -.126085895305D+00 0.100000000000D+01
  </mgrwgt>
  </event>
  <event>
  4     66 0.46019439E-03 0.19235754E+03 0.75467711E-02 0.10902696E+00
       -2 -1    0    0    0  501 0.00000000E+00 0.00000000E+00 0.35292663E+02 0.35294113E+02 0.32000000E+00 0.0000E+00 0.9000E+01
        1 -1    0    0  501    0 0.00000000E+00 0.00000000E+00 -.11466457E+04 0.11466458E+04 0.32000000E+00 0.0000E+00 0.9000E+01
       25  1    1    2    0    0 0.57411276E+02 0.15099973E+03 -.75979963E+03 0.78677662E+03 0.12500000E+03 0.0000E+00 0.9000E+01
      -24  1    1    2    0    0 -.57411276E+02 -.15099973E+03 -.35155343E+03 0.39516326E+03 0.80419002E+02 0.0000E+00 0.9000E+01
#aMCatNLO 1  0  0  1  1 0.16297688D+03 0.00000000D+00  -5  5  0 0.00000000D+00 0.00000000D+00 0.00000000D+00 0.00000000D+00 0.00000000D+00
  <mgrwgt>
 0.3533628265D+00    3    2    0
 0.201169243045972D+03 0.000000000000000D+00 0.000000000000000D+00 0.201169243045972D+03
 0.201169243045972D+03 0.000000000000000D+00 0.000000000000000D+00 -.201169243045972D+03
 0.212549939104386D+03 0.574112757520996D+02 0.150999727358266D+03 -.587835382358353D+02
 0.189788546987558D+03 -.574112757520996D+02 -.150999727358266D+03 0.587835382358353D+02
 0.000000000000000D+00 0.000000000000000D+00 0.000000000000000D+00 -.000000000000000D+00
 0.238465554519919D+03 0.000000000000000D+00 0.000000000000000D+00 0.238465554519919D+03
 0.527076726939925D+03 0.000000000000000D+00 0.000000000000000D+00 -.527076726939925D+03
 0.179868552217382D+03 -.992587310917619D+01 0.114776603679817D+03 -.587835382358353D+02
 0.254225585588064D+03 -.133601991538831D+03 -.191985509616111D+03 0.587835382358353D+02
 0.331448143654398D+03 0.143527864648008D+03 0.772089059362939D+02 -.288611172420005D+03
0.183302794704D-02 0.000000000000D+00 0.000000000000D+00 0.198474774586D-02 0.000000000000D+00  5 -2 1 25 -24 21 0 0.54297554D-02 0.17640715D+00 0.37001422D+05 0.37001422D+05 0.37001422D+05 0.12054521D+01  1  2  2  1  5  1       -2 0.346632020965D+00 0.100000000000D+01
-.101586484139D-03 0.000000000000D+00 -.703930996398D-05 0.198474774586D-02 0.000000000000D+00  5 -2 1 25 -24 21 2 0.54297554D-02 0.17640715D+00 0.37001422D+05 0.37001422D+05 0.37001422D+05 0.12054521D+01  1  2  3  1  5  1       -2 -.279148591925D-01 0.100000000000D+01
0.126080925132D-03 0.000000000000D+00 0.000000000000D+00 0.198474774586D-02 0.000000000000D+00  5 -2 1 25 -24 21 2 0.54297554D-02 0.17640715D+00 0.37001422D+05 0.37001422D+05 0.37001422D+05 0.12054521D+01  1  2 15  1  5  1       -2 0.346456647431D-01 0.100000000000D+01
  </mgrwgt>
  </event>
  <event>
  4     66 0.46019439E-03 0.21402662E+03 0.75467711E-02 0.10479165E+00
       -2 -1    0    0    0  501 0.00000000E+00 0.00000000E+00 0.24863868E+03 0.24863888E+03 0.32000000E+00 0.0000E+00 0.9000E+01
        1 -1    0    0  501    0 0.00000000E+00 0.00000000E+00 -.26141744E+03 0.26141763E+03 0.32000000E+00 0.0000E+00 0.9000E+01
       25  1    1    2    0    0 -.97347287E+02 -.15937132E+03 0.13183932E+03 0.26054235E+03 0.12500000E+03 0.0000E+00 0.9000E+01
      -24  1    1    2    0    0 0.97347287E+02 0.15937132E+03 -.14461808E+03 0.24951416E+03 0.80419002E+02 0.0000E+00 0.9000E+01
#aMCatNLO 1  0  0  1  1 0.27038455D+03 0.00000000D+00  -5  5  0 0.00000000D+00 0.00000000D+00 0.00000000D+00 0.00000000D+00 0.00000000D+00
  <mgrwgt>
 0.1787621726D+00    5    2    0
 0.254948207030790D+03 0.000000000000000D+00 0.000000000000000D+00 0.254948207030790D+03
 0.254948207030790D+03 0.000000000000000D+00 0.000000000000000D+00 -.254948207030790D+03
 0.263928250617176D+03 -.973472874688115D+02 -.159371321752136D+03 0.138410291883531D+03
 0.245968163444404D+03 0.973472874688115D+02 0.159371321752136D+03 -.138410291883531D+03
 0.000000000000000D+00 -.000000000000000D+00 0.000000000000000D+00 0.000000000000000D+00
 0.810350158637566D+03 0.000000000000000D+00 0.000000000000000D+00 0.810350158637566D+03
 0.323603418402838D+03 0.000000000000000D+00 0.000000000000000D+00 -.323603418402838D+03
 0.273676807514074D+03 0.306944559822259D+02 -.197925330475324D+03 0.138410291883531D+03
 0.303473221080004D+03 0.228208096411353D+03 0.119968478323786D+03 -.138410291883531D+03
 0.556803548446326D+03 -.258902552393579D+03 0.779568521515375D+02 0.486746740234728D+03
0.317999532776D-02 0.000000000000D+00 0.000000000000D+00 0.146722230968D-02 0.000000000000D+00  5 -2 1 25 -24 21 0 0.38252135D-01 0.40218098D-01 0.45807394D+05 0.45807394D+05 0.45807394D+05 0.11960670D+01  1  2  2  1  5  1       -2 0.189554385484D+00 0.100000000000D+01
-.170091144936D-03 0.000000000000D+00 -.122120193706D-04 0.146722230968D-02 0.000000000000D+00  5 -2 1 25 -24 21 2 0.38252135D-01 0.40218098D-01 0.45807394D+05 0.45807394D+05 0.45807394D+05 0.11960670D+01  1  2  3  1  5  1       -2 -.145044101874D-01 0.100000000000D+01
0.218491737698D-03 0.000000000000D+00 0.000000000000D+00 0.146722230968D-02 0.000000000000D+00  5 -2 1 25 -24 21 2 0.38252135D-01 0.40218098D-01 0.45807394D+05 0.45807394D+05 0.45807394D+05 0.11960670D+01  1  2 15  1  5  1       -2 0.186317388087D-01 0.100000000000D+01
-.119276796791D-02 0.000000000000D+00 -.947232692699D-03 0.146722230968D-02 0.000000000000D+00  5 -2 1 25 -24 21 2 0.14137141D+00 0.40218098D-01 0.45807394D+05 0.45807394D+05 0.45807394D+05 0.11960670D+01  1  2  5  1  5  1       -2 -.589437980317D-02 0.100000000000D+01
-.161149629178D-03 0.000000000000D+00 -.146126170063D-03 0.146722230968D-02 0.000000000000D+00  5 21 1 25 -24 2 2 0.14137141D+00 0.40218098D-01 0.45807394D+05 0.45807394D+05 0.45807394D+05 0.11960670D+01  1  2  5  3  5  1       -2 -.902516166027D-02 0.100000000000D+01
  </mgrwgt>
  </event>
  <event>
  4     66 0.46019439E-03 0.16735890E+03 0.75467711E-02 0.10530901E+00
       -2 -1    0    0    0  501 0.00000000E+00 0.00000000E+00 0.19501220E+02 0.19503845E+02 0.32000000E+00 0.0000E+00 0.9000E+01
        1 -1    0    0  501    0 0.00000000E+00 0.00000000E+00 -.16176007E+04 0.16176007E+04 0.32000000E+00 0.0000E+00 0.9000E+01
       25  1    1    2    0    0 0.10932131E+03 0.72103296E+02 -.11303597E+04 0.11447655E+04 0.12500000E+03 0.0000E+00 0.9000E+01
      -24  1    1    2    0    0 -.10932131E+03 -.72103296E+02 -.46773979E+03 0.49233907E+03 0.80419002E+02 0.0000E+00 0.9000E+01
#aMCatNLO 1  0  0  2  1 0.30078169D+03 0.00000000D+00  -5  5  0 0.00000000D+00 0.00000000D+00 0.00000000D+00 0.00000000D+00 0.00000000D+00
  <mgrwgt>
 0.2302186386D+00    5    2    0
 0.177615767595923D+03 0.000000000000000D+00 0.000000000000000D+00 0.177615767595923D+03
 0.177615767595923D+03 0.000000000000000D+00 0.000000000000000D+00 -.177615767595923D+03
 0.190505648051896D+03 0.109321305756689D+03 0.721032960613317D+02 -.593074088492952D+02
 0.164725887139950D+03 -.109321305756689D+03 -.721032960613317D+02 0.593074088492952D+02
 0.000000000000000D+00 -.000000000000000D+00 -.000000000000000D+00 -.000000000000000D+00
 0.324321812712209D+03 0.000000000000000D+00 0.000000000000000D+00 0.324321812712209D+03
 0.479678999700927D+03 0.000000000000000D+00 0.000000000000000D+00 -.479678999700927D+03
 0.314838091708764D+03 0.117779572269681D+03 0.257115980838161D+03 -.593074088492952D+02
 0.150628412087559D+03 -.104043015953104D+03 0.433518703242854D+02 0.593074088492952D+02
 0.338534308616814D+03 -.137365563165773D+02 -.300467851162446D+03 -.155357186988718D+03
0.101432062801D-02 0.000000000000D+00 0.000000000000D+00 0.200944423418D-02 0.000000000000D+00  5 -2 1 25 -24 21 0 0.30003920D-02 0.24886185D+00 0.28009003D+05 0.28009003D+05 0.28009003D+05 0.12180410D+01  1  2  2  2  5  2        1 0.225678111428D+00 0.100000000000D+01
-.561087334782D-04 0.000000000000D+00 -.389525828833D-05 0.200944423418D-02 0.000000000000D+00  5 -2 1 25 -24 21 2 0.30003920D-02 0.24886185D+00 0.28009003D+05 0.28009003D+05 0.28009003D+05 0.12180410D+01  1  2  3  2  5  2        1 -.185211721076D-01 0.100000000000D+01
0.697682975711D-04 0.000000000000D+00 0.000000000000D+00 0.200944423418D-02 0.000000000000D+00  5 -2 1 25 -24 21 2 0.30003920D-02 0.24886185D+00 0.28009003D+05 0.28009003D+05 0.28009003D+05 0.12180410D+01  1  2 15  2  5  2        1 0.230301161133D-01 0.100000000000D+01
0.259580306318D-04 0.000000000000D+00 -.315853042808D-03 0.200944423418D-02 0.000000000000D+00  5 -2 1 25 -24 21 2 0.30003920D-02 0.74474959D+00 0.28009003D+05 0.28009003D+05 0.28009003D+05 0.12180410D+01  1  2  5  2  5  2        1 0.298156534711D-04 0.100000000000D+01
0.191022037321D-04 0.000000000000D+00 -.393747403431D-04 0.200944423418D-02 0.000000000000D+00  5 -2 21 25 -24 -1 2 0.30003920D-02 0.74474959D+00 0.28009003D+05 0.28009003D+05 0.28009003D+05 0.12180410D+01  1  2  5  4  5  2        1 0.176746547619D-05 0.100000000000D+01
  </mgrwgt>
  </event>
  <event>
  5     66 0.46019439E-03 0.19691978E+03 0.75467711E-02 0.11053103E+00
       -2 -1    0    0    0  502 0.00000000E+00 0.00000000E+00 0.25743348E+03 0.25743368E+03 0.32000000E+00 0.0000E+00 0.9000E+01
        1 -1    0    0  501    0 0.00000000E+00 0.00000000E+00 -.34543127E+03 0.34543142E+03 0.32000000E+00 0.0000E+00 0.9000E+01
       25  1    1    2    0    0 0.19543646E+03 -.12947188E+03 -.18082818E+03 0.32137549E+03 0.12500000E+03 0.0000E+00 0.9000E+01
      -24  1    1    2    0    0 -.10200179E+03 0.55281655E+02 0.77945928E+02 0.16125511E+03 0.80419002E+02 0.0000E+00 0.9000E+01
       21  1    1    2  501  502 -.93434670E+02 0.74190220E+02 0.14884461E+02 0.12023450E+03 0.75000000E+00 0.0000E+00 0.9000E+01
#aMCatNLO 2  0  0  1  2 0.11930728D+03 0.00000000D+00  -5  5  0 0.00000000D+00 0.00000000D+00 0.00000000D+00 0.00000000D+00 0.00000000D+00
  <mgrwgt>
 0.2338915383D-01    2    2    0
 0.228097190531380D+03 0.000000000000000D+00 0.000000000000000D+00 0.228097190531380D+03
 0.228097190531380D+03 0.000000000000000D+00 0.000000000000000D+00 -.228097190531380D+03
 0.238134341826728D+03 0.142298616527952D+03 -.872786695345182D+02 -.114963047696920D+03
 0.218060039236031D+03 -.142298616527952D+03 0.872786695345182D+02 0.114963047696920D+03
 0.000000000000000D+00 -.000000000000000D+00 0.000000000000000D+00 0.000000000000000D+00
 0.319656795167781D+03 0.000000000000000D+00 0.000000000000000D+00 0.319656795167781D+03
 0.278188996969303D+03 0.000000000000000D+00 0.000000000000000D+00 -.278188996969303D+03
 0.289482086741730D+03 0.195436459331974D+03 -.129471875603794D+03 -.114963047696920D+03
 0.182055334460476D+03 -.102001789742926D+03 0.552816552268572D+02 0.114963047696920D+03
 0.126308370934878D+03 -.934346695890478D+02 0.741902203769366D+02 0.414677981984785D+02
-.317930428523D-03 0.000000000000D+00 0.000000000000D+00 0.158434826491D-02 0.000000000000D+00  5 -2 1 25 -24 21 2 0.41700260D-01 0.43573942D-01 0.69207903D+05 0.69207903D+05 0.69207903D+05 0.11785473D+01  1  2 13  1  5  1       -2 -.201908644217D-01 0.100000000000D+01
0.798993044993D-03 0.000000000000D+00 0.000000000000D+00 0.158434826491D-02 0.841499016128D-06  5 -2 1 25 -24 21 2 0.39605027D-01 0.53143097D-01 0.69207903D+05 0.69207903D+05 0.69207903D+05 0.11785473D+01  1  2  1  1  5  1       -2 0.435800182539D-01 0.100000000000D+01
  </mgrwgt>
  </event>
  <event>
  4     66 0.46019439E-03 0.13410646E+03 0.75467711E-02 0.11309879E+00
       -2 -1    0    0    0  501 0.00000000E+00 0.00000000E+00 0.23134014E+02 0.23136227E+02 0.32000000E+00 0.0000E+00 0.9000E+01
        1 -1    0    0  501    0 0.00000000E+00 0.00000000E+00 -.77922570E+03 0.77922576E+03 0.32000000E+00 0.0000E+00 0.9000E+01
       25  1    1    2    0    0 -.52979148E+02 0.66506332E+02 -.44548866E+03 0.47044132E+03 0.12500000E+03 0.0000E+00 0.9000E+01
      -24  1    1    2    0    0 0.52979148E+02 -.66506332E+02 -.31060302E+03 0.33192067E+03 0.80419002E+02 0.0000E+00 0.9000E+01
#aMCatNLO 1  0  0  1  2 0.14361346D+03 0.00000000D+00  -5  5  0 0.00000000D+00 0.00000000D+00 0.00000000D+00 0.00000000D+00 0.00000000D+00
  <mgrwgt>
 0.2372499172D+00    3    2    0
 0.134266646838202D+03 0.000000000000000D+00 0.000000000000000D+00 0.134266646838202D+03
 0.134266646838202D+03 0.000000000000000D+00 0.000000000000000D+00 -.134266646838202D+03
 0.151318134049067D+03 -.529791478833690D+02 0.665063317323071D+02 -.650349299652635D+01
 0.117215159627336D+03 0.529791478833690D+02 -.665063317323071D+02 0.650349299652635D+01
 0.000000000000000D+00 0.000000000000000D+00 0.000000000000000D+00 -.000000000000000D+00
 0.211760463430311D+03 0.000000000000000D+00 0.000000000000000D+00 0.211760463430311D+03
 0.238923344863812D+03 0.000000000000000D+00 0.000000000000000D+00 -.238923344863812D+03
 0.169405884017658D+03 -.113358250466668D+03 0.134523295300245D+02 -.650349299652635D+01
 0.135118260950388D+03 0.547517366249389D+01 -.108247196453748D+03 0.650349299652635D+01
 0.146159663326077D+03 0.107883076804174D+03 0.947948669237235D+02 -.271628814335017D+02
0.348414448395D-03 0.000000000000D+00 0.000000000000D+00 0.256013187259D-02 0.000000000000D+00  5 -2 1 25 -24 21 0 0.35592544D-02 0.11988105D+00 0.17984542D+05 0.17984542D+05 0.17984542D+05 0.12389372D+01  1  2  2  1  5  1       -2 0.232471626354D+00 0.100000000000D+01
-.193563247049D-04 0.000000000000D+00 -.133800322147D-05 0.256013187259D-02 0.000000000000D+00  5 -2 1 25 -24 21 2 0.35592544D-02 0.11988105D+00 0.17984542D+05 0.17984542D+05 0.17984542D+05 0.12389372D+01  1  2  3  1  5  1       -2 -.198241816540D-01 0.100000000000D+01
0.240218464211D-04 0.000000000000D+00 0.000000000000D+00 0.256013187259D-02 0.000000000000D+00  5 -2 1 25 -24 21 2 0.35592544D-02 0.11988105D+00 0.17984542D+05 0.17984542D+05 0.17984542D+05 0.12389372D+01  1  2 15  1  5  1       -2 0.246024725446D-01 0.100000000000D+01
  </mgrwgt>
  </event>
  <event>
  4     66 0.46019439E-03 0.21452594E+03 0.75467711E-02 0.98644457E-01
       -2 -1    0    0    0  501 0.00000000E+00 0.00000000E+00 0.90507035E+02 0.90507601E+02 0.32000000E+00 0.0000E+00 0.9000E+01
        1 -1    0    0  501    0 0.00000000E+00 0.00000000E+00 -.57481241E+03 0.57481250E+03 0.32000000E+00 0.0000E+00 0.9000E+01
       25  1    1    2    0    0 -.23578222E+02 0.18583120E+03 -.36568943E+03 0.42946819E+03 0.12500000E+03 0.0000E+00 0.9000E+01
      -24  1    1    2    0    0 0.23578222E+02 -.18583120E+03 -.11861594E+03 0.23585191E+03 0.80419002E+02 0.0000E+00 0.9000E+01
#aMCatNLO 1  0  0  1  2 0.54893547D+03 0.00000000D+00  -5  5  0 0.00000000D+00 0.00000000D+00 0.00000000D+00 0.00000000D+00 0.00000000D+00
  <mgrwgt>
 0.3615585026D+00    3    2    0
 0.228089422528767D+03 0.000000000000000D+00 0.000000000000000D+00 0.228089422528767D+03
 0.228089422528767D+03 0.000000000000000D+00 0.000000000000000D+00 -.228089422528767D+03
 0.238126915657668D+03 -.235782221170749D+02 0.185831195003200D+03 -.773967852440564D+02
 0.218051929399867D+03 0.235782221170749D+02 -.185831195003200D+03 0.773967852440564D+02
 0.000000000000000D+00 0.000000000000000D+00 -.000000000000000D+00 -.000000000000000D+00
 0.486298433846113D+03 0.000000000000000D+00 0.000000000000000D+00 0.486298433846113D+03
 0.938918741693451D+03 0.000000000000000D+00 0.000000000000000D+00 -.938918741693451D+03
 0.525330652230154D+03 -.315460261344597D+03 0.393499498498846D+03 -.773967852440564D+02
 0.188412497926930D+03 -.131819629593034D+03 -.752686940801782D+02 0.773967852440564D+02
 0.711474025382480D+03 0.447279890937631D+03 -.318230804418668D+03 -.452620307847338D+03
0.279783128063D-02 0.000000000000D+00 0.000000000000D+00 0.186494976812D-02 0.000000000000D+00  5 -2 1 25 -24 21 0 0.13924210D-01 0.88432729D-01 0.46021379D+05 0.46021379D+05 0.46021379D+05 0.11958646D+01  1  2  2  1  5  1       -2 0.354748331082D+00 0.100000000000D+01
-.154724754692D-03 0.000000000000D+00 -.107444088035D-04 0.186494976812D-02 0.000000000000D+00  5 -2 1 25 -24 21 2 0.13924210D-01 0.88432729D-01 0.46021379D+05 0.46021379D+05 0.46021379D+05 0.11958646D+01  1  2  3  1  5  1       -2 -.280558015656D-01 0.100000000000D+01
0.192282124377D-03 0.000000000000D+00 0.000000000000D+00 0.186494976812D-02 0.000000000000D+00  5 -2 1 25 -24 21 2 0.13924210D-01 0.88432729D-01 0.46021379D+05 0.46021379D+05 0.46021379D+05 0.11958646D+01  1  2 15  1  5  1       -2 0.348659730426D-01 0.100000000000D+01
  </mgrwgt>
  </event>
  <event>
  4     66 0.46019439E-03 0.24905217E+03 0.75467711E-02 0.10345303E+00
       -2 -1    0    0    0  501 0.00000000E+00 0.00000000E+00 0.80091287E+03 0.80091293E+03 0.32000000E+00 0.0000E+00 0.9000E+01
        1 -1    0    0  501    0 0.00000000E+00 0.00000000E+00 -.14236372E+03 0.14236408E+03 0.32000000E+00 0.0000E+00 0.9000E+01
       25  1    1    2    0    0 -.26131363E+03 0.18636826E+03 0.33344540E+03 0.47940460E+03 0.12500000E+03 0.0000E+00 0.9000E+01
      -24  1    1    2    0    0 0.26131363E+03 -.18636826E+03 0.32510375E+03 0.46387240E+03 0.80419002E+02 0.0000E+00 0.9000E+01
#aMCatNLO 1  0  0  1  2 0.16141521D+03 0.00000000D+00  -5  5  0 0.00000000D+00 0.00000000D+00 0.00000000D+00 0.00000000D+00 0.00000000D+00
  <mgrwgt>
 0.2497683368D+00    9    2    0
 0.337670153399344D+03 0.000000000000000D+00 0.000000000000000D+00 0.337670153399344D+03
 0.337670153399344D+03 0.000000000000000D+00 0.000000000000000D+00 -.337670153399344D+03
 0.344450278880852D+03 -.261313630227197D+03 0.186368258367546D+03 -.174744145182969D+01
 0.330890027917837D+03 0.261313630227197D+03 -.186368258367546D+03 0.174744145182969D+01
 0.000000000000000D+00 -.000000000000000D+00 -.000000000000000D+00 0.000000000000000D+00
 0.468177610887141D+03 0.000000000000000D+00 0.000000000000000D+00 0.468177610887141D+03
 0.401015306703603D+03 0.000000000000000D+00 0.000000000000000D+00 -.401015306703603D+03
 0.329549942126229D+03 -.196890414334089D+03 0.232828854627437D+03 -.174744145182969D+01
 0.364812643235953D+03 0.327811239551694D+03 -.138411655514942D+03 0.174744145182969D+01
 0.174830332228562D+03 -.130920825217605D+03 -.944171991124950D+02 0.671623041835382D+02
0.185613144948D-01 0.000000000000D+00 0.000000000000D+00 0.198472302847D-02 0.000000000000D+00  5 -2 1 25 -24 21 0 0.12321740D+00 0.21902143D-01 0.11401808D+06 0.11401808D+06 0.11401808D+06 0.11583739D+01  1  2  2  1  5  1       -2 0.192798635536D+00 0.100000000000D+01
-.103118413837D-02 0.000000000000D+00 -.712803349663D-04 0.198472302847D-02 0.000000000000D+00  5 -2 1 25 -24 21 2 0.12321740D+00 0.21902143D-01 0.11401808D+06 0.11401808D+06 0.11401808D+06 0.11583739D+01  1  2  3  1  5  1       -2 -.143723902955D-01 0.100000000000D+01
0.126952051904D-02 0.000000000000D+00 0.000000000000D+00 0.198472302847D-02 0.000000000000D+00  5 -2 1 25 -24 21 2 0.12321740D+00 0.21902143D-01 0.11401808D+06 0.11401808D+06 0.11401808D+06 0.11583739D+01  1  2 15  1  5  1       -2 0.176942640105D-01 0.100000000000D+01
0.588849757063D-02 0.000000000000D+00 0.000000000000D+00 0.198472302847D-02 0.000000000000D+00  5 -2 1 25 -24 21 2 0.17881453D+00 0.21902143D-01 0.18308514D+06 0.18308514D+06 0.18308514D+06 0.11401882D+01  1  2 12  1  5  1       -2 0.298441972929D-01 0.100000000000D+01
-.846164674632D-02 0.000000000000D+00 0.000000000000D+00 0.198472302847D-02 0.000000000000D+00  5 -2 1 25 -24 21 2 0.12321740D+00 0.21902143D-01 0.11401808D+06 0.11401808D+06 0.11401808D+06 0.11583739D+01  1  2  4  1  5  1       -2 -.117936346240D+00 0.100000000000D+01
-.133141149230D-01 0.000000000000D+00 -.574161849291D-02 0.198472302847D-02 0.000000000000D+00  5 -2 1 25 -24 21 2 0.19081757D+00 0.21902143D-01 0.11401808D+06 0.11401808D+06 0.11401808D+06 0.11583739D+01  1  2  5  1  5  1       -2 -.585369569624D-01 0.100000000000D+01
0.148871344362D-01 0.000000000000D+00 0.523307066023D-02 0.198472302847D-02 0.000000000000D+00  5 -2 1 25 -24 21 2 0.12321740D+00 0.21902143D-01 0.11401808D+06 0.11401808D+06 0.11401808D+06 0.11583739D+01  1  2  6  1  5  1       -2 0.207493209540D+00 0.100000000000D+01
0.266048636026D-03 0.000000000000D+00 0.000000000000D+00 0.198472302847D-02 0.000000000000D+00  5 21 1 25 -24 2 2 0.17881453D+00 0.21902143D-01 0.18308514D+06 0.18308514D+06 0.18308514D+06 0.11401882D+01  1  2 12  3  5  1       -2 0.140789730607D-01 0.100000000000D+01
-.456737332152D-03 0.000000000000D+00 -.292021493304D-03 0.198472302847D-02 0.000000000000D+00  5 21 1 25 -24 2 2 0.19081757D+00 0.21902143D-01 0.11401808D+06 0.11401808D+06 0.11401808D+06 0.11583739D+01  1  2  5  3  5  1       -2 -.212952491301D-01 0.100000000000D+01
  </mgrwgt>
  </event>
  <event>
  4     66 0.46019439E-03 0.12766210E+03 0.75467711E-02 0.11568003E+00
       -2 -1    0    0    0  501 0.00000000E+00 0.00000000E+00 0.45382251E+02 0.45383379E+02 0.32000000E+00 0.0000E+00 0.9000E+01
        1 -1    0    0  501    0 0.00000000E+00 0.00000000E+00 -.78707144E+03 0.78707150E+03 0.32000000E+00 0.0000E+00 0.9000E+01
       25  1    1    2    0    0 0.70947636E+02 0.23228263E+02 -.70014825E+03 0.71512635E+03 0.12500000E+03 0.0000E+00 0.9000E+01
      -24  1    1    2    0    0 -.70947636E+02 -.23228263E+02 -.41540934E+02 0.11732853E+03 0.80419002E+02 0.0000E+00 0.9000E+01
#aMCatNLO 1  0  0  2  2 0.11247996D+03 0.00000000D+00  -5  5  0 0.00000000D+00 0.00000000D+00 0.00000000D+00 0.00000000D+00 0.00000000D+00
  <mgrwgt>
 0.2304692816D+00    3    2    0
 0.188996216922375D+03 0.000000000000000D+00 0.000000000000000D+00 0.188996216922375D+03
 0.188996216922375D+03 0.000000000000000D+00 0.000000000000000D+00 -.188996216922375D+03
 0.201109930353727D+03 0.709476362517715D+02 0.232282631432878D+02 -.138733863164382D+03
 0.176882503491022D+03 -.709476362517715D+02 -.232282631432878D+02 0.138733863164382D+03
 0.000000000000000D+00 -.000000000000000D+00 0.000000000000000D+00 0.000000000000000D+00
 0.387811427894925D+03 0.000000000000000D+00 0.000000000000000D+00 0.387811427894925D+03
 0.213778926639474D+03 0.000000000000000D+00 0.000000000000000D+00 -.213778926639474D+03
 0.230606108741838D+03 0.133755464867355D+03 0.204100029068246D+02 -.138733863164382D+03
 0.163766839264213D+03 -.213885659364665D+02 -.254520362031808D+02 0.138733863164382D+03
 0.207217406528348D+03 -.112366898930889D+03 0.504203329635623D+01 0.174032501255451D+03
0.932941416215D-03 0.000000000000D+00 0.000000000000D+00 0.107814304397D-02 0.000000000000D+00  5 -2 1 25 -24 21 0 0.69819765D-02 0.12108801D+00 0.16297612D+05 0.16297612D+05 0.16297612D+05 0.12437356D+01  1  2  2  2  5  2        1 0.222610957380D+00 0.100000000000D+01
-.421296999532D-04 0.000000000000D+00 -.358274068738D-05 0.107814304397D-02 0.000000000000D+00  5 -2 1 25 -24 21 2 0.69819765D-02 0.12108801D+00 0.16297612D+05 0.16297612D+05 0.16297612D+05 0.12437356D+01  1  2  3  2  5  2        1 -.155502237846D-01 0.100000000000D+01
0.634199943707D-04 0.000000000000D+00 0.000000000000D+00 0.107814304397D-02 0.000000000000D+00  5 -2 1 25 -24 21 2 0.69819765D-02 0.12108801D+00 0.16297612D+05 0.16297612D+05 0.16297612D+05 0.12437356D+01  1  2 15  2  5  2        1 0.234085480309D-01 0.100000000000D+01
  </mgrwgt>
  </event>
  <event>
  4     66 0.46019439E-03 0.13819169E+03 0.75467711E-02 0.11237336E+00
       -2 -1    0    0    0  501 0.00000000E+00 0.00000000E+00 0.24547589E+02 0.24549675E+02 0.32000000E+00 0.0000E+00 0.9000E+01
        1 -1    0    0  501    0 0.00000000E+00 0.00000000E+00 -.82056216E+03 0.82056222E+03 0.32000000E+00 0.0000E+00 0.9000E+01
       25  1    1    2    0    0 0.15460845E+02 0.89923682E+02 -.53891051E+03 0.56069140E+03 0.12500000E+03 0.0000E+00 0.9000E+01
      -24  1    1    2    0    0 -.15460845E+02 -.89923682E+02 -.25710406E+03 0.28442050E+03 0.80419002E+02 0.0000E+00 0.9000E+01
#aMCatNLO 1  0  0  1  2 0.15263463D+03 0.00000000D+00  -5  5  0 0.00000000D+00 0.00000000D+00 0.00000000D+00 0.00000000D+00 0.00000000D+00
  <mgrwgt>
 0.1275866706D+00    5    2    0
 0.141928610408711D+03 0.000000000000000D+00 0.000000000000000D+00 0.141928610408711D+03
 0.141928610408711D+03 0.000000000000000D+00 0.000000000000000D+00 -.141928610408711D+03
 0.158059579385399D+03 0.154608450822219D+02 0.899236815029285D+02 -.321329178537024D+02
 0.125797641432023D+03 -.154608450822219D+02 -.899236815029285D+02 0.321329178537024D+02
 0.000000000000000D+00 0.000000000000000D+00 0.000000000000000D+00 0.000000000000000D+00
 0.586126411166719D+03 0.000000000000000D+00 0.000000000000000D+00 0.586126411166719D+03
 0.174851039793399D+03 0.000000000000000D+00 0.000000000000000D+00 -.174851039793399D+03
 0.141786447476429D+03 -.420309642704592D+02 0.409789009209455D+02 -.321329178537024D+02
 0.180505738029732D+03 -.741907728401508D+02 -.139922515425060D+03 0.321329178537024D+02
 0.438685265453957D+03 0.116221737110610D+03 0.989436145041146D+02 0.411275371373320D+03
0.403117616657D-03 0.000000000000D+00 0.000000000000D+00 0.236640982323D-02 0.000000000000D+00  5 -2 1 25 -24 21 0 0.37767174D-02 0.12624050D+00 0.19096943D+05 0.19096943D+05 0.19096943D+05 0.12360413D+01  1  2  2  1  5  1       -2 0.228240287217D+00 0.100000000000D+01
-.223760370195D-04 0.000000000000D+00 -.154807779127D-05 0.236640982323D-02 0.000000000000D+00  5 -2 1 25 -24 21 2 0.37767174D-02 0.12624050D+00 0.19096943D+05 0.19096943D+05 0.19096943D+05 0.12360413D+01  1  2  3  1  5  1       -2 -.193557344295D-01 0.100000000000D+01
0.278321974757D-04 0.000000000000D+00 0.000000000000D+00 0.236640982323D-02 0.000000000000D+00  5 -2 1 25 -24 21 2 0.37767174D-02 0.12624050D+00 0.19096943D+05 0.19096943D+05 0.19096943D+05 0.12360413D+01  1  2 15  1  5  1       -2 0.240754259773D-01 0.100000000000D+01
-.386469818502D-03 0.000000000000D+00 -.149599942883D-03 0.236640982323D-02 0.000000000000D+00  5 -2 1 25 -24 21 2 0.19056596D-01 0.12624050D+00 0.19096943D+05 0.19096943D+05 0.19096943D+05 0.12360413D+01  1  2  5  1  5  1       -2 -.266860660157D-01 0.100000000000D+01
-.807864918321D-04 0.000000000000D+00 -.295262588796D-04 0.236640982323D-02 0.000000000000D+00  5 21 1 25 -24 2 2 0.19056596D-01 0.12624050D+00 0.19096943D+05 0.19096943D+05 0.19096943D+05 0.12360413D+01  1  2  5  3  5  1       -2 -.786872421984D-01 0.100000000000D+01
  </mgrwgt>
  </event>
  <event>
  5     66 0.46019439E-03 0.12816013E+03 0.75467711E-02 0.11965886E+00
       21 -1    0    0  502  501 0.00000000E+00 0.00000000E+00 0.23536913E+02 0.23548859E+02 0.75000000E+00 0.0000E+00 0.9000E+01
        1 -1    0    0  501    0 0.00000000E+00 0.00000000E+00 -.12185988E+04 0.12185988E+04 0.32000000E+00 0.0000E+00 0.9000E+01
       25  1    1    2    0    0 0.13100934E+02 0.57899593E+02 -.40740731E+03 0.43026703E+03 0.12500000E+03 0.0000E+00 0.9000E+01
      -24  1    1    2    0    0 -.56467740E+02 -.72672033E+02 -.71919197E+03 0.72950266E+03 0.80419002E+02 0.0000E+00 0.9000E+01
        2  1    1    2  502    0 0.43366805E+02 0.14772440E+02 -.68462571E+02 0.82377975E+02 0.32000000E+00 0.0000E+00 0.9000E+01
#aMCatNLO 2  0  0  1  2 0.45813805D+02 0.00000000D+00  -5  5  0 0.00000000D+00 0.00000000D+00 0.00000000D+00 0.00000000D+00 0.00000000D+00
  <mgrwgt>
 0.4146278858D-01    2    2    0
 0.135776368908451D+03 0.000000000000000D+00 0.000000000000000D+00 0.135776368908451D+03
 0.135776368908451D+03 0.000000000000000D+00 0.000000000000000D+00 -.135776368908451D+03
 0.152638257540567D+03 0.367276522189866D+02 0.659477828633374D+02 0.444455527911595D+02
 0.118914480276336D+03 -.367276522189866D+02 -.659477828633374D+02 -.444455527911595D+02
 0.000000000000000D+00 0.000000000000000D+00 0.000000000000000D+00 0.000000000000000D+00
 0.195459480500235D+03 0.000000000000000D+00 0.000000000000000D+00 0.195459480500235D+03
 0.146779039365684D+03 0.000000000000000D+00 0.000000000000000D+00 -.146779039365684D+03
 0.145342370086231D+03 0.131009344374341D+02 0.578995932303255D+02 0.444455527911595D+02
 0.130047887884534D+03 -.564677395448340D+02 -.726720332496810D+02 -.444455527911595D+02
 0.668482618951549D+02 0.433668051073999D+02 0.147724400193555D+02 0.486804411345517D+02
-.146417596981D-04 0.000000000000D+00 0.000000000000D+00 0.230328020820D-02 0.000000000000D+00  5 21 1 25 -24 2 2 0.36888133D-02 0.17342375D+00 0.23471912D+05 0.23471912D+05 0.23471912D+05 0.12262453D+01  1  2 13  3  5  1       -2 -.143996357160D+00 0.100000000000D+01
0.211614304668D-04 0.000000000000D+00 0.000000000000D+00 0.230328020820D-02 0.473124783187D-06  5 21 1 25 -24 2 2 0.36219766D-02 0.18747719D+00 0.23471912D+05 0.23471912D+05 0.23471912D+05 0.12262453D+01  1  2  1  3  5  1       -2 0.185459145743D+00 0.100000000000D+01
  </mgrwgt>
  </event>
  <event>
  5     66 0.46019439E-03 0.10636868E+03 0.75467711E-02 0.12206322E+00
       21 -1    0    0  502  501 0.00000000E+00 0.00000000E+00 0.19164158E+03 0.19164304E+03 0.75000000E+00 0.0000E+00 0.9000E+01
        3 -1    0    0  501    0 0.00000000E+00 0.00000000E+00 -.15424079E+03 0.15424160E+03 0.50000000E+00 0.0000E+00 0.9000E+01
       25  1    1    2    0    0 -.52258151E+02 -.45872861E-01 -.59280446E+02 0.14788539E+03 0.12500000E+03 0.0000E+00 0.9000E+01
      -24  1    1    2    0    0 0.57676968E+01 0.20423482E+02 -.60596234E+01 0.83392565E+02 0.80419002E+02 0.0000E+00 0.9000E+01
        4  1    1    2  502    0 0.46490454E+02 -.20377609E+02 0.10274085E+03 0.11460670E+03 0.15500000E+01 0.0000E+00 0.9000E+01
#aMCatNLO 2  0  0  1  2 0.50760312D+02 0.00000000D+00  -5  5  0 0.00000000D+00 0.00000000D+00 0.00000000D+00 0.00000000D+00 0.00000000D+00
  <mgrwgt>
 0.2226216269D-01    2    2    0
 0.107985597791598D+03 0.000000000000000D+00 0.000000000000000D+00 0.107985597791598D+03
 0.107985597791598D+03 0.000000000000000D+00 0.000000000000000D+00 -.107985597791598D+03
 0.129186999258354D+03 -.240243713133400D+02 -.124212506417736D+02 -.182434342400499D+02
 0.867841963248411D+02 0.240243713133400D+02 0.124212506417736D+02 0.182434342400499D+02
 0.000000000000000D+00 0.000000000000000D+00 -.000000000000000D+00 0.000000000000000D+00
 0.256214518933657D+03 0.000000000000000D+00 0.000000000000000D+00 0.256214518933657D+03
 0.115361764054298D+03 0.000000000000000D+00 0.000000000000000D+00 -.115361764054298D+03
 0.136706764151620D+03 -.522581512074083D+02 -.458728606724783D-01 -.182434342400499D+02
 0.851494204222205D+02 0.576769680780508D+01 0.204234821842835D+02 0.182434342400499D+02
 0.149720098414115D+03 0.464904543996032D+02 -.203776093236110D+02 0.140852754879359D+03
-.238713120836D-04 0.000000000000D+00 0.000000000000D+00 0.299600511830D-02 0.000000000000D+00  5 21 3 25 -24 4 2 0.29293442D-01 0.22211530D-01 0.18146304D+05 0.18146304D+05 0.18146304D+05 0.12385038D+01  1  2 13  3  5  1       -4 -.369006688247D-01 0.100000000000D+01
0.436092813064D-04 0.000000000000D+00 0.000000000000D+00 0.299600511830D-02 0.140699939270D-05  5 21 3 25 -24 4 2 0.29482505D-01 0.23728732D-01 0.18146304D+05 0.18146304D+05 0.18146304D+05 0.12385038D+01  1  2  1  3  5  1       -4 0.591628315160D-01 0.100000000000D+01
  </mgrwgt>
  </event>
  <event>
  4     66 0.46019439E-03 0.10525787E+03 0.75467711E-02 0.11030000E+00
       -4 -1    0    0    0  501 0.00000000E+00 0.00000000E+00 0.18164177E+02 0.18230190E+02 0.15500000E+01 0.0000E+00 0.9000E+01
        3 -1    0    0  501    0 0.00000000E+00 0.00000000E+00 -.66995400E+03 0.66995418E+03 0.50000000E+00 0.0000E+00 0.9000E+01
       25  1    1    2    0    0 0.22473702E+02 -.10692078E+01 -.48900745E+03 0.50523212E+03 0.12500000E+03 0.0000E+00 0.9000E+01
      -24  1    1    2    0    0 -.22473702E+02 0.10692078E+01 -.16278237E+03 0.18295225E+03 0.80419002E+02 0.0000E+00 0.9000E+01
#aMCatNLO 1  0  0  2  2 0.22536949D+03 0.00000000D+00  -5  5  0 0.00000000D+00 0.00000000D+00 0.00000000D+00 0.00000000D+00 0.00000000D+00
  <mgrwgt>
 0.2740068788D-01    3    2    0
 0.110417120950777D+03 0.000000000000000D+00 0.000000000000000D+00 0.110417120950777D+03
 0.110417120950777D+03 0.000000000000000D+00 0.000000000000000D+00 -.110417120950777D+03
 0.131151641029669D+03 0.224737022511418D+02 -.106920777305169D+01 -.327038598125704D+02
 0.896826008718844D+02 -.224737022511418D+02 0.106920777305169D+01 0.327038598125704D+02
 0.000000000000000D+00 0.000000000000000D+00 -.000000000000000D+00 0.000000000000000D+00
 0.746658180506313D+03 0.000000000000000D+00 0.000000000000000D+00 0.746658180506313D+03
 0.179327223381189D+03 0.000000000000000D+00 0.000000000000000D+00 -.179327223381189D+03
 0.164897473866191D+03 -.980596865646159D+02 0.296805038983527D+02 -.327038598125704D+02
 0.150632508163320D+03 -.120315556923907D+03 0.260299995515175D+02 0.327038598125704D+02
 0.610455421857991D+03 0.218375243488523D+03 -.557105034498702D+02 0.567330957125123D+03
0.281855869778D-03 0.000000000000D+00 0.000000000000D+00 0.277917156651D-02 0.000000000000D+00  5 -4 3 25 -24 21 0 0.27995810D-02 0.10307494D+00 0.11079220D+05 0.11079220D+05 0.11079220D+05 0.12631080D+01  1  2  2  2  5  2        3 0.268420265436D-01 0.100000000000D+01
-.156150646075D-04 0.000000000000D+00 -.108240075430D-05 0.277917156651D-02 0.000000000000D+00  5 -4 3 25 -24 21 2 0.27995810D-02 0.10307494D+00 0.11079220D+05 0.11079220D+05 0.11079220D+05 0.12631080D+01  1  2  3  2  5  2        3 -.237253708234D-02 0.100000000000D+01
0.192919440591D-04 0.000000000000D+00 0.000000000000D+00 0.277917156651D-02 0.000000000000D+00  5 -4 3 25 -24 21 2 0.27995810D-02 0.10307494D+00 0.11079220D+05 0.11079220D+05 0.11079220D+05 0.12631080D+01  1  2 15  2  5  2        3 0.293119841775D-02 0.100000000000D+01
  </mgrwgt>
  </event>
  <event>
  5     66 0.46019439E-03 0.29695477E+03 0.75467711E-02 0.10825777E+00
       -2 -1    0    0    0  502 0.00000000E+00 0.00000000E+00 0.45394184E+03 0.45394195E+03 0.32000000E+00 0.0000E+00 0.9000E+01
        1 -1    0    0  501    0 0.00000000E+00 0.00000000E+00 -.32997164E+03 0.32997180E+03 0.32000000E+00 0.0000E+00 0.9000E+01
       25  1    1    2    0    0 0.28198011E+03 -.11255275E+02 -.16585303E+03 0.35038791E+03 0.12500000E+03 0.0000E+00 0.9000E+01
      -24  1    1    2    0    0 -.27381479E+03 -.33437726E+01 0.29988956E+03 0.41398875E+03 0.80419002E+02 0.0000E+00 0.9000E+01
       21  1    1    2  501  502 -.81653175E+01 0.14599047E+02 -.10066327E+02 0.19537094E+02 0.75000000E+00 0.0000E+00 0.9000E+01
#aMCatNLO 2  0  0  1  2 0.16727361D+02 0.00000000D+00  -5  5  0 0.00000000D+00 0.00000000D+00 0.00000000D+00 0.00000000D+00 0.00000000D+00
  <mgrwgt>
 0.5983782426D-01    2    2    0
 0.376173522952082D+03 0.000000000000000D+00 0.000000000000000D+00 0.376173522952082D+03
 0.376173522952082D+03 0.000000000000000D+00 0.000000000000000D+00 -.376173522952082D+03
 0.382259666371854D+03 0.277814631893799D+03 -.380768428413565D+01 -.230872225226047D+03
 0.370087379532309D+03 -.277814631893799D+03 0.380768428413565D+01 0.230872225226047D+03
 0.000000000000000D+00 -.000000000000000D+00 0.000000000000000D+00 -.000000000000000D+00
 0.380226503822461D+03 0.000000000000000D+00 0.000000000000000D+00 0.380226503822461D+03
 0.393930852793077D+03 0.000000000000000D+00 0.000000000000000D+00 -.393930852793077D+03
 0.385443180361668D+03 0.281980105139225D+03 -.112552748594702D+02 -.230872225226047D+03
 0.367089797039599D+03 -.273814787658214D+03 -.334377257960883D+01 0.230872225226047D+03
 0.216243792142712D+02 -.816531748101154D+01 0.145990474390790D+02 -.137043489706156D+02
-.232325101205D-02 0.000000000000D+00 0.000000000000D+00 0.123616025043D-02 0.000000000000D+00  5 -2 1 25 -24 21 2 0.69091631D-01 0.48475722D-01 0.88182136D+05 0.88182136D+05 0.88182136D+05 0.11686227D+01  1  2  8  1  5  1       -2 -.453069345998D-01 0.100000000000D+01
0.587737697455D-02 0.000000000000D+00 0.000000000000D+00 0.123616025043D-02 0.321142938152D-04  5 -2 1 25 -24 21 2 0.69836041D-01 0.50764026D-01 0.93261947D+05 0.93261947D+05 0.93261947D+05 0.11663650D+01  1  2  1  1  5  1       -2 0.105144758864D+00 0.100000000000D+01
  </mgrwgt>
  </event>
  <event>
  4     66 0.46019439E-03 0.66333102E+02 0.75467711E-02 0.12415904E+00
       -2 -1    0    0    0  501 0.00000000E+00 0.00000000E+00 0.40128260E+01 0.40255648E+01 0.32000000E+00 0.0000E+00 0.9000E+01
        1 -1    0    0  501    0 0.00000000E+00 0.00000000E+00 -.27440579E+04 0.27440580E+04 0.32000000E+00 0.0000E+00 0.9000E+01
       25  1    1    2    0    0 -.11460305E+02 -.14889662E+02 -.15203102E+04 0.15255560E+04 0.12500000E+03 0.0000E+00 0.9000E+01
      -24  1    1    2    0    0 0.11460305E+02 0.14889662E+02 -.12197349E+04 0.12225275E+04 0.80419002E+02 0.0000E+00 0.9000E+01
#aMCatNLO 1  0  0  1  2 0.30613578D+02 0.00000000D+00  -5  5  0 0.00000000D+00 0.00000000D+00 0.00000000D+00 0.00000000D+00 0.00000000D+00
  <mgrwgt>
 0.4296690404D+00    9    2    0
 0.105018837726424D+03 0.000000000000000D+00 0.000000000000000D+00 0.105018837726424D+03
 0.105018837726424D+03 0.000000000000000D+00 0.000000000000000D+00 -.105018837726424D+03
 0.126819174322906D+03 -.114603054712643D+02 -.148896624506873D+02 0.102499915391919D+02
 0.832185011299419D+02 0.114603054712643D+02 0.148896624506873D+02 -.102499915391919D+02
 0.000000000000000D+00 -.000000000000000D+00 0.000000000000000D+00 0.000000000000000D+00
 0.122144783310961D+03 0.000000000000000D+00 0.000000000000000D+00 0.122144783310961D+03
 0.120757183937576D+03 0.000000000000000D+00 0.000000000000000D+00 -.120757183937576D+03
 0.127500537134155D+03 0.542531605334702D+01 -.222910427900025D+02 0.102499915391919D+02
 0.847564209688580D+02 0.226130428817315D+02 0.100011452421816D+02 -.102499915391919D+02
 0.306450091455240D+02 -.280383589350786D+02 0.122898975478209D+02 0.138759937338508D+01
0.773450337097D-03 0.000000000000D+00 0.000000000000D+00 0.313755713989D-02 0.000000000000D+00  5 -2 1 25 -24 21 0 0.61833919D-03 0.42216374D+00 0.10919113D+05 0.10919113D+05 0.10919113D+05 0.12638571D+01  1  2  2  1  5  1       -2 0.313700710396D+00 0.100000000000D+01
-.429681545843D-04 0.000000000000D+00 -.297025294860D-05 0.313755713989D-02 0.000000000000D+00  5 -2 1 25 -24 21 2 0.61833919D-03 0.42216374D+00 0.10919113D+05 0.10919113D+05 0.10919113D+05 0.12638571D+01  1  2  3  1  5  1       -2 -.278372112920D-01 0.100000000000D+01
0.535108443942D-04 0.000000000000D+00 0.000000000000D+00 0.313755713989D-02 0.000000000000D+00  5 -2 1 25 -24 21 2 0.61833919D-03 0.42216374D+00 0.10919113D+05 0.10919113D+05 0.10919113D+05 0.12638571D+01  1  2 15  1  5  1       -2 0.346673646151D-01 0.100000000000D+01
0.346226483221D-03 0.000000000000D+00 0.000000000000D+00 0.313755713989D-02 0.000000000000D+00  5 -2 1 25 -24 21 2 0.75864222D-03 0.42216374D+00 0.14621137D+05 0.14621137D+05 0.14621137D+05 0.12490911D+01  1  2 12  1  5  1       -2 0.164296406488D+00 0.100000000000D+01
-.308143206359D-03 0.000000000000D+00 0.000000000000D+00 0.313755713989D-02 0.000000000000D+00  5 -2 1 25 -24 21 2 0.61833919D-03 0.42216374D+00 0.10919113D+05 0.10919113D+05 0.10919113D+05 0.12638571D+01  1  2  4  1  5  1       -2 -.199632672768D+00 0.100000000000D+01
-.712594647954D-03 0.000000000000D+00 -.309586268738D-03 0.313755713989D-02 0.000000000000D+00  5 -2 1 25 -24 21 2 0.88737919D-03 0.42216374D+00 0.10919113D+05 0.10919113D+05 0.10919113D+05 0.12638571D+01  1  2  5  1  5  1       -2 -.276989529035D+00 0.100000000000D+01
0.791386043536D-03 0.000000000000D+00 0.290430072747D-03 0.313755713989D-02 0.000000000000D+00  5 -2 1 25 -24 21 2 0.61833919D-03 0.42216374D+00 0.10919113D+05 0.10919113D+05 0.10919113D+05 0.12638571D+01  1  2  6  1  5  1       -2 0.512704832696D+00 0.100000000000D+01
0.100778172048D-04 0.000000000000D+00 0.000000000000D+00 0.313755713989D-02 0.000000000000D+00  5 21 1 25 -24 2 2 0.75864222D-03 0.42216374D+00 0.14621137D+05 0.14621137D+05 0.14621137D+05 0.12490911D+01  1  2 12  3  5  1       -2 0.116586422508D+00 0.100000000000D+01
-.223291759418D-04 0.000000000000D+00 -.136824578915D-04 0.313755713989D-02 0.000000000000D+00  5 21 1 25 -24 2 2 0.88737919D-03 0.42216374D+00 0.10919113D+05 0.10919113D+05 0.10919113D+05 0.12638571D+01  1  2  5  3  5  1       -2 -.207827283185D+00 0.100000000000D+01
  </mgrwgt>
  </event>
  <event>
  4     66 0.46019439E-03 0.11746681E+03 0.75467711E-02 0.11371898E+00
       -2 -1    0    0    0  501 0.00000000E+00 0.00000000E+00 0.31262301E+03 0.31262318E+03 0.32000000E+00 0.0000E+00 0.9000E+01
        1 -1    0    0  501    0 0.00000000E+00 0.00000000E+00 -.47956794E+02 0.47957862E+02 0.32000000E+00 0.0000E+00 0.9000E+01
       25  1    1    2    0    0 -.49387246E+02 0.26326982E+02 0.20277459E+03 0.24469316E+03 0.12500000E+03 0.0000E+00 0.9000E+01
      -24  1    1    2    0    0 0.49387246E+02 -.26326982E+02 0.61891630E+02 0.11588788E+03 0.80419002E+02 0.0000E+00 0.9000E+01
#aMCatNLO 1  0  0  1  2 0.15149493D+03 0.00000000D+00  -5  5  0 0.00000000D+00 0.00000000D+00 0.00000000D+00 0.00000000D+00 0.00000000D+00
  <mgrwgt>
 0.1600974438D+00    5    2    0
 0.122444352836192D+03 0.000000000000000D+00 0.000000000000000D+00 0.122444352836192D+03
 0.122444352836192D+03 0.000000000000000D+00 0.000000000000000D+00 -.122444352836192D+03
 0.141142201764106D+03 -.493872455902725D+02 0.263269824111606D+02 0.341161411790413D+02
 0.103746503908278D+03 0.493872455902725D+02 -.263269824111606D+02 -.341161411790413D+02
 0.000000000000000D+00 -.000000000000000D+00 0.000000000000000D+00 0.000000000000000D+00
 0.312888052996160D+03 0.000000000000000D+00 0.000000000000000D+00 0.312888052996160D+03
 0.177949481799319D+03 0.000000000000000D+00 0.000000000000000D+00 -.177949481799319D+03
 0.149039092047216D+03 -.476465735518340D+02 -.561564234801325D+02 0.341161411790413D+02
 0.138921307977144D+03 0.508429048067232D+02 -.953047837077243D+02 -.341161411790413D+02
 0.202877134771119D+03 -.319633125488921D+01 0.151461207187857D+03 0.134938571196841D+03
0.469182648450D-03 0.000000000000D+00 0.000000000000D+00 0.255363619788D-02 0.000000000000D+00  5 -2 1 25 -24 21 0 0.48095943D-01 0.73780631D-02 0.13798452D+05 0.13798452D+05 0.13798452D+05 0.12519776D+01  1  2  2  1  5  1       -2 0.157039437634D+00 0.100000000000D+01
-.260111188275D-04 0.000000000000D+00 -.180178490868D-05 0.255363619788D-02 0.000000000000D+00  5 -2 1 25 -24 21 2 0.48095943D-01 0.73780631D-02 0.13798452D+05 0.13798452D+05 0.13798452D+05 0.12519776D+01  1  2  3  1  5  1       -2 -.136464269868D-01 0.100000000000D+01
0.324503796130D-04 0.000000000000D+00 0.000000000000D+00 0.255363619788D-02 0.000000000000D+00  5 -2 1 25 -24 21 2 0.48095943D-01 0.73780631D-02 0.13798452D+05 0.13798452D+05 0.13798452D+05 0.12519776D+01  1  2 15  1  5  1       -2 0.170247092798D-01 0.100000000000D+01
-.260093350980D-04 0.000000000000D+00 -.132053851258D-03 0.255363619788D-02 0.000000000000D+00  5 -2 1 25 -24 21 2 0.16036828D+00 0.73780631D-02 0.13798452D+05 0.13798452D+05 0.13798452D+05 0.12519776D+01  1  2  5  1  5  1       -2 -.916840461972D-03 0.100000000000D+01
0.142591127748D-05 0.000000000000D+00 -.184507545191D-04 0.255363619788D-02 0.000000000000D+00  5 21 1 25 -24 2 2 0.16036828D+00 0.73780631D-02 0.13798452D+05 0.13798452D+05 0.13798452D+05 0.12519776D+01  1  2  5  3  5  1       -2 0.596564285248D-03 0.100000000000D+01
  </mgrwgt>
  </event>
  <event>
  4     66 0.46019439E-03 0.49681040E+02 0.75467711E-02 0.12429910E+00
       -2 -1    0    0    0  501 0.00000000E+00 0.00000000E+00 0.21438748E+02 0.21441136E+02 0.32000000E+00 0.0000E+00 0.9000E+01
        1 -1    0    0  501    0 0.00000000E+00 0.00000000E+00 -.61071961E+03 0.61071970E+03 0.32000000E+00 0.0000E+00 0.9000E+01
       25  1    1    2    0    0 -.99912603E+01 -.28101955E+02 -.23711012E+03 0.26969567E+03 0.12500000E+03 0.0000E+00 0.9000E+01
      -24  1    1    2    0    0 0.99912603E+01 0.28101955E+02 -.35217074E+03 0.36246516E+03 0.80419002E+02 0.0000E+00 0.9000E+01
#aMCatNLO 1  0  0  1  2 0.24626217D+02 0.00000000D+00  -5  5  0 0.00000000D+00 0.00000000D+00 0.00000000D+00 0.00000000D+00 0.00000000D+00
  <mgrwgt>
 0.2345184606D+00    9    2    0
 0.114428340582633D+03 0.000000000000000D+00 0.000000000000000D+00 0.114428340582633D+03
 0.114428340582633D+03 0.000000000000000D+00 0.000000000000000D+00 -.114428340582633D+03
 0.134436023991745D+03 -.999126025425371D+01 -.281019553201447D+02 0.394778339378606D+02
 0.944206571735204D+02 0.999126025425371D+01 0.281019553201447D+02 -.394778339378606D+02
 0.000000000000000D+00 0.000000000000000D+00 0.000000000000000D+00 0.000000000000000D+00
 0.171469240024228D+03 0.000000000000000D+00 0.000000000000000D+00 0.171469240024228D+03
 0.117778017713419D+03 0.000000000000000D+00 0.000000000000000D+00 -.117778017713419D+03
 0.138416282344270D+03 -.156696219505510D+02 -.415936388587278D+02 0.394778339378606D+02
 0.917615425225699D+02 0.611660042277438D+01 0.188958344243824D+02 -.394778339378606D+02
 0.590694328708067D+02 0.955302152777662D+01 0.226978044343454D+02 0.536912223108097D+02
0.188937946912D-03 0.000000000000D+00 0.000000000000D+00 0.260636831728D-02 0.000000000000D+00  5 -2 1 25 -24 21 0 0.32984591D-02 0.93957054D-01 0.11479033D+05 0.11479033D+05 0.11479033D+05 0.12612895D+01  1  2  2  1  5  1       -2 0.196302442365D+00 0.100000000000D+01
-.104412795994D-04 0.000000000000D+00 -.725571464644D-06 0.260636831728D-02 0.000000000000D+00  5 -2 1 25 -24 21 2 0.32984591D-02 0.93957054D-01 0.11479033D+05 0.11479033D+05 0.11479033D+05 0.12612895D+01  1  2  3  1  5  1       -2 -.172579740572D-01 0.100000000000D+01
0.129326265075D-04 0.000000000000D+00 0.000000000000D+00 0.260636831728D-02 0.000000000000D+00  5 -2 1 25 -24 21 2 0.32984591D-02 0.93957054D-01 0.11479033D+05 0.11479033D+05 0.11479033D+05 0.12612895D+01  1  2 15  1  5  1       -2 0.213758218647D-01 0.100000000000D+01
0.507543783576D-03 0.000000000000D+00 0.000000000000D+00 0.260636831728D-02 0.000000000000D+00  5 -2 1 25 -24 21 2 0.49717315D-02 0.93957054D-01 0.14415438D+05 0.14415438D+05 0.14415438D+05 0.12497954D+01  1  2 12  1  5  1       -2 0.452103833767D+00 0.100000000000D+01
-.494701698051D-03 0.000000000000D+00 0.000000000000D+00 0.260636831728D-02 0.000000000000D+00  5 -2 1 25 -24 21 2 0.32984591D-02 0.93957054D-01 0.11479033D+05 0.11479033D+05 0.11479033D+05 0.12612895D+01  1  2  4  1  5  1       -2 -.817672679837D+00 0.100000000000D+01
-.566048555891D-03 0.000000000000D+00 -.669632755587D-04 0.260636831728D-02 0.000000000000D+00  5 -2 1 25 -24 21 2 0.50799937D-02 0.93957054D-01 0.11479033D+05 0.11479033D+05 0.11479033D+05 0.12612895D+01  1  2  5  1  5  1       -2 -.494022889624D+00 0.100000000000D+01
0.548786067700D-03 0.000000000000D+00 0.611700172744D-04 0.260636831728D-02 0.000000000000D+00  5 -2 1 25 -24 21 2 0.32984591D-02 0.93957054D-01 0.11479033D+05 0.11479033D+05 0.11479033D+05 0.12612895D+01  1  2  6  1  5  1       -2 0.907066574465D+00 0.100000000000D+01
0.246158327507D-04 0.000000000000D+00 0.000000000000D+00 0.260636831728D-02 0.000000000000D+00  5 21 1 25 -24 2 2 0.49717315D-02 0.93957054D-01 0.14415438D+05 0.14415438D+05 0.14415438D+05 0.12497954D+01  1  2 12  3  5  1       -2 0.394242417776D+00 0.100000000000D+01
-.259877025386D-04 0.000000000000D+00 -.337355130195D-05 0.260636831728D-02 0.000000000000D+00  5 21 1 25 -24 2 2 0.50799937D-02 0.93957054D-01 0.11479033D+05 0.11479033D+05 0.11479033D+05 0.12612895D+01  1  2  5  3  5  1       -2 -.407619086076D+00 0.100000000000D+01
  </mgrwgt>
  </event>
  <event>
  4     66 0.46019439E-03 0.10777913E+03 0.75467711E-02 0.11187398E+00
       -2 -1    0    0    0  501 0.00000000E+00 0.00000000E+00 0.24979200E+02 0.24981249E+02 0.32000000E+00 0.0000E+00 0.9000E+01
        1 -1    0    0  501    0 0.00000000E+00 0.00000000E+00 -.46609503E+03 0.46609514E+03 0.32000000E+00 0.0000E+00 0.9000E+01
       25  1    1    2    0    0 0.20734731E+02 -.24321336E+02 -.27549165E+03 0.30420734E+03 0.12500000E+03 0.0000E+00 0.9000E+01
      -24  1    1    2    0    0 -.20734731E+02 0.24321336E+02 -.16562418E+03 0.18686905E+03 0.80419002E+02 0.0000E+00 0.9000E+01
#aMCatNLO 1  0  0  2  2 0.19351417D+03 0.00000000D+00  -5  5  0 0.00000000D+00 0.00000000D+00 0.00000000D+00 0.00000000D+00 0.00000000D+00
  <mgrwgt>
 0.1600566286D+00    5    2    0
 0.107903711896335D+03 0.000000000000000D+00 0.000000000000000D+00 0.107903711896335D+03
 0.107903711896335D+03 0.000000000000000D+00 0.000000000000000D+00 -.107903711896335D+03
 0.129121202668171D+03 0.207347307226537D+02 -.243213362669961D+02 -.508217694710711D+01
 0.866862211244988D+02 -.207347307226537D+02 0.243213362669961D+02 0.508217694710711D+01
 0.000000000000000D+00 0.000000000000000D+00 0.000000000000000D+00 -.000000000000000D+00
 0.198615782716080D+03 0.000000000000000D+00 0.000000000000000D+00 0.198615782716080D+03
 0.319320281281249D+03 0.000000000000000D+00 0.000000000000000D+00 -.319320281281249D+03
 0.194813244463474D+03 0.179343633423088D+02 -.148255624875988D+03 -.508217694710711D+01
 0.950497863726584D+02 -.223058127478461D+02 -.452091598047761D+02 0.508217694710711D+01
 0.228073033161197D+03 0.437144940553726D+01 0.193464784680764D+03 -.120704498565169D+03
0.127192857070D-03 0.000000000000D+00 0.000000000000D+00 0.306572586327D-02 0.000000000000D+00  5 -2 1 25 -24 21 0 0.38431199D-02 0.71707094D-01 0.11616341D+05 0.11616341D+05 0.11616341D+05 0.12606814D+01  1  2  2  2  5  2        1 0.150567596942D+00 0.100000000000D+01
-.706625837157D-05 0.000000000000D+00 -.488454061799D-06 0.306572586327D-02 0.000000000000D+00  5 -2 1 25 -24 21 2 0.38431199D-02 0.71707094D-01 0.11616341D+05 0.11616341D+05 0.11616341D+05 0.12606814D+01  1  2  3  2  5  2        1 -.132944073509D-01 0.100000000000D+01
0.879395423053D-05 0.000000000000D+00 0.000000000000D+00 0.306572586327D-02 0.000000000000D+00  5 -2 1 25 -24 21 2 0.38431199D-02 0.71707094D-01 0.11616341D+05 0.11616341D+05 0.11616341D+05 0.12606814D+01  1  2 15  2  5  2        1 0.165448818340D-01 0.100000000000D+01
0.379215493190D-04 0.000000000000D+00 -.576068640258D-04 0.306572586327D-02 0.000000000000D+00  5 -2 1 25 -24 21 2 0.38431199D-02 0.30605807D+00 0.11616341D+05 0.11616341D+05 0.11616341D+05 0.12606814D+01  1  2  5  2  5  2        1 0.541102918857D-02 0.100000000000D+01
0.665655143371D-05 0.000000000000D+00 -.100543555604D-04 0.306572586327D-02 0.000000000000D+00  5 -2 21 25 -24 -1 2 0.38431199D-02 0.30605807D+00 0.11616341D+05 0.11616341D+05 0.11616341D+05 0.12606814D+01  1  2  5  4  5  2        1 0.827527968330D-03 0.100000000000D+01
  </mgrwgt>
  </event>
</LesHouchesEvents>
