<LesHouchesEvents version="3.0">
  <!--
  <scalesfunctionalform>
    muR  H_T/2 := sum_i mT(i)/2, i=final state
    muF1 H_T/2 := sum_i mT(i)/2, i=final state
    muF2 H_T/2 := sum_i mT(i)/2, i=final state
    QES  H_T/2 := sum_i mT(i)/2, i=final state
  </scalesfunctionalform>
HERWIG6   
  -->
  <header>
      297
  </header>
  <init>
   2212   2212 0.65000000D+04 0.65000000D+04 -1 -1   247000   247000 -3   1
 0.56977889D-01 0.13050140D-02 0.42622971D-03     66
  </init>
  <event>
  5     66 0.42622971E-03 0.74116125E+02 0.75467711E-02 0.11328231E+00
        2 -1    0    0  502    0 0.00000000E+00 0.00000000E+00 0.11529107E+04 0.11529108E+04 0.32000000E+00 0.0000E+00 0.9000E+01
       -1 -1    0    0    0  501 0.00000000E+00 0.00000000E+00 -.60883383E+02 0.60884224E+02 0.32000000E+00 0.0000E+00 0.9000E+01
       25  1    1    2    0    0 -.14325826E+03 0.92945908E+02 0.73646556E+03 0.76626914E+03 0.12500000E+03 0.0000E+00 0.9000E+01
       24  1    1    2    0    0 0.72217130E+02 -.11407011E+03 0.33590289E+03 0.37084400E+03 0.80419002E+02 0.0000E+00 0.9000E+01
       21  1    1    2  502  501 0.71041129E+02 0.21124203E+02 0.19658903E+02 0.76681869E+02 0.75000000E+00 0.0000E+00 0.9000E+01
#aMCatNLO 1  0  0  5  1 0.26125857D+01 0.00000000D+00  -5  6  0 0.00000000D+00 0.00000000D+00 0.00000000D+00 0.00000000D+00 0.00000000D+00
  <mgrwgt>
 0.1546789262D+00   25    2    0
 0.264940830697754D+03 0.000000000000000D+00 0.000000000000000D+00 0.264940830697754D+03
 0.264940830697754D+03 -.000000000000000D+00 -.000000000000000D+00 -.264940830697754D+03
 0.237512334709413D+03 -.143258749487032D+03 0.929457625762671D+02 0.107819873185069D+03
 0.157230232920827D+03 0.722168053088575D+02 -.114070207899723D+03 0.518178450569111D+01
 0.135139093765269D+03 0.710419441781741D+02 0.211244453234562D+02 -.113001657690760D+03
 0.000000000000000D+00 0.000000000000000D+00 0.000000000000000D+00 0.000000000000000D+00
 0.264940830697754D+03 0.000000000000000D+00 0.000000000000000D+00 0.264940830697754D+03
 0.264940830697754D+03 -.000000000000000D+00 -.000000000000000D+00 -.264940830697754D+03
 0.237482306859647D+03 -.143233907693936D+03 0.929531493265322D+02 0.107780359010276D+03
 0.157233379785960D+03 0.722332514733390D+02 -.114065317604189D+03 0.515562469446181D+01
 0.813564339159896D+02 0.405251703729186D+02 0.128854215325862D+02 -.693580984290967D+02
 0.538095408339126D+02 0.304754858476781D+02 0.822674674507048D+01 -.435778852756413D+02
0.205631327322D-04 0.000000000000D+00 0.000000000000D+00 0.349653251490D-05 0.000000000000D+00  6 2 -1 25 24 21 21 2 0.17737095D+00 0.93667425D-02 0.49037955D+05 0.49037955D+05 0.49037955D+05 0.11931183D+01  1  2  2  3  6  5       21 0.478621640462D-02 0.100000000000D+01
0.163399270308D-06 0.108514632699D-05 -.789678440889D-07 0.349653251490D-05 0.000000000000D+00  6 2 -1 25 24 21 21 4 0.17737095D+00 0.93667425D-02 0.49037955D+05 0.49037955D+05 0.49037955D+05 0.11931183D+01  1  2  3  3  6  5       21 0.541402396450D-04 0.100000000000D+01
0.402747336599D-06 0.000000000000D+00 0.000000000000D+00 0.349653251490D-05 0.000000000000D+00  6 2 -1 25 24 21 21 4 0.17737095D+00 0.93667425D-02 0.49037955D+05 0.49037955D+05 0.49037955D+05 0.11931183D+01  1  2 15  3  6  5       21 0.133445132765D-03 0.100000000000D+01
0.128739803057D-04 0.000000000000D+00 0.000000000000D+00 0.349657238727D-05 0.000000000000D+00  6 2 -1 25 24 21 21 4 0.17737095D+00 0.93667425D-02 0.49030217D+05 0.49030217D+05 0.49030217D+05 0.11931251D+01  1  2 12  3  6  5       21 0.426572532662D-02 0.100000000000D+01
0.128418414613D-04 0.000000000000D+00 0.000000000000D+00 0.349657238727D-05 0.000000000000D+00  6 2 -1 25 24 21 21 4 0.17737095D+00 0.93667425D-02 0.49030217D+05 0.49030217D+05 0.49030217D+05 0.11931251D+01  1  2 12  3  6  5       21 0.425507629043D-02 0.100000000000D+01
-.488547241782D-02 0.000000000000D+00 0.000000000000D+00 0.349653251490D-05 0.000000000000D+00  6 2 -1 25 24 21 21 4 0.17737095D+00 0.93667425D-02 0.49037955D+05 0.49037955D+05 0.49037955D+05 0.11931183D+01  1  2  4  3  6  5       21 -.161873824149D+01 0.100000000000D+01
-.386934181086D-02 0.000000000000D+00 0.000000000000D+00 0.349653251490D-05 0.000000000000D+00  6 2 -1 25 24 21 21 4 0.17737095D+00 0.93667425D-02 0.49037955D+05 0.49037955D+05 0.49037955D+05 0.11931183D+01  1  2  5  3  6  5       21 -.128205647745D+01 0.100000000000D+01
0.540731038690D-02 0.000000000000D+00 -.000000000000D+00 0.349653251490D-05 0.000000000000D+00  6 2 -1 25 24 21 21 4 0.17737095D+00 0.93667425D-02 0.49037955D+05 0.49037955D+05 0.49037955D+05 0.11931183D+01  1  2  6  3  6  5       21 0.179164251854D+01 0.100000000000D+01
0.378277368914D-02 0.000000000000D+00 0.000000000000D+00 0.349653251490D-05 0.265234644611D-05  6 2 -1 25 24 21 21 4 0.17737095D+00 0.93667425D-02 0.49030217D+05 0.49030217D+05 0.49030217D+05 0.11931251D+01  1  2 11  3  6  5       21 0.125340206739D+01 0.100000000000D+01
0.120908474264D-06 0.000000000000D+00 0.000000000000D+00 0.349657238727D-05 0.000000000000D+00  6 2 -1 25 24 1 -1 4 0.17737095D+00 0.93667425D-02 0.49030217D+05 0.49030217D+05 0.49030217D+05 0.11931251D+01  1  2 12  6  6  5       21 0.400623838648D-04 0.100000000000D+01
0.120549525718D-06 0.000000000000D+00 0.000000000000D+00 0.349657238727D-05 0.000000000000D+00  6 2 -1 25 24 1 -1 4 0.17737095D+00 0.93667425D-02 0.49030217D+05 0.49030217D+05 0.49030217D+05 0.11931251D+01  1  2 12  6  6  5       21 0.399434481612D-04 0.100000000000D+01
-.368861430739D-04 0.000000000000D+00 0.000000000000D+00 0.349653251490D-05 0.000000000000D+00  6 2 -1 25 24 1 -1 4 0.17737095D+00 0.93667425D-02 0.49037955D+05 0.49037955D+05 0.49037955D+05 0.11931183D+01  1  2  5  6  6  5       21 -.122217475136D-01 0.100000000000D+01
0.343741038364D-04 0.000000000000D+00 0.000000000000D+00 0.349653251490D-05 0.337000212002D-07  6 2 -1 25 24 1 -1 4 0.17737095D+00 0.93667425D-02 0.49030217D+05 0.49030217D+05 0.49030217D+05 0.11931251D+01  1  2 11  6  6  5       21 0.113896776159D-01 0.100000000000D+01
0.120908474264D-06 0.000000000000D+00 0.000000000000D+00 0.349657238727D-05 0.000000000000D+00  6 2 -1 25 24 2 -2 4 0.17737095D+00 0.93667425D-02 0.49030217D+05 0.49030217D+05 0.49030217D+05 0.11931251D+01  1  2 12  7  6  5       21 0.400623838648D-04 0.100000000000D+01
0.120549525718D-06 0.000000000000D+00 0.000000000000D+00 0.349657238727D-05 0.000000000000D+00  6 2 -1 25 24 2 -2 4 0.17737095D+00 0.93667425D-02 0.49030217D+05 0.49030217D+05 0.49030217D+05 0.11931251D+01  1  2 12  7  6  5       21 0.399434481612D-04 0.100000000000D+01
-.368861430739D-04 0.000000000000D+00 0.000000000000D+00 0.349653251490D-05 0.000000000000D+00  6 2 -1 25 24 2 -2 4 0.17737095D+00 0.93667425D-02 0.49037955D+05 0.49037955D+05 0.49037955D+05 0.11931183D+01  1  2  5  7  6  5       21 -.122217475136D-01 0.100000000000D+01
0.343303747214D-04 0.000000000000D+00 0.000000000000D+00 0.349653251490D-05 0.336445616673D-07  6 2 -1 25 24 2 -2 4 0.17737095D+00 0.93667425D-02 0.49030217D+05 0.49030217D+05 0.49030217D+05 0.11931251D+01  1  2 11  7  6  5       21 0.113751882048D-01 0.100000000000D+01
0.120908474264D-06 0.000000000000D+00 0.000000000000D+00 0.349657238727D-05 0.000000000000D+00  6 2 -1 25 24 3 -3 4 0.17737095D+00 0.93667425D-02 0.49030217D+05 0.49030217D+05 0.49030217D+05 0.11931251D+01  1  2 12  8  6  5       21 0.400623838648D-04 0.100000000000D+01
0.120908474264D-06 0.000000000000D+00 0.000000000000D+00 0.349657238727D-05 0.000000000000D+00  6 2 -1 25 24 4 -4 4 0.17737095D+00 0.93667425D-02 0.49030217D+05 0.49030217D+05 0.49030217D+05 0.11931251D+01  1  2 12  8  6  5       21 0.400623838648D-04 0.100000000000D+01
0.120549525718D-06 0.000000000000D+00 0.000000000000D+00 0.349657238727D-05 0.000000000000D+00  6 2 -1 25 24 3 -3 4 0.17737095D+00 0.93667425D-02 0.49030217D+05 0.49030217D+05 0.49030217D+05 0.11931251D+01  1  2 12  8  6  5       21 0.399434481612D-04 0.100000000000D+01
0.120549525718D-06 0.000000000000D+00 0.000000000000D+00 0.349657238727D-05 0.000000000000D+00  6 2 -1 25 24 4 -4 4 0.17737095D+00 0.93667425D-02 0.49030217D+05 0.49030217D+05 0.49030217D+05 0.11931251D+01  1  2 12  8  6  5       21 0.399434481612D-04 0.100000000000D+01
-.368861430739D-04 0.000000000000D+00 0.000000000000D+00 0.349653251490D-05 0.000000000000D+00  6 2 -1 25 24 3 -3 4 0.17737095D+00 0.93667425D-02 0.49037955D+05 0.49037955D+05 0.49037955D+05 0.11931183D+01  1  2  5  8  6  5       21 -.122217475136D-01 0.100000000000D+01
-.368861430739D-04 0.000000000000D+00 0.000000000000D+00 0.349653251490D-05 0.000000000000D+00  6 2 -1 25 24 4 -4 4 0.17737095D+00 0.93667425D-02 0.49037955D+05 0.49037955D+05 0.49037955D+05 0.11931183D+01  1  2  5  8  6  5       21 -.122217475136D-01 0.100000000000D+01
0.343095208581D-04 0.000000000000D+00 0.000000000000D+00 0.349653251490D-05 0.336238978674D-07  6 2 -1 25 24 3 -3 4 0.17737095D+00 0.93667425D-02 0.49030217D+05 0.49030217D+05 0.49030217D+05 0.11931251D+01  1  2 11  8  6  5       21 0.113682783874D-01 0.100000000000D+01
0.343095208581D-04 0.000000000000D+00 0.000000000000D+00 0.349653251490D-05 0.336238978674D-07  6 2 -1 25 24 4 -4 4 0.17737095D+00 0.93667425D-02 0.49030217D+05 0.49030217D+05 0.49030217D+05 0.11931251D+01  1  2 11  8  6  5       21 0.113682783874D-01 0.100000000000D+01
  </mgrwgt>
  </event>
  <event>
  5     66 -.42622971E-03 0.23914173E+02 0.75467711E-02 0.12258884E+00
        2 -1    0    0  502    0 0.00000000E+00 0.00000000E+00 0.98674859E+02 0.98675378E+02 0.32000000E+00 0.0000E+00 0.9000E+01
       -1 -1    0    0    0  501 -.00000000E+00 -.00000000E+00 -.28264003E+03 0.28264021E+03 0.32000000E+00 0.0000E+00 0.9000E+01
       25  1    1    2    0    0 0.29891656E+02 -.33148620E+02 0.25187536E+02 0.13509905E+03 0.12500000E+03 0.0000E+00 0.9000E+01
       24  1    1    2    0    0 -.49003186E+02 0.47509910E+02 -.17851668E+03 0.20734976E+03 0.80419002E+02 0.0000E+00 0.9000E+01
       21  1    1    2  502  501 0.19111531E+02 -.14361290E+02 -.30636029E+02 0.38866773E+02 0.75000000E+00 0.0000E+00 0.9000E+01
#aMCatNLO 1  0  0  5  1 0.31031228D+01 0.00000000D+00  -5  6  0 0.00000000D+00 0.00000000D+00 0.00000000D+00 0.00000000D+00 0.00000000D+00
  <mgrwgt>
 -.3836666628D+00   20    2    0
 0.167001791707596D+03 0.000000000000000D+00 0.000000000000000D+00 0.167001791707596D+03
 0.167001791707596D+03 -.000000000000000D+00 -.000000000000000D+00 -.167001791707596D+03
 0.168109379975848D+03 0.298880757688488D+02 -.331459297553476D+02 0.103168861112998D+03
 0.138396705580132D+03 -.490061335795655D+02 0.475121244780677D+02 -.895959210021620D+02
 0.274974978592118D+02 0.191180578107167D+02 -.143661947227201D+02 -.135729401108361D+02
 0.000000000000000D+00 0.000000000000000D+00 0.000000000000000D+00 -.000000000000000D+00
 0.167001791707596D+03 0.000000000000000D+00 0.000000000000000D+00 0.167001791707596D+03
 0.167001791707596D+03 -.000000000000000D+00 -.000000000000000D+00 -.167001791707596D+03
 0.168056046201466D+03 0.303879745272674D+02 -.335215768517311D+02 0.102813956029193D+03
 0.138335217609096D+03 -.485946161121382D+02 0.472028911800312D+02 -.898880794418557D+02
 0.456792845617518D+01 0.252967521839894D+01 -.373392150648309D+01 0.724253997970641D+00
 0.230443911484551D+02 0.156769663664719D+02 -.994739282181701D+01 -.136501305853082D+02
0.500713951785D-03 0.000000000000D+00 0.000000000000D+00 0.222918185968D-04 0.000000000000D+00  6 2 -1 25 24 21 21 2 0.15180801D-01 0.43483135D-01 0.17177238D+05 0.17177238D+05 0.17177238D+05 0.12411675D+01  1  2  2  3  6  5       21 0.174126680395D+00 0.100000000000D+01
0.761784578489D-04 0.264234011777D-04 -.192287341587D-05 0.222918185968D-04 0.000000000000D+00  6 2 -1 25 24 21 21 4 0.15180801D-01 0.43483135D-01 0.17177238D+05 0.17177238D+05 0.17177238D+05 0.12411675D+01  1  2  3  3  6  5       21 0.408101891167D-01 0.100000000000D+01
0.707369350518D-05 0.000000000000D+00 0.000000000000D+00 0.222918185968D-04 0.000000000000D+00  6 2 -1 25 24 21 21 4 0.15180801D-01 0.43483135D-01 0.17177238D+05 0.17177238D+05 0.17177238D+05 0.12411675D+01  1  2 15  3  6  5       21 0.378950661186D-02 0.100000000000D+01
0.102766726163D-05 0.000000000000D+00 0.000000000000D+00 0.223046558054D-04 0.000000000000D+00  6 2 -1 25 24 21 21 4 0.15180801D-01 0.43483135D-01 0.17051715D+05 0.17051715D+05 0.17051715D+05 0.12415248D+01  1  2 12  3  6  5       21 0.551087977712D-03 0.100000000000D+01
0.988831681420D-06 0.000000000000D+00 0.000000000000D+00 0.223046558054D-04 0.000000000000D+00  6 2 -1 25 24 21 21 4 0.15180801D-01 0.43483135D-01 0.17051715D+05 0.17051715D+05 0.17051715D+05 0.12415248D+01  1  2 12  3  6  5       21 0.530262344589D-03 0.100000000000D+01
-.203218311206D-02 0.000000000000D+00 0.000000000000D+00 0.222918185968D-04 0.000000000000D+00  6 2 -1 25 24 21 21 4 0.15180801D-01 0.43483135D-01 0.17177238D+05 0.17177238D+05 0.17177238D+05 0.12411675D+01  1  2  4  3  6  5       21 -.108867755353D+01 0.100000000000D+01
-.850807307029D-04 0.000000000000D+00 0.000000000000D+00 0.222918185968D-04 0.000000000000D+00  6 2 -1 25 24 21 21 4 0.15180801D-01 0.43483135D-01 0.17177238D+05 0.17177238D+05 0.17177238D+05 0.12411675D+01  1  2  5  3  6  5       21 -.455792990330D-01 0.100000000000D+01
0.107876070151D-02 0.000000000000D+00 -.000000000000D+00 0.222918185968D-04 0.000000000000D+00  6 2 -1 25 24 21 21 4 0.15180801D-01 0.43483135D-01 0.17177238D+05 0.17177238D+05 0.17177238D+05 0.12411675D+01  1  2  6  3  6  5       21 0.577911780881D+00 0.100000000000D+01
0.310110867218D-06 0.000000000000D+00 0.000000000000D+00 0.223046558054D-04 0.000000000000D+00  6 2 -1 25 24 1 -1 4 0.15180801D-01 0.43483135D-01 0.17051715D+05 0.17051715D+05 0.17051715D+05 0.12415248D+01  1  2 12  6  6  5       21 0.166297377626D-03 0.100000000000D+01
0.304442788102D-06 0.000000000000D+00 0.000000000000D+00 0.223046558054D-04 0.000000000000D+00  6 2 -1 25 24 1 -1 4 0.15180801D-01 0.43483135D-01 0.17051715D+05 0.17051715D+05 0.17051715D+05 0.12415248D+01  1  2 12  6  6  5       21 0.163257862430D-03 0.100000000000D+01
-.226086845861D-04 0.000000000000D+00 0.000000000000D+00 0.222918185968D-04 0.000000000000D+00  6 2 -1 25 24 1 -1 4 0.15180801D-01 0.43483135D-01 0.17177238D+05 0.17177238D+05 0.17177238D+05 0.12411675D+01  1  2  5  6  6  5       21 -.121118846416D-01 0.100000000000D+01
0.310110867218D-06 0.000000000000D+00 0.000000000000D+00 0.223046558054D-04 0.000000000000D+00  6 2 -1 25 24 2 -2 4 0.15180801D-01 0.43483135D-01 0.17051715D+05 0.17051715D+05 0.17051715D+05 0.12415248D+01  1  2 12  7  6  5       21 0.166297377626D-03 0.100000000000D+01
0.304442788102D-06 0.000000000000D+00 0.000000000000D+00 0.223046558054D-04 0.000000000000D+00  6 2 -1 25 24 2 -2 4 0.15180801D-01 0.43483135D-01 0.17051715D+05 0.17051715D+05 0.17051715D+05 0.12415248D+01  1  2 12  7  6  5       21 0.163257862430D-03 0.100000000000D+01
-.226086845861D-04 0.000000000000D+00 0.000000000000D+00 0.222918185968D-04 0.000000000000D+00  6 2 -1 25 24 2 -2 4 0.15180801D-01 0.43483135D-01 0.17177238D+05 0.17177238D+05 0.17177238D+05 0.12411675D+01  1  2  5  7  6  5       21 -.121118846416D-01 0.100000000000D+01
0.310110867218D-06 0.000000000000D+00 0.000000000000D+00 0.223046558054D-04 0.000000000000D+00  6 2 -1 25 24 3 -3 4 0.15180801D-01 0.43483135D-01 0.17051715D+05 0.17051715D+05 0.17051715D+05 0.12415248D+01  1  2 12  8  6  5       21 0.166297377626D-03 0.100000000000D+01
0.310110867218D-06 0.000000000000D+00 0.000000000000D+00 0.223046558054D-04 0.000000000000D+00  6 2 -1 25 24 4 -4 4 0.15180801D-01 0.43483135D-01 0.17051715D+05 0.17051715D+05 0.17051715D+05 0.12415248D+01  1  2 12  8  6  5       21 0.166297377626D-03 0.100000000000D+01
0.304442788102D-06 0.000000000000D+00 0.000000000000D+00 0.223046558054D-04 0.000000000000D+00  6 2 -1 25 24 3 -3 4 0.15180801D-01 0.43483135D-01 0.17051715D+05 0.17051715D+05 0.17051715D+05 0.12415248D+01  1  2 12  8  6  5       21 0.163257862430D-03 0.100000000000D+01
0.304442788102D-06 0.000000000000D+00 0.000000000000D+00 0.223046558054D-04 0.000000000000D+00  6 2 -1 25 24 4 -4 4 0.15180801D-01 0.43483135D-01 0.17051715D+05 0.17051715D+05 0.17051715D+05 0.12415248D+01  1  2 12  8  6  5       21 0.163257862430D-03 0.100000000000D+01
-.226086845861D-04 0.000000000000D+00 0.000000000000D+00 0.222918185968D-04 0.000000000000D+00  6 2 -1 25 24 3 -3 4 0.15180801D-01 0.43483135D-01 0.17177238D+05 0.17177238D+05 0.17177238D+05 0.12411675D+01  1  2  5  8  6  5       21 -.121118846416D-01 0.100000000000D+01
-.226086845861D-04 0.000000000000D+00 0.000000000000D+00 0.222918185968D-04 0.000000000000D+00  6 2 -1 25 24 4 -4 4 0.15180801D-01 0.43483135D-01 0.17177238D+05 0.17177238D+05 0.17177238D+05 0.12411675D+01  1  2  5  8  6  5       21 -.121118846416D-01 0.100000000000D+01
  </mgrwgt>
  </event>
  <event>
  5     66 0.42622971E-03 0.36744619E+02 0.75467711E-02 0.11395086E+00
        2 -1    0    0  502    0 0.00000000E+00 0.00000000E+00 0.61363258E+03 0.61363266E+03 0.32000000E+00 0.0000E+00 0.9000E+01
       -1 -1    0    0    0  501 0.00000000E+00 0.00000000E+00 -.71619065E+02 0.71619780E+02 0.32000000E+00 0.0000E+00 0.9000E+01
       25  1    1    2    0    0 -.50797303E+01 0.14509687E+03 0.27113657E+03 0.33199239E+03 0.12500000E+03 0.0000E+00 0.9000E+01
       24  1    1    2    0    0 0.33793270E+02 -.16801398E+03 0.21600817E+03 0.28722365E+03 0.80419002E+02 0.0000E+00 0.9000E+01
       21  1    1    2  502  501 -.28713540E+02 0.22917105E+02 0.54868772E+02 0.66036397E+02 0.75000000E+00 0.0000E+00 0.9000E+01
#aMCatNLO 1  0  0  2  5 0.75296381D+01 0.00000000D+00  -5  6  0 0.00000000D+00 0.00000000D+00 0.00000000D+00 0.00000000D+00 0.00000000D+00
  <mgrwgt>
 0.1741270339D+00    6    4    0
 0.209637937779551D+03 0.000000000000000D+00 0.000000000000000D+00 0.209637937779551D+03
 0.209637937779551D+03 0.000000000000000D+00 0.000000000000000D+00 -.209637937779551D+03
 0.192088762619409D+03 -.507702639578504D+01 0.145094715670615D+03 0.139585103823918D+02
 0.190190695817867D+03 0.337959473827381D+02 -.168016115761878D+03 -.182675561066199D+02
 0.369964171218249D+02 -.287189209869531D+02 0.229214000912623D+02 0.430904572422810D+01
 0.000000000000000D+00 0.000000000000000D+00 0.000000000000000D+00 0.000000000000000D+00
 0.218465022415255D+03 0.000000000000000D+00 0.000000000000000D+00 0.218465022415255D+03
 0.211283637413150D+03 0.000000000000000D+00 0.000000000000000D+00 -.211283637413150D+03
 0.190166193141760D+03 -.725872797848891D+01 0.142445259205311D+03 0.139585103823918D+02
 0.192164823173133D+03 0.316136718402873D+02 -.170666269243390D+03 -.182675561066199D+02
 0.370124649463710D+02 -.291413230845814D+02 0.224084353588755D+02 0.430904572422810D+01
 0.104051785671400D+02 0.478637922278301D+01 0.581257467920382D+01 0.718138500210513D+01
 0.209637937779551D+03 0.000000000000000D+00 0.000000000000000D+00 0.209637937779551D+03
 0.209637937779551D+03 0.000000000000000D+00 0.000000000000000D+00 -.209637937779551D+03
 0.192088762619409D+03 -.507702639578504D+01 0.145094715670615D+03 0.139585103823918D+02
 0.190190695817867D+03 0.337959473827381D+02 -.168016115761878D+03 -.182675561066199D+02
 0.000000000000000D+00 0.000000000000000D+00 0.000000000000000D+00 0.000000000000000D+00
 0.369964171218249D+02 -.287189209869531D+02 0.229214000912623D+02 0.430904572422810D+01
 0.218465022415255D+03 0.000000000000000D+00 0.000000000000000D+00 0.218465022415255D+03
 0.211283637413150D+03 0.000000000000000D+00 0.000000000000000D+00 -.211283637413150D+03
 0.190166193141760D+03 -.725872797848891D+01 0.142445259205311D+03 0.139585103823918D+02
 0.192164823173133D+03 0.316136718402873D+02 -.170666269243390D+03 -.182675561066199D+02
 0.104051785671400D+02 0.478637922278301D+01 0.581257467920382D+01 0.718138500210513D+01
 0.370124649463710D+02 -.291413230845814D+02 0.224084353588755D+02 0.430904572422810D+01
0.401485160044D-03 0.000000000000D+00 0.000000000000D+00 0.124412246793D-04 0.000000000000D+00  6 2 -1 25 24 21 21 2 0.94405073D-01 0.11018379D-01 0.43605150D+05 0.43605150D+05 0.43605150D+05 0.11982129D+01  1  2  2  2  6  2       -1 0.167389655911D+00 0.100000000000D+01
0.786592799235D-04 0.211869539742D-04 -.154180872804D-05 0.124412246793D-04 0.000000000000D+00  6 2 -1 25 24 21 21 4 0.94405073D-01 0.11018379D-01 0.43605150D+05 0.43605150D+05 0.43605150D+05 0.11982129D+01  1  2  3  2  6  2       -1 0.470844039592D-01 0.100000000000D+01
-.784431615023D-06 0.000000000000D+00 0.000000000000D+00 0.124412246793D-04 0.000000000000D+00  6 2 -1 25 24 21 21 4 0.94405073D-01 0.11018379D-01 0.43605150D+05 0.43605150D+05 0.43605150D+05 0.11982129D+01  1  2 15  2  6  2       -1 -.469550383324D-03 0.100000000000D+01
-.685323769877D-04 0.000000000000D+00 0.000000000000D+00 0.124412246793D-04 0.000000000000D+00  6 2 -1 25 24 21 21 4 0.94405073D-01 0.11018379D-01 0.43605150D+05 0.43605150D+05 0.43605150D+05 0.11982129D+01  1  2  4  2  6  2       -1 -.410225738846D-01 0.100000000000D+01
0.193804321549D-05 0.000000000000D+00 0.000000000000D+00 0.124412246793D-04 0.733303004164D-06  6 2 -1 25 24 21 21 4 0.98380124D-01 0.11104876D-01 0.45206883D+05 0.45206883D+05 0.45206883D+05 0.11966406D+01  1  2 11  2  6  2       -1 0.108684534099D-02 0.100000000000D+01
0.717310338976D-08 0.000000000000D+00 0.000000000000D+00 0.124085945463D-04 0.401252704215D-08  6 2 21 25 24 1 21 4 0.98380124D-01 0.11104876D-01 0.45206883D+05 0.45206883D+05 0.45206883D+05 0.11966406D+01  3  4 11  5  5  2       -1 0.582529144639D-04 0.100000000000D+01
  </mgrwgt>
  </event>
  <event>
  6     66 -.42622971E-03 0.17560471E+02 0.75467711E-02 0.12378109E+00
        2 -1    0    0  502    0 0.00000000E+00 0.00000000E+00 0.14154088E+03 0.14154124E+03 0.32000000E+00 0.0000E+00 0.9000E+01
       -1 -1    0    0    0  501 0.00000000E+00 0.00000000E+00 -.11219344E+03 0.11219389E+03 0.32000000E+00 0.0000E+00 0.9000E+01
       25  1    1    2    0    0 0.38296823E+01 -.28502060E+02 -.92701343E+01 0.12860004E+03 0.12500000E+03 0.0000E+00 0.9000E+01
       24  1    1    2    0    0 0.13266877E+02 0.22533422E+02 0.31534348E+02 0.90251849E+02 0.80419002E+02 0.0000E+00 0.9000E+01
       21  1    1    2  503  501 -.23175810E+02 -.24088904E+01 0.75213687E+01 0.24496008E+02 0.75000000E+00 0.0000E+00 0.9000E+01
       21  1    1    2  502  503 0.60792505E+01 0.83775285E+01 -.43814146E+00 0.10387239E+02 0.75000000E+00 0.0000E+00 0.9000E+01
#aMCatNLO 2  0  0  5  1 0.10484678D+02 0.00000000D+00  -5  6  0 0.00000000D+00 0.00000000D+00 0.00000000D+00 0.00000000D+00 0.00000000D+00
  <mgrwgt>
 -.1299444439D+01    4    2    0
 0.126016114901085D+03 0.000000000000000D+00 0.000000000000000D+00 0.126016114901085D+03
 0.126016114901085D+03 -.000000000000000D+00 -.000000000000000D+00 -.126016114901085D+03
 0.131929981996869D+03 0.118018056597548D+02 -.312852351035232D+02 -.257385236053039D+02
 0.874720766454109D+02 0.185717909187816D+02 0.206814050928000D+02 0.202858646290137D+02
 0.326301711598899D+02 -.303735965785364D+02 0.106038300107232D+02 0.545265897629016D+01
 0.000000000000000D+00 0.000000000000000D+00 0.000000000000000D+00 -.000000000000000D+00
 0.126016114901085D+03 0.000000000000000D+00 0.000000000000000D+00 0.126016114901085D+03
 0.126016114901085D+03 -.000000000000000D+00 -.000000000000000D+00 -.126016114901085D+03
 0.130514598182917D+03 0.358466487888008D+01 -.284165210284785D+02 -.242633849491877D+02
 0.871868887158757D+02 0.131032180641529D+02 0.225905572342594D+02 0.212675811928124D+02
 0.234210399227289D+02 -.227411034906104D+02 -.309460491794043D+01 0.467019737198225D+01
 0.109097029806479D+02 0.605322054757737D+01 0.892056871215947D+01 -.167439361560692D+01
-.533153410418D-03 0.000000000000D+00 0.000000000000D+00 0.241728908977D-04 0.000000000000D+00  6 2 -1 25 24 21 21 4 0.21775583D-01 0.17260592D-01 0.15193491D+05 0.15193491D+05 0.15193491D+05 0.12471885D+01  1  2 13  3  6  5       21 -.894833219834D+00 0.100000000000D+01
-.602840555775D-03 0.000000000000D+00 0.000000000000D+00 0.241728908977D-04 0.000000000000D+00  6 2 -1 25 24 21 21 4 0.21775583D-01 0.17260592D-01 0.15193491D+05 0.15193491D+05 0.15193491D+05 0.12471885D+01  1  2 13  3  6  5       21 -.101179462614D+01 0.100000000000D+01
-.666804045630D-05 0.000000000000D+00 0.000000000000D+00 0.241708732848D-04 0.000000000000D+00  6 2 -1 25 24 21 21 4 0.21775583D-01 0.17260592D-01 0.15209498D+05 0.15209498D+05 0.15209498D+05 0.12471364D+01  1  2  8  3  6  5       21 -.111900430421D-01 0.100000000000D+01
0.368435040797D-03 0.000000000000D+00 0.000000000000D+00 0.241708732848D-04 0.925712553123D-06  6 2 -1 25 24 21 21 4 0.21775583D-01 0.17260592D-01 0.15193491D+05 0.15193491D+05 0.15193491D+05 0.12471885D+01  1  2  1  3  6  5       21 0.618373450144D+00 0.100000000000D+01
  </mgrwgt>
  </event>
  <event>
  5     66 0.42622971E-03 0.39774461E+02 0.75467711E-02 0.11302215E+00
        2 -1    0    0  502    0 0.00000000E+00 0.00000000E+00 0.32349231E+04 0.32349231E+04 0.32000000E+00 0.0000E+00 0.9000E+01
       -1 -1    0    0    0  501 0.00000000E+00 0.00000000E+00 -.25369253E+02 0.25371271E+02 0.32000000E+00 0.0000E+00 0.9000E+01
       25  1    1    2    0    0 -.33910110E+02 -.15643563E+03 0.19143024E+04 0.19250456E+04 0.12500000E+03 0.0000E+00 0.9000E+01
       24  1    1    2    0    0 0.19967885E+02 0.19368442E+03 0.55043979E+03 0.58937556E+03 0.80419002E+02 0.0000E+00 0.9000E+01
       21  1    1    2  502  501 0.13942224E+02 -.37248785E+02 0.74481167E+03 0.74587321E+03 0.75000000E+00 0.0000E+00 0.9000E+01
#aMCatNLO 1  0  0  5  2 0.34080966D+02 0.00000000D+00  -5  6  0 0.00000000D+00 0.00000000D+00 0.00000000D+00 0.00000000D+00 0.00000000D+00
  <mgrwgt>
 0.2615150171D+00    9    2    0
 0.286480184829264D+03 0.000000000000000D+00 0.000000000000000D+00 0.286480184829264D+03
 0.286480184829264D+03 -.000000000000000D+00 -.000000000000000D+00 -.286480184829264D+03
 0.230658507883533D+03 -.339104144733590D+02 -.156434820535075D+03 0.109346138356423D+03
 0.270302476939314D+03 0.199675286109860D+02 0.193685373042053D+03 -.169362000330322D+03
 0.719993848356811D+02 0.139428858623730D+02 -.372505525069789D+02 0.600158619738995D+02
 0.000000000000000D+00 0.000000000000000D+00 0.000000000000000D+00 -.000000000000000D+00
 0.286480184829264D+03 0.000000000000000D+00 0.000000000000000D+00 0.286480184829264D+03
 0.286480184829264D+03 -.000000000000000D+00 -.000000000000000D+00 -.286480184829264D+03
 0.252098235831186D+03 -.283396559833293D+02 -.171317954033037D+03 0.133324952780329D+03
 0.243821794015055D+03 0.259002518398962D+02 0.177835195372287D+03 -.143825142182721D+03
 0.413064754999125D+02 0.528284537628982D+00 0.162591440216220D+02 0.379682244693682D+02
 0.357338643123758D+02 0.191111960580416D+01 -.227763853608718D+02 -.274680350669768D+02
0.184645762288D-02 0.000000000000D+00 0.000000000000D+00 0.702346242222D-05 0.000000000000D+00  6 2 -1 25 24 21 21 2 0.49768063D+00 0.39031184D-02 0.51423032D+05 0.51423032D+05 0.51423032D+05 0.11910766D+01  1  2  2  3  6  5       21 0.115554896963D+00 0.100000000000D+01
0.214800852001D-03 0.974402457792D-04 -.709088345533D-05 0.702346242222D-05 0.000000000000D+00  6 2 -1 25 24 21 21 4 0.49768063D+00 0.39031184D-02 0.51423032D+05 0.51423032D+05 0.51423032D+05 0.11910766D+01  1  2  3  3  6  5       21 0.190706024296D-01 0.100000000000D+01
0.101587338166D-04 0.000000000000D+00 0.000000000000D+00 0.702346242222D-05 0.000000000000D+00  6 2 -1 25 24 21 21 4 0.49768063D+00 0.39031184D-02 0.51423032D+05 0.51423032D+05 0.51423032D+05 0.11910766D+01  1  2 15  3  6  5       21 0.901919950505D-03 0.100000000000D+01
0.171175185900D-02 0.000000000000D+00 0.000000000000D+00 0.703145646848D-05 0.000000000000D+00  6 2 -1 25 24 21 21 4 0.49768063D+00 0.39031184D-02 0.50617407D+05 0.50617407D+05 0.50617407D+05 0.11917543D+01  1  2 12  3  6  5       21 0.152409399701D+00 0.100000000000D+01
-.416284910045D-03 0.000000000000D+00 0.000000000000D+00 0.702346242222D-05 0.000000000000D+00  6 2 -1 25 24 21 21 4 0.49768063D+00 0.39031184D-02 0.51423032D+05 0.51423032D+05 0.51423032D+05 0.11910766D+01  1  2  4  3  6  5       21 -.369589037613D-01 0.100000000000D+01
0.295862717243D-04 0.000000000000D+00 0.000000000000D+00 0.703145646848D-05 0.000000000000D+00  6 2 -1 25 24 1 -1 4 0.49768063D+00 0.39031184D-02 0.50617407D+05 0.50617407D+05 0.50617407D+05 0.11917543D+01  1  2 12  6  6  5       21 0.263427545832D-02 0.100000000000D+01
0.295862717243D-04 0.000000000000D+00 0.000000000000D+00 0.703145646848D-05 0.000000000000D+00  6 2 -1 25 24 2 -2 4 0.49768063D+00 0.39031184D-02 0.50617407D+05 0.50617407D+05 0.50617407D+05 0.11917543D+01  1  2 12  7  6  5       21 0.263427545832D-02 0.100000000000D+01
0.295862717243D-04 0.000000000000D+00 0.000000000000D+00 0.703145646848D-05 0.000000000000D+00  6 2 -1 25 24 3 -3 4 0.49768063D+00 0.39031184D-02 0.50617407D+05 0.50617407D+05 0.50617407D+05 0.11917543D+01  1  2 12  8  6  5       21 0.263427545832D-02 0.100000000000D+01
0.295862717243D-04 0.000000000000D+00 0.000000000000D+00 0.703145646848D-05 0.000000000000D+00  6 2 -1 25 24 4 -4 4 0.49768063D+00 0.39031184D-02 0.50617407D+05 0.50617407D+05 0.50617407D+05 0.11917543D+01  1  2 12  8  6  5       21 0.263427545832D-02 0.100000000000D+01
  </mgrwgt>
  </event>
  <event>
  6     66 0.42622971E-03 0.22290956E+02 0.75467711E-02 0.12140485E+00
        2 -1    0    0  502    0 0.00000000E+00 0.00000000E+00 0.10316135E+03 0.10316184E+03 0.32000000E+00 0.0000E+00 0.9000E+01
       -1 -1    0    0    0  501 -.00000000E+00 -.00000000E+00 -.40894032E+03 0.40894045E+03 0.32000000E+00 0.0000E+00 0.9000E+01
       25  1    1    2    0    0 0.54198716E+02 -.39938035E+02 -.22122616E+03 0.26286605E+03 0.12500000E+03 0.0000E+00 0.9000E+01
       24  1    1    2    0    0 -.67150980E+02 0.24032413E+02 -.14478455E+03 0.18032358E+03 0.80419002E+02 0.0000E+00 0.9000E+01
        2  1    1    2  502    0 0.13509448E+02 0.20638504E+02 0.59044980E+02 0.63991133E+02 0.32000000E+00 0.0000E+00 0.9000E+01
       -2  1    1    2    0  501 -.55718407E+00 -.47328823E+01 0.11867550E+01 0.49215258E+01 0.32000000E+00 0.0000E+00 0.9000E+01
#aMCatNLO 2  0  0  5  2 0.54512328D+01 0.00000000D+00  -5  6  0 0.00000000D+00 0.00000000D+00 0.00000000D+00 0.00000000D+00 0.00000000D+00
  <mgrwgt>
 0.4019763474D-02    2    2    0
 0.205394725433156D+03 0.000000000000000D+00 0.000000000000000D+00 0.205394725433156D+03
 0.205394725433156D+03 -.000000000000000D+00 -.000000000000000D+00 -.205394725433156D+03
 0.163545531357620D+03 0.540895347399340D+02 -.400721117059678D+02 -.811830580976611D+02
 0.117353151510321D+03 -.672293386797362D+02 0.239361867134207D+02 -.470300032036937D+02
 0.129890767998371D+03 0.131398039398022D+02 0.161359249925471D+02 0.128213061301355D+03
 0.000000000000000D+00 0.000000000000000D+00 0.000000000000000D+00 0.000000000000000D+00
 0.205394725433156D+03 0.000000000000000D+00 0.000000000000000D+00 0.205394725433156D+03
 0.205394725433156D+03 -.000000000000000D+00 -.000000000000000D+00 -.205394725433156D+03
 0.163021321788299D+03 0.541990015941378D+02 -.399376843616410D+02 -.801149234015274D+02
 0.117022708386550D+03 -.671507747108671D+02 0.240326647365781D+02 -.462634067610959D+02
 0.123719299142408D+03 0.135122813475948D+02 0.206556735519478D+02 0.121232117787274D+03
 0.702612154905482D+01 -.560508230865464D+00 -.475065392688488D+01 0.514621237534926D+01
-.248905171468D-04 0.000000000000D+00 0.000000000000D+00 0.778889677777D-04 0.000000000000D+00  6 2 -1 25 24 2 -2 4 0.15871024D-01 0.62913944D-01 0.19450938D+05 0.19450938D+05 0.19450938D+05 0.12351592D+01  1  2 13  7  6  5       21 -.629435700619D-02 0.100000000000D+01
0.407863412284D-04 0.000000000000D+00 0.000000000000D+00 0.782713263246D-04 0.199570395703D-06  6 2 -1 25 24 2 -2 4 0.15871024D-01 0.62913944D-01 0.19450938D+05 0.19450938D+05 0.19450938D+05 0.12351592D+01  1  2  1  7  6  5       21 0.103141204803D-01 0.100000000000D+01
  </mgrwgt>
  </event>
  <event>
  6     66 -.42622971E-03 0.72211720E+02 0.75467711E-02 0.11898482E+00
        4 -1    0    0  502    0 0.00000000E+00 0.00000000E+00 0.34545044E+03 0.34545392E+03 0.15500000E+01 0.0000E+00 0.9000E+01
       -3 -1    0    0    0  501 0.00000000E+00 0.00000000E+00 -.91581005E+02 0.91582369E+02 0.50000000E+00 0.0000E+00 0.9000E+01
       25  1    1    2    0    0 0.33443587E+02 0.78415308E+02 0.21592106E+03 0.26365572E+03 0.12500000E+03 0.0000E+00 0.9000E+01
       24  1    1    2    0    0 -.36059956E+02 0.11732744E-01 0.22195343E+02 0.90885476E+02 0.80419002E+02 0.0000E+00 0.9000E+01
        1  1    1    2  502    0 -.47473922E+00 -.22903823E+02 -.44305946E+01 0.23335446E+02 0.32000000E+00 0.0000E+00 0.9000E+01
       -1  1    1    2    0  501 0.30911082E+01 -.55523218E+02 0.20183630E+02 0.59159649E+02 0.32000000E+00 0.0000E+00 0.9000E+01
#aMCatNLO 2  0  0  5  2 0.94770034D+01 0.00000000D+00  -5  6  0 0.00000000D+00 0.00000000D+00 0.00000000D+00 0.00000000D+00 0.00000000D+00
  <mgrwgt>
 -.2616649844D-03    3    2    0
 0.177870056091323D+03 0.000000000000000D+00 0.000000000000000D+00 0.177870056091323D+03
 0.177870056091323D+03 -.000000000000000D+00 -.000000000000000D+00 -.177870056091323D+03
 0.170478782641476D+03 0.334115021089730D+02 0.793770832708120D+02 0.775948806891296D+02
 0.957175401000882D+02 -.360780154067694D+02 0.553059018224984D+00 -.373189289566664D+02
 0.895437894410815D+02 0.266651329779650D+01 -.799301422890370D+02 -.402759517324632D+02
 0.000000000000000D+00 0.000000000000000D+00 0.000000000000000D+00 0.000000000000000D+00
 0.177870056091323D+03 0.000000000000000D+00 0.000000000000000D+00 0.177870056091323D+03
 0.177870056091323D+03 -.000000000000000D+00 -.000000000000000D+00 -.177870056091323D+03
 0.169823652370397D+03 0.334433508338826D+02 0.784224009461976D+02 0.771138263818951D+02
 0.958150844670859D+02 -.360600899697362D+02 0.157345901617315D-01 -.375896810422950D+02
 0.315501468766313D+02 -.475790252829598D+00 -.226791856860024D+02 -.219280625726977D+02
 0.585512284685315D+02 0.309252938868315D+01 -.557589498503570D+02 -.175960827669024D+02
-.338517934118D-05 0.000000000000D+00 0.000000000000D+00 0.325209585673D-05 0.000000000000D+00  6 4 -3 25 24 1 -1 4 0.53146595D-01 0.14089758D-01 0.25276006D+05 0.25276006D+05 0.25276006D+05 0.12227867D+01  1  2 13  8  6  5       21 -.215631485616D-03 0.100000000000D+01
-.332835621470D-05 0.000000000000D+00 0.000000000000D+00 0.325209585673D-05 0.000000000000D+00  6 4 -3 25 24 1 -1 4 0.53146595D-01 0.14089758D-01 0.25276006D+05 0.25276006D+05 0.25276006D+05 0.12227867D+01  1  2 13  8  6  5       21 -.212011926961D-03 0.100000000000D+01
0.260568044813D-05 0.000000000000D+00 0.000000000000D+00 0.324908210551D-05 0.260392940985D-08  6 4 -3 25 24 1 -1 4 0.53146595D-01 0.14089758D-01 0.25276006D+05 0.25276006D+05 0.25276006D+05 0.12227867D+01  1  2  1  8  6  5       21 0.165978428154D-03 0.100000000000D+01
  </mgrwgt>
  </event>
  <event>
  5     66 0.42622971E-03 0.11611871E+03 0.75467711E-02 0.11467898E+00
        2 -1    0    0  502    0 0.00000000E+00 0.00000000E+00 0.43162675E+03 0.43162687E+03 0.32000000E+00 0.0000E+00 0.9000E+01
       -1 -1    0    0    0  501 0.00000000E+00 0.00000000E+00 -.10390744E+03 0.10390793E+03 0.32000000E+00 0.0000E+00 0.9000E+01
       25  1    1    2    0    0 -.13256128E+03 0.92295284E+02 0.11397628E+03 0.23389422E+03 0.12500000E+03 0.0000E+00 0.9000E+01
       24  1    1    2    0    0 0.25581634E+02 -.46487374E+02 0.91851560E+02 0.13311432E+03 0.80419002E+02 0.0000E+00 0.9000E+01
       21  1    1    2  502  501 0.10697965E+03 -.45807910E+02 0.12189147E+03 0.16852627E+03 0.75000000E+00 0.0000E+00 0.9000E+01
#aMCatNLO 1  0  0  5  2 0.29449312D+02 0.00000000D+00  -5  6  0 0.00000000D+00 0.00000000D+00 0.00000000D+00 0.00000000D+00 0.00000000D+00
  <mgrwgt>
 0.3143209075D-01   20    2    0
 0.211776757013995D+03 0.000000000000000D+00 0.000000000000000D+00 0.211776757013995D+03
 0.211776757013995D+03 -.000000000000000D+00 -.000000000000000D+00 -.211776757013995D+03
 0.207545560433670D+03 -.132562329580243D+03 0.922957314726838D+02 -.368630761590454D+02
 0.972385170263927D+02 0.255811445158011D+02 -.464871640325944D+02 0.131400861713269D+02
 0.118769436567927D+03 0.106981185064442D+03 -.458085674400894D+02 0.237229899877185D+02
 0.000000000000000D+00 0.000000000000000D+00 -.000000000000000D+00 0.000000000000000D+00
 0.211776757013995D+03 0.000000000000000D+00 0.000000000000000D+00 0.211776757013995D+03
 0.211776757013995D+03 -.000000000000000D+00 -.000000000000000D+00 -.211776757013995D+03
 0.200459100220979D+03 -.124309519275925D+03 0.887619379634057D+02 -.350330222472109D+02
 0.992956385222922D+02 0.295564890656896D+02 -.481893777330826D+02 0.140216155626673D+02
 0.845676097637647D+02 0.750025564760757D+02 -.109562471576149D+02 0.375001038855989D+02
 0.392311655209540D+02 0.197504737341597D+02 -.296163130727082D+02 -.164886972010553D+02
0.541556958143D-04 0.000000000000D+00 0.000000000000D+00 0.154853592651D-05 0.000000000000D+00  6 2 -1 25 24 21 21 2 0.66404162D-01 0.15985807D-01 0.43465647D+05 0.43465647D+05 0.43465647D+05 0.11983529D+01  1  2  2  3  6  5       21 0.186908613060D-01 0.100000000000D+01
-.367967006939D-05 0.285787458379D-05 -.207972131449D-06 0.154853592651D-05 0.000000000000D+00  6 2 -1 25 24 21 21 4 0.66404162D-01 0.15985807D-01 0.43465647D+05 0.43465647D+05 0.43465647D+05 0.11983529D+01  1  2  3  3  6  5       21 -.182374245720D-02 0.100000000000D+01
0.238061745721D-05 0.000000000000D+00 0.000000000000D+00 0.154853592651D-05 0.000000000000D+00  6 2 -1 25 24 21 21 4 0.66404162D-01 0.15985807D-01 0.43465647D+05 0.43465647D+05 0.43465647D+05 0.11983529D+01  1  2 15  3  6  5       21 0.117989739547D-02 0.100000000000D+01
0.366762294171D-04 0.000000000000D+00 0.000000000000D+00 0.155398037357D-05 0.000000000000D+00  6 2 -1 25 24 21 21 4 0.66404162D-01 0.15985807D-01 0.41426736D+05 0.41426736D+05 0.41426736D+05 0.12004577D+01  1  2 12  3  6  5       21 0.182946646633D-01 0.100000000000D+01
0.392009155979D-04 0.000000000000D+00 0.000000000000D+00 0.155398037357D-05 0.000000000000D+00  6 2 -1 25 24 21 21 4 0.66404162D-01 0.15985807D-01 0.41426736D+05 0.41426736D+05 0.41426736D+05 0.12004577D+01  1  2 12  3  6  5       21 0.195540167775D-01 0.100000000000D+01
-.732133140543D-04 0.000000000000D+00 0.000000000000D+00 0.154853592651D-05 0.000000000000D+00  6 2 -1 25 24 21 21 4 0.66404162D-01 0.15985807D-01 0.43465647D+05 0.43465647D+05 0.43465647D+05 0.11983529D+01  1  2  4  3  6  5       21 -.362864677418D-01 0.100000000000D+01
-.642146323158D-04 0.000000000000D+00 0.000000000000D+00 0.154853592651D-05 0.000000000000D+00  6 2 -1 25 24 21 21 4 0.66404162D-01 0.15985807D-01 0.43465647D+05 0.43465647D+05 0.43465647D+05 0.11983529D+01  1  2  5  3  6  5       21 -.318264814833D-01 0.100000000000D+01
0.869915148631D-04 0.000000000000D+00 -.000000000000D+00 0.154853592651D-05 0.000000000000D+00  6 2 -1 25 24 21 21 4 0.66404162D-01 0.15985807D-01 0.43465647D+05 0.43465647D+05 0.43465647D+05 0.11983529D+01  1  2  6  3  6  5       21 0.431153109058D-01 0.100000000000D+01
0.729806780447D-06 0.000000000000D+00 0.000000000000D+00 0.155398037357D-05 0.000000000000D+00  6 2 -1 25 24 1 -1 4 0.66404162D-01 0.15985807D-01 0.41426736D+05 0.41426736D+05 0.41426736D+05 0.12004577D+01  1  2 12  6  6  5       21 0.364038793777D-03 0.100000000000D+01
0.770428052108D-06 0.000000000000D+00 0.000000000000D+00 0.155398037357D-05 0.000000000000D+00  6 2 -1 25 24 1 -1 4 0.66404162D-01 0.15985807D-01 0.41426736D+05 0.41426736D+05 0.41426736D+05 0.12004577D+01  1  2 12  6  6  5       21 0.384301305901D-03 0.100000000000D+01
-.124051498229D-05 0.000000000000D+00 0.000000000000D+00 0.154853592651D-05 0.000000000000D+00  6 2 -1 25 24 1 -1 4 0.66404162D-01 0.15985807D-01 0.43465647D+05 0.43465647D+05 0.43465647D+05 0.11983529D+01  1  2  5  6  6  5       21 -.614832253798D-03 0.100000000000D+01
0.729806780447D-06 0.000000000000D+00 0.000000000000D+00 0.155398037357D-05 0.000000000000D+00  6 2 -1 25 24 2 -2 4 0.66404162D-01 0.15985807D-01 0.41426736D+05 0.41426736D+05 0.41426736D+05 0.12004577D+01  1  2 12  7  6  5       21 0.364038793777D-03 0.100000000000D+01
0.770428052108D-06 0.000000000000D+00 0.000000000000D+00 0.155398037357D-05 0.000000000000D+00  6 2 -1 25 24 2 -2 4 0.66404162D-01 0.15985807D-01 0.41426736D+05 0.41426736D+05 0.41426736D+05 0.12004577D+01  1  2 12  7  6  5       21 0.384301305901D-03 0.100000000000D+01
-.124051498229D-05 0.000000000000D+00 0.000000000000D+00 0.154853592651D-05 0.000000000000D+00  6 2 -1 25 24 2 -2 4 0.66404162D-01 0.15985807D-01 0.43465647D+05 0.43465647D+05 0.43465647D+05 0.11983529D+01  1  2  5  7  6  5       21 -.614832253798D-03 0.100000000000D+01
0.729806780447D-06 0.000000000000D+00 0.000000000000D+00 0.155398037357D-05 0.000000000000D+00  6 2 -1 25 24 3 -3 4 0.66404162D-01 0.15985807D-01 0.41426736D+05 0.41426736D+05 0.41426736D+05 0.12004577D+01  1  2 12  8  6  5       21 0.364038793777D-03 0.100000000000D+01
0.729806780447D-06 0.000000000000D+00 0.000000000000D+00 0.155398037357D-05 0.000000000000D+00  6 2 -1 25 24 4 -4 4 0.66404162D-01 0.15985807D-01 0.41426736D+05 0.41426736D+05 0.41426736D+05 0.12004577D+01  1  2 12  8  6  5       21 0.364038793777D-03 0.100000000000D+01
0.770428052108D-06 0.000000000000D+00 0.000000000000D+00 0.155398037357D-05 0.000000000000D+00  6 2 -1 25 24 3 -3 4 0.66404162D-01 0.15985807D-01 0.41426736D+05 0.41426736D+05 0.41426736D+05 0.12004577D+01  1  2 12  8  6  5       21 0.384301305901D-03 0.100000000000D+01
0.770428052108D-06 0.000000000000D+00 0.000000000000D+00 0.155398037357D-05 0.000000000000D+00  6 2 -1 25 24 4 -4 4 0.66404162D-01 0.15985807D-01 0.41426736D+05 0.41426736D+05 0.41426736D+05 0.12004577D+01  1  2 12  8  6  5       21 0.384301305901D-03 0.100000000000D+01
-.124051498229D-05 0.000000000000D+00 0.000000000000D+00 0.154853592651D-05 0.000000000000D+00  6 2 -1 25 24 3 -3 4 0.66404162D-01 0.15985807D-01 0.43465647D+05 0.43465647D+05 0.43465647D+05 0.11983529D+01  1  2  5  8  6  5       21 -.614832253798D-03 0.100000000000D+01
-.124051498229D-05 0.000000000000D+00 0.000000000000D+00 0.154853592651D-05 0.000000000000D+00  6 2 -1 25 24 4 -4 4 0.66404162D-01 0.15985807D-01 0.43465647D+05 0.43465647D+05 0.43465647D+05 0.11983529D+01  1  2  5  8  6  5       21 -.614832253798D-03 0.100000000000D+01
  </mgrwgt>
  </event>
  <event>
  5     66 0.42622971E-03 0.70815647E+02 0.75467711E-02 0.12208800E+00
        2 -1    0    0  502    0 0.00000000E+00 0.00000000E+00 0.72823229E+02 0.72823932E+02 0.32000000E+00 0.0000E+00 0.9000E+01
       -1 -1    0    0    0  501 -.00000000E+00 -.00000000E+00 -.42375259E+03 0.42375272E+03 0.32000000E+00 0.0000E+00 0.9000E+01
       25  1    1    2    0    0 0.61944853E+02 0.64020512E+02 -.22126757E+03 0.26929562E+03 0.12500000E+03 0.0000E+00 0.9000E+01
       24  1    1    2    0    0 -.29336768E+02 0.10820126E+01 -.86435039E+01 0.86045005E+02 0.80419002E+02 0.0000E+00 0.9000E+01
       21  1    1    2  502  501 -.32608085E+02 -.65102525E+02 -.12101829E+03 0.14123602E+03 0.75000000E+00 0.0000E+00 0.9000E+01
#aMCatNLO 1  0  0  5  1 0.41767571D+02 0.00000000D+00  -5  6  0 0.00000000D+00 0.00000000D+00 0.00000000D+00 0.00000000D+00 0.00000000D+00
  <mgrwgt>
 0.6890481115D-01    9    2    0
 0.175667972957002D+03 0.000000000000000D+00 0.000000000000000D+00 0.175667972957002D+03
 0.175667972957002D+03 -.000000000000000D+00 -.000000000000000D+00 -.175667972957002D+03
 0.159610332797565D+03 0.619455254010958D+02 0.640218540881395D+02 -.437539988760872D+02
 0.112982292531304D+03 -.293362922987498D+02 0.108296231128562D+01 0.737291775218818D+02
 0.787433205851346D+02 -.326092331023460D+02 -.651048163994251D+02 -.299751786457946D+02
 0.000000000000000D+00 0.000000000000000D+00 0.000000000000000D+00 0.000000000000000D+00
 0.175667972957002D+03 0.000000000000000D+00 0.000000000000000D+00 0.175667972957002D+03
 0.175667972957002D+03 -.000000000000000D+00 -.000000000000000D+00 -.175667972957002D+03
 0.150863809694457D+03 0.501567366662711D+02 0.404853629433306D+02 -.545905324196645D+02
 0.111788765626925D+03 -.378709113077980D+02 -.159565308248824D+02 0.658839537882513D+02
 0.438900852480855D+02 -.472593337161008D+01 -.289662561735926D+02 0.326337423556833D+02
 0.447932853445362D+02 -.755989198686294D+01 0.443742405514452D+01 -.439271637242701D+02
0.222745883637D-03 0.000000000000D+00 0.000000000000D+00 0.359214582818D-05 0.000000000000D+00  6 2 -1 25 24 21 21 2 0.11203637D-01 0.65192770D-01 0.24323603D+05 0.24323603D+05 0.24323603D+05 0.12245768D+01  1  2  2  3  6  5       21 0.514263829906D-01 0.100000000000D+01
-.104481193106D-04 0.117546232196D-04 -.855402843504D-06 0.359214582818D-05 0.000000000000D+00  6 2 -1 25 24 21 21 4 0.11203637D-01 0.65192770D-01 0.24323603D+05 0.24323603D+05 0.24323603D+05 0.12245768D+01  1  2  3  3  6  5       21 -.361731636491D-02 0.100000000000D+01
0.103644685305D-04 0.000000000000D+00 0.000000000000D+00 0.359214582818D-05 0.000000000000D+00  6 2 -1 25 24 21 21 4 0.11203637D-01 0.65192770D-01 0.24323603D+05 0.24323603D+05 0.24323603D+05 0.12245768D+01  1  2 15  3  6  5       21 0.358835504407D-02 0.100000000000D+01
0.611531843732D-04 0.000000000000D+00 0.000000000000D+00 0.367506261632D-05 0.000000000000D+00  6 2 -1 25 24 21 21 4 0.11203637D-01 0.65192770D-01 0.18099202D+05 0.18099202D+05 0.18099202D+05 0.12386295D+01  1  2 12  3  6  5       21 0.220590641345D-01 0.100000000000D+01
-.227826327063D-04 0.000000000000D+00 0.000000000000D+00 0.359214582818D-05 0.000000000000D+00  6 2 -1 25 24 21 21 4 0.11203637D-01 0.65192770D-01 0.24323603D+05 0.24323603D+05 0.24323603D+05 0.12245768D+01  1  2  4  3  6  5       21 -.788773440219D-02 0.100000000000D+01
0.231209578816D-05 0.000000000000D+00 0.000000000000D+00 0.367506261632D-05 0.000000000000D+00  6 2 -1 25 24 1 -1 4 0.11203637D-01 0.65192770D-01 0.18099202D+05 0.18099202D+05 0.18099202D+05 0.12386295D+01  1  2 12  6  6  5       21 0.834014938044D-03 0.100000000000D+01
0.231209578816D-05 0.000000000000D+00 0.000000000000D+00 0.367506261632D-05 0.000000000000D+00  6 2 -1 25 24 2 -2 4 0.11203637D-01 0.65192770D-01 0.18099202D+05 0.18099202D+05 0.18099202D+05 0.12386295D+01  1  2 12  7  6  5       21 0.834014938044D-03 0.100000000000D+01
0.231209578816D-05 0.000000000000D+00 0.000000000000D+00 0.367506261632D-05 0.000000000000D+00  6 2 -1 25 24 3 -3 4 0.11203637D-01 0.65192770D-01 0.18099202D+05 0.18099202D+05 0.18099202D+05 0.12386295D+01  1  2 12  8  6  5       21 0.834014938044D-03 0.100000000000D+01
0.231209578816D-05 0.000000000000D+00 0.000000000000D+00 0.367506261632D-05 0.000000000000D+00  6 2 -1 25 24 4 -4 4 0.11203637D-01 0.65192770D-01 0.18099202D+05 0.18099202D+05 0.18099202D+05 0.12386295D+01  1  2 12  8  6  5       21 0.834014938044D-03 0.100000000000D+01
  </mgrwgt>
  </event>
  <event>
  5     66 -.42622971E-03 0.12190380E+03 0.75467711E-02 0.11413174E+00
        2 -1    0    0  502    0 0.00000000E+00 0.00000000E+00 0.17944137E+03 0.17944165E+03 0.32000000E+00 0.0000E+00 0.9000E+01
       -1 -1    0    0    0  501 0.00000000E+00 0.00000000E+00 -.33906677E+03 0.33906693E+03 0.32000000E+00 0.0000E+00 0.9000E+01
       25  1    1    2    0    0 -.28605091E+02 0.32069509E+02 -.19378533E+02 0.13359353E+03 0.12500000E+03 0.0000E+00 0.9000E+01
       24  1    1    2    0    0 -.78084860E+02 0.62099196E+02 -.19424740E+03 0.23270759E+03 0.80419002E+02 0.0000E+00 0.9000E+01
       21  1    1    2  502  501 0.10668995E+03 -.94168706E+02 0.54000524E+02 0.15220746E+03 0.75000000E+00 0.0000E+00 0.9000E+01
#aMCatNLO 1  0  0  1  5 0.17490943D+02 0.00000000D+00  -5  6  0 0.00000000D+00 0.00000000D+00 0.00000000D+00 0.00000000D+00 0.00000000D+00
  <mgrwgt>
 -.8908673127D-01    9    4    0
 0.246663169897425D+03 0.000000000000000D+00 0.000000000000000D+00 0.246663169897425D+03
 0.246663169897425D+03 0.000000000000000D+00 0.000000000000000D+00 -.246663169897425D+03
 0.134142685119406D+03 -.286053503390722D+02 0.320697381967419D+02 0.228588231327743D+02
 0.181734288453545D+03 -.780852106042756D+02 0.620995061107159D+02 -.128866158750219D+03
 0.177449366221899D+03 0.106690560943348D+03 -.941692443074578D+02 0.106007335617445D+03
 0.000000000000000D+00 0.000000000000000D+00 -.000000000000000D+00 0.000000000000000D+00
 0.442252506763457D+03 0.000000000000000D+00 0.000000000000000D+00 0.442252506763457D+03
 0.247209507258477D+03 0.000000000000000D+00 0.000000000000000D+00 -.247209507258477D+03
 0.135688803234374D+03 -.306532534044322D+02 0.363909821780749D+02 0.228588231327743D+02
 0.185023738795347D+03 -.808687437376052D+02 0.679729900674026D+02 -.128866158750219D+03
 0.172923772092879D+03 0.104031381955928D+03 -.885581578312257D+02 0.106007335617445D+03
 0.195825699899333D+03 0.749061518610968D+01 -.158058144142518D+02 0.195042999504979D+03
 0.246663169897425D+03 0.000000000000000D+00 0.000000000000000D+00 0.246663169897425D+03
 0.246663169897425D+03 0.000000000000000D+00 0.000000000000000D+00 -.246663169897425D+03
 0.134142685119406D+03 -.286053503390722D+02 0.320697381967419D+02 0.228588231327743D+02
 0.181734288453545D+03 -.780852106042756D+02 0.620995061107159D+02 -.128866158750219D+03
 0.000000000000000D+00 0.000000000000000D+00 -.000000000000000D+00 0.000000000000000D+00
 0.177449366221899D+03 0.106690560943348D+03 -.941692443074578D+02 0.106007335617445D+03
 0.442252506763457D+03 0.000000000000000D+00 0.000000000000000D+00 0.442252506763457D+03
 0.247209507258477D+03 0.000000000000000D+00 0.000000000000000D+00 -.247209507258477D+03
 0.135688803234374D+03 -.306532534044322D+02 0.363909821780749D+02 0.228588231327743D+02
 0.185023738795347D+03 -.808687437376052D+02 0.679729900674026D+02 -.128866158750219D+03
 0.195825699899333D+03 0.749061518610968D+01 -.158058144142518D+02 0.195042999504979D+03
 0.172923772092879D+03 0.104031381955928D+03 -.885581578312257D+02 0.106007335617445D+03
0.201187731446D-04 0.000000000000D+00 0.000000000000D+00 0.115511395072D-05 0.000000000000D+00  6 2 -1 25 24 21 21 2 0.27606398D-01 0.52164153D-01 0.40527657D+05 0.40527657D+05 0.40527657D+05 0.12014227D+01  1  2  2  1  6  1        2 0.241435192646D-02 0.100000000000D+01
-.190674893846D-05 0.106169682732D-05 -.772613862700D-07 0.115511395072D-05 0.000000000000D+00  6 2 -1 25 24 21 21 4 0.27606398D-01 0.52164153D-01 0.40527657D+05 0.40527657D+05 0.40527657D+05 0.12014227D+01  1  2  3  1  6  1        2 -.330281520583D-03 0.100000000000D+01
0.105063956181D-05 0.000000000000D+00 0.000000000000D+00 0.115511395072D-05 0.000000000000D+00  6 2 -1 25 24 21 21 4 0.27606398D-01 0.52164153D-01 0.40527657D+05 0.40527657D+05 0.40527657D+05 0.12014227D+01  1  2 15  1  6  1        2 0.181988737510D-03 0.100000000000D+01
0.189338885212D-02 0.000000000000D+00 0.000000000000D+00 0.114775565782D-05 0.000000000000D+00  6 2 -1 25 24 21 21 4 0.49735228D-01 0.52164153D-01 0.44232073D+05 0.44232073D+05 0.44232073D+05 0.11975900D+01  1  2 12  1  6  1        2 0.171092120075D+00 0.100000000000D+01
-.213047510097D-02 0.000000000000D+00 0.000000000000D+00 0.115511395072D-05 0.000000000000D+00  6 2 -1 25 24 21 21 4 0.27606398D-01 0.52164153D-01 0.40527657D+05 0.40527657D+05 0.40527657D+05 0.12014227D+01  1  2  4  1  6  1        2 -.369034717534D+00 0.100000000000D+01
-.191341102543D-02 0.000000000000D+00 -.136800530253D-04 0.115511395072D-05 0.000000000000D+00  6 2 -1 25 24 21 21 4 0.49536091D-01 0.52164153D-01 0.40527657D+05 0.40527657D+05 0.40527657D+05 0.12014227D+01  1  2  5  1  6  1        2 -.175971131745D+00 0.100000000000D+01
0.163582132723D-02 0.000000000000D+00 0.116343373669D-04 0.115511395072D-05 0.000000000000D+00  6 2 -1 25 24 21 21 4 0.27606398D-01 0.52164153D-01 0.40527657D+05 0.40527657D+05 0.40527657D+05 0.12014227D+01  1  2  6  1  6  1        2 0.283352225593D+00 0.100000000000D+01
0.122216745389D-03 0.000000000000D+00 0.000000000000D+00 0.114775565782D-05 0.000000000000D+00  6 21 -1 25 24 -2 21 4 0.49735228D-01 0.52164153D-01 0.44232073D+05 0.44232073D+05 0.44232073D+05 0.11975900D+01  3  4 12  4  5  1        2 0.338029254174D-01 0.100000000000D+01
-.122054759301D-03 0.000000000000D+00 -.877812980229D-06 0.115511395072D-05 0.000000000000D+00  6 21 -1 25 24 -2 21 4 0.49536091D-01 0.52164153D-01 0.40527657D+05 0.40527657D+05 0.40527657D+05 0.12014227D+01  3  4  5  4  5  1        2 -.345942122145D-01 0.100000000000D+01
  </mgrwgt>
  </event>
  <event>
  5     66 0.42622971E-03 0.62019042E+02 0.75467711E-02 0.11385354E+00
        2 -1    0    0  502    0 0.00000000E+00 0.00000000E+00 0.99503169E+03 0.99503174E+03 0.32000000E+00 0.0000E+00 0.9000E+01
       -1 -1    0    0    0  501 0.00000000E+00 0.00000000E+00 -.46735030E+02 0.46736126E+02 0.32000000E+00 0.0000E+00 0.9000E+01
       25  1    1    2    0    0 0.87884518E+02 -.81934236E+02 0.41481692E+03 0.44959425E+03 0.12500000E+03 0.0000E+00 0.9000E+01
       24  1    1    2    0    0 -.14840602E+03 0.96210163E+02 0.42033632E+03 0.46306650E+03 0.80419002E+02 0.0000E+00 0.9000E+01
       21  1    1    2  502  501 0.60521501E+02 -.14275927E+02 0.11314341E+03 0.12910712E+03 0.75000000E+00 0.0000E+00 0.9000E+01
#aMCatNLO 1  0  0  5  2 0.68467952D+01 0.00000000D+00  -5  6  0 0.00000000D+00 0.00000000D+00 0.00000000D+00 0.00000000D+00 0.00000000D+00
  <mgrwgt>
 0.2269350108D+00   19    2    0
 0.215646548111384D+03 0.000000000000000D+00 0.000000000000000D+00 0.215646548111384D+03
 0.215646548111384D+03 -.000000000000000D+00 -.000000000000000D+00 -.215646548111384D+03
 0.173902364336607D+03 0.878827934440483D+02 -.819338291563954D+02 0.134348270589306D+02
 0.194311011795555D+03 -.148407947083003D+03 0.962106172853941D+02 -.285512080546292D+01
 0.630797200906051D+02 0.605251536389550D+02 -.142767881289987D+02 -.105797062534676D+02
 0.000000000000000D+00 0.000000000000000D+00 0.000000000000000D+00 0.000000000000000D+00
 0.215646548111384D+03 0.000000000000000D+00 0.000000000000000D+00 0.215646548111384D+03
 0.215646548111384D+03 -.000000000000000D+00 -.000000000000000D+00 -.215646548111384D+03
 0.176357134899557D+03 0.918989940487871D+02 -.828811781785796D+02 0.127328012052401D+02
 0.190453565055204D+03 -.143996098925851D+03 0.951699421675298D+02 -.362630525905396D+01
 0.571969712463326D+02 0.525573010932745D+02 -.181100623291943D+02 -.134628846826147D+02
 0.728542502167339D+01 -.460196216210429D+00 0.582129834024409D+01 0.435638873642857D+01
0.279317079908D-03 0.000000000000D+00 0.000000000000D+00 0.445625473605D-05 0.000000000000D+00  6 2 -1 25 24 21 21 2 0.15308189D+00 0.71900929D-02 0.46194657D+05 0.46194657D+05 0.46194657D+05 0.11957015D+01  1  2  2  3  6  5       21 0.121226086107D+00 0.100000000000D+01
0.159216368991D-04 0.147399672645D-04 -.107265113272D-05 0.445625473605D-05 0.000000000000D+00  6 2 -1 25 24 21 21 4 0.15308189D+00 0.71900929D-02 0.46194657D+05 0.46194657D+05 0.46194657D+05 0.11957015D+01  1  2  3  3  6  5       21 0.987942951506D-02 0.100000000000D+01
0.293154214859D-05 0.000000000000D+00 0.000000000000D+00 0.445625473605D-05 0.000000000000D+00  6 2 -1 25 24 21 21 4 0.15308189D+00 0.71900929D-02 0.46194657D+05 0.46194657D+05 0.46194657D+05 0.11957015D+01  1  2 15  3  6  5       21 0.181903181255D-02 0.100000000000D+01
0.117366498399D-03 0.000000000000D+00 0.000000000000D+00 0.445944544347D-05 0.000000000000D+00  6 2 -1 25 24 21 21 4 0.15308189D+00 0.71900929D-02 0.45741521D+05 0.45741521D+05 0.45741521D+05 0.11961295D+01  1  2 12  3  6  5       21 0.729247933940D-01 0.100000000000D+01
0.101783793775D-03 0.000000000000D+00 0.000000000000D+00 0.445944544347D-05 0.000000000000D+00  6 2 -1 25 24 21 21 4 0.15308189D+00 0.71900929D-02 0.45741521D+05 0.45741521D+05 0.45741521D+05 0.11961295D+01  1  2 12  3  6  5       21 0.632425967641D-01 0.100000000000D+01
-.116896032747D-03 0.000000000000D+00 0.000000000000D+00 0.445625473605D-05 0.000000000000D+00  6 2 -1 25 24 21 21 4 0.15308189D+00 0.71900929D-02 0.46194657D+05 0.46194657D+05 0.46194657D+05 0.11957015D+01  1  2  4  3  6  5       21 -.725343834580D-01 0.100000000000D+01
0.270251427016D-04 0.000000000000D+00 0.000000000000D+00 0.445625473605D-05 0.467232698873D-06  6 2 -1 25 24 21 21 4 0.15308189D+00 0.71900929D-02 0.45741521D+05 0.45741521D+05 0.45741521D+05 0.11961295D+01  1  2 11  3  6  5       21 0.167918696974D-01 0.100000000000D+01
0.262357821959D-05 0.000000000000D+00 0.000000000000D+00 0.445944544347D-05 0.000000000000D+00  6 2 -1 25 24 1 -1 4 0.15308189D+00 0.71900929D-02 0.45741521D+05 0.45741521D+05 0.45741521D+05 0.11961295D+01  1  2 12  6  6  5       21 0.163014064683D-02 0.100000000000D+01
0.254203635952D-05 0.000000000000D+00 0.000000000000D+00 0.445944544347D-05 0.000000000000D+00  6 2 -1 25 24 1 -1 4 0.15308189D+00 0.71900929D-02 0.45741521D+05 0.45741521D+05 0.45741521D+05 0.11961295D+01  1  2 12  6  6  5       21 0.157947522373D-02 0.100000000000D+01
0.292104654670D-06 0.000000000000D+00 0.000000000000D+00 0.445944544347D-05 0.535702235271D-08  6 2 -1 25 24 1 -1 4 0.15308189D+00 0.71900929D-02 0.45741521D+05 0.45741521D+05 0.45741521D+05 0.11961295D+01  1  2 11  6  6  5       21 0.181497036052D-03 0.100000000000D+01
0.262357821959D-05 0.000000000000D+00 0.000000000000D+00 0.445944544347D-05 0.000000000000D+00  6 2 -1 25 24 2 -2 4 0.15308189D+00 0.71900929D-02 0.45741521D+05 0.45741521D+05 0.45741521D+05 0.11961295D+01  1  2 12  7  6  5       21 0.163014064683D-02 0.100000000000D+01
0.254203635952D-05 0.000000000000D+00 0.000000000000D+00 0.445944544347D-05 0.000000000000D+00  6 2 -1 25 24 2 -2 4 0.15308189D+00 0.71900929D-02 0.45741521D+05 0.45741521D+05 0.45741521D+05 0.11961295D+01  1  2 12  7  6  5       21 0.157947522373D-02 0.100000000000D+01
0.302989468106D-06 0.000000000000D+00 0.000000000000D+00 0.445944544347D-05 0.500818034221D-08  6 2 -1 25 24 2 -2 4 0.15308189D+00 0.71900929D-02 0.45741521D+05 0.45741521D+05 0.45741521D+05 0.11961295D+01  1  2 11  7  6  5       21 0.188260233231D-03 0.100000000000D+01
0.262357821959D-05 0.000000000000D+00 0.000000000000D+00 0.445944544347D-05 0.000000000000D+00  6 2 -1 25 24 3 -3 4 0.15308189D+00 0.71900929D-02 0.45741521D+05 0.45741521D+05 0.45741521D+05 0.11961295D+01  1  2 12  8  6  5       21 0.163014064683D-02 0.100000000000D+01
0.262357821959D-05 0.000000000000D+00 0.000000000000D+00 0.445944544347D-05 0.000000000000D+00  6 2 -1 25 24 4 -4 4 0.15308189D+00 0.71900929D-02 0.45741521D+05 0.45741521D+05 0.45741521D+05 0.11961295D+01  1  2 12  8  6  5       21 0.163014064683D-02 0.100000000000D+01
0.254203635952D-05 0.000000000000D+00 0.000000000000D+00 0.445944544347D-05 0.000000000000D+00  6 2 -1 25 24 3 -3 4 0.15308189D+00 0.71900929D-02 0.45741521D+05 0.45741521D+05 0.45741521D+05 0.11961295D+01  1  2 12  8  6  5       21 0.157947522373D-02 0.100000000000D+01
0.254203635952D-05 0.000000000000D+00 0.000000000000D+00 0.445944544347D-05 0.000000000000D+00  6 2 -1 25 24 4 -4 4 0.15308189D+00 0.71900929D-02 0.45741521D+05 0.45741521D+05 0.45741521D+05 0.11961295D+01  1  2 12  8  6  5       21 0.157947522373D-02 0.100000000000D+01
0.303670061134D-06 0.000000000000D+00 0.000000000000D+00 0.445944544347D-05 0.498003381925D-08  6 2 -1 25 24 3 -3 4 0.15308189D+00 0.71900929D-02 0.45741521D+05 0.45741521D+05 0.45741521D+05 0.11961295D+01  1  2 11  8  6  5       21 0.188683114604D-03 0.100000000000D+01
0.303670061134D-06 0.000000000000D+00 0.000000000000D+00 0.445944544347D-05 0.498003381925D-08  6 2 -1 25 24 4 -4 4 0.15308189D+00 0.71900929D-02 0.45741521D+05 0.45741521D+05 0.45741521D+05 0.11961295D+01  1  2 11  8  6  5       21 0.188683114604D-03 0.100000000000D+01
  </mgrwgt>
  </event>
  <event>
  5     66 0.42622971E-03 0.61647265E+02 0.75467711E-02 0.12020215E+00
        2 -1    0    0  502    0 0.00000000E+00 0.00000000E+00 0.96782560E+02 0.96783089E+02 0.32000000E+00 0.0000E+00 0.9000E+01
       -1 -1    0    0    0  501 -.00000000E+00 -.00000000E+00 -.24240545E+03 0.24240566E+03 0.32000000E+00 0.0000E+00 0.9000E+01
       25  1    1    2    0    0 -.70043138E+02 0.35792141E+01 -.99311371E+02 0.17437488E+03 0.12500000E+03 0.0000E+00 0.9000E+01
       24  1    1    2    0    0 0.27755728E+02 0.42943815E+02 -.28169210E+02 0.99374404E+02 0.80419002E+02 0.0000E+00 0.9000E+01
       21  1    1    2  502  501 0.42287410E+02 -.46523029E+02 -.18142307E+02 0.65439461E+02 0.75000000E+00 0.0000E+00 0.9000E+01
#aMCatNLO 1  0  0  5  2 0.70120146D+01 0.00000000D+00  -5  6  0 0.00000000D+00 0.00000000D+00 0.00000000D+00 0.00000000D+00 0.00000000D+00
  <mgrwgt>
 0.2152631707D+00   25    2    0
 0.153169009646163D+03 0.000000000000000D+00 0.000000000000000D+00 0.153169009646163D+03
 0.153169009646163D+03 -.000000000000000D+00 -.000000000000000D+00 -.153169009646163D+03
 0.145865756201498D+03 -.700445276279485D+02 0.358074335452782D+01 -.270695633256514D+02
 0.966404451543177D+02 0.277548068702401D+02 0.429448285258738D+02 0.160490524247736D+02
 0.638318179365099D+02 0.422897207577085D+02 -.465255718804016D+02 0.110205109008778D+02
 0.000000000000000D+00 0.000000000000000D+00 0.000000000000000D+00 0.000000000000000D+00
 0.153169009646163D+03 0.000000000000000D+00 0.000000000000000D+00 0.153169009646163D+03
 0.153169009646163D+03 -.000000000000000D+00 -.000000000000000D+00 -.153169009646163D+03
 0.145000645647423D+03 -.684565296402602D+02 0.183368725677241D+01 -.266557381969834D+02
 0.964863976271326D+02 0.288091914115831D+02 0.417848340191970D+02 0.163238202908979D+02
 0.571906011878217D+02 0.398860461720664D+02 -.408619685495534D+02 0.318868487617848D+01
 0.766037482994825D+01 -.238707943389265D+00 -.275655272641609D+01 0.714323302990708D+01
0.127356283682D-03 0.000000000000D+00 0.000000000000D+00 0.606586549551D-05 0.000000000000D+00  6 2 -1 25 24 21 21 2 0.14889682D-01 0.37293203D-01 0.22726129D+05 0.22726129D+05 0.22726129D+05 0.12277629D+01  1  2  2  3  6  5       21 0.584112888199D-01 0.100000000000D+01
-.267450111071D-05 0.672077573279D-05 -.489081663019D-06 0.606586549551D-05 0.000000000000D+00  6 2 -1 25 24 21 21 4 0.14889682D-01 0.37293203D-01 0.22726129D+05 0.22726129D+05 0.22726129D+05 0.12277629D+01  1  2  3  3  6  5       21 -.184904797190D-02 0.100000000000D+01
0.450383753482D-05 0.000000000000D+00 0.000000000000D+00 0.606586549551D-05 0.000000000000D+00  6 2 -1 25 24 21 21 4 0.14889682D-01 0.37293203D-01 0.22726129D+05 0.22726129D+05 0.22726129D+05 0.12277629D+01  1  2 15  3  6  5       21 0.311378134268D-02 0.100000000000D+01
0.134328994058D-03 0.000000000000D+00 0.000000000000D+00 0.607835238162D-05 0.000000000000D+00  6 2 -1 25 24 21 21 4 0.14889682D-01 0.37293203D-01 0.22125600D+05 0.22125600D+05 0.22125600D+05 0.12290259D+01  1  2 12  3  6  5       21 0.931944056914D-01 0.100000000000D+01
0.143203220751D-03 0.000000000000D+00 0.000000000000D+00 0.607835238162D-05 0.000000000000D+00  6 2 -1 25 24 21 21 4 0.14889682D-01 0.37293203D-01 0.22125600D+05 0.22125600D+05 0.22125600D+05 0.12290259D+01  1  2 12  3  6  5       21 0.993511426525D-01 0.100000000000D+01
-.134515296884D-03 0.000000000000D+00 0.000000000000D+00 0.606586549551D-05 0.000000000000D+00  6 2 -1 25 24 21 21 4 0.14889682D-01 0.37293203D-01 0.22726129D+05 0.22726129D+05 0.22726129D+05 0.12277629D+01  1  2  4  3  6  5       21 -.929987412964D-01 0.100000000000D+01
-.458731137478D-03 0.000000000000D+00 0.000000000000D+00 0.606586549551D-05 0.000000000000D+00  6 2 -1 25 24 21 21 4 0.14889682D-01 0.37293203D-01 0.22726129D+05 0.22726129D+05 0.22726129D+05 0.12277629D+01  1  2  5  3  6  5       21 -.317149196911D+00 0.100000000000D+01
0.518410564829D-03 0.000000000000D+00 -.000000000000D+00 0.606586549551D-05 0.000000000000D+00  6 2 -1 25 24 21 21 4 0.14889682D-01 0.37293203D-01 0.22726129D+05 0.22726129D+05 0.22726129D+05 0.12277629D+01  1  2  6  3  6  5       21 0.358409274787D+00 0.100000000000D+01
0.165846961819D-04 0.000000000000D+00 0.000000000000D+00 0.606586549551D-05 0.501986490958D-05  6 2 -1 25 24 21 21 4 0.14889682D-01 0.37293203D-01 0.22125600D+05 0.22125600D+05 0.22125600D+05 0.12290259D+01  1  2 11  3  6  5       21 0.115060856004D-01 0.100000000000D+01
0.206806293638D-05 0.000000000000D+00 0.000000000000D+00 0.607835238162D-05 0.000000000000D+00  6 2 -1 25 24 1 -1 4 0.14889682D-01 0.37293203D-01 0.22125600D+05 0.22125600D+05 0.22125600D+05 0.12290259D+01  1  2 12  6  6  5       21 0.143477510302D-02 0.100000000000D+01
0.211334854972D-05 0.000000000000D+00 0.000000000000D+00 0.607835238162D-05 0.000000000000D+00  6 2 -1 25 24 1 -1 4 0.14889682D-01 0.37293203D-01 0.22125600D+05 0.22125600D+05 0.22125600D+05 0.12290259D+01  1  2 12  6  6  5       21 0.146619323320D-02 0.100000000000D+01
-.318612391996D-05 0.000000000000D+00 0.000000000000D+00 0.606586549551D-05 0.000000000000D+00  6 2 -1 25 24 1 -1 4 0.14889682D-01 0.37293203D-01 0.22726129D+05 0.22726129D+05 0.22726129D+05 0.12277629D+01  1  2  5  6  6  5       21 -.220276445159D-02 0.100000000000D+01
0.176261475749D-06 0.000000000000D+00 0.000000000000D+00 0.606586549551D-05 0.124249197499D-07  6 2 -1 25 24 1 -1 4 0.14889682D-01 0.37293203D-01 0.22125600D+05 0.22125600D+05 0.22125600D+05 0.12290259D+01  1  2 11  6  6  5       21 0.122286209272D-03 0.100000000000D+01
0.206806293638D-05 0.000000000000D+00 0.000000000000D+00 0.607835238162D-05 0.000000000000D+00  6 2 -1 25 24 2 -2 4 0.14889682D-01 0.37293203D-01 0.22125600D+05 0.22125600D+05 0.22125600D+05 0.12290259D+01  1  2 12  7  6  5       21 0.143477510302D-02 0.100000000000D+01
0.211334854972D-05 0.000000000000D+00 0.000000000000D+00 0.607835238162D-05 0.000000000000D+00  6 2 -1 25 24 2 -2 4 0.14889682D-01 0.37293203D-01 0.22125600D+05 0.22125600D+05 0.22125600D+05 0.12290259D+01  1  2 12  7  6  5       21 0.146619323320D-02 0.100000000000D+01
-.318612391996D-05 0.000000000000D+00 0.000000000000D+00 0.606586549551D-05 0.000000000000D+00  6 2 -1 25 24 2 -2 4 0.14889682D-01 0.37293203D-01 0.22726129D+05 0.22726129D+05 0.22726129D+05 0.12277629D+01  1  2  5  7  6  5       21 -.220276445159D-02 0.100000000000D+01
0.172233008519D-06 0.000000000000D+00 0.000000000000D+00 0.606586549551D-05 0.116354945459D-07  6 2 -1 25 24 2 -2 4 0.14889682D-01 0.37293203D-01 0.22125600D+05 0.22125600D+05 0.22125600D+05 0.12290259D+01  1  2 11  7  6  5       21 0.119491350187D-03 0.100000000000D+01
0.206806293638D-05 0.000000000000D+00 0.000000000000D+00 0.607835238162D-05 0.000000000000D+00  6 2 -1 25 24 3 -3 4 0.14889682D-01 0.37293203D-01 0.22125600D+05 0.22125600D+05 0.22125600D+05 0.12290259D+01  1  2 12  8  6  5       21 0.143477510302D-02 0.100000000000D+01
0.206806293638D-05 0.000000000000D+00 0.000000000000D+00 0.607835238162D-05 0.000000000000D+00  6 2 -1 25 24 4 -4 4 0.14889682D-01 0.37293203D-01 0.22125600D+05 0.22125600D+05 0.22125600D+05 0.12290259D+01  1  2 12  8  6  5       21 0.143477510302D-02 0.100000000000D+01
0.211334854972D-05 0.000000000000D+00 0.000000000000D+00 0.607835238162D-05 0.000000000000D+00  6 2 -1 25 24 3 -3 4 0.14889682D-01 0.37293203D-01 0.22125600D+05 0.22125600D+05 0.22125600D+05 0.12290259D+01  1  2 12  8  6  5       21 0.146619323320D-02 0.100000000000D+01
0.211334854972D-05 0.000000000000D+00 0.000000000000D+00 0.607835238162D-05 0.000000000000D+00  6 2 -1 25 24 4 -4 4 0.14889682D-01 0.37293203D-01 0.22125600D+05 0.22125600D+05 0.22125600D+05 0.12290259D+01  1  2 12  8  6  5       21 0.146619323320D-02 0.100000000000D+01
-.318612391996D-05 0.000000000000D+00 0.000000000000D+00 0.606586549551D-05 0.000000000000D+00  6 2 -1 25 24 3 -3 4 0.14889682D-01 0.37293203D-01 0.22726129D+05 0.22726129D+05 0.22726129D+05 0.12277629D+01  1  2  5  8  6  5       21 -.220276445159D-02 0.100000000000D+01
-.318612391996D-05 0.000000000000D+00 0.000000000000D+00 0.606586549551D-05 0.000000000000D+00  6 2 -1 25 24 4 -4 4 0.14889682D-01 0.37293203D-01 0.22726129D+05 0.22726129D+05 0.22726129D+05 0.12277629D+01  1  2  5  8  6  5       21 -.220276445159D-02 0.100000000000D+01
0.172667011422D-06 0.000000000000D+00 0.000000000000D+00 0.606586549551D-05 0.115798966470D-07  6 2 -1 25 24 3 -3 4 0.14889682D-01 0.37293203D-01 0.22125600D+05 0.22125600D+05 0.22125600D+05 0.12290259D+01  1  2 11  8  6  5       21 0.119792451547D-03 0.100000000000D+01
0.172667011422D-06 0.000000000000D+00 0.000000000000D+00 0.606586549551D-05 0.115798966470D-07  6 2 -1 25 24 4 -4 4 0.14889682D-01 0.37293203D-01 0.22125600D+05 0.22125600D+05 0.22125600D+05 0.12290259D+01  1  2 11  8  6  5       21 0.119792451547D-03 0.100000000000D+01
  </mgrwgt>
  </event>
  <event>
  6     66 0.42622971E-03 0.10333926E+03 0.75467711E-02 0.11531252E+00
        2 -1    0    0  502    0 0.00000000E+00 0.00000000E+00 0.82376998E+02 0.82377619E+02 0.32000000E+00 0.0000E+00 0.9000E+01
       -1 -1    0    0    0  501 -.00000000E+00 -.00000000E+00 -.47812560E+03 0.47812571E+03 0.32000000E+00 0.0000E+00 0.9000E+01
       25  1    1    2    0    0 -.25424243E+01 0.29412838E+02 -.13412234E+03 0.18570240E+03 0.12500000E+03 0.0000E+00 0.9000E+01
       24  1    1    2    0    0 -.87472142E+02 -.94993642E+02 -.17548247E+03 0.23224229E+03 0.80419002E+02 0.0000E+00 0.9000E+01
       21  1    1    2  503  501 0.57844859E+02 0.45347591E+02 -.69158890E+02 0.10092545E+03 0.75000000E+00 0.0000E+00 0.9000E+01
       21  1    1    2  502  503 0.32169708E+02 0.20233214E+02 -.16984900E+02 0.41633188E+02 0.75000000E+00 0.0000E+00 0.9000E+01
#aMCatNLO 2  0  0  5  2 0.10728901D+02 0.00000000D+00  -5  6  0 0.00000000D+00 0.00000000D+00 0.00000000D+00 0.00000000D+00 0.00000000D+00
  <mgrwgt>
 0.9133910286D-02    3    2    0
 0.198460968610806D+03 0.000000000000000D+00 0.000000000000000D+00 0.198460968610806D+03
 0.198460968610806D+03 -.000000000000000D+00 -.000000000000000D+00 -.198460968610806D+03
 0.128432564361631D+03 -.310514670188042D+01 0.290028621286434D+02 -.437214373175171D+01
 0.153696191247698D+03 -.881438121809711D+02 -.954829926184728D+02 -.164002970858690D+02
 0.114793181612283D+03 0.912489588828515D+02 0.664801304898294D+02 0.207724408176207D+02
 0.000000000000000D+00 0.000000000000000D+00 0.000000000000000D+00 0.000000000000000D+00
 0.198460968610806D+03 0.000000000000000D+00 0.000000000000000D+00 0.198460968610806D+03
 0.198460968610806D+03 -.000000000000000D+00 -.000000000000000D+00 -.198460968610806D+03
 0.128508875445790D+03 -.254409234040744D+01 0.294116225969190D+02 -.424442207156128D+01
 0.152993459152227D+03 -.874741282012111D+02 -.949950892066810D+02 -.162478463510180D+02
 0.731220758555324D+02 0.574879357984984D+02 0.450981941066953D+02 0.285098287697429D+01
 0.422975267680623D+02 0.325302847431202D+02 0.204852725030667D+02 0.176412855456050D+02
-.981643038220D-04 0.000000000000D+00 0.000000000000D+00 0.183428295114D-05 0.000000000000D+00  6 2 -1 25 24 21 21 4 0.12673440D-01 0.73557841D-01 0.38430998D+05 0.38430998D+05 0.38430998D+05 0.12037690D+01  1  2 13  3  6  5       21 -.216365578803D-01 0.100000000000D+01
-.986778032431D-04 0.000000000000D+00 0.000000000000D+00 0.183428295114D-05 0.000000000000D+00  6 2 -1 25 24 21 21 4 0.12673440D-01 0.73557841D-01 0.38430998D+05 0.38430998D+05 0.38430998D+05 0.12037690D+01  1  2 13  3  6  5       21 -.217497391439D-01 0.100000000000D+01
0.238282337500D-03 0.000000000000D+00 0.000000000000D+00 0.183291115393D-05 0.101263141118D-06  6 2 -1 25 24 21 21 4 0.12673440D-01 0.73557841D-01 0.38430998D+05 0.38430998D+05 0.38430998D+05 0.12037690D+01  1  2  1  3  6  5       21 0.525202073101D-01 0.100000000000D+01
  </mgrwgt>
  </event>
  <event>
  5     66 0.42622971E-03 0.53866585E+02 0.75467711E-02 0.12137388E+00
        2 -1    0    0  502    0 0.00000000E+00 0.00000000E+00 0.13808499E+04 0.13808499E+04 0.32000000E+00 0.0000E+00 0.9000E+01
       -1 -1    0    0    0  501 0.00000000E+00 0.00000000E+00 -.36434017E+02 0.36435423E+02 0.32000000E+00 0.0000E+00 0.9000E+01
       25  1    1    2    0    0 0.53752366E+01 -.61284105E+02 0.72455342E+03 0.73782606E+03 0.12500000E+03 0.0000E+00 0.9000E+01
       24  1    1    2    0    0 -.36147819E+01 0.33297845E+01 0.61610608E+03 0.62135181E+03 0.80419002E+02 0.0000E+00 0.9000E+01
       21  1    1    2  502  501 -.17604547E+01 0.57954320E+02 0.37563353E+01 0.58107444E+02 0.75000000E+00 0.0000E+00 0.9000E+01
#aMCatNLO 1  0  0  5  2 0.11913852D+01 0.00000000D+00  -5  6  0 0.00000000D+00 0.00000000D+00 0.00000000D+00 0.00000000D+00 0.00000000D+00
  <mgrwgt>
 0.8731071921D-02   19    2    0
 0.224300980250992D+03 0.000000000000000D+00 0.000000000000000D+00 0.224300980250992D+03
 0.224300980250992D+03 -.000000000000000D+00 -.000000000000000D+00 -.224300980250992D+03
 0.159627252626218D+03 0.537524257078015D+01 -.612843000417064D+02 0.779179126818580D+02
 0.116651634628735D+03 -.361477758816047D+01 0.332964172137151D+01 0.843577783976135D+02
 0.172323073247032D+03 -.176046498261967D+01 0.579546583203349D+02 -.162275691079471D+03
 0.000000000000000D+00 0.000000000000000D+00 0.000000000000000D+00 -.000000000000000D+00
 0.224300980250992D+03 0.000000000000000D+00 0.000000000000000D+00 0.224300980250992D+03
 0.224300980250992D+03 -.000000000000000D+00 -.000000000000000D+00 -.224300980250992D+03
 0.159472236153778D+03 0.537255195720892D+01 -.611957248120189D+02 0.776698979919842D+02
 0.116522571586288D+03 -.361674368872084D+01 0.339436592055985D+01 0.841765476828226D+02
 0.171274691361868D+03 -.246365202045620D+01 0.584964123087547D+02 -.160956888845521D+03
 0.133246140005036D+01 0.707843751968114D+00 -.695053417295646D+00 -.889556829286079D+00
0.192705061378D-04 0.000000000000D+00 0.000000000000D+00 0.161514332770D-04 0.000000000000D+00  6 2 -1 25 24 21 21 2 0.21243855D+00 0.56053444D-02 0.19302792D+05 0.19302792D+05 0.19302792D+05 0.12355262D+01  1  2  2  3  6  5       21 0.781736995184D-02 0.100000000000D+01
0.242225101287D-06 0.101693254754D-05 -.740038176100D-07 0.161514332770D-04 0.000000000000D+00  6 2 -1 25 24 21 21 4 0.21243855D+00 0.56053444D-02 0.19302792D+05 0.19302792D+05 0.19302792D+05 0.12355262D+01  1  2  3  3  6  5       21 0.149999763741D-03 0.100000000000D+01
0.753900565756D-06 0.000000000000D+00 0.000000000000D+00 0.161514332770D-04 0.000000000000D+00  6 2 -1 25 24 21 21 4 0.21243855D+00 0.56053444D-02 0.19302792D+05 0.19302792D+05 0.19302792D+05 0.12355262D+01  1  2 15  3  6  5       21 0.466858744807D-03 0.100000000000D+01
-.331810185945D-03 0.000000000000D+00 0.000000000000D+00 0.161514332770D-04 0.000000000000D+00  6 2 -1 25 24 21 21 4 0.21243855D+00 0.56053444D-02 0.19302792D+05 0.19302792D+05 0.19302792D+05 0.12355262D+01  1  2  4  3  6  5       21 -.205476018935D+00 0.100000000000D+01
-.150888776535D-02 0.000000000000D+00 0.000000000000D+00 0.161514332770D-04 0.000000000000D+00  6 2 -1 25 24 21 21 4 0.21243855D+00 0.56053444D-02 0.19302792D+05 0.19302792D+05 0.19302792D+05 0.12355262D+01  1  2  5  3  6  5       21 -.934390396007D+00 0.100000000000D+01
0.152044893169D-02 0.000000000000D+00 -.000000000000D+00 0.161514332770D-04 0.000000000000D+00  6 2 -1 25 24 21 21 4 0.21243855D+00 0.56053444D-02 0.19302792D+05 0.19302792D+05 0.19302792D+05 0.12355262D+01  1  2  6  3  6  5       21 0.941549737506D+00 0.100000000000D+01
0.321593351532D-03 0.000000000000D+00 0.000000000000D+00 0.161514332770D-04 0.410665448217D-04  6 2 -1 25 24 21 21 4 0.21243855D+00 0.56053444D-02 0.19514922D+05 0.19514922D+05 0.19514922D+05 0.12350017D+01  1  2 11  3  6  5       21 0.198821773294D+00 0.100000000000D+01
0.184010931038D-10 0.000000000000D+00 0.000000000000D+00 0.161377243089D-04 0.000000000000D+00  6 2 -1 25 24 1 -1 4 0.21243855D+00 0.56053444D-02 0.19514922D+05 0.19514922D+05 0.19514922D+05 0.12350017D+01  1  2 12  6  6  5       21 0.113762860582D-07 0.100000000000D+01
-.962410580590D-06 0.000000000000D+00 0.000000000000D+00 0.161514332770D-04 0.000000000000D+00  6 2 -1 25 24 1 -1 4 0.21243855D+00 0.56053444D-02 0.19302792D+05 0.19302792D+05 0.19302792D+05 0.12355262D+01  1  2  5  6  6  5       21 -.595980181010D-03 0.100000000000D+01
0.646932418004D-06 0.000000000000D+00 0.000000000000D+00 0.161514332770D-04 0.156164080404D-06  6 2 -1 25 24 1 -1 4 0.21243855D+00 0.56053444D-02 0.19514922D+05 0.19514922D+05 0.19514922D+05 0.12350017D+01  1  2 11  6  6  5       21 0.399959296224D-03 0.100000000000D+01
0.184010931038D-10 0.000000000000D+00 0.000000000000D+00 0.161377243089D-04 0.000000000000D+00  6 2 -1 25 24 2 -2 4 0.21243855D+00 0.56053444D-02 0.19514922D+05 0.19514922D+05 0.19514922D+05 0.12350017D+01  1  2 12  7  6  5       21 0.113762860582D-07 0.100000000000D+01
-.962410580590D-06 0.000000000000D+00 0.000000000000D+00 0.161514332770D-04 0.000000000000D+00  6 2 -1 25 24 2 -2 4 0.21243855D+00 0.56053444D-02 0.19302792D+05 0.19302792D+05 0.19302792D+05 0.12355262D+01  1  2  5  7  6  5       21 -.595980181010D-03 0.100000000000D+01
0.957378867012D-06 0.000000000000D+00 0.000000000000D+00 0.161514332770D-04 0.942225010153D-07  6 2 -1 25 24 2 -2 4 0.21243855D+00 0.56053444D-02 0.19514922D+05 0.19514922D+05 0.19514922D+05 0.12350017D+01  1  2 11  7  6  5       21 0.591889611979D-03 0.100000000000D+01
0.184010931038D-10 0.000000000000D+00 0.000000000000D+00 0.161377243089D-04 0.000000000000D+00  6 2 -1 25 24 3 -3 4 0.21243855D+00 0.56053444D-02 0.19514922D+05 0.19514922D+05 0.19514922D+05 0.12350017D+01  1  2 12  8  6  5       21 0.113762860582D-07 0.100000000000D+01
0.184010931038D-10 0.000000000000D+00 0.000000000000D+00 0.161377243089D-04 0.000000000000D+00  6 2 -1 25 24 4 -4 4 0.21243855D+00 0.56053444D-02 0.19514922D+05 0.19514922D+05 0.19514922D+05 0.12350017D+01  1  2 12  8  6  5       21 0.113762860582D-07 0.100000000000D+01
-.962410580590D-06 0.000000000000D+00 0.000000000000D+00 0.161514332770D-04 0.000000000000D+00  6 2 -1 25 24 3 -3 4 0.21243855D+00 0.56053444D-02 0.19302792D+05 0.19302792D+05 0.19302792D+05 0.12355262D+01  1  2  5  8  6  5       21 -.595980181010D-03 0.100000000000D+01
-.962410580590D-06 0.000000000000D+00 0.000000000000D+00 0.161514332770D-04 0.000000000000D+00  6 2 -1 25 24 4 -4 4 0.21243855D+00 0.56053444D-02 0.19302792D+05 0.19302792D+05 0.19302792D+05 0.12355262D+01  1  2  5  8  6  5       21 -.595980181010D-03 0.100000000000D+01
0.957374571977D-06 0.000000000000D+00 0.000000000000D+00 0.161514332770D-04 0.942154153768D-07  6 2 -1 25 24 3 -3 4 0.21243855D+00 0.56053444D-02 0.19514922D+05 0.19514922D+05 0.19514922D+05 0.12350017D+01  1  2 11  8  6  5       21 0.591886956618D-03 0.100000000000D+01
0.957374571977D-06 0.000000000000D+00 0.000000000000D+00 0.161514332770D-04 0.942154153768D-07  6 2 -1 25 24 4 -4 4 0.21243855D+00 0.56053444D-02 0.19514922D+05 0.19514922D+05 0.19514922D+05 0.12350017D+01  1  2 11  8  6  5       21 0.591886956618D-03 0.100000000000D+01
  </mgrwgt>
  </event>
  <event>
  5     66 0.42622971E-03 0.24849293E+02 0.75467711E-02 0.11516379E+00
        2 -1    0    0  502    0 0.00000000E+00 0.00000000E+00 0.67082091E+03 0.67082099E+03 0.32000000E+00 0.0000E+00 0.9000E+01
       -1 -1    0    0    0  501 0.00000000E+00 0.00000000E+00 -.11361378E+03 0.11361424E+03 0.32000000E+00 0.0000E+00 0.9000E+01
       25  1    1    2    0    0 -.26114472E+02 0.14936074E+03 0.75098942E+02 0.21036979E+03 0.12500000E+03 0.0000E+00 0.9000E+01
       24  1    1    2    0    0 0.18569122E+01 -.15475025E+03 0.12139642E+03 0.21249799E+03 0.80419002E+02 0.0000E+00 0.9000E+01
       21  1    1    2  502  501 0.24257560E+02 0.53895111E+01 0.36071177E+03 0.36156744E+03 0.75000000E+00 0.0000E+00 0.9000E+01
#aMCatNLO 1  0  0  5  1 0.13662246D+01 0.00000000D+00  -5  6  0 0.00000000D+00 0.00000000D+00 0.00000000D+00 0.00000000D+00 0.00000000D+00
  <mgrwgt>
 0.5510907464D+00    9    2    0
 0.276070116617099D+03 0.000000000000000D+00 0.000000000000000D+00 0.276070116617099D+03
 0.276070116617099D+03 -.000000000000000D+00 -.000000000000000D+00 -.276070116617099D+03
 0.223088253759372D+03 -.261145951085085D+02 0.149360715795907D+03 -.105606692328938D+03
 0.179389293104070D+03 0.185681323606510D+01 -.154750276176775D+03 -.419786468794037D+02
 0.149662686370756D+03 0.242577818724434D+02 0.538956038086792D+01 0.147585339208341D+03
 0.000000000000000D+00 0.000000000000000D+00 0.000000000000000D+00 -.000000000000000D+00
 0.276070116617099D+03 0.000000000000000D+00 0.000000000000000D+00 0.276070116617099D+03
 0.276070116617099D+03 -.000000000000000D+00 -.000000000000000D+00 -.276070116617099D+03
 0.222542063157366D+03 -.259219651958538D+02 0.149403514043120D+03 -.104434724044685D+03
 0.179142923812931D+03 0.201179378161345D+01 -.154715842813804D+03 -.410357388878272D+02
 0.148671356397404D+03 0.230117586041958D+02 0.454883788004805D+01 0.146809193352893D+03
 0.178388986649634D+01 0.898412810044505D+00 0.763490890635635D+00 -.133873042038069D+01
0.198645107894D-02 0.000000000000D+00 0.000000000000D+00 0.357203112155D-04 0.000000000000D+00  6 2 -1 25 24 21 21 2 0.10320326D+00 0.17479084D-01 0.39157735D+05 0.39157735D+05 0.39157735D+05 0.12029400D+01  1  2  2  3  6  5       21 0.363220271228D+00 0.100000000000D+01
0.524015475410D-03 0.104827903420D-03 -.762849518770D-05 0.357203112155D-04 0.000000000000D+00  6 2 -1 25 24 21 21 4 0.10320326D+00 0.17479084D-01 0.39157735D+05 0.39157735D+05 0.39157735D+05 0.12029400D+01  1  2  3  3  6  5       21 0.138651387406D+00 0.100000000000D+01
0.614309461777D-04 0.000000000000D+00 0.000000000000D+00 0.357203112155D-04 0.000000000000D+00  6 2 -1 25 24 21 21 4 0.10320326D+00 0.17479084D-01 0.39157735D+05 0.39157735D+05 0.39157735D+05 0.12029400D+01  1  2 15  3  6  5       21 0.162542640759D-01 0.100000000000D+01
-.149579564515D-01 0.000000000000D+00 0.000000000000D+00 0.357203112155D-04 0.000000000000D+00  6 2 -1 25 24 21 21 4 0.10320326D+00 0.17479084D-01 0.39157735D+05 0.39157735D+05 0.39157735D+05 0.12029400D+01  1  2  4  3  6  5       21 -.395778657707D+01 0.100000000000D+01
0.150415238481D-01 0.000000000000D+00 0.000000000000D+00 0.357203112155D-04 0.114646190924D-03  6 2 -1 25 24 21 21 4 0.10320326D+00 0.17479084D-01 0.39111238D+05 0.39111238D+05 0.39111238D+05 0.12029925D+01  1  2 11  3  6  5       21 0.398058366317D+01 0.100000000000D+01
0.140197192333D-05 0.000000000000D+00 0.000000000000D+00 0.357234309218D-04 0.186058689763D-07  6 2 -1 25 24 1 -1 4 0.10320326D+00 0.17479084D-01 0.39111238D+05 0.39111238D+05 0.39111238D+05 0.12029925D+01  1  2 11  6  6  5       21 0.371017364371D-03 0.100000000000D+01
0.141468781343D-04 0.000000000000D+00 0.000000000000D+00 0.357234309218D-04 0.434232076628D-07  6 2 -1 25 24 2 -2 4 0.10320326D+00 0.17479084D-01 0.39111238D+05 0.39111238D+05 0.39111238D+05 0.12029925D+01  1  2 11  7  6  5       21 0.374382493124D-02 0.100000000000D+01
0.114361079151D-04 0.000000000000D+00 0.000000000000D+00 0.357234309218D-04 0.196614119430D-07  6 2 -1 25 24 3 -3 4 0.10320326D+00 0.17479084D-01 0.39111238D+05 0.39111238D+05 0.39111238D+05 0.12029925D+01  1  2 11  8  6  5       21 0.302644763900D-02 0.100000000000D+01
0.114361079151D-04 0.000000000000D+00 0.000000000000D+00 0.357234309218D-04 0.196614119430D-07  6 2 -1 25 24 4 -4 4 0.10320326D+00 0.17479084D-01 0.39111238D+05 0.39111238D+05 0.39111238D+05 0.12029925D+01  1  2 11  8  6  5       21 0.302644763900D-02 0.100000000000D+01
  </mgrwgt>
  </event>
  <event>
  5     66 0.42622971E-03 0.27870016E+02 0.75467711E-02 0.98810645E-01
        2 -1    0    0  502    0 0.00000000E+00 0.00000000E+00 0.28360035E+03 0.28360053E+03 0.32000000E+00 0.0000E+00 0.9000E+01
       -1 -1    0    0    0  501 0.00000000E+00 0.00000000E+00 -.10700830E+04 0.10700831E+04 0.32000000E+00 0.0000E+00 0.9000E+01
       25  1    1    2    0    0 0.20857582E+03 0.56755594E+02 -.90432553E+03 0.93816562E+03 0.12500000E+03 0.0000E+00 0.9000E+01
       24  1    1    2    0    0 -.18070721E+03 -.57031982E+02 -.76184922E+02 0.21949739E+03 0.80419002E+02 0.0000E+00 0.9000E+01
       21  1    1    2  502  501 -.27868610E+02 0.27638850E+00 0.19402777E+03 0.19602060E+03 0.75000000E+00 0.0000E+00 0.9000E+01
#aMCatNLO 1  0  0  2  1 0.43469861D+02 0.00000000D+00  -5  6  0 0.00000000D+00 0.00000000D+00 0.00000000D+00 0.00000000D+00 0.00000000D+00
  <mgrwgt>
 0.1833312318D+01    5    4    0
 0.550886624853703D+03 0.000000000000000D+00 0.000000000000000D+00 0.550886624853703D+03
 0.550886624853703D+03 0.000000000000000D+00 0.000000000000000D+00 -.550886624853703D+03
 0.507131020189028D+03 0.208575848073392D+03 0.567555936549724D+02 -.441397541709627D+03
 0.215300048220846D+03 -.180707202614436D+03 -.570319825107435D+02 0.630805414029363D+02
 0.379342181297531D+03 -.278686454589564D+02 0.276388855771115D+00 0.378317000306690D+03
 0.000000000000000D+00 0.000000000000000D+00 0.000000000000000D+00 -.000000000000000D+00
 0.741778573980705D+03 0.000000000000000D+00 0.000000000000000D+00 0.741778573980705D+03
 0.121308385919797D+04 0.000000000000000D+00 0.000000000000000D+00 -.121308385919797D+04
 0.459345132781083D+03 -.462163990188407D+01 -.227991584710235D+02 -.441397541709627D+03
 0.334916697725191D+03 -.302080945481378D+03 -.102322656993286D+03 0.630805414029363D+02
 0.436838290110348D+03 -.207912018183558D+03 -.669068881380693D+02 0.378317000306690D+03
 0.723762312562057D+03 0.514614603566820D+03 0.192028703602379D+03 -.471305285217270D+03
 0.550886624853703D+03 0.000000000000000D+00 0.000000000000000D+00 0.550886624853703D+03
 0.550886624853703D+03 0.000000000000000D+00 0.000000000000000D+00 -.550886624853703D+03
 0.507131020189028D+03 0.208575848073392D+03 0.567555936549724D+02 -.441397541709627D+03
 0.215300048220846D+03 -.180707202614436D+03 -.570319825107435D+02 0.630805414029363D+02
 0.000000000000000D+00 0.000000000000000D+00 0.000000000000000D+00 -.000000000000000D+00
 0.379342181297531D+03 -.278686454589564D+02 0.276388855771115D+00 0.378317000306690D+03
 0.741778573980705D+03 0.000000000000000D+00 0.000000000000000D+00 0.741778573980705D+03
 0.121308385919797D+04 0.000000000000000D+00 0.000000000000000D+00 -.121308385919797D+04
 0.459345132781083D+03 -.462163990188407D+01 -.227991584710235D+02 -.441397541709627D+03
 0.334916697725191D+03 -.302080945481378D+03 -.102322656993286D+03 0.630805414029363D+02
 0.723762312562057D+03 0.514614603566820D+03 0.192028703602379D+03 -.471305285217270D+03
 0.436838290110348D+03 -.207912018183558D+03 -.669068881380693D+02 0.378317000306690D+03
0.209283200033D+00 0.000000000000D+00 0.000000000000D+00 0.179535010815D-04 0.000000000000D+00  6 2 -1 25 24 21 21 2 0.43630840D-01 0.16462818D+00 0.58424155D+05 0.58424155D+05 0.58424155D+05 0.11856422D+01  1  2  2  2  6  2       -1 0.116562322008D+01 0.100000000000D+01
0.778629159309D-01 0.110441778874D-01 -.803702593660D-03 0.179535010815D-04 0.000000000000D+00  6 2 -1 25 24 21 21 4 0.43630840D-01 0.16462818D+00 0.58424155D+05 0.58424155D+05 0.58424155D+05 0.11856422D+01  1  2  3  2  6  2       -1 0.609623630942D+00 0.100000000000D+01
0.286155543771D-02 0.000000000000D+00 0.000000000000D+00 0.179535010815D-04 0.000000000000D+00  6 2 -1 25 24 21 21 4 0.43630840D-01 0.16462818D+00 0.58424155D+05 0.58424155D+05 0.58424155D+05 0.11856422D+01  1  2 15  2  6  2       -1 0.224043987465D-01 0.100000000000D+01
0.530061901208D-01 0.000000000000D+00 -.959200473879D-01 0.179535010815D-04 0.000000000000D+00  6 2 -1 25 24 21 21 4 0.43630840D-01 0.40501208D+00 0.58424155D+05 0.58424155D+05 0.58424155D+05 0.11856422D+01  1  2  5  2  6  2       -1 0.115709006772D-01 0.100000000000D+01
0.112135030778D-01 0.000000000000D+00 -.948141711692D-02 0.179535010815D-04 0.000000000000D+00  6 2 21 25 24 1 21 4 0.43630840D-01 0.40501208D+00 0.58424155D+05 0.58424155D+05 0.58424155D+05 0.11856422D+01  3  4  5  5  5  2       -1 0.240901674262D-01 0.100000000000D+01
  </mgrwgt>
  </event>
  <event>
  5     66 -.42622971E-03 0.26069022E+02 0.75467711E-02 0.12188209E+00
        2 -1    0    0  502    0 0.00000000E+00 0.00000000E+00 0.27005609E+03 0.27005628E+03 0.32000000E+00 0.0000E+00 0.9000E+01
       -1 -1    0    0    0  501 0.00000000E+00 0.00000000E+00 -.15823939E+03 0.15823972E+03 0.32000000E+00 0.0000E+00 0.9000E+01
       25  1    1    2    0    0 0.71455472E+01 -.10524007E+02 -.99264390E+02 0.16012568E+03 0.12500000E+03 0.0000E+00 0.9000E+01
       24  1    1    2    0    0 0.17261487E+02 0.13655620E+01 0.33724576E+02 0.88906618E+02 0.80419002E+02 0.0000E+00 0.9000E+01
       21  1    1    2  502  501 -.24407035E+02 0.91584447E+01 0.17735651E+03 0.17926370E+03 0.75000000E+00 0.0000E+00 0.9000E+01
#aMCatNLO 1  0  0  2  5 0.17954521D+02 0.00000000D+00  -5  6  0 0.00000000D+00 0.00000000D+00 0.00000000D+00 0.00000000D+00 0.00000000D+00
  <mgrwgt>
 -.6273413352D+00    7    4    0
 0.206721119633131D+03 0.000000000000000D+00 0.000000000000000D+00 0.206721119633131D+03
 0.206721119633131D+03 0.000000000000000D+00 0.000000000000000D+00 -.206721119633131D+03
 0.192725588734364D+03 0.714571587876827D+01 -.105240699768939D+02 -.146138069128850D+03
 0.829798181795246D+02 0.172615600015410D+02 0.136553477736479D+01 0.108907360550805D+02
 0.137736832352373D+03 -.244072758803093D+02 0.915853519952908D+01 0.135247333073769D+03
 0.000000000000000D+00 0.000000000000000D+00 0.000000000000000D+00 -.000000000000000D+00
 0.210949628909459D+03 0.000000000000000D+00 0.000000000000000D+00 0.210949628909459D+03
 0.268249932116906D+03 0.000000000000000D+00 0.000000000000000D+00 -.268249932116906D+03
 0.192904146912247D+03 -.644087272812758D+01 -.137546285203660D+02 -.146138069128850D+03
 0.819569258561554D+02 0.114504736660536D+02 -.161994571166326D-01 0.108907360550805D+02
 0.139667040423920D+03 -.341808279406852D+02 0.683462350820931D+01 0.135247333073769D+03
 0.646714478340435D+02 0.291712270027593D+02 0.693620446927333D+01 -.573003032074467D+02
 0.206721119633131D+03 0.000000000000000D+00 0.000000000000000D+00 0.206721119633131D+03
 0.206721119633131D+03 0.000000000000000D+00 0.000000000000000D+00 -.206721119633131D+03
 0.192725588734364D+03 0.714571587876827D+01 -.105240699768939D+02 -.146138069128850D+03
 0.829798181795246D+02 0.172615600015410D+02 0.136553477736479D+01 0.108907360550805D+02
 0.000000000000000D+00 0.000000000000000D+00 0.000000000000000D+00 -.000000000000000D+00
 0.137736832352373D+03 -.244072758803093D+02 0.915853519952908D+01 0.135247333073769D+03
 0.210949628909459D+03 0.000000000000000D+00 0.000000000000000D+00 0.210949628909459D+03
 0.268249932116906D+03 0.000000000000000D+00 0.000000000000000D+00 -.268249932116906D+03
 0.192904146912247D+03 -.644087272812758D+01 -.137546285203660D+02 -.146138069128850D+03
 0.819569258561554D+02 0.114504736660536D+02 -.161994571166326D-01 0.108907360550805D+02
 0.646714478340435D+02 0.291712270027593D+02 0.693620446927333D+01 -.573003032074467D+02
 0.139667040423920D+03 -.341808279406852D+02 0.683462350820931D+01 0.135247333073769D+03
0.283900805399D-03 0.000000000000D+00 0.000000000000D+00 0.451017123769D-04 0.000000000000D+00  6 2 -1 25 24 21 21 2 0.41547130D-01 0.24344562D-01 0.13686269D+05 0.13686269D+05 0.13686269D+05 0.12523862D+01  1  2  2  2  6  2       -1 0.882025866868D-01 0.100000000000D+01
0.387368939000D-04 0.149818571042D-04 -.109025384553D-05 0.451017123769D-04 0.000000000000D+00  6 2 -1 25 24 21 21 4 0.41547130D-01 0.24344562D-01 0.13686269D+05 0.13686269D+05 0.13686269D+05 0.12523862D+01  1  2  3  2  6  2       -1 0.188762631187D-01 0.100000000000D+01
0.102650131651D-04 0.000000000000D+00 0.000000000000D+00 0.451017123769D-04 0.000000000000D+00  6 2 -1 25 24 21 21 4 0.41547130D-01 0.24344562D-01 0.13686269D+05 0.13686269D+05 0.13686269D+05 0.12523862D+01  1  2 15  2  6  2       -1 0.500208121803D-02 0.100000000000D+01
-.177640100780D-02 0.000000000000D+00 0.000000000000D+00 0.451017123769D-04 0.000000000000D+00  6 2 -1 25 24 21 21 4 0.41547130D-01 0.24344562D-01 0.13686269D+05 0.13686269D+05 0.13686269D+05 0.12523862D+01  1  2  4  2  6  2       -1 -.865629880240D+00 0.100000000000D+01
-.209436633688D-02 0.000000000000D+00 -.271563162376D-03 0.451017123769D-04 0.000000000000D+00  6 2 -1 25 24 21 21 4 0.41547130D-01 0.32055872D-01 0.13686269D+05 0.13686269D+05 0.13686269D+05 0.12523862D+01  1  2  5  2  6  2       -1 -.646572687701D+00 0.100000000000D+01
0.209908585657D-02 0.000000000000D+00 0.261596521397D-03 0.451017123769D-04 0.000000000000D+00  6 2 -1 25 24 21 21 4 0.41547130D-01 0.24344562D-01 0.13686269D+05 0.13686269D+05 0.13686269D+05 0.12523862D+01  1  2  6  2  6  2       -1 0.102287233044D+01 0.100000000000D+01
-.707273008564D-04 0.000000000000D+00 -.985991402354D-05 0.451017123769D-04 0.000000000000D+00  6 2 21 25 24 1 21 4 0.41547130D-01 0.32055872D-01 0.13686269D+05 0.13686269D+05 0.13686269D+05 0.12523862D+01  3  4  5  5  5  2       -1 -.250092028686D+00 0.100000000000D+01
  </mgrwgt>
  </event>
  <event>
  5     66 0.42622971E-03 0.33116461E+02 0.75467711E-02 0.12389177E+00
        2 -1    0    0  502    0 0.00000000E+00 0.00000000E+00 0.62473001E+03 0.62473009E+03 0.32000000E+00 0.0000E+00 0.9000E+01
       -1 -1    0    0    0  501 0.00000000E+00 0.00000000E+00 -.86794574E+02 0.86795164E+02 0.32000000E+00 0.0000E+00 0.9000E+01
       25  1    1    2    0    0 0.90158349E+01 -.29626474E+02 0.10110930E+02 0.12917525E+03 0.12500000E+03 0.0000E+00 0.9000E+01
       24  1    1    2    0    0 0.16302049E+02 0.82794881E+01 0.36969304E+02 0.90378383E+02 0.80419002E+02 0.0000E+00 0.9000E+01
       21  1    1    2  502  501 -.25317884E+02 0.21346986E+02 0.49085520E+03 0.49197163E+03 0.75000000E+00 0.0000E+00 0.9000E+01
#aMCatNLO 1  0  0  5  1 0.25033149D+01 0.00000000D+00  -5  6  0 0.00000000D+00 0.00000000D+00 0.00000000D+00 0.00000000D+00 0.00000000D+00
  <mgrwgt>
 0.2342286700D+00    9    2    0
 0.232859215132200D+03 0.000000000000000D+00 0.000000000000000D+00 0.232859215132200D+03
 0.232859215132200D+03 -.000000000000000D+00 -.000000000000000D+00 -.232859215132200D+03
 0.185675774244212D+03 0.901591817490521D+01 -.296265441258655D+02 -.133759015560856D+03
 0.953783968585112D+02 0.163020919391131D+02 0.827945203648368D+01 -.479115341573759D+02
 0.184664259161676D+03 -.253180101140183D+02 0.213470920893818D+02 0.181670549718232D+03
 0.000000000000000D+00 0.000000000000000D+00 0.000000000000000D+00 -.000000000000000D+00
 0.232859215132200D+03 0.000000000000000D+00 0.000000000000000D+00 0.232859215132200D+03
 0.232859215132200D+03 -.000000000000000D+00 -.000000000000000D+00 -.232859215132200D+03
 0.183898098819779D+03 0.868239688152604D+01 -.293453328564382D+02 -.131365818131908D+03
 0.947493026392377D+02 0.161305115302547D+02 0.842412149400181D+01 -.466803510170816D+02
 0.183518257995552D+03 -.228017884964391D+02 0.220237601527132D+02 0.180759462955115D+03
 0.355277080983016D+01 -.201111991534159D+01 -.110254879027682D+01 -.271329380612509D+01
0.651516780101D-03 0.000000000000D+00 0.000000000000D+00 0.576800324996D-04 0.000000000000D+00  6 2 -1 25 24 21 21 2 0.96112361D-01 0.13353063D-01 0.14928779D+05 0.14928779D+05 0.14928779D+05 0.12480582D+01  1  2  2  3  6  5       21 0.211414304904D+00 0.100000000000D+01
0.858641561799D-04 0.343814850639D-04 -.250199598390D-05 0.576800324996D-04 0.000000000000D+00  6 2 -1 25 24 21 21 4 0.96112361D-01 0.13353063D-01 0.14928779D+05 0.14928779D+05 0.14928779D+05 0.12480582D+01  1  2  3  3  6  5       21 0.434000643823D-01 0.100000000000D+01
0.236674389422D-04 0.000000000000D+00 0.000000000000D+00 0.576800324996D-04 0.000000000000D+00  6 2 -1 25 24 21 21 4 0.96112361D-01 0.13353063D-01 0.14928779D+05 0.14928779D+05 0.14928779D+05 0.12480582D+01  1  2 15  3  6  5       21 0.119627143567D-01 0.100000000000D+01
-.159035410682D-02 0.000000000000D+00 0.000000000000D+00 0.576800324996D-04 0.000000000000D+00  6 2 -1 25 24 21 21 4 0.96112361D-01 0.13353063D-01 0.14928779D+05 0.14928779D+05 0.14928779D+05 0.12480582D+01  1  2  4  3  6  5       21 -.803844976733D+00 0.100000000000D+01
0.150613354487D-02 0.000000000000D+00 0.000000000000D+00 0.576800324996D-04 0.492334201195D-04  6 2 -1 25 24 21 21 4 0.96112361D-01 0.13353063D-01 0.15023236D+05 0.15023236D+05 0.15023236D+05 0.12477459D+01  1  2 11  3  6  5       21 0.760574815555D+00 0.100000000000D+01
0.383655851312D-06 0.000000000000D+00 0.000000000000D+00 0.576511667505D-04 0.208606997722D-07  6 2 -1 25 24 1 -1 4 0.96112361D-01 0.13353063D-01 0.15023236D+05 0.15023236D+05 0.15023236D+05 0.12477459D+01  1  2 11  6  6  5       21 0.193740441770D-03 0.100000000000D+01
0.102549562600D-04 0.000000000000D+00 0.000000000000D+00 0.576511667505D-04 0.125095085433D-06  6 2 -1 25 24 2 -2 4 0.96112361D-01 0.13353063D-01 0.15023236D+05 0.15023236D+05 0.15023236D+05 0.12477459D+01  1  2 11  7  6  5       21 0.517859886500D-02 0.100000000000D+01
0.529660138048D-05 0.000000000000D+00 0.000000000000D+00 0.576511667505D-04 0.195510207146D-07  6 2 -1 25 24 3 -3 4 0.96112361D-01 0.13353063D-01 0.15023236D+05 0.15023236D+05 0.15023236D+05 0.12477459D+01  1  2 11  8  6  5       21 0.267470413347D-02 0.100000000000D+01
0.529660138048D-05 0.000000000000D+00 0.000000000000D+00 0.576511667505D-04 0.195510207146D-07  6 2 -1 25 24 4 -4 4 0.96112361D-01 0.13353063D-01 0.15023236D+05 0.15023236D+05 0.15023236D+05 0.12477459D+01  1  2 11  8  6  5       21 0.267470413347D-02 0.100000000000D+01
  </mgrwgt>
  </event>
  <event>
  5     66 0.42622971E-03 0.64156449E+02 0.75467711E-02 0.11500815E+00
        2 -1    0    0  502    0 0.00000000E+00 0.00000000E+00 0.26196859E+03 0.26196879E+03 0.32000000E+00 0.0000E+00 0.9000E+01
       -1 -1    0    0    0  501 0.00000000E+00 0.00000000E+00 -.12821314E+03 0.12821354E+03 0.32000000E+00 0.0000E+00 0.9000E+01
       25  1    1    2    0    0 0.12205283E+03 -.51790193E+02 0.15997036E+02 0.18292081E+03 0.12500000E+03 0.0000E+00 0.9000E+01
       24  1    1    2    0    0 -.60184844E+02 0.34820559E+02 0.76701389E+02 0.13109159E+03 0.80419002E+02 0.0000E+00 0.9000E+01
       21  1    1    2  502  501 -.61867982E+02 0.16969633E+02 0.41057025E+02 0.76169925E+02 0.75000000E+00 0.0000E+00 0.9000E+01
#aMCatNLO 1  0  0  1  1 0.43833309D+02 0.00000000D+00  -5  6  0 0.00000000D+00 0.00000000D+00 0.00000000D+00 0.00000000D+00 0.00000000D+00
  <mgrwgt>
 0.1089940852D+00    7    4    0
 0.183270105113895D+03 0.000000000000000D+00 0.000000000000000D+00 0.183270105113895D+03
 0.183270105113895D+03 0.000000000000000D+00 0.000000000000000D+00 -.183270105113895D+03
 0.188883419424731D+03 0.122054877921546D+03 -.517907555050894D+02 -.497219323171136D+02
 0.111556877403471D+03 -.601836315849460D+02 0.348202267814992D+02 0.338112886145281D+02
 0.660999133995879D+02 -.618712463365996D+02 0.169705287235902D+02 0.159106437025855D+02
 0.000000000000000D+00 0.000000000000000D+00 -.000000000000000D+00 0.000000000000000D+00
 0.215896598832488D+03 0.000000000000000D+00 0.000000000000000D+00 0.215896598832488D+03
 0.199912109545767D+03 0.000000000000000D+00 0.000000000000000D+00 -.199912109545767D+03
 0.174660189396225D+03 0.104077801420573D+03 -.397079646675245D+02 -.497219323171136D+02
 0.120647872146851D+03 -.716660574762814D+02 0.425378192579700D+02 0.338112886145281D+02
 0.738437835164084D+02 -.687914025001117D+02 0.216217187812438D+02 0.159106437025855D+02
 0.466568633187705D+02 0.363796585558199D+02 -.244515733716893D+02 0.159844892867206D+02
 0.183270105113895D+03 0.000000000000000D+00 0.000000000000000D+00 0.183270105113895D+03
 0.183270105113895D+03 0.000000000000000D+00 0.000000000000000D+00 -.183270105113895D+03
 0.188883419424731D+03 0.122054877921546D+03 -.517907555050894D+02 -.497219323171136D+02
 0.111556877403471D+03 -.601836315849460D+02 0.348202267814992D+02 0.338112886145281D+02
 0.000000000000000D+00 0.000000000000000D+00 -.000000000000000D+00 0.000000000000000D+00
 0.660999133995879D+02 -.618712463365996D+02 0.169705287235902D+02 0.159106437025855D+02
 0.215896598832488D+03 0.000000000000000D+00 0.000000000000000D+00 0.215896598832488D+03
 0.199912109545767D+03 0.000000000000000D+00 0.000000000000000D+00 -.199912109545767D+03
 0.174660189396225D+03 0.104077801420573D+03 -.397079646675245D+02 -.497219323171136D+02
 0.120647872146851D+03 -.716660574762814D+02 0.425378192579700D+02 0.338112886145281D+02
 0.466568633187705D+02 0.363796585558199D+02 -.244515733716893D+02 0.159844892867206D+02
 0.738437835164084D+02 -.687914025001117D+02 0.216217187812438D+02 0.159106437025855D+02
0.153959269923D-03 0.000000000000D+00 0.000000000000D+00 0.447025035546D-05 0.000000000000D+00  6 2 -1 25 24 21 21 2 0.40302906D-01 0.19725144D-01 0.31097129D+05 0.31097129D+05 0.31097129D+05 0.12132646D+01  1  2  2  1  6  1        2 0.662002256745D-01 0.100000000000D+01
0.541239125735D-06 0.812465388609D-05 -.591244134910D-06 0.447025035546D-05 0.000000000000D+00  6 2 -1 25 24 21 21 4 0.40302906D-01 0.19725144D-01 0.31097129D+05 0.31097129D+05 0.31097129D+05 0.12132646D+01  1  2  3  1  6  1        2 0.342573591117D-03 0.100000000000D+01
0.490910111452D-05 0.000000000000D+00 0.000000000000D+00 0.447025035546D-05 0.000000000000D+00  6 2 -1 25 24 21 21 4 0.40302906D-01 0.19725144D-01 0.31097129D+05 0.31097129D+05 0.31097129D+05 0.12132646D+01  1  2 15  1  6  1        2 0.310718186841D-02 0.100000000000D+01
-.734897393434D-04 0.000000000000D+00 0.000000000000D+00 0.447025035546D-05 0.000000000000D+00  6 2 -1 25 24 21 21 4 0.40302906D-01 0.19725144D-01 0.31097129D+05 0.31097129D+05 0.31097129D+05 0.12132646D+01  1  2  4  1  6  1        2 -.465148262941D-01 0.100000000000D+01
-.655284126503D-03 0.000000000000D+00 -.187479560408D-03 0.447025035546D-05 0.000000000000D+00  6 2 -1 25 24 21 21 4 0.51243472D-01 0.19725144D-01 0.31097129D+05 0.31097129D+05 0.31097129D+05 0.12132646D+01  1  2  5  1  6  1        2 -.320842279427D+00 0.100000000000D+01
0.685718901224D-03 0.000000000000D+00 0.182199701249D-03 0.447025035546D-05 0.000000000000D+00  6 2 -1 25 24 21 21 4 0.40302906D-01 0.19725144D-01 0.31097129D+05 0.31097129D+05 0.31097129D+05 0.12132646D+01  1  2  6  1  6  1        2 0.434021073718D+00 0.100000000000D+01
-.185869493782D-04 0.000000000000D+00 -.615923509886D-05 0.447025035546D-05 0.000000000000D+00  6 21 -1 25 24 -2 21 4 0.51243472D-01 0.19725144D-01 0.31097129D+05 0.31097129D+05 0.31097129D+05 0.12132646D+01  3  4  5  4  5  1        2 -.273198639691D-01 0.100000000000D+01
  </mgrwgt>
  </event>
  <event>
  6     66 0.42622971E-03 0.27220595E+02 0.75467711E-02 0.11551260E+00
        2 -1    0    0  502    0 0.00000000E+00 0.00000000E+00 0.44020391E+03 0.44020402E+03 0.32000000E+00 0.0000E+00 0.9000E+01
       -1 -1    0    0    0  503 0.00000000E+00 0.00000000E+00 -.33618696E+03 0.33618711E+03 0.32000000E+00 0.0000E+00 0.9000E+01
       25  1    1    2    0    0 0.11370838E+03 -.40929720E+02 0.76253139E+02 0.18985357E+03 0.12500000E+03 0.0000E+00 0.9000E+01
       24  1    1    2    0    0 -.58617562E+02 0.36185727E+02 0.27896741E+03 0.29838810E+03 0.80419002E+02 0.0000E+00 0.9000E+01
       21  1    1    2  502  501 -.23949852E+02 0.48462264E+02 -.32775224E+02 0.63221549E+02 0.75000000E+00 0.0000E+00 0.9000E+01
       21  1    1    2  501  503 -.31140970E+02 -.43718271E+02 -.21842838E+03 0.22492792E+03 0.75000000E+00 0.0000E+00 0.9000E+01
#aMCatNLO 2  0  0  2  1 0.54637377D+01 0.00000000D+00  -5  6  0 0.00000000D+00 0.00000000D+00 0.00000000D+00 0.00000000D+00 0.00000000D+00
  <mgrwgt>
 0.9103650823D-01    1    2    0
 0.222069612448253D+03 0.000000000000000D+00 0.000000000000000D+00 0.222069612448253D+03
 0.222069612448253D+03 0.000000000000000D+00 0.000000000000000D+00 -.222069612448253D+03
 0.176427182232952D+03 0.101291085730145D+03 -.583630832804691D+02 -.428417680805140D+02
 0.168510196456168D+03 -.703279835240169D+02 0.197447785145075D+02 0.128812223062038D+03
 0.992018462073874D+02 -.309631022061280D+02 0.386183047659616D+02 -.859704549815244D+02
 0.000000000000000D+00 -.000000000000000D+00 -.000000000000000D+00 -.000000000000000D+00
 0.225348735025531D+03 0.000000000000000D+00 0.000000000000000D+00 0.225348735025531D+03
 0.656717673102022D+03 0.000000000000000D+00 0.000000000000000D+00 -.656717673102022D+03
 0.179068066307774D+03 0.113708743021804D+03 -.409301482936707D+02 -.428417680805140D+02
 0.166748793069889D+03 -.586171906147674D+02 0.361853587814416D+02 0.128812223062038D+03
 0.101554013965554D+03 -.239505824012837D+02 0.484630604215713D+02 -.859704549815244D+02
 0.434695534784337D+03 -.311409700057534D+02 -.437182709093422D+02 -.431368938076491D+03
0.134973106460D-02 0.000000000000D+00 0.000000000000D+00 0.658459218383D-05 0.128020007730D-07  6 2 -1 25 24 21 21 4 0.67723602D-01 0.51721018D-01 0.37537269D+05 0.37537269D+05 0.37537269D+05 0.12048129D+01  1  2  1  2  6  2       -1 0.910365082337D-01 0.100000000000D+01
  </mgrwgt>
  </event>
  <event>
  6     66 -.42622971E-03 0.71517108E+01 0.75467711E-02 0.11889018E+00
        2 -1    0    0  502    0 0.00000000E+00 0.00000000E+00 0.25512091E+03 0.25512111E+03 0.32000000E+00 0.0000E+00 0.9000E+01
       -1 -1    0    0    0  501 0.00000000E+00 0.00000000E+00 -.12315428E+03 0.12315469E+03 0.32000000E+00 0.0000E+00 0.9000E+01
       25  1    1    2    0    0 0.71709171E+02 0.85407558E+02 0.85731443E+02 0.18817953E+03 0.12500000E+03 0.0000E+00 0.9000E+01
       24  1    1    2    0    0 -.78636268E+02 -.67850203E+02 -.60695691E+01 0.13149665E+03 0.80419002E+02 0.0000E+00 0.9000E+01
       21  1    1    2  503  501 0.11619737E+02 -.52846381E+01 0.31316003E+02 0.33826029E+02 0.75000000E+00 0.0000E+00 0.9000E+01
       21  1    1    2  502  503 -.46926398E+01 -.12272717E+02 0.20988756E+02 0.24773591E+02 0.75000000E+00 0.0000E+00 0.9000E+01
#aMCatNLO 2  0  0  5  2 0.91665458D+01 0.00000000D+00  -5  6  0 0.00000000D+00 0.00000000D+00 0.00000000D+00 0.00000000D+00 0.00000000D+00
  <mgrwgt>
 -.4288061570D+00    2    2    0
 0.177255034478347D+03 0.000000000000000D+00 0.000000000000000D+00 0.177255034478347D+03
 0.177255034478347D+03 -.000000000000000D+00 -.000000000000000D+00 -.177255034478347D+03
 0.168976504478016D+03 0.713529098605918D+02 0.863105347888038D+02 0.196802668809586D+02
 0.142958203344717D+03 -.789373510899624D+02 -.670870808228445D+02 -.569038675201255D+02
 0.425753611339624D+02 0.758444122937064D+01 -.192234539659593D+02 0.372236006391668D+02
 0.000000000000000D+00 0.000000000000000D+00 -.000000000000000D+00 0.000000000000000D+00
 0.177255034478347D+03 0.000000000000000D+00 0.000000000000000D+00 0.177255034478347D+03
 0.177255034478347D+03 -.000000000000000D+00 -.000000000000000D+00 -.177255034478347D+03
 0.168881433156102D+03 0.717080280219468D+02 0.854104556108087D+02 0.214231476309347D+02
 0.142572562848152D+03 -.786372333499124D+02 -.678477564462348D+02 -.554309227688248D+02
 0.238196630823980D+02 0.115460096215348D+02 -.494844475645671D+01 0.202380558767555D+02
 0.192364098700428D+02 -.461680429356920D+01 -.126142544081171D+02 0.137697192611345D+02
-.269205529591D-03 0.000000000000D+00 0.000000000000D+00 0.429442214790D-04 0.000000000000D+00  6 2 -1 25 24 21 21 4 0.39249418D-01 0.18946859D-01 0.26384685D+05 0.26384685D+05 0.26384685D+05 0.12207955D+01  1  2 13  3  6  5       21 -.191104796104D+00 0.100000000000D+01
-.334845184671D-03 0.000000000000D+00 0.000000000000D+00 0.429442214790D-04 0.000000000000D+00  6 2 -1 25 24 21 21 4 0.39249418D-01 0.18946859D-01 0.26384685D+05 0.26384685D+05 0.26384685D+05 0.12207955D+01  1  2 13  3  6  5       21 -.237701360890D+00 0.100000000000D+01
  </mgrwgt>
  </event>
  <event>
  5     66 0.42622971E-03 0.56133299E+02 0.75467711E-02 0.98996797E-01
        2 -1    0    0  502    0 0.00000000E+00 0.00000000E+00 0.22808772E+04 0.22808773E+04 0.32000000E+00 0.0000E+00 0.9000E+01
       -1 -1    0    0    0  501 0.00000000E+00 0.00000000E+00 -.95974823E+02 0.95975356E+02 0.32000000E+00 0.0000E+00 0.9000E+01
       25  1    1    2    0    0 -.24385821E+03 0.83669244E+02 0.24332446E+03 0.37589781E+03 0.12500000E+03 0.0000E+00 0.9000E+01
       24  1    1    2    0    0 0.25646613E+03 -.13836673E+03 0.19152318E+04 0.19389430E+04 0.80419002E+02 0.0000E+00 0.9000E+01
       21  1    1    2  502  501 -.12607920E+02 0.54697486E+02 0.26346206E+02 0.62011771E+02 0.75000000E+00 0.0000E+00 0.9000E+01
#aMCatNLO 1  0  0  1  5 0.52804030D+02 0.00000000D+00  -5  6  0 0.00000000D+00 0.00000000D+00 0.00000000D+00 0.00000000D+00 0.00000000D+00
  <mgrwgt>
 0.1798315514D+01    6    4    0
 0.467875464431949D+03 0.000000000000000D+00 0.000000000000000D+00 0.467875464431949D+03
 0.467875464431949D+03 0.000000000000000D+00 0.000000000000000D+00 -.467875464431949D+03
 0.386654857504136D+03 -.243858054646192D+03 0.836685537486583D+02 -.259633975298547D+03
 0.453099725126743D+03 0.256466320207716D+03 -.138367538145766D+03 0.337507919821377D+03
 0.959963462330194D+02 -.126082655615241D+02 0.546989843971079D+02 -.778739445228297D+02
 0.000000000000000D+00 -.000000000000000D+00 -.000000000000000D+00 0.000000000000000D+00
 0.856840220311976D+03 0.000000000000000D+00 0.000000000000000D+00 0.856840220311976D+03
 0.654795901405234D+03 0.000000000000000D+00 0.000000000000000D+00 -.654795901405234D+03
 0.455260132313649D+03 -.227612514425616D+03 0.269108770243118D+03 -.259633975298547D+03
 0.445997567367469D+03 0.273815246648124D+03 0.596676537514514D+02 0.337507919821377D+03
 0.130687625561334D+03 -.823418548730900D+01 0.104628401634906D+03 -.778739445228297D+02
 0.479690796474758D+03 -.379685467351987D+02 -.433404825629475D+03 0.202044318906742D+03
 0.467875464431949D+03 0.000000000000000D+00 0.000000000000000D+00 0.467875464431949D+03
 0.467875464431949D+03 0.000000000000000D+00 0.000000000000000D+00 -.467875464431949D+03
 0.386654857504136D+03 -.243858054646192D+03 0.836685537486583D+02 -.259633975298547D+03
 0.453099725126743D+03 0.256466320207716D+03 -.138367538145766D+03 0.337507919821377D+03
 0.000000000000000D+00 -.000000000000000D+00 -.000000000000000D+00 0.000000000000000D+00
 0.959963462330194D+02 -.126082655615241D+02 0.546989843971079D+02 -.778739445228297D+02
 0.856840220311976D+03 0.000000000000000D+00 0.000000000000000D+00 0.856840220311976D+03
 0.654795901405234D+03 0.000000000000000D+00 0.000000000000000D+00 -.654795901405234D+03
 0.455260132313649D+03 -.227612514425616D+03 0.269108770243118D+03 -.259633975298547D+03
 0.445997567367469D+03 0.273815246648124D+03 0.596676537514514D+02 0.337507919821377D+03
 0.479690796474758D+03 -.379685467351987D+02 -.433404825629475D+03 0.202044318906742D+03
 0.130687625561334D+03 -.823418548730900D+01 0.104628401634906D+03 -.778739445228297D+02
0.367458218032D-01 0.000000000000D+00 0.000000000000D+00 0.225463119781D-05 0.000000000000D+00  6 2 -1 25 24 21 21 2 0.35090423D+00 0.14765400D-01 0.10399165D+06 0.10399165D+06 0.10399165D+06 0.11620134D+01  1  2  2  1  6  1        2 0.972967920005D+00 0.100000000000D+01
0.397449490408D-02 0.193913029115D-02 -.141113631121D-03 0.225463119781D-05 0.000000000000D+00  6 2 -1 25 24 21 21 4 0.35090423D+00 0.14765400D-01 0.10399165D+06 0.10399165D+06 0.10399165D+06 0.11620134D+01  1  2  3  1  6  1        2 0.142100218446D+00 0.100000000000D+01
0.910745459982D-03 0.000000000000D+00 0.000000000000D+00 0.225463119781D-05 0.000000000000D+00  6 2 -1 25 24 21 21 4 0.35090423D+00 0.14765400D-01 0.10399165D+06 0.10399165D+06 0.10399165D+06 0.11620134D+01  1  2 15  1  6  1        2 0.325619058360D-01 0.100000000000D+01
-.922604552021D-02 0.000000000000D+00 -.158685209359D-01 0.225463119781D-05 0.000000000000D+00  6 2 -1 25 24 21 21 4 0.68460965D+00 0.14765400D-01 0.10399165D+06 0.10399165D+06 0.10399165D+06 0.11620134D+01  1  2  5  1  6  1        2 -.116123857381D-01 0.100000000000D+01
0.185240189806D-01 0.000000000000D+00 0.128826552245D-01 0.225463119781D-05 0.000000000000D+00  6 2 -1 25 24 21 21 4 0.35090423D+00 0.14765400D-01 0.10399165D+06 0.10399165D+06 0.10399165D+06 0.11620134D+01  1  2  6  1  6  1        2 0.662289726663D+00 0.100000000000D+01
0.263380427872D-03 0.000000000000D+00 -.114927857522D-02 0.225463119781D-05 0.000000000000D+00  6 21 -1 25 24 -2 21 4 0.68460965D+00 0.14765400D-01 0.10399165D+06 0.10399165D+06 0.10399165D+06 0.11620134D+01  3  4  5  4  5  1        2 0.812908809127D-05 0.100000000000D+01
  </mgrwgt>
  </event>
  <event>
  6     66 0.42622971E-03 0.14329594E+02 0.75467711E-02 0.11488927E+00
        2 -1    0    0  502    0 0.00000000E+00 0.00000000E+00 0.18484371E+04 0.18484371E+04 0.32000000E+00 0.0000E+00 0.9000E+01
       -1 -1    0    0    0  503 0.00000000E+00 0.00000000E+00 -.61174961E+02 0.61175798E+02 0.32000000E+00 0.0000E+00 0.9000E+01
       25  1    1    2    0    0 -.65720280E+02 0.13295913E+03 0.13735052E+04 0.13871333E+04 0.12500000E+03 0.0000E+00 0.9000E+01
       24  1    1    2    0    0 0.58838906E+02 -.13548352E+03 0.36108404E+03 0.39832989E+03 0.80419002E+02 0.0000E+00 0.9000E+01
       21  1    1    2  502  501 -.15530892E+02 0.69340726E+01 0.83812077E+02 0.85523779E+02 0.75000000E+00 0.0000E+00 0.9000E+01
       21  1    1    2  501  503 0.22412266E+02 -.44096851E+01 -.31139164E+02 0.38625963E+02 0.75000000E+00 0.0000E+00 0.9000E+01
#aMCatNLO 2  0  0  2  2 0.65055087D+02 0.00000000D+00  -5  6  0 0.00000000D+00 0.00000000D+00 0.00000000D+00 0.00000000D+00 0.00000000D+00
  <mgrwgt>
 0.1191068397D+01    1    2    0
 0.219935879489083D+03 0.000000000000000D+00 0.000000000000000D+00 0.219935879489083D+03
 0.219935879489083D+03 0.000000000000000D+00 0.000000000000000D+00 -.219935879489083D+03
 0.217480112844115D+03 -.545273561513766D+02 0.130754887942911D+03 0.107715023060234D+03
 0.205952890998512D+03 0.692145938103263D+02 -.137526860307426D+03 -.110657489823002D+03
 0.164387551355390D+02 -.146872376589496D+02 0.677197236451445D+01 0.294246676276779D+01
 0.000000000000000D+00 0.000000000000000D+00 -.000000000000000D+00 -.000000000000000D+00
 0.220678651059135D+03 0.000000000000000D+00 0.000000000000000D+00 0.220678651059135D+03
 0.512412060118595D+03 0.000000000000000D+00 0.000000000000000D+00 -.512412060118595D+03
 0.221862219470399D+03 -.657124662115284D+02 0.132955594165359D+03 0.107715023060234D+03
 0.201325081959863D+03 0.588458025112584D+02 -.135486767415321D+03 -.110657489823002D+03
 0.172771345210982D+02 -.155456023300678D+02 0.694085836230084D+01 0.294246676276779D+01
 0.292626275226369D+03 0.224122660303378D+02 -.440968511233926D+01 -.291733409059460D+03
0.828919731130D-02 0.000000000000D+00 0.000000000000D+00 0.418568456874D-04 0.424592782178D-06  6 2 -1 25 24 21 21 4 0.28437439D+00 0.94115785D-02 0.40403571D+05 0.40403571D+05 0.40403571D+05 0.12015578D+01  1  2  1  2  6  2       -1 0.119106839705D+01 0.100000000000D+01
  </mgrwgt>
  </event>
  <event>
  5     66 0.42622971E-03 0.21725372E+02 0.75467711E-02 0.11482794E+00
        2 -1    0    0  502    0 0.00000000E+00 0.00000000E+00 0.12312948E+04 0.12312949E+04 0.32000000E+00 0.0000E+00 0.9000E+01
       -1 -1    0    0    0  501 0.00000000E+00 0.00000000E+00 -.39592362E+02 0.39593655E+02 0.32000000E+00 0.0000E+00 0.9000E+01
       25  1    1    2    0    0 0.51109078E+02 -.15352252E+03 0.33917681E+03 0.39603941E+03 0.12500000E+03 0.0000E+00 0.9000E+01
       24  1    1    2    0    0 -.39355642E+02 0.13525392E+03 0.60484526E+03 0.62621681E+03 0.80419002E+02 0.0000E+00 0.9000E+01
       21  1    1    2  502  501 -.11753436E+02 0.18268604E+02 0.24768039E+03 0.24863230E+03 0.75000000E+00 0.0000E+00 0.9000E+01
#aMCatNLO 1  0  0  5  1 0.23279858D+02 0.00000000D+00  -5  6  0 0.00000000D+00 0.00000000D+00 0.00000000D+00 0.00000000D+00 0.00000000D+00
  <mgrwgt>
 0.5563853179D+00    4    2    0
 0.220795649567912D+03 0.000000000000000D+00 0.000000000000000D+00 0.220795649567912D+03
 0.220795649567912D+03 -.000000000000000D+00 -.000000000000000D+00 -.220795649567912D+03
 0.224472300738056D+03 0.511098335382540D+02 -.153523694242407D+03 -.926340867094401D+02
 0.169966052028968D+03 -.393550696012971D+02 0.135253025828422D+03 0.507842533555118D+02
 0.471529463688001D+02 -.117547639369569D+02 0.182706684139849D+02 0.418498333539283D+02
 0.000000000000000D+00 0.000000000000000D+00 0.000000000000000D+00 -.000000000000000D+00
 0.220795649567912D+03 0.000000000000000D+00 0.000000000000000D+00 0.220795649567912D+03
 0.220795649567912D+03 -.000000000000000D+00 -.000000000000000D+00 -.220795649567912D+03
 0.212711631684881D+03 0.467087439923781D+02 -.146682991342356D+03 -.769651319725829D+02
 0.179200758426693D+03 -.428700990552537D+02 0.140716507525125D+03 0.632986175461651D+02
 0.261340881714289D+02 0.665599067119230D+01 -.137048219936948D+02 0.212336103114416D+02
 0.235448208528214D+02 -.104946356083167D+02 0.196713058109257D+02 -.756709588502386D+01
0.125687510068D-02 0.000000000000D+00 0.000000000000D+00 0.320125710487D-04 0.000000000000D+00  6 2 -1 25 24 21 21 2 0.18943008D+00 0.60912353D-02 0.37712498D+05 0.37712498D+05 0.37712498D+05 0.12046061D+01  1  2  2  3  6  5       21 0.517840863884D+00 0.100000000000D+01
0.293391304810D-03 0.663271212976D-04 -.482673132942D-05 0.320125710487D-04 0.000000000000D+00  6 2 -1 25 24 21 21 4 0.18943008D+00 0.60912353D-02 0.37712498D+05 0.37712498D+05 0.37712498D+05 0.12046061D+01  1  2  3  3  6  5       21 0.175404817999D+00 0.100000000000D+01
0.175172654650D-04 0.000000000000D+00 0.000000000000D+00 0.320125710487D-04 0.000000000000D+00  6 2 -1 25 24 21 21 4 0.18943008D+00 0.60912353D-02 0.37712498D+05 0.37712498D+05 0.37712498D+05 0.12046061D+01  1  2 15  3  6  5       21 0.104727465005D-01 0.100000000000D+01
-.246437093534D-03 0.000000000000D+00 0.000000000000D+00 0.320125710487D-04 0.000000000000D+00  6 2 -1 25 24 21 21 4 0.18943008D+00 0.60912353D-02 0.37712498D+05 0.37712498D+05 0.37712498D+05 0.12046061D+01  1  2  4  3  6  5       21 -.147333110528D+00 0.100000000000D+01
  </mgrwgt>
  </event>
  <event>
  5     66 0.42622971E-03 0.53035078E+02 0.75467711E-02 0.11226563E+00
        2 -1    0    0  502    0 0.00000000E+00 0.00000000E+00 0.14232916E+04 0.14232916E+04 0.32000000E+00 0.0000E+00 0.9000E+01
       -1 -1    0    0    0  501 0.00000000E+00 0.00000000E+00 -.73282575E+02 0.73283273E+02 0.32000000E+00 0.0000E+00 0.9000E+01
       25  1    1    2    0    0 0.18273636E+02 -.19876936E+03 0.63528940E+03 0.67754026E+03 0.12500000E+03 0.0000E+00 0.9000E+01
       24  1    1    2    0    0 -.21096346E+02 0.14580973E+03 0.74104833E+03 0.75981931E+03 0.80419002E+02 0.0000E+00 0.9000E+01
       21  1    1    2  502  501 0.28227094E+01 0.52959624E+02 -.26328729E+02 0.59215318E+02 0.75000000E+00 0.0000E+00 0.9000E+01
#aMCatNLO 1  0  0  5  1 0.23541226D+02 0.00000000D+00  -5  6  0 0.00000000D+00 0.00000000D+00 0.00000000D+00 0.00000000D+00 0.00000000D+00
  <mgrwgt>
 0.3862724540D+00   15    2    0
 0.322959782026509D+03 0.000000000000000D+00 0.000000000000000D+00 0.322959782026509D+03
 0.322959782026509D+03 -.000000000000000D+00 -.000000000000000D+00 -.322959782026509D+03
 0.242047921191840D+03 0.182736281164182D+02 -.198769508687876D+03 0.558475879938835D+02
 0.211643531768322D+03 -.210963526383852D+02 0.145809601479214D+03 0.128919636234469D+03
 0.192228111092856D+03 0.282272452196694D+01 0.529599072086613D+02 -.184767224228353D+03
 0.000000000000000D+00 0.000000000000000D+00 0.000000000000000D+00 0.000000000000000D+00
 0.322959782026509D+03 0.000000000000000D+00 0.000000000000000D+00 0.322959782026509D+03
 0.322959782026509D+03 -.000000000000000D+00 -.000000000000000D+00 -.322959782026509D+03
 0.239882521951227D+03 0.183461127157889D+02 -.197409553925428D+03 0.511029598444517D+02
 0.209965894548096D+03 -.210329406029094D+02 0.146999336959447D+03 0.124768871366576D+03
 0.166098642030010D+03 -.196985037643583D+02 0.376323247114832D+02 -.160575639405448D+03
 0.299725055236849D+02 0.223853316514788D+02 0.127778922544980D+02 -.152961918055791D+02
0.138264251313D-02 0.000000000000D+00 0.000000000000D+00 0.797847131271D-05 0.000000000000D+00  6 2 -1 25 24 21 21 2 0.21896799D+00 0.11274299D-01 0.52075088D+05 0.52075088D+05 0.52075088D+05 0.11905367D+01  1  2  2  3  6  5       21 0.170312232270D+00 0.100000000000D+01
0.140315136906D-03 0.729640499918D-04 -.530971130854D-05 0.797847131271D-05 0.000000000000D+00  6 2 -1 25 24 21 21 4 0.21896799D+00 0.11274299D-01 0.52075088D+05 0.52075088D+05 0.52075088D+05 0.11905367D+01  1  2  3  3  6  5       21 0.244977421822D-01 0.100000000000D+01
0.359531648776D-04 0.000000000000D+00 0.000000000000D+00 0.797847131271D-05 0.000000000000D+00  6 2 -1 25 24 21 21 4 0.21896799D+00 0.11274299D-01 0.52075088D+05 0.52075088D+05 0.52075088D+05 0.11905367D+01  1  2 15  3  6  5       21 0.627709442635D-02 0.100000000000D+01
0.319304156914D-02 0.000000000000D+00 0.000000000000D+00 0.794128473598D-05 0.000000000000D+00  6 2 -1 25 24 21 21 4 0.21896799D+00 0.11274299D-01 0.55578442D+05 0.55578442D+05 0.55578442D+05 0.11877590D+01  1  2 12  3  6  5       21 0.551859998999D+00 0.100000000000D+01
-.281865599989D-02 0.000000000000D+00 0.000000000000D+00 0.797847131271D-05 0.000000000000D+00  6 2 -1 25 24 21 21 4 0.21896799D+00 0.11274299D-01 0.52075088D+05 0.52075088D+05 0.52075088D+05 0.11905367D+01  1  2  4  3  6  5       21 -.492111610394D+00 0.100000000000D+01
-.519398050160D-02 0.000000000000D+00 0.000000000000D+00 0.797847131271D-05 0.000000000000D+00  6 2 -1 25 24 21 21 4 0.21896799D+00 0.11274299D-01 0.52075088D+05 0.52075088D+05 0.52075088D+05 0.11905367D+01  1  2  5  3  6  5       21 -.906821587700D+00 0.100000000000D+01
0.605875120369D-02 0.000000000000D+00 -.000000000000D+00 0.797847131271D-05 0.000000000000D+00  6 2 -1 25 24 21 21 4 0.21896799D+00 0.11274299D-01 0.52075088D+05 0.52075088D+05 0.52075088D+05 0.11905367D+01  1  2  6  3  6  5       21 0.105780265912D+01 0.100000000000D+01
0.317358052874D-04 0.000000000000D+00 0.000000000000D+00 0.794128473598D-05 0.000000000000D+00  6 2 -1 25 24 1 -1 4 0.21896799D+00 0.11274299D-01 0.55578442D+05 0.55578442D+05 0.55578442D+05 0.11877590D+01  1  2 12  6  6  5       21 0.548496507011D-02 0.100000000000D+01
-.679931523312D-04 0.000000000000D+00 0.000000000000D+00 0.797847131271D-05 0.000000000000D+00  6 2 -1 25 24 1 -1 4 0.21896799D+00 0.11274299D-01 0.52075088D+05 0.52075088D+05 0.52075088D+05 0.11905367D+01  1  2  5  6  6  5       21 -.118709837919D-01 0.100000000000D+01
0.317358052874D-04 0.000000000000D+00 0.000000000000D+00 0.794128473598D-05 0.000000000000D+00  6 2 -1 25 24 2 -2 4 0.21896799D+00 0.11274299D-01 0.55578442D+05 0.55578442D+05 0.55578442D+05 0.11877590D+01  1  2 12  7  6  5       21 0.548496507011D-02 0.100000000000D+01
-.679931523312D-04 0.000000000000D+00 0.000000000000D+00 0.797847131271D-05 0.000000000000D+00  6 2 -1 25 24 2 -2 4 0.21896799D+00 0.11274299D-01 0.52075088D+05 0.52075088D+05 0.52075088D+05 0.11905367D+01  1  2  5  7  6  5       21 -.118709837919D-01 0.100000000000D+01
0.317358052874D-04 0.000000000000D+00 0.000000000000D+00 0.794128473598D-05 0.000000000000D+00  6 2 -1 25 24 3 -3 4 0.21896799D+00 0.11274299D-01 0.55578442D+05 0.55578442D+05 0.55578442D+05 0.11877590D+01  1  2 12  8  6  5       21 0.548496507011D-02 0.100000000000D+01
0.317358052874D-04 0.000000000000D+00 0.000000000000D+00 0.794128473598D-05 0.000000000000D+00  6 2 -1 25 24 4 -4 4 0.21896799D+00 0.11274299D-01 0.55578442D+05 0.55578442D+05 0.55578442D+05 0.11877590D+01  1  2 12  8  6  5       21 0.548496507011D-02 0.100000000000D+01
-.679931523312D-04 0.000000000000D+00 0.000000000000D+00 0.797847131271D-05 0.000000000000D+00  6 2 -1 25 24 3 -3 4 0.21896799D+00 0.11274299D-01 0.52075088D+05 0.52075088D+05 0.52075088D+05 0.11905367D+01  1  2  5  8  6  5       21 -.118709837919D-01 0.100000000000D+01
-.679931523312D-04 0.000000000000D+00 0.000000000000D+00 0.797847131271D-05 0.000000000000D+00  6 2 -1 25 24 4 -4 4 0.21896799D+00 0.11274299D-01 0.52075088D+05 0.52075088D+05 0.52075088D+05 0.11905367D+01  1  2  5  8  6  5       21 -.118709837919D-01 0.100000000000D+01
  </mgrwgt>
  </event>
  <event>
  5     66 -.42622971E-03 0.36220827E+02 0.75467711E-02 0.12366003E+00
        2 -1    0    0  502    0 0.00000000E+00 0.00000000E+00 0.30983498E+04 0.30983498E+04 0.32000000E+00 0.0000E+00 0.9000E+01
       -1 -1    0    0    0  501 0.00000000E+00 0.00000000E+00 -.14306853E+02 0.14310431E+02 0.32000000E+00 0.0000E+00 0.9000E+01
       25  1    1    2    0    0 -.37177869E+02 0.27087128E+01 0.38769428E+03 0.40904937E+03 0.12500000E+03 0.0000E+00 0.9000E+01
       24  1    1    2    0    0 0.22589065E+01 -.12331311E+02 0.47191293E+03 0.47888015E+03 0.80419002E+02 0.0000E+00 0.9000E+01
       21  1    1    2  502  501 0.34918962E+02 0.96225978E+01 0.22244357E+04 0.22247307E+04 0.75000000E+00 0.0000E+00 0.9000E+01
#aMCatNLO 1  0  0  5  2 0.10205431D+00 0.00000000D+00  -5  6  0 0.00000000D+00 0.00000000D+00 0.00000000D+00 0.00000000D+00 0.00000000D+00
  <mgrwgt>
 -.1035307108D+01   15    2    0
 0.210554575498406D+03 0.000000000000000D+00 0.000000000000000D+00 0.210554575498406D+03
 0.210554575498406D+03 -.000000000000000D+00 -.000000000000000D+00 -.210554575498406D+03
 0.184194870423173D+03 -.371780514715824D+02 0.270866243545145D+01 -.130050782107593D+03
 0.835685511985094D+02 0.225882358403776D+01 -.123313334370992D+02 -.189558098409596D+02
 0.153345729375130D+03 0.349192278875447D+02 0.962267100164772D+01 0.149006591948552D+03
 0.000000000000000D+00 0.000000000000000D+00 0.000000000000000D+00 0.000000000000000D+00
 0.210554575498406D+03 0.000000000000000D+00 0.000000000000000D+00 0.210554575498406D+03
 0.210554575498406D+03 -.000000000000000D+00 -.000000000000000D+00 -.210554575498406D+03
 0.184194370328341D+03 -.371778957091863D+02 0.270870535880294D+01 -.130050117441585D+03
 0.835684818336241D+02 0.225889425294408D+01 -.123313139629104D+02 -.189555082840946D+02
 0.149939883814949D+03 0.342418435614690D+02 0.942314845089298D+01 0.145673158753508D+03
 0.340641501989836D+01 0.677157894773243D+00 0.199460153214478D+00 0.333246697217168D+01
0.175785046430D-04 0.000000000000D+00 0.000000000000D+00 0.340670330849D-04 0.000000000000D+00  6 2 -1 25 24 21 21 2 0.47666947D+00 0.22013308D-02 0.15382316D+05 0.15382316D+05 0.15382316D+05 0.12465784D+01  1  2  2  3  6  5       21 0.348647399597D-02 0.100000000000D+01
0.149984435343D-05 0.927643175570D-06 -.675060863558D-07 0.340670330849D-04 0.000000000000D+00  6 2 -1 25 24 21 21 4 0.47666947D+00 0.22013308D-02 0.15382316D+05 0.15382316D+05 0.15382316D+05 0.12465784D+01  1  2  3  3  6  5       21 0.462263783081D-03 0.100000000000D+01
0.845643309402D-06 0.000000000000D+00 0.000000000000D+00 0.340670330849D-04 0.000000000000D+00  6 2 -1 25 24 21 21 4 0.47666947D+00 0.22013308D-02 0.15382316D+05 0.15382316D+05 0.15382316D+05 0.12465784D+01  1  2 15  3  6  5       21 0.260633894741D-03 0.100000000000D+01
-.660738169563D+00 0.000000000000D+00 0.000000000000D+00 0.340670330849D-04 0.000000000000D+00  6 2 -1 25 24 21 21 4 0.47666947D+00 0.22013308D-02 0.15382316D+05 0.15382316D+05 0.15382316D+05 0.12465784D+01  1  2  4  3  6  5       21 -.203644681656D+03 0.100000000000D+01
-.562051458113D+00 0.000000000000D+00 0.000000000000D+00 0.340670330849D-04 0.000000000000D+00  6 2 -1 25 24 21 21 4 0.47666947D+00 0.22013308D-02 0.15382316D+05 0.15382316D+05 0.15382316D+05 0.12465784D+01  1  2  5  3  6  5       21 -.173228663840D+03 0.100000000000D+01
0.574190856743D+00 0.000000000000D+00 -.000000000000D+00 0.340670330849D-04 0.000000000000D+00  6 2 -1 25 24 21 21 4 0.47666947D+00 0.22013308D-02 0.15382316D+05 0.15382316D+05 0.15382316D+05 0.12465784D+01  1  2  6  3  6  5       21 0.176970121627D+03 0.100000000000D+01
0.645209274631D+00 0.000000000000D+00 0.000000000000D+00 0.340670330849D-04 0.335703045013D-01  6 2 -1 25 24 21 21 4 0.47666947D+00 0.22013308D-02 0.15382295D+05 0.15382295D+05 0.15382295D+05 0.12465784D+01  1  2 11  3  6  5       21 0.198858603032D+03 0.100000000000D+01
-.993688176630D-03 0.000000000000D+00 0.000000000000D+00 0.340670330849D-04 0.000000000000D+00  6 2 -1 25 24 1 -1 4 0.47666947D+00 0.22013308D-02 0.15382316D+05 0.15382316D+05 0.15382316D+05 0.12465784D+01  1  2  5  6  6  5       21 -.306262482957D+00 0.100000000000D+01
0.997907031017D-03 0.000000000000D+00 0.000000000000D+00 0.340670330849D-04 0.103627348135D-03  6 2 -1 25 24 1 -1 4 0.47666947D+00 0.22013308D-02 0.15382295D+05 0.15382295D+05 0.15382295D+05 0.12465784D+01  1  2 11  6  6  5       21 0.307562841929D+00 0.100000000000D+01
-.993688176630D-03 0.000000000000D+00 0.000000000000D+00 0.340670330849D-04 0.000000000000D+00  6 2 -1 25 24 2 -2 4 0.47666947D+00 0.22013308D-02 0.15382316D+05 0.15382316D+05 0.15382316D+05 0.12465784D+01  1  2  5  7  6  5       21 -.306262482957D+00 0.100000000000D+01
0.999242078229D-03 0.000000000000D+00 0.000000000000D+00 0.340670330849D-04 0.103766210248D-03  6 2 -1 25 24 2 -2 4 0.47666947D+00 0.22013308D-02 0.15382295D+05 0.15382295D+05 0.15382295D+05 0.12465784D+01  1  2 11  7  6  5       21 0.307974314041D+00 0.100000000000D+01
-.993688176630D-03 0.000000000000D+00 0.000000000000D+00 0.340670330849D-04 0.000000000000D+00  6 2 -1 25 24 3 -3 4 0.47666947D+00 0.22013308D-02 0.15382316D+05 0.15382316D+05 0.15382316D+05 0.12465784D+01  1  2  5  8  6  5       21 -.306262482957D+00 0.100000000000D+01
-.993688176630D-03 0.000000000000D+00 0.000000000000D+00 0.340670330849D-04 0.000000000000D+00  6 2 -1 25 24 4 -4 4 0.47666947D+00 0.22013308D-02 0.15382316D+05 0.15382316D+05 0.15382316D+05 0.12465784D+01  1  2  5  8  6  5       21 -.306262482957D+00 0.100000000000D+01
0.997082019071D-03 0.000000000000D+00 0.000000000000D+00 0.340670330849D-04 0.103541447528D-03  6 2 -1 25 24 3 -3 4 0.47666947D+00 0.22013308D-02 0.15382295D+05 0.15382295D+05 0.15382295D+05 0.12465784D+01  1  2 11  8  6  5       21 0.307308566720D+00 0.100000000000D+01
0.997082019071D-03 0.000000000000D+00 0.000000000000D+00 0.340670330849D-04 0.103541447528D-03  6 2 -1 25 24 4 -4 4 0.47666947D+00 0.22013308D-02 0.15382295D+05 0.15382295D+05 0.15382295D+05 0.12465784D+01  1  2 11  8  6  5       21 0.307308566720D+00 0.100000000000D+01
  </mgrwgt>
  </event>
  <event>
  5     66 0.42622971E-03 0.30441466E+02 0.75467711E-02 0.12388141E+00
        2 -1    0    0  502    0 0.00000000E+00 0.00000000E+00 0.63055795E+03 0.63055803E+03 0.32000000E+00 0.0000E+00 0.9000E+01
       -1 -1    0    0    0  501 0.00000000E+00 0.00000000E+00 -.24621400E+02 0.24623480E+02 0.32000000E+00 0.0000E+00 0.9000E+01
       25  1    1    2    0    0 0.50252089E+01 -.13207877E+02 0.37461062E+03 0.39516809E+03 0.12500000E+03 0.0000E+00 0.9000E+01
       24  1    1    2    0    0 -.33612162E+02 0.27646295E+01 0.18579106E+03 0.20523878E+03 0.80419002E+02 0.0000E+00 0.9000E+01
       21  1    1    2  502  501 0.28586953E+02 0.10443247E+02 0.45534868E+02 0.54774647E+02 0.75000000E+00 0.0000E+00 0.9000E+01
#aMCatNLO 1  0  0  2  5 0.18355606D+01 0.00000000D+00  -5  6  0 0.00000000D+00 0.00000000D+00 0.00000000D+00 0.00000000D+00 0.00000000D+00
  <mgrwgt>
 0.6115062260D-01    9    4    0
 0.124603079849722D+03 0.000000000000000D+00 0.000000000000000D+00 0.124603079849722D+03
 0.124603079849722D+03 0.000000000000000D+00 0.000000000000000D+00 -.124603079849722D+03
 0.128073234103721D+03 0.502147900509340D+01 -.132092391584692D+02 0.240427544853386D+02
 0.878439641691778D+02 -.336147204213574D+02 0.276369488995382D+01 -.105715962907441D+02
 0.332889614265459D+02 0.285932414162640D+02 0.104455442685154D+02 -.134711581945945D+02
 0.000000000000000D+00 0.000000000000000D+00 0.000000000000000D+00 -.000000000000000D+00
 0.124609010198195D+03 0.000000000000000D+00 0.000000000000000D+00 0.124609010198195D+03
 0.454879265973454D+03 0.000000000000000D+00 0.000000000000000D+00 -.454879265973454D+03
 0.128110528622209D+03 0.429636898757263D+01 -.138128459827178D+02 0.240427544853386D+02
 0.880236142481598D+02 -.341125011608961D+02 0.234932487146697D+01 -.105715962907441D+02
 0.330787767686855D+02 0.284053922282690D+02 0.102891720642105D+02 -.134711581945945D+02
 0.330275356532594D+03 0.141073994505446D+01 0.117434904704033D+01 -.330270255775260D+03
 0.124603079849722D+03 0.000000000000000D+00 0.000000000000000D+00 0.124603079849722D+03
 0.124603079849722D+03 0.000000000000000D+00 0.000000000000000D+00 -.124603079849722D+03
 0.128073234103721D+03 0.502147900509340D+01 -.132092391584692D+02 0.240427544853386D+02
 0.878439641691778D+02 -.336147204213574D+02 0.276369488995382D+01 -.105715962907441D+02
 0.000000000000000D+00 0.000000000000000D+00 0.000000000000000D+00 -.000000000000000D+00
 0.332889614265459D+02 0.285932414162640D+02 0.104455442685154D+02 -.134711581945945D+02
 0.124609010198195D+03 0.000000000000000D+00 0.000000000000000D+00 0.124609010198195D+03
 0.454879265973454D+03 0.000000000000000D+00 0.000000000000000D+00 -.454879265973454D+03
 0.128110528622209D+03 0.429636898757263D+01 -.138128459827178D+02 0.240427544853386D+02
 0.880236142481598D+02 -.341125011608961D+02 0.234932487146697D+01 -.105715962907441D+02
 0.330275356532594D+03 0.141073994505446D+01 0.117434904704033D+01 -.330270255775260D+03
 0.330787767686855D+02 0.284053922282690D+02 0.102891720642105D+02 -.134711581945945D+02
0.411393661763D-06 0.000000000000D+00 0.000000000000D+00 0.281566224176D-04 0.000000000000D+00  6 2 -1 25 24 21 21 2 0.97009082D-01 0.37880739D-02 0.14816154D+05 0.14816154D+05 0.14816154D+05 0.12484336D+01  1  2  2  2  6  2       -1 0.873677943387D-03 0.100000000000D+01
0.348687077821D-07 0.217098399754D-07 -.157985998361D-08 0.281566224176D-04 0.000000000000D+00  6 2 -1 25 24 21 21 4 0.97009082D-01 0.37880739D-02 0.14816154D+05 0.14816154D+05 0.14816154D+05 0.12484336D+01  1  2  3  2  6  2       -1 0.115414532668D-03 0.100000000000D+01
0.126031622665D-07 0.000000000000D+00 0.000000000000D+00 0.281566224176D-04 0.000000000000D+00  6 2 -1 25 24 21 21 4 0.97009082D-01 0.37880739D-02 0.14816154D+05 0.14816154D+05 0.14816154D+05 0.12484336D+01  1  2 15  2  6  2       -1 0.417161453823D-04 0.100000000000D+01
0.319417802668D-05 0.000000000000D+00 0.000000000000D+00 0.281232626050D-04 0.000000000000D+00  6 2 -1 25 24 21 21 4 0.97009082D-01 0.13830246D-01 0.15039068D+05 0.15039068D+05 0.15039068D+05 0.12476938D+01  1  2 12  2  6  2       -1 0.151107210504D-02 0.100000000000D+01
-.446310836932D-02 0.000000000000D+00 -.251640122078D-06 0.281566224176D-04 0.000000000000D+00  6 2 -1 25 24 21 21 4 0.97009082D-01 0.13828982D-01 0.14816154D+05 0.14816154D+05 0.14816154D+05 0.12484336D+01  1  2  5  2  6  2       -1 -.211630654740D+01 0.100000000000D+01
0.452037337062D-02 0.000000000000D+00 0.000000000000D+00 0.281566224176D-04 0.689087750493D-04  6 2 -1 25 24 21 21 4 0.97013699D-01 0.13828842D-01 0.15039068D+05 0.15039068D+05 0.15039068D+05 0.12476938D+01  1  2 11  2  6  2       -1 0.213867691596D+01 0.100000000000D+01
0.487217221241D-06 0.000000000000D+00 0.000000000000D+00 0.281232626050D-04 0.000000000000D+00  6 2 21 25 24 1 21 4 0.97009082D-01 0.13830246D-01 0.15039068D+05 0.15039068D+05 0.15039068D+05 0.12476938D+01  3  4 12  5  5  2       -1 0.323742910852D-02 0.100000000000D+01
-.680740658203D-03 0.000000000000D+00 -.383820627490D-07 0.281566224176D-04 0.000000000000D+00  6 2 21 25 24 1 21 4 0.97009082D-01 0.13828982D-01 0.14816154D+05 0.14816154D+05 0.14816154D+05 0.12484336D+01  3  4  5  5  5  2       -1 -.453516541473D+01 0.100000000000D+01
0.687399322594D-03 0.000000000000D+00 0.000000000000D+00 0.281566224176D-04 0.209574892678D-04  6 2 21 25 24 1 21 4 0.97013699D-01 0.13828842D-01 0.15039068D+05 0.15039068D+05 0.15039068D+05 0.12476938D+01  3  4 11  5  5  2       -1 0.456816635894D+01 0.100000000000D+01
  </mgrwgt>
  </event>
  <event>
  5     66 0.42622971E-03 0.26315129E+02 0.75467711E-02 0.12149107E+00
        2 -1    0    0  502    0 0.00000000E+00 0.00000000E+00 0.47649321E+03 0.47649331E+03 0.32000000E+00 0.0000E+00 0.9000E+01
       -1 -1    0    0    0  501 0.00000000E+00 0.00000000E+00 -.36948369E+02 0.36949755E+02 0.32000000E+00 0.0000E+00 0.9000E+01
       25  1    1    2    0    0 -.14299393E+02 0.28006620E+02 0.29678968E+03 0.32357064E+03 0.12500000E+03 0.0000E+00 0.9000E+01
       24  1    1    2    0    0 0.19536627E+02 -.53785903E+02 0.10852429E+03 0.14669472E+03 0.80419002E+02 0.0000E+00 0.9000E+01
       21  1    1    2  502  501 -.52372344E+01 0.25779282E+02 0.34230863E+02 0.43177708E+02 0.75000000E+00 0.0000E+00 0.9000E+01
#aMCatNLO 1  0  0  2  5 0.22746900D+02 0.00000000D+00  -5  6  0 0.00000000D+00 0.00000000D+00 0.00000000D+00 0.00000000D+00 0.00000000D+00
  <mgrwgt>
 0.6461615166D-01    7    4    0
 0.132687716360089D+03 0.000000000000000D+00 0.000000000000000D+00 0.132687716360089D+03
 0.132687716360089D+03 0.000000000000000D+00 0.000000000000000D+00 -.132687716360089D+03
 0.134460439039691D+03 -.142983561489380D+02 0.280015184245262D+02 0.382894455967380D+02
 0.104073719495024D+03 0.195374292670049D+02 -.537898513745853D+02 -.330009678933079D+02
 0.268412741854635D+02 -.523907311806690D+01 0.257883329500591D+02 -.528847770343009D+01
 0.000000000000000D+00 0.000000000000000D+00 0.000000000000000D+00 -.000000000000000D+00
 0.143961511430204D+03 0.000000000000000D+00 0.000000000000000D+00 0.143961511430204D+03
 0.145165778860053D+03 0.000000000000000D+00 0.000000000000000D+00 -.145165778860053D+03
 0.135792682388642D+03 -.257202364827403D+02 0.262114551574112D+02 0.382894455967380D+02
 0.103514749711854D+03 0.107639851660570D+02 -.551648456445494D+02 -.330009678933079D+02
 0.270411022549896D+02 -.751633841865270D+01 0.254314347122102D+02 -.528847770343009D+01
 0.227787559347711D+02 0.224725897353360D+02 0.352195577492795D+01 -.120426742984906D+01
 0.132687716360089D+03 0.000000000000000D+00 0.000000000000000D+00 0.132687716360089D+03
 0.132687716360089D+03 0.000000000000000D+00 0.000000000000000D+00 -.132687716360089D+03
 0.134460439039691D+03 -.142983561489380D+02 0.280015184245262D+02 0.382894455967380D+02
 0.104073719495024D+03 0.195374292670049D+02 -.537898513745853D+02 -.330009678933079D+02
 0.000000000000000D+00 0.000000000000000D+00 0.000000000000000D+00 -.000000000000000D+00
 0.268412741854635D+02 -.523907311806690D+01 0.257883329500591D+02 -.528847770343009D+01
 0.143961511430204D+03 0.000000000000000D+00 0.000000000000000D+00 0.143961511430204D+03
 0.145165778860053D+03 0.000000000000000D+00 0.000000000000000D+00 -.145165778860053D+03
 0.135792682388642D+03 -.257202364827403D+02 0.262114551574112D+02 0.382894455967380D+02
 0.103514749711854D+03 0.107639851660570D+02 -.551648456445494D+02 -.330009678933079D+02
 0.227787559347711D+02 0.224725897353360D+02 0.352195577492795D+01 -.120426742984906D+01
 0.270411022549896D+02 -.751633841865270D+01 0.254314347122102D+02 -.528847770343009D+01
0.666009486498D-04 0.000000000000D+00 0.000000000000D+00 0.313940107828D-04 0.000000000000D+00  6 2 -1 25 24 21 21 2 0.73306762D-01 0.56844793D-02 0.16117771D+05 0.16117771D+05 0.16117771D+05 0.12442798D+01  1  2  2  2  6  2       -1 0.105926633260D+00 0.100000000000D+01
0.947942892279D-05 0.351462861922D-05 -.255765179248D-06 0.313940107828D-04 0.000000000000D+00  6 2 -1 25 24 21 21 4 0.73306762D-01 0.56844793D-02 0.16117771D+05 0.16117771D+05 0.16117771D+05 0.12442798D+01  1  2  3  2  6  2       -1 0.233422654500D-01 0.100000000000D+01
0.240311742339D-05 0.000000000000D+00 0.000000000000D+00 0.313940107828D-04 0.000000000000D+00  6 2 -1 25 24 21 21 4 0.73306762D-01 0.56844793D-02 0.16117771D+05 0.16117771D+05 0.16117771D+05 0.12442798D+01  1  2 15  2  6  2       -1 0.591746668088D-02 0.100000000000D+01
-.157860455449D-04 0.000000000000D+00 0.000000000000D+00 0.313940107828D-04 0.000000000000D+00  6 2 -1 25 24 21 21 4 0.73306762D-01 0.56844793D-02 0.16117771D+05 0.16117771D+05 0.16117771D+05 0.12442798D+01  1  2  4  2  6  2       -1 -.388717578366D-01 0.100000000000D+01
-.366774212843D-03 0.000000000000D+00 -.969844153215D-04 0.313940107828D-04 0.000000000000D+00  6 2 -1 25 24 21 21 4 0.73306762D-01 0.67464326D-02 0.16117771D+05 0.16117771D+05 0.16117771D+05 0.12442798D+01  1  2  5  2  6  2       -1 -.699854356204D+00 0.100000000000D+01
0.379214762362D-03 0.000000000000D+00 0.955790835875D-04 0.313940107828D-04 0.000000000000D+00  6 2 -1 25 24 21 21 4 0.73306762D-01 0.56844793D-02 0.16117771D+05 0.16117771D+05 0.16117771D+05 0.12442798D+01  1  2  6  2  6  2       -1 0.933783218136D+00 0.100000000000D+01
-.845021688543D-05 0.000000000000D+00 -.245986007355D-05 0.313940107828D-04 0.000000000000D+00  6 2 21 25 24 1 21 4 0.73306762D-01 0.67464326D-02 0.16117771D+05 0.16117771D+05 0.16117771D+05 0.12442798D+01  3  4  5  5  5  2       -1 -.265627317828D+00 0.100000000000D+01
  </mgrwgt>
  </event>
  <event>
  6     66 -.42622971E-03 0.12464346E+02 0.75467711E-02 0.12078908E+00
        2 -1    0    0  502    0 0.00000000E+00 0.00000000E+00 0.86992396E+02 0.86992984E+02 0.32000000E+00 0.0000E+00 0.9000E+01
       -1 -1    0    0    0  501 -.00000000E+00 -.00000000E+00 -.27462625E+03 0.27462643E+03 0.32000000E+00 0.0000E+00 0.9000E+01
       25  1    1    2    0    0 0.12916292E+02 -.74929414E+02 -.14084449E+03 0.20308475E+03 0.12500000E+03 0.0000E+00 0.9000E+01
       24  1    1    2    0    0 0.91490883E+01 0.72126153E+02 -.12423917E+02 0.10912130E+03 0.80419002E+02 0.0000E+00 0.9000E+01
       21  1    1    2  503  501 -.14439217E+02 0.13940616E+02 -.12348199E+02 0.23576944E+02 0.75000000E+00 0.0000E+00 0.9000E+01
       21  1    1    2  502  503 -.76261639E+01 -.11137355E+02 -.22017247E+02 0.25836422E+02 0.75000000E+00 0.0000E+00 0.9000E+01
#aMCatNLO 2  0  0  5  2 0.13810727D+02 0.00000000D+00  -5  6  0 0.00000000D+00 0.00000000D+00 0.00000000D+00 0.00000000D+00 0.00000000D+00
  <mgrwgt>
 -.7475605817D-01    2    2    0
 0.154565634159755D+03 0.000000000000000D+00 0.000000000000000D+00 0.154565634159755D+03
 0.154565634159755D+03 -.000000000000000D+00 -.000000000000000D+00 -.154565634159755D+03
 0.152327729227315D+03 0.185664440005308D+02 -.756472289872045D+02 -.388782843665036D+02
 0.121097888883319D+03 0.136261709949313D+02 0.715573688866451D+02 0.537713042399356D+02
 0.357056502088764D+02 -.321926149954620D+02 0.408986010055938D+01 -.148930198734320D+02
 0.000000000000000D+00 0.000000000000000D+00 -.000000000000000D+00 0.000000000000000D+00
 0.154565634159755D+03 0.000000000000000D+00 0.000000000000000D+00 0.154565634159755D+03
 0.154565634159755D+03 -.000000000000000D+00 -.000000000000000D+00 -.154565634159755D+03
 0.152078050088273D+03 0.128985470525563D+02 -.749271599407828D+02 -.415003795861261D+02
 0.120105515707120D+03 0.913507347440138D+01 0.721279333021026D+02 0.516936226152462D+02
 0.194568272332521D+02 -.135781553297337D+02 0.139319905907071D+02 0.318531013713335D+00
 0.174908752908653D+02 -.845546519722398D+01 -.111327639520269D+02 -.105117740428334D+02
-.611520343994D-04 0.000000000000D+00 0.000000000000D+00 0.178717858397D-04 0.000000000000D+00  6 2 -1 25 24 21 21 4 0.13383505D-01 0.42250251D-01 0.20757854D+05 0.20757854D+05 0.20757854D+05 0.12320518D+01  1  2 13  3  6  5       21 -.389883220288D-01 0.100000000000D+01
-.561006403155D-04 0.000000000000D+00 0.000000000000D+00 0.178717858397D-04 0.000000000000D+00  6 2 -1 25 24 21 21 4 0.13383505D-01 0.42250251D-01 0.20757854D+05 0.20757854D+05 0.20757854D+05 0.12320518D+01  1  2 13  3  6  5       21 -.357677361371D-01 0.100000000000D+01
  </mgrwgt>
  </event>
  <event>
  5     66 0.42622971E-03 0.22160771E+02 0.75467711E-02 0.11899637E+00
        2 -1    0    0  502    0 0.00000000E+00 0.00000000E+00 0.10153556E+03 0.10153606E+03 0.32000000E+00 0.0000E+00 0.9000E+01
       -1 -1    0    0    0  501 0.00000000E+00 0.00000000E+00 -.17268492E+03 0.17268522E+03 0.32000000E+00 0.0000E+00 0.9000E+01
       25  1    1    2    0    0 0.13825683E+02 -.19303607E+02 0.79484341E+01 0.12748316E+03 0.12500000E+03 0.0000E+00 0.9000E+01
       24  1    1    2    0    0 -.31626979E+02 0.61177666E+01 -.87408558E+02 0.12306569E+03 0.80419002E+02 0.0000E+00 0.9000E+01
       21  1    1    2  502  501 0.17801296E+02 0.13185840E+02 0.83107573E+01 0.23672425E+02 0.75000000E+00 0.0000E+00 0.9000E+01
#aMCatNLO 1  0  0  1  5 0.23228718D+02 0.00000000D+00  -5  6  0 0.00000000D+00 0.00000000D+00 0.00000000D+00 0.00000000D+00 0.00000000D+00
  <mgrwgt>
 0.3444750675D+00    3    2    0
 0.132415140684230D+03 0.000000000000000D+00 0.000000000000000D+00 0.132415140684230D+03
 0.132415140684230D+03 0.000000000000000D+00 0.000000000000000D+00 -.132415140684230D+03
 0.134138266517961D+03 0.138221354256092D+02 -.193062346113839D+02 0.424769634254845D+02
 0.103948446821408D+03 -.316297283372346D+02 0.611573034264522D+01 -.574475566921800D+02
 0.267435680290909D+02 0.178075929116254D+02 0.131905042687387D+02 0.149705932666955D+02
 0.000000000000000D+00 -.000000000000000D+00 0.000000000000000D+00 -.000000000000000D+00
 0.150718309583003D+03 0.000000000000000D+00 0.000000000000000D+00 0.150718309583003D+03
 0.232997008374243D+03 0.000000000000000D+00 0.000000000000000D+00 -.232997008374243D+03
 0.144244549893225D+03 0.489689320799704D+02 -.312928337322845D+02 0.424769634254845D+02
 0.990471479269085D+02 -.600083003694616D+01 -.262484800527564D+01 -.574475566921800D+02
 0.311340665865587D+02 0.251148451368023D+02 0.106984107798251D+02 0.149705932666955D+02
 0.109289553550554D+03 -.680829471798265D+02 0.232192709577350D+02 -.822786987912400D+02
0.337822564551D-03 0.000000000000D+00 0.000000000000D+00 0.409374034070D-04 0.000000000000D+00  6 2 -1 25 24 21 21 2 0.15620916D-01 0.26566973D-01 0.13927263D+05 0.13927263D+05 0.13927263D+05 0.12515131D+01  1  2  2  1  6  1        2 0.266476521144D+00 0.100000000000D+01
0.486071354310D-04 0.178273865111D-04 -.129732759860D-05 0.409374034070D-04 0.000000000000D+00  6 2 -1 25 24 21 21 4 0.15620916D-01 0.26566973D-01 0.13927263D+05 0.13927263D+05 0.13927263D+05 0.12515131D+01  1  2  3  1  6  1        2 0.600538862280D-01 0.100000000000D+01
0.145242644182D-04 0.000000000000D+00 0.000000000000D+00 0.409374034070D-04 0.000000000000D+00  6 2 -1 25 24 21 21 4 0.15620916D-01 0.26566973D-01 0.13927263D+05 0.13927263D+05 0.13927263D+05 0.12515131D+01  1  2 15  1  6  1        2 0.179446600829D-01 0.100000000000D+01
  </mgrwgt>
  </event>
  <event>
  5     66 0.42622971E-03 0.22286559E+02 0.75467711E-02 0.10522456E+00
        2 -1    0    0  502    0 0.00000000E+00 0.00000000E+00 0.30166178E+04 0.30166178E+04 0.32000000E+00 0.0000E+00 0.9000E+01
       -1 -1    0    0    0  501 0.00000000E+00 0.00000000E+00 -.31113053E+02 0.31114698E+02 0.32000000E+00 0.0000E+00 0.9000E+01
       25  1    1    2    0    0 0.27240864E+03 -.56568461E+02 0.16653529E+04 0.16930540E+04 0.12500000E+03 0.0000E+00 0.9000E+01
       24  1    1    2    0    0 -.25922866E+03 0.74525725E+02 0.12337394E+04 0.12654382E+04 0.80419002E+02 0.0000E+00 0.9000E+01
       21  1    1    2  502  501 -.13179980E+02 -.17957264E+02 0.86412375E+02 0.89240328E+02 0.75000000E+00 0.0000E+00 0.9000E+01
#aMCatNLO 1  0  0  2  2 0.13050412D+03 0.00000000D+00  -5  6  0 0.00000000D+00 0.00000000D+00 0.00000000D+00 0.00000000D+00 0.00000000D+00
  <mgrwgt>
 0.1964435408D+01    4    2    0
 0.306363706747349D+03 0.000000000000000D+00 0.000000000000000D+00 0.306363706747349D+03
 0.306363706747349D+03 0.000000000000000D+00 0.000000000000000D+00 -.306363706747349D+03
 0.306919709117594D+03 0.272412199345076D+03 -.565636081428143D+02 0.341593285454108D+02
 0.282965876713548D+03 -.259225374382584D+03 0.745301983498618D+02 -.291534944738308D+02
 0.228418276635554D+02 -.131868249624919D+02 -.179665902070474D+02 -.500583407157999D+01
 0.000000000000000D+00 0.000000000000000D+00 -.000000000000000D+00 0.000000000000000D+00
 0.379629754144425D+03 0.000000000000000D+00 0.000000000000000D+00 0.379629754144425D+03
 0.377365252248755D+03 0.000000000000000D+00 0.000000000000000D+00 -.377365252248755D+03
 0.263679754181361D+03 0.229160957742056D+03 -.148461606219686D+02 0.341593285454108D+02
 0.340072361974033D+03 -.306451456989813D+03 0.120081529358232D+03 -.291534944738308D+02
 0.227191200964911D+02 -.166403290156493D+02 -.146355557959900D+02 -.500583407157999D+01
 0.130523770141295D+03 0.939308282634065D+02 -.905998129402738D+02 0.226450189566930D+01
0.195027800598D-01 0.000000000000D+00 0.000000000000D+00 0.291361234700D-04 0.000000000000D+00  6 2 -1 25 24 21 21 2 0.46409517D+00 0.47867514D-02 0.92647025D+05 0.92647025D+05 0.92647025D+05 0.11666309D+01  1  2  2  2  6  2       -1 0.114667206665D+01 0.100000000000D+01
0.102573225699D-01 0.102918997915D-02 -.748958106295D-04 0.291361234700D-04 0.000000000000D+00  6 2 -1 25 24 21 21 4 0.46409517D+00 0.47867514D-02 0.92647025D+05 0.92647025D+05 0.92647025D+05 0.11666309D+01  1  2  3  2  6  2       -1 0.820812014404D+00 0.100000000000D+01
0.330445719935D-03 0.000000000000D+00 0.000000000000D+00 0.291361234700D-04 0.000000000000D+00  6 2 -1 25 24 21 21 4 0.46409517D+00 0.47867514D-02 0.92647025D+05 0.92647025D+05 0.92647025D+05 0.11666309D+01  1  2 15  2  6  2       -1 0.264429450457D-01 0.100000000000D+01
-.368543636780D-03 0.000000000000D+00 0.000000000000D+00 0.291361234700D-04 0.000000000000D+00  6 2 -1 25 24 21 21 4 0.46409517D+00 0.47867514D-02 0.92647025D+05 0.92647025D+05 0.92647025D+05 0.11666309D+01  1  2  4  2  6  2       -1 -.294916185818D-01 0.100000000000D+01
  </mgrwgt>
  </event>
  <event>
  6     66 -.42622971E-03 0.21443015E+02 0.75467711E-02 0.11486127E+00
        2 -1    0    0  502    0 0.00000000E+00 0.00000000E+00 0.20099534E+04 0.20099535E+04 0.32000000E+00 0.0000E+00 0.9000E+01
       21 -1    0    0  503  501 0.00000000E+00 0.00000000E+00 -.58642494E+02 0.58647290E+02 0.75000000E+00 0.0000E+00 0.9000E+01
       25  1    1    2    0    0 0.15573251E+03 -.34196391E+02 0.41341619E+03 0.46039108E+03 0.12500000E+03 0.0000E+00 0.9000E+01
       24  1    1    2    0    0 -.11829641E+03 -.57693739E+01 0.16622885E+03 0.21937770E+03 0.80419002E+02 0.0000E+00 0.9000E+01
        1  1    1    2  503    0 -.27716016E+02 0.18402933E+02 0.24158215E+02 0.41116508E+02 0.32000000E+00 0.0000E+00 0.9000E+01
       21  1    1    2  502  501 -.97200825E+01 0.21562832E+02 0.13475077E+04 0.13477155E+04 0.75000000E+00 0.0000E+00 0.9000E+01
#aMCatNLO 2  0  0  2  5 0.33269287D+02 0.00000000D+00  -5  6  0 0.00000000D+00 0.00000000D+00 0.00000000D+00 0.00000000D+00 0.00000000D+00
  <mgrwgt>
 -.4728101766D+00    2    2    0
 0.314510685117211D+03 0.000000000000000D+00 0.000000000000000D+00 0.314510685117211D+03
 0.314510685117211D+03 0.000000000000000D+00 0.000000000000000D+00 -.314510685117211D+03
 0.209490598242402D+03 0.146341986733618D+03 -.279612840552759D+02 -.778684805604763D+02
 0.202869307542912D+03 -.127111855312184D+03 0.838921021135235D-01 -.136129751302864D+03
 0.000000000000000D+00 -.000000000000000D+00 0.000000000000000D+00 -.000000000000000D+00
 0.216661464449107D+03 -.192301314214335D+02 0.278773919531623D+02 0.213998231863340D+03
 0.320148381657593D+03 0.000000000000000D+00 0.000000000000000D+00 0.320148381657593D+03
 0.368183501927870D+03 0.000000000000000D+00 0.000000000000000D+00 -.368183501927870D+03
 0.217049595492230D+03 0.155732556836348D+03 -.341964527364607D+02 -.778684805604763D+02
 0.197549591389667D+03 -.118296363135557D+03 -.576943523878463D+01 -.136129751302864D+03
 0.584313123119447D+02 -.277160157922913D+02 0.184029331281033D+02 -.480351202702776D+02
 0.215301384391622D+03 -.972017790849973D+01 0.215629548471420D+02 0.213998231863340D+03
-.259510920810D-03 0.000000000000D+00 0.000000000000D+00 0.258275288934D-04 0.000000000000D+00  6 2 21 25 24 1 21 4 0.30377825D+00 0.91173021D-02 0.40538119D+05 0.40538119D+05 0.40538119D+05 0.12014114D+01  1  2 13  5  5  2       -1 -.510904087737D+00 0.100000000000D+01
0.198194599640D-04 0.000000000000D+00 0.000000000000D+00 0.260615606018D-04 0.908318416174D-08  6 2 21 25 24 1 21 4 0.30922356D+00 0.90222809D-02 0.40538119D+05 0.40538119D+05 0.40538119D+05 0.12014114D+01  1  2  1  5  5  2       -1 0.380939111825D-01 0.100000000000D+01
  </mgrwgt>
  </event>
  <event>
  6     66 -.42622971E-03 0.60306988E+01 0.75467711E-02 0.12335732E+00
        2 -1    0    0  502    0 0.00000000E+00 0.00000000E+00 0.11244540E+04 0.11244540E+04 0.32000000E+00 0.0000E+00 0.9000E+01
       -1 -1    0    0    0  501 0.00000000E+00 0.00000000E+00 -.15181455E+02 0.15184827E+02 0.32000000E+00 0.0000E+00 0.9000E+01
       25  1    1    2    0    0 -.18629140E+02 -.55767335E+02 0.59556655E+03 0.61137677E+03 0.12500000E+03 0.0000E+00 0.9000E+01
       24  1    1    2    0    0 0.12949215E+02 0.43491316E+02 0.33264616E+03 0.34522436E+03 0.80419002E+02 0.0000E+00 0.9000E+01
       21  1    1    2  503  501 0.92146440E+01 0.59709121E+01 0.32746083E+02 0.34546055E+02 0.75000000E+00 0.0000E+00 0.9000E+01
       21  1    1    2  502  503 -.35347191E+01 0.63051067E+01 0.14831375E+03 0.14849168E+03 0.75000000E+00 0.0000E+00 0.9000E+01
#aMCatNLO 2  0  0  5  2 0.10311453D+02 0.00000000D+00  -5  6  0 0.00000000D+00 0.00000000D+00 0.00000000D+00 0.00000000D+00 0.00000000D+00
  <mgrwgt>
 -.4181650297D+00    2    2    0
 0.130662905384630D+03 0.000000000000000D+00 0.000000000000000D+00 0.130662905384630D+03
 0.130662905384630D+03 -.000000000000000D+00 -.000000000000000D+00 -.130662905384630D+03
 0.140084536549410D+03 -.204896554933825D+02 -.597884666729055D+02 -.204710794251490D+01
 0.926041330946061D+02 0.117047301962007D+02 0.408016119708646D+02 -.175082056032632D+02
 0.286371411252445D+02 0.878492529718174D+01 0.189868547020409D+02 0.195553135457781D+02
 0.000000000000000D+00 -.000000000000000D+00 0.000000000000000D+00 0.000000000000000D+00
 0.130662905384630D+03 0.000000000000000D+00 0.000000000000000D+00 0.130662905384630D+03
 0.130662905384630D+03 -.000000000000000D+00 -.000000000000000D+00 -.130662905384630D+03
 0.138233851841770D+03 -.187112941125903D+02 -.559448950997182D+02 0.191153862790619D+01
 0.934633219574268D+02 0.128936389786910D+02 0.433711999347333D+02 -.148616852024141D+02
 0.107994440020530D+02 0.852112712450143D+01 0.517480528029779D+01 -.415208063416004D+01
 0.188291929680111D+02 -.270347199060217D+01 0.739888988468712D+01 0.171022272086680D+02
-.541987219062D-04 0.000000000000D+00 0.000000000000D+00 0.553342713629D-04 0.000000000000D+00  6 2 -1 25 24 21 21 4 0.17299319D+00 0.23358713D-02 0.15418375D+05 0.15418375D+05 0.15418375D+05 0.12464628D+01  1  2 13  3  6  5       21 -.172063043949D+00 0.100000000000D+01
-.775204993503D-04 0.000000000000D+00 0.000000000000D+00 0.553342713629D-04 0.000000000000D+00  6 2 -1 25 24 21 21 4 0.17299319D+00 0.23358713D-02 0.15418375D+05 0.15418375D+05 0.15418375D+05 0.12464628D+01  1  2 13  3  6  5       21 -.246101985758D+00 0.100000000000D+01
  </mgrwgt>
  </event>
  <event>
  5     66 0.42622971E-03 0.94802503E+02 0.75467711E-02 0.10493459E+00
        2 -1    0    0  502    0 0.00000000E+00 0.00000000E+00 0.43666983E+03 0.43666995E+03 0.32000000E+00 0.0000E+00 0.9000E+01
       -1 -1    0    0    0  501 0.00000000E+00 0.00000000E+00 -.11744172E+03 0.11744216E+03 0.32000000E+00 0.0000E+00 0.9000E+01
       25  1    1    2    0    0 0.95770113E+02 0.11921031E+03 0.43643195E+02 0.20226898E+03 0.12500000E+03 0.0000E+00 0.9000E+01
       24  1    1    2    0    0 -.19715779E+02 -.62616935E+02 0.21658847E+03 0.24018196E+03 0.80419002E+02 0.0000E+00 0.9000E+01
       21  1    1    2  502  501 -.76054333E+02 -.56593379E+02 0.58996446E+02 0.11166116E+03 0.75000000E+00 0.0000E+00 0.9000E+01
#aMCatNLO 1  0  0  2  5 0.37995523D+01 0.00000000D+00  -5  6  0 0.00000000D+00 0.00000000D+00 0.00000000D+00 0.00000000D+00 0.00000000D+00
  <mgrwgt>
 0.1560625736D+00    3    2    0
 0.226458406774210D+03 0.000000000000000D+00 0.000000000000000D+00 0.226458406774210D+03
 0.226458406774210D+03 0.000000000000000D+00 0.000000000000000D+00 -.226458406774210D+03
 0.216701995019147D+03 0.957712460736476D+02 0.119211157207478D+03 -.891701915890807D+02
 0.141188103594048D+03 -.197150407238080D+02 -.626163856698505D+02 0.956941484993535D+02
 0.950267149352241D+02 -.760562053498396D+02 -.565947715376278D+02 -.652395691027290D+01
 0.000000000000000D+00 0.000000000000000D+00 0.000000000000000D+00 0.000000000000000D+00
 0.106698243741611D+04 0.000000000000000D+00 0.000000000000000D+00 0.106698243741611D+04
 0.292426174560928D+03 0.000000000000000D+00 0.000000000000000D+00 -.292426174560928D+03
 0.165043669309758D+03 0.583529036978189D+02 0.160632606038925D+02 -.891701915890807D+02
 0.207716063251668D+03 -.539142911444701D+02 -.156890490890218D+03 0.956941484993535D+02
 0.161732986250535D+03 -.101223543986609D+03 -.125971389491978D+03 -.652395691027290D+01
 0.824915893165076D+03 0.967849314332605D+02 0.266798619778304D+03 0.774556262855182D+03
0.566676012936D-03 0.000000000000D+00 0.000000000000D+00 0.153489691241D-05 0.000000000000D+00  6 2 -1 25 24 21 21 2 0.67180017D-01 0.18068000D-01 0.39227558D+05 0.39227558D+05 0.39227558D+05 0.12028612D+01  1  2  2  2  6  2       -1 0.159798664597D+00 0.100000000000D+01
-.281815656629D-04 0.299043147773D-04 -.217618509889D-05 0.153489691241D-05 0.000000000000D+00  6 2 -1 25 24 21 21 4 0.67180017D-01 0.18068000D-01 0.39227558D+05 0.39227558D+05 0.39227558D+05 0.12028612D+01  1  2  3  2  6  2       -1 -.114983221007D-01 0.100000000000D+01
0.190246735639D-04 0.000000000000D+00 0.000000000000D+00 0.153489691241D-05 0.000000000000D+00  6 2 -1 25 24 21 21 4 0.67180017D-01 0.18068000D-01 0.39227558D+05 0.39227558D+05 0.39227558D+05 0.12028612D+01  1  2 15  2  6  2       -1 0.776223106679D-02 0.100000000000D+01
  </mgrwgt>
  </event>
  <event>
  6     66 -.42622971E-03 0.12057398E+02 0.75467711E-02 0.12394695E+00
        2 -1    0    0  502    0 0.00000000E+00 0.00000000E+00 0.10762739E+03 0.10762786E+03 0.32000000E+00 0.0000E+00 0.9000E+01
       -1 -1    0    0    0  501 -.00000000E+00 -.00000000E+00 -.20602654E+03 0.20602679E+03 0.32000000E+00 0.0000E+00 0.9000E+01
       25  1    1    2    0    0 -.32378154E+02 0.40345405E+02 0.34540780E+02 0.13962150E+03 0.12500000E+03 0.0000E+00 0.9000E+01
       24  1    1    2    0    0 0.23855831E+02 -.27059818E+02 -.11969390E+03 0.14864448E+03 0.80419002E+02 0.0000E+00 0.9000E+01
       21  1    1    2  502  503 0.49497368E+01 -.13517642E+02 -.15440237E+02 0.21123209E+02 0.75000000E+00 0.0000E+00 0.9000E+01
       21  1    1    2  503  501 0.35725865E+01 0.23205520E+00 0.21942031E+01 0.42654720E+01 0.75000000E+00 0.0000E+00 0.9000E+01
#aMCatNLO 2  0  0  5  2 0.54839226D+01 0.00000000D+00  -5  6  0 0.00000000D+00 0.00000000D+00 0.00000000D+00 0.00000000D+00 0.00000000D+00
  <mgrwgt>
 -.2073302635D+00    3    2    0
 0.148910080587845D+03 0.000000000000000D+00 0.000000000000000D+00 0.148910080587845D+03
 0.148910080587845D+03 -.000000000000000D+00 -.000000000000000D+00 -.148910080587845D+03
 0.159934433618002D+03 -.339244025866686D+02 0.427558761104885D+02 0.835170223599550D+02
 0.115892978818143D+03 0.227247963486505D+02 -.252966300800135D+02 -.762078127391108D+02
 0.219927487395448D+02 0.111996062380181D+02 -.174592460304750D+02 -.730920962084414D+01
 0.000000000000000D+00 0.000000000000000D+00 0.000000000000000D+00 0.000000000000000D+00
 0.148910080587845D+03 0.000000000000000D+00 0.000000000000000D+00 0.148910080587845D+03
 0.148910080587845D+03 -.000000000000000D+00 -.000000000000000D+00 -.148910080587845D+03
 0.158395095870611D+03 -.323122367422185D+02 0.402426448841411D+02 0.824648730387896D+02
 0.117049399653201D+03 0.239045227375273D+02 -.271357244940765D+02 -.769777386890314D+02
 0.168628061099737D+02 0.453075410313221D+01 -.132435093088645D+02 -.940403946958624D+01
 0.551285954190475D+01 0.387695990155896D+01 0.136588918799895D+00 0.391690511982807D+01
-.309607518878D-04 0.000000000000D+00 0.000000000000D+00 0.345476542560D-04 0.000000000000D+00  6 2 -1 25 24 21 21 4 0.16558115D-01 0.31696447D-01 0.14554917D+05 0.14554917D+05 0.14554917D+05 0.12493166D+01  1  2 13  3  6  5       21 -.264894620631D-01 0.100000000000D+01
-.284055912239D-04 0.000000000000D+00 0.000000000000D+00 0.345476542560D-04 0.000000000000D+00  6 2 -1 25 24 21 21 4 0.16558115D-01 0.31696447D-01 0.14554917D+05 0.14554917D+05 0.14554917D+05 0.12493166D+01  1  2 13  3  6  5       21 -.243033125885D-01 0.100000000000D+01
-.183590228173D-03 0.000000000000D+00 0.000000000000D+00 0.344761890078D-04 0.000000000000D+00  6 2 -1 25 24 21 21 4 0.16558115D-01 0.31696447D-01 0.14939171D+05 0.14939171D+05 0.14939171D+05 0.12480238D+01  1  2  8  3  6  5       21 -.156537488842D+00 0.100000000000D+01
  </mgrwgt>
  </event>
  <event>
  5     66 0.42622971E-03 0.45535336E+02 0.75467711E-02 0.12006699E+00
        2 -1    0    0  502    0 0.00000000E+00 0.00000000E+00 0.18978316E+04 0.18978317E+04 0.32000000E+00 0.0000E+00 0.9000E+01
       -1 -1    0    0    0  501 0.00000000E+00 0.00000000E+00 -.29369319E+02 0.29371063E+02 0.32000000E+00 0.0000E+00 0.9000E+01
       25  1    1    2    0    0 0.26340507E+02 0.15507969E+02 0.39727785E+03 0.41759910E+03 0.12500000E+03 0.0000E+00 0.9000E+01
       24  1    1    2    0    0 0.18900888E+02 -.20671253E+02 0.77402488E+02 0.11507782E+03 0.80419002E+02 0.0000E+00 0.9000E+01
       21  1    1    2  502  501 -.45241395E+02 0.51632841E+01 0.13937820E+04 0.13945258E+04 0.75000000E+00 0.0000E+00 0.9000E+01
#aMCatNLO 1  0  0  5  2 0.27737060D+02 0.00000000D+00  -5  6  0 0.00000000D+00 0.00000000D+00 0.00000000D+00 0.00000000D+00 0.00000000D+00
  <mgrwgt>
 0.1709537970D+00   15    2    0
 0.236092628136527D+03 0.000000000000000D+00 0.000000000000000D+00 0.236092628136527D+03
 0.236092628136527D+03 -.000000000000000D+00 -.000000000000000D+00 -.236092628136527D+03
 0.132362227217082D+03 0.263406218520707D+02 0.155079555354162D+02 -.309908720339418D+02
 0.163399607611169D+03 0.189010295429228D+02 -.206712688979335D+02 -.139454887105044D+03
 0.176423421444803D+03 -.452416513949935D+02 0.516331336251732D+01 0.170445759138985D+03
 0.000000000000000D+00 0.000000000000000D+00 0.000000000000000D+00 0.000000000000000D+00
 0.236092628136527D+03 0.000000000000000D+00 0.000000000000000D+00 0.236092628136527D+03
 0.236092628136527D+03 -.000000000000000D+00 -.000000000000000D+00 -.236092628136527D+03
 0.131070672216580D+03 0.250468457209767D+02 0.156556108791051D+02 -.261166323008493D+02
 0.158148115442026D+03 0.173218389027705D+02 -.204910399300943D+02 -.133505361851513D+03
 0.150012117959967D+03 -.610840332785246D+02 0.178803635080176D+02 0.135840601493384D+03
 0.329543506544818D+02 0.187153486547773D+02 -.130449344570284D+02 0.237813926589782D+02
0.190343165608D-03 0.000000000000D+00 0.000000000000D+00 0.188253546880D-04 0.000000000000D+00  6 2 -1 25 24 21 21 2 0.29197423D+00 0.45184930D-02 0.16818936D+05 0.16818936D+05 0.16818936D+05 0.12421954D+01  1  2  2  3  6  5       21 0.580933638378D-01 0.100000000000D+01
0.943621814619D-05 0.100446848113D-04 -.730967874441D-06 0.188253546880D-04 0.000000000000D+00  6 2 -1 25 24 21 21 4 0.29197423D+00 0.45184930D-02 0.16818936D+05 0.16818936D+05 0.16818936D+05 0.12421954D+01  1  2  3  3  6  5       21 0.444392803939D-02 0.100000000000D+01
0.884448775728D-05 0.000000000000D+00 0.000000000000D+00 0.188253546880D-04 0.000000000000D+00  6 2 -1 25 24 21 21 4 0.29197423D+00 0.45184930D-02 0.16818936D+05 0.16818936D+05 0.16818936D+05 0.12421954D+01  1  2 15  3  6  5       21 0.416525630604D-02 0.100000000000D+01
0.292471457310D-03 0.000000000000D+00 0.000000000000D+00 0.184075871020D-04 0.000000000000D+00  6 2 -1 25 24 21 21 4 0.29197423D+00 0.45184930D-02 0.22451972D+05 0.22451972D+05 0.22451972D+05 0.12283348D+01  1  2 12  3  6  5       21 0.131513403902D+00 0.100000000000D+01
-.131933705276D-03 0.000000000000D+00 0.000000000000D+00 0.188253546880D-04 0.000000000000D+00  6 2 -1 25 24 21 21 4 0.29197423D+00 0.45184930D-02 0.16818936D+05 0.16818936D+05 0.16818936D+05 0.12421954D+01  1  2  4  3  6  5       21 -.621333550297D-01 0.100000000000D+01
-.473442610770D-03 0.000000000000D+00 0.000000000000D+00 0.188253546880D-04 0.000000000000D+00  6 2 -1 25 24 21 21 4 0.29197423D+00 0.45184930D-02 0.16818936D+05 0.16818936D+05 0.16818936D+05 0.12421954D+01  1  2  5  3  6  5       21 -.222964842530D+00 0.100000000000D+01
0.555482745707D-03 0.000000000000D+00 -.000000000000D+00 0.188253546880D-04 0.000000000000D+00  6 2 -1 25 24 21 21 4 0.29197423D+00 0.45184930D-02 0.16818936D+05 0.16818936D+05 0.16818936D+05 0.12421954D+01  1  2  6  3  6  5       21 0.261601132022D+00 0.100000000000D+01
0.332783361353D-05 0.000000000000D+00 0.000000000000D+00 0.184075871020D-04 0.000000000000D+00  6 2 -1 25 24 1 -1 4 0.29197423D+00 0.45184930D-02 0.22451972D+05 0.22451972D+05 0.22451972D+05 0.12283348D+01  1  2 12  6  6  5       21 0.149640149558D-02 0.100000000000D+01
-.517614646608D-05 0.000000000000D+00 0.000000000000D+00 0.188253546880D-04 0.000000000000D+00  6 2 -1 25 24 1 -1 4 0.29197423D+00 0.45184930D-02 0.16818936D+05 0.16818936D+05 0.16818936D+05 0.12421954D+01  1  2  5  6  6  5       21 -.243767387106D-02 0.100000000000D+01
0.332783361353D-05 0.000000000000D+00 0.000000000000D+00 0.184075871020D-04 0.000000000000D+00  6 2 -1 25 24 2 -2 4 0.29197423D+00 0.45184930D-02 0.22451972D+05 0.22451972D+05 0.22451972D+05 0.12283348D+01  1  2 12  7  6  5       21 0.149640149558D-02 0.100000000000D+01
-.517614646608D-05 0.000000000000D+00 0.000000000000D+00 0.188253546880D-04 0.000000000000D+00  6 2 -1 25 24 2 -2 4 0.29197423D+00 0.45184930D-02 0.16818936D+05 0.16818936D+05 0.16818936D+05 0.12421954D+01  1  2  5  7  6  5       21 -.243767387106D-02 0.100000000000D+01
0.332783361353D-05 0.000000000000D+00 0.000000000000D+00 0.184075871020D-04 0.000000000000D+00  6 2 -1 25 24 3 -3 4 0.29197423D+00 0.45184930D-02 0.22451972D+05 0.22451972D+05 0.22451972D+05 0.12283348D+01  1  2 12  8  6  5       21 0.149640149558D-02 0.100000000000D+01
0.332783361353D-05 0.000000000000D+00 0.000000000000D+00 0.184075871020D-04 0.000000000000D+00  6 2 -1 25 24 4 -4 4 0.29197423D+00 0.45184930D-02 0.22451972D+05 0.22451972D+05 0.22451972D+05 0.12283348D+01  1  2 12  8  6  5       21 0.149640149558D-02 0.100000000000D+01
-.517614646608D-05 0.000000000000D+00 0.000000000000D+00 0.188253546880D-04 0.000000000000D+00  6 2 -1 25 24 3 -3 4 0.29197423D+00 0.45184930D-02 0.16818936D+05 0.16818936D+05 0.16818936D+05 0.12421954D+01  1  2  5  8  6  5       21 -.243767387106D-02 0.100000000000D+01
-.517614646608D-05 0.000000000000D+00 0.000000000000D+00 0.188253546880D-04 0.000000000000D+00  6 2 -1 25 24 4 -4 4 0.29197423D+00 0.45184930D-02 0.16818936D+05 0.16818936D+05 0.16818936D+05 0.12421954D+01  1  2  5  8  6  5       21 -.243767387106D-02 0.100000000000D+01
  </mgrwgt>
  </event>
  <event>
  5     66 0.42622971E-03 0.35398918E+02 0.75467711E-02 0.11737676E+00
        2 -1    0    0  502    0 0.00000000E+00 0.00000000E+00 0.59117782E+03 0.59117791E+03 0.32000000E+00 0.0000E+00 0.9000E+01
       -1 -1    0    0    0  501 0.00000000E+00 0.00000000E+00 -.35733382E+02 0.35734815E+02 0.32000000E+00 0.0000E+00 0.9000E+01
       25  1    1    2    0    0 -.86293933E+02 0.98858218E+01 0.22994687E+03 0.27576247E+03 0.12500000E+03 0.0000E+00 0.9000E+01
       24  1    1    2    0    0 0.52227039E+02 -.28882111E+00 0.22421760E+03 0.24386163E+03 0.80419002E+02 0.0000E+00 0.9000E+01
       21  1    1    2  502  501 0.34066893E+02 -.95970007E+01 0.10127996E+03 0.10728863E+03 0.75000000E+00 0.0000E+00 0.9000E+01
#aMCatNLO 1  0  0  1  5 0.20548048D+03 0.00000000D+00  -5  6  0 0.00000000D+00 0.00000000D+00 0.00000000D+00 0.00000000D+00 0.00000000D+00
  <mgrwgt>
 0.1297944627D+00    7    4    0
 0.145345310983808D+03 0.000000000000000D+00 0.000000000000000D+00 0.145345310983808D+03
 0.145345310983808D+03 0.000000000000000D+00 0.000000000000000D+00 -.145345310983808D+03
 0.155343721106204D+03 -.862975061795573D+02 0.988682851690655D+01 -.310106874510833D+02
 0.974890210820586D+02 0.522247967038579D+02 -.288189346887119D+00 0.175892249206322D+02
 0.378578797793530D+02 0.340727094756994D+02 -.959863917001944D+01 0.134214625304511D+02
 0.000000000000000D+00 -.000000000000000D+00 0.000000000000000D+00 0.000000000000000D+00
 0.262521657345727D+03 0.000000000000000D+00 0.000000000000000D+00 0.262521657345727D+03
 0.155687332476577D+03 0.000000000000000D+00 0.000000000000000D+00 -.155687332476577D+03
 0.142348865545600D+03 -.604661031403785D+02 -.451521394260715D+01 -.310106874510833D+02
 0.108614436358146D+03 0.701088210821112D+02 -.102592496896772D+02 0.175892249206322D+02
 0.455227014258732D+02 0.413078154048652D+02 -.136325006924804D+02 0.134214625304511D+02
 0.121722986492685D+03 -.509505333465979D+02 0.284069643247648D+02 0.106834324869150D+03
 0.145345310983808D+03 0.000000000000000D+00 0.000000000000000D+00 0.145345310983808D+03
 0.145345310983808D+03 0.000000000000000D+00 0.000000000000000D+00 -.145345310983808D+03
 0.155343721106204D+03 -.862975061795573D+02 0.988682851690655D+01 -.310106874510833D+02
 0.974890210820586D+02 0.522247967038579D+02 -.288189346887119D+00 0.175892249206322D+02
 0.000000000000000D+00 -.000000000000000D+00 0.000000000000000D+00 0.000000000000000D+00
 0.378578797793530D+02 0.340727094756994D+02 -.959863917001944D+01 0.134214625304511D+02
 0.262521657345727D+03 0.000000000000000D+00 0.000000000000000D+00 0.262521657345727D+03
 0.155687332476577D+03 0.000000000000000D+00 0.000000000000000D+00 -.155687332476577D+03
 0.142348865545600D+03 -.604661031403785D+02 -.451521394260715D+01 -.310106874510833D+02
 0.108614436358146D+03 0.701088210821112D+02 -.102592496896772D+02 0.175892249206322D+02
 0.121722986492685D+03 -.509505333465979D+02 0.284069643247648D+02 0.106834324869150D+03
 0.455227014258732D+02 0.413078154048652D+02 -.136325006924804D+02 0.134214625304511D+02
0.498892076586D-04 0.000000000000D+00 0.000000000000D+00 0.172734128027D-04 0.000000000000D+00  6 2 -1 25 24 21 21 2 0.90950551D-01 0.54975603D-02 0.20093778D+05 0.20093778D+05 0.20093778D+05 0.12336024D+01  1  2  2  1  6  1        2 0.649824924155D-01 0.100000000000D+01
0.434787096804D-05 0.263272581820D-05 -.191587693539D-06 0.172734128027D-04 0.000000000000D+00  6 2 -1 25 24 21 21 4 0.90950551D-01 0.54975603D-02 0.20093778D+05 0.20093778D+05 0.20093778D+05 0.12336024D+01  1  2  3  1  6  1        2 0.861820558821D-02 0.100000000000D+01
0.133180192770D-05 0.000000000000D+00 0.000000000000D+00 0.172734128027D-04 0.000000000000D+00  6 2 -1 25 24 21 21 4 0.90950551D-01 0.54975603D-02 0.20093778D+05 0.20093778D+05 0.20093778D+05 0.12336024D+01  1  2 15  1  6  1        2 0.263985359733D-02 0.100000000000D+01
-.494140105214D-04 0.000000000000D+00 0.000000000000D+00 0.172734128027D-04 0.000000000000D+00  6 2 -1 25 24 21 21 4 0.90950551D-01 0.54975603D-02 0.20093778D+05 0.20093778D+05 0.20093778D+05 0.12336024D+01  1  2  4  1  6  1        2 -.979468123001D-01 0.100000000000D+01
-.156532549281D-03 0.000000000000D+00 -.309336386874D-04 0.172734128027D-04 0.000000000000D+00  6 2 -1 25 24 21 21 4 0.16938521D+00 0.54975603D-02 0.20093778D+05 0.20093778D+05 0.20093778D+05 0.12336024D+01  1  2  5  1  6  1        2 -.141308058972D+00 0.100000000000D+01
0.150806385062D-03 0.000000000000D+00 0.257851987192D-04 0.172734128027D-04 0.000000000000D+00  6 2 -1 25 24 21 21 4 0.90950551D-01 0.54975603D-02 0.20093778D+05 0.20093778D+05 0.20093778D+05 0.12336024D+01  1  2  6  1  6  1        2 0.298923413329D+00 0.100000000000D+01
-.888230024520D-05 0.000000000000D+00 -.209608603087D-05 0.172734128027D-04 0.000000000000D+00  6 21 -1 25 24 -2 21 4 0.16938521D+00 0.54975603D-02 0.20093778D+05 0.20093778D+05 0.20093778D+05 0.12336024D+01  3  4  5  4  5  1        2 -.611463093226D-02 0.100000000000D+01
  </mgrwgt>
  </event>
  <event>
  5     66 0.42622971E-03 0.61301806E+02 0.75467711E-02 0.10159750E+00
        2 -1    0    0  502    0 0.00000000E+00 0.00000000E+00 0.54418810E+02 0.54419751E+02 0.32000000E+00 0.0000E+00 0.9000E+01
       -1 -1    0    0    0  501 0.00000000E+00 0.00000000E+00 -.69630013E+03 0.69630021E+03 0.32000000E+00 0.0000E+00 0.9000E+01
       25  1    1    2    0    0 0.38388006E+02 0.19547912E+02 -.60530948E+02 0.14541236E+03 0.12500000E+03 0.0000E+00 0.9000E+01
       24  1    1    2    0    0 -.43577851E+02 0.41532463E+02 -.27237480E+03 0.29030884E+03 0.80419002E+02 0.0000E+00 0.9000E+01
       21  1    1    2  502  501 0.51898457E+01 -.61080375E+02 -.30897557E+03 0.31499875E+03 0.75000000E+00 0.0000E+00 0.9000E+01
#aMCatNLO 1  0  0  1  5 0.13378050D+01 0.00000000D+00  -5  6  0 0.00000000D+00 0.00000000D+00 0.00000000D+00 0.00000000D+00 0.00000000D+00
  <mgrwgt>
 0.1452719603D+00    5    4    0
 0.194659203139252D+03 0.000000000000000D+00 0.000000000000000D+00 0.194659203139252D+03
 0.194659203139252D+03 0.000000000000000D+00 0.000000000000000D+00 -.194659203139252D+03
 0.180599175519749D+03 0.383879350512105D+02 0.195487418574793D+02 0.123025506837838D+03
 0.110727668459550D+03 -.435778945510320D+02 0.415329717824012D+02 -.465766032417440D+02
 0.979915622992051D+02 0.518995949982149D+01 -.610817136398805D+02 -.764489035960938D+02
 0.000000000000000D+00 -.000000000000000D+00 -.000000000000000D+00 0.000000000000000D+00
 0.805971066761868D+03 0.000000000000000D+00 0.000000000000000D+00 0.805971066761868D+03
 0.398127906066691D+03 0.000000000000000D+00 0.000000000000000D+00 -.398127906066691D+03
 0.324249196478625D+03 0.205507433798130D+03 0.179287369153641D+03 0.123025506837838D+03
 0.166237622118520D+03 0.481056744153963D+02 0.129167314645581D+03 -.465766032417440D+02
 0.105430604510117D+03 0.725286148996961D+02 0.328291441489066D+01 -.764489035960938D+02
 0.608181549721296D+03 -.326141723113222D+03 -.311737598214113D+03 0.407843160695177D+03
 0.194659203139252D+03 0.000000000000000D+00 0.000000000000000D+00 0.194659203139252D+03
 0.194659203139252D+03 0.000000000000000D+00 0.000000000000000D+00 -.194659203139252D+03
 0.180599175519749D+03 0.383879350512105D+02 0.195487418574793D+02 0.123025506837838D+03
 0.110727668459550D+03 -.435778945510320D+02 0.415329717824012D+02 -.465766032417440D+02
 0.000000000000000D+00 -.000000000000000D+00 -.000000000000000D+00 0.000000000000000D+00
 0.979915622992051D+02 0.518995949982149D+01 -.610817136398805D+02 -.764489035960938D+02
 0.805971066761868D+03 0.000000000000000D+00 0.000000000000000D+00 0.805971066761868D+03
 0.398127906066691D+03 0.000000000000000D+00 0.000000000000000D+00 -.398127906066691D+03
 0.324249196478625D+03 0.205507433798130D+03 0.179287369153641D+03 0.123025506837838D+03
 0.166237622118520D+03 0.481056744153963D+02 0.129167314645581D+03 -.465766032417440D+02
 0.608181549721296D+03 -.326141723113222D+03 -.311737598214113D+03 0.407843160695177D+03
 0.105430604510117D+03 0.725286148996961D+02 0.328291441489066D+01 -.764489035960938D+02
0.803034824202D-03 0.000000000000D+00 0.000000000000D+00 0.481127719920D-05 0.000000000000D+00  6 2 -1 25 24 21 21 2 0.83722026D-02 0.10712318D+00 0.21604867D+05 0.21604867D+05 0.21604867D+05 0.12301526D+01  1  2  2  1  6  1        2 0.949870447602D-01 0.100000000000D+01
-.292856350496D-04 0.423773119241D-04 -.308386516886D-05 0.481127719920D-05 0.000000000000D+00  6 2 -1 25 24 21 21 4 0.83722026D-02 0.10712318D+00 0.21604867D+05 0.21604867D+05 0.21604867D+05 0.12301526D+01  1  2  3  1  6  1        2 -.524206758514D-02 0.100000000000D+01
0.302929084348D-04 0.000000000000D+00 0.000000000000D+00 0.481127719920D-05 0.000000000000D+00  6 2 -1 25 24 21 21 4 0.83722026D-02 0.10712318D+00 0.21604867D+05 0.21604867D+05 0.21604867D+05 0.12301526D+01  1  2 15  1  6  1        2 0.542236741995D-02 0.100000000000D+01
0.210688247608D-02 0.000000000000D+00 -.997196432805D-03 0.481127719920D-05 0.000000000000D+00  6 2 -1 25 24 21 21 4 0.68958961D-01 0.10712318D+00 0.21604867D+05 0.21604867D+05 0.21604867D+05 0.12301526D+01  1  2  5  1  6  1        2 0.349196141004D-01 0.100000000000D+01
0.413455268267D-03 0.000000000000D+00 -.254702360594D-03 0.481127719920D-05 0.000000000000D+00  6 21 -1 25 24 -2 21 4 0.68958961D-01 0.10712318D+00 0.21604867D+05 0.21604867D+05 0.21604867D+05 0.12301526D+01  3  4  5  4  5  1        2 0.151850015770D-01 0.100000000000D+01
  </mgrwgt>
  </event>
  <event>
  5     66 0.42622971E-03 0.33433244E+02 0.75467711E-02 0.12151160E+00
        2 -1    0    0  502    0 0.00000000E+00 0.00000000E+00 0.34100571E+03 0.34100586E+03 0.32000000E+00 0.0000E+00 0.9000E+01
       -1 -1    0    0    0  501 0.00000000E+00 0.00000000E+00 -.63216602E+02 0.63217412E+02 0.32000000E+00 0.0000E+00 0.9000E+01
       25  1    1    2    0    0 0.63084384E+02 0.10805376E+02 0.72594340E+02 0.15808648E+03 0.12500000E+03 0.0000E+00 0.9000E+01
       24  1    1    2    0    0 -.55712282E+02 0.21800107E+02 0.13267535E+03 0.16628009E+03 0.80419002E+02 0.0000E+00 0.9000E+01
       21  1    1    2  502  501 -.73721024E+01 -.32605483E+02 0.72519412E+02 0.79856703E+02 0.75000000E+00 0.0000E+00 0.9000E+01
#aMCatNLO 1  0  0  1  5 0.31884933D+01 0.00000000D+00  -5  6  0 0.00000000D+00 0.00000000D+00 0.00000000D+00 0.00000000D+00 0.00000000D+00
  <mgrwgt>
 0.2216163548D+00   11    4    0
 0.146824439495652D+03 0.000000000000000D+00 0.000000000000000D+00 0.146824439495652D+03
 0.146824439495652D+03 0.000000000000000D+00 0.000000000000000D+00 -.146824439495652D+03
 0.148941990232859D+03 0.630850001222457D+02 0.108081004700258D+02 -.496204008279969D+02
 0.103383544447383D+03 -.557118542054667D+02 0.218019978753824D+02 0.253338409595586D+02
 0.413233443110616D+02 -.737314591677893D+01 -.326100983454082D+02 0.242865598684383D+02
 0.000000000000000D+00 0.000000000000000D+00 0.000000000000000D+00 0.000000000000000D+00
 0.197602955146402D+03 0.000000000000000D+00 0.000000000000000D+00 0.197602955146402D+03
 0.146883156189345D+03 0.000000000000000D+00 0.000000000000000D+00 -.146883156189345D+03
 0.148480769768828D+03 0.622095402629623D+02 0.945134451194210D+01 -.496204008279969D+02
 0.103518707991385D+03 -.563208681787229D+02 0.208581700938917D+02 0.253338409595586D+02
 0.416667113428873D+02 -.761742601976873D+01 -.329886747948687D+02 0.242865598684383D+02
 0.508199222326476D+02 0.172875393552935D+01 0.267916018903498D+01 0.507197989570565D+02
 0.146824439495652D+03 0.000000000000000D+00 0.000000000000000D+00 0.146824439495652D+03
 0.146824439495652D+03 0.000000000000000D+00 0.000000000000000D+00 -.146824439495652D+03
 0.148941990232859D+03 0.630850001222457D+02 0.108081004700258D+02 -.496204008279969D+02
 0.103383544447383D+03 -.557118542054667D+02 0.218019978753824D+02 0.253338409595586D+02
 0.000000000000000D+00 0.000000000000000D+00 0.000000000000000D+00 0.000000000000000D+00
 0.413233443110616D+02 -.737314591677893D+01 -.326100983454082D+02 0.242865598684383D+02
 0.197602955146402D+03 0.000000000000000D+00 0.000000000000000D+00 0.197602955146402D+03
 0.146883156189345D+03 0.000000000000000D+00 0.000000000000000D+00 -.146883156189345D+03
 0.148480769768828D+03 0.622095402629623D+02 0.945134451194210D+01 -.496204008279969D+02
 0.103518707991385D+03 -.563208681787229D+02 0.208581700938917D+02 0.253338409595586D+02
 0.508199222326476D+02 0.172875393552935D+01 0.267916018903498D+01 0.507197989570565D+02
 0.416667113428873D+02 -.761742601976873D+01 -.329886747948687D+02 0.242865598684383D+02
0.585508702761D-05 0.000000000000D+00 0.000000000000D+00 0.190342533966D-04 0.000000000000D+00  6 2 -1 25 24 21 21 2 0.52462490D-01 0.97257049D-02 0.18782445D+05 0.18782445D+05 0.18782445D+05 0.12368405D+01  1  2  2  1  6  1        2 0.590321702469D-02 0.100000000000D+01
0.454441123414D-06 0.308981431232D-06 -.224850758658D-07 0.190342533966D-04 0.000000000000D+00  6 2 -1 25 24 21 21 4 0.52462490D-01 0.97257049D-02 0.18782445D+05 0.18782445D+05 0.18782445D+05 0.12368405D+01  1  2  3  1  6  1        2 0.700906973921D-03 0.100000000000D+01
0.259281770072D-06 0.000000000000D+00 0.000000000000D+00 0.190342533966D-04 0.000000000000D+00  6 2 -1 25 24 21 21 4 0.52462490D-01 0.97257049D-02 0.18782445D+05 0.18782445D+05 0.18782445D+05 0.12368405D+01  1  2 15  1  6  1        2 0.399903071026D-03 0.100000000000D+01
0.524267014406D-04 0.000000000000D+00 0.000000000000D+00 0.189992346042D-04 0.000000000000D+00  6 2 -1 25 24 21 21 4 0.70809091D-01 0.97257049D-02 0.19232176D+05 0.19232176D+05 0.19232176D+05 0.12357022D+01  1  2 12  1  6  1        2 0.584767161024D-01 0.100000000000D+01
-.185711736972D-02 0.000000000000D+00 0.000000000000D+00 0.190342533966D-04 0.000000000000D+00  6 2 -1 25 24 21 21 4 0.52462490D-01 0.97257049D-02 0.18782445D+05 0.18782445D+05 0.18782445D+05 0.12368405D+01  1  2  4  1  6  1        2 -.286432377873D+01 0.100000000000D+01
-.224881641467D-02 0.000000000000D+00 -.593408186415D-05 0.190342533966D-04 0.000000000000D+00  6 2 -1 25 24 21 21 4 0.70617667D-01 0.97257049D-02 0.18782445D+05 0.18782445D+05 0.18782445D+05 0.12368405D+01  1  2  5  1  6  1        2 -.252355141134D+01 0.100000000000D+01
0.215496989504D-02 0.000000000000D+00 0.568134986884D-05 0.190342533966D-04 0.000000000000D+00  6 2 -1 25 24 21 21 4 0.52462490D-01 0.97257049D-02 0.18782445D+05 0.18782445D+05 0.18782445D+05 0.12368405D+01  1  2  6  1  6  1        2 0.332371642927D+01 0.100000000000D+01
0.198560473730D-02 0.000000000000D+00 0.000000000000D+00 0.190342533966D-04 0.723263563716D-05  6 2 -1 25 24 21 21 4 0.70606386D-01 0.97295943D-02 0.19232176D+05 0.19232176D+05 0.19232176D+05 0.12357022D+01  1  2 11  1  6  1        2 0.222029136213D+01 0.100000000000D+01
0.202602556197D-05 0.000000000000D+00 0.000000000000D+00 0.189992346042D-04 0.000000000000D+00  6 21 -1 25 24 -2 21 4 0.70809091D-01 0.97257049D-02 0.19232176D+05 0.19232176D+05 0.19232176D+05 0.12357022D+01  3  4 12  4  5  1        2 0.488096528908D-02 0.100000000000D+01
-.862064812165D-04 0.000000000000D+00 -.227824004814D-06 0.190342533966D-04 0.000000000000D+00  6 21 -1 25 24 -2 21 4 0.70617667D-01 0.97257049D-02 0.18782445D+05 0.18782445D+05 0.18782445D+05 0.12368405D+01  3  4  5  4  5  1        2 -.209718822708D+00 0.100000000000D+01
0.845464772505D-04 0.000000000000D+00 0.000000000000D+00 0.190342533966D-04 0.615897423262D-06  6 21 -1 25 24 -2 21 4 0.70606386D-01 0.97295943D-02 0.19232176D+05 0.19232176D+05 0.19232176D+05 0.12357022D+01  3  4 11  4  5  1        2 0.204840867681D+00 0.100000000000D+01
  </mgrwgt>
  </event>
  <event>
  6     66 0.42622971E-03 0.28137579E+02 0.75467711E-02 0.11636863E+00
        2 -1    0    0  503    0 0.00000000E+00 0.00000000E+00 0.13334410E+04 0.13334411E+04 0.32000000E+00 0.0000E+00 0.9000E+01
       -1 -1    0    0    0  501 0.00000000E+00 0.00000000E+00 -.28372893E+02 0.28374697E+02 0.32000000E+00 0.0000E+00 0.9000E+01
       25  1    1    2    0    0 -.10516955E+03 -.26345288E+02 0.63540065E+03 0.65659248E+03 0.12500000E+03 0.0000E+00 0.9000E+01
       24  1    1    2    0    0 0.11585023E+03 0.41991846E+02 0.33592732E+03 0.36674101E+03 0.80419002E+02 0.0000E+00 0.9000E+01
       21  1    1    2  502  501 -.23367976E+02 -.29237405E+02 0.20276083E+03 0.20618779E+03 0.75000000E+00 0.0000E+00 0.9000E+01
       21  1    1    2  503  502 0.12687300E+02 0.13590846E+02 0.13097936E+03 0.13229450E+03 0.75000000E+00 0.0000E+00 0.9000E+01
#aMCatNLO 2  0  0  1  1 0.18592436D+02 0.00000000D+00  -5  6  0 0.00000000D+00 0.00000000D+00 0.00000000D+00 0.00000000D+00 0.00000000D+00
  <mgrwgt>
 0.9190185829D-01    1    2    0
 0.182272060335072D+03 0.000000000000000D+00 0.000000000000000D+00 0.182272060335072D+03
 0.182272060335072D+03 0.000000000000000D+00 0.000000000000000D+00 -.182272060335072D+03
 0.163449948872271D+03 -.994059856641485D+02 -.201709363834338D+02 0.283278860118869D+02
 0.160608154663554D+03 0.121337010145651D+03 0.478696970902248D+02 -.480997449002160D+02
 0.404860171343185D+02 -.219310244815025D+02 -.276987607067909D+02 0.197718588883291D+02
 0.000000000000000D+00 0.000000000000000D+00 0.000000000000000D+00 0.000000000000000D+00
 0.202493489801992D+03 0.000000000000000D+00 0.000000000000000D+00 0.202493489801992D+03
 0.186833298953503D+03 0.000000000000000D+00 0.000000000000000D+00 -.186833298953503D+03
 0.167874046959632D+03 -.105167807845080D+03 -.263430960549961D+02 0.283278860118869D+02
 0.154809323270895D+03 0.115851807010717D+03 0.419938563376564D+02 -.480997449002160D+02
 0.423345671286715D+02 -.233712989121124D+02 -.292416066116876D+02 0.197718588883291D+02
 0.243088513962966D+02 0.126872997464752D+02 0.135908463290272D+02 0.156601908484888D+02
0.104790235543D-03 0.000000000000D+00 0.000000000000D+00 0.140900731283D-04 0.702251066860D-07  6 2 -1 25 24 21 21 4 0.20513866D+00 0.43650690D-02 0.33973912D+05 0.33973912D+05 0.33973912D+05 0.12092689D+01  1  2  1  1  6  1        2 0.919018582929D-01 0.100000000000D+01
  </mgrwgt>
  </event>
  <event>
  6     66 0.42622971E-03 0.46637086E+02 0.75467711E-02 0.11671765E+00
        2 -1    0    0  502    0 0.00000000E+00 0.00000000E+00 0.14779221E+03 0.14779255E+03 0.32000000E+00 0.0000E+00 0.9000E+01
       -1 -1    0    0    0  501 -.00000000E+00 -.00000000E+00 -.23713569E+03 0.23713591E+03 0.32000000E+00 0.0000E+00 0.9000E+01
       25  1    1    2    0    0 0.67995449E+02 -.54169446E+02 -.61536766E+02 0.16422388E+03 0.12500000E+03 0.0000E+00 0.9000E+01
       24  1    1    2    0    0 -.12083002E+03 0.51800321E+02 0.60504168E+01 0.15423032E+03 0.80419002E+02 0.0000E+00 0.9000E+01
       21  1    1    2  502  503 0.49456889E+02 -.18876563E+01 -.35306862E+02 0.60800362E+02 0.75000000E+00 0.0000E+00 0.9000E+01
       21  1    1    2  503  501 0.33776829E+01 0.42567814E+01 0.14497230E+01 0.56738987E+01 0.75000000E+00 0.0000E+00 0.9000E+01
#aMCatNLO 2  0  0  5  2 0.57666940D+01 0.00000000D+00  -5  6  0 0.00000000D+00 0.00000000D+00 0.00000000D+00 0.00000000D+00 0.00000000D+00
  <mgrwgt>
 0.1038306926D-01    4    2    0
 0.187208213291597D+03 0.000000000000000D+00 0.000000000000000D+00 0.187208213291597D+03
 0.187208213291597D+03 -.000000000000000D+00 -.000000000000000D+00 -.187208213291597D+03
 0.153394753175054D+03 0.664097625802890D+02 -.542405484658016D+02 -.235086502758959D+02
 0.161394984856856D+03 -.122487136609780D+03 0.517260147564030D+02 0.436170373263930D+02
 0.596266885512828D+02 0.560773740294905D+02 0.251453370939867D+01 -.201083870504971D+02
 0.000000000000000D+00 0.000000000000000D+00 0.000000000000000D+00 0.000000000000000D+00
 0.187208213291597D+03 0.000000000000000D+00 0.000000000000000D+00 0.187208213291597D+03
 0.187208213291597D+03 -.000000000000000D+00 -.000000000000000D+00 -.187208213291597D+03
 0.154161965263939D+03 0.680189462974778D+02 -.541683919718232D+02 -.240856760296977D+02
 0.159983794830540D+03 -.120805633757402D+03 0.518014140716871D+02 0.430140791678255D+02
 0.540169966523461D+02 0.493637612938329D+02 -.197981335296745D+01 -.218434277839460D+02
 0.625366983636792D+01 0.342292616609143D+01 0.434679125310358D+01 0.291502464581807D+01
-.117694101994D-03 0.000000000000D+00 0.000000000000D+00 0.578665282818D-05 0.000000000000D+00  6 2 -1 25 24 21 21 4 0.22737306D-01 0.36482457D-01 0.32634030D+05 0.32634030D+05 0.32634030D+05 0.12110810D+01  1  2 13  3  6  5       21 -.495523580654D-01 0.100000000000D+01
-.105777911367D-03 0.000000000000D+00 0.000000000000D+00 0.578665282818D-05 0.000000000000D+00  6 2 -1 25 24 21 21 4 0.22737306D-01 0.36482457D-01 0.32634030D+05 0.32634030D+05 0.32634030D+05 0.12110810D+01  1  2 13  3  6  5       21 -.445353237814D-01 0.100000000000D+01
-.811977808391D-03 0.000000000000D+00 0.000000000000D+00 0.578234957854D-05 0.000000000000D+00  6 2 -1 25 24 21 21 4 0.22737306D-01 0.36482457D-01 0.32961464D+05 0.32961464D+05 0.32961464D+05 0.12106306D+01  1  2  8  3  6  5       21 -.341408283868D+00 0.100000000000D+01
0.105902795888D-02 0.000000000000D+00 0.000000000000D+00 0.578234957854D-05 0.148754236029D-05  6 2 -1 25 24 21 21 4 0.22737306D-01 0.36482457D-01 0.32634030D+05 0.32634030D+05 0.32634030D+05 0.12110810D+01  1  2  1  3  6  5       21 0.445879034978D+00 0.100000000000D+01
  </mgrwgt>
  </event>
  <event>
  6     66 -.42622971E-03 0.71752279E+02 0.75467711E-02 0.11455049E+00
        2 -1    0    0  502    0 0.00000000E+00 0.00000000E+00 0.70438794E+03 0.70438802E+03 0.32000000E+00 0.0000E+00 0.9000E+01
       -1 -1    0    0    0  501 0.00000000E+00 0.00000000E+00 -.20869783E+03 0.20869808E+03 0.32000000E+00 0.0000E+00 0.9000E+01
       25  1    1    2    0    0 -.15457844E+03 0.56046045E+02 0.15461004E+03 0.25800178E+03 0.12500000E+03 0.0000E+00 0.9000E+01
       24  1    1    2    0    0 0.95675289E+02 -.41651315E+01 -.12789672E+03 0.17887397E+03 0.80419002E+02 0.0000E+00 0.9000E+01
       21  1    1    2  502  503 0.44866529E+02 -.41818828E+02 0.41565255E+03 0.42015405E+03 0.75000000E+00 0.0000E+00 0.9000E+01
       21  1    1    2  503  501 0.14036623E+02 -.10062086E+02 0.53324231E+02 0.56056297E+02 0.75000000E+00 0.0000E+00 0.9000E+01
#aMCatNLO 2  0  0  5  2 0.84607170D+01 0.00000000D+00  -5  6  0 0.00000000D+00 0.00000000D+00 0.00000000D+00 0.00000000D+00 0.00000000D+00
  <mgrwgt>
 -.9586768907D-01    6    2    0
 0.383411507064659D+03 0.000000000000000D+00 0.000000000000000D+00 0.383411507064659D+03
 0.383411507064659D+03 -.000000000000000D+00 -.000000000000000D+00 -.383411507064659D+03
 0.207318931357528D+03 -.154656345388051D+03 0.561146626974337D+02 0.169911377133048D+02
 0.296058723296924D+03 0.955640980798361D+02 -.406719658136228D+01 -.268392460318821D+03
 0.263445359474867D+03 0.590922473082147D+02 -.520474661160715D+02 0.251401322605516D+03
 0.000000000000000D+00 0.000000000000000D+00 0.000000000000000D+00 0.000000000000000D+00
 0.383411507064659D+03 0.000000000000000D+00 0.000000000000000D+00 0.383411507064659D+03
 0.383411507064659D+03 -.000000000000000D+00 -.000000000000000D+00 -.383411507064659D+03
 0.207269718739239D+03 -.154578483580072D+03 0.560460833152455D+02 0.173223920215769D+02
 0.295667489959628D+03 0.956752272021163D+02 -.416507725928306D+01 -.267919673961999D+03
 0.231602886776262D+03 0.448391637825240D+02 -.418033244557366D+02 0.223342402196337D+03
 0.322829186541890D+02 0.140640925954317D+02 -.100776816002259D+02 0.272548797440858D+02
-.193551415042D-02 0.000000000000D+00 0.000000000000D+00 0.313533653231D-05 0.000000000000D+00  6 2 -1 25 24 21 21 4 0.10836740D+00 0.32107384D-01 0.42066605D+05 0.42066605D+05 0.42066605D+05 0.11997849D+01  1  2 13  3  6  5       21 -.175018017640D+00 0.100000000000D+01
-.260924565495D-02 0.000000000000D+00 0.000000000000D+00 0.313533653231D-05 0.000000000000D+00  6 2 -1 25 24 21 21 4 0.10836740D+00 0.32107384D-01 0.42066605D+05 0.42066605D+05 0.42066605D+05 0.11997849D+01  1  2 13  3  6  5       21 -.235939893265D+00 0.100000000000D+01
-.121892013097D-03 0.000000000000D+00 0.000000000000D+00 0.313519244556D-05 0.000000000000D+00  6 2 -1 25 24 21 21 4 0.10836740D+00 0.32107384D-01 0.42093061D+05 0.42093061D+05 0.42093061D+05 0.11997574D+01  1  2  8  3  6  5       21 -.110209431598D-01 0.100000000000D+01
-.108069483977D-03 0.000000000000D+00 0.000000000000D+00 0.313519244556D-05 0.000000000000D+00  6 2 -1 25 24 21 21 4 0.10836740D+00 0.32107384D-01 0.42093061D+05 0.42093061D+05 0.42093061D+05 0.11997574D+01  1  2  9  3  6  5       21 -.977117048079D-02 0.100000000000D+01
0.120231728905D-03 0.000000000000D+00 0.000000000000D+00 0.313519244556D-05 0.000000000000D+00  6 2 -1 25 24 21 21 4 0.10836740D+00 0.32107384D-01 0.42093061D+05 0.42093061D+05 0.42093061D+05 0.11997574D+01  1  2 10  3  6  5       21 0.108708275186D-01 0.100000000000D+01
0.359428349829D-02 0.000000000000D+00 0.000000000000D+00 0.313519244556D-05 0.223245916705D-06  6 2 -1 25 24 21 21 4 0.10836740D+00 0.32107384D-01 0.42066605D+05 0.42066605D+05 0.42066605D+05 0.11997849D+01  1  2  1  3  6  5       21 0.325011507960D+00 0.100000000000D+01
  </mgrwgt>
  </event>
  <event>
  5     66 0.42622971E-03 0.22194135E+02 0.75467711E-02 0.11913250E+00
        2 -1    0    0  502    0 0.00000000E+00 0.00000000E+00 0.97204314E+02 0.97204840E+02 0.32000000E+00 0.0000E+00 0.9000E+01
       -1 -1    0    0    0  501 -.00000000E+00 -.00000000E+00 -.44731292E+03 0.44731303E+03 0.32000000E+00 0.0000E+00 0.9000E+01
       25  1    1    2    0    0 -.70455293E+02 -.66276311E+02 0.17199844E+01 0.15806472E+03 0.12500000E+03 0.0000E+00 0.9000E+01
       24  1    1    2    0    0 0.54948799E+02 0.82152633E+02 -.23297265E+03 0.26554076E+03 0.80419002E+02 0.0000E+00 0.9000E+01
       21  1    1    2  502  501 0.15506493E+02 -.15876322E+02 -.11885594E+03 0.12091239E+03 0.75000000E+00 0.0000E+00 0.9000E+01
#aMCatNLO 1  0  0  5  1 0.80496079D+01 0.00000000D+00  -5  6  0 0.00000000D+00 0.00000000D+00 0.00000000D+00 0.00000000D+00 0.00000000D+00
  <mgrwgt>
 0.3020099436D+00   20    2    0
 0.208520789177769D+03 0.000000000000000D+00 0.000000000000000D+00 0.208520789177769D+03
 0.208520789177769D+03 -.000000000000000D+00 -.000000000000000D+00 -.208520789177769D+03
 0.207825449617568D+03 -.704559366530573D+02 -.662756510319377D+02 0.134944123915706D+03
 0.151125545953110D+03 0.549483307304979D+02 0.821531125335009D+02 -.812604561656204D+02
 0.580905827848595D+02 0.155076059225594D+02 -.158774615015632D+02 -.536836677500857D+02
 0.000000000000000D+00 0.000000000000000D+00 0.000000000000000D+00 -.000000000000000D+00
 0.208520789177769D+03 0.000000000000000D+00 0.000000000000000D+00 0.208520789177769D+03
 0.208520789177769D+03 -.000000000000000D+00 -.000000000000000D+00 -.208520789177769D+03
 0.206550609941236D+03 -.698888455110812D+02 -.668562672675814D+02 0.132980988367776D+03
 0.151823637193317D+03 0.553629294851030D+02 0.817286256205814D+02 -.826956990975705D+02
 0.478104883700633D+02 0.110033716424198D+02 -.205628354441554D+02 -.417365356633650D+02
 0.108568428509202D+02 0.352254438355834D+01 0.569047709115541D+01 -.854875360684083D+01
0.805743739480D-03 0.000000000000D+00 0.000000000000D+00 0.258006222324D-04 0.000000000000D+00  6 2 -1 25 24 21 21 2 0.14954559D-01 0.68817421D-01 0.23665018D+05 0.23665018D+05 0.23665018D+05 0.12258611D+01  1  2  2  3  6  5       21 0.118675481484D+00 0.100000000000D+01
0.115950915168D-03 0.425202653107D-04 -.309426811680D-05 0.258006222324D-04 0.000000000000D+00  6 2 -1 25 24 21 21 4 0.14954559D-01 0.68817421D-01 0.23665018D+05 0.23665018D+05 0.23665018D+05 0.12258611D+01  1  2  3  3  6  5       21 0.256637900796D-01 0.100000000000D+01
-.215550993423D-05 0.000000000000D+00 0.000000000000D+00 0.258006222324D-04 0.000000000000D+00  6 2 -1 25 24 21 21 4 0.14954559D-01 0.68817421D-01 0.23665018D+05 0.23665018D+05 0.23665018D+05 0.12258611D+01  1  2 15  3  6  5       21 -.477085966821D-03 0.100000000000D+01
0.885314238859D-03 0.000000000000D+00 0.000000000000D+00 0.257032322972D-04 0.000000000000D+00  6 2 -1 25 24 21 21 4 0.14954559D-01 0.68817421D-01 0.24867417D+05 0.24867417D+05 0.24867417D+05 0.12235453D+01  1  2 12  3  6  5       21 0.194562413972D+00 0.100000000000D+01
-.956218555699D-03 0.000000000000D+00 0.000000000000D+00 0.258006222324D-04 0.000000000000D+00  6 2 -1 25 24 21 21 4 0.14954559D-01 0.68817421D-01 0.23665018D+05 0.23665018D+05 0.23665018D+05 0.12258611D+01  1  2  4  3  6  5       21 -.211642937429D+00 0.100000000000D+01
-.265345833771D-02 0.000000000000D+00 0.000000000000D+00 0.258006222324D-04 0.000000000000D+00  6 2 -1 25 24 21 21 4 0.14954559D-01 0.68817421D-01 0.23665018D+05 0.23665018D+05 0.23665018D+05 0.12258611D+01  1  2  5  3  6  5       21 -.587298493207D+00 0.100000000000D+01
0.351606766470D-02 0.000000000000D+00 -.000000000000D+00 0.258006222324D-04 0.000000000000D+00  6 2 -1 25 24 21 21 4 0.14954559D-01 0.68817421D-01 0.23665018D+05 0.23665018D+05 0.23665018D+05 0.12258611D+01  1  2  6  3  6  5       21 0.778222598087D+00 0.100000000000D+01
0.441630850881D-05 0.000000000000D+00 0.000000000000D+00 0.258006222324D-04 0.121213760674D-05  6 2 -1 25 24 21 21 4 0.14954559D-01 0.68817421D-01 0.24867417D+05 0.24867417D+05 0.24867417D+05 0.12235453D+01  1  2 11  3  6  5       21 0.970556675365D-03 0.100000000000D+01
0.190743234508D-04 0.000000000000D+00 0.000000000000D+00 0.257032322972D-04 0.000000000000D+00  6 2 -1 25 24 1 -1 4 0.14954559D-01 0.68817421D-01 0.24867417D+05 0.24867417D+05 0.24867417D+05 0.12235453D+01  1  2 12  6  6  5       21 0.419189735416D-02 0.100000000000D+01
-.378945841812D-04 0.000000000000D+00 0.000000000000D+00 0.258006222324D-04 0.000000000000D+00  6 2 -1 25 24 1 -1 4 0.14954559D-01 0.68817421D-01 0.23665018D+05 0.23665018D+05 0.23665018D+05 0.12258611D+01  1  2  5  6  6  5       21 -.838733055426D-02 0.100000000000D+01
0.114729928224D-06 0.000000000000D+00 0.000000000000D+00 0.258006222324D-04 0.560470589061D-07  6 2 -1 25 24 1 -1 4 0.14954559D-01 0.68817421D-01 0.24867417D+05 0.24867417D+05 0.24867417D+05 0.12235453D+01  1  2 11  6  6  5       21 0.252137950688D-04 0.100000000000D+01
0.190743234508D-04 0.000000000000D+00 0.000000000000D+00 0.257032322972D-04 0.000000000000D+00  6 2 -1 25 24 2 -2 4 0.14954559D-01 0.68817421D-01 0.24867417D+05 0.24867417D+05 0.24867417D+05 0.12235453D+01  1  2 12  7  6  5       21 0.419189735416D-02 0.100000000000D+01
-.378945841812D-04 0.000000000000D+00 0.000000000000D+00 0.258006222324D-04 0.000000000000D+00  6 2 -1 25 24 2 -2 4 0.14954559D-01 0.68817421D-01 0.23665018D+05 0.23665018D+05 0.23665018D+05 0.12258611D+01  1  2  5  7  6  5       21 -.838733055426D-02 0.100000000000D+01
0.136760043302D-06 0.000000000000D+00 0.000000000000D+00 0.258006222324D-04 0.494396265260D-07  6 2 -1 25 24 2 -2 4 0.14954559D-01 0.68817421D-01 0.24867417D+05 0.24867417D+05 0.24867417D+05 0.12235453D+01  1  2 11  7  6  5       21 0.300552764113D-04 0.100000000000D+01
0.190743234508D-04 0.000000000000D+00 0.000000000000D+00 0.257032322972D-04 0.000000000000D+00  6 2 -1 25 24 3 -3 4 0.14954559D-01 0.68817421D-01 0.24867417D+05 0.24867417D+05 0.24867417D+05 0.12235453D+01  1  2 12  8  6  5       21 0.419189735416D-02 0.100000000000D+01
0.190743234508D-04 0.000000000000D+00 0.000000000000D+00 0.257032322972D-04 0.000000000000D+00  6 2 -1 25 24 4 -4 4 0.14954559D-01 0.68817421D-01 0.24867417D+05 0.24867417D+05 0.24867417D+05 0.12235453D+01  1  2 12  8  6  5       21 0.419189735416D-02 0.100000000000D+01
-.378945841812D-04 0.000000000000D+00 0.000000000000D+00 0.258006222324D-04 0.000000000000D+00  6 2 -1 25 24 3 -3 4 0.14954559D-01 0.68817421D-01 0.23665018D+05 0.23665018D+05 0.23665018D+05 0.12258611D+01  1  2  5  8  6  5       21 -.838733055426D-02 0.100000000000D+01
-.378945841812D-04 0.000000000000D+00 0.000000000000D+00 0.258006222324D-04 0.000000000000D+00  6 2 -1 25 24 4 -4 4 0.14954559D-01 0.68817421D-01 0.23665018D+05 0.23665018D+05 0.23665018D+05 0.12258611D+01  1  2  5  8  6  5       21 -.838733055426D-02 0.100000000000D+01
0.136698710037D-06 0.000000000000D+00 0.000000000000D+00 0.258006222324D-04 0.493453112280D-07  6 2 -1 25 24 3 -3 4 0.14954559D-01 0.68817421D-01 0.24867417D+05 0.24867417D+05 0.24867417D+05 0.12235453D+01  1  2 11  8  6  5       21 0.300417974141D-04 0.100000000000D+01
0.136698710037D-06 0.000000000000D+00 0.000000000000D+00 0.258006222324D-04 0.493453112280D-07  6 2 -1 25 24 4 -4 4 0.14954559D-01 0.68817421D-01 0.24867417D+05 0.24867417D+05 0.24867417D+05 0.12235453D+01  1  2 11  8  6  5       21 0.300417974141D-04 0.100000000000D+01
  </mgrwgt>
  </event>
  <event>
  6     66 -.42622971E-03 0.20042295E+02 0.75467711E-02 0.12101977E+00
        2 -1    0    0  503    0 0.00000000E+00 0.00000000E+00 0.31721990E+04 0.31721990E+04 0.32000000E+00 0.0000E+00 0.9000E+01
       -1 -1    0    0    0  501 0.00000000E+00 0.00000000E+00 -.14989016E+02 0.14992432E+02 0.32000000E+00 0.0000E+00 0.9000E+01
       25  1    1    2    0    0 0.58626338E+02 0.49362300E+02 0.24488256E+04 0.24532112E+04 0.12500000E+03 0.0000E+00 0.9000E+01
       24  1    1    2    0    0 -.62459504E+02 -.32496565E+02 0.50521007E+03 0.51639292E+03 0.80419002E+02 0.0000E+00 0.9000E+01
       21  1    1    2  502  501 0.99559268E+00 -.23738936E+02 0.12671738E+02 0.26938146E+02 0.75000000E+00 0.0000E+00 0.9000E+01
       21  1    1    2  503  502 0.28375734E+01 0.68732005E+01 0.19050259E+03 0.19064913E+03 0.75000000E+00 0.0000E+00 0.9000E+01
#aMCatNLO 2  0  0  1  5 0.74359066D+01 0.00000000D+00  -5  6  0 0.00000000D+00 0.00000000D+00 0.00000000D+00 0.00000000D+00 0.00000000D+00
  <mgrwgt>
 -.8959099141D+00    3    2    0
 0.210865947077354D+03 0.000000000000000D+00 0.000000000000000D+00 0.210865947077354D+03
 0.210865947077354D+03 0.000000000000000D+00 0.000000000000000D+00 -.210865947077354D+03
 0.205600740767845D+03 0.600054217178229D+02 0.527030774157083D+02 0.142367129632042D+03
 0.114248090466647D+03 -.616877338301530D+02 -.306269833501663D+02 -.429187791843325D+02
 0.101883062920215D+03 0.168231211233010D+01 -.220760940655420D+02 -.994483504477099D+02
 0.000000000000000D+00 0.000000000000000D+00 0.000000000000000D+00 0.000000000000000D+00
 0.224368468192804D+03 0.000000000000000D+00 0.000000000000000D+00 0.224368468192804D+03
 0.211924960521359D+03 0.000000000000000D+00 0.000000000000000D+00 -.211924960521359D+03
 0.204370026096035D+03 0.586263088976449D+02 0.493625756202511D+02 0.142367129632042D+03
 0.115180051617793D+03 -.624595139609137D+02 -.324963974218675D+02 -.429187791843325D+02
 0.102247365681130D+03 0.995631710149090D+00 -.237393786662136D+02 -.994483504477099D+02
 0.144959853192056D+02 0.283757335311974D+01 0.687320046782998D+01 0.124435076714450D+02
-.538948733928D-02 0.000000000000D+00 0.000000000000D+00 0.348544589148D-04 0.000000000000D+00  6 2 -1 25 24 21 21 4 0.49040776D+00 0.22946373D-02 0.20264323D+05 0.20264323D+05 0.20264323D+05 0.12331988D+01  1  2 13  1  6  1        2 -.131753574751D+01 0.100000000000D+01
-.148683356580D-02 0.000000000000D+00 0.000000000000D+00 0.350158768913D-04 0.000000000000D+00  6 2 -1 25 24 21 21 4 0.45864023D+00 0.22946373D-02 0.19093052D+05 0.19093052D+05 0.19093052D+05 0.12360511D+01  1  2  8  1  6  1        2 -.486036242433D+00 0.100000000000D+01
0.366005713767D-02 0.000000000000D+00 0.000000000000D+00 0.350158768913D-04 0.218743824020D-05  6 2 -1 25 24 21 21 4 0.48800865D+00 0.23061614D-02 0.20264323D+05 0.20264323D+05 0.20264323D+05 0.12331988D+01  1  2  1  1  6  1        2 0.907662075819D+00 0.100000000000D+01
  </mgrwgt>
  </event>
  <event>
  5     66 0.42622971E-03 0.34908662E+02 0.75467711E-02 0.12352362E+00
        2 -1    0    0  502    0 0.00000000E+00 0.00000000E+00 0.13902928E+04 0.13902929E+04 0.32000000E+00 0.0000E+00 0.9000E+01
       -1 -1    0    0    0  501 0.00000000E+00 0.00000000E+00 -.12154782E+02 0.12158994E+02 0.32000000E+00 0.0000E+00 0.9000E+01
       25  1    1    2    0    0 -.49360205E+02 -.41014211E+01 0.55511554E+03 0.57116680E+03 0.12500000E+03 0.0000E+00 0.9000E+01
       24  1    1    2    0    0 0.14557699E+02 0.67381970E+01 0.57703748E+03 0.58283513E+03 0.80419002E+02 0.0000E+00 0.9000E+01
       21  1    1    2  502  501 0.34802506E+02 -.26367760E+01 0.24598503E+03 0.24844992E+03 0.75000000E+00 0.0000E+00 0.9000E+01
#aMCatNLO 1  0  0  5  1 0.58717905D+01 0.00000000D+00  -5  6  0 0.00000000D+00 0.00000000D+00 0.00000000D+00 0.00000000D+00 0.00000000D+00
  <mgrwgt>
 0.9394823167D+00   19    2    0
 0.130006483777923D+03 0.000000000000000D+00 0.000000000000000D+00 0.130006483777923D+03
 0.130006483777923D+03 -.000000000000000D+00 -.000000000000000D+00 -.130006483777923D+03
 0.138487442215036D+03 -.493641634314918D+02 -.410112116409802D+01 -.331682351832177D+02
 0.852294617713999D+02 0.145552632855893D+02 0.673838159039130D+01 0.232289415105690D+02
 0.362960635694101D+02 0.348089001459025D+02 -.263726042629329D+01 0.993929367264875D+01
 0.000000000000000D+00 -.000000000000000D+00 0.000000000000000D+00 0.000000000000000D+00
 0.130006483777923D+03 0.000000000000000D+00 0.000000000000000D+00 0.130006483777923D+03
 0.130006483777923D+03 -.000000000000000D+00 -.000000000000000D+00 -.130006483777923D+03
 0.136773164576211D+03 -.451692712856416D+02 -.441894284195765D+01 -.319704304612090D+02
 0.859029140590573D+02 0.171632712662456D+02 0.654078855498908D+01 0.239736291367710D+02
 0.312729827471756D+02 0.311094607495593D+02 -.148834087201609D+01 0.282590573541631D+01
 0.606390617340172D+01 -.310346073016327D+01 -.633504841015333D+00 0.517089558902170D+01
0.201212402451D-03 0.000000000000D+00 0.000000000000D+00 0.198733474036D-04 0.000000000000D+00  6 2 -1 25 24 21 21 2 0.21389153D+00 0.18702933D-02 0.15796519D+05 0.15796519D+05 0.15796519D+05 0.12452690D+01  1  2  2  3  6  5       21 0.405489236149D+00 0.100000000000D+01
0.126734449515D-04 0.106182701978D-04 -.772708605853D-06 0.198733474036D-04 0.000000000000D+00  6 2 -1 25 24 21 21 4 0.21389153D+00 0.18702933D-02 0.15796519D+05 0.15796519D+05 0.15796519D+05 0.12452690D+01  1  2  3  3  6  5       21 0.396046005610D-01 0.100000000000D+01
0.872614672425D-05 0.000000000000D+00 0.000000000000D+00 0.198733474036D-04 0.000000000000D+00  6 2 -1 25 24 21 21 4 0.21389153D+00 0.18702933D-02 0.15796519D+05 0.15796519D+05 0.15796519D+05 0.12452690D+01  1  2 15  3  6  5       21 0.272692670993D-01 0.100000000000D+01
0.777242729243D-04 0.000000000000D+00 0.000000000000D+00 0.198931939024D-04 0.000000000000D+00  6 2 -1 25 24 21 21 4 0.21389153D+00 0.18702933D-02 0.15598327D+05 0.15598327D+05 0.15598327D+05 0.12458907D+01  1  2 12  3  6  5       21 0.243292453526D+00 0.100000000000D+01
0.961280715757D-04 0.000000000000D+00 0.000000000000D+00 0.198931939024D-04 0.000000000000D+00  6 2 -1 25 24 21 21 4 0.21389153D+00 0.18702933D-02 0.15598327D+05 0.15598327D+05 0.15598327D+05 0.12458907D+01  1  2 12  3  6  5       21 0.300900008536D+00 0.100000000000D+01
-.912023964996D-04 0.000000000000D+00 0.000000000000D+00 0.198733474036D-04 0.000000000000D+00  6 2 -1 25 24 21 21 4 0.21389153D+00 0.18702933D-02 0.15796519D+05 0.15796519D+05 0.15796519D+05 0.12452690D+01  1  2  4  3  6  5       21 -.285008101380D+00 0.100000000000D+01
0.507819826189D-04 0.000000000000D+00 0.000000000000D+00 0.198733474036D-04 0.653717102426D-05  6 2 -1 25 24 21 21 4 0.21389153D+00 0.18702933D-02 0.15598327D+05 0.15598327D+05 0.15598327D+05 0.12458907D+01  1  2 11  3  6  5       21 0.158957719145D+00 0.100000000000D+01
0.142456916068D-05 0.000000000000D+00 0.000000000000D+00 0.198931939024D-04 0.000000000000D+00  6 2 -1 25 24 1 -1 4 0.21389153D+00 0.18702933D-02 0.15598327D+05 0.15598327D+05 0.15598327D+05 0.12458907D+01  1  2 12  6  6  5       21 0.445918518475D-02 0.100000000000D+01
0.152695461710D-05 0.000000000000D+00 0.000000000000D+00 0.198931939024D-04 0.000000000000D+00  6 2 -1 25 24 1 -1 4 0.21389153D+00 0.18702933D-02 0.15598327D+05 0.15598327D+05 0.15598327D+05 0.12458907D+01  1  2 12  6  6  5       21 0.477967205402D-02 0.100000000000D+01
0.946508905712D-06 0.000000000000D+00 0.000000000000D+00 0.198931939024D-04 0.544529638188D-07  6 2 -1 25 24 1 -1 4 0.21389153D+00 0.18702933D-02 0.15598327D+05 0.15598327D+05 0.15598327D+05 0.12458907D+01  1  2 11  6  6  5       21 0.296276137802D-02 0.100000000000D+01
0.142456916068D-05 0.000000000000D+00 0.000000000000D+00 0.198931939024D-04 0.000000000000D+00  6 2 -1 25 24 2 -2 4 0.21389153D+00 0.18702933D-02 0.15598327D+05 0.15598327D+05 0.15598327D+05 0.12458907D+01  1  2 12  7  6  5       21 0.445918518475D-02 0.100000000000D+01
0.152695461710D-05 0.000000000000D+00 0.000000000000D+00 0.198931939024D-04 0.000000000000D+00  6 2 -1 25 24 2 -2 4 0.21389153D+00 0.18702933D-02 0.15598327D+05 0.15598327D+05 0.15598327D+05 0.12458907D+01  1  2 12  7  6  5       21 0.477967205402D-02 0.100000000000D+01
0.960238892358D-06 0.000000000000D+00 0.000000000000D+00 0.198931939024D-04 0.521751056087D-07  6 2 -1 25 24 2 -2 4 0.21389153D+00 0.18702933D-02 0.15598327D+05 0.15598327D+05 0.15598327D+05 0.12458907D+01  1  2 11  7  6  5       21 0.300573897063D-02 0.100000000000D+01
0.142456916068D-05 0.000000000000D+00 0.000000000000D+00 0.198931939024D-04 0.000000000000D+00  6 2 -1 25 24 3 -3 4 0.21389153D+00 0.18702933D-02 0.15598327D+05 0.15598327D+05 0.15598327D+05 0.12458907D+01  1  2 12  8  6  5       21 0.445918518475D-02 0.100000000000D+01
0.142456916068D-05 0.000000000000D+00 0.000000000000D+00 0.198931939024D-04 0.000000000000D+00  6 2 -1 25 24 4 -4 4 0.21389153D+00 0.18702933D-02 0.15598327D+05 0.15598327D+05 0.15598327D+05 0.12458907D+01  1  2 12  8  6  5       21 0.445918518475D-02 0.100000000000D+01
0.152695461710D-05 0.000000000000D+00 0.000000000000D+00 0.198931939024D-04 0.000000000000D+00  6 2 -1 25 24 3 -3 4 0.21389153D+00 0.18702933D-02 0.15598327D+05 0.15598327D+05 0.15598327D+05 0.12458907D+01  1  2 12  8  6  5       21 0.477967205402D-02 0.100000000000D+01
0.152695461710D-05 0.000000000000D+00 0.000000000000D+00 0.198931939024D-04 0.000000000000D+00  6 2 -1 25 24 4 -4 4 0.21389153D+00 0.18702933D-02 0.15598327D+05 0.15598327D+05 0.15598327D+05 0.12458907D+01  1  2 12  8  6  5       21 0.477967205402D-02 0.100000000000D+01
0.966903929340D-06 0.000000000000D+00 0.000000000000D+00 0.198931939024D-04 0.515174662482D-07  6 2 -1 25 24 3 -3 4 0.21389153D+00 0.18702933D-02 0.15598327D+05 0.15598327D+05 0.15598327D+05 0.12458907D+01  1  2 11  8  6  5       21 0.302660186377D-02 0.100000000000D+01
0.966903929340D-06 0.000000000000D+00 0.000000000000D+00 0.198931939024D-04 0.515174662482D-07  6 2 -1 25 24 4 -4 4 0.21389153D+00 0.18702933D-02 0.15598327D+05 0.15598327D+05 0.15598327D+05 0.12458907D+01  1  2 11  8  6  5       21 0.302660186377D-02 0.100000000000D+01
  </mgrwgt>
  </event>
  <event>
  6     66 -.42622971E-03 0.22395025E+02 0.75467711E-02 0.10889670E+00
        2 -1    0    0  502    0 0.00000000E+00 0.00000000E+00 0.12495975E+04 0.12495975E+04 0.32000000E+00 0.0000E+00 0.9000E+01
       -1 -1    0    0    0  501 0.00000000E+00 0.00000000E+00 -.79560931E+02 0.79561575E+02 0.32000000E+00 0.0000E+00 0.9000E+01
       25  1    1    2    0    0 0.25913256E+03 0.20466373E+02 0.39242543E+03 0.48702286E+03 0.12500000E+03 0.0000E+00 0.9000E+01
       24  1    1    2    0    0 -.25443577E+03 -.13638441E+01 0.53873756E+03 0.60120279E+03 0.80419002E+02 0.0000E+00 0.9000E+01
       21  1    1    2  503  501 0.16885812E+01 0.54623828E+01 0.33023177E+02 0.33522852E+02 0.75000000E+00 0.0000E+00 0.9000E+01
       21  1    1    2  502  503 -.63853714E+01 -.24564912E+02 0.20585036E+03 0.20741056E+03 0.75000000E+00 0.0000E+00 0.9000E+01
#aMCatNLO 2  0  0  5  2 0.69644843D+01 0.00000000D+00  -5  6  0 0.00000000D+00 0.00000000D+00 0.00000000D+00 0.00000000D+00 0.00000000D+00
  <mgrwgt>
 -.3315274875D-01    2    2    0
 0.315308725415754D+03 0.000000000000000D+00 0.000000000000000D+00 0.315308725415754D+03
 0.315308725415754D+03 -.000000000000000D+00 -.000000000000000D+00 -.315308725415754D+03
 0.299175736574241D+03 0.259313208022796D+03 0.212010942337477D+02 -.786657174565728D+02
 0.267302382234177D+03 -.254274070138236D+03 -.706187604654296D+00 0.180982360493573D+02
 0.641393320230907D+02 -.503913788456056D+01 -.204949066290934D+02 0.605674814072155D+02
 0.000000000000000D+00 -.000000000000000D+00 0.000000000000000D+00 0.000000000000000D+00
 0.315308725415754D+03 0.000000000000000D+00 0.000000000000000D+00 0.315308725415754D+03
 0.315308725415754D+03 -.000000000000000D+00 -.000000000000000D+00 -.315308725415754D+03
 0.298501172255332D+03 0.259155507553593D+03 0.205597034907809D+02 -.767702503240582D+02
 0.267558907091425D+03 -.254415196347128D+03 -.128016842050433D+01 0.197944902954120D+02
 0.829530881603971D+01 0.150443346359775D+01 0.486936751180806D+01 0.654508123265263D+01
 0.562620626687110D+02 -.624474467006272D+01 -.241489025820846D+02 0.504306787959936D+02
-.356600419320D-03 0.000000000000D+00 0.000000000000D+00 0.330530037695D-04 0.000000000000D+00  6 2 -1 25 24 21 21 4 0.19224582D+00 0.12240196D-01 0.85651517D+05 0.85651517D+05 0.85651517D+05 0.11698018D+01  1  2 13  3  6  5       21 -.632462168956D-01 0.100000000000D+01
0.169675656275D-03 0.000000000000D+00 0.000000000000D+00 0.331232546914D-04 0.157674630609D-05  6 2 -1 25 24 21 21 4 0.19224582D+00 0.12240196D-01 0.85651517D+05 0.85651517D+05 0.85651517D+05 0.11698018D+01  1  2  1  3  6  5       21 0.300934681432D-01 0.100000000000D+01
  </mgrwgt>
  </event>
  <event>
  6     66 0.42622971E-03 0.95590859E+02 0.75467711E-02 0.11333464E+00
        2 -1    0    0  502    0 0.00000000E+00 0.00000000E+00 0.18590979E+04 0.18590980E+04 0.32000000E+00 0.0000E+00 0.9000E+01
       21 -1    0    0  503  501 0.00000000E+00 0.00000000E+00 -.73383379E+02 0.73387211E+02 0.75000000E+00 0.0000E+00 0.9000E+01
       25  1    1    2    0    0 -.19635232E+02 -.16184729E+02 0.45005616E+03 0.46778525E+03 0.12500000E+03 0.0000E+00 0.9000E+01
       24  1    1    2    0    0 0.10941646E+03 0.11158298E+03 0.12963020E+04 0.13081624E+04 0.80419002E+02 0.0000E+00 0.9000E+01
        1  1    1    2  503    0 -.86789763E+02 -.67205244E+02 0.21954019E+01 0.10979039E+03 0.32000000E+00 0.0000E+00 0.9000E+01
       21  1    1    2  502  501 -.29914679E+01 -.28193007E+02 0.37160983E+02 0.46747146E+02 0.75000000E+00 0.0000E+00 0.9000E+01
#aMCatNLO 2  0  0  2  2 0.10976797D+03 0.00000000D+00  -5  6  0 0.00000000D+00 0.00000000D+00 0.00000000D+00 0.00000000D+00 0.00000000D+00
  <mgrwgt>
 0.8375718995D-01    1    2    0
 0.179740570304771D+03 0.000000000000000D+00 0.000000000000000D+00 0.179740570304771D+03
 0.179740570304771D+03 0.000000000000000D+00 0.000000000000000D+00 -.179740570304771D+03
 0.146704367283192D+03 -.526331336692815D+02 -.417356349953255D+02 -.372164129336818D+02
 0.154129689631793D+03 0.684913328066230D+02 0.798937060680209D+02 0.788332311446864D+02
 0.000000000000000D+00 -.000000000000000D+00 -.000000000000000D+00 -.000000000000000D+00
 0.586470836945560D+02 -.158581991373415D+02 -.381580710726954D+02 -.416168182110046D+02
 0.193769248986114D+03 0.000000000000000D+00 0.000000000000000D+00 0.193769248986114D+03
 0.704087727228967D+03 0.000000000000000D+00 0.000000000000000D+00 -.704087727228967D+03
 0.132881520296568D+03 -.196348777800550D+02 -.161835910489326D+02 -.372164129336818D+02
 0.192627140822516D+03 0.109417470823529D+03 0.111584668180523D+03 0.788332311446864D+02
 0.521990380066787D+03 -.867897625132324D+02 -.672052436128646D+02 -.510318478242853D+03
 0.503579350292110D+02 -.299283053024167D+01 -.281958335187256D+02 -.416168182110046D+02
0.560259316090D-04 0.000000000000D+00 0.000000000000D+00 0.101298698938D-04 0.561331812810D-08  6 2 21 25 24 1 21 4 0.28601529D+00 0.11290045D-01 0.48717914D+05 0.48717914D+05 0.48717914D+05 0.11934006D+01  1  2  1  5  5  2       -1 0.837571899526D-01 0.100000000000D+01
  </mgrwgt>
  </event>
  <event>
  5     66 0.42622971E-03 0.93005154E+02 0.75467711E-02 0.10715868E+00
        4 -1    0    0  502    0 0.00000000E+00 0.00000000E+00 0.60510700E+03 0.60510898E+03 0.15500000E+01 0.0000E+00 0.9000E+01
       -3 -1    0    0    0  501 0.00000000E+00 0.00000000E+00 -.50670089E+03 0.50670114E+03 0.50000000E+00 0.0000E+00 0.9000E+01
       25  1    1    2    0    0 -.20666050E+03 0.17420279E+03 0.30676029E+03 0.42753018E+03 0.12500000E+03 0.0000E+00 0.9000E+01
       24  1    1    2    0    0 0.13080904E+03 -.12038365E+03 0.19171500E+03 0.27354175E+03 0.80419002E+02 0.0000E+00 0.9000E+01
       21  1    1    2  502  501 0.75851462E+02 -.53819140E+02 -.40006919E+03 0.41073819E+03 0.75000000E+00 0.0000E+00 0.9000E+01
#aMCatNLO 1  0  0  5  1 0.74403582D+02 0.00000000D+00  -5  6  0 0.00000000D+00 0.00000000D+00 0.00000000D+00 0.00000000D+00 0.00000000D+00
  <mgrwgt>
 0.8385908746D-02   15    2    0
 0.553723301951413D+03 0.000000000000000D+00 0.000000000000000D+00 0.553723301951413D+03
 0.553723301951413D+03 -.000000000000000D+00 -.000000000000000D+00 -.553723301951413D+03
 0.401956619757786D+03 -.206660541095972D+03 0.174202819578209D+03 0.269979485465151D+03
 0.257584099323986D+03 0.130809015348402D+03 -.120383634167539D+03 0.168164010413573D+03
 0.447905884821054D+03 0.758515257475705D+02 -.538191854106701D+02 -.438143495878724D+03
 0.000000000000000D+00 0.000000000000000D+00 0.000000000000000D+00 0.000000000000000D+00
 0.553723301951413D+03 0.000000000000000D+00 0.000000000000000D+00 0.553723301951413D+03
 0.553723301951413D+03 -.000000000000000D+00 -.000000000000000D+00 -.553723301951413D+03
 0.394337644623715D+03 -.205030815890322D+03 0.173046475231185D+03 0.260565653747363D+03
 0.254567885267195D+03 0.131857204486195D+03 -.121127359293650D+03 0.162109323330504D+03
 0.282170039677962D+03 -.173161866891046D+02 -.711227726051852D+02 -.272509875394199D+03
 0.176371034333955D+03 0.904897980932319D+02 0.192036566676500D+02 -.150165101683668D+03
0.738750203711D-02 0.000000000000D+00 0.000000000000D+00 0.452619147962D-05 0.000000000000D+00  6 4 -3 25 24 21 21 2 0.93093556D-01 0.77954155D-01 0.85823754D+05 0.85823754D+05 0.85823754D+05 0.11697203D+01  1  2  2  3  6  5       21 0.339359158330D-02 0.100000000000D+01
0.702553259015D-03 0.389849193000D-03 -.283699529965D-04 0.452619147962D-05 0.000000000000D+00  6 4 -3 25 24 21 21 4 0.93093556D-01 0.77954155D-01 0.85823754D+05 0.85823754D+05 0.85823754D+05 0.11697203D+01  1  2  3  3  6  5       21 0.441575835507D-03 0.100000000000D+01
0.121927154638D-03 0.000000000000D+00 0.000000000000D+00 0.452619147962D-05 0.000000000000D+00  6 4 -3 25 24 21 21 4 0.93093556D-01 0.77954155D-01 0.85823754D+05 0.85823754D+05 0.85823754D+05 0.11697203D+01  1  2 15  3  6  5       21 0.766348806863D-04 0.100000000000D+01
0.960354911650D-02 0.000000000000D+00 0.000000000000D+00 0.445457265661D-05 0.000000000000D+00  6 4 -3 25 24 21 21 4 0.93093556D-01 0.77954155D-01 0.10823122D+06 0.10823122D+06 0.10823122D+06 0.11604291D+01  1  2 12  3  6  5       21 0.586561835323D-02 0.100000000000D+01
-.100572057334D-01 0.000000000000D+00 0.000000000000D+00 0.452619147962D-05 0.000000000000D+00  6 4 -3 25 24 21 21 4 0.93093556D-01 0.77954155D-01 0.85823754D+05 0.85823754D+05 0.85823754D+05 0.11697203D+01  1  2  4  3  6  5       21 -.632125602951D-02 0.100000000000D+01
-.177894520227D-01 0.000000000000D+00 0.000000000000D+00 0.452619147962D-05 0.000000000000D+00  6 4 -3 25 24 21 21 4 0.93093556D-01 0.77954155D-01 0.85823754D+05 0.85823754D+05 0.85823754D+05 0.11697203D+01  1  2  5  3  6  5       21 -.111812051817D-01 0.100000000000D+01
0.270066329489D-01 0.000000000000D+00 -.000000000000D+00 0.452619147962D-05 0.000000000000D+00  6 4 -3 25 24 21 21 4 0.93093556D-01 0.77954155D-01 0.85823754D+05 0.85823754D+05 0.85823754D+05 0.11697203D+01  1  2  6  3  6  5       21 0.169744803765D-01 0.100000000000D+01
0.236085467670D-03 0.000000000000D+00 0.000000000000D+00 0.445457265661D-05 0.000000000000D+00  6 4 -3 25 24 3 -3 4 0.93093556D-01 0.77954155D-01 0.10823122D+06 0.10823122D+06 0.10823122D+06 0.11604291D+01  1  2 12  6  6  5       21 0.144195363120D-03 0.100000000000D+01
-.572889284480D-03 0.000000000000D+00 0.000000000000D+00 0.452619147962D-05 0.000000000000D+00  6 4 -3 25 24 3 -3 4 0.93093556D-01 0.77954155D-01 0.85823754D+05 0.85823754D+05 0.85823754D+05 0.11697203D+01  1  2  5  6  6  5       21 -.360078131019D-03 0.100000000000D+01
0.236085467670D-03 0.000000000000D+00 0.000000000000D+00 0.445457265661D-05 0.000000000000D+00  6 4 -3 25 24 4 -4 4 0.93093556D-01 0.77954155D-01 0.10823122D+06 0.10823122D+06 0.10823122D+06 0.11604291D+01  1  2 12  7  6  5       21 0.144195363120D-03 0.100000000000D+01
-.572889284480D-03 0.000000000000D+00 0.000000000000D+00 0.452619147962D-05 0.000000000000D+00  6 4 -3 25 24 4 -4 4 0.93093556D-01 0.77954155D-01 0.85823754D+05 0.85823754D+05 0.85823754D+05 0.11697203D+01  1  2  5  7  6  5       21 -.360078131019D-03 0.100000000000D+01
0.236085467670D-03 0.000000000000D+00 0.000000000000D+00 0.445457265661D-05 0.000000000000D+00  6 4 -3 25 24 1 -1 4 0.93093556D-01 0.77954155D-01 0.10823122D+06 0.10823122D+06 0.10823122D+06 0.11604291D+01  1  2 12  8  6  5       21 0.144195363120D-03 0.100000000000D+01
0.236085467670D-03 0.000000000000D+00 0.000000000000D+00 0.445457265661D-05 0.000000000000D+00  6 4 -3 25 24 2 -2 4 0.93093556D-01 0.77954155D-01 0.10823122D+06 0.10823122D+06 0.10823122D+06 0.11604291D+01  1  2 12  8  6  5       21 0.144195363120D-03 0.100000000000D+01
-.572889284480D-03 0.000000000000D+00 0.000000000000D+00 0.452619147962D-05 0.000000000000D+00  6 4 -3 25 24 1 -1 4 0.93093556D-01 0.77954155D-01 0.85823754D+05 0.85823754D+05 0.85823754D+05 0.11697203D+01  1  2  5  8  6  5       21 -.360078131019D-03 0.100000000000D+01
-.572889284480D-03 0.000000000000D+00 0.000000000000D+00 0.452619147962D-05 0.000000000000D+00  6 4 -3 25 24 2 -2 4 0.93093556D-01 0.77954155D-01 0.85823754D+05 0.85823754D+05 0.85823754D+05 0.11697203D+01  1  2  5  8  6  5       21 -.360078131019D-03 0.100000000000D+01
  </mgrwgt>
  </event>
  <event>
  5     66 0.42622971E-03 0.35207589E+02 0.75467711E-02 0.11676956E+00
        2 -1    0    0  502    0 0.00000000E+00 0.00000000E+00 0.99870331E+03 0.99870337E+03 0.32000000E+00 0.0000E+00 0.9000E+01
       -1 -1    0    0    0  501 0.00000000E+00 0.00000000E+00 -.71601819E+02 0.71602534E+02 0.32000000E+00 0.0000E+00 0.9000E+01
       25  1    1    2    0    0 0.46536192E+02 0.12242046E+03 0.68219340E+02 0.19347161E+03 0.12500000E+03 0.0000E+00 0.9000E+01
       24  1    1    2    0    0 -.12288192E+02 -.11427536E+03 0.72163972E+03 0.73514690E+03 0.80419002E+02 0.0000E+00 0.9000E+01
       21  1    1    2  502  501 -.34248001E+02 -.81451007E+01 0.13724243E+03 0.14168739E+03 0.75000000E+00 0.0000E+00 0.9000E+01
#aMCatNLO 1  0  0  1  1 0.36506421D+01 0.00000000D+00  -5  6  0 0.00000000D+00 0.00000000D+00 0.00000000D+00 0.00000000D+00 0.00000000D+00
  <mgrwgt>
 0.3874805063D+00    6    4    0
 0.267412386343306D+03 0.000000000000000D+00 0.000000000000000D+00 0.267412386343306D+03
 0.267412386343306D+03 0.000000000000000D+00 0.000000000000000D+00 -.267412386343306D+03
 0.268926746987959D+03 0.465385178044444D+02 0.122421014895754D+03 -.198856372082929D+03
 0.220255222626341D+03 -.122862873598500D+02 -.114274908273461D+03 0.169810010369859D+03
 0.456428030723125D+02 -.342522304445944D+02 -.814610662229332D+01 0.290463617130704D+02
 0.000000000000000D+00 0.000000000000000D+00 0.000000000000000D+00 -.000000000000000D+00
 0.268689394662474D+03 0.000000000000000D+00 0.000000000000000D+00 0.268689394662474D+03
 0.270040470480017D+03 0.000000000000000D+00 0.000000000000000D+00 -.270040470480017D+03
 0.268049733152423D+03 0.456309168144309D+02 0.120828896195303D+03 -.198856372082929D+03
 0.220979537933043D+03 -.130320650993282D+02 -.115583155728531D+03 0.169810010369859D+03
 0.458079608521482D+02 -.344068010951630D+02 -.841725531650923D+01 0.290463617130704D+02
 0.389263320487723D+01 0.180794938006031D+01 0.317151484973710D+01 -.135107581754295D+01
 0.267412386343306D+03 0.000000000000000D+00 0.000000000000000D+00 0.267412386343306D+03
 0.267412386343306D+03 0.000000000000000D+00 0.000000000000000D+00 -.267412386343306D+03
 0.268926746987959D+03 0.465385178044444D+02 0.122421014895754D+03 -.198856372082929D+03
 0.220255222626341D+03 -.122862873598500D+02 -.114274908273461D+03 0.169810010369859D+03
 0.000000000000000D+00 0.000000000000000D+00 0.000000000000000D+00 -.000000000000000D+00
 0.456428030723125D+02 -.342522304445944D+02 -.814610662229332D+01 0.290463617130704D+02
 0.268689394662474D+03 0.000000000000000D+00 0.000000000000000D+00 0.268689394662474D+03
 0.270040470480017D+03 0.000000000000000D+00 0.000000000000000D+00 -.270040470480017D+03
 0.268049733152423D+03 0.456309168144309D+02 0.120828896195303D+03 -.198856372082929D+03
 0.220979537933043D+03 -.130320650993282D+02 -.115583155728531D+03 0.169810010369859D+03
 0.389263320487723D+01 0.180794938006031D+01 0.317151484973710D+01 -.135107581754295D+01
 0.458079608521482D+02 -.344068010951630D+02 -.841725531650923D+01 0.290463617130704D+02
0.152225275184D-02 0.000000000000D+00 0.000000000000D+00 0.599347901218D-05 0.000000000000D+00  6 2 -1 25 24 21 21 2 0.15364672D+00 0.11015723D-01 0.31778104D+05 0.31778104D+05 0.31778104D+05 0.12122826D+01  1  2  2  1  6  1        2 0.350996223946D+00 0.100000000000D+01
0.161059682966D-03 0.803314846974D-04 -.584585138541D-05 0.599347901218D-05 0.000000000000D+00  6 2 -1 25 24 21 21 4 0.15364672D+00 0.11015723D-01 0.31778104D+05 0.31778104D+05 0.31778104D+05 0.12122826D+01  1  2  3  1  6  1        2 0.545770737189D-01 0.100000000000D+01
0.328833450165D-04 0.000000000000D+00 0.000000000000D+00 0.599347901218D-05 0.000000000000D+00  6 2 -1 25 24 21 21 4 0.15364672D+00 0.11015723D-01 0.31778104D+05 0.31778104D+05 0.31778104D+05 0.12122826D+01  1  2 15  1  6  1        2 0.111429298260D-01 0.100000000000D+01
-.287877533028D-02 0.000000000000D+00 0.000000000000D+00 0.599347901218D-05 0.000000000000D+00  6 2 -1 25 24 21 21 4 0.15364672D+00 0.11015723D-01 0.31778104D+05 0.31778104D+05 0.31778104D+05 0.12122826D+01  1  2  4  1  6  1        2 -.975508771204D+00 0.100000000000D+01
0.285676038564D-02 0.000000000000D+00 0.000000000000D+00 0.599347901218D-05 0.119627632965D-05  6 2 -1 25 24 21 21 4 0.15438045D+00 0.11123984D-01 0.32439981D+05 0.32439981D+05 0.32439981D+05 0.12113503D+01  1  2 11  1  6  1        2 0.944331128685D+00 0.100000000000D+01
0.700357833721D-05 0.000000000000D+00 0.000000000000D+00 0.598426440363D-05 0.463255540641D-08  6 21 -1 25 24 -2 21 4 0.15438045D+00 0.11123984D-01 0.32439981D+05 0.32439981D+05 0.32439981D+05 0.12113503D+01  3  4 11  4  5  1        2 0.194192128734D-02 0.100000000000D+01
  </mgrwgt>
  </event>
  <event>
  5     66 0.42622971E-03 0.31771167E+02 0.75467711E-02 0.10857767E+00
        2 -1    0    0  502    0 0.00000000E+00 0.00000000E+00 0.69176826E+03 0.69176833E+03 0.32000000E+00 0.0000E+00 0.9000E+01
       -1 -1    0    0    0  501 0.00000000E+00 0.00000000E+00 -.97827276E+02 0.97827799E+02 0.32000000E+00 0.0000E+00 0.9000E+01
       25  1    1    2    0    0 -.16208956E+03 -.13775223E+02 0.17957979E+03 0.27264754E+03 0.12500000E+03 0.0000E+00 0.9000E+01
       24  1    1    2    0    0 0.13655316E+03 -.51264867E+01 0.73769847E+02 0.17487782E+03 0.80419002E+02 0.0000E+00 0.9000E+01
       21  1    1    2  502  501 0.25536392E+02 0.18901710E+02 0.34059134E+03 0.34207076E+03 0.75000000E+00 0.0000E+00 0.9000E+01
#aMCatNLO 1  0  0  2  5 0.49210713D+02 0.00000000D+00  -5  6  0 0.00000000D+00 0.00000000D+00 0.00000000D+00 0.00000000D+00 0.00000000D+00
  <mgrwgt>
 0.4765046817D+00    3    2    0
 0.260142345716318D+03 0.000000000000000D+00 0.000000000000000D+00 0.260142345716318D+03
 0.260142345716318D+03 0.000000000000000D+00 0.000000000000000D+00 -.260142345716318D+03
 0.208773777985943D+03 -.162089724972656D+03 -.137753490174049D+02 -.387124165128116D+02
 0.181185507019639D+03 0.136553015903168D+03 -.512659574435373D+01 -.876810347989581D+02
 0.130325406427054D+03 0.255367090694878D+02 0.189019447617587D+02 0.126393451311770D+03
 0.000000000000000D+00 -.000000000000000D+00 0.000000000000000D+00 0.000000000000000D+00
 0.559374982439590D+03 0.000000000000000D+00 0.000000000000000D+00 0.559374982439590D+03
 0.292499513839286D+03 0.000000000000000D+00 0.000000000000000D+00 -.292499513839286D+03
 0.174882700127816D+03 -.110418118156995D+03 -.356110487686338D+02 -.387124165128116D+02
 0.227283991979238D+03 0.191566489029514D+03 -.283745215490359D+02 -.876810347989581D+02
 0.140849800257827D+03 0.620591176754023D+02 0.346808470481272D+01 0.126393451311770D+03
 0.308858003913995D+03 -.143207488547922D+03 0.605174856128570D+02 0.266875468600304D+03
0.166505887676D-02 0.000000000000D+00 0.000000000000D+00 0.207141663647D-04 0.000000000000D+00  6 2 -1 25 24 21 21 2 0.10642593D+00 0.15050396D-01 0.39101318D+05 0.39101318D+05 0.39101318D+05 0.12030037D+01  1  2  2  2  6  2       -1 0.372385158389D+00 0.100000000000D+01
0.291035472716D-03 0.878675709520D-04 -.639426450684D-05 0.207141663647D-04 0.000000000000D+00  6 2 -1 25 24 21 21 4 0.10642593D+00 0.15050396D-01 0.39101318D+05 0.39101318D+05 0.39101318D+05 0.12030037D+01  1  2  3  2  6  2       -1 0.941982041429D-01 0.100000000000D+01
0.306529816869D-04 0.000000000000D+00 0.000000000000D+00 0.207141663647D-04 0.000000000000D+00  6 2 -1 25 24 21 21 4 0.10642593D+00 0.15050396D-01 0.39101318D+05 0.39101318D+05 0.39101318D+05 0.12030037D+01  1  2 15  2  6  2       -1 0.992131921099D-02 0.100000000000D+01
  </mgrwgt>
  </event>
  <event>
  6     66 0.42622971E-03 0.86633205E+02 0.75467711E-02 0.11066728E+00
        2 -1    0    0  502    0 0.00000000E+00 0.00000000E+00 0.26012215E+03 0.26012235E+03 0.32000000E+00 0.0000E+00 0.9000E+01
       21 -1    0    0  503  501 0.00000000E+00 0.00000000E+00 -.32496144E+03 0.32496230E+03 0.75000000E+00 0.0000E+00 0.9000E+01
       25  1    1    2    0    0 0.14151888E+02 -.18476861E+02 -.16453609E+02 0.12820839E+03 0.12500000E+03 0.0000E+00 0.9000E+01
       24  1    1    2    0    0 -.52302335E+02 -.46548276E+02 -.10449313E+03 0.14929269E+03 0.80419002E+02 0.0000E+00 0.9000E+01
        1  1    1    2  503    0 -.77679450E+02 0.13260992E+03 -.17371535E+02 0.15466532E+03 0.32000000E+00 0.0000E+00 0.9000E+01
       21  1    1    2  502  501 0.11582990E+03 -.67584783E+02 0.73478988E+02 0.15291825E+03 0.75000000E+00 0.0000E+00 0.9000E+01
#aMCatNLO 2  0  0  2  5 0.68432795D+02 0.00000000D+00  -5  6  0 0.00000000D+00 0.00000000D+00 0.00000000D+00 0.00000000D+00 0.00000000D+00
  <mgrwgt>
 0.2072591791D-02    1    2    0
 0.199617213370189D+03 0.000000000000000D+00 0.000000000000000D+00 0.199617213370189D+03
 0.199617213370189D+03 0.000000000000000D+00 0.000000000000000D+00 -.199617213370189D+03
 0.127375926015045D+03 -.975702054763252D+01 0.223383553476625D+02 -.232915404920960D+01
 0.143245948316284D+03 -.787768287052458D+02 -.135332656021076D+01 -.885695518845320D+02
 0.000000000000000D+00 -.000000000000000D+00 0.000000000000000D+00 -.000000000000000D+00
 0.128612552409049D+03 0.885338492528783D+02 -.209850287874517D+02 0.908987059337416D+02
 0.290581986407376D+03 0.000000000000000D+00 0.000000000000000D+00 0.290581986407376D+03
 0.290898561804039D+03 0.000000000000000D+00 0.000000000000000D+00 -.290898561804039D+03
 0.127169483426171D+03 0.141514079201957D+02 -.184767478245082D+02 -.232915404920960D+01
 0.138614964086077D+03 -.523027646989770D+02 -.465483361467469D+02 -.885695518845320D+02
 0.153686654887488D+03 -.776794501009923D+02 0.132609919321790D+03 -.316575396663310D+00
 0.162009445811678D+03 0.115830806879774D+03 -.675848353505345D+02 0.908987059337416D+02
0.181062816348D-05 0.000000000000D+00 0.000000000000D+00 0.329529415081D-05 0.974301057564D-10  6 2 21 25 24 1 21 4 0.40018851D-01 0.49994121D-01 0.68008500D+05 0.68008500D+05 0.68008500D+05 0.11792736D+01  1  2  1  5  5  2       -1 0.207259179052D-02 0.100000000000D+01
  </mgrwgt>
  </event>
  <event>
  5     66 0.42622971E-03 0.22699099E+02 0.75467711E-02 0.11621714E+00
        2 -1    0    0  502    0 0.00000000E+00 0.00000000E+00 0.30593112E+03 0.30593128E+03 0.32000000E+00 0.0000E+00 0.9000E+01
       -1 -1    0    0    0  501 0.00000000E+00 0.00000000E+00 -.10452056E+03 0.10452105E+03 0.32000000E+00 0.0000E+00 0.9000E+01
       25  1    1    2    0    0 0.10043138E+03 0.17177837E+02 0.75387310E+02 0.17801625E+03 0.12500000E+03 0.0000E+00 0.9000E+01
       24  1    1    2    0    0 -.12177915E+03 -.94723643E+01 0.14264795E+03 0.20429278E+03 0.80419002E+02 0.0000E+00 0.9000E+01
       21  1    1    2  502  501 0.21347769E+02 -.77054727E+01 -.16624705E+02 0.28143292E+02 0.75000000E+00 0.0000E+00 0.9000E+01
#aMCatNLO 1  0  0  2  2 0.40740271D+02 0.00000000D+00  -5  6  0 0.00000000D+00 0.00000000D+00 0.00000000D+00 0.00000000D+00 0.00000000D+00
  <mgrwgt>
 0.1556410442D+00    7    4    0
 0.178818974360271D+03 0.000000000000000D+00 0.000000000000000D+00 0.178818974360271D+03
 0.178818974360271D+03 0.000000000000000D+00 0.000000000000000D+00 -.178818974360271D+03
 0.161847988222776D+03 0.100429815071007D+03 0.171784021830437D+02 -.137304783238154D+02
 0.154128862815639D+03 -.121780640792972D+03 -.947182607514644D+01 0.486646734020374D+02
 0.416610976821275D+02 0.213508257219641D+02 -.770657610789727D+01 -.349341950782220D+02
 0.000000000000000D+00 0.000000000000000D+00 -.000000000000000D+00 -.000000000000000D+00
 0.186156806322113D+03 0.000000000000000D+00 0.000000000000000D+00 0.186156806322113D+03
 0.247103681143718D+03 0.000000000000000D+00 0.000000000000000D+00 -.247103681143718D+03
 0.157738551106420D+03 0.897440906438850D+02 0.318421523244592D+02 -.137304783238154D+02
 0.162423732584635D+03 -.132364921996547D+03 0.505271608895505D+01 0.486646734020374D+02
 0.397886463348973D+02 0.186274647160455D+02 -.396937648160880D+01 -.349341950782220D+02
 0.733095574398789D+02 0.239933666366164D+02 -.329254919318054D+02 -.609468748216053D+02
 0.178818974360271D+03 0.000000000000000D+00 0.000000000000000D+00 0.178818974360271D+03
 0.178818974360271D+03 0.000000000000000D+00 0.000000000000000D+00 -.178818974360271D+03
 0.161847988222776D+03 0.100429815071007D+03 0.171784021830437D+02 -.137304783238154D+02
 0.154128862815639D+03 -.121780640792972D+03 -.947182607514644D+01 0.486646734020374D+02
 0.000000000000000D+00 0.000000000000000D+00 -.000000000000000D+00 -.000000000000000D+00
 0.416610976821275D+02 0.213508257219641D+02 -.770657610789727D+01 -.349341950782220D+02
 0.186156806322113D+03 0.000000000000000D+00 0.000000000000000D+00 0.186156806322113D+03
 0.247103681143718D+03 0.000000000000000D+00 0.000000000000000D+00 -.247103681143718D+03
 0.157738551106420D+03 0.897440906438850D+02 0.318421523244592D+02 -.137304783238154D+02
 0.162423732584635D+03 -.132364921996547D+03 0.505271608895505D+01 0.486646734020374D+02
 0.733095574398789D+02 0.239933666366164D+02 -.329254919318054D+02 -.609468748216053D+02
 0.397886463348973D+02 0.186274647160455D+02 -.396937648160880D+01 -.349341950782220D+02
0.158159583640D-03 0.000000000000D+00 0.000000000000D+00 0.357822201437D-04 0.000000000000D+00  6 2 -1 25 24 21 21 2 0.47066376D-01 0.16080136D-01 0.27259352D+05 0.27259352D+05 0.27259352D+05 0.12192895D+01  1  2  2  2  6  2       -1 0.804619612546D-01 0.100000000000D+01
0.307061163549D-04 0.834631053064D-05 -.607374445554D-06 0.357822201437D-04 0.000000000000D+00  6 2 -1 25 24 21 21 4 0.47066376D-01 0.16080136D-01 0.27259352D+05 0.27259352D+05 0.27259352D+05 0.12192895D+01  1  2  3  2  6  2       -1 0.232238190867D-01 0.100000000000D+01
0.427642097374D-05 0.000000000000D+00 0.000000000000D+00 0.357822201437D-04 0.000000000000D+00  6 2 -1 25 24 21 21 4 0.47066376D-01 0.16080136D-01 0.27259352D+05 0.27259352D+05 0.27259352D+05 0.12192895D+01  1  2 15  2  6  2       -1 0.323436627039D-02 0.100000000000D+01
-.626245547006D-04 0.000000000000D+00 0.000000000000D+00 0.357822201437D-04 0.000000000000D+00  6 2 -1 25 24 21 21 4 0.47066376D-01 0.16080136D-01 0.27259352D+05 0.27259352D+05 0.27259352D+05 0.12192895D+01  1  2  4  2  6  2       -1 -.473645482205D-01 0.100000000000D+01
-.716697976875D-03 0.000000000000D+00 -.125214906420D-03 0.357822201437D-04 0.000000000000D+00  6 2 -1 25 24 21 21 4 0.47066376D-01 0.22990944D-01 0.27259352D+05 0.27259352D+05 0.27259352D+05 0.12192895D+01  1  2  5  2  6  2       -1 -.305031185722D+00 0.100000000000D+01
0.722399957064D-03 0.000000000000D+00 0.117617701693D-03 0.357822201437D-04 0.000000000000D+00  6 2 -1 25 24 21 21 4 0.47066376D-01 0.16080136D-01 0.27259352D+05 0.27259352D+05 0.27259352D+05 0.12192895D+01  1  2  6  2  6  2       -1 0.546369515350D+00 0.100000000000D+01
-.277871166269D-04 0.000000000000D+00 -.549274014788D-05 0.357822201437D-04 0.000000000000D+00  6 2 21 25 24 1 21 4 0.47066376D-01 0.22990944D-01 0.27259352D+05 0.27259352D+05 0.27259352D+05 0.12192895D+01  3  4  5  5  5  2       -1 -.145252883829D+00 0.100000000000D+01
  </mgrwgt>
  </event>
  <event>
  6     66 0.42622971E-03 0.76964627E+02 0.75467711E-02 0.11727099E+00
        2 -1    0    0  502    0 0.00000000E+00 0.00000000E+00 0.28397291E+03 0.28397309E+03 0.32000000E+00 0.0000E+00 0.9000E+01
       -1 -1    0    0    0  503 0.00000000E+00 0.00000000E+00 -.14230519E+03 0.14230555E+03 0.32000000E+00 0.0000E+00 0.9000E+01
       25  1    1    2    0    0 0.44970714E+02 -.61424085E+02 -.37402092E+02 0.15106025E+03 0.12500000E+03 0.0000E+00 0.9000E+01
       24  1    1    2    0    0 -.93777870E+02 -.15520550E+01 0.77993518E+02 0.14610579E+03 0.80419002E+02 0.0000E+00 0.9000E+01
       21  1    1    2  502  501 0.35251803E+02 0.51308566E+02 0.81957007E+02 0.10292119E+03 0.75000000E+00 0.0000E+00 0.9000E+01
       21  1    1    2  501  503 0.13555354E+02 0.11667574E+02 0.19119285E+02 0.26191400E+02 0.75000000E+00 0.0000E+00 0.9000E+01
#aMCatNLO 2  0  0  2  2 0.17885187D+02 0.00000000D+00  -5  6  0 0.00000000D+00 0.00000000D+00 0.00000000D+00 0.00000000D+00 0.00000000D+00
  <mgrwgt>
 0.5942740803D-02    1    2    0
 0.190218164198179D+03 0.000000000000000D+00 0.000000000000000D+00 0.190218164198179D+03
 0.190218164198179D+03 0.000000000000000D+00 0.000000000000000D+00 -.190218164198179D+03
 0.170630381212434D+03 0.510480621073660D+02 -.561934644919639D+02 -.878983327269268D+02
 0.125140086649193D+03 -.892641358811450D+02 0.233280609501663D+01 0.349184391591688D+02
 0.846658605347310D+02 0.382160737737790D+02 0.538606583969473D+02 0.529798935677579D+02
 0.000000000000000D+00 0.000000000000000D+00 0.000000000000000D+00 0.000000000000000D+00
 0.206930833109069D+03 0.000000000000000D+00 0.000000000000000D+00 0.206930833109069D+03
 0.195274161943301D+03 0.000000000000000D+00 0.000000000000000D+00 -.195274161943301D+03
 0.170723333246229D+03 0.449700194215054D+02 -.614250516626482D+02 -.878983327269268D+02
 0.128387331987465D+03 -.937783696721948D+02 -.155275522913552D+01 0.349184391591688D+02
 0.817458430081054D+02 0.352529964884940D+02 0.513102325587897D+02 0.529798935677579D+02
 0.213484868105694D+02 0.135553537621955D+02 0.116675743329940D+02 0.116566711657680D+02
0.120956766787D-04 0.000000000000D+00 0.000000000000D+00 0.437190900330D-05 0.106610563713D-05  6 2 -1 25 24 21 21 4 0.43686728D-01 0.21892419D-01 0.30632578D+05 0.30632578D+05 0.30632578D+05 0.12139484D+01  1  2  1  2  6  2       -1 0.594274080270D-02 0.100000000000D+01
  </mgrwgt>
  </event>
  <event>
  5     66 0.42622971E-03 0.32366028E+02 0.75467711E-02 0.12092222E+00
        2 -1    0    0  502    0 0.00000000E+00 0.00000000E+00 0.90530690E+02 0.90531255E+02 0.32000000E+00 0.0000E+00 0.9000E+01
       -1 -1    0    0    0  501 -.00000000E+00 -.00000000E+00 -.46952778E+03 0.46952789E+03 0.32000000E+00 0.0000E+00 0.9000E+01
       25  1    1    2    0    0 -.68491691E+01 0.20460891E+02 -.18425826E+03 0.22369995E+03 0.12500000E+03 0.0000E+00 0.9000E+01
       24  1    1    2    0    0 0.45287026E+01 -.52743006E+02 0.36425692E+02 0.10293872E+03 0.80419002E+02 0.0000E+00 0.9000E+01
       21  1    1    2  502  501 0.23204665E+01 0.32282115E+02 -.23116452E+03 0.23342047E+03 0.75000000E+00 0.0000E+00 0.9000E+01
#aMCatNLO 1  0  0  5  1 0.21746331D+02 0.00000000D+00  -5  6  0 0.00000000D+00 0.00000000D+00 0.00000000D+00 0.00000000D+00 0.00000000D+00
  <mgrwgt>
 0.2062573969D+00   15    2    0
 0.206171925298934D+03 0.000000000000000D+00 0.000000000000000D+00 0.206171925298934D+03
 0.206171925298934D+03 -.000000000000000D+00 -.000000000000000D+00 -.206171925298934D+03
 0.134479330629881D+03 -.684918857683697D+01 0.204606201027296D+02 -.446558171743799D+02
 0.173295701997755D+03 0.452867750490836D+01 -.527433550504206D+02 0.144089603908838D+03
 0.104568817970232D+03 0.232051107192860D+01 0.322827349476910D+02 -.994337867344583D+02
 0.000000000000000D+00 0.000000000000000D+00 0.000000000000000D+00 -.000000000000000D+00
 0.206171925298934D+03 0.000000000000000D+00 0.000000000000000D+00 0.206171925298934D+03
 0.206171925298934D+03 -.000000000000000D+00 -.000000000000000D+00 -.206171925298934D+03
 0.136686931217742D+03 -.672029455180597D+01 0.222537818319509D+02 -.501789198871052D+02
 0.166888905169248D+03 0.469037816402643D+01 -.504937904685818D+02 0.137160738518765D+03
 0.851934708758077D+02 0.669827571714249D+01 0.455543343614867D+02 -.716788895224117D+02
 0.235745433350710D+02 -.466835932936294D+01 -.173143257248558D+02 -.153029291092485D+02
0.614227500565D-03 0.000000000000D+00 0.000000000000D+00 0.146934471209D-04 0.000000000000D+00  6 2 -1 25 24 21 21 2 0.13927850D-01 0.72235095D-01 0.16319199D+05 0.16319199D+05 0.16319199D+05 0.12436707D+01  1  2  2  3  6  5       21 0.916603129722D-01 0.100000000000D+01
0.320193274008D-04 0.324136757203D-04 -.235879533199D-05 0.146934471209D-04 0.000000000000D+00  6 2 -1 25 24 21 21 4 0.13927850D-01 0.72235095D-01 0.16319199D+05 0.16319199D+05 0.16319199D+05 0.12436707D+01  1  2  3  3  6  5       21 0.739052163110D-02 0.100000000000D+01
0.211304603143D-04 0.000000000000D+00 0.000000000000D+00 0.146934471209D-04 0.000000000000D+00  6 2 -1 25 24 21 21 4 0.13927850D-01 0.72235095D-01 0.16319199D+05 0.16319199D+05 0.16319199D+05 0.12436707D+01  1  2 15  3  6  5       21 0.487721437972D-02 0.100000000000D+01
0.647663940245D-03 0.000000000000D+00 0.000000000000D+00 0.144354013697D-04 0.000000000000D+00  6 2 -1 25 24 21 21 4 0.13927850D-01 0.72235095D-01 0.20476579D+05 0.20476579D+05 0.20476579D+05 0.12327017D+01  1  2 12  3  6  5       21 0.144609430484D+00 0.100000000000D+01
-.352999339133D-03 0.000000000000D+00 0.000000000000D+00 0.146934471209D-04 0.000000000000D+00  6 2 -1 25 24 21 21 4 0.13927850D-01 0.72235095D-01 0.16319199D+05 0.16319199D+05 0.16319199D+05 0.12436707D+01  1  2  4  3  6  5       21 -.814773283327D-01 0.100000000000D+01
-.907819015819D-03 0.000000000000D+00 0.000000000000D+00 0.146934471209D-04 0.000000000000D+00  6 2 -1 25 24 21 21 4 0.13927850D-01 0.72235095D-01 0.16319199D+05 0.16319199D+05 0.16319199D+05 0.12436707D+01  1  2  5  3  6  5       21 -.209537695454D+00 0.100000000000D+01
0.107660217099D-02 0.000000000000D+00 -.000000000000D+00 0.146934471209D-04 0.000000000000D+00  6 2 -1 25 24 21 21 4 0.13927850D-01 0.72235095D-01 0.16319199D+05 0.16319199D+05 0.16319199D+05 0.12436707D+01  1  2  6  3  6  5       21 0.248495277031D+00 0.100000000000D+01
0.819110668333D-05 0.000000000000D+00 0.000000000000D+00 0.144354013697D-04 0.000000000000D+00  6 2 -1 25 24 1 -1 4 0.13927850D-01 0.72235095D-01 0.20476579D+05 0.20476579D+05 0.20476579D+05 0.12327017D+01  1  2 12  6  6  5       21 0.182889798073D-02 0.100000000000D+01
-.766408850842D-05 0.000000000000D+00 0.000000000000D+00 0.146934471209D-04 0.000000000000D+00  6 2 -1 25 24 1 -1 4 0.13927850D-01 0.72235095D-01 0.16319199D+05 0.16319199D+05 0.16319199D+05 0.12436707D+01  1  2  5  6  6  5       21 -.176898194004D-02 0.100000000000D+01
0.819110668333D-05 0.000000000000D+00 0.000000000000D+00 0.144354013697D-04 0.000000000000D+00  6 2 -1 25 24 2 -2 4 0.13927850D-01 0.72235095D-01 0.20476579D+05 0.20476579D+05 0.20476579D+05 0.12327017D+01  1  2 12  7  6  5       21 0.182889798073D-02 0.100000000000D+01
-.766408850842D-05 0.000000000000D+00 0.000000000000D+00 0.146934471209D-04 0.000000000000D+00  6 2 -1 25 24 2 -2 4 0.13927850D-01 0.72235095D-01 0.16319199D+05 0.16319199D+05 0.16319199D+05 0.12436707D+01  1  2  5  7  6  5       21 -.176898194004D-02 0.100000000000D+01
0.819110668333D-05 0.000000000000D+00 0.000000000000D+00 0.144354013697D-04 0.000000000000D+00  6 2 -1 25 24 3 -3 4 0.13927850D-01 0.72235095D-01 0.20476579D+05 0.20476579D+05 0.20476579D+05 0.12327017D+01  1  2 12  8  6  5       21 0.182889798073D-02 0.100000000000D+01
0.819110668333D-05 0.000000000000D+00 0.000000000000D+00 0.144354013697D-04 0.000000000000D+00  6 2 -1 25 24 4 -4 4 0.13927850D-01 0.72235095D-01 0.20476579D+05 0.20476579D+05 0.20476579D+05 0.12327017D+01  1  2 12  8  6  5       21 0.182889798073D-02 0.100000000000D+01
-.766408850842D-05 0.000000000000D+00 0.000000000000D+00 0.146934471209D-04 0.000000000000D+00  6 2 -1 25 24 3 -3 4 0.13927850D-01 0.72235095D-01 0.16319199D+05 0.16319199D+05 0.16319199D+05 0.12436707D+01  1  2  5  8  6  5       21 -.176898194004D-02 0.100000000000D+01
-.766408850842D-05 0.000000000000D+00 0.000000000000D+00 0.146934471209D-04 0.000000000000D+00  6 2 -1 25 24 4 -4 4 0.13927850D-01 0.72235095D-01 0.16319199D+05 0.16319199D+05 0.16319199D+05 0.12436707D+01  1  2  5  8  6  5       21 -.176898194004D-02 0.100000000000D+01
  </mgrwgt>
  </event>
  <event>
  5     66 0.42622971E-03 0.20727621E+02 0.75467711E-02 0.12000531E+00
        2 -1    0    0  502    0 0.00000000E+00 0.00000000E+00 0.27219101E+03 0.27219120E+03 0.32000000E+00 0.0000E+00 0.9000E+01
       -1 -1    0    0    0  501 0.00000000E+00 0.00000000E+00 -.11064721E+03 0.11064767E+03 0.32000000E+00 0.0000E+00 0.9000E+01
       25  1    1    2    0    0 0.11920069E+02 -.78729441E+01 -.56413541E+02 0.13788241E+03 0.12500000E+03 0.0000E+00 0.9000E+01
       24  1    1    2    0    0 0.85876722E+01 0.10797084E+02 0.20467001E+03 0.22033464E+03 0.80419002E+02 0.0000E+00 0.9000E+01
       21  1    1    2  502  501 -.20507741E+02 -.29241399E+01 0.13287327E+02 0.24621811E+02 0.75000000E+00 0.0000E+00 0.9000E+01
#aMCatNLO 1  0  0  2  2 0.17885187D+02 0.00000000D+00  -5  6  0 0.00000000D+00 0.00000000D+00 0.00000000D+00 0.00000000D+00 0.00000000D+00
  <mgrwgt>
 0.2953805735D+00    7    4    0
 0.173543364872114D+03 0.000000000000000D+00 0.000000000000000D+00 0.173543364872114D+03
 0.173543364872114D+03 0.000000000000000D+00 0.000000000000000D+00 -.173543364872114D+03
 0.178342754410039D+03 0.119268127974802D+02 -.787198256130610D+01 -.126399846034748D+03
 0.147771062155915D+03 0.859325991299183D+01 0.107978807965540D+02 0.123201592971389D+03
 0.209729131782728D+02 -.205200727104720D+02 -.292589823524794D+01 0.319825306335855D+01
 0.000000000000000D+00 0.000000000000000D+00 0.000000000000000D+00 -.000000000000000D+00
 0.189791646218777D+03 0.000000000000000D+00 0.000000000000000D+00 0.189791646218777D+03
 0.257755591933368D+03 0.000000000000000D+00 0.000000000000000D+00 -.257755591933368D+03
 0.180424115771963D+03 -.160630136554631D+02 -.263233749126314D+02 -.126399846034748D+03
 0.147901265817675D+03 -.144741351971537D+02 -.440855710029760D+01 0.123201592971389D+03
 0.248760276408041D+02 -.240970582217770D+02 -.528391082296631D+01 0.319825306335855D+01
 0.943458289217042D+02 0.546342070743937D+02 0.360158428358953D+02 -.679639457145907D+02
 0.173543364872114D+03 0.000000000000000D+00 0.000000000000000D+00 0.173543364872114D+03
 0.173543364872114D+03 0.000000000000000D+00 0.000000000000000D+00 -.173543364872114D+03
 0.178342754410039D+03 0.119268127974802D+02 -.787198256130610D+01 -.126399846034748D+03
 0.147771062155915D+03 0.859325991299183D+01 0.107978807965540D+02 0.123201592971389D+03
 0.000000000000000D+00 0.000000000000000D+00 0.000000000000000D+00 -.000000000000000D+00
 0.209729131782728D+02 -.205200727104720D+02 -.292589823524794D+01 0.319825306335855D+01
 0.189791646218777D+03 0.000000000000000D+00 0.000000000000000D+00 0.189791646218777D+03
 0.257755591933368D+03 0.000000000000000D+00 0.000000000000000D+00 -.257755591933368D+03
 0.180424115771963D+03 -.160630136554631D+02 -.263233749126314D+02 -.126399846034748D+03
 0.147901265817675D+03 -.144741351971537D+02 -.440855710029760D+01 0.123201592971389D+03
 0.943458289217042D+02 0.546342070743937D+02 0.360158428358953D+02 -.679639457145907D+02
 0.248760276408041D+02 -.240970582217770D+02 -.528391082296631D+01 0.319825306335855D+01
0.284802795778D-03 0.000000000000D+00 0.000000000000D+00 0.208777270732D-04 0.000000000000D+00  6 2 -1 25 24 21 21 2 0.41875590D-01 0.17022697D-01 0.13011541D+05 0.13011541D+05 0.13011541D+05 0.12549256D+01  1  2  2  2  6  2       -1 0.156130893375D+00 0.100000000000D+01
0.496459314755D-04 0.150294564442D-04 -.109371772609D-05 0.208777270732D-04 0.000000000000D+00  6 2 -1 25 24 21 21 4 0.41875590D-01 0.17022697D-01 0.13011541D+05 0.13011541D+05 0.13011541D+05 0.12549256D+01  1  2  3  2  6  2       -1 0.428611899207D-01 0.100000000000D+01
0.434394911339D-05 0.000000000000D+00 0.000000000000D+00 0.208777270732D-04 0.000000000000D+00  6 2 -1 25 24 21 21 4 0.41875590D-01 0.17022697D-01 0.13011541D+05 0.13011541D+05 0.13011541D+05 0.12549256D+01  1  2 15  2  6  2       -1 0.375029377878D-02 0.100000000000D+01
-.981944158515D-04 0.000000000000D+00 0.000000000000D+00 0.208777270732D-04 0.000000000000D+00  6 2 -1 25 24 21 21 4 0.41875590D-01 0.17022697D-01 0.13011541D+05 0.13011541D+05 0.13011541D+05 0.12549256D+01  1  2  4  2  6  2       -1 -.847749127043D-01 0.100000000000D+01
-.487107543014D-03 0.000000000000D+00 -.187477333252D-03 0.208777270732D-04 0.000000000000D+00  6 2 -1 25 24 21 21 4 0.41875590D-01 0.27381124D-01 0.13011541D+05 0.13011541D+05 0.13011541D+05 0.12549256D+01  1  2  5  2  6  2       -1 -.195507629869D+00 0.100000000000D+01
0.534093566647D-03 0.000000000000D+00 0.168125921815D-03 0.208777270732D-04 0.000000000000D+00  6 2 -1 25 24 21 21 4 0.41875590D-01 0.17022697D-01 0.13011541D+05 0.13011541D+05 0.13011541D+05 0.12549256D+01  1  2  6  2  6  2       -1 0.461102956780D+00 0.100000000000D+01
-.184218294130D-04 0.000000000000D+00 -.101593299738D-04 0.208777270732D-04 0.000000000000D+00  6 2 21 25 24 1 21 4 0.41875590D-01 0.27381124D-01 0.13011541D+05 0.13011541D+05 0.13011541D+05 0.12549256D+01  3  4  5  5  5  2       -1 -.881822177943D-01 0.100000000000D+01
  </mgrwgt>
  </event>
  <event>
  5     66 0.42622971E-03 0.21532059E+02 0.75467711E-02 0.12204165E+00
        2 -1    0    0  502    0 0.00000000E+00 0.00000000E+00 0.83407697E+03 0.83407703E+03 0.32000000E+00 0.0000E+00 0.9000E+01
       -1 -1    0    0    0  501 0.00000000E+00 0.00000000E+00 -.24915151E+02 0.24917206E+02 0.32000000E+00 0.0000E+00 0.9000E+01
       25  1    1    2    0    0 0.42047294E+02 -.51018431E+02 0.27124254E+03 0.30588948E+03 0.12500000E+03 0.0000E+00 0.9000E+01
       24  1    1    2    0    0 -.59130274E+02 0.37930142E+02 0.46287081E+03 0.47502809E+03 0.80419002E+02 0.0000E+00 0.9000E+01
       21  1    1    2  502  501 0.17082979E+02 0.13088289E+02 0.75048465E+02 0.78076668E+02 0.75000000E+00 0.0000E+00 0.9000E+01
#aMCatNLO 1  0  0  5  1 0.25201686D+01 0.00000000D+00  -5  6  0 0.00000000D+00 0.00000000D+00 0.00000000D+00 0.00000000D+00 0.00000000D+00
  <mgrwgt>
 0.8462715284D+00   20    2    0
 0.144159851558245D+03 0.000000000000000D+00 0.000000000000000D+00 0.144159851558245D+03
 0.144159851558245D+03 -.000000000000000D+00 -.000000000000000D+00 -.144159851558245D+03
 0.150105213776597D+03 0.420421184026079D+02 -.510223967751258D+02 -.503562360632797D+02
 0.116222325169501D+03 -.591342813466094D+02 0.379270717814507D+02 0.458812261076292D+02
 0.219921641703913D+02 0.170921629440015D+02 0.130953249936751D+02 0.447500995565052D+01
 0.000000000000000D+00 0.000000000000000D+00 0.000000000000000D+00 0.000000000000000D+00
 0.144159851558245D+03 0.000000000000000D+00 0.000000000000000D+00 0.144159851558245D+03
 0.144159851558245D+03 -.000000000000000D+00 -.000000000000000D+00 -.144159851558245D+03
 0.150061926984575D+03 0.427134261494597D+02 -.505080678897415D+02 -.501804766312927D+02
 0.116143452603607D+03 -.586146077196868D+02 0.383252247277741D+02 0.460172852279282D+02
 0.287743005196081D+01 -.373377845838759D+00 0.285155288031760D+01 -.940152057723030D-01
 0.192368934763477D+02 0.162745594160659D+02 0.933129028164980D+01 0.425720660913685D+01
0.454860406292D-03 0.000000000000D+00 0.000000000000D+00 0.406597903108D-04 0.000000000000D+00  6 2 -1 25 24 21 21 2 0.12831970D+00 0.38332630D-02 0.18187400D+05 0.18187400D+05 0.18187400D+05 0.12383944D+01  1  2  2  3  6  5       21 0.672303874761D+00 0.100000000000D+01
0.100803263992D-03 0.240036431029D-04 -.174678372766D-05 0.406597903108D-04 0.000000000000D+00  6 2 -1 25 24 21 21 4 0.12831970D+00 0.38332630D-02 0.18187400D+05 0.18187400D+05 0.18187400D+05 0.12383944D+01  1  2  3  3  6  5       21 0.228496740566D+00 0.100000000000D+01
0.126264111585D-04 0.000000000000D+00 0.000000000000D+00 0.406597903108D-04 0.000000000000D+00  6 2 -1 25 24 21 21 4 0.12831970D+00 0.38332630D-02 0.18187400D+05 0.18187400D+05 0.18187400D+05 0.12383944D+01  1  2 15  3  6  5       21 0.286210354758D-01 0.100000000000D+01
0.118269741582D-06 0.000000000000D+00 0.000000000000D+00 0.406603596974D-04 0.000000000000D+00  6 2 -1 25 24 21 21 4 0.12831970D+00 0.38332630D-02 0.18184140D+05 0.18184140D+05 0.18184140D+05 0.12384030D+01  1  2 12  3  6  5       21 0.268095186389D-03 0.100000000000D+01
0.121169025319D-06 0.000000000000D+00 0.000000000000D+00 0.406603596974D-04 0.000000000000D+00  6 2 -1 25 24 21 21 4 0.12831970D+00 0.38332630D-02 0.18184140D+05 0.18184140D+05 0.18184140D+05 0.12384030D+01  1  2 12  3  6  5       21 0.274667315520D-03 0.100000000000D+01
-.494115180745D-03 0.000000000000D+00 0.000000000000D+00 0.406597903108D-04 0.000000000000D+00  6 2 -1 25 24 21 21 4 0.12831970D+00 0.38332630D-02 0.18187400D+05 0.18187400D+05 0.18187400D+05 0.12383944D+01  1  2  4  3  6  5       21 -.112004020300D+01 0.100000000000D+01
-.303242414436D-04 0.000000000000D+00 0.000000000000D+00 0.406597903108D-04 0.000000000000D+00  6 2 -1 25 24 21 21 4 0.12831970D+00 0.38332630D-02 0.18187400D+05 0.18187400D+05 0.18187400D+05 0.12383944D+01  1  2  5  3  6  5       21 -.687377576443D-01 0.100000000000D+01
0.567512094309D-03 0.000000000000D+00 -.000000000000D+00 0.406597903108D-04 0.000000000000D+00  6 2 -1 25 24 21 21 4 0.12831970D+00 0.38332630D-02 0.18187400D+05 0.18187400D+05 0.18187400D+05 0.12383944D+01  1  2  6  3  6  5       21 0.128641334265D+01 0.100000000000D+01
0.481928575630D-07 0.000000000000D+00 0.000000000000D+00 0.406603596974D-04 0.000000000000D+00  6 2 -1 25 24 1 -1 4 0.12831970D+00 0.38332630D-02 0.18184140D+05 0.18184140D+05 0.18184140D+05 0.12384030D+01  1  2 12  6  6  5       21 0.109244113990D-03 0.100000000000D+01
0.486062209162D-07 0.000000000000D+00 0.000000000000D+00 0.406603596974D-04 0.000000000000D+00  6 2 -1 25 24 1 -1 4 0.12831970D+00 0.38332630D-02 0.18184140D+05 0.18184140D+05 0.18184140D+05 0.12384030D+01  1  2 12  6  6  5       21 0.110181130710D-03 0.100000000000D+01
-.200954248130D-04 0.000000000000D+00 0.000000000000D+00 0.406597903108D-04 0.000000000000D+00  6 2 -1 25 24 1 -1 4 0.12831970D+00 0.38332630D-02 0.18187400D+05 0.18187400D+05 0.18187400D+05 0.12383944D+01  1  2  5  6  6  5       21 -.455514919681D-01 0.100000000000D+01
0.481928575630D-07 0.000000000000D+00 0.000000000000D+00 0.406603596974D-04 0.000000000000D+00  6 2 -1 25 24 2 -2 4 0.12831970D+00 0.38332630D-02 0.18184140D+05 0.18184140D+05 0.18184140D+05 0.12384030D+01  1  2 12  7  6  5       21 0.109244113990D-03 0.100000000000D+01
0.486062209162D-07 0.000000000000D+00 0.000000000000D+00 0.406603596974D-04 0.000000000000D+00  6 2 -1 25 24 2 -2 4 0.12831970D+00 0.38332630D-02 0.18184140D+05 0.18184140D+05 0.18184140D+05 0.12384030D+01  1  2 12  7  6  5       21 0.110181130710D-03 0.100000000000D+01
-.200954248130D-04 0.000000000000D+00 0.000000000000D+00 0.406597903108D-04 0.000000000000D+00  6 2 -1 25 24 2 -2 4 0.12831970D+00 0.38332630D-02 0.18187400D+05 0.18187400D+05 0.18187400D+05 0.12383944D+01  1  2  5  7  6  5       21 -.455514919681D-01 0.100000000000D+01
0.481928575630D-07 0.000000000000D+00 0.000000000000D+00 0.406603596974D-04 0.000000000000D+00  6 2 -1 25 24 3 -3 4 0.12831970D+00 0.38332630D-02 0.18184140D+05 0.18184140D+05 0.18184140D+05 0.12384030D+01  1  2 12  8  6  5       21 0.109244113990D-03 0.100000000000D+01
0.481928575630D-07 0.000000000000D+00 0.000000000000D+00 0.406603596974D-04 0.000000000000D+00  6 2 -1 25 24 4 -4 4 0.12831970D+00 0.38332630D-02 0.18184140D+05 0.18184140D+05 0.18184140D+05 0.12384030D+01  1  2 12  8  6  5       21 0.109244113990D-03 0.100000000000D+01
0.486062209162D-07 0.000000000000D+00 0.000000000000D+00 0.406603596974D-04 0.000000000000D+00  6 2 -1 25 24 3 -3 4 0.12831970D+00 0.38332630D-02 0.18184140D+05 0.18184140D+05 0.18184140D+05 0.12384030D+01  1  2 12  8  6  5       21 0.110181130710D-03 0.100000000000D+01
0.486062209162D-07 0.000000000000D+00 0.000000000000D+00 0.406603596974D-04 0.000000000000D+00  6 2 -1 25 24 4 -4 4 0.12831970D+00 0.38332630D-02 0.18184140D+05 0.18184140D+05 0.18184140D+05 0.12384030D+01  1  2 12  8  6  5       21 0.110181130710D-03 0.100000000000D+01
-.200954248130D-04 0.000000000000D+00 0.000000000000D+00 0.406597903108D-04 0.000000000000D+00  6 2 -1 25 24 3 -3 4 0.12831970D+00 0.38332630D-02 0.18187400D+05 0.18187400D+05 0.18187400D+05 0.12383944D+01  1  2  5  8  6  5       21 -.455514919681D-01 0.100000000000D+01
-.200954248130D-04 0.000000000000D+00 0.000000000000D+00 0.406597903108D-04 0.000000000000D+00  6 2 -1 25 24 4 -4 4 0.12831970D+00 0.38332630D-02 0.18187400D+05 0.18187400D+05 0.18187400D+05 0.12383944D+01  1  2  5  8  6  5       21 -.455514919681D-01 0.100000000000D+01
  </mgrwgt>
  </event>
  <event>
  5     66 0.42622971E-03 0.86923645E+02 0.75467711E-02 0.11091950E+00
        2 -1    0    0  502    0 0.00000000E+00 0.00000000E+00 0.15691183E+03 0.15691215E+03 0.32000000E+00 0.0000E+00 0.9000E+01
       -1 -1    0    0    0  501 -.00000000E+00 -.00000000E+00 -.48701554E+03 0.48701564E+03 0.32000000E+00 0.0000E+00 0.9000E+01
       25  1    1    2    0    0 -.13243057E+03 0.18257466E+02 -.23042528E+03 0.29426519E+03 0.12500000E+03 0.0000E+00 0.9000E+01
       24  1    1    2    0    0 0.19677340E+03 -.76699705E+02 -.12612901E+03 0.25880178E+03 0.80419002E+02 0.0000E+00 0.9000E+01
       21  1    1    2  502  501 -.64342836E+02 0.58442239E+02 0.26450573E+02 0.90860834E+02 0.75000000E+00 0.0000E+00 0.9000E+01
#aMCatNLO 1  0  0  5  2 0.19597786D+02 0.00000000D+00  -5  6  0 0.00000000D+00 0.00000000D+00 0.00000000D+00 0.00000000D+00 0.00000000D+00
  <mgrwgt>
 0.1100992856D+00    9    2    0
 0.276439209539778D+03 0.000000000000000D+00 0.000000000000000D+00 0.276439209539778D+03
 0.276439209539778D+03 -.000000000000000D+00 -.000000000000000D+00 -.276439209539778D+03
 0.205146839775797D+03 -.132430114713819D+03 0.182570534308205D+02 -.926777782799384D+02
 0.226115388195753D+03 0.196773905105267D+03 -.767001592078914D+02 0.762028028704905D+01
 0.121616191108005D+03 -.643437903914483D+02 0.584431057770709D+02 0.850574979928894D+02
 0.000000000000000D+00 0.000000000000000D+00 0.000000000000000D+00 0.000000000000000D+00
 0.276439209539778D+03 0.000000000000000D+00 0.000000000000000D+00 0.276439209539778D+03
 0.276439209539778D+03 -.000000000000000D+00 -.000000000000000D+00 -.276439209539778D+03
 0.206214288525277D+03 -.138351622482233D+03 0.236355258951221D+02 -.848500045031275D+02
 0.219064183289531D+03 0.190365583779971D+03 -.708795167062724D+02 0.160915838106381D+02
 0.106872667164681D+03 -.711237343493338D+02 0.507548344844817D+02 0.615396471841600D+02
 0.207272801000670D+02 0.191097730515960D+02 -.351084367333140D+01 0.721877350832941D+01
0.706926742197D-03 0.000000000000D+00 0.000000000000D+00 0.226191358662D-05 0.000000000000D+00  6 2 -1 25 24 21 21 2 0.24140314D-01 0.74925501D-01 0.61486608D+05 0.61486608D+05 0.61486608D+05 0.11834884D+01  1  2  2  3  6  5       21 0.473107634780D-01 0.100000000000D+01
-.883413817313D-06 0.373055490978D-04 -.271478482812D-05 0.226191358662D-05 0.000000000000D+00  6 2 -1 25 24 21 21 4 0.24140314D-01 0.74925501D-01 0.61486608D+05 0.61486608D+05 0.61486608D+05 0.11834884D+01  1  2  3  3  6  5       21 -.828090385342D-04 0.100000000000D+01
0.389982490585D-04 0.000000000000D+00 0.000000000000D+00 0.226191358662D-05 0.000000000000D+00  6 2 -1 25 24 21 21 4 0.24140314D-01 0.74925501D-01 0.61486608D+05 0.61486608D+05 0.61486608D+05 0.11834884D+01  1  2 15  3  6  5       21 0.365559995300D-02 0.100000000000D+01
0.911072027829D-03 0.000000000000D+00 0.000000000000D+00 0.225094961644D-05 0.000000000000D+00  6 2 -1 25 24 21 21 4 0.24140314D-01 0.74925501D-01 0.65850578D+05 0.65850578D+05 0.65850578D+05 0.11806166D+01  1  2 12  3  6  5       21 0.845557315118D-01 0.100000000000D+01
-.297854025398D-03 0.000000000000D+00 0.000000000000D+00 0.226191358662D-05 0.000000000000D+00  6 2 -1 25 24 21 21 4 0.24140314D-01 0.74925501D-01 0.61486608D+05 0.61486608D+05 0.61486608D+05 0.11834884D+01  1  2  4  3  6  5       21 -.279201037876D-01 0.100000000000D+01
0.695003184002D-05 0.000000000000D+00 0.000000000000D+00 0.225094961644D-05 0.000000000000D+00  6 2 -1 25 24 1 -1 4 0.24140314D-01 0.74925501D-01 0.65850578D+05 0.65850578D+05 0.65850578D+05 0.11806166D+01  1  2 12  6  6  5       21 0.645025868770D-03 0.100000000000D+01
0.695003184002D-05 0.000000000000D+00 0.000000000000D+00 0.225094961644D-05 0.000000000000D+00  6 2 -1 25 24 2 -2 4 0.24140314D-01 0.74925501D-01 0.65850578D+05 0.65850578D+05 0.65850578D+05 0.11806166D+01  1  2 12  7  6  5       21 0.645025868770D-03 0.100000000000D+01
0.695003184002D-05 0.000000000000D+00 0.000000000000D+00 0.225094961644D-05 0.000000000000D+00  6 2 -1 25 24 3 -3 4 0.24140314D-01 0.74925501D-01 0.65850578D+05 0.65850578D+05 0.65850578D+05 0.11806166D+01  1  2 12  8  6  5       21 0.645025868770D-03 0.100000000000D+01
0.695003184002D-05 0.000000000000D+00 0.000000000000D+00 0.225094961644D-05 0.000000000000D+00  6 2 -1 25 24 4 -4 4 0.24140314D-01 0.74925501D-01 0.65850578D+05 0.65850578D+05 0.65850578D+05 0.11806166D+01  1  2 12  8  6  5       21 0.645025868770D-03 0.100000000000D+01
  </mgrwgt>
  </event>
  <event>
  5     66 0.42622971E-03 0.26910257E+02 0.75467711E-02 0.12207833E+00
        2 -1    0    0  502    0 0.00000000E+00 0.00000000E+00 0.61888185E+02 0.61889012E+02 0.32000000E+00 0.0000E+00 0.9000E+01
       -1 -1    0    0    0  501 -.00000000E+00 -.00000000E+00 -.29862243E+03 0.29862260E+03 0.32000000E+00 0.0000E+00 0.9000E+01
       25  1    1    2    0    0 0.76576842E+02 -.14280526E+02 -.12687415E+03 0.19439649E+03 0.12500000E+03 0.0000E+00 0.9000E+01
       24  1    1    2    0    0 -.49675607E+02 0.14465978E+02 -.97273797E+02 0.13640505E+03 0.80419002E+02 0.0000E+00 0.9000E+01
       21  1    1    2  502  501 -.26901234E+02 -.18545231E+00 -.12586298E+02 0.29710069E+02 0.75000000E+00 0.0000E+00 0.9000E+01
#aMCatNLO 1  0  0  5  1 0.65881954D+01 0.00000000D+00  -5  6  0 0.00000000D+00 0.00000000D+00 0.00000000D+00 0.00000000D+00 0.00000000D+00
  <mgrwgt>
 0.4154230594D+00   19    2    0
 0.135946239104432D+03 0.000000000000000D+00 0.000000000000000D+00 0.135946239104432D+03
 0.135946239104432D+03 -.000000000000000D+00 -.000000000000000D+00 -.135946239104432D+03
 0.147291493969300D+03 0.765819135666665D+02 -.142804910214701D+02 0.103067277138972D+01
 0.961671860648586D+02 -.496722955731978D+02 0.144660011235931D+02 -.102132064134468D+02
 0.284337981747060D+02 -.269096179934687D+02 -.185510102122947D+00 0.918253364205707D+01
 0.000000000000000D+00 0.000000000000000D+00 0.000000000000000D+00 0.000000000000000D+00
 0.135946239104432D+03 0.000000000000000D+00 0.000000000000000D+00 0.135946239104432D+03
 0.135946239104432D+03 -.000000000000000D+00 -.000000000000000D+00 -.135946239104432D+03
 0.145567494026251D+03 0.731812257569632D+02 -.143039347560865D+02 0.219111028582463D+01
 0.972666448349951D+02 -.519184553213675D+02 0.144505164993086D+02 -.944673557547319D+01
 0.223828924021032D+02 -.218106709535929D+02 0.441312125684074D+01 0.241098851317242D+01
 0.667544694551526D+01 0.547900517997188D+00 -.455970300006286D+01 0.484463677647615D+01
0.417269338149D-03 0.000000000000D+00 0.000000000000D+00 0.315696272890D-04 0.000000000000D+00  6 2 -1 25 24 21 21 2 0.95213360D-02 0.45941989D-01 0.18200905D+05 0.18200905D+05 0.18200905D+05 0.12383585D+01  1  2  2  3  6  5       21 0.229579544495D+00 0.100000000000D+01
0.628404923862D-04 0.220199079369D-04 -.160242412803D-05 0.315696272890D-04 0.000000000000D+00  6 2 -1 25 24 21 21 4 0.95213360D-02 0.45941989D-01 0.18200905D+05 0.18200905D+05 0.18200905D+05 0.12383585D+01  1  2  3  3  6  5       21 0.530211392066D-01 0.100000000000D+01
0.132797127207D-04 0.000000000000D+00 0.000000000000D+00 0.315696272890D-04 0.000000000000D+00  6 2 -1 25 24 21 21 4 0.95213360D-02 0.45941989D-01 0.18200905D+05 0.18200905D+05 0.18200905D+05 0.12383585D+01  1  2 15  3  6  5       21 0.112046464000D-01 0.100000000000D+01
0.157016336788D-03 0.000000000000D+00 0.000000000000D+00 0.315809473546D-04 0.000000000000D+00  6 2 -1 25 24 21 21 4 0.95213360D-02 0.45941989D-01 0.18117562D+05 0.18117562D+05 0.18117562D+05 0.12385805D+01  1  2 12  3  6  5       21 0.132560046446D+00 0.100000000000D+01
0.175016654081D-03 0.000000000000D+00 0.000000000000D+00 0.315809473546D-04 0.000000000000D+00  6 2 -1 25 24 21 21 4 0.95213360D-02 0.45941989D-01 0.18117562D+05 0.18117562D+05 0.18117562D+05 0.12385805D+01  1  2 12  3  6  5       21 0.147756700153D+00 0.100000000000D+01
-.276597128519D-03 0.000000000000D+00 0.000000000000D+00 0.315696272890D-04 0.000000000000D+00  6 2 -1 25 24 21 21 4 0.95213360D-02 0.45941989D-01 0.18200905D+05 0.18200905D+05 0.18200905D+05 0.12383585D+01  1  2  4  3  6  5       21 -.233376510885D+00 0.100000000000D+01
0.513295486393D-04 0.000000000000D+00 0.000000000000D+00 0.315696272890D-04 0.670181603853D-05  6 2 -1 25 24 21 21 4 0.95213360D-02 0.45941989D-01 0.18117562D+05 0.18117562D+05 0.18117562D+05 0.12385805D+01  1  2 11  3  6  5       21 0.433346458777D-01 0.100000000000D+01
0.410607509663D-05 0.000000000000D+00 0.000000000000D+00 0.315809473546D-04 0.000000000000D+00  6 2 -1 25 24 1 -1 4 0.95213360D-02 0.45941989D-01 0.18117562D+05 0.18117562D+05 0.18117562D+05 0.12385805D+01  1  2 12  6  6  5       21 0.346652785727D-02 0.100000000000D+01
0.434531128484D-05 0.000000000000D+00 0.000000000000D+00 0.315809473546D-04 0.000000000000D+00  6 2 -1 25 24 1 -1 4 0.95213360D-02 0.45941989D-01 0.18117562D+05 0.18117562D+05 0.18117562D+05 0.12385805D+01  1  2 12  6  6  5       21 0.366850149180D-02 0.100000000000D+01
0.827786124308D-06 0.000000000000D+00 0.000000000000D+00 0.315809473546D-04 0.127056990074D-06  6 2 -1 25 24 1 -1 4 0.95213360D-02 0.45941989D-01 0.18117562D+05 0.18117562D+05 0.18117562D+05 0.12385805D+01  1  2 11  6  6  5       21 0.698853185158D-03 0.100000000000D+01
0.410607509663D-05 0.000000000000D+00 0.000000000000D+00 0.315809473546D-04 0.000000000000D+00  6 2 -1 25 24 2 -2 4 0.95213360D-02 0.45941989D-01 0.18117562D+05 0.18117562D+05 0.18117562D+05 0.12385805D+01  1  2 12  7  6  5       21 0.346652785727D-02 0.100000000000D+01
0.434531128484D-05 0.000000000000D+00 0.000000000000D+00 0.315809473546D-04 0.000000000000D+00  6 2 -1 25 24 2 -2 4 0.95213360D-02 0.45941989D-01 0.18117562D+05 0.18117562D+05 0.18117562D+05 0.12385805D+01  1  2 12  7  6  5       21 0.366850149180D-02 0.100000000000D+01
0.827673394550D-06 0.000000000000D+00 0.000000000000D+00 0.315809473546D-04 0.124578859317D-06  6 2 -1 25 24 2 -2 4 0.95213360D-02 0.45941989D-01 0.18117562D+05 0.18117562D+05 0.18117562D+05 0.12385805D+01  1  2 11  7  6  5       21 0.698758013775D-03 0.100000000000D+01
0.410607509663D-05 0.000000000000D+00 0.000000000000D+00 0.315809473546D-04 0.000000000000D+00  6 2 -1 25 24 3 -3 4 0.95213360D-02 0.45941989D-01 0.18117562D+05 0.18117562D+05 0.18117562D+05 0.12385805D+01  1  2 12  8  6  5       21 0.346652785727D-02 0.100000000000D+01
0.410607509663D-05 0.000000000000D+00 0.000000000000D+00 0.315809473546D-04 0.000000000000D+00  6 2 -1 25 24 4 -4 4 0.95213360D-02 0.45941989D-01 0.18117562D+05 0.18117562D+05 0.18117562D+05 0.12385805D+01  1  2 12  8  6  5       21 0.346652785727D-02 0.100000000000D+01
0.434531128484D-05 0.000000000000D+00 0.000000000000D+00 0.315809473546D-04 0.000000000000D+00  6 2 -1 25 24 3 -3 4 0.95213360D-02 0.45941989D-01 0.18117562D+05 0.18117562D+05 0.18117562D+05 0.12385805D+01  1  2 12  8  6  5       21 0.366850149180D-02 0.100000000000D+01
0.434531128484D-05 0.000000000000D+00 0.000000000000D+00 0.315809473546D-04 0.000000000000D+00  6 2 -1 25 24 4 -4 4 0.95213360D-02 0.45941989D-01 0.18117562D+05 0.18117562D+05 0.18117562D+05 0.12385805D+01  1  2 12  8  6  5       21 0.366850149180D-02 0.100000000000D+01
0.832176291431D-06 0.000000000000D+00 0.000000000000D+00 0.315809473546D-04 0.123327684806D-06  6 2 -1 25 24 3 -3 4 0.95213360D-02 0.45941989D-01 0.18117562D+05 0.18117562D+05 0.18117562D+05 0.12385805D+01  1  2 11  8  6  5       21 0.702559555907D-03 0.100000000000D+01
0.832176291431D-06 0.000000000000D+00 0.000000000000D+00 0.315809473546D-04 0.123327684806D-06  6 2 -1 25 24 4 -4 4 0.95213360D-02 0.45941989D-01 0.18117562D+05 0.18117562D+05 0.18117562D+05 0.12385805D+01  1  2 11  8  6  5       21 0.702559555907D-03 0.100000000000D+01
  </mgrwgt>
  </event>
  <event>
  5     66 0.42622971E-03 0.83247440E+02 0.75467711E-02 0.10973455E+00
        2 -1    0    0  502    0 0.00000000E+00 0.00000000E+00 0.84185991E+03 0.84185997E+03 0.32000000E+00 0.0000E+00 0.9000E+01
       -1 -1    0    0    0  501 0.00000000E+00 0.00000000E+00 -.28080444E+03 0.28080462E+03 0.32000000E+00 0.0000E+00 0.9000E+01
       25  1    1    2    0    0 0.57992626E+02 -.11192936E+03 0.19242262E+02 0.17856817E+03 0.12500000E+03 0.0000E+00 0.9000E+01
       24  1    1    2    0    0 -.10062507E+03 0.40426917E+02 -.17580651E+03 0.22166390E+03 0.80419002E+02 0.0000E+00 0.9000E+01
       21  1    1    2  502  501 0.42632442E+02 0.71502438E+02 0.71761972E+03 0.72243252E+03 0.75000000E+00 0.0000E+00 0.9000E+01
#aMCatNLO 1  0  0  5  1 0.11825917D+02 0.00000000D+00  -5  6  0 0.00000000D+00 0.00000000D+00 0.00000000D+00 0.00000000D+00 0.00000000D+00
  <mgrwgt>
 0.8440363185D-01    4    2    0
 0.486207913872337D+03 0.000000000000000D+00 0.000000000000000D+00 0.486207913872337D+03
 0.486207913872337D+03 -.000000000000000D+00 -.000000000000000D+00 -.486207913872337D+03
 0.195056721179466D+03 0.579926126524978D+02 -.111929378725602D+03 -.808133375942500D+02
 0.357348809402258D+03 -.100625092978908D+03 0.404268755720039D+02 -.330864343834921D+03
 0.420010297162950D+03 0.426324803264101D+02 0.715025031535980D+02 0.411677681429171D+03
 0.000000000000000D+00 0.000000000000000D+00 0.000000000000000D+00 -.000000000000000D+00
 0.486207913872337D+03 0.000000000000000D+00 0.000000000000000D+00 0.486207913872337D+03
 0.486207913872337D+03 -.000000000000000D+00 -.000000000000000D+00 -.486207913872337D+03
 0.176652247971999D+03 0.631932771564996D+02 -.103206908739078D+03 -.305934702887081D+02
 0.279120111337165D+03 -.917201119354157D+02 0.553621650571571D+02 -.244873992790659D+03
 0.363030044890817D+03 0.741695191638442D+02 -.807122955280488D+02 0.346085569290350D+03
 0.153613423544694D+03 -.456426843849281D+02 0.128557039209970D+03 -.706181062109834D+02
0.289330457536D-02 0.000000000000D+00 0.000000000000D+00 0.702444179636D-05 0.000000000000D+00  6 2 -1 25 24 21 21 2 0.12951693D+00 0.43200702D-01 0.39161062D+05 0.39161062D+05 0.39161062D+05 0.12029362D+01  1  2  2  3  6  5       21 0.871167662387D-01 0.100000000000D+01
0.196522659013D-03 0.152683877194D-03 -.111110513940D-04 0.702444179636D-05 0.000000000000D+00  6 2 -1 25 24 21 21 4 0.12951693D+00 0.43200702D-01 0.39161062D+05 0.39161062D+05 0.39161062D+05 0.12029362D+01  1  2  3  3  6  5       21 0.856259522465D-02 0.100000000000D+01
0.894706752755D-04 0.000000000000D+00 0.000000000000D+00 0.702444179636D-05 0.000000000000D+00  6 2 -1 25 24 21 21 4 0.12951693D+00 0.43200702D-01 0.39161062D+05 0.39161062D+05 0.39161062D+05 0.12029362D+01  1  2 15  3  6  5       21 0.389828420147D-02 0.100000000000D+01
-.348263285261D-03 0.000000000000D+00 0.000000000000D+00 0.702444179636D-05 0.000000000000D+00  6 2 -1 25 24 21 21 4 0.12951693D+00 0.43200702D-01 0.39161062D+05 0.39161062D+05 0.39161062D+05 0.12029362D+01  1  2  4  3  6  5       21 -.151740138174D-01 0.100000000000D+01
  </mgrwgt>
  </event>
  <event>
  5     66 0.42622971E-03 0.23025233E+02 0.75467711E-02 0.10727660E+00
        2 -1    0    0  502    0 0.00000000E+00 0.00000000E+00 0.11233036E+03 0.11233082E+03 0.32000000E+00 0.0000E+00 0.9000E+01
       -1 -1    0    0    0  501 0.00000000E+00 0.00000000E+00 -.73022772E+03 0.73022779E+03 0.32000000E+00 0.0000E+00 0.9000E+01
       25  1    1    2    0    0 -.76179390E+02 -.18698554E+03 -.12908609E+03 0.27028708E+03 0.12500000E+03 0.0000E+00 0.9000E+01
       24  1    1    2    0    0 0.74476770E+02 0.20994675E+03 -.30076803E+03 0.38282248E+03 0.80419002E+02 0.0000E+00 0.9000E+01
       21  1    1    2  502  501 0.17026207E+01 -.22961215E+02 -.18804325E+03 0.18944905E+03 0.75000000E+00 0.0000E+00 0.9000E+01
#aMCatNLO 1  0  0  1  2 0.14740338D+03 0.00000000D+00  -5  6  0 0.00000000D+00 0.00000000D+00 0.00000000D+00 0.00000000D+00 0.00000000D+00
  <mgrwgt>
 0.4022742462D+01    3    2    0
 0.286403500550860D+03 0.000000000000000D+00 0.000000000000000D+00 0.286403500550860D+03
 0.286403500550860D+03 0.000000000000000D+00 0.000000000000000D+00 -.286403500550860D+03
 0.258325950160382D+03 -.761794280576606D+02 -.186985028620124D+03 0.101688693270212D+03
 0.238661066323331D+03 0.744767350695953D+02 0.209947218702253D+03 -.294494467992296D+02
 0.758199846180063D+02 0.170269298806527D+01 -.229621900821290D+02 -.722392464709819D+02
 0.000000000000000D+00 -.000000000000000D+00 -.000000000000000D+00 -.000000000000000D+00
 0.309944717787429D+03 0.000000000000000D+00 0.000000000000000D+00 0.309944717787429D+03
 0.677990848178359D+03 0.000000000000000D+00 0.000000000000000D+00 -.677990848178359D+03
 0.215930051295315D+03 -.424115554669889D+02 -.137337018593912D+03 0.101688693270212D+03
 0.301888326385302D+03 0.112964815275061D+03 0.266535225151272D+03 -.294494467992296D+02
 0.736506559162659D+02 0.123452690021063D+02 -.731469202814166D+01 -.722392464709819D+02
 0.396466532368904D+03 -.828985288101779D+02 -.121883514529218D+03 -.368046130390930D+03
0.704996711999D-01 0.000000000000D+00 0.000000000000D+00 0.285268973155D-04 0.000000000000D+00  6 2 -1 25 24 21 21 2 0.17281634D-01 0.11234277D+00 0.61834720D+05 0.61834720D+05 0.61834720D+05 0.11832511D+01  1  2  2  1  6  1        2 0.287277589742D+01 0.100000000000D+01
0.195629265762D-01 0.372036986061D-02 -.270737300397D-03 0.285268973155D-04 0.000000000000D+00  6 2 -1 25 24 21 21 4 0.17281634D-01 0.11234277D+00 0.61834720D+05 0.61834720D+05 0.61834720D+05 0.11832511D+01  1  2  3  1  6  1        2 0.111609802538D+01 0.100000000000D+01
0.593646548097D-03 0.000000000000D+00 0.000000000000D+00 0.285268973155D-04 0.000000000000D+00  6 2 -1 25 24 21 21 4 0.17281634D-01 0.11234277D+00 0.61834720D+05 0.61834720D+05 0.61834720D+05 0.11832511D+01  1  2 15  1  6  1        2 0.338685389185D-01 0.100000000000D+01
  </mgrwgt>
  </event>
  <event>
  5     66 -.42622971E-03 0.74272880E+02 0.75467711E-02 0.11922239E+00
        4 -1    0    0  502    0 0.00000000E+00 0.00000000E+00 0.48094084E+02 0.48119054E+02 0.15500000E+01 0.0000E+00 0.9000E+01
       -3 -1    0    0    0  501 -.00000000E+00 -.00000000E+00 -.60299299E+03 0.60299320E+03 0.50000000E+00 0.0000E+00 0.9000E+01
       25  1    1    2    0    0 0.16336618E+01 -.51675519E+02 -.33081807E+03 0.35740541E+03 0.12500000E+03 0.0000E+00 0.9000E+01
       24  1    1    2    0    0 -.42867108E+02 -.23636458E+02 -.70005050E+02 0.11732090E+03 0.80419002E+02 0.0000E+00 0.9000E+01
       21  1    1    2  502  501 0.41233446E+02 0.75311977E+02 -.15407579E+03 0.17638595E+03 0.75000000E+00 0.0000E+00 0.9000E+01
#aMCatNLO 1  0  0  5  1 0.85702106D+01 0.00000000D+00  -5  6  0 0.00000000D+00 0.00000000D+00 0.00000000D+00 0.00000000D+00 0.00000000D+00
  <mgrwgt>
 -.6810812812D-03   25    2    0
 0.170319088873611D+03 0.000000000000000D+00 0.000000000000000D+00 0.170319088873611D+03
 0.170319088873611D+03 -.000000000000000D+00 -.000000000000000D+00 -.170319088873611D+03
 0.144260353842122D+03 0.163300018404119D+01 -.516767277691075D+02 -.501288221298948D+02
 0.110215188950790D+03 -.428676135167102D+02 -.236373808254418D+02 0.573045710234608D+02
 0.861626349543107D+02 0.412346133326690D+02 0.753141085945493D+02 -.717574889356592D+01
 0.000000000000000D+00 0.000000000000000D+00 0.000000000000000D+00 -.000000000000000D+00
 0.170319088873611D+03 0.000000000000000D+00 0.000000000000000D+00 0.170319088873611D+03
 0.170319088873611D+03 -.000000000000000D+00 -.000000000000000D+00 -.170319088873611D+03
 0.144059019726087D+03 0.198156086029881D+01 -.510400894087167D+02 -.501894795166106D+02
 0.109984446223576D+03 -.426014054822026D+02 -.231511577424727D+02 0.572582448461382D+02
 0.414303469044941D+02 0.165331233540751D+02 0.377369280503391D+02 0.436505877499837D+01
 0.451643648930651D+02 0.240867212678287D+02 0.364543191008503D+02 -.114338241045259D+02
0.397854431472D-04 0.000000000000D+00 0.000000000000D+00 0.287530512811D-05 0.000000000000D+00  6 4 -3 25 24 21 21 2 0.74010265D-02 0.92770090D-01 0.24850452D+05 0.24850452D+05 0.24850452D+05 0.12235771D+01  1  2  2  3  6  5       21 0.162511032520D-02 0.100000000000D+01
-.268655899406D-05 0.209953551636D-05 -.152786577433D-06 0.287530512811D-05 0.000000000000D+00  6 4 -3 25 24 21 21 4 0.74010265D-02 0.92770090D-01 0.24850452D+05 0.24850452D+05 0.24850452D+05 0.12235771D+01  1  2  3  3  6  5       21 -.164292491663D-03 0.100000000000D+01
0.171648337589D-05 0.000000000000D+00 0.000000000000D+00 0.287530512811D-05 0.000000000000D+00  6 4 -3 25 24 21 21 4 0.74010265D-02 0.92770090D-01 0.24850452D+05 0.24850452D+05 0.24850452D+05 0.12235771D+01  1  2 15  3  6  5       21 0.104968970102D-03 0.100000000000D+01
0.904546492519D-04 0.000000000000D+00 0.000000000000D+00 0.287732505739D-05 0.000000000000D+00  6 4 -3 25 24 21 21 4 0.74010265D-02 0.92770090D-01 0.24622450D+05 0.24622450D+05 0.24622450D+05 0.12240068D+01  1  2 12  3  6  5       21 0.553563534829D-02 0.100000000000D+01
0.902985105309D-04 0.000000000000D+00 0.000000000000D+00 0.287732505739D-05 0.000000000000D+00  6 4 -3 25 24 21 21 4 0.74010265D-02 0.92770090D-01 0.24622450D+05 0.24622450D+05 0.24622450D+05 0.12240068D+01  1  2 12  3  6  5       21 0.552607998513D-02 0.100000000000D+01
-.375905154418D-03 0.000000000000D+00 0.000000000000D+00 0.287530512811D-05 0.000000000000D+00  6 4 -3 25 24 21 21 4 0.74010265D-02 0.92770090D-01 0.24850452D+05 0.24850452D+05 0.24850452D+05 0.12235771D+01  1  2  4  3  6  5       21 -.229879167311D-01 0.100000000000D+01
-.187013293124D-03 0.000000000000D+00 0.000000000000D+00 0.287530512811D-05 0.000000000000D+00  6 4 -3 25 24 21 21 4 0.74010265D-02 0.92770090D-01 0.24850452D+05 0.24850452D+05 0.24850452D+05 0.12235771D+01  1  2  5  3  6  5       21 -.114365178540D-01 0.100000000000D+01
0.328738527383D-03 0.000000000000D+00 -.000000000000D+00 0.287530512811D-05 0.000000000000D+00  6 4 -3 25 24 21 21 4 0.74010265D-02 0.92770090D-01 0.24850452D+05 0.24850452D+05 0.24850452D+05 0.12235771D+01  1  2  6  3  6  5       21 0.201035122954D-01 0.100000000000D+01
0.205171351652D-06 0.000000000000D+00 0.000000000000D+00 0.287530512811D-05 0.233417577582D-06  6 4 -3 25 24 21 21 4 0.74010265D-02 0.92770090D-01 0.24622450D+05 0.24622450D+05 0.24622450D+05 0.12240068D+01  1  2 11  3  6  5       21 0.125560576052D-04 0.100000000000D+01
0.350445429070D-05 0.000000000000D+00 0.000000000000D+00 0.287732505739D-05 0.000000000000D+00  6 4 -3 25 24 3 -3 4 0.74010265D-02 0.92770090D-01 0.24622450D+05 0.24622450D+05 0.24622450D+05 0.12240068D+01  1  2 12  6  6  5       21 0.214465273024D-03 0.100000000000D+01
0.349841813729D-05 0.000000000000D+00 0.000000000000D+00 0.287732505739D-05 0.000000000000D+00  6 4 -3 25 24 3 -3 4 0.74010265D-02 0.92770090D-01 0.24622450D+05 0.24622450D+05 0.24622450D+05 0.12240068D+01  1  2 12  6  6  5       21 0.214095873060D-03 0.100000000000D+01
-.292375292938D-05 0.000000000000D+00 0.000000000000D+00 0.287530512811D-05 0.000000000000D+00  6 4 -3 25 24 3 -3 4 0.74010265D-02 0.92770090D-01 0.24850452D+05 0.24850452D+05 0.24850452D+05 0.12235771D+01  1  2  5  6  6  5       21 -.178797731536D-03 0.100000000000D+01
0.300462138104D-08 0.000000000000D+00 0.000000000000D+00 0.287530512811D-05 0.309327671105D-08  6 4 -3 25 24 3 -3 4 0.74010265D-02 0.92770090D-01 0.24622450D+05 0.24622450D+05 0.24622450D+05 0.12240068D+01  1  2 11  6  6  5       21 0.183876544353D-06 0.100000000000D+01
0.350445429070D-05 0.000000000000D+00 0.000000000000D+00 0.287732505739D-05 0.000000000000D+00  6 4 -3 25 24 4 -4 4 0.74010265D-02 0.92770090D-01 0.24622450D+05 0.24622450D+05 0.24622450D+05 0.12240068D+01  1  2 12  7  6  5       21 0.214465273024D-03 0.100000000000D+01
0.349841813729D-05 0.000000000000D+00 0.000000000000D+00 0.287732505739D-05 0.000000000000D+00  6 4 -3 25 24 4 -4 4 0.74010265D-02 0.92770090D-01 0.24622450D+05 0.24622450D+05 0.24622450D+05 0.12240068D+01  1  2 12  7  6  5       21 0.214095873060D-03 0.100000000000D+01
-.292375292938D-05 0.000000000000D+00 0.000000000000D+00 0.287530512811D-05 0.000000000000D+00  6 4 -3 25 24 4 -4 4 0.74010265D-02 0.92770090D-01 0.24850452D+05 0.24850452D+05 0.24850452D+05 0.12235771D+01  1  2  5  7  6  5       21 -.178797731536D-03 0.100000000000D+01
0.297352107766D-08 0.000000000000D+00 0.000000000000D+00 0.287530512811D-05 0.305961011099D-08  6 4 -3 25 24 4 -4 4 0.74010265D-02 0.92770090D-01 0.24622450D+05 0.24622450D+05 0.24622450D+05 0.12240068D+01  1  2 11  7  6  5       21 0.181973270833D-06 0.100000000000D+01
0.350445429070D-05 0.000000000000D+00 0.000000000000D+00 0.287732505739D-05 0.000000000000D+00  6 4 -3 25 24 1 -1 4 0.74010265D-02 0.92770090D-01 0.24622450D+05 0.24622450D+05 0.24622450D+05 0.12240068D+01  1  2 12  8  6  5       21 0.214465273024D-03 0.100000000000D+01
0.350445429070D-05 0.000000000000D+00 0.000000000000D+00 0.287732505739D-05 0.000000000000D+00  6 4 -3 25 24 2 -2 4 0.74010265D-02 0.92770090D-01 0.24622450D+05 0.24622450D+05 0.24622450D+05 0.12240068D+01  1  2 12  8  6  5       21 0.214465273024D-03 0.100000000000D+01
0.349841813729D-05 0.000000000000D+00 0.000000000000D+00 0.287732505739D-05 0.000000000000D+00  6 4 -3 25 24 1 -1 4 0.74010265D-02 0.92770090D-01 0.24622450D+05 0.24622450D+05 0.24622450D+05 0.12240068D+01  1  2 12  8  6  5       21 0.214095873060D-03 0.100000000000D+01
0.349841813729D-05 0.000000000000D+00 0.000000000000D+00 0.287732505739D-05 0.000000000000D+00  6 4 -3 25 24 2 -2 4 0.74010265D-02 0.92770090D-01 0.24622450D+05 0.24622450D+05 0.24622450D+05 0.12240068D+01  1  2 12  8  6  5       21 0.214095873060D-03 0.100000000000D+01
-.292375292938D-05 0.000000000000D+00 0.000000000000D+00 0.287530512811D-05 0.000000000000D+00  6 4 -3 25 24 1 -1 4 0.74010265D-02 0.92770090D-01 0.24850452D+05 0.24850452D+05 0.24850452D+05 0.12235771D+01  1  2  5  8  6  5       21 -.178797731536D-03 0.100000000000D+01
-.292375292938D-05 0.000000000000D+00 0.000000000000D+00 0.287530512811D-05 0.000000000000D+00  6 4 -3 25 24 2 -2 4 0.74010265D-02 0.92770090D-01 0.24850452D+05 0.24850452D+05 0.24850452D+05 0.12235771D+01  1  2  5  8  6  5       21 -.178797731536D-03 0.100000000000D+01
0.296828583027D-08 0.000000000000D+00 0.000000000000D+00 0.287530512811D-05 0.304338919174D-08  6 4 -3 25 24 1 -1 4 0.74010265D-02 0.92770090D-01 0.24622450D+05 0.24622450D+05 0.24622450D+05 0.12240068D+01  1  2 11  8  6  5       21 0.181652884642D-06 0.100000000000D+01
0.296828583027D-08 0.000000000000D+00 0.000000000000D+00 0.287530512811D-05 0.304338919174D-08  6 4 -3 25 24 2 -2 4 0.74010265D-02 0.92770090D-01 0.24622450D+05 0.24622450D+05 0.24622450D+05 0.12240068D+01  1  2 11  8  6  5       21 0.181652884642D-06 0.100000000000D+01
  </mgrwgt>
  </event>
  <event>
  5     66 0.42622971E-03 0.50734551E+02 0.75467711E-02 0.11787940E+00
        2 -1    0    0  502    0 0.00000000E+00 0.00000000E+00 0.86788352E+03 0.86788358E+03 0.32000000E+00 0.0000E+00 0.9000E+01
       -1 -1    0    0    0  501 0.00000000E+00 0.00000000E+00 -.78799914E+02 0.78800564E+02 0.32000000E+00 0.0000E+00 0.9000E+01
       25  1    1    2    0    0 0.58427210E+02 -.32007252E+02 0.11671032E+03 0.18353338E+03 0.12500000E+03 0.0000E+00 0.9000E+01
       24  1    1    2    0    0 -.10562599E+03 0.65043518E+00 0.55847327E+02 0.14402574E+03 0.80419002E+02 0.0000E+00 0.9000E+01
       21  1    1    2  502  501 0.47198784E+02 0.31356817E+02 0.61652596E+03 0.61912502E+03 0.75000000E+00 0.0000E+00 0.9000E+01
#aMCatNLO 1  0  0  5  2 0.31794457D+02 0.00000000D+00  -5  6  0 0.00000000D+00 0.00000000D+00 0.00000000D+00 0.00000000D+00 0.00000000D+00
  <mgrwgt>
 0.4213759666D-01   15    2    0
 0.261513829213670D+03 0.000000000000000D+00 0.000000000000000D+00 0.261513829213670D+03
 0.261513829213670D+03 -.000000000000000D+00 -.000000000000000D+00 -.261513829213670D+03
 0.156117976603215D+03 0.584271010487657D+02 -.320073246504276D+02 -.656477543442376D+02
 0.176432115916870D+03 -.105626117871233D+03 0.650353186219624D+00 -.116205747864375D+03
 0.190477565907255D+03 0.471990168224671D+02 0.313569714642079D+02 0.181853502208613D+03
 0.000000000000000D+00 0.000000000000000D+00 0.000000000000000D+00 0.000000000000000D+00
 0.261513829213670D+03 0.000000000000000D+00 0.000000000000000D+00 0.261513829213670D+03
 0.261513829213670D+03 -.000000000000000D+00 -.000000000000000D+00 -.261513829213670D+03
 0.153935738196241D+03 0.601006904370947D+02 -.308954647383869D+02 -.591995672417059D+02
 0.170627717220561D+03 -.103752779071761D+03 0.189491790880206D+01 -.108987944519265D+03
 0.162504064012553D+03 0.870157962280395D+01 0.285612134329491D+02 0.159737629943297D+03
 0.359601389979843D+02 0.349505090118627D+02 0.439333396635664D+00 0.844988181767367D+01
0.960750267124D-04 0.000000000000D+00 0.000000000000D+00 0.114412552076D-04 0.000000000000D+00  6 2 -1 25 24 21 21 2 0.13352060D+00 0.12123118D-01 0.27401457D+05 0.27401457D+05 0.27401457D+05 0.12190499D+01  1  2  2  3  6  5       21 0.233077297759D-01 0.100000000000D+01
0.433964981660D-05 0.507001845051D-05 -.368953399711D-06 0.114412552076D-04 0.000000000000D+00  6 2 -1 25 24 21 21 4 0.13352060D+00 0.12123118D-01 0.27401457D+05 0.27401457D+05 0.27401457D+05 0.12190499D+01  1  2  3  3  6  5       21 0.156454155739D-02 0.100000000000D+01
0.294671534394D-05 0.000000000000D+00 0.000000000000D+00 0.114412552076D-04 0.000000000000D+00  6 2 -1 25 24 21 21 4 0.13352060D+00 0.12123118D-01 0.27401457D+05 0.27401457D+05 0.27401457D+05 0.12190499D+01  1  2 15  3  6  5       21 0.106235728878D-02 0.100000000000D+01
0.134150410124D-03 0.000000000000D+00 0.000000000000D+00 0.114045592078D-04 0.000000000000D+00  6 2 -1 25 24 21 21 4 0.13352060D+00 0.12123118D-01 0.28593402D+05 0.28593402D+05 0.28593402D+05 0.12170934D+01  1  2 12  3  6  5       21 0.480621480186D-01 0.100000000000D+01
-.121781680850D-03 0.000000000000D+00 0.000000000000D+00 0.114412552076D-04 0.000000000000D+00  6 2 -1 25 24 21 21 4 0.13352060D+00 0.12123118D-01 0.27401457D+05 0.27401457D+05 0.27401457D+05 0.12190499D+01  1  2  4  3  6  5       21 -.439050404229D-01 0.100000000000D+01
-.205176363733D-03 0.000000000000D+00 0.000000000000D+00 0.114412552076D-04 0.000000000000D+00  6 2 -1 25 24 21 21 4 0.13352060D+00 0.12123118D-01 0.27401457D+05 0.27401457D+05 0.27401457D+05 0.12190499D+01  1  2  5  3  6  5       21 -.739707029879D-01 0.100000000000D+01
0.242534286453D-03 0.000000000000D+00 -.000000000000D+00 0.114412552076D-04 0.000000000000D+00  6 2 -1 25 24 21 21 4 0.13352060D+00 0.12123118D-01 0.27401457D+05 0.27401457D+05 0.27401457D+05 0.12190499D+01  1  2  6  3  6  5       21 0.874390760279D-01 0.100000000000D+01
0.150684265324D-05 0.000000000000D+00 0.000000000000D+00 0.114045592078D-04 0.000000000000D+00  6 2 -1 25 24 1 -1 4 0.13352060D+00 0.12123118D-01 0.28593402D+05 0.28593402D+05 0.28593402D+05 0.12170934D+01  1  2 12  6  6  5       21 0.539857422530D-03 0.100000000000D+01
-.248385463780D-05 0.000000000000D+00 0.000000000000D+00 0.114412552076D-04 0.000000000000D+00  6 2 -1 25 24 1 -1 4 0.13352060D+00 0.12123118D-01 0.27401457D+05 0.27401457D+05 0.27401457D+05 0.12190499D+01  1  2  5  6  6  5       21 -.895485573167D-03 0.100000000000D+01
0.150684265324D-05 0.000000000000D+00 0.000000000000D+00 0.114045592078D-04 0.000000000000D+00  6 2 -1 25 24 2 -2 4 0.13352060D+00 0.12123118D-01 0.28593402D+05 0.28593402D+05 0.28593402D+05 0.12170934D+01  1  2 12  7  6  5       21 0.539857422530D-03 0.100000000000D+01
-.248385463780D-05 0.000000000000D+00 0.000000000000D+00 0.114412552076D-04 0.000000000000D+00  6 2 -1 25 24 2 -2 4 0.13352060D+00 0.12123118D-01 0.27401457D+05 0.27401457D+05 0.27401457D+05 0.12190499D+01  1  2  5  7  6  5       21 -.895485573167D-03 0.100000000000D+01
0.150684265324D-05 0.000000000000D+00 0.000000000000D+00 0.114045592078D-04 0.000000000000D+00  6 2 -1 25 24 3 -3 4 0.13352060D+00 0.12123118D-01 0.28593402D+05 0.28593402D+05 0.28593402D+05 0.12170934D+01  1  2 12  8  6  5       21 0.539857422530D-03 0.100000000000D+01
0.150684265324D-05 0.000000000000D+00 0.000000000000D+00 0.114045592078D-04 0.000000000000D+00  6 2 -1 25 24 4 -4 4 0.13352060D+00 0.12123118D-01 0.28593402D+05 0.28593402D+05 0.28593402D+05 0.12170934D+01  1  2 12  8  6  5       21 0.539857422530D-03 0.100000000000D+01
-.248385463780D-05 0.000000000000D+00 0.000000000000D+00 0.114412552076D-04 0.000000000000D+00  6 2 -1 25 24 3 -3 4 0.13352060D+00 0.12123118D-01 0.27401457D+05 0.27401457D+05 0.27401457D+05 0.12190499D+01  1  2  5  8  6  5       21 -.895485573167D-03 0.100000000000D+01
-.248385463780D-05 0.000000000000D+00 0.000000000000D+00 0.114412552076D-04 0.000000000000D+00  6 2 -1 25 24 4 -4 4 0.13352060D+00 0.12123118D-01 0.27401457D+05 0.27401457D+05 0.27401457D+05 0.12190499D+01  1  2  5  8  6  5       21 -.895485573167D-03 0.100000000000D+01
  </mgrwgt>
  </event>
  <event>
  5     66 -.42622971E-03 0.20240051E+02 0.75467711E-02 0.12490222E+00
        2 -1    0    0  502    0 0.00000000E+00 0.00000000E+00 0.31107997E+03 0.31108013E+03 0.32000000E+00 0.0000E+00 0.9000E+01
       -1 -1    0    0    0  501 0.00000000E+00 0.00000000E+00 -.68570774E+02 0.68571521E+02 0.32000000E+00 0.0000E+00 0.9000E+01
       25  1    1    2    0    0 -.31973622E+02 0.18391943E+02 0.51045476E+02 0.13996863E+03 0.12500000E+03 0.0000E+00 0.9000E+01
       24  1    1    2    0    0 0.12523444E+02 -.12796151E+02 0.49149072E+02 0.95934485E+02 0.80419002E+02 0.0000E+00 0.9000E+01
       21  1    1    2  502  501 0.19450178E+02 -.55957918E+01 0.14231465E+03 0.14374854E+03 0.75000000E+00 0.0000E+00 0.9000E+01
#aMCatNLO 1  0  0  5  2 0.22192996D+01 0.00000000D+00  -5  6  0 0.00000000D+00 0.00000000D+00 0.00000000D+00 0.00000000D+00 0.00000000D+00
  <mgrwgt>
 -.2658426384D+01   15    2    0
 0.146051933714753D+03 0.000000000000000D+00 0.000000000000000D+00 0.146051933714753D+03
 0.146051933714753D+03 -.000000000000000D+00 -.000000000000000D+00 -.146051933714753D+03
 0.139541329838009D+03 -.319741762785557D+02 0.183921022724557D+02 -.498614616539407D+02
 0.838832677257986D+02 0.125231113372255D+02 -.127960552865628D+02 -.157676663310126D+02
 0.686792698656992D+02 0.194510649413302D+02 -.559604698589285D+01 0.656291279849533D+02
 0.000000000000000D+00 0.000000000000000D+00 -.000000000000000D+00 0.000000000000000D+00
 0.146051933714753D+03 0.000000000000000D+00 0.000000000000000D+00 0.146051933714753D+03
 0.146051933714753D+03 -.000000000000000D+00 -.000000000000000D+00 -.146051933714753D+03
 0.139380389493525D+03 -.318645918821142D+02 0.183605749790526D+02 -.494917169432574D+02
 0.838545196510382D+02 0.125890131401908D+02 -.128150151526144D+02 -.155453094639570D+02
 0.652914751033979D+02 0.171402555714267D+02 -.363307778380524D+01 0.628966541712723D+02
 0.357748318154608D+01 0.213532317049667D+01 -.191248204263293D+01 0.214037223594207D+01
0.126749450630D-03 0.000000000000D+00 0.000000000000D+00 0.758639072844D-04 0.000000000000D+00  6 2 -1 25 24 21 21 2 0.47858527D-01 0.10549420D-01 0.13567234D+05 0.13567234D+05 0.13567234D+05 0.12528238D+01  1  2  2  3  6  5       21 0.126356359287D+00 0.100000000000D+01
0.186079109727D-04 0.668875227282D-05 -.486751264314D-06 0.758639072844D-04 0.000000000000D+00  6 2 -1 25 24 21 21 4 0.47858527D-01 0.10549420D-01 0.13567234D+05 0.13567234D+05 0.13567234D+05 0.12528238D+01  1  2  3  3  6  5       21 0.291157943283D-01 0.100000000000D+01
0.457920264724D-05 0.000000000000D+00 0.000000000000D+00 0.758639072844D-04 0.000000000000D+00  6 2 -1 25 24 21 21 4 0.47858527D-01 0.10549420D-01 0.13567234D+05 0.13567234D+05 0.13567234D+05 0.12528238D+01  1  2 15  3  6  5       21 0.716507740502D-02 0.100000000000D+01
0.414640576759D-06 0.000000000000D+00 0.000000000000D+00 0.758571719246D-04 0.000000000000D+00  6 2 -1 25 24 21 21 4 0.47858527D-01 0.10549420D-01 0.13582296D+05 0.13582296D+05 0.13582296D+05 0.12527682D+01  1  2 12  3  6  5       21 0.648695736366D-03 0.100000000000D+01
-.192873205445D-02 0.000000000000D+00 0.000000000000D+00 0.758639072844D-04 0.000000000000D+00  6 2 -1 25 24 21 21 4 0.47858527D-01 0.10549420D-01 0.13567234D+05 0.13567234D+05 0.13567234D+05 0.12528238D+01  1  2  4  3  6  5       21 -.301788663403D+01 0.100000000000D+01
-.332757963565D-02 0.000000000000D+00 0.000000000000D+00 0.758639072844D-04 0.000000000000D+00  6 2 -1 25 24 21 21 4 0.47858527D-01 0.10549420D-01 0.13567234D+05 0.13567234D+05 0.13567234D+05 0.12528238D+01  1  2  5  3  6  5       21 -.520666314585D+01 0.100000000000D+01
0.350573714205D-02 0.000000000000D+00 -.000000000000D+00 0.758639072844D-04 0.000000000000D+00  6 2 -1 25 24 21 21 4 0.47858527D-01 0.10549420D-01 0.13567234D+05 0.13567234D+05 0.13567234D+05 0.12528238D+01  1  2  6  3  6  5       21 0.548542615810D+01 0.100000000000D+01
0.165448507671D-07 0.000000000000D+00 0.000000000000D+00 0.758571719246D-04 0.000000000000D+00  6 2 -1 25 24 1 -1 4 0.47858527D-01 0.10549420D-01 0.13582296D+05 0.13582296D+05 0.13582296D+05 0.12527682D+01  1  2 12  6  6  5       21 0.258840421151D-04 0.100000000000D+01
-.132121550718D-04 0.000000000000D+00 0.000000000000D+00 0.758639072844D-04 0.000000000000D+00  6 2 -1 25 24 1 -1 4 0.47858527D-01 0.10549420D-01 0.13567234D+05 0.13567234D+05 0.13567234D+05 0.12528238D+01  1  2  5  6  6  5       21 -.206730562216D-01 0.100000000000D+01
0.165448507671D-07 0.000000000000D+00 0.000000000000D+00 0.758571719246D-04 0.000000000000D+00  6 2 -1 25 24 2 -2 4 0.47858527D-01 0.10549420D-01 0.13582296D+05 0.13582296D+05 0.13582296D+05 0.12527682D+01  1  2 12  7  6  5       21 0.258840421151D-04 0.100000000000D+01
-.132121550718D-04 0.000000000000D+00 0.000000000000D+00 0.758639072844D-04 0.000000000000D+00  6 2 -1 25 24 2 -2 4 0.47858527D-01 0.10549420D-01 0.13567234D+05 0.13567234D+05 0.13567234D+05 0.12528238D+01  1  2  5  7  6  5       21 -.206730562216D-01 0.100000000000D+01
0.165448507671D-07 0.000000000000D+00 0.000000000000D+00 0.758571719246D-04 0.000000000000D+00  6 2 -1 25 24 3 -3 4 0.47858527D-01 0.10549420D-01 0.13582296D+05 0.13582296D+05 0.13582296D+05 0.12527682D+01  1  2 12  8  6  5       21 0.258840421151D-04 0.100000000000D+01
0.165448507671D-07 0.000000000000D+00 0.000000000000D+00 0.758571719246D-04 0.000000000000D+00  6 2 -1 25 24 4 -4 4 0.47858527D-01 0.10549420D-01 0.13582296D+05 0.13582296D+05 0.13582296D+05 0.12527682D+01  1  2 12  8  6  5       21 0.258840421151D-04 0.100000000000D+01
-.132121550718D-04 0.000000000000D+00 0.000000000000D+00 0.758639072844D-04 0.000000000000D+00  6 2 -1 25 24 3 -3 4 0.47858527D-01 0.10549420D-01 0.13567234D+05 0.13567234D+05 0.13567234D+05 0.12528238D+01  1  2  5  8  6  5       21 -.206730562216D-01 0.100000000000D+01
-.132121550718D-04 0.000000000000D+00 0.000000000000D+00 0.758639072844D-04 0.000000000000D+00  6 2 -1 25 24 4 -4 4 0.47858527D-01 0.10549420D-01 0.13567234D+05 0.13567234D+05 0.13567234D+05 0.12528238D+01  1  2  5  8  6  5       21 -.206730562216D-01 0.100000000000D+01
  </mgrwgt>
  </event>
  <event>
  5     66 0.42622971E-03 0.35701051E+02 0.75467711E-02 0.12370296E+00
        2 -1    0    0  502    0 0.00000000E+00 0.00000000E+00 0.62307484E+02 0.62308306E+02 0.32000000E+00 0.0000E+00 0.9000E+01
       -1 -1    0    0    0  501 -.00000000E+00 -.00000000E+00 -.31658599E+03 0.31658615E+03 0.32000000E+00 0.0000E+00 0.9000E+01
       25  1    1    2    0    0 0.21702381E+02 0.19562132E+02 -.21835036E+03 0.25328946E+03 0.12500000E+03 0.0000E+00 0.9000E+01
       24  1    1    2    0    0 -.12024222E+02 0.14798254E+02 -.35360519E+02 0.89895231E+02 0.80419002E+02 0.0000E+00 0.9000E+01
       21  1    1    2  502  501 -.96781582E+01 -.34360386E+02 -.56762738E+00 0.35709768E+02 0.75000000E+00 0.0000E+00 0.9000E+01
#aMCatNLO 1  0  0  5  1 0.32993123D+01 0.00000000D+00  -5  6  0 0.00000000D+00 0.00000000D+00 0.00000000D+00 0.00000000D+00 0.00000000D+00
  <mgrwgt>
 0.2295343248D+00   25    2    0
 0.140448790971982D+03 0.000000000000000D+00 0.000000000000000D+00 0.140448790971982D+03
 0.140448790971982D+03 -.000000000000000D+00 -.000000000000000D+00 -.140448790971982D+03
 0.143997441796790D+03 0.217029950928313D+02 0.195643135823696D+02 -.652417112135414D+02
 0.892471252038688D+02 -.120238414311213D+02 0.147996065746050D+02 0.336783652403239D+02
 0.476530149433060D+02 -.967915366170998D+01 -.343639201569746D+02 0.315633459732175D+02
 0.000000000000000D+00 0.000000000000000D+00 0.000000000000000D+00 0.000000000000000D+00
 0.140448790971982D+03 0.000000000000000D+00 0.000000000000000D+00 0.140448790971982D+03
 0.140448790971982D+03 -.000000000000000D+00 -.000000000000000D+00 -.140448790971982D+03
 0.143687232665147D+03 0.215553029055451D+02 0.190399616907584D+02 -.647600926993837D+02
 0.893194254546884D+02 -.121155143173891D+02 0.144741401284295D+02 0.339773069791123D+02
 0.430258668837830D+02 -.117862664203664D+02 -.311554530357737D+02 0.272331946547748D+02
 0.486505694034608D+01 0.234647783221040D+01 -.235864878341422D+01 0.354959106549660D+01
0.176625739448D-03 0.000000000000D+00 0.000000000000D+00 0.173509375379D-04 0.000000000000D+00  6 2 -1 25 24 21 21 2 0.95858425D-02 0.48705613D-01 0.15217630D+05 0.15217630D+05 0.15217630D+05 0.12471100D+01  1  2  2  3  6  5       21 0.875378428996D-01 0.100000000000D+01
0.563523886935D-05 0.932079634510D-05 -.678289346106D-06 0.173509375379D-04 0.000000000000D+00  6 2 -1 25 24 21 21 4 0.95858425D-02 0.48705613D-01 0.15217630D+05 0.15217630D+05 0.15217630D+05 0.12471100D+01  1  2  3  3  6  5       21 0.434373878781D-02 0.100000000000D+01
0.970008059440D-05 0.000000000000D+00 0.000000000000D+00 0.173509375379D-04 0.000000000000D+00  6 2 -1 25 24 21 21 4 0.95858425D-02 0.48705613D-01 0.15217630D+05 0.15217630D+05 0.15217630D+05 0.12471100D+01  1  2 15  3  6  5       21 0.747698851808D-02 0.100000000000D+01
0.545885904218D-05 0.000000000000D+00 0.000000000000D+00 0.173421682025D-04 0.000000000000D+00  6 2 -1 25 24 21 21 4 0.95858425D-02 0.48705613D-01 0.15315028D+05 0.15315028D+05 0.15315028D+05 0.12467948D+01  1  2 12  3  6  5       21 0.420425429448D-02 0.100000000000D+01
0.623394946438D-05 0.000000000000D+00 0.000000000000D+00 0.173421682025D-04 0.000000000000D+00  6 2 -1 25 24 21 21 4 0.95858425D-02 0.48705613D-01 0.15315028D+05 0.15315028D+05 0.15315028D+05 0.12467948D+01  1  2 12  3  6  5       21 0.480120637017D-02 0.100000000000D+01
-.150607041088D-02 0.000000000000D+00 0.000000000000D+00 0.173509375379D-04 0.000000000000D+00  6 2 -1 25 24 21 21 4 0.95858425D-02 0.48705613D-01 0.15217630D+05 0.15217630D+05 0.15217630D+05 0.12471100D+01  1  2  4  3  6  5       21 -.116090490795D+01 0.100000000000D+01
-.166937680617D-02 0.000000000000D+00 0.000000000000D+00 0.173509375379D-04 0.000000000000D+00  6 2 -1 25 24 21 21 4 0.95858425D-02 0.48705613D-01 0.15217630D+05 0.15217630D+05 0.15217630D+05 0.12471100D+01  1  2  5  3  6  5       21 -.128678427881D+01 0.100000000000D+01
0.191919559353D-02 0.000000000000D+00 -.000000000000D+00 0.173509375379D-04 0.000000000000D+00  6 2 -1 25 24 21 21 4 0.95858425D-02 0.48705613D-01 0.15217630D+05 0.15217630D+05 0.15217630D+05 0.12471100D+01  1  2  6  3  6  5       21 0.147934888552D+01 0.100000000000D+01
0.141187526150D-02 0.000000000000D+00 0.000000000000D+00 0.173509375379D-04 0.116118367682D-04  6 2 -1 25 24 21 21 4 0.95858425D-02 0.48705613D-01 0.15315028D+05 0.15315028D+05 0.15315028D+05 0.12467948D+01  1  2 11  3  6  5       21 0.108738521833D+01 0.100000000000D+01
0.189714426362D-06 0.000000000000D+00 0.000000000000D+00 0.173421682025D-04 0.000000000000D+00  6 2 -1 25 24 1 -1 4 0.95858425D-02 0.48705613D-01 0.15315028D+05 0.15315028D+05 0.15315028D+05 0.12467948D+01  1  2 12  6  6  5       21 0.146112527471D-03 0.100000000000D+01
0.198188328868D-06 0.000000000000D+00 0.000000000000D+00 0.173421682025D-04 0.000000000000D+00  6 2 -1 25 24 1 -1 4 0.95858425D-02 0.48705613D-01 0.15315028D+05 0.15315028D+05 0.15315028D+05 0.12467948D+01  1  2 12  6  6  5       21 0.152638880455D-03 0.100000000000D+01
-.143284140201D-04 0.000000000000D+00 0.000000000000D+00 0.173509375379D-04 0.000000000000D+00  6 2 -1 25 24 1 -1 4 0.95858425D-02 0.48705613D-01 0.15217630D+05 0.15217630D+05 0.15217630D+05 0.12471100D+01  1  2  5  6  6  5       21 -.110445873174D-01 0.100000000000D+01
0.146644091201D-04 0.000000000000D+00 0.000000000000D+00 0.173509375379D-04 0.195577219586D-06  6 2 -1 25 24 1 -1 4 0.95858425D-02 0.48705613D-01 0.15315028D+05 0.15315028D+05 0.15315028D+05 0.12467948D+01  1  2 11  6  6  5       21 0.112941009363D-01 0.100000000000D+01
0.189714426362D-06 0.000000000000D+00 0.000000000000D+00 0.173421682025D-04 0.000000000000D+00  6 2 -1 25 24 2 -2 4 0.95858425D-02 0.48705613D-01 0.15315028D+05 0.15315028D+05 0.15315028D+05 0.12467948D+01  1  2 12  7  6  5       21 0.146112527471D-03 0.100000000000D+01
0.198188328868D-06 0.000000000000D+00 0.000000000000D+00 0.173421682025D-04 0.000000000000D+00  6 2 -1 25 24 2 -2 4 0.95858425D-02 0.48705613D-01 0.15315028D+05 0.15315028D+05 0.15315028D+05 0.12467948D+01  1  2 12  7  6  5       21 0.152638880455D-03 0.100000000000D+01
-.143284140201D-04 0.000000000000D+00 0.000000000000D+00 0.173509375379D-04 0.000000000000D+00  6 2 -1 25 24 2 -2 4 0.95858425D-02 0.48705613D-01 0.15217630D+05 0.15217630D+05 0.15217630D+05 0.12471100D+01  1  2  5  7  6  5       21 -.110445873174D-01 0.100000000000D+01
0.146678350999D-04 0.000000000000D+00 0.000000000000D+00 0.173509375379D-04 0.194036859018D-06  6 2 -1 25 24 2 -2 4 0.95858425D-02 0.48705613D-01 0.15315028D+05 0.15315028D+05 0.15315028D+05 0.12467948D+01  1  2 11  7  6  5       21 0.112967395261D-01 0.100000000000D+01
0.189714426362D-06 0.000000000000D+00 0.000000000000D+00 0.173421682025D-04 0.000000000000D+00  6 2 -1 25 24 3 -3 4 0.95858425D-02 0.48705613D-01 0.15315028D+05 0.15315028D+05 0.15315028D+05 0.12467948D+01  1  2 12  8  6  5       21 0.146112527471D-03 0.100000000000D+01
0.189714426362D-06 0.000000000000D+00 0.000000000000D+00 0.173421682025D-04 0.000000000000D+00  6 2 -1 25 24 4 -4 4 0.95858425D-02 0.48705613D-01 0.15315028D+05 0.15315028D+05 0.15315028D+05 0.12467948D+01  1  2 12  8  6  5       21 0.146112527471D-03 0.100000000000D+01
0.198188328868D-06 0.000000000000D+00 0.000000000000D+00 0.173421682025D-04 0.000000000000D+00  6 2 -1 25 24 3 -3 4 0.95858425D-02 0.48705613D-01 0.15315028D+05 0.15315028D+05 0.15315028D+05 0.12467948D+01  1  2 12  8  6  5       21 0.152638880455D-03 0.100000000000D+01
0.198188328868D-06 0.000000000000D+00 0.000000000000D+00 0.173421682025D-04 0.000000000000D+00  6 2 -1 25 24 4 -4 4 0.95858425D-02 0.48705613D-01 0.15315028D+05 0.15315028D+05 0.15315028D+05 0.12467948D+01  1  2 12  8  6  5       21 0.152638880455D-03 0.100000000000D+01
-.143284140201D-04 0.000000000000D+00 0.000000000000D+00 0.173509375379D-04 0.000000000000D+00  6 2 -1 25 24 3 -3 4 0.95858425D-02 0.48705613D-01 0.15217630D+05 0.15217630D+05 0.15217630D+05 0.12471100D+01  1  2  5  8  6  5       21 -.110445873174D-01 0.100000000000D+01
-.143284140201D-04 0.000000000000D+00 0.000000000000D+00 0.173509375379D-04 0.000000000000D+00  6 2 -1 25 24 4 -4 4 0.95858425D-02 0.48705613D-01 0.15217630D+05 0.15217630D+05 0.15217630D+05 0.12471100D+01  1  2  5  8  6  5       21 -.110445873174D-01 0.100000000000D+01
0.146187557030D-04 0.000000000000D+00 0.000000000000D+00 0.173509375379D-04 0.192381501521D-06  6 2 -1 25 24 3 -3 4 0.95858425D-02 0.48705613D-01 0.15315028D+05 0.15315028D+05 0.15315028D+05 0.12467948D+01  1  2 11  8  6  5       21 0.112589400037D-01 0.100000000000D+01
0.146187557030D-04 0.000000000000D+00 0.000000000000D+00 0.173509375379D-04 0.192381501521D-06  6 2 -1 25 24 4 -4 4 0.95858425D-02 0.48705613D-01 0.15315028D+05 0.15315028D+05 0.15315028D+05 0.12467948D+01  1  2 11  8  6  5       21 0.112589400037D-01 0.100000000000D+01
  </mgrwgt>
  </event>
  <event>
  5     66 0.42622971E-03 0.26076035E+02 0.75467711E-02 0.12360062E+00
        2 -1    0    0  502    0 0.00000000E+00 0.00000000E+00 0.90499810E+03 0.90499815E+03 0.32000000E+00 0.0000E+00 0.9000E+01
       -1 -1    0    0    0  501 0.00000000E+00 0.00000000E+00 -.18318928E+02 0.18321722E+02 0.32000000E+00 0.0000E+00 0.9000E+01
       25  1    1    2    0    0 0.45864284E+02 -.22419546E+02 0.46665752E+03 0.48579873E+03 0.12500000E+03 0.0000E+00 0.9000E+01
       24  1    1    2    0    0 -.22101527E+02 0.11694766E+02 0.21596684E+03 0.23180624E+03 0.80419002E+02 0.0000E+00 0.9000E+01
       21  1    1    2  502  501 -.23762757E+02 0.10724780E+02 0.20405482E+03 0.20571490E+03 0.75000000E+00 0.0000E+00 0.9000E+01
#aMCatNLO 1  0  0  5  2 0.11251611D+02 0.00000000D+00  -5  6  0 0.00000000D+00 0.00000000D+00 0.00000000D+00 0.00000000D+00 0.00000000D+00
  <mgrwgt>
 0.7586623139D+00   20    2    0
 0.128763003213504D+03 0.000000000000000D+00 0.000000000000000D+00 0.128763003213504D+03
 0.128763003213504D+03 -.000000000000000D+00 -.000000000000000D+00 -.128763003213504D+03
 0.135024916284981D+03 0.458671484256721D+02 -.224208385900810D+02 0.488579554484911D+00
 0.875173622203194D+02 -.220996707999561D+02 0.116939279623155D+02 -.238102779273533D+02
 0.349837279217071D+02 -.237674776257160D+02 0.107269106277654D+02 0.233216983728684D+02
 0.000000000000000D+00 -.000000000000000D+00 0.000000000000000D+00 0.000000000000000D+00
 0.128763003213504D+03 0.000000000000000D+00 0.000000000000000D+00 0.128763003213504D+03
 0.128763003213504D+03 -.000000000000000D+00 -.000000000000000D+00 -.128763003213504D+03
 0.133721318225916D+03 0.424885802030619D+02 -.208959986409508D+02 0.380377985721374D+01
 0.876782697758527D+02 -.243021589430166D+02 0.126879709079481D+02 -.216490993222371D+02
 0.130627002879023D+02 0.346137144167333D+01 0.778763099350333D+01 0.989979040502161D+01
 0.230637181373363D+02 -.216477927017186D+02 0.420396739499427D+00 0.794552906000176D+01
0.282031928108D-03 0.000000000000D+00 0.000000000000D+00 0.376118323862D-04 0.000000000000D+00  6 2 -1 25 24 21 21 2 0.13923070D+00 0.28185159D-02 0.15045011D+05 0.15045011D+05 0.15045011D+05 0.12476742D+01  1  2  2  3  6  5       21 0.593042808077D+00 0.100000000000D+01
0.300494440303D-04 0.148832337400D-04 -.108307686465D-05 0.376118323862D-04 0.000000000000D+00  6 2 -1 25 24 21 21 4 0.13923070D+00 0.28185159D-02 0.15045011D+05 0.15045011D+05 0.15045011D+05 0.12476742D+01  1  2  3  3  6  5       21 0.983618319602D-01 0.100000000000D+01
0.982045126420D-05 0.000000000000D+00 0.000000000000D+00 0.376118323862D-04 0.000000000000D+00  6 2 -1 25 24 21 21 4 0.13923070D+00 0.28185159D-02 0.15045011D+05 0.15045011D+05 0.15045011D+05 0.12476742D+01  1  2 15  3  6  5       21 0.321456056242D-01 0.100000000000D+01
0.340421583665D-04 0.000000000000D+00 0.000000000000D+00 0.375277558714D-04 0.000000000000D+00  6 2 -1 25 24 21 21 4 0.13923070D+00 0.28185159D-02 0.15475957D+05 0.15475957D+05 0.15475957D+05 0.12462789D+01  1  2 12  3  6  5       21 0.111038879630D+00 0.100000000000D+01
0.452724063908D-04 0.000000000000D+00 0.000000000000D+00 0.375277558714D-04 0.000000000000D+00  6 2 -1 25 24 21 21 4 0.13923070D+00 0.28185159D-02 0.15475957D+05 0.15475957D+05 0.15475957D+05 0.12462789D+01  1  2 12  3  6  5       21 0.147669757882D+00 0.100000000000D+01
-.226341880925D-03 0.000000000000D+00 0.000000000000D+00 0.376118323862D-04 0.000000000000D+00  6 2 -1 25 24 21 21 4 0.13923070D+00 0.28185159D-02 0.15045011D+05 0.15045011D+05 0.15045011D+05 0.12476742D+01  1  2  4  3  6  5       21 -.740892311841D+00 0.100000000000D+01
-.535896665795D-04 0.000000000000D+00 0.000000000000D+00 0.376118323862D-04 0.000000000000D+00  6 2 -1 25 24 21 21 4 0.13923070D+00 0.28185159D-02 0.15045011D+05 0.15045011D+05 0.15045011D+05 0.12476742D+01  1  2  5  3  6  5       21 -.175416815485D+00 0.100000000000D+01
0.209206476311D-03 0.000000000000D+00 -.000000000000D+00 0.376118323862D-04 0.000000000000D+00  6 2 -1 25 24 21 21 4 0.13923070D+00 0.28185159D-02 0.15045011D+05 0.15045011D+05 0.15045011D+05 0.12476742D+01  1  2  6  3  6  5       21 0.684802429193D+00 0.100000000000D+01
0.248290090897D-05 0.000000000000D+00 0.000000000000D+00 0.375277558714D-04 0.000000000000D+00  6 2 -1 25 24 1 -1 4 0.13923070D+00 0.28185159D-02 0.15475957D+05 0.15475957D+05 0.15475957D+05 0.12462789D+01  1  2 12  6  6  5       21 0.809873839946D-02 0.100000000000D+01
0.318004244704D-05 0.000000000000D+00 0.000000000000D+00 0.375277558714D-04 0.000000000000D+00  6 2 -1 25 24 1 -1 4 0.13923070D+00 0.28185159D-02 0.15475957D+05 0.15475957D+05 0.15475957D+05 0.12462789D+01  1  2 12  6  6  5       21 0.103726780979D-01 0.100000000000D+01
-.503886561552D-05 0.000000000000D+00 0.000000000000D+00 0.376118323862D-04 0.000000000000D+00  6 2 -1 25 24 1 -1 4 0.13923070D+00 0.28185159D-02 0.15045011D+05 0.15045011D+05 0.15045011D+05 0.12476742D+01  1  2  5  6  6  5       21 -.164938842943D-01 0.100000000000D+01
0.248290090897D-05 0.000000000000D+00 0.000000000000D+00 0.375277558714D-04 0.000000000000D+00  6 2 -1 25 24 2 -2 4 0.13923070D+00 0.28185159D-02 0.15475957D+05 0.15475957D+05 0.15475957D+05 0.12462789D+01  1  2 12  7  6  5       21 0.809873839946D-02 0.100000000000D+01
0.318004244704D-05 0.000000000000D+00 0.000000000000D+00 0.375277558714D-04 0.000000000000D+00  6 2 -1 25 24 2 -2 4 0.13923070D+00 0.28185159D-02 0.15475957D+05 0.15475957D+05 0.15475957D+05 0.12462789D+01  1  2 12  7  6  5       21 0.103726780979D-01 0.100000000000D+01
-.503886561552D-05 0.000000000000D+00 0.000000000000D+00 0.376118323862D-04 0.000000000000D+00  6 2 -1 25 24 2 -2 4 0.13923070D+00 0.28185159D-02 0.15045011D+05 0.15045011D+05 0.15045011D+05 0.12476742D+01  1  2  5  7  6  5       21 -.164938842943D-01 0.100000000000D+01
0.248290090897D-05 0.000000000000D+00 0.000000000000D+00 0.375277558714D-04 0.000000000000D+00  6 2 -1 25 24 3 -3 4 0.13923070D+00 0.28185159D-02 0.15475957D+05 0.15475957D+05 0.15475957D+05 0.12462789D+01  1  2 12  8  6  5       21 0.809873839946D-02 0.100000000000D+01
0.248290090897D-05 0.000000000000D+00 0.000000000000D+00 0.375277558714D-04 0.000000000000D+00  6 2 -1 25 24 4 -4 4 0.13923070D+00 0.28185159D-02 0.15475957D+05 0.15475957D+05 0.15475957D+05 0.12462789D+01  1  2 12  8  6  5       21 0.809873839946D-02 0.100000000000D+01
0.318004244704D-05 0.000000000000D+00 0.000000000000D+00 0.375277558714D-04 0.000000000000D+00  6 2 -1 25 24 3 -3 4 0.13923070D+00 0.28185159D-02 0.15475957D+05 0.15475957D+05 0.15475957D+05 0.12462789D+01  1  2 12  8  6  5       21 0.103726780979D-01 0.100000000000D+01
0.318004244704D-05 0.000000000000D+00 0.000000000000D+00 0.375277558714D-04 0.000000000000D+00  6 2 -1 25 24 4 -4 4 0.13923070D+00 0.28185159D-02 0.15475957D+05 0.15475957D+05 0.15475957D+05 0.12462789D+01  1  2 12  8  6  5       21 0.103726780979D-01 0.100000000000D+01
-.503886561552D-05 0.000000000000D+00 0.000000000000D+00 0.376118323862D-04 0.000000000000D+00  6 2 -1 25 24 3 -3 4 0.13923070D+00 0.28185159D-02 0.15045011D+05 0.15045011D+05 0.15045011D+05 0.12476742D+01  1  2  5  8  6  5       21 -.164938842943D-01 0.100000000000D+01
-.503886561552D-05 0.000000000000D+00 0.000000000000D+00 0.376118323862D-04 0.000000000000D+00  6 2 -1 25 24 4 -4 4 0.13923070D+00 0.28185159D-02 0.15045011D+05 0.15045011D+05 0.15045011D+05 0.12476742D+01  1  2  5  8  6  5       21 -.164938842943D-01 0.100000000000D+01
  </mgrwgt>
  </event>
  <event>
  5     66 0.42622971E-03 0.34116308E+02 0.75467711E-02 0.12314413E+00
        2 -1    0    0  502    0 0.00000000E+00 0.00000000E+00 0.29117884E+04 0.29117884E+04 0.32000000E+00 0.0000E+00 0.9000E+01
       -1 -1    0    0    0  501 0.00000000E+00 0.00000000E+00 -.88774185E+01 0.88831840E+01 0.32000000E+00 0.0000E+00 0.9000E+01
       25  1    1    2    0    0 -.53598642E+02 -.61247187E+01 0.78603684E+03 0.79774008E+03 0.12500000E+03 0.0000E+00 0.9000E+01
       24  1    1    2    0    0 0.23766082E+02 -.10424470E+02 0.62723834E+03 0.63290492E+03 0.80419002E+02 0.0000E+00 0.9000E+01
       21  1    1    2  502  501 0.29832560E+02 0.16549189E+02 0.14896358E+04 0.14900266E+04 0.75000000E+00 0.0000E+00 0.9000E+01
#aMCatNLO 1  0  0  5  2 0.71839895D+01 0.00000000D+00  -5  6  0 0.00000000D+00 0.00000000D+00 0.00000000D+00 0.00000000D+00 0.00000000D+00
  <mgrwgt>
 0.1063489509D+00   20    2    0
 0.160803014352648D+03 0.000000000000000D+00 0.000000000000000D+00 0.160803014352648D+03
 0.160803014352648D+03 -.000000000000000D+00 -.000000000000000D+00 -.160803014352648D+03
 0.149692728964906D+03 -.535991723890154D+02 -.612501294296981D+01 -.622296234973505D+02
 0.861004147279424D+02 0.237657771553326D+02 -.104246390192427D+02 -.165100030125585D+02
 0.858128850124471D+02 0.298333952336828D+02 0.165496519622125D+02 0.787396265099091D+02
 0.000000000000000D+00 0.000000000000000D+00 0.000000000000000D+00 0.000000000000000D+00
 0.160803014352648D+03 0.000000000000000D+00 0.000000000000000D+00 0.160803014352648D+03
 0.160803014352648D+03 -.000000000000000D+00 -.000000000000000D+00 -.160803014352648D+03
 0.149018916974531D+03 -.531403563442796D+02 -.587049126363764D+01 -.610186649820265D+02
 0.860251562319536D+02 0.240301591261705D+02 -.102779768787730D+02 -.158122166065302D+02
 0.749319246402711D+02 0.226166084381286D+02 0.851667983205410D+01 0.709277697216677D+02
 0.116300308585398D+02 0.649358877998041D+01 0.763178831035652D+01 0.590311186688904D+01
0.182213949287D-03 0.000000000000D+00 0.000000000000D+00 0.269222505750D-04 0.000000000000D+00  6 2 -1 25 24 21 21 2 0.44796789D+00 0.13662015D-02 0.16226136D+05 0.16226136D+05 0.16226136D+05 0.12439510D+01  1  2  2  3  6  5       21 0.914076909424D-01 0.100000000000D+01
0.101306845309D-04 0.961569428014D-05 -.699749543295D-06 0.269222505750D-04 0.000000000000D+00  6 2 -1 25 24 21 21 4 0.44796789D+00 0.13662015D-02 0.16226136D+05 0.16226136D+05 0.16226136D+05 0.12439510D+01  1  2  3  3  6  5       21 0.786405400072D-02 0.100000000000D+01
0.722585539808D-05 0.000000000000D+00 0.000000000000D+00 0.269222505750D-04 0.000000000000D+00  6 2 -1 25 24 21 21 4 0.44796789D+00 0.13662015D-02 0.16226136D+05 0.16226136D+05 0.16226136D+05 0.12439510D+01  1  2 15  3  6  5       21 0.560914880714D-02 0.100000000000D+01
0.688985367266D-03 0.000000000000D+00 0.000000000000D+00 0.269233036221D-04 0.000000000000D+00  6 2 -1 25 24 21 21 4 0.44796789D+00 0.13662015D-02 0.16218089D+05 0.16218089D+05 0.16218089D+05 0.12439754D+01  1  2 12  3  6  5       21 0.534876323597D+00 0.100000000000D+01
-.882519820297D-03 0.000000000000D+00 0.000000000000D+00 0.269222505750D-04 0.000000000000D+00  6 2 -1 25 24 21 21 4 0.44796789D+00 0.13662015D-02 0.16226136D+05 0.16226136D+05 0.16226136D+05 0.12439510D+01  1  2  4  3  6  5       21 -.685065604636D+00 0.100000000000D+01
-.147290146242D-02 0.000000000000D+00 0.000000000000D+00 0.269222505750D-04 0.000000000000D+00  6 2 -1 25 24 21 21 4 0.44796789D+00 0.13662015D-02 0.16226136D+05 0.16226136D+05 0.16226136D+05 0.12439510D+01  1  2  5  3  6  5       21 -.114335577254D+01 0.100000000000D+01
0.165690390237D-02 0.000000000000D+00 -.000000000000D+00 0.269222505750D-04 0.000000000000D+00  6 2 -1 25 24 21 21 4 0.44796789D+00 0.13662015D-02 0.16226136D+05 0.16226136D+05 0.16226136D+05 0.12439510D+01  1  2  6  3  6  5       21 0.128618966690D+01 0.100000000000D+01
0.316000203927D-04 0.000000000000D+00 0.000000000000D+00 0.269222505750D-04 0.335567250020D-05  6 2 -1 25 24 21 21 4 0.44796789D+00 0.13662015D-02 0.16218089D+05 0.16218089D+05 0.16218089D+05 0.12439754D+01  1  2 11  3  6  5       21 0.245318747484D-01 0.100000000000D+01
0.726242928576D-05 0.000000000000D+00 0.000000000000D+00 0.269233036221D-04 0.000000000000D+00  6 2 -1 25 24 1 -1 4 0.44796789D+00 0.13662015D-02 0.16218089D+05 0.16218089D+05 0.16218089D+05 0.12439754D+01  1  2 12  6  6  5       21 0.563800286813D-02 0.100000000000D+01
-.125235797493D-04 0.000000000000D+00 0.000000000000D+00 0.269222505750D-04 0.000000000000D+00  6 2 -1 25 24 1 -1 4 0.44796789D+00 0.13662015D-02 0.16226136D+05 0.16226136D+05 0.16226136D+05 0.12439510D+01  1  2  5  6  6  5       21 -.972156492787D-02 0.100000000000D+01
0.188586991515D-06 0.000000000000D+00 0.000000000000D+00 0.269222505750D-04 0.289514826002D-07  6 2 -1 25 24 1 -1 4 0.44796789D+00 0.13662015D-02 0.16218089D+05 0.16218089D+05 0.16218089D+05 0.12439754D+01  1  2 11  6  6  5       21 0.146404730046D-03 0.100000000000D+01
0.726242928576D-05 0.000000000000D+00 0.000000000000D+00 0.269233036221D-04 0.000000000000D+00  6 2 -1 25 24 2 -2 4 0.44796789D+00 0.13662015D-02 0.16218089D+05 0.16218089D+05 0.16218089D+05 0.12439754D+01  1  2 12  7  6  5       21 0.563800286813D-02 0.100000000000D+01
-.125235797493D-04 0.000000000000D+00 0.000000000000D+00 0.269222505750D-04 0.000000000000D+00  6 2 -1 25 24 2 -2 4 0.44796789D+00 0.13662015D-02 0.16226136D+05 0.16226136D+05 0.16226136D+05 0.12439510D+01  1  2  5  7  6  5       21 -.972156492787D-02 0.100000000000D+01
0.221950303141D-06 0.000000000000D+00 0.000000000000D+00 0.269222505750D-04 0.408509153110D-07  6 2 -1 25 24 2 -2 4 0.44796789D+00 0.13662015D-02 0.16218089D+05 0.16218089D+05 0.16218089D+05 0.12439754D+01  1  2 11  7  6  5       21 0.172305491242D-03 0.100000000000D+01
0.726242928576D-05 0.000000000000D+00 0.000000000000D+00 0.269233036221D-04 0.000000000000D+00  6 2 -1 25 24 3 -3 4 0.44796789D+00 0.13662015D-02 0.16218089D+05 0.16218089D+05 0.16218089D+05 0.12439754D+01  1  2 12  8  6  5       21 0.563800286813D-02 0.100000000000D+01
0.726242928576D-05 0.000000000000D+00 0.000000000000D+00 0.269233036221D-04 0.000000000000D+00  6 2 -1 25 24 4 -4 4 0.44796789D+00 0.13662015D-02 0.16218089D+05 0.16218089D+05 0.16218089D+05 0.12439754D+01  1  2 12  8  6  5       21 0.563800286813D-02 0.100000000000D+01
-.125235797493D-04 0.000000000000D+00 0.000000000000D+00 0.269222505750D-04 0.000000000000D+00  6 2 -1 25 24 3 -3 4 0.44796789D+00 0.13662015D-02 0.16226136D+05 0.16226136D+05 0.16226136D+05 0.12439510D+01  1  2  5  8  6  5       21 -.972156492787D-02 0.100000000000D+01
-.125235797493D-04 0.000000000000D+00 0.000000000000D+00 0.269222505750D-04 0.000000000000D+00  6 2 -1 25 24 4 -4 4 0.44796789D+00 0.13662015D-02 0.16226136D+05 0.16226136D+05 0.16226136D+05 0.12439510D+01  1  2  5  8  6  5       21 -.972156492787D-02 0.100000000000D+01
0.197795559122D-06 0.000000000000D+00 0.000000000000D+00 0.269222505750D-04 0.296252152788D-07  6 2 -1 25 24 3 -3 4 0.44796789D+00 0.13662015D-02 0.16218089D+05 0.16218089D+05 0.16218089D+05 0.12439754D+01  1  2 11  8  6  5       21 0.153553568063D-03 0.100000000000D+01
0.197795559122D-06 0.000000000000D+00 0.000000000000D+00 0.269222505750D-04 0.296252152788D-07  6 2 -1 25 24 4 -4 4 0.44796789D+00 0.13662015D-02 0.16218089D+05 0.16218089D+05 0.16218089D+05 0.12439754D+01  1  2 11  8  6  5       21 0.153553568063D-03 0.100000000000D+01
  </mgrwgt>
  </event>
  <event>
  6     66 -.42622971E-03 0.29749247E+02 0.75467711E-02 0.12259708E+00
        2 -1    0    0  502    0 0.00000000E+00 0.00000000E+00 0.99280485E+03 0.99280490E+03 0.32000000E+00 0.0000E+00 0.9000E+01
       -1 -1    0    0    0  503 0.00000000E+00 0.00000000E+00 -.19439655E+02 0.19442289E+02 0.32000000E+00 0.0000E+00 0.9000E+01
       25  1    1    2    0    0 0.43542473E+02 0.19374219E+02 0.44404990E+03 0.46376354E+03 0.12500000E+03 0.0000E+00 0.9000E+01
       24  1    1    2    0    0 -.24493896E+02 -.95628643E+00 0.28120551E+03 0.29350403E+03 0.80419002E+02 0.0000E+00 0.9000E+01
       21  1    1    2  502  501 -.28610269E+02 -.19366608E+02 0.23973099E+03 0.24220884E+03 0.75000000E+00 0.0000E+00 0.9000E+01
       21  1    1    2  501  503 0.95616914E+01 0.94867526E+00 0.83788007E+01 0.12770776E+02 0.75000000E+00 0.0000E+00 0.9000E+01
#aMCatNLO 2  0  0  2  5 0.96086381D+01 0.00000000D+00  -5  6  0 0.00000000D+00 0.00000000D+00 0.00000000D+00 0.00000000D+00 0.00000000D+00
  <mgrwgt>
 -.1572854735D+00    2    2    0
 0.130059635578167D+03 0.000000000000000D+00 0.000000000000000D+00 0.130059635578167D+03
 0.130059635578167D+03 0.000000000000000D+00 0.000000000000000D+00 -.130059635578167D+03
 0.136297780450767D+03 0.485209514806909D+02 0.198696739217189D+02 -.142477465396607D+02
 0.836373685483688D+02 -.214034515016094D+02 -.648738291805826D+00 -.833455852292938D+01
 0.401841221571983D+02 -.271174999790815D+02 -.192209356299131D+02 0.225823050625901D+02
 0.000000000000000D+00 0.000000000000000D+00 0.000000000000000D+00 -.000000000000000D+00
 0.131541770228295D+03 0.000000000000000D+00 0.000000000000000D+00 0.131541770228295D+03
 0.146712839004749D+03 0.000000000000000D+00 0.000000000000000D+00 -.146712839004749D+03
 0.134534697233884D+03 0.435448999899159D+02 0.193759687041098D+02 -.142477465396607D+02
 0.844835441223540D+02 -.244923658197057D+02 -.955208817365864D+00 -.833455852292938D+01
 0.412784377496152D+02 -.286142255421754D+02 -.193694351422670D+02 0.225823050625901D+02
 0.179579301271906D+02 0.956169137196518D+01 0.948675255523127D+00 -.151710687764543D+02
-.261275450098D-03 0.000000000000D+00 0.000000000000D+00 0.237931504472D-04 0.000000000000D+00  6 2 -1 25 24 21 21 4 0.15100953D+00 0.30536904D-02 0.17162540D+05 0.17162540D+05 0.17162540D+05 0.12412092D+01  1  2 13  2  6  2       -1 -.671954443343D+00 0.100000000000D+01
0.197168304195D-03 0.000000000000D+00 0.000000000000D+00 0.239393989727D-04 0.839873604579D-06  6 2 -1 25 24 21 21 4 0.15273041D+00 0.29907463D-02 0.17162540D+05 0.17162540D+05 0.17162540D+05 0.12412092D+01  1  2  1  2  6  2       -1 0.514668969887D+00 0.100000000000D+01
  </mgrwgt>
  </event>
  <event>
  5     66 0.42622971E-03 0.20700603E+02 0.75467711E-02 0.11570357E+00
        2 -1    0    0  502    0 0.00000000E+00 0.00000000E+00 0.10397422E+03 0.10397471E+03 0.32000000E+00 0.0000E+00 0.9000E+01
       -1 -1    0    0    0  501 0.00000000E+00 0.00000000E+00 -.25097478E+03 0.25097498E+03 0.32000000E+00 0.0000E+00 0.9000E+01
       25  1    1    2    0    0 -.40479447E+02 0.57102912E+02 0.68347955E+01 0.14342609E+03 0.12500000E+03 0.0000E+00 0.9000E+01
       24  1    1    2    0    0 0.58797054E+02 -.47481073E+02 -.15558008E+03 0.19074570E+03 0.80419002E+02 0.0000E+00 0.9000E+01
       21  1    1    2  502  501 -.18317607E+02 -.96218394E+01 0.17447270E+01 0.20777899E+02 0.75000000E+00 0.0000E+00 0.9000E+01
#aMCatNLO 1  0  0  2  2 0.93506988D+02 0.00000000D+00  -5  6  0 0.00000000D+00 0.00000000D+00 0.00000000D+00 0.00000000D+00 0.00000000D+00
  <mgrwgt>
 0.5263463746D+00    7    4    0
 0.161539561010373D+03 0.000000000000000D+00 0.000000000000000D+00 0.161539561010373D+03
 0.161539561010373D+03 0.000000000000000D+00 0.000000000000000D+00 -.161539561010373D+03
 0.160682775846648D+03 -.404748512490990D+02 0.571053259569655D+02 0.727648446538315D+02
 0.138775805373061D+03 0.588010233191655D+02 -.474789877312215D+02 -.841409150366730D+02
 0.236205408010374D+02 -.183261720700665D+02 -.962633822574399D+01 0.113760703828415D+02
 0.000000000000000D+00 -.000000000000000D+00 -.000000000000000D+00 -.000000000000000D+00
 0.212471892684342D+03 0.000000000000000D+00 0.000000000000000D+00 0.212471892684342D+03
 0.217509318375802D+03 0.000000000000000D+00 0.000000000000000D+00 -.217509318375802D+03
 0.171171183259866D+03 -.802883068585018D+01 0.911887560991176D+02 0.727648446538315D+02
 0.146252550072745D+03 0.866688116282250D+02 -.182048333184621D+02 -.841409150366730D+02
 0.189148994412633D+02 -.141673976125180D+02 -.525768850413914D+01 0.113760703828415D+02
 0.936425782862684D+02 -.644725833298568D+02 -.677262342765164D+02 -.503742569146013D+01
 0.161539561010373D+03 0.000000000000000D+00 0.000000000000000D+00 0.161539561010373D+03
 0.161539561010373D+03 0.000000000000000D+00 0.000000000000000D+00 -.161539561010373D+03
 0.160682775846648D+03 -.404748512490990D+02 0.571053259569655D+02 0.727648446538315D+02
 0.138775805373061D+03 0.588010233191655D+02 -.474789877312215D+02 -.841409150366730D+02
 0.000000000000000D+00 -.000000000000000D+00 -.000000000000000D+00 -.000000000000000D+00
 0.236205408010374D+02 -.183261720700665D+02 -.962633822574399D+01 0.113760703828415D+02
 0.212471892684342D+03 0.000000000000000D+00 0.000000000000000D+00 0.212471892684342D+03
 0.217509318375802D+03 0.000000000000000D+00 0.000000000000000D+00 -.217509318375802D+03
 0.171171183259866D+03 -.802883068585018D+01 0.911887560991176D+02 0.727648446538315D+02
 0.146252550072745D+03 0.866688116282250D+02 -.182048333184621D+02 -.841409150366730D+02
 0.936425782862684D+02 -.644725833298568D+02 -.677262342765164D+02 -.503742569146013D+01
 0.189148994412633D+02 -.141673976125180D+02 -.525768850413914D+01 0.113760703828415D+02
0.571450243682D-03 0.000000000000D+00 0.000000000000D+00 0.345281608966D-04 0.000000000000D+00  6 2 -1 25 24 21 21 2 0.15996087D-01 0.38611558D-01 0.18813147D+05 0.18813147D+05 0.18813147D+05 0.12367618D+01  1  2  2  2  6  2       -1 0.229263424900D+00 0.100000000000D+01
0.122852017562D-03 0.301562578555D-04 -.219451940204D-05 0.345281608966D-04 0.000000000000D+00  6 2 -1 25 24 21 21 4 0.15996087D-01 0.38611558D-01 0.18813147D+05 0.18813147D+05 0.18813147D+05 0.12367618D+01  1  2  3  2  6  2       -1 0.753894811755D-01 0.100000000000D+01
0.109846591756D-04 0.000000000000D+00 0.000000000000D+00 0.345281608966D-04 0.000000000000D+00  6 2 -1 25 24 21 21 4 0.15996087D-01 0.38611558D-01 0.18813147D+05 0.18813147D+05 0.18813147D+05 0.12367618D+01  1  2 15  2  6  2       -1 0.674085597100D-02 0.100000000000D+01
-.173083232501D-04 0.000000000000D+00 0.000000000000D+00 0.345281608966D-04 0.000000000000D+00  6 2 -1 25 24 21 21 4 0.15996087D-01 0.38611558D-01 0.18813147D+05 0.18813147D+05 0.18813147D+05 0.12367618D+01  1  2  4  2  6  2       -1 -.106214414361D-01 0.100000000000D+01
-.372780755991D-03 0.000000000000D+00 -.342777942734D-03 0.345281608966D-04 0.000000000000D+00  6 2 -1 25 24 21 21 4 0.15996087D-01 0.66482396D-01 0.18813147D+05 0.18813147D+05 0.18813147D+05 0.12367618D+01  1  2  5  2  6  2       -1 -.843641140572D-01 0.100000000000D+01
0.524700252899D-03 0.000000000000D+00 0.297730566212D-03 0.345281608966D-04 0.000000000000D+00  6 2 -1 25 24 21 21 4 0.15996087D-01 0.38611558D-01 0.18813147D+05 0.18813147D+05 0.18813147D+05 0.12367618D+01  1  2  6  2  6  2       -1 0.321988035880D+00 0.100000000000D+01
-.557818154597D-05 0.000000000000D+00 -.206736625752D-04 0.345281608966D-04 0.000000000000D+00  6 2 21 25 24 1 21 4 0.15996087D-01 0.66482396D-01 0.18813147D+05 0.18813147D+05 0.18813147D+05 0.12367618D+01  3  4  5  5  5  2       -1 -.120498678408D-01 0.100000000000D+01
  </mgrwgt>
  </event>
  <event>
  6     66 0.42622971E-03 0.22675046E+02 0.75467711E-02 0.12121088E+00
        4 -1    0    0  503    0 0.00000000E+00 0.00000000E+00 0.34370656E+03 0.34371006E+03 0.15500000E+01 0.0000E+00 0.9000E+01
       -3 -1    0    0    0  501 0.00000000E+00 0.00000000E+00 -.63154410E+02 0.63156390E+02 0.50000000E+00 0.0000E+00 0.9000E+01
       25  1    1    2    0    0 0.66861914E+02 -.27335892E+02 0.17458469E+03 0.22654487E+03 0.12500000E+03 0.0000E+00 0.9000E+01
       24  1    1    2    0    0 -.47959042E+02 0.18948164E+02 0.82335755E+02 0.12611699E+03 0.80419002E+02 0.0000E+00 0.9000E+01
       21  1    1    2  502  501 -.19938220E+02 0.21175084E+02 0.21517084E+01 0.29173775E+02 0.75000000E+00 0.0000E+00 0.9000E+01
       21  1    1    2  503  502 0.10353491E+01 -.12787356E+02 0.21480000E+02 0.25030808E+02 0.75000000E+00 0.0000E+00 0.9000E+01
#aMCatNLO 2  0  0  1  1 0.12829202D+02 0.00000000D+00  -5  6  0 0.00000000D+00 0.00000000D+00 0.00000000D+00 0.00000000D+00 0.00000000D+00
  <mgrwgt>
 0.3871185833D-02    2    2    0
 0.140103075573513D+03 0.000000000000000D+00 0.000000000000000D+00 0.140103075573513D+03
 0.140103075573513D+03 0.000000000000000D+00 0.000000000000000D+00 -.140103075573513D+03
 0.148791217325099D+03 0.674105441414183D+02 -.340869697645000D+02 0.284204747306717D+02
 0.946903944358791D+02 -.476062104180482D+02 0.146062845039670D+02 -.440000303108019D+01
 0.367245393860487D+02 -.198043337233701D+02 0.194806852605330D+02 -.240204716995915D+02
 0.000000000000000D+00 0.000000000000000D+00 -.000000000000000D+00 0.000000000000000D+00
 0.150417621820284D+03 0.000000000000000D+00 0.000000000000000D+00 0.150417621820284D+03
 0.144296659011896D+03 0.000000000000000D+00 0.000000000000000D+00 -.144296659011896D+03
 0.147142431906919D+03 0.668640995891636D+02 -.273379602329066D+02 0.284204747306717D+02
 0.956320584122003D+02 -.479576428009505D+02 0.189467441025335D+02 -.440000303108019D+01
 0.377251987602581D+02 -.199418059369302D+02 0.211785725865536D+02 -.240204716995915D+02
 0.142145917528023D+02 0.103534914871701D+01 -.127873564561805D+02 0.612096280838773D+01
-.787531414370D-07 0.000000000000D+00 0.000000000000D+00 0.299532863066D-04 0.000000000000D+00  6 4 -3 25 24 21 21 4 0.49249007D-01 0.94334629D-02 0.18012253D+05 0.18012253D+05 0.18012253D+05 0.12388626D+01  1  2  8  1  6  1        4 -.117663940210D-04 0.100000000000D+01
0.317655942364D-04 0.000000000000D+00 0.000000000000D+00 0.299532863066D-04 0.494699434332D-06  6 4 -3 25 24 21 21 4 0.52874775D-01 0.97158265D-02 0.19855808D+05 0.19855808D+05 0.19855808D+05 0.12341721D+01  1  2  1  1  6  1        4 0.388295222742D-02 0.100000000000D+01
  </mgrwgt>
  </event>
  <event>
  6     66 0.42622971E-03 0.14900869E+02 0.75467711E-02 0.11945469E+00
        2 -1    0    0  503    0 0.00000000E+00 0.00000000E+00 0.11142299E+04 0.11142300E+04 0.32000000E+00 0.0000E+00 0.9000E+01
       -1 -1    0    0    0  501 0.00000000E+00 0.00000000E+00 -.23852259E+02 0.23854405E+02 0.32000000E+00 0.0000E+00 0.9000E+01
       25  1    1    2    0    0 -.66511912E+02 -.85908091E+02 0.51728260E+03 0.54314853E+03 0.12500000E+03 0.0000E+00 0.9000E+01
       24  1    1    2    0    0 0.41065885E+02 0.69210074E+02 0.32267030E+03 0.34214000E+03 0.80419002E+02 0.0000E+00 0.9000E+01
       21  1    1    2  502  501 0.87682326E+01 0.55004419E+01 0.37041846E+02 0.38468137E+02 0.75000000E+00 0.0000E+00 0.9000E+01
       21  1    1    2  503  502 0.16677795E+02 0.11197575E+02 0.21338294E+03 0.21432773E+03 0.75000000E+00 0.0000E+00 0.9000E+01
#aMCatNLO 2  0  0  1  5 0.62254576D+01 0.00000000D+00  -5  6  0 0.00000000D+00 0.00000000D+00 0.00000000D+00 0.00000000D+00 0.00000000D+00
  <mgrwgt>
 0.1834309981D+00    1    2    0
 0.144743788651267D+03 0.000000000000000D+00 0.000000000000000D+00 0.144743788651267D+03
 0.144743788651267D+03 0.000000000000000D+00 0.000000000000000D+00 -.144743788651267D+03
 0.158949634093169D+03 -.571831431707998D+02 -.796442244700726D+02 0.518380401063642D+01
 0.119286201572184D+03 0.477686632473554D+02 0.737107161786322D+02 -.684595231820769D+01
 0.112517416371818D+02 0.941447992344436D+01 0.593350829144042D+01 0.166214830757126D+01
 0.000000000000000D+00 0.000000000000000D+00 0.000000000000000D+00 0.000000000000000D+00
 0.179549285077883D+03 0.000000000000000D+00 0.000000000000000D+00 0.179549285077883D+03
 0.148019636794414D+03 0.000000000000000D+00 0.000000000000000D+00 -.148019636794414D+03
 0.165706962726833D+03 -.665238782672204D+02 -.859156521969044D+02 0.518380401063642D+01
 0.113969852879960D+03 0.410576244586327D+02 0.692048829330703D+02 -.684595231820769D+01
 0.105069053969736D+02 0.878845919879773D+01 0.551319407745264D+01 0.166214830757126D+01
 0.373852008685295D+02 0.166777946097900D+02 0.111975751863815D+02 0.315296482834695D+02
0.116611372017D-03 0.000000000000D+00 0.000000000000D+00 0.154683502673D-03 0.393629751952D-05  6 2 -1 25 24 21 21 4 0.17141588D+00 0.36696552D-02 0.24002172D+05 0.24002172D+05 0.24002172D+05 0.12251987D+01  1  2  1  1  6  1        2 0.183430998120D+00 0.100000000000D+01
  </mgrwgt>
  </event>
  <event>
  6     66 -.42622971E-03 0.14009186E+02 0.75467711E-02 0.12018284E+00
        4 -1    0    0  502    0 0.00000000E+00 0.00000000E+00 0.16355044E+04 0.16355052E+04 0.15500000E+01 0.0000E+00 0.9000E+01
       21 -1    0    0  503  501 0.00000000E+00 0.00000000E+00 -.21939983E+02 0.21952798E+02 0.75000000E+00 0.0000E+00 0.9000E+01
       25  1    1    2    0    0 -.72476349E+02 0.26331813E+02 0.85594047E+03 0.86844992E+03 0.12500000E+03 0.0000E+00 0.9000E+01
       24  1    1    2    0    0 0.88818127E+02 -.53519204E+02 0.64168094E+03 0.65496154E+03 0.80419002E+02 0.0000E+00 0.9000E+01
        3  1    1    2  503    0 -.71129909E+01 0.95153420E+01 -.39310346E+01 0.12523554E+02 0.50000000E+00 0.0000E+00 0.9000E+01
       21  1    1    2  502  501 -.92287872E+01 0.17672049E+02 0.11987406E+03 0.12152294E+03 0.75000000E+00 0.0000E+00 0.9000E+01
#aMCatNLO 2  0  0  2  5 0.11880083D+02 0.00000000D+00  -5  6  0 0.00000000D+00 0.00000000D+00 0.00000000D+00 0.00000000D+00 0.00000000D+00
  <mgrwgt>
 -.2687707367D-01    1    2    0
 0.149479462945198D+03 0.000000000000000D+00 0.000000000000000D+00 0.149479462945198D+03
 0.149479462945198D+03 0.000000000000000D+00 0.000000000000000D+00 -.149479462945198D+03
 0.149948831054275D+03 -.760076649807904D+02 0.310540715927446D+02 0.108688286500523D+02
 0.128154282723570D+03 0.857288524487775D+02 -.493880311557961D+02 -.129495352191484D+02
 0.000000000000000D+00 -.000000000000000D+00 0.000000000000000D+00 -.000000000000000D+00
 0.208558121125512D+02 -.972118746798716D+01 0.183339595630515D+02 0.208070656909612D+01
 0.149990754357261D+03 0.000000000000000D+00 0.000000000000000D+00 0.149990754357261D+03
 0.239306997928692D+03 0.000000000000000D+00 0.000000000000000D+00 -.239306997928692D+03
 0.147270366071117D+03 -.724732605902023D+02 0.263259527068101D+02 0.108688286500523D+02
 0.131867070274109D+03 0.888209158840136D+02 -.535244122568322D+02 -.129495352191484D+02
 0.901028730825253D+02 -.711299086807870D+01 0.951534197626056D+01 -.893162435714306D+02
 0.200574428582021D+02 -.923466442573267D+01 0.176831175737615D+02 0.208070656909612D+01
-.781018449102D-04 0.000000000000D+00 0.000000000000D+00 0.466366964061D-04 0.000000000000D+00  6 4 21 25 24 3 21 4 0.25075823D+00 0.34306836D-02 0.24013804D+05 0.24013804D+05 0.24013804D+05 0.12251761D+01  1  2 13  5  5  2       -3 -.268770736736D-01 0.100000000000D+01
  </mgrwgt>
  </event>
  <event>
  6     66 -.42622971E-03 0.39342693E+02 0.75467711E-02 0.11609944E+00
        2 -1    0    0  503    0 0.00000000E+00 0.00000000E+00 0.14643289E+04 0.14643290E+04 0.32000000E+00 0.0000E+00 0.9000E+01
       -1 -1    0    0    0  501 0.00000000E+00 0.00000000E+00 -.78548418E+02 0.78549070E+02 0.32000000E+00 0.0000E+00 0.9000E+01
       25  1    1    2    0    0 0.88288680E+02 -.30164978E+02 0.10673419E+04 0.10786791E+04 0.12500000E+03 0.0000E+00 0.9000E+01
       24  1    1    2    0    0 -.54509077E+02 -.33867710E+02 0.20957293E+02 0.10499850E+03 0.80419002E+02 0.0000E+00 0.9000E+01
       21  1    1    2  502  501 0.17015068E+02 0.62475443E+02 0.79492629E+01 0.65241450E+02 0.75000000E+00 0.0000E+00 0.9000E+01
       21  1    1    2  503  502 -.50794672E+02 0.15572448E+01 0.28953206E+03 0.29395901E+03 0.75000000E+00 0.0000E+00 0.9000E+01
#aMCatNLO 2  0  0  1  5 0.50818537D+02 0.00000000D+00  -5  6  0 0.00000000D+00 0.00000000D+00 0.00000000D+00 0.00000000D+00 0.00000000D+00
  <mgrwgt>
 -.9865317758D-01    2    2    0
 0.298100460011277D+03 0.000000000000000D+00 0.000000000000000D+00 0.298100460011277D+03
 0.298100460011277D+03 0.000000000000000D+00 0.000000000000000D+00 -.298100460011277D+03
 0.289465958398515D+03 0.633940680230421D+02 -.294023580251452D+02 0.251559604375627D+03
 0.185970882400859D+03 -.701031026517056D+02 -.333900128678843D+02 -.148622391266830D+03
 0.120764079223179D+03 0.670903462866349D+01 0.627923708930295D+02 -.102937213108797D+03
 0.000000000000000D+00 -.000000000000000D+00 0.000000000000000D+00 0.000000000000000D+00
 0.373617444874155D+03 0.000000000000000D+00 0.000000000000000D+00 0.373617444874155D+03
 0.307855042485031D+03 0.000000000000000D+00 0.000000000000000D+00 -.307855042485031D+03
 0.295993394077803D+03 0.882886927231699D+02 -.301655684731666D+02 0.251559604375627D+03
 0.180759857552916D+03 -.545091521946264D+02 -.338680865909523D+02 -.148622391266830D+03
 0.121609565374261D+03 0.170151317025838D+02 0.624764102766360D+02 -.102937213108797D+03
 0.831096703542065D+02 -.507946722311273D+02 0.155724478748300D+01 0.657624023891241D+02
-.136285079619D-02 0.000000000000D+00 0.000000000000D+00 0.152826359885D-05 0.000000000000D+00  6 2 -1 25 24 21 21 4 0.23288535D+00 0.11701459D-01 0.35050713D+05 0.35050713D+05 0.35050713D+05 0.12078694D+01  1  2 13  1  6  1        2 -.214051964598D+00 0.100000000000D+01
0.727302824964D-03 0.000000000000D+00 0.000000000000D+00 0.156611302012D-05 0.233086201359D-08  6 2 -1 25 24 21 21 4 0.22528022D+00 0.12084360D-01 0.35050713D+05 0.35050713D+05 0.35050713D+05 0.12078694D+01  1  2  1  1  6  1        2 0.115398787021D+00 0.100000000000D+01
  </mgrwgt>
  </event>
  <event>
  5     66 0.42622971E-03 0.47465566E+02 0.75467711E-02 0.12173234E+00
        2 -1    0    0  502    0 0.00000000E+00 0.00000000E+00 0.74656261E+03 0.74656268E+03 0.32000000E+00 0.0000E+00 0.9000E+01
       -1 -1    0    0    0  501 0.00000000E+00 0.00000000E+00 -.30585682E+02 0.30587356E+02 0.32000000E+00 0.0000E+00 0.9000E+01
       25  1    1    2    0    0 0.38710192E+02 0.46249205E+01 0.17464176E+03 0.21827646E+03 0.12500000E+03 0.0000E+00 0.9000E+01
       24  1    1    2    0    0 0.56561039E+01 0.12239989E+02 0.23189546E+03 0.24581402E+03 0.80419002E+02 0.0000E+00 0.9000E+01
       21  1    1    2  502  501 -.44366296E+02 -.16864909E+02 0.30943971E+03 0.31305956E+03 0.75000000E+00 0.0000E+00 0.9000E+01
#aMCatNLO 1  0  0  5  1 0.12089558D+02 0.00000000D+00  -5  6  0 0.00000000D+00 0.00000000D+00 0.00000000D+00 0.00000000D+00 0.00000000D+00
  <mgrwgt>
 0.2959138143D+00    4    2    0
 0.151111891858780D+03 0.000000000000000D+00 0.000000000000000D+00 0.151111891858780D+03
 0.151111891858780D+03 -.000000000000000D+00 -.000000000000000D+00 -.151111891858780D+03
 0.147554190078415D+03 0.387113688028120D+02 0.462536799749903D+01 -.680240759290228D+02
 0.827286111586534D+02 0.565676392073216D+01 0.122402394090216D+02 0.139636925998847D+02
 0.719409824804907D+02 -.443681327235442D+02 -.168656074065206D+02 0.540603833291382D+02
 0.000000000000000D+00 0.000000000000000D+00 0.000000000000000D+00 -.000000000000000D+00
 0.151111891858780D+03 0.000000000000000D+00 0.000000000000000D+00 0.151111891858780D+03
 0.151111891858780D+03 -.000000000000000D+00 -.000000000000000D+00 -.151111891858780D+03
 0.137144616079910D+03 0.245666165721187D+02 -.751460445379900D+00 -.507893923679275D+02
 0.844799537837791D+02 -.265069529862692D+01 0.908233446376702D+01 0.240859222796435D+02
 0.235535611152431D+02 0.156943775911015D+02 0.148427019205735D+02 -.938887389064448D+01
 0.570456527386277D+02 -.376102988645933D+02 -.231735759389606D+02 0.360923439789286D+02
0.249087878777D-03 0.000000000000D+00 0.000000000000D+00 0.118549131881D-04 0.000000000000D+00  6 2 -1 25 24 21 21 2 0.11485592D+00 0.47056236D-02 0.16892978D+05 0.16892978D+05 0.16892978D+05 0.12419810D+01  1  2  2  3  6  5       21 0.313499638050D+00 0.100000000000D+01
-.240434828462D-05 0.131447284941D-04 -.956563040848D-06 0.118549131881D-04 0.000000000000D+00  6 2 -1 25 24 21 21 4 0.11485592D+00 0.47056236D-02 0.16892978D+05 0.16892978D+05 0.16892978D+05 0.12419810D+01  1  2  3  3  6  5       21 -.466779425047D-02 0.100000000000D+01
0.101242470856D-04 0.000000000000D+00 0.000000000000D+00 0.118549131881D-04 0.000000000000D+00  6 2 -1 25 24 21 21 4 0.11485592D+00 0.47056236D-02 0.16892978D+05 0.16892978D+05 0.16892978D+05 0.12419810D+01  1  2 15  3  6  5       21 0.196551816718D-01 0.100000000000D+01
-.167782340525D-04 0.000000000000D+00 0.000000000000D+00 0.118549131881D-04 0.000000000000D+00  6 2 -1 25 24 21 21 4 0.11485592D+00 0.47056236D-02 0.16892978D+05 0.16892978D+05 0.16892978D+05 0.12419810D+01  1  2  4  3  6  5       21 -.325732111875D-01 0.100000000000D+01
  </mgrwgt>
  </event>
  <event>
  5     66 0.42622971E-03 0.31906166E+02 0.75467711E-02 0.12219827E+00
        2 -1    0    0  502    0 0.00000000E+00 0.00000000E+00 0.11998588E+04 0.11998589E+04 0.32000000E+00 0.0000E+00 0.9000E+01
       -1 -1    0    0    0  501 0.00000000E+00 0.00000000E+00 -.16520334E+02 0.16523433E+02 0.32000000E+00 0.0000E+00 0.9000E+01
       25  1    1    2    0    0 0.41472571E+02 0.42945067E+02 0.79318250E+03 0.80518801E+03 0.12500000E+03 0.0000E+00 0.9000E+01
       24  1    1    2    0    0 -.11651208E+01 -.21142620E+02 0.22829614E+03 0.24297060E+03 0.80419002E+02 0.0000E+00 0.9000E+01
       21  1    1    2  502  501 -.40307450E+02 -.21802447E+02 0.16185987E+03 0.16822372E+03 0.75000000E+00 0.0000E+00 0.9000E+01
#aMCatNLO 1  0  0  2  1 0.88409786D+02 0.00000000D+00  -5  6  0 0.00000000D+00 0.00000000D+00 0.00000000D+00 0.00000000D+00 0.00000000D+00
  <mgrwgt>
 0.6126326105D-02    1    2    0
 0.140797654611540D+03 0.000000000000000D+00 0.000000000000000D+00 0.140797654611540D+03
 0.140797654611540D+03 0.000000000000000D+00 0.000000000000000D+00 -.140797654611540D+03
 0.144936519383293D+03 0.414752721953077D+02 0.429465282220367D+02 0.426261910208090D+02
 0.901770132215237D+02 -.116344024260525D+01 -.211417112710518D+02 -.348762413473369D+02
 0.464817766182644D+02 -.403118319527025D+02 -.218048169509849D+02 -.774994967347208D+01
 0.000000000000000D+00 -.000000000000000D+00 0.000000000000000D+00 0.000000000000000D+00
 0.155941991232604D+03 0.000000000000000D+00 0.000000000000000D+00 0.155941991232604D+03
 0.152048961461962D+03 0.000000000000000D+00 0.000000000000000D+00 -.152048961461962D+03
 0.145834189519190D+03 0.512732491716142D+02 0.345929558026220D+02 0.426261910208090D+02
 0.916699376800609D+02 0.496417916194351D+01 -.263660052838149D+02 -.348762413473369D+02
 0.451976663337024D+02 -.372225487348897D+02 -.244386822015858D+02 -.774994967347208D+01
 0.252891591616123D+02 -.190148795986680D+02 0.162117316827786D+02 0.389302977064267D+01
0.244956157472D-05 0.000000000000D+00 0.000000000000D+00 0.106221028521D-04 0.000000000000D+00  6 2 -1 25 24 21 21 4 0.18459391D+00 0.25418315D-02 0.17891393D+05 0.17891393D+05 0.17891393D+05 0.12391887D+01  1  2 14  2  6  2       -1 0.612632610520D-02 0.100000000000D+01
  </mgrwgt>
  </event>
  <event>
  6     66 0.42622971E-03 0.15094667E+02 0.75467711E-02 0.12464062E+00
        2 -1    0    0  502    0 0.00000000E+00 0.00000000E+00 0.19148350E+04 0.19148350E+04 0.32000000E+00 0.0000E+00 0.9000E+01
       21 -1    0    0  503  501 0.00000000E+00 0.00000000E+00 -.17002108E+02 0.17018642E+02 0.75000000E+00 0.0000E+00 0.9000E+01
       25  1    1    2    0    0 0.10935058E+01 0.11281279E+02 0.67815471E+03 0.68967186E+03 0.12500000E+03 0.0000E+00 0.9000E+01
       24  1    1    2    0    0 -.65118172E+00 0.22086111E+01 0.26844871E+03 0.28024494E+03 0.80419002E+02 0.0000E+00 0.9000E+01
        1  1    1    2  503    0 0.90504880E+01 0.42101395E+01 -.49594098E+00 0.99992483E+01 0.32000000E+00 0.0000E+00 0.9000E+01
       21  1    1    2  502  501 -.94928121E+01 -.17700029E+02 0.95172542E+03 0.95193763E+03 0.75000000E+00 0.0000E+00 0.9000E+01
#aMCatNLO 2  0  0  2  1 0.88409786D+02 0.00000000D+00  -5  6  0 0.00000000D+00 0.00000000D+00 0.00000000D+00 0.00000000D+00 0.00000000D+00
  <mgrwgt>
 0.1371252843D+01    1    2    0
 0.149810228219928D+03 0.000000000000000D+00 0.000000000000000D+00 0.149810228219928D+03
 0.149810228219928D+03 0.000000000000000D+00 0.000000000000000D+00 -.149810228219928D+03
 0.127313565476180D+03 0.493432358837404D+01 0.130682425919193D+02 -.197133822704630D+02
 0.967546021856644D+02 0.226973974174679D+01 0.356758752242231D+01 -.536316855087570D+02
 0.000000000000000D+00 0.000000000000000D+00 0.000000000000000D+00 -.000000000000000D+00
 0.755522887780113D+02 -.720406333012083D+01 -.166358301143416D+02 0.733450677792200D+02
 0.150265844351653D+03 0.000000000000000D+00 0.000000000000000D+00 0.150265844351653D+03
 0.216762919230883D+03 0.000000000000000D+00 0.000000000000000D+00 -.216762919230883D+03
 0.127051519182208D+03 0.109364834761502D+01 0.112816230772594D+02 -.197133822704630D+02
 0.966895891531572D+02 -.651086900563230D+00 0.220886658119051D+01 -.536316855087570D+02
 0.672420818812636D+02 0.905048803252462D+01 0.421013949956082D+01 -.664970748792300D+02
 0.760455733659066D+02 -.949304947957641D+01 -.177006291580107D+02 0.733450677792200D+02
0.653794299162D-04 0.000000000000D+00 0.000000000000D+00 0.960082609536D-04 0.319021885378D-06  6 2 21 25 24 1 21 4 0.29459053D+00 0.26169762D-02 0.13927798D+05 0.13927798D+05 0.13927798D+05 0.12515112D+01  1  2  1  5  5  2       -1 0.137125284269D+01 0.100000000000D+01
  </mgrwgt>
  </event>
  <event>
  5     66 0.42622971E-03 0.27916919E+02 0.75467711E-02 0.11750366E+00
        2 -1    0    0  502    0 0.00000000E+00 0.00000000E+00 0.31821839E+03 0.31821855E+03 0.32000000E+00 0.0000E+00 0.9000E+01
       -1 -1    0    0    0  501 0.00000000E+00 0.00000000E+00 -.62330839E+02 0.62331661E+02 0.32000000E+00 0.0000E+00 0.9000E+01
       25  1    1    2    0    0 0.37935775E+02 -.70612862E+02 0.10946460E+03 0.18447980E+03 0.12500000E+03 0.0000E+00 0.9000E+01
       24  1    1    2    0    0 -.44396301E+02 0.43461879E+02 0.10506168E+03 0.14616819E+03 0.80419002E+02 0.0000E+00 0.9000E+01
       21  1    1    2  502  501 0.64605260E+01 0.27150984E+02 0.41361278E+02 0.49902225E+02 0.75000000E+00 0.0000E+00 0.9000E+01
#aMCatNLO 1  0  0  2  5 0.61053820D+02 0.00000000D+00  -5  6  0 0.00000000D+00 0.00000000D+00 0.00000000D+00 0.00000000D+00 0.00000000D+00
  <mgrwgt>
 0.2789840107D+00    4    2    0
 0.140836807605461D+03 0.000000000000000D+00 0.000000000000000D+00 0.140836807605461D+03
 0.140836807605461D+03 0.000000000000000D+00 0.000000000000000D+00 -.140836807605461D+03
 0.149796757423830D+03 0.379346900828613D+02 -.706174239858952D+02 -.197029757297592D+02
 0.102033149665152D+03 -.443970408212767D+02 0.434587717401190D+02 0.915344751309398D+01
 0.298437081219394D+02 0.646235073841544D+01 0.271586522457761D+02 0.105495282166652D+02
 0.000000000000000D+00 -.000000000000000D+00 0.000000000000000D+00 0.000000000000000D+00
 0.199343649147655D+03 0.000000000000000D+00 0.000000000000000D+00 0.199343649147655D+03
 0.160978226661182D+03 0.000000000000000D+00 0.000000000000000D+00 -.160978226661182D+03
 0.170636175583666D+03 0.553970304015879D+02 -.100173180981228D+03 -.197029757297592D+02
 0.913973044733859D+02 -.338558383722327D+02 0.256173362660636D+02 0.915344751309398D+01
 0.261810136974370D+02 0.951547873462252D+01 0.219911026799957D+02 0.105495282166652D+02
 0.721073820543475D+02 -.310566707639777D+02 0.525647420351692D+02 0.383654224864740D+02
0.204797258302D-03 0.000000000000D+00 0.000000000000D+00 0.282629499202D-04 0.000000000000D+00  6 2 -1 25 24 21 21 2 0.48956751D-01 0.95894355D-02 0.19325724D+05 0.19325724D+05 0.19325724D+05 0.12354691D+01  1  2  2  2  6  2       -1 0.226727331705D+00 0.100000000000D+01
0.300638781251D-04 0.108074482385D-04 -.786475396235D-06 0.282629499202D-04 0.000000000000D+00  6 2 -1 25 24 21 21 4 0.48956751D-01 0.95894355D-02 0.19325724D+05 0.19325724D+05 0.19325724D+05 0.12354691D+01  1  2  3  2  6  2       -1 0.508029052769D-01 0.100000000000D+01
0.820893632781D-05 0.000000000000D+00 0.000000000000D+00 0.282629499202D-04 0.000000000000D+00  6 2 -1 25 24 21 21 4 0.48956751D-01 0.95894355D-02 0.19325724D+05 0.19325724D+05 0.19325724D+05 0.12354691D+01  1  2 15  2  6  2       -1 0.138717238325D-01 0.100000000000D+01
-.734862972917D-05 0.000000000000D+00 0.000000000000D+00 0.282629499202D-04 0.000000000000D+00  6 2 -1 25 24 21 21 4 0.48956751D-01 0.95894355D-02 0.19325724D+05 0.19325724D+05 0.19325724D+05 0.12354691D+01  1  2  4  2  6  2       -1 -.124179501557D-01 0.100000000000D+01
  </mgrwgt>
  </event>
  <event>
  5     66 -.42622971E-03 0.35303389E+02 0.75467711E-02 0.11583927E+00
        2 -1    0    0  502    0 0.00000000E+00 0.00000000E+00 0.20090555E+04 0.20090555E+04 0.32000000E+00 0.0000E+00 0.9000E+01
       -1 -1    0    0    0  501 0.00000000E+00 0.00000000E+00 -.20880252E+02 0.20882704E+02 0.32000000E+00 0.0000E+00 0.9000E+01
       25  1    1    2    0    0 0.94085341E+02 0.89483543E+02 0.11370289E+04 0.11512250E+04 0.12500000E+03 0.0000E+00 0.9000E+01
       24  1    1    2    0    0 -.63383699E+02 -.10690523E+03 0.40558915E+03 0.43175919E+03 0.80419002E+02 0.0000E+00 0.9000E+01
       21  1    1    2  502  501 -.30701642E+02 0.17421690E+02 0.44555724E+03 0.44695405E+03 0.75000000E+00 0.0000E+00 0.9000E+01
#aMCatNLO 1  0  0  1  5 0.17135883D+02 0.00000000D+00  -5  6  0 0.00000000D+00 0.00000000D+00 0.00000000D+00 0.00000000D+00 0.00000000D+00
  <mgrwgt>
 -.1678942744D+00    9    4    0
 0.204822116718267D+03 0.000000000000000D+00 0.000000000000000D+00 0.204822116718267D+03
 0.204822116718267D+03 0.000000000000000D+00 0.000000000000000D+00 -.204822116718267D+03
 0.186266354157763D+03 0.940867741565196D+02 0.894827301082247D+02 0.470178118634205D+02
 0.171032566625716D+03 -.633823826514220D+02 -.106905979848236D+03 -.856662590190955D+02
 0.523453126530553D+02 -.307043915050976D+02 0.174232497400112D+02 0.386484471556750D+02
 0.000000000000000D+00 -.000000000000000D+00 -.000000000000000D+00 0.000000000000000D+00
 0.279187636381998D+03 0.000000000000000D+00 0.000000000000000D+00 0.279187636381998D+03
 0.205990771130010D+03 0.000000000000000D+00 0.000000000000000D+00 -.205990771130010D+03
 0.190991153093023D+03 0.101836945605892D+03 0.909460413489293D+02 0.470178118634205D+02
 0.167747117558220D+03 -.564226785089557D+02 -.105591916879413D+03 -.856662590190955D+02
 0.512642128281255D+02 -.285758942032970D+02 0.178251316916403D+02 0.386484471556750D+02
 0.751759240326398D+02 -.168383728936395D+02 -.317925616115655D+01 0.731968652519883D+02
 0.204822116718267D+03 0.000000000000000D+00 0.000000000000000D+00 0.204822116718267D+03
 0.204822116718267D+03 0.000000000000000D+00 0.000000000000000D+00 -.204822116718267D+03
 0.186266354157763D+03 0.940867741565196D+02 0.894827301082247D+02 0.470178118634205D+02
 0.171032566625716D+03 -.633823826514220D+02 -.106905979848236D+03 -.856662590190955D+02
 0.000000000000000D+00 -.000000000000000D+00 -.000000000000000D+00 0.000000000000000D+00
 0.523453126530553D+02 -.307043915050976D+02 0.174232497400112D+02 0.386484471556750D+02
 0.279187636381998D+03 0.000000000000000D+00 0.000000000000000D+00 0.279187636381998D+03
 0.205990771130010D+03 0.000000000000000D+00 0.000000000000000D+00 -.205990771130010D+03
 0.190991153093023D+03 0.101836945605892D+03 0.909460413489293D+02 0.470178118634205D+02
 0.167747117558220D+03 -.564226785089557D+02 -.105591916879413D+03 -.856662590190955D+02
 0.751759240326398D+02 -.168383728936395D+02 -.317925616115655D+01 0.731968652519883D+02
 0.512642128281255D+02 -.285758942032970D+02 0.178251316916403D+02 0.386484471556750D+02
0.822755882444D-04 0.000000000000D+00 0.000000000000D+00 0.126189210533D-04 0.000000000000D+00  6 2 -1 25 24 21 21 2 0.30908565D+00 0.32125370D-02 0.33045743D+05 0.33045743D+05 0.33045743D+05 0.12105155D+01  1  2  2  1  6  1        2 0.344442014334D-01 0.100000000000D+01
0.948193919087D-05 0.434180207593D-05 -.315959922518D-06 0.126189210533D-04 0.000000000000D+00  6 2 -1 25 24 21 21 4 0.30908565D+00 0.32125370D-02 0.33045743D+05 0.33045743D+05 0.33045743D+05 0.12105155D+01  1  2  3  1  6  1        2 0.581678483259D-02 0.100000000000D+01
0.176923785636D-05 0.000000000000D+00 0.000000000000D+00 0.126189210533D-04 0.000000000000D+00  6 2 -1 25 24 21 21 4 0.30908565D+00 0.32125370D-02 0.33045743D+05 0.33045743D+05 0.33045743D+05 0.12105155D+01  1  2 15  1  6  1        2 0.108535561354D-02 0.100000000000D+01
0.128755450174D-02 0.000000000000D+00 0.000000000000D+00 0.125356593822D-04 0.000000000000D+00  6 2 -1 25 24 21 21 4 0.44944513D+00 0.32125370D-02 0.36128930D+05 0.36128930D+05 0.36128930D+05 0.12065153D+01  1  2 12  1  6  1        2 0.249634803778D+00 0.100000000000D+01
-.171502534044D-02 0.000000000000D+00 0.000000000000D+00 0.126189210533D-04 0.000000000000D+00  6 2 -1 25 24 21 21 4 0.30908565D+00 0.32125370D-02 0.33045743D+05 0.33045743D+05 0.33045743D+05 0.12105155D+01  1  2  4  1  6  1        2 -.105209843545D+01 0.100000000000D+01
-.173198735515D-02 0.000000000000D+00 -.586989289725D-04 0.126189210533D-04 0.000000000000D+00  6 2 -1 25 24 21 21 4 0.42190452D+00 0.32125370D-02 0.33045743D+05 0.33045743D+05 0.33045743D+05 0.12105155D+01  1  2  5  1  6  1        2 -.430897560824D+00 0.100000000000D+01
0.167141459314D-02 0.000000000000D+00 0.559675813762D-04 0.126189210533D-04 0.000000000000D+00  6 2 -1 25 24 21 21 4 0.30908565D+00 0.32125370D-02 0.33045743D+05 0.33045743D+05 0.33045743D+05 0.12105155D+01  1  2  6  1  6  1        2 0.102534501209D+01 0.100000000000D+01
0.583992746177D-04 0.000000000000D+00 0.000000000000D+00 0.125356593822D-04 0.000000000000D+00  6 21 -1 25 24 -2 21 4 0.44944513D+00 0.32125370D-02 0.36128930D+05 0.36128930D+05 0.36128930D+05 0.12065153D+01  3  4 12  4  5  1        2 0.156103676404D-02 0.100000000000D+01
-.673466487511D-04 0.000000000000D+00 -.232963849317D-05 0.126189210533D-04 0.000000000000D+00  6 21 -1 25 24 -2 21 4 0.42190452D+00 0.32125370D-02 0.33045743D+05 0.33045743D+05 0.33045743D+05 0.12105155D+01  3  4  5  4  5  1        2 -.278547266026D-02 0.100000000000D+01
  </mgrwgt>
  </event>
  <event>
  5     66 0.42622971E-03 0.25366087E+02 0.75467711E-02 0.11840265E+00
        2 -1    0    0  502    0 0.00000000E+00 0.00000000E+00 0.63277122E+03 0.63277130E+03 0.32000000E+00 0.0000E+00 0.9000E+01
       -1 -1    0    0    0  501 0.00000000E+00 0.00000000E+00 -.43864987E+02 0.43866154E+02 0.32000000E+00 0.0000E+00 0.9000E+01
       25  1    1    2    0    0 0.37341764E+02 0.11403596E+03 0.35490627E+03 0.39494565E+03 0.12500000E+03 0.0000E+00 0.9000E+01
       24  1    1    2    0    0 -.46979759E+02 -.90582959E+02 0.17957723E+03 0.22164739E+03 0.80419002E+02 0.0000E+00 0.9000E+01
       21  1    1    2  502  501 0.96379951E+01 -.23453006E+02 0.54422733E+02 0.60044407E+02 0.75000000E+00 0.0000E+00 0.9000E+01
#aMCatNLO 1  0  0  5  1 0.26644073D+00 0.00000000D+00  -5  6  0 0.00000000D+00 0.00000000D+00 0.00000000D+00 0.00000000D+00 0.00000000D+00
  <mgrwgt>
 0.1556451028D+00   14    2    0
 0.166604092225990D+03 0.000000000000000D+00 0.000000000000000D+00 0.166604092225990D+03
 0.166604092225990D+03 -.000000000000000D+00 -.000000000000000D+00 -.166604092225990D+03
 0.174753953679551D+03 0.373396176259208D+02 0.114041187166397D+03 0.226782916434095D+02
 0.132710184989333D+03 -.469813889291721D+02 -.905789922370484D+02 -.270734649636723D+02
 0.257440457830950D+02 0.964177130325127D+01 -.234621949293484D+02 0.439517332026279D+01
 0.000000000000000D+00 0.000000000000000D+00 0.000000000000000D+00 0.000000000000000D+00
 0.166604092225990D+03 0.000000000000000D+00 0.000000000000000D+00 0.166604092225990D+03
 0.166604092225990D+03 -.000000000000000D+00 -.000000000000000D+00 -.166604092225990D+03
 0.174693588820293D+03 0.373855416832594D+02 0.113929436000419D+03 0.226992259909712D+02
 0.132752558603506D+03 -.469465020727048D+02 -.906638855830076D+02 -.270575618919285D+02
 0.268938769931505D+00 -.100228683876820D+00 -.122090449372464D+00 -.217660733878818D+00
 0.254930982582492D+02 0.966118907332221D+01 -.231434599680393D+02 0.457599663483610D+01
0.230632594868D-03 0.000000000000D+00 0.000000000000D+00 0.288554914937D-04 0.000000000000D+00  6 2 -1 25 24 21 21 2 0.97349514D-01 0.67485556D-02 0.26988176D+05 0.26988176D+05 0.26988176D+05 0.12197506D+01  1  2  2  3  6  5       21 0.201495089141D+00 0.100000000000D+01
0.545458157579D-04 0.121708164055D-04 -.885689891251D-06 0.288554914937D-04 0.000000000000D+00  6 2 -1 25 24 21 21 4 0.97349514D-01 0.67485556D-02 0.26988176D+05 0.26988176D+05 0.26988176D+05 0.12197506D+01  1  2  3  3  6  5       21 0.709001693155D-01 0.100000000000D+01
-.610346485631D-06 0.000000000000D+00 0.000000000000D+00 0.288554914937D-04 0.000000000000D+00  6 2 -1 25 24 21 21 4 0.97349514D-01 0.67485556D-02 0.26988176D+05 0.26988176D+05 0.26988176D+05 0.12197506D+01  1  2 15  3  6  5       21 -.793345347779D-03 0.100000000000D+01
-.287824309908D-03 0.000000000000D+00 0.000000000000D+00 0.288554914937D-04 0.000000000000D+00  6 2 -1 25 24 21 21 4 0.97349514D-01 0.67485556D-02 0.26988176D+05 0.26988176D+05 0.26988176D+05 0.12197506D+01  1  2  4  3  6  5       21 -.374122048081D+00 0.100000000000D+01
0.196262902050D-03 0.000000000000D+00 -.000000000000D+00 0.288554914937D-04 0.000000000000D+00  6 2 -1 25 24 21 21 4 0.97349514D-01 0.67485556D-02 0.26988176D+05 0.26988176D+05 0.26988176D+05 0.12197506D+01  1  2  6  3  6  5       21 0.255107982021D+00 0.100000000000D+01
0.352664362520D-08 0.000000000000D+00 0.000000000000D+00 0.288554914937D-04 0.628999107481D-02  6 2 -1 25 24 21 21 4 0.97349514D-01 0.67485556D-02 0.26964178D+05 0.26964178D+05 0.26964178D+05 0.12197916D+01  1  2 11  3  6  5       21 0.458455466738D-05 0.100000000000D+01
-.727659743174D-05 0.000000000000D+00 0.000000000000D+00 0.288554914937D-04 0.000000000000D+00  6 2 -1 25 24 1 -1 4 0.97349514D-01 0.67485556D-02 0.26988176D+05 0.26988176D+05 0.26988176D+05 0.12197506D+01  1  2  5  6  6  5       21 -.945832384725D-02 0.100000000000D+01
0.784653942311D-05 0.000000000000D+00 0.000000000000D+00 0.288554914937D-04 0.350159561003D-05  6 2 -1 25 24 1 -1 4 0.97349514D-01 0.67485556D-02 0.26964178D+05 0.26964178D+05 0.26964178D+05 0.12197916D+01  1  2 11  6  6  5       21 0.102003187047D-01 0.100000000000D+01
-.727659743174D-05 0.000000000000D+00 0.000000000000D+00 0.288554914937D-04 0.000000000000D+00  6 2 -1 25 24 2 -2 4 0.97349514D-01 0.67485556D-02 0.26988176D+05 0.26988176D+05 0.26988176D+05 0.12197506D+01  1  2  5  7  6  5       21 -.945832384725D-02 0.100000000000D+01
0.791105885619D-05 0.000000000000D+00 0.000000000000D+00 0.288554914937D-04 0.360122971922D-05  6 2 -1 25 24 2 -2 4 0.97349514D-01 0.67485556D-02 0.26964178D+05 0.26964178D+05 0.26964178D+05 0.12197916D+01  1  2 11  7  6  5       21 0.102841924667D-01 0.100000000000D+01
-.727659743174D-05 0.000000000000D+00 0.000000000000D+00 0.288554914937D-04 0.000000000000D+00  6 2 -1 25 24 3 -3 4 0.97349514D-01 0.67485556D-02 0.26988176D+05 0.26988176D+05 0.26988176D+05 0.12197506D+01  1  2  5  8  6  5       21 -.945832384725D-02 0.100000000000D+01
-.727659743174D-05 0.000000000000D+00 0.000000000000D+00 0.288554914937D-04 0.000000000000D+00  6 2 -1 25 24 4 -4 4 0.97349514D-01 0.67485556D-02 0.26988176D+05 0.26988176D+05 0.26988176D+05 0.12197506D+01  1  2  5  8  6  5       21 -.945832384725D-02 0.100000000000D+01
0.784685406138D-05 0.000000000000D+00 0.000000000000D+00 0.288554914937D-04 0.350159106929D-05  6 2 -1 25 24 3 -3 4 0.97349514D-01 0.67485556D-02 0.26964178D+05 0.26964178D+05 0.26964178D+05 0.12197916D+01  1  2 11  8  6  5       21 0.102007277271D-01 0.100000000000D+01
0.784685406138D-05 0.000000000000D+00 0.000000000000D+00 0.288554914937D-04 0.350159106929D-05  6 2 -1 25 24 4 -4 4 0.97349514D-01 0.67485556D-02 0.26964178D+05 0.26964178D+05 0.26964178D+05 0.12197916D+01  1  2 11  8  6  5       21 0.102007277271D-01 0.100000000000D+01
  </mgrwgt>
  </event>
  <event>
  6     66 0.42622971E-03 0.52924124E+02 0.75467711E-02 0.11941913E+00
        2 -1    0    0  503    0 0.00000000E+00 0.00000000E+00 0.16725571E+03 0.16725602E+03 0.32000000E+00 0.0000E+00 0.9000E+01
       -1 -1    0    0    0  501 0.00000000E+00 0.00000000E+00 -.21773409E+03 0.21773432E+03 0.32000000E+00 0.0000E+00 0.9000E+01
       25  1    1    2    0    0 -.84765297E+02 0.36652145E+02 -.10641765E+03 0.18835671E+03 0.12500000E+03 0.0000E+00 0.9000E+01
       24  1    1    2    0    0 0.28655387E+02 -.46032243E+02 -.21884253E+02 0.99429548E+02 0.80419002E+02 0.0000E+00 0.9000E+01
       21  1    1    2  502  501 0.39570597E+02 0.11897042E+02 0.51939329E+02 0.66374906E+02 0.75000000E+00 0.0000E+00 0.9000E+01
       21  1    1    2  503  502 0.16539313E+02 -.25169437E+01 0.25884195E+02 0.30829174E+02 0.75000000E+00 0.0000E+00 0.9000E+01
#aMCatNLO 2  0  0  1  2 0.16729731D+02 0.00000000D+00  -5  6  0 0.00000000D+00 0.00000000D+00 0.00000000D+00 0.00000000D+00 0.00000000D+00
  <mgrwgt>
 0.8307072519D-01    1    2    0
 0.172712916348906D+03 0.000000000000000D+00 0.000000000000000D+00 0.172712916348906D+03
 0.172712916348906D+03 0.000000000000000D+00 0.000000000000000D+00 -.172712916348906D+03
 0.165269676604320D+03 -.767588440822692D+02 0.354333632617901D+02 -.673915619941288D+02
 0.988134268599946D+02 0.333397985801984D+02 -.467453323715570D+02 -.457280602505445D+00
 0.813427292334973D+02 0.434190455020708D+02 0.113119691097670D+02 0.678488425966342D+02
 0.000000000000000D+00 0.000000000000000D+00 -.000000000000000D+00 0.000000000000000D+00
 0.208212077504891D+03 0.000000000000000D+00 0.000000000000000D+00 0.208212077504891D+03
 0.174897727049865D+03 0.000000000000000D+00 0.000000000000000D+00 -.174897727049865D+03
 0.169396868301625D+03 -.847662253664042D+02 0.366519221804458D+02 -.673915619941288D+02
 0.969923006828131D+02 0.286548632560137D+02 -.460323814678800D+02 -.457280602505445D+00
 0.794415551896381D+02 0.395720488737263D+02 0.118974029595070D+02 0.678488425966342D+02
 0.372790803806795D+02 0.165393132366642D+02 -.251694367207275D+01 0.333143504550258D+02
0.187583049535D-03 0.000000000000D+00 0.000000000000D+00 0.120710872074D-04 0.140959706394D-05  6 2 -1 25 24 21 21 4 0.25731140D-01 0.33496879D-01 0.24095939D+05 0.24095939D+05 0.24095939D+05 0.12250164D+01  1  2  1  1  6  1        2 0.830707251897D-01 0.100000000000D+01
  </mgrwgt>
  </event>
  <event>
  5     66 0.42622971E-03 0.61468050E+02 0.75467711E-02 0.11786527E+00
        2 -1    0    0  502    0 0.00000000E+00 0.00000000E+00 0.38853891E+04 0.38853891E+04 0.32000000E+00 0.0000E+00 0.9000E+01
       -1 -1    0    0    0  501 0.00000000E+00 0.00000000E+00 -.18273490E+02 0.18276292E+02 0.32000000E+00 0.0000E+00 0.9000E+01
       25  1    1    2    0    0 -.21338283E+01 -.12050517E+03 0.52480605E+03 0.55278607E+03 0.12500000E+03 0.0000E+00 0.9000E+01
       24  1    1    2    0    0 -.10726019E+02 0.59964229E+02 0.64351713E+03 0.65137721E+03 0.80419002E+02 0.0000E+00 0.9000E+01
       21  1    1    2  502  501 0.12859847E+02 0.60540941E+02 0.26987924E+04 0.26995021E+04 0.75000000E+00 0.0000E+00 0.9000E+01
#aMCatNLO 1  0  0  5  2 0.39079954D+01 0.00000000D+00  -5  6  0 0.00000000D+00 0.00000000D+00 0.00000000D+00 0.00000000D+00 0.00000000D+00
  <mgrwgt>
 0.5745089306D-01   20    2    0
 0.266467845254455D+03 0.000000000000000D+00 0.000000000000000D+00 0.266467845254455D+03
 0.266467845254455D+03 -.000000000000000D+00 -.000000000000000D+00 -.266467845254455D+03
 0.240941792262919D+03 -.213387347973024D+01 -.120505382929447D+03 -.167038458230036D+03
 0.101707448820061D+03 -.107260381327937D+02 0.599641392020656D+02 -.129012908983521D+02
 0.190286449425931D+03 0.128599116125240D+02 0.605412437273812D+02 0.179939749128388D+03
 0.000000000000000D+00 0.000000000000000D+00 0.000000000000000D+00 0.000000000000000D+00
 0.266467845254455D+03 0.000000000000000D+00 0.000000000000000D+00 0.266467845254455D+03
 0.266467845254455D+03 -.000000000000000D+00 -.000000000000000D+00 -.266467845254455D+03
 0.240419092956609D+03 -.209052210535800D+01 -.120301295514162D+03 -.166431872767869D+03
 0.101724210260541D+03 -.107077170720620D+02 0.600503901683647D+02 -.126449371090604D+02
 0.184558755275039D+03 0.161486524975948D+02 0.573985372517987D+02 0.174661281034285D+03
 0.623363201672122D+01 -.335041332017472D+01 0.285236809399884D+01 0.441552884264446D+01
0.822362871560D-03 0.000000000000D+00 0.000000000000D+00 0.783165132145D-05 0.000000000000D+00  6 2 -1 25 24 21 21 2 0.59775239D+00 0.28115227D-02 0.28294370D+05 0.28294370D+05 0.28294370D+05 0.12175755D+01  1  2  2  3  6  5       21 0.328600701428D-01 0.100000000000D+01
0.208014669180D-04 0.433972810052D-04 -.315808995991D-05 0.783165132145D-05 0.000000000000D+00  6 2 -1 25 24 21 21 4 0.59775239D+00 0.28115227D-02 0.28294370D+05 0.28294370D+05 0.28294370D+05 0.12175755D+01  1  2  3  3  6  5       21 0.123222716994D-02 0.100000000000D+01
0.229182759824D-04 0.000000000000D+00 0.000000000000D+00 0.783165132145D-05 0.000000000000D+00  6 2 -1 25 24 21 21 4 0.59775239D+00 0.28115227D-02 0.28294370D+05 0.28294370D+05 0.28294370D+05 0.12175755D+01  1  2 15  3  6  5       21 0.135762167472D-02 0.100000000000D+01
0.145648316912D-03 0.000000000000D+00 0.000000000000D+00 0.782451166717D-05 0.000000000000D+00  6 2 -1 25 24 21 21 4 0.59775239D+00 0.28115227D-02 0.28638950D+05 0.28638950D+05 0.28638950D+05 0.12170204D+01  1  2 12  3  6  5       21 0.860737847238D-02 0.100000000000D+01
-.142867939740D-01 0.000000000000D+00 0.000000000000D+00 0.783165132145D-05 0.000000000000D+00  6 2 -1 25 24 21 21 4 0.59775239D+00 0.28115227D-02 0.28294370D+05 0.28294370D+05 0.28294370D+05 0.12175755D+01  1  2  4  3  6  5       21 -.846314145799D+00 0.100000000000D+01
-.353318572996D-01 0.000000000000D+00 0.000000000000D+00 0.783165132145D-05 0.000000000000D+00  6 2 -1 25 24 21 21 4 0.59775239D+00 0.28115227D-02 0.28294370D+05 0.28294370D+05 0.28294370D+05 0.12175755D+01  1  2  5  3  6  5       21 -.209297136114D+01 0.100000000000D+01
0.364902799755D-01 0.000000000000D+00 -.000000000000D+00 0.783165132145D-05 0.000000000000D+00  6 2 -1 25 24 21 21 4 0.59775239D+00 0.28115227D-02 0.28294370D+05 0.28294370D+05 0.28294370D+05 0.12175755D+01  1  2  6  3  6  5       21 0.216159343963D+01 0.100000000000D+01
0.134282646531D-01 0.000000000000D+00 0.000000000000D+00 0.783165132145D-05 0.234433574975D-05  6 2 -1 25 24 21 21 4 0.59775239D+00 0.28115227D-02 0.28638950D+05 0.28638950D+05 0.28638950D+05 0.12170204D+01  1  2 11  3  6  5       21 0.793570145861D+00 0.100000000000D+01
0.420073618518D-05 0.000000000000D+00 0.000000000000D+00 0.782451166717D-05 0.000000000000D+00  6 2 -1 25 24 1 -1 4 0.59775239D+00 0.28115227D-02 0.28638950D+05 0.28638950D+05 0.28638950D+05 0.12170204D+01  1  2 12  6  6  5       21 0.248250903100D-03 0.100000000000D+01
-.968733521044D-04 0.000000000000D+00 0.000000000000D+00 0.783165132145D-05 0.000000000000D+00  6 2 -1 25 24 1 -1 4 0.59775239D+00 0.28115227D-02 0.28294370D+05 0.28294370D+05 0.28294370D+05 0.12175755D+01  1  2  5  6  6  5       21 -.573853646845D-02 0.100000000000D+01
0.796107382030D-04 0.000000000000D+00 0.000000000000D+00 0.783165132145D-05 0.193560647466D-07  6 2 -1 25 24 1 -1 4 0.59775239D+00 0.28115227D-02 0.28638950D+05 0.28638950D+05 0.28638950D+05 0.12170204D+01  1  2 11  6  6  5       21 0.470475573427D-02 0.100000000000D+01
0.420073618518D-05 0.000000000000D+00 0.000000000000D+00 0.782451166717D-05 0.000000000000D+00  6 2 -1 25 24 2 -2 4 0.59775239D+00 0.28115227D-02 0.28638950D+05 0.28638950D+05 0.28638950D+05 0.12170204D+01  1  2 12  7  6  5       21 0.248250903100D-03 0.100000000000D+01
-.968733521044D-04 0.000000000000D+00 0.000000000000D+00 0.783165132145D-05 0.000000000000D+00  6 2 -1 25 24 2 -2 4 0.59775239D+00 0.28115227D-02 0.28294370D+05 0.28294370D+05 0.28294370D+05 0.12175755D+01  1  2  5  7  6  5       21 -.573853646845D-02 0.100000000000D+01
0.863557996343D-04 0.000000000000D+00 0.000000000000D+00 0.783165132145D-05 0.210653583672D-07  6 2 -1 25 24 2 -2 4 0.59775239D+00 0.28115227D-02 0.28638950D+05 0.28638950D+05 0.28638950D+05 0.12170204D+01  1  2 11  7  6  5       21 0.510336862448D-02 0.100000000000D+01
0.420073618518D-05 0.000000000000D+00 0.000000000000D+00 0.782451166717D-05 0.000000000000D+00  6 2 -1 25 24 3 -3 4 0.59775239D+00 0.28115227D-02 0.28638950D+05 0.28638950D+05 0.28638950D+05 0.12170204D+01  1  2 12  8  6  5       21 0.248250903100D-03 0.100000000000D+01
0.420073618518D-05 0.000000000000D+00 0.000000000000D+00 0.782451166717D-05 0.000000000000D+00  6 2 -1 25 24 4 -4 4 0.59775239D+00 0.28115227D-02 0.28638950D+05 0.28638950D+05 0.28638950D+05 0.12170204D+01  1  2 12  8  6  5       21 0.248250903100D-03 0.100000000000D+01
-.968733521044D-04 0.000000000000D+00 0.000000000000D+00 0.783165132145D-05 0.000000000000D+00  6 2 -1 25 24 3 -3 4 0.59775239D+00 0.28115227D-02 0.28294370D+05 0.28294370D+05 0.28294370D+05 0.12175755D+01  1  2  5  8  6  5       21 -.573853646845D-02 0.100000000000D+01
-.968733521044D-04 0.000000000000D+00 0.000000000000D+00 0.783165132145D-05 0.000000000000D+00  6 2 -1 25 24 4 -4 4 0.59775239D+00 0.28115227D-02 0.28294370D+05 0.28294370D+05 0.28294370D+05 0.12175755D+01  1  2  5  8  6  5       21 -.573853646845D-02 0.100000000000D+01
0.818022495779D-04 0.000000000000D+00 0.000000000000D+00 0.783165132145D-05 0.193229289338D-07  6 2 -1 25 24 3 -3 4 0.59775239D+00 0.28115227D-02 0.28638950D+05 0.28638950D+05 0.28638950D+05 0.12170204D+01  1  2 11  8  6  5       21 0.483426748031D-02 0.100000000000D+01
0.818022495779D-04 0.000000000000D+00 0.000000000000D+00 0.783165132145D-05 0.193229289338D-07  6 2 -1 25 24 4 -4 4 0.59775239D+00 0.28115227D-02 0.28638950D+05 0.28638950D+05 0.28638950D+05 0.12170204D+01  1  2 11  8  6  5       21 0.483426748031D-02 0.100000000000D+01
  </mgrwgt>
  </event>
  <event>
  5     66 0.42622971E-03 0.51755185E+02 0.75467711E-02 0.12196726E+00
        2 -1    0    0  502    0 0.00000000E+00 0.00000000E+00 0.44575954E+02 0.44577103E+02 0.32000000E+00 0.0000E+00 0.9000E+01
       -1 -1    0    0    0  501 -.00000000E+00 -.00000000E+00 -.46029494E+03 0.46029505E+03 0.32000000E+00 0.0000E+00 0.9000E+01
       25  1    1    2    0    0 -.57461348E+01 0.17103334E+00 -.16554261E+03 0.20751482E+03 0.12500000E+03 0.0000E+00 0.9000E+01
       24  1    1    2    0    0 -.20152098E+02 0.45525107E+02 -.21284302E+03 0.23291202E+03 0.80419002E+02 0.0000E+00 0.9000E+01
       21  1    1    2  502  501 0.25898233E+02 -.45696141E+02 -.37333358E+02 0.64445309E+02 0.75000000E+00 0.0000E+00 0.9000E+01
#aMCatNLO 1  0  0  5  2 0.36490952D+01 0.00000000D+00  -5  6  0 0.00000000D+00 0.00000000D+00 0.00000000D+00 0.00000000D+00 0.00000000D+00
  <mgrwgt>
 0.7148746364D-01   19    2    0
 0.143242466834616D+03 0.000000000000000D+00 0.000000000000000D+00 0.143242466834616D+03
 0.143242466834616D+03 -.000000000000000D+00 -.000000000000000D+00 -.143242466834616D+03
 0.125483887445364D+03 -.574703924564188D+01 0.172629145867172D+00 0.938870318455921D+01
 0.101604641665268D+03 -.201528299829249D+02 0.455263996175440D+02 -.371146552604216D+02
 0.593964045586007D+02 0.258998692285668D+02 -.456990287634111D+02 0.277259520758624D+02
 0.000000000000000D+00 0.000000000000000D+00 0.000000000000000D+00 -.000000000000000D+00
 0.143242466834616D+03 0.000000000000000D+00 0.000000000000000D+00 0.143242466834616D+03
 0.143242466834616D+03 -.000000000000000D+00 -.000000000000000D+00 -.143242466834616D+03
 0.125520392853309D+03 -.498411900828045D+01 -.117350559958992D+01 0.102054134834459D+02
 0.100762125341438D+03 -.195377420579895D+02 0.444411076214497D+02 -.364562002628809D+02
 0.565481620720251D+02 0.264169979909921D+02 -.410877644772048D+02 0.284891639247923D+02
 0.365425340246004D+01 -.189513692472218D+01 -.217983754465500D+01 -.223837714535728D+01
0.110103900016D-03 0.000000000000D+00 0.000000000000D+00 0.927094464433D-05 0.000000000000D+00  6 2 -1 25 24 21 21 2 0.68579360D-02 0.70814704D-01 0.18529147D+05 0.18529147D+05 0.18529147D+05 0.12374951D+01  1  2  2  3  6  5       21 0.404737184725D-01 0.100000000000D+01
-.131141683421D-05 0.581034243399D-05 -.422827967084D-06 0.927094464433D-05 0.000000000000D+00  6 2 -1 25 24 21 21 4 0.68579360D-02 0.70814704D-01 0.18529147D+05 0.18529147D+05 0.18529147D+05 0.12374951D+01  1  2  3  3  6  5       21 -.738240928309D-03 0.100000000000D+01
0.379615888982D-05 0.000000000000D+00 0.000000000000D+00 0.927094464433D-05 0.000000000000D+00  6 2 -1 25 24 21 21 4 0.68579360D-02 0.70814704D-01 0.18529147D+05 0.18529147D+05 0.18529147D+05 0.12374951D+01  1  2 15  3  6  5       21 0.213698634158D-02 0.100000000000D+01
0.178223925881D-05 0.000000000000D+00 0.000000000000D+00 0.927876479289D-05 0.000000000000D+00  6 2 -1 25 24 21 21 4 0.68579360D-02 0.70814704D-01 0.18329981D+05 0.18329981D+05 0.18329981D+05 0.12380169D+01  1  2 12  3  6  5       21 0.100473111626D-02 0.100000000000D+01
0.263770585336D-05 0.000000000000D+00 0.000000000000D+00 0.927876479289D-05 0.000000000000D+00  6 2 -1 25 24 21 21 4 0.68579360D-02 0.70814704D-01 0.18329981D+05 0.18329981D+05 0.18329981D+05 0.12380169D+01  1  2 12  3  6  5       21 0.148699740133D-02 0.100000000000D+01
-.399324148386D-03 0.000000000000D+00 0.000000000000D+00 0.927094464433D-05 0.000000000000D+00  6 2 -1 25 24 21 21 4 0.68579360D-02 0.70814704D-01 0.18529147D+05 0.18529147D+05 0.18529147D+05 0.12374951D+01  1  2  4  3  6  5       21 -.224793080514D+00 0.100000000000D+01
0.438036380621D-03 0.000000000000D+00 0.000000000000D+00 0.927094464433D-05 0.600197625627D-05  6 2 -1 25 24 21 21 4 0.68579360D-02 0.70814704D-01 0.18329981D+05 0.18329981D+05 0.18329981D+05 0.12380169D+01  1  2 11  3  6  5       21 0.246941469552D+00 0.100000000000D+01
0.726480988903D-07 0.000000000000D+00 0.000000000000D+00 0.927876479289D-05 0.000000000000D+00  6 2 -1 25 24 1 -1 4 0.68579360D-02 0.70814704D-01 0.18329981D+05 0.18329981D+05 0.18329981D+05 0.12380169D+01  1  2 12  6  6  5       21 0.409551103374D-04 0.100000000000D+01
0.776254589077D-07 0.000000000000D+00 0.000000000000D+00 0.927876479289D-05 0.000000000000D+00  6 2 -1 25 24 1 -1 4 0.68579360D-02 0.70814704D-01 0.18329981D+05 0.18329981D+05 0.18329981D+05 0.12380169D+01  1  2 12  6  6  5       21 0.437610795480D-04 0.100000000000D+01
0.117914576074D-05 0.000000000000D+00 0.000000000000D+00 0.927876479289D-05 0.300536133541D-07  6 2 -1 25 24 1 -1 4 0.68579360D-02 0.70814704D-01 0.18329981D+05 0.18329981D+05 0.18329981D+05 0.12380169D+01  1  2 11  6  6  5       21 0.664739277045D-03 0.100000000000D+01
0.726480988903D-07 0.000000000000D+00 0.000000000000D+00 0.927876479289D-05 0.000000000000D+00  6 2 -1 25 24 2 -2 4 0.68579360D-02 0.70814704D-01 0.18329981D+05 0.18329981D+05 0.18329981D+05 0.12380169D+01  1  2 12  7  6  5       21 0.409551103374D-04 0.100000000000D+01
0.776254589077D-07 0.000000000000D+00 0.000000000000D+00 0.927876479289D-05 0.000000000000D+00  6 2 -1 25 24 2 -2 4 0.68579360D-02 0.70814704D-01 0.18329981D+05 0.18329981D+05 0.18329981D+05 0.12380169D+01  1  2 12  7  6  5       21 0.437610795480D-04 0.100000000000D+01
0.236963843118D-05 0.000000000000D+00 0.000000000000D+00 0.927876479289D-05 0.276445110860D-07  6 2 -1 25 24 2 -2 4 0.68579360D-02 0.70814704D-01 0.18329981D+05 0.18329981D+05 0.18329981D+05 0.12380169D+01  1  2 11  7  6  5       21 0.133587533454D-02 0.100000000000D+01
0.726480988903D-07 0.000000000000D+00 0.000000000000D+00 0.927876479289D-05 0.000000000000D+00  6 2 -1 25 24 3 -3 4 0.68579360D-02 0.70814704D-01 0.18329981D+05 0.18329981D+05 0.18329981D+05 0.12380169D+01  1  2 12  8  6  5       21 0.409551103374D-04 0.100000000000D+01
0.726480988903D-07 0.000000000000D+00 0.000000000000D+00 0.927876479289D-05 0.000000000000D+00  6 2 -1 25 24 4 -4 4 0.68579360D-02 0.70814704D-01 0.18329981D+05 0.18329981D+05 0.18329981D+05 0.12380169D+01  1  2 12  8  6  5       21 0.409551103374D-04 0.100000000000D+01
0.776254589077D-07 0.000000000000D+00 0.000000000000D+00 0.927876479289D-05 0.000000000000D+00  6 2 -1 25 24 3 -3 4 0.68579360D-02 0.70814704D-01 0.18329981D+05 0.18329981D+05 0.18329981D+05 0.12380169D+01  1  2 12  8  6  5       21 0.437610795480D-04 0.100000000000D+01
0.776254589077D-07 0.000000000000D+00 0.000000000000D+00 0.927876479289D-05 0.000000000000D+00  6 2 -1 25 24 4 -4 4 0.68579360D-02 0.70814704D-01 0.18329981D+05 0.18329981D+05 0.18329981D+05 0.12380169D+01  1  2 12  8  6  5       21 0.437610795480D-04 0.100000000000D+01
0.233740067336D-05 0.000000000000D+00 0.000000000000D+00 0.927876479289D-05 0.268980233077D-07  6 2 -1 25 24 3 -3 4 0.68579360D-02 0.70814704D-01 0.18329981D+05 0.18329981D+05 0.18329981D+05 0.12380169D+01  1  2 11  8  6  5       21 0.131770141191D-02 0.100000000000D+01
0.233740067336D-05 0.000000000000D+00 0.000000000000D+00 0.927876479289D-05 0.268980233077D-07  6 2 -1 25 24 4 -4 4 0.68579360D-02 0.70814704D-01 0.18329981D+05 0.18329981D+05 0.18329981D+05 0.12380169D+01  1  2 11  8  6  5       21 0.131770141191D-02 0.100000000000D+01
  </mgrwgt>
  </event>
  <event>
  5     66 0.42622971E-03 0.42867982E+02 0.75467711E-02 0.12003368E+00
        2 -1    0    0  502    0 0.00000000E+00 0.00000000E+00 0.23262723E+03 0.23262745E+03 0.32000000E+00 0.0000E+00 0.9000E+01
       -1 -1    0    0    0  501 0.00000000E+00 0.00000000E+00 -.20261462E+03 0.20261487E+03 0.32000000E+00 0.0000E+00 0.9000E+01
       25  1    1    2    0    0 -.43247899E+02 -.28770502E+02 0.13515337E+03 0.19128396E+03 0.12500000E+03 0.0000E+00 0.9000E+01
       24  1    1    2    0    0 0.75445104E+02 0.57071723E+02 0.65359079E+01 0.12433455E+03 0.80419002E+02 0.0000E+00 0.9000E+01
       21  1    1    2  502  501 -.32197205E+02 -.28301221E+02 -.11167666E+03 0.11962382E+03 0.75000000E+00 0.0000E+00 0.9000E+01
#aMCatNLO 1  0  0  5  1 0.18926748D+02 0.00000000D+00  -5  6  0 0.00000000D+00 0.00000000D+00 0.00000000D+00 0.00000000D+00 0.00000000D+00
  <mgrwgt>
 0.1301153183D+00   15    2    0
 0.217103158238317D+03 0.000000000000000D+00 0.000000000000000D+00 0.217103158238317D+03
 0.217103158238317D+03 -.000000000000000D+00 -.000000000000000D+00 -.217103158238317D+03
 0.182398974648232D+03 -.432476656843987D+02 -.287702968981524D+02 0.122255042358051D+03
 0.124179591243411D+03 0.754452628168594D+02 0.570718629184693D+02 -.204198641537084D+01
 0.127627750584991D+03 -.321975971324606D+02 -.283015660203169D+02 -.120213055942681D+03
 0.000000000000000D+00 -.000000000000000D+00 0.000000000000000D+00 0.000000000000000D+00
 0.217103158238317D+03 0.000000000000000D+00 0.000000000000000D+00 0.217103158238317D+03
 0.217103158238317D+03 -.000000000000000D+00 -.000000000000000D+00 -.217103158238317D+03
 0.178997825744311D+03 -.448863715896190D+02 -.302107131867865D+02 0.116136764529820D+03
 0.123189510042012D+03 0.743236004042282D+02 0.560859259029526D+02 -.622982893677706D+01
 0.112105958214735D+03 -.112212018357942D+02 -.178337966847718D+02 -.110108065973436D+03
 0.199130224755761D+02 -.182160269788150D+02 -.804141603139426D+01 0.201130380392717D+00
0.351780157616D-03 0.000000000000D+00 0.000000000000D+00 0.137002506464D-04 0.000000000000D+00  6 2 -1 25 24 21 21 2 0.35788842D-01 0.31171516D-01 0.22860471D+05 0.22860471D+05 0.22860471D+05 0.12274854D+01  1  2  2  3  6  5       21 0.822400771394D-01 0.100000000000D+01
0.179019470648D-04 0.185639489331D-04 -.135092843109D-05 0.137002506464D-04 0.000000000000D+00  6 2 -1 25 24 21 21 4 0.35788842D-01 0.31171516D-01 0.22860471D+05 0.22860471D+05 0.22860471D+05 0.12274854D+01  1  2  3  3  6  5       21 0.630587157347D-02 0.100000000000D+01
0.109876892395D-04 0.000000000000D+00 0.000000000000D+00 0.137002506464D-04 0.000000000000D+00  6 2 -1 25 24 21 21 4 0.35788842D-01 0.31171516D-01 0.22860471D+05 0.22860471D+05 0.22860471D+05 0.12274854D+01  1  2 15  3  6  5       21 0.387035873710D-02 0.100000000000D+01
0.566117102038D-03 0.000000000000D+00 0.000000000000D+00 0.137154110303D-04 0.000000000000D+00  6 2 -1 25 24 21 21 4 0.35788842D-01 0.31171516D-01 0.22533268D+05 0.22533268D+05 0.22533268D+05 0.12281644D+01  1  2 12  3  6  5       21 0.199816722361D+00 0.100000000000D+01
-.562791382256D-03 0.000000000000D+00 0.000000000000D+00 0.137002506464D-04 0.000000000000D+00  6 2 -1 25 24 21 21 4 0.35788842D-01 0.31171516D-01 0.22860471D+05 0.22860471D+05 0.22860471D+05 0.12274854D+01  1  2  4  3  6  5       21 -.198240457662D+00 0.100000000000D+01
-.789376944936D-03 0.000000000000D+00 0.000000000000D+00 0.137002506464D-04 0.000000000000D+00  6 2 -1 25 24 21 21 4 0.35788842D-01 0.31171516D-01 0.22860471D+05 0.22860471D+05 0.22860471D+05 0.12274854D+01  1  2  5  3  6  5       21 -.278054092094D+00 0.100000000000D+01
0.899302898870D-03 0.000000000000D+00 -.000000000000D+00 0.137002506464D-04 0.000000000000D+00  6 2 -1 25 24 21 21 4 0.35788842D-01 0.31171516D-01 0.22860471D+05 0.22860471D+05 0.22860471D+05 0.12274854D+01  1  2  6  3  6  5       21 0.316774961148D+00 0.100000000000D+01
0.506377464867D-05 0.000000000000D+00 0.000000000000D+00 0.137154110303D-04 0.000000000000D+00  6 2 -1 25 24 1 -1 4 0.35788842D-01 0.31171516D-01 0.22533268D+05 0.22533268D+05 0.22533268D+05 0.12281644D+01  1  2 12  6  6  5       21 0.178731016857D-02 0.100000000000D+01
-.691802806874D-05 0.000000000000D+00 0.000000000000D+00 0.137002506464D-04 0.000000000000D+00  6 2 -1 25 24 1 -1 4 0.35788842D-01 0.31171516D-01 0.22860471D+05 0.22860471D+05 0.22860471D+05 0.12274854D+01  1  2  5  6  6  5       21 -.243684088581D-02 0.100000000000D+01
0.506377464867D-05 0.000000000000D+00 0.000000000000D+00 0.137154110303D-04 0.000000000000D+00  6 2 -1 25 24 2 -2 4 0.35788842D-01 0.31171516D-01 0.22533268D+05 0.22533268D+05 0.22533268D+05 0.12281644D+01  1  2 12  7  6  5       21 0.178731016857D-02 0.100000000000D+01
-.691802806874D-05 0.000000000000D+00 0.000000000000D+00 0.137002506464D-04 0.000000000000D+00  6 2 -1 25 24 2 -2 4 0.35788842D-01 0.31171516D-01 0.22860471D+05 0.22860471D+05 0.22860471D+05 0.12274854D+01  1  2  5  7  6  5       21 -.243684088581D-02 0.100000000000D+01
0.506377464867D-05 0.000000000000D+00 0.000000000000D+00 0.137154110303D-04 0.000000000000D+00  6 2 -1 25 24 3 -3 4 0.35788842D-01 0.31171516D-01 0.22533268D+05 0.22533268D+05 0.22533268D+05 0.12281644D+01  1  2 12  8  6  5       21 0.178731016857D-02 0.100000000000D+01
0.506377464867D-05 0.000000000000D+00 0.000000000000D+00 0.137154110303D-04 0.000000000000D+00  6 2 -1 25 24 4 -4 4 0.35788842D-01 0.31171516D-01 0.22533268D+05 0.22533268D+05 0.22533268D+05 0.12281644D+01  1  2 12  8  6  5       21 0.178731016857D-02 0.100000000000D+01
-.691802806874D-05 0.000000000000D+00 0.000000000000D+00 0.137002506464D-04 0.000000000000D+00  6 2 -1 25 24 3 -3 4 0.35788842D-01 0.31171516D-01 0.22860471D+05 0.22860471D+05 0.22860471D+05 0.12274854D+01  1  2  5  8  6  5       21 -.243684088581D-02 0.100000000000D+01
-.691802806874D-05 0.000000000000D+00 0.000000000000D+00 0.137002506464D-04 0.000000000000D+00  6 2 -1 25 24 4 -4 4 0.35788842D-01 0.31171516D-01 0.22860471D+05 0.22860471D+05 0.22860471D+05 0.12274854D+01  1  2  5  8  6  5       21 -.243684088581D-02 0.100000000000D+01
  </mgrwgt>
  </event>
  <event>
  5     66 0.42622971E-03 0.54485240E+02 0.75467711E-02 0.11623660E+00
        2 -1    0    0  502    0 0.00000000E+00 0.00000000E+00 0.16408936E+04 0.16408936E+04 0.32000000E+00 0.0000E+00 0.9000E+01
       -1 -1    0    0    0  501 0.00000000E+00 0.00000000E+00 -.27923261E+02 0.27925094E+02 0.32000000E+00 0.0000E+00 0.9000E+01
       25  1    1    2    0    0 -.40389921E+02 0.85328201E+02 0.97863884E+03 0.99109597E+03 0.12500000E+03 0.0000E+00 0.9000E+01
       24  1    1    2    0    0 0.91855397E+02 -.10320412E+03 0.30944164E+03 0.34829564E+03 0.80419002E+02 0.0000E+00 0.9000E+01
       21  1    1    2  502  501 -.51465476E+02 0.17875915E+02 0.32488981E+03 0.32942707E+03 0.75000000E+00 0.0000E+00 0.9000E+01
#aMCatNLO 1  0  0  5  2 0.29550287D+02 0.00000000D+00  -5  6  0 0.00000000D+00 0.00000000D+00 0.00000000D+00 0.00000000D+00 0.00000000D+00
  <mgrwgt>
 0.1479849490D+00    9    2    0
 0.214057595682328D+03 0.000000000000000D+00 0.000000000000000D+00 0.214057595682328D+03
 0.214057595682328D+03 -.000000000000000D+00 -.000000000000000D+00 -.214057595682328D+03
 0.176222793689706D+03 -.403882699284682D+02 0.853276276632606D+02 0.807307662873931D+02
 0.191824089885164D+03 0.918571946306531D+02 -.103204741106914D+03 -.106020293875946D+03
 0.600683077897873D+02 -.514689247021849D+02 0.178771134436537D+02 0.252895275885530D+02
 0.000000000000000D+00 0.000000000000000D+00 -.000000000000000D+00 0.000000000000000D+00
 0.214057595682328D+03 0.000000000000000D+00 0.000000000000000D+00 0.214057595682328D+03
 0.214057595682328D+03 -.000000000000000D+00 -.000000000000000D+00 -.214057595682328D+03
 0.189014029088859D+03 -.594316937253181D+02 0.919421324259258D+02 0.900878530009319D+02
 0.174431008574750D+03 0.727606780070877D+02 -.965717951879255D+02 -.966371197220004D+02
 0.297142656069416D+02 0.890645228947556D+01 0.270705100834245D+02 -.841428380781045D+01
 0.349558880941063D+02 -.222354365712452D+02 -.224408473214248D+02 0.149635505288790D+02
0.243532315104D-03 0.000000000000D+00 0.000000000000D+00 0.448092320553D-05 0.000000000000D+00  6 2 -1 25 24 21 21 2 0.25244531D+00 0.42960297D-02 0.34408617D+05 0.34408617D+05 0.34408617D+05 0.12086981D+01  1  2  2  3  6  5       21 0.102681985091D+00 0.100000000000D+01
0.955791081930D-05 0.128515533445D-04 -.935228213531D-06 0.448092320553D-05 0.000000000000D+00  6 2 -1 25 24 21 21 4 0.25244531D+00 0.42960297D-02 0.34408617D+05 0.34408617D+05 0.34408617D+05 0.12086981D+01  1  2  3  3  6  5       21 0.588757274857D-02 0.100000000000D+01
0.336158484436D-05 0.000000000000D+00 0.000000000000D+00 0.448092320553D-05 0.000000000000D+00  6 2 -1 25 24 21 21 4 0.25244531D+00 0.42960297D-02 0.34408617D+05 0.34408617D+05 0.34408617D+05 0.12086981D+01  1  2 15  3  6  5       21 0.207070098224D-02 0.100000000000D+01
0.963629961902D-04 0.000000000000D+00 0.000000000000D+00 0.448006805454D-05 0.000000000000D+00  6 2 -1 25 24 21 21 4 0.25244531D+00 0.42960297D-02 0.34497202D+05 0.34497202D+05 0.34497202D+05 0.12085827D+01  1  2 12  3  6  5       21 0.593360884458D-01 0.100000000000D+01
-.516788081399D-04 0.000000000000D+00 0.000000000000D+00 0.448092320553D-05 0.000000000000D+00  6 2 -1 25 24 21 21 4 0.25244531D+00 0.42960297D-02 0.34408617D+05 0.34408617D+05 0.34408617D+05 0.12086981D+01  1  2  4  3  6  5       21 -.318336034135D-01 0.100000000000D+01
0.399598459359D-05 0.000000000000D+00 0.000000000000D+00 0.448006805454D-05 0.000000000000D+00  6 2 -1 25 24 1 -1 4 0.25244531D+00 0.42960297D-02 0.34497202D+05 0.34497202D+05 0.34497202D+05 0.12085827D+01  1  2 12  6  6  5       21 0.246055129716D-02 0.100000000000D+01
0.399598459359D-05 0.000000000000D+00 0.000000000000D+00 0.448006805454D-05 0.000000000000D+00  6 2 -1 25 24 2 -2 4 0.25244531D+00 0.42960297D-02 0.34497202D+05 0.34497202D+05 0.34497202D+05 0.12085827D+01  1  2 12  7  6  5       21 0.246055129716D-02 0.100000000000D+01
0.399598459359D-05 0.000000000000D+00 0.000000000000D+00 0.448006805454D-05 0.000000000000D+00  6 2 -1 25 24 3 -3 4 0.25244531D+00 0.42960297D-02 0.34497202D+05 0.34497202D+05 0.34497202D+05 0.12085827D+01  1  2 12  8  6  5       21 0.246055129716D-02 0.100000000000D+01
0.399598459359D-05 0.000000000000D+00 0.000000000000D+00 0.448006805454D-05 0.000000000000D+00  6 2 -1 25 24 4 -4 4 0.25244531D+00 0.42960297D-02 0.34497202D+05 0.34497202D+05 0.34497202D+05 0.12085827D+01  1  2 12  8  6  5       21 0.246055129716D-02 0.100000000000D+01
  </mgrwgt>
  </event>
  <event>
  6     66 -.42622971E-03 0.51661453E+02 0.75467711E-02 0.11588567E+00
        2 -1    0    0  502    0 0.00000000E+00 0.00000000E+00 0.22598205E+04 0.22598205E+04 0.32000000E+00 0.0000E+00 0.9000E+01
       21 -1    0    0  503  501 0.00000000E+00 0.00000000E+00 -.26904326E+02 0.26914777E+02 0.75000000E+00 0.0000E+00 0.9000E+01
       25  1    1    2    0    0 -.10756798E+03 0.35795395E+02 0.61653070E+03 0.63920833E+03 0.12500000E+03 0.0000E+00 0.9000E+01
       24  1    1    2    0    0 0.89241766E+02 -.81451371E+02 0.37514706E+03 0.40224489E+03 0.80419002E+02 0.0000E+00 0.9000E+01
        1  1    1    2  503    0 0.32129185E+01 -.84577946E+01 0.13476221E+02 0.16234779E+02 0.32000000E+00 0.0000E+00 0.9000E+01
       21  1    1    2  502  501 0.15113292E+02 0.54113771E+02 0.12277622E+04 0.12290473E+04 0.75000000E+00 0.0000E+00 0.9000E+01
#aMCatNLO 2  0  0  2  5 0.90474933D+01 0.00000000D+00  -5  6  0 0.00000000D+00 0.00000000D+00 0.00000000D+00 0.00000000D+00 0.00000000D+00
  <mgrwgt>
 -.3426073896D-01    2    2    0
 0.239362199861041D+03 0.000000000000000D+00 0.000000000000000D+00 0.239362199861041D+03
 0.239362199861041D+03 0.000000000000000D+00 0.000000000000000D+00 -.239362199861041D+03
 0.171960498313677D+03 -.106409628964917D+03 0.327456105844792D+02 -.393716754950372D+02
 0.170571398718184D+03 0.903794111709318D+02 -.844466523632240D+02 -.856020504856488D+02
 0.000000000000000D+00 0.000000000000000D+00 -.000000000000000D+00 -.000000000000000D+00
 0.136192502690220D+03 0.160302177939850D+02 0.517010417787448D+02 0.124973725980686D+03
 0.240987388288748D+03 0.000000000000000D+00 0.000000000000000D+00 0.240987388288748D+03
 0.252337012230189D+03 0.000000000000000D+00 0.000000000000000D+00 -.252337012230189D+03
 0.173283893516894D+03 -.107568064868215D+03 0.357951161695995D+02 -.393716754950372D+02
 0.168503335306533D+03 0.892416769887401D+02 -.814516426841413D+02 -.856020504856488D+02
 0.145145133776567D+02 0.321291850871321D+01 -.845779460819462D+01 -.113496239414414D+02
 0.137022658317853D+03 0.151134693707621D+02 0.541143211227364D+02 0.124973725980686D+03
-.277076821421D-04 0.000000000000D+00 0.000000000000D+00 0.815868054470D-05 0.000000000000D+00  6 2 21 25 24 1 21 4 0.34531837D+00 0.41640976D-02 0.35933879D+05 0.35933879D+05 0.35933879D+05 0.12067569D+01  1  2 13  5  5  2       -1 -.154663896101D+00 0.100000000000D+01
0.217587314084D-04 0.000000000000D+00 0.000000000000D+00 0.819130426136D-05 0.678144233198D-08  6 2 21 25 24 1 21 4 0.34766297D+00 0.41399026D-02 0.35933879D+05 0.35933879D+05 0.35933879D+05 0.12067569D+01  1  2  1  5  5  2       -1 0.120403157137D+00 0.100000000000D+01
  </mgrwgt>
  </event>
  <event>
  6     66 -.42622971E-03 0.67185461E+02 0.75467711E-02 0.11775450E+00
        2 -1    0    0  502    0 0.00000000E+00 0.00000000E+00 0.10048726E+04 0.10048726E+04 0.32000000E+00 0.0000E+00 0.9000E+01
       -1 -1    0    0    0  501 0.00000000E+00 0.00000000E+00 -.42165126E+02 0.42166340E+02 0.32000000E+00 0.0000E+00 0.9000E+01
       25  1    1    2    0    0 0.42294335E+02 0.90364652E+02 0.63911659E+03 0.65882441E+03 0.12500000E+03 0.0000E+00 0.9000E+01
       24  1    1    2    0    0 -.44586526E+02 -.28878069E+02 0.26565871E+03 0.28260161E+03 0.80419002E+02 0.0000E+00 0.9000E+01
       21  1    1    2  503  501 0.26859049E+01 -.72780974E+02 0.36721768E+02 0.81567978E+02 0.75000000E+00 0.0000E+00 0.9000E+01
       21  1    1    2  502  503 -.39371408E+00 0.11294392E+02 0.21210401E+02 0.24044997E+02 0.75000000E+00 0.0000E+00 0.9000E+01
#aMCatNLO 2  0  0  5  1 0.10902407D+02 0.00000000D+00  -5  6  0 0.00000000D+00 0.00000000D+00 0.00000000D+00 0.00000000D+00 0.00000000D+00
  <mgrwgt>
 -.5603860690D-01    3    2    0
 0.205842760512154D+03 0.000000000000000D+00 0.000000000000000D+00 0.205842760512154D+03
 0.205842760512154D+03 -.000000000000000D+00 -.000000000000000D+00 -.205842760512154D+03
 0.185905734415229D+03 0.421516860297629D+02 0.941911316335885D+02 0.910341044603500D+02
 0.975189817643760D+02 -.446623426186782D+02 -.268443406650276D+02 0.180939872903102D+02
 0.128260804844703D+03 0.251065658891526D+01 -.673467909685609D+02 -.109128091750660D+03
 0.000000000000000D+00 0.000000000000000D+00 0.000000000000000D+00 0.000000000000000D+00
 0.205842760512154D+03 0.000000000000000D+00 0.000000000000000D+00 0.205842760512154D+03
 0.205842760512154D+03 -.000000000000000D+00 -.000000000000000D+00 -.205842760512154D+03
 0.181009448131502D+03 0.422953176064605D+02 0.903383045225262D+02 0.847910205000212D+02
 0.975100349742906D+02 -.445859971129361D+02 -.288922610533829D+02 0.147755568079609D+02
 0.121542705398278D+03 0.268761152536654D+01 -.728326524164960D+02 -.972666989354482D+02
 0.116233325202372D+02 -.396932018890947D+00 0.113866089473527D+02 -.229987837253392D+01
-.907063684398D-04 0.000000000000D+00 0.000000000000D+00 0.635375681897D-05 0.000000000000D+00  6 2 -1 25 24 21 21 4 0.15459588D+00 0.64870398D-02 0.28998919D+05 0.28998919D+05 0.28998919D+05 0.12164484D+01  1  2 13  3  6  5       21 -.691578144392D-01 0.100000000000D+01
-.160350465914D-04 0.000000000000D+00 0.000000000000D+00 0.639792588674D-05 0.000000000000D+00  6 2 -1 25 24 21 21 4 0.15459588D+00 0.64870398D-02 0.26456810D+05 0.26456810D+05 0.26456810D+05 0.12206692D+01  1  2  8  3  6  5       21 -.123833445869D-01 0.100000000000D+01
0.334487708693D-04 0.000000000000D+00 0.000000000000D+00 0.639792588674D-05 0.947742785641D-07  6 2 -1 25 24 21 21 4 0.15459588D+00 0.64870398D-02 0.28998919D+05 0.28998919D+05 0.28998919D+05 0.12164484D+01  1  2  1  3  6  5       21 0.255025521227D-01 0.100000000000D+01
  </mgrwgt>
  </event>
  <event>
  6     66 -.42622971E-03 0.35164600E+02 0.75467711E-02 0.11732321E+00
        2 -1    0    0  502    0 0.00000000E+00 0.00000000E+00 0.59792591E+02 0.59793447E+02 0.32000000E+00 0.0000E+00 0.9000E+01
       -1 -1    0    0    0  501 -.00000000E+00 -.00000000E+00 -.72578682E+03 0.72578689E+03 0.32000000E+00 0.0000E+00 0.9000E+01
       25  1    1    2    0    0 -.88020829E+02 0.91566606E+02 -.17563190E+03 0.25020726E+03 0.12500000E+03 0.0000E+00 0.9000E+01
       24  1    1    2    0    0 0.51670987E+02 -.48100375E+02 -.12553003E+03 0.16495011E+03 0.80419002E+02 0.0000E+00 0.9000E+01
       21  1    1    2  503  501 0.37486285E+02 -.24577401E+02 -.27323642E+03 0.27688982E+03 0.75000000E+00 0.0000E+00 0.9000E+01
       21  1    1    2  502  503 -.11364438E+01 -.18888829E+02 -.91595891E+02 0.93533145E+02 0.75000000E+00 0.0000E+00 0.9000E+01
#aMCatNLO 2  0  0  5  2 0.13073302D+02 0.00000000D+00  -5  6  0 0.00000000D+00 0.00000000D+00 0.00000000D+00 0.00000000D+00 0.00000000D+00
  <mgrwgt>
 -.2876556413D-01    3    2    0
 0.208319558691151D+03 0.000000000000000D+00 0.000000000000000D+00 0.208319558691151D+03
 0.208319558691151D+03 -.000000000000000D+00 -.000000000000000D+00 -.208319558691151D+03
 0.192218138058079D+03 -.886204622664265D+02 0.922836327186236D+02 0.703772505746983D+02
 0.110243466398663D+03 0.513258274673306D+02 -.476876416586286D+02 0.278918302923025D+02
 0.114177512925559D+03 0.372946347990958D+02 -.445959910599951D+02 -.982690808670008D+02
 0.000000000000000D+00 0.000000000000000D+00 -.000000000000000D+00 0.000000000000000D+00
 0.208319558691151D+03 0.000000000000000D+00 0.000000000000000D+00 0.208319558691151D+03
 0.208319558691151D+03 -.000000000000000D+00 -.000000000000000D+00 -.208319558691151D+03
 0.191020381559840D+03 -.880189999092244D+02 0.915644190824211D+02 0.687924340632419D+02
 0.110357967404047D+03 0.516720438615214D+02 -.481016385593444D+02 0.269795712764550D+02
 0.850361601035630D+02 0.374554623388890D+02 -.244096259877097D+02 -.723353787940521D+02
 0.302246083148516D+02 -.110850629118597D+01 -.190531545353669D+02 -.234366265456449D+02
-.345416221787D-03 0.000000000000D+00 0.000000000000D+00 0.729062851525D-05 0.000000000000D+00  6 2 -1 25 24 21 21 4 0.91989314D-02 0.11165958D+00 0.30451148D+05 0.30451148D+05 0.30451148D+05 0.12142186D+01  1  2 13  3  6  5       21 -.475698565318D-01 0.100000000000D+01
-.265283609568D-03 0.000000000000D+00 0.000000000000D+00 0.729062851525D-05 0.000000000000D+00  6 2 -1 25 24 21 21 4 0.91989314D-02 0.11165958D+00 0.30451148D+05 0.30451148D+05 0.30451148D+05 0.12142186D+01  1  2 13  3  6  5       21 -.365341939707D-01 0.100000000000D+01
0.401826120041D-03 0.000000000000D+00 0.000000000000D+00 0.730752590930D-05 0.182880981865D-06  6 2 -1 25 24 21 21 4 0.91989314D-02 0.11165958D+00 0.30451148D+05 0.30451148D+05 0.30451148D+05 0.12142186D+01  1  2  1  3  6  5       21 0.553384863693D-01 0.100000000000D+01
  </mgrwgt>
  </event>
  <event>
  5     66 0.42622971E-03 0.53366407E+02 0.75467711E-02 0.12035870E+00
        2 -1    0    0  502    0 0.00000000E+00 0.00000000E+00 0.16456004E+04 0.16456004E+04 0.32000000E+00 0.0000E+00 0.9000E+01
       -1 -1    0    0    0  501 0.00000000E+00 0.00000000E+00 -.17879484E+02 0.17882348E+02 0.32000000E+00 0.0000E+00 0.9000E+01
       25  1    1    2    0    0 0.27670350E+02 0.10695812E+01 0.36459085E+03 0.38641724E+03 0.12500000E+03 0.0000E+00 0.9000E+01
       24  1    1    2    0    0 -.77473150E+02 0.18094073E+02 0.10910786E+04 0.10969272E+04 0.80419002E+02 0.0000E+00 0.9000E+01
       21  1    1    2  502  501 0.49802800E+02 -.19163654E+02 0.17205145E+03 0.18013836E+03 0.75000000E+00 0.0000E+00 0.9000E+01
#aMCatNLO 1  0  0  1  5 0.46608146D+00 0.00000000D+00  -5  6  0 0.00000000D+00 0.00000000D+00 0.00000000D+00 0.00000000D+00 0.00000000D+00
  <mgrwgt>
 0.2924657161D+00    9    4    0
 0.171536857803635D+03 0.000000000000000D+00 0.000000000000000D+00 0.171536857803635D+03
 0.171536857803635D+03 0.000000000000000D+00 0.000000000000000D+00 -.171536857803635D+03
 0.143835071065550D+03 0.276685518140306D+02 0.107027327707239D+01 -.655502358810290D+02
 0.142093394608171D+03 -.774749267319105D+02 0.180947567922977D+02 0.859856519508669D+02
 0.571452499335480D+02 0.498063749178799D+02 -.191650300693701D+02 -.204354160698379D+02
 0.000000000000000D+00 0.000000000000000D+00 0.000000000000000D+00 0.000000000000000D+00
 0.171886749154427D+03 0.000000000000000D+00 0.000000000000000D+00 0.171886749154427D+03
 0.171692300200073D+03 0.000000000000000D+00 0.000000000000000D+00 -.171692300200073D+03
 0.143823098798765D+03 0.276128715856971D+02 0.882976111060323D+00 -.655502358810290D+02
 0.142099955070275D+03 -.775299362962432D+02 0.179097156060198D+02 0.859856519508669D+02
 0.571509783346579D+02 0.497842512977142D+02 -.192394495084238D+02 -.204354160698379D+02
 0.505017150801519D+00 0.132813412832000D+00 0.446757791343716D+00 0.194448954353798D+00
 0.171536857803635D+03 0.000000000000000D+00 0.000000000000000D+00 0.171536857803635D+03
 0.171536857803635D+03 0.000000000000000D+00 0.000000000000000D+00 -.171536857803635D+03
 0.143835071065550D+03 0.276685518140306D+02 0.107027327707239D+01 -.655502358810290D+02
 0.142093394608171D+03 -.774749267319105D+02 0.180947567922977D+02 0.859856519508669D+02
 0.000000000000000D+00 0.000000000000000D+00 0.000000000000000D+00 0.000000000000000D+00
 0.571452499335480D+02 0.498063749178799D+02 -.191650300693701D+02 -.204354160698379D+02
 0.171886749154427D+03 0.000000000000000D+00 0.000000000000000D+00 0.171886749154427D+03
 0.171692300200073D+03 0.000000000000000D+00 0.000000000000000D+00 -.171692300200073D+03
 0.143823098798765D+03 0.276128715856971D+02 0.882976111060323D+00 -.655502358810290D+02
 0.142099955070275D+03 -.775299362962432D+02 0.179097156060198D+02 0.859856519508669D+02
 0.505017150801519D+00 0.132813412832000D+00 0.446757791343716D+00 0.194448954353798D+00
 0.571509783346579D+02 0.497842512977142D+02 -.192394495084238D+02 -.204354160698379D+02
0.476482345219D-04 0.000000000000D+00 0.000000000000D+00 0.540761341893D-05 0.000000000000D+00  6 2 -1 25 24 21 21 2 0.25316951D+00 0.27509126D-02 0.21685550D+05 0.21685550D+05 0.21685550D+05 0.12299760D+01  1  2  2  1  6  1        2 0.397143882764D-01 0.100000000000D+01
-.156619061260D-06 0.251446641678D-05 -.182981766632D-06 0.540761341893D-05 0.000000000000D+00  6 2 -1 25 24 21 21 4 0.25316951D+00 0.27509126D-02 0.21685550D+05 0.21685550D+05 0.21685550D+05 0.12299760D+01  1  2  3  1  6  1        2 -.197487216369D-03 0.100000000000D+01
0.201532097643D-05 0.000000000000D+00 0.000000000000D+00 0.540761341893D-05 0.000000000000D+00  6 2 -1 25 24 21 21 4 0.25316951D+00 0.27509126D-02 0.21685550D+05 0.21685550D+05 0.21685550D+05 0.12299760D+01  1  2 15  1  6  1        2 0.254119853946D-02 0.100000000000D+01
-.258662257894D-02 0.000000000000D+00 0.000000000000D+00 0.540761341893D-05 0.000000000000D+00  6 2 -1 25 24 21 21 4 0.25316951D+00 0.27509126D-02 0.21685550D+05 0.21685550D+05 0.21685550D+05 0.12299760D+01  1  2  4  1  6  1        2 -.326157549920D+01 0.100000000000D+01
-.473901993396D-01 0.000000000000D+00 -.375747427737D-02 0.540761341893D-05 0.000000000000D+00  6 2 -1 25 24 21 21 4 0.25380233D+00 0.27509126D-02 0.21685550D+05 0.21685550D+05 0.21685550D+05 0.12299760D+01  1  2  5  1  6  1        2 -.594650831332D+02 0.100000000000D+01
0.473994437379D-01 0.000000000000D+00 0.375746256850D-02 0.540761341893D-05 0.000000000000D+00  6 2 -1 25 24 21 21 4 0.25316951D+00 0.27509126D-02 0.21685550D+05 0.21685550D+05 0.21685550D+05 0.12299760D+01  1  2  6  1  6  1        2 0.597678477060D+02 0.100000000000D+01
0.256908737494D-02 0.000000000000D+00 0.000000000000D+00 0.540761341893D-05 0.934448716071D-04  6 2 -1 25 24 21 21 4 0.25368591D+00 0.27534054D-02 0.21754376D+05 0.21754376D+05 0.21754376D+05 0.12298260D+01  1  2 11  1  6  1        2 0.322086522732D+01 0.100000000000D+01
-.220911319975D-04 0.000000000000D+00 -.175225585547D-05 0.540761341893D-05 0.000000000000D+00  6 21 -1 25 24 -2 21 4 0.25380233D+00 0.27509126D-02 0.21685550D+05 0.21685550D+05 0.21685550D+05 0.12299760D+01  3  4  5  4  5  1        2 -.123765409761D-01 0.100000000000D+01
0.130329255960D-05 0.000000000000D+00 0.000000000000D+00 0.540761341893D-05 0.860164637814D-07  6 21 -1 25 24 -2 21 4 0.25368591D+00 0.27534054D-02 0.21754376D+05 0.21754376D+05 0.21754376D+05 0.12298260D+01  3  4 11  4  5  1        2 0.729856542745D-03 0.100000000000D+01
  </mgrwgt>
  </event>
  <event>
  5     66 -.42622971E-03 0.30147201E+02 0.75467711E-02 0.10990856E+00
        2 -1    0    0  502    0 0.00000000E+00 0.00000000E+00 0.98644429E+03 0.98644435E+03 0.32000000E+00 0.0000E+00 0.9000E+01
       -1 -1    0    0    0  501 0.00000000E+00 0.00000000E+00 -.13238016E+03 0.13238055E+03 0.32000000E+00 0.0000E+00 0.9000E+01
       25  1    1    2    0    0 0.38255577E+02 -.22565440E+03 0.11023164E+03 0.28312437E+03 0.12500000E+03 0.0000E+00 0.9000E+01
       24  1    1    2    0    0 -.29543955E+02 0.19679349E+03 0.20755114E+03 0.29857196E+03 0.80419002E+02 0.0000E+00 0.9000E+01
       21  1    1    2  502  501 -.87116224E+01 0.28860906E+02 0.53628135E+03 0.53712856E+03 0.75000000E+00 0.0000E+00 0.9000E+01
#aMCatNLO 1  0  0  2  5 0.16730137D+02 0.00000000D+00  -5  6  0 0.00000000D+00 0.00000000D+00 0.00000000D+00 0.00000000D+00 0.00000000D+00
  <mgrwgt>
 -.1960701456D+01    5    4    0
 0.361366715118037D+03 0.000000000000000D+00 0.000000000000000D+00 0.361366715118037D+03
 0.361366715118037D+03 0.000000000000000D+00 0.000000000000000D+00 -.361366715118037D+03
 0.308027800646242D+03 0.382556039227228D+02 -.225654486138640D+03 -.163928910278129D+03
 0.216937190417911D+03 -.295439360425055D+02 0.196793429468750D+03 -.315282507140952D+02
 0.197768439171922D+03 -.871166788021731D+01 0.288610566698904D+02 0.195457160992224D+03
 0.000000000000000D+00 0.000000000000000D+00 0.000000000000000D+00 -.000000000000000D+00
 0.362680540388515D+03 0.000000000000000D+00 0.000000000000000D+00 0.362680540388515D+03
 0.870638073552429D+03 0.000000000000000D+00 0.000000000000000D+00 -.870638073552429D+03
 0.310948781232598D+03 0.224211282915235D+02 -.231708329438538D+03 -.163928910278129D+03
 0.214923248792419D+03 -.405916619193038D+02 0.192569658323049D+03 -.315282507140952D+02
 0.197946429777105D+03 -.188347284817299D+02 0.249908039362804D+02 0.195457160992224D+03
 0.509500154138822D+03 0.370052621095101D+02 0.141478671792092D+02 -.507957533163915D+03
 0.361366715118037D+03 0.000000000000000D+00 0.000000000000000D+00 0.361366715118037D+03
 0.361366715118037D+03 0.000000000000000D+00 0.000000000000000D+00 -.361366715118037D+03
 0.308027800646242D+03 0.382556039227228D+02 -.225654486138640D+03 -.163928910278129D+03
 0.216937190417911D+03 -.295439360425055D+02 0.196793429468750D+03 -.315282507140952D+02
 0.000000000000000D+00 0.000000000000000D+00 0.000000000000000D+00 -.000000000000000D+00
 0.197768439171922D+03 -.871166788021731D+01 0.288610566698904D+02 0.195457160992224D+03
 0.362680540388515D+03 0.000000000000000D+00 0.000000000000000D+00 0.362680540388515D+03
 0.870638073552429D+03 0.000000000000000D+00 0.000000000000000D+00 -.870638073552429D+03
 0.310948781232598D+03 0.224211282915235D+02 -.231708329438538D+03 -.163928910278129D+03
 0.214923248792419D+03 -.405916619193038D+02 0.192569658323049D+03 -.315282507140952D+02
 0.509500154138822D+03 0.370052621095101D+02 0.141478671792092D+02 -.507957533163915D+03
 0.197946429777105D+03 -.188347284817299D+02 0.249908039362804D+02 0.195457160992224D+03
0.551875441980D-03 0.000000000000D+00 0.000000000000D+00 0.211049459711D-04 0.000000000000D+00  6 2 -1 25 24 21 21 2 0.15176069D+00 0.20366213D-01 0.63899089D+05 0.63899089D+05 0.63899089D+05 0.11818739D+01  1  2  2  2  6  2       -1 0.462725571687D-01 0.100000000000D+01
0.155864708342D-03 0.291232671899D-04 -.211934700935D-05 0.211049459711D-04 0.000000000000D+00  6 2 -1 25 24 21 21 4 0.15176069D+00 0.20366213D-01 0.63899089D+05 0.63899089D+05 0.63899089D+05 0.11818739D+01  1  2  3  2  6  2       -1 0.182546075757D-01 0.100000000000D+01
0.447238621021D-05 0.000000000000D+00 0.000000000000D+00 0.211049459711D-04 0.000000000000D+00  6 2 -1 25 24 21 21 4 0.15176069D+00 0.20366213D-01 0.63899089D+05 0.63899089D+05 0.63899089D+05 0.11818739D+01  1  2 15  2  6  2       -1 0.523798209758D-03 0.100000000000D+01
-.404370744916D-01 0.000000000000D+00 -.296531132027D-03 0.211049459711D-04 0.000000000000D+00  6 2 -1 25 24 21 21 4 0.15176069D+00 0.49123195D-01 0.63899089D+05 0.63899089D+05 0.63899089D+05 0.11818739D+01  1  2  5  2  6  2       -1 -.103763603525D+01 0.100000000000D+01
-.387938870338D-02 0.000000000000D+00 -.285845708968D-04 0.211049459711D-04 0.000000000000D+00  6 2 21 25 24 1 21 4 0.15176069D+00 0.49123195D-01 0.63899089D+05 0.63899089D+05 0.63899089D+05 0.11818739D+01  3  4  5  5  5  2       -1 -.988116383395D+00 0.100000000000D+01
  </mgrwgt>
  </event>
  <event>
  5     66 0.42622971E-03 0.34038383E+02 0.75467711E-02 0.11036043E+00
        2 -1    0    0  502    0 0.00000000E+00 0.00000000E+00 0.36594623E+04 0.36594623E+04 0.32000000E+00 0.0000E+00 0.9000E+01
       -1 -1    0    0    0  501 0.00000000E+00 0.00000000E+00 -.22936172E+02 0.22938404E+02 0.32000000E+00 0.0000E+00 0.9000E+01
       25  1    1    2    0    0 0.19912886E+03 0.10831254E+03 0.21640120E+04 0.21794395E+04 0.12500000E+03 0.0000E+00 0.9000E+01
       24  1    1    2    0    0 -.17728310E+03 -.13441365E+03 0.14250350E+04 0.14445374E+04 0.80419002E+02 0.0000E+00 0.9000E+01
       21  1    1    2  502  501 -.21845760E+02 0.26101118E+02 0.47479193E+02 0.58423812E+02 0.75000000E+00 0.0000E+00 0.9000E+01
#aMCatNLO 1  0  0  5  2 0.57001079D+01 0.00000000D+00  -5  6  0 0.00000000D+00 0.00000000D+00 0.00000000D+00 0.00000000D+00 0.00000000D+00
  <mgrwgt>
 0.3931061078D+00   25    2    0
 0.289720888078037D+03 0.000000000000000D+00 0.000000000000000D+00 0.289720888078037D+03
 0.289720888078037D+03 -.000000000000000D+00 -.000000000000000D+00 -.289720888078037D+03
 0.269369595823868D+03 0.199129394423768D+03 0.108311901655878D+03 0.745050024523525D+02
 0.236759754289267D+03 -.177282635509535D+03 -.134414212727121D+03 -.957349781874020D+01
 0.733124260429388D+02 -.218467589142330D+02 0.261023110712427D+02 -.649315046336124D+02
 0.000000000000000D+00 -.000000000000000D+00 0.000000000000000D+00 0.000000000000000D+00
 0.289720888078037D+03 0.000000000000000D+00 0.000000000000000D+00 0.289720888078037D+03
 0.289720888078037D+03 -.000000000000000D+00 -.000000000000000D+00 -.289720888078037D+03
 0.269141317852397D+03 0.198917420006867D+03 0.108565166782793D+03 0.738749859868777D+02
 0.236796117132048D+03 -.177469041629012D+03 -.134191496372018D+03 -.101275218667970D+02
 0.135506705144577D+02 0.166401240591798D+01 0.607297339963212D+01 -.119987802793328D+02
 0.599536706571714D+02 -.231123907837724D+02 0.195533561895927D+02 -.517486838407479D+02
0.331430093565D-02 0.000000000000D+00 0.000000000000D+00 0.133213388830D-04 0.000000000000D+00  6 2 -1 25 24 21 21 2 0.56299437D+00 0.35288147D-02 0.70083413D+05 0.70083413D+05 0.70083413D+05 0.11780260D+01  1  2  2  3  6  5       21 0.123003254740D+00 0.100000000000D+01
0.675132094175D-03 0.174900465493D-03 -.127277882684D-04 0.133213388830D-04 0.000000000000D+00  6 2 -1 25 24 21 21 4 0.56299437D+00 0.35288147D-02 0.70083413D+05 0.70083413D+05 0.70083413D+05 0.11780260D+01  1  2  3  3  6  5       21 0.347714795059D-01 0.100000000000D+01
0.398568187670D-05 0.000000000000D+00 0.000000000000D+00 0.133213388830D-04 0.000000000000D+00  6 2 -1 25 24 21 21 4 0.56299437D+00 0.35288147D-02 0.70083413D+05 0.70083413D+05 0.70083413D+05 0.11780260D+01  1  2 15  3  6  5       21 0.205275466666D-03 0.100000000000D+01
0.643216601164D-03 0.000000000000D+00 0.000000000000D+00 0.133125533751D-04 0.000000000000D+00  6 2 -1 25 24 21 21 4 0.56299437D+00 0.35288147D-02 0.70743854D+05 0.70743854D+05 0.70743854D+05 0.11776375D+01  1  2 12  3  6  5       21 0.330699068087D-01 0.100000000000D+01
0.567358936105D-03 0.000000000000D+00 0.000000000000D+00 0.133125533751D-04 0.000000000000D+00  6 2 -1 25 24 21 21 4 0.56299437D+00 0.35288147D-02 0.70743854D+05 0.70743854D+05 0.70743854D+05 0.11776375D+01  1  2 12  3  6  5       21 0.291698117091D-01 0.100000000000D+01
-.107546918030D-01 0.000000000000D+00 0.000000000000D+00 0.133213388830D-04 0.000000000000D+00  6 2 -1 25 24 21 21 4 0.56299437D+00 0.35288147D-02 0.70083413D+05 0.70083413D+05 0.70083413D+05 0.11780260D+01  1  2  4  3  6  5       21 -.553901301461D+00 0.100000000000D+01
-.170864735280D-02 0.000000000000D+00 0.000000000000D+00 0.133213388830D-04 0.000000000000D+00  6 2 -1 25 24 21 21 4 0.56299437D+00 0.35288147D-02 0.70083413D+05 0.70083413D+05 0.70083413D+05 0.11780260D+01  1  2  5  3  6  5       21 -.880008474244D-01 0.100000000000D+01
0.157046178305D-01 0.000000000000D+00 -.000000000000D+00 0.133213388830D-04 0.000000000000D+00  6 2 -1 25 24 21 21 4 0.56299437D+00 0.35288147D-02 0.70083413D+05 0.70083413D+05 0.70083413D+05 0.11780260D+01  1  2  6  3  6  5       21 0.808838450656D+00 0.100000000000D+01
0.471073093144D-03 0.000000000000D+00 0.000000000000D+00 0.133213388830D-04 0.223335746610D-05  6 2 -1 25 24 21 21 4 0.56299437D+00 0.35288147D-02 0.70743854D+05 0.70743854D+05 0.70743854D+05 0.11776375D+01  1  2 11  3  6  5       21 0.242194359756D-01 0.100000000000D+01
0.170528630943D-03 0.000000000000D+00 0.000000000000D+00 0.133125533751D-04 0.000000000000D+00  6 2 -1 25 24 1 -1 4 0.56299437D+00 0.35288147D-02 0.70743854D+05 0.70743854D+05 0.70743854D+05 0.11776375D+01  1  2 12  6  6  5       21 0.876744462644D-02 0.100000000000D+01
0.158860169147D-03 0.000000000000D+00 0.000000000000D+00 0.133125533751D-04 0.000000000000D+00  6 2 -1 25 24 1 -1 4 0.56299437D+00 0.35288147D-02 0.70743854D+05 0.70743854D+05 0.70743854D+05 0.11776375D+01  1  2 12  6  6  5       21 0.816753015984D-02 0.100000000000D+01
-.613775254504D-03 0.000000000000D+00 0.000000000000D+00 0.133213388830D-04 0.000000000000D+00  6 2 -1 25 24 1 -1 4 0.56299437D+00 0.35288147D-02 0.70083413D+05 0.70083413D+05 0.70083413D+05 0.11780260D+01  1  2  5  6  6  5       21 -.316114044457D-01 0.100000000000D+01
0.196936892839D-03 0.000000000000D+00 0.000000000000D+00 0.133213388830D-04 0.743405176835D-07  6 2 -1 25 24 1 -1 4 0.56299437D+00 0.35288147D-02 0.70743854D+05 0.70743854D+05 0.70743854D+05 0.11776375D+01  1  2 11  6  6  5       21 0.101251812867D-01 0.100000000000D+01
0.170528630943D-03 0.000000000000D+00 0.000000000000D+00 0.133125533751D-04 0.000000000000D+00  6 2 -1 25 24 2 -2 4 0.56299437D+00 0.35288147D-02 0.70743854D+05 0.70743854D+05 0.70743854D+05 0.11776375D+01  1  2 12  7  6  5       21 0.876744462644D-02 0.100000000000D+01
0.158860169147D-03 0.000000000000D+00 0.000000000000D+00 0.133125533751D-04 0.000000000000D+00  6 2 -1 25 24 2 -2 4 0.56299437D+00 0.35288147D-02 0.70743854D+05 0.70743854D+05 0.70743854D+05 0.11776375D+01  1  2 12  7  6  5       21 0.816753015984D-02 0.100000000000D+01
-.613775254504D-03 0.000000000000D+00 0.000000000000D+00 0.133213388830D-04 0.000000000000D+00  6 2 -1 25 24 2 -2 4 0.56299437D+00 0.35288147D-02 0.70083413D+05 0.70083413D+05 0.70083413D+05 0.11780260D+01  1  2  5  7  6  5       21 -.316114044457D-01 0.100000000000D+01
0.196715570291D-03 0.000000000000D+00 0.000000000000D+00 0.133213388830D-04 0.736485338424D-07  6 2 -1 25 24 2 -2 4 0.56299437D+00 0.35288147D-02 0.70743854D+05 0.70743854D+05 0.70743854D+05 0.11776375D+01  1  2 11  7  6  5       21 0.101138023577D-01 0.100000000000D+01
0.170528630943D-03 0.000000000000D+00 0.000000000000D+00 0.133125533751D-04 0.000000000000D+00  6 2 -1 25 24 3 -3 4 0.56299437D+00 0.35288147D-02 0.70743854D+05 0.70743854D+05 0.70743854D+05 0.11776375D+01  1  2 12  8  6  5       21 0.876744462644D-02 0.100000000000D+01
0.170528630943D-03 0.000000000000D+00 0.000000000000D+00 0.133125533751D-04 0.000000000000D+00  6 2 -1 25 24 4 -4 4 0.56299437D+00 0.35288147D-02 0.70743854D+05 0.70743854D+05 0.70743854D+05 0.11776375D+01  1  2 12  8  6  5       21 0.876744462644D-02 0.100000000000D+01
0.158860169147D-03 0.000000000000D+00 0.000000000000D+00 0.133125533751D-04 0.000000000000D+00  6 2 -1 25 24 3 -3 4 0.56299437D+00 0.35288147D-02 0.70743854D+05 0.70743854D+05 0.70743854D+05 0.11776375D+01  1  2 12  8  6  5       21 0.816753015984D-02 0.100000000000D+01
0.158860169147D-03 0.000000000000D+00 0.000000000000D+00 0.133125533751D-04 0.000000000000D+00  6 2 -1 25 24 4 -4 4 0.56299437D+00 0.35288147D-02 0.70743854D+05 0.70743854D+05 0.70743854D+05 0.11776375D+01  1  2 12  8  6  5       21 0.816753015984D-02 0.100000000000D+01
-.613775254504D-03 0.000000000000D+00 0.000000000000D+00 0.133213388830D-04 0.000000000000D+00  6 2 -1 25 24 3 -3 4 0.56299437D+00 0.35288147D-02 0.70083413D+05 0.70083413D+05 0.70083413D+05 0.11780260D+01  1  2  5  8  6  5       21 -.316114044457D-01 0.100000000000D+01
-.613775254504D-03 0.000000000000D+00 0.000000000000D+00 0.133213388830D-04 0.000000000000D+00  6 2 -1 25 24 4 -4 4 0.56299437D+00 0.35288147D-02 0.70083413D+05 0.70083413D+05 0.70083413D+05 0.11780260D+01  1  2  5  8  6  5       21 -.316114044457D-01 0.100000000000D+01
0.196421600415D-03 0.000000000000D+00 0.000000000000D+00 0.133213388830D-04 0.734033129493D-07  6 2 -1 25 24 3 -3 4 0.56299437D+00 0.35288147D-02 0.70743854D+05 0.70743854D+05 0.70743854D+05 0.11776375D+01  1  2 11  8  6  5       21 0.100986883877D-01 0.100000000000D+01
0.196421600415D-03 0.000000000000D+00 0.000000000000D+00 0.133213388830D-04 0.734033129493D-07  6 2 -1 25 24 4 -4 4 0.56299437D+00 0.35288147D-02 0.70743854D+05 0.70743854D+05 0.70743854D+05 0.11776375D+01  1  2 11  8  6  5       21 0.100986883877D-01 0.100000000000D+01
  </mgrwgt>
  </event>
  <event>
  6     66 0.42622971E-03 0.41406662E+02 0.75467711E-02 0.11565752E+00
        2 -1    0    0  502    0 0.00000000E+00 0.00000000E+00 0.13245894E+04 0.13245894E+04 0.32000000E+00 0.0000E+00 0.9000E+01
       21 -1    0    0  503  501 0.00000000E+00 0.00000000E+00 -.96739891E+02 0.96742798E+02 0.75000000E+00 0.0000E+00 0.9000E+01
       25  1    1    2    0    0 -.58328782E+02 0.12099936E+03 0.82480988E+03 0.84497303E+03 0.12500000E+03 0.0000E+00 0.9000E+01
       24  1    1    2    0    0 0.21682314E+02 -.11882602E+03 0.37092614E+03 0.39830034E+03 0.80419002E+02 0.0000E+00 0.9000E+01
        1  1    1    2  503    0 0.46004702E+02 -.35672681E+01 -.65424523E+02 0.80060157E+02 0.32000000E+00 0.0000E+00 0.9000E+01
       21  1    1    2  502  501 -.93582342E+01 0.13939234E+01 0.97538004E+02 0.97998695E+02 0.75000000E+00 0.0000E+00 0.9000E+01
#aMCatNLO 2  0  0  2  1 0.37848962D+02 0.00000000D+00  -5  6  0 0.00000000D+00 0.00000000D+00 0.00000000D+00 0.00000000D+00 0.00000000D+00
  <mgrwgt>
 0.4149853267D+00    1    2    0
 0.176297980420561D+03 0.000000000000000D+00 0.000000000000000D+00 0.176297980420561D+03
 0.176297980420561D+03 0.000000000000000D+00 0.000000000000000D+00 -.176297980420561D+03
 0.180141757163592D+03 -.344484568062452D+02 0.119147140815809D+03 0.379909901565186D+02
 0.158660030514740D+03 0.419531307977785D+02 -.120398287734045D+03 -.494972368475472D+02
 0.000000000000000D+00 0.000000000000000D+00 -.000000000000000D+00 -.000000000000000D+00
 0.137941731627893D+02 -.750467399153334D+01 0.125114691823612D+01 0.115062466910286D+02
 0.178788889695949D+03 0.000000000000000D+00 0.000000000000000D+00 0.178788889695949D+03
 0.716726071565237D+03 0.000000000000000D+00 0.000000000000000D+00 -.716726071565237D+03
 0.187377820511130D+03 -.583225993312749D+02 0.120998374756325D+03 0.379909901565186D+02
 0.153320967900332D+03 0.216867850744095D+02 -.118826807333692D+03 -.494972368475472D+02
 0.539912557416551D+03 0.460047021208350D+02 -.356726805581058D+01 -.537937181869288D+03
 0.149036154331725D+02 -.936888786396968D+01 0.139570063317756D+01 0.115062466910286D+02
0.226510850499D-03 0.000000000000D+00 0.000000000000D+00 0.287229849595D-03 0.252537767570D-06  6 2 21 25 24 1 21 4 0.20378315D+00 0.14883283D-01 0.36904834D+05 0.36904834D+05 0.36904834D+05 0.12055684D+01  1  2  1  5  5  2       -1 0.414985326702D+00 0.100000000000D+01
  </mgrwgt>
  </event>
  <event>
  6     66 0.42622971E-03 0.20791187E+02 0.75467711E-02 0.12431800E+00
        2 -1    0    0  502    0 0.00000000E+00 0.00000000E+00 0.16869203E+04 0.16869204E+04 0.32000000E+00 0.0000E+00 0.9000E+01
       -1 -1    0    0    0  503 0.00000000E+00 0.00000000E+00 -.11693049E+02 0.11697427E+02 0.32000000E+00 0.0000E+00 0.9000E+01
       25  1    1    2    0    0 -.92838775E+01 0.64392213E+01 0.94737588E+03 0.95565356E+03 0.12500000E+03 0.0000E+00 0.9000E+01
       24  1    1    2    0    0 -.16383884E+02 -.11825043E+02 0.55386856E+03 0.56004095E+03 0.80419002E+02 0.0000E+00 0.9000E+01
       21  1    1    2  502  501 0.13685121E+01 0.69705216E+01 0.14450323E+03 0.14467967E+03 0.75000000E+00 0.0000E+00 0.9000E+01
       21  1    1    2  501  503 0.24299249E+02 -.15847002E+01 0.29479629E+02 0.38243637E+02 0.75000000E+00 0.0000E+00 0.9000E+01
#aMCatNLO 2  0  0  2  1 0.37848962D+02 0.00000000D+00  -5  6  0 0.00000000D+00 0.00000000D+00 0.00000000D+00 0.00000000D+00 0.00000000D+00
  <mgrwgt>
 0.1420291352D+00    1    2    0
 0.109274906373851D+03 0.000000000000000D+00 0.000000000000000D+00 0.109274906373851D+03
 0.180808598807593D+03 0.000000000000000D+00 0.000000000000000D+00 -.180808598807593D+03
 0.125211248945494D+03 0.460809789499321D+01 0.552399870309426D+01 0.105248971907499D+01
 0.822268663412162D+02 -.720462059490868D+01 -.124297476811170D+02 -.936143197341532D+01
 0.111116974609913D+02 0.259652269991547D+01 0.690574897802272D+01 0.830894225434032D+01
 0.715336924337426D+02 0.000000000000000D+00 -.000000000000000D+00 -.715336924337426D+02
 0.112201343531686D+03 0.000000000000000D+00 0.000000000000000D+00 0.112201343531686D+03
 0.175829215272790D+03 0.000000000000000D+00 0.000000000000000D+00 -.175829215272790D+03
 0.125513774480872D+03 -.928721867729739D+01 0.643019588088826D+01 0.105248971907499D+01
 0.834466042055429D+02 -.163863340490241D+02 -.118309529162661D+02 -.936143197341532D+01
 0.109418391906883D+02 0.137430375612624D+01 0.698545722732715D+01 0.830894225434032D+01
 0.681283409273720D+02 0.242992489701953D+02 -.158470019194928D+01 -.636278717411036D+02
0.604219010447D-04 0.000000000000D+00 0.000000000000D+00 0.439762323341D-03 0.416875414800D-05  6 2 -1 25 24 21 21 4 0.25952186D+00 0.17992373D-02 0.14387934D+05 0.14387934D+05 0.14387934D+05 0.12498904D+01  1  2  1  2  6  2       -1 0.142029135209D+00 0.100000000000D+01
  </mgrwgt>
  </event>
  <event>
  6     66 -.42622971E-03 0.27379459E+02 0.75467711E-02 0.11754761E+00
        2 -1    0    0  502    0 0.00000000E+00 0.00000000E+00 0.84317317E+03 0.84317323E+03 0.32000000E+00 0.0000E+00 0.9000E+01
       21 -1    0    0  503  501 0.00000000E+00 0.00000000E+00 -.53193455E+02 0.53198742E+02 0.75000000E+00 0.0000E+00 0.9000E+01
       25  1    1    2    0    0 0.24061680E+02 -.44236766E+02 0.17257840E+03 0.21896155E+03 0.12500000E+03 0.0000E+00 0.9000E+01
       24  1    1    2    0    0 0.59135780E+02 0.70260234E+02 0.18963207E+03 0.22552401E+03 0.80419002E+02 0.0000E+00 0.9000E+01
        1  1    1    2  503    0 -.43580693E+02 -.18907414E+02 0.40202187E+02 0.62234118E+02 0.32000000E+00 0.0000E+00 0.9000E+01
       21  1    1    2  502  501 -.39616766E+02 -.71160538E+01 0.38756705E+03 0.38965229E+03 0.75000000E+00 0.0000E+00 0.9000E+01
#aMCatNLO 2  0  0  2  5 0.47505443D+02 0.00000000D+00  -5  6  0 0.00000000D+00 0.00000000D+00 0.00000000D+00 0.00000000D+00 0.00000000D+00
  <mgrwgt>
 -.3971883317D-01    2    2    0
 0.181220069267536D+03 0.000000000000000D+00 0.000000000000000D+00 0.181220069267536D+03
 0.181220069267536D+03 0.000000000000000D+00 0.000000000000000D+00 -.181220069267536D+03
 0.146332062311023D+03 0.658143882406166D+01 -.518206546033652D+02 -.553116342163279D+02
 0.115966153218913D+03 0.446708611904230D+02 0.639845615596138D+02 -.298567041140144D+02
 0.000000000000000D+00 -.000000000000000D+00 -.000000000000000D+00 -.000000000000000D+00
 0.100141923005136D+03 -.512523000144847D+02 -.121639069562487D+02 0.851683383303423D+02
 0.194589934437453D+03 0.000000000000000D+00 0.000000000000000D+00 0.194589934437453D+03
 0.230502672296053D+03 0.000000000000000D+00 0.000000000000000D+00 -.230502672296053D+03
 0.145671716450747D+03 0.240623058724050D+02 -.442366084835724D+02 -.553116342163279D+02
 0.125667256570130D+03 0.591362956066202D+02 0.702603670703980D+02 -.298567041140144D+02
 0.595524295373198D+02 -.435806932604505D+02 -.189074138431322D+02 -.359127378585996D+02
 0.942012041753085D+02 -.396179082185747D+02 -.711634474369339D+01 0.851683383303423D+02
-.585238801578D-05 0.000000000000D+00 0.000000000000D+00 0.101128479355D-04 0.000000000000D+00  6 2 21 25 24 1 21 4 0.12080636D+00 0.86067554D-02 0.29685339D+05 0.29685339D+05 0.29685339D+05 0.12153793D+01  1  2 13  5  5  2       -1 -.620540341242D-01 0.100000000000D+01
0.211136902441D-05 0.000000000000D+00 0.000000000000D+00 0.103267988243D-04 0.241081145067D-08  6 2 21 25 24 1 21 4 0.12971908D+00 0.81840024D-02 0.29685339D+05 0.29685339D+05 0.29685339D+05 0.12153793D+01  1  2  1  5  5  2       -1 0.223352009493D-01 0.100000000000D+01
  </mgrwgt>
  </event>
  <event>
  5     66 0.42622971E-03 0.23064312E+02 0.75467711E-02 0.12432831E+00
        2 -1    0    0  502    0 0.00000000E+00 0.00000000E+00 0.31376345E+04 0.31376346E+04 0.32000000E+00 0.0000E+00 0.9000E+01
       -1 -1    0    0    0  501 0.00000000E+00 0.00000000E+00 -.50670748E+01 0.50771692E+01 0.32000000E+00 0.0000E+00 0.9000E+01
       25  1    1    2    0    0 -.25791092E+02 -.29191287E+02 0.12410764E+04 0.12479635E+04 0.12500000E+03 0.0000E+00 0.9000E+01
       24  1    1    2    0    0 0.16183298E+02 0.82289456E+01 0.11765213E+04 0.11794063E+04 0.80419002E+02 0.0000E+00 0.9000E+01
       21  1    1    2  502  501 0.96077942E+01 0.20962341E+02 0.71496973E+03 0.71534188E+03 0.75000000E+00 0.0000E+00 0.9000E+01
#aMCatNLO 1  0  0  5  2 0.40071378D+01 0.00000000D+00  -5  6  0 0.00000000D+00 0.00000000D+00 0.00000000D+00 0.00000000D+00 0.00000000D+00
  <mgrwgt>
 0.3794361821D+01   14    2    0
 0.126152750106706D+03 0.000000000000000D+00 0.000000000000000D+00 0.126152750106706D+03
 0.126152750106706D+03 -.000000000000000D+00 -.000000000000000D+00 -.126152750106706D+03
 0.135686548922490D+03 -.257923966101710D+02 -.291941329934060D+02 -.356131216598931D+02
 0.832383029571001D+02 0.161824974484163D+02 0.822719940152857D+01 0.114821204987116D+02
 0.333806483338211D+02 0.960989916175471D+01 0.209669335918774D+02 0.241310011611815D+02
 0.000000000000000D+00 -.000000000000000D+00 0.000000000000000D+00 0.000000000000000D+00
 0.126152750106706D+03 0.000000000000000D+00 0.000000000000000D+00 0.126152750106706D+03
 0.126152750106706D+03 -.000000000000000D+00 -.000000000000000D+00 -.126152750106706D+03
 0.134694182784779D+03 -.250225690680171D+02 -.275145188078819D+02 -.336800410935999D+02
 0.836131699763456D+02 0.166575566676960D+02 0.926368635474095D+01 0.126750211087087D+02
 0.299436538268426D+02 0.106490286277498D+02 0.207522216467107D+02 0.187767380157721D+02
 0.405449362544412D+01 -.228401622742867D+01 -.250138919356980D+01 0.222828196911920D+01
0.378926800789D-02 0.000000000000D+00 0.000000000000D+00 0.482141084167D-04 0.000000000000D+00  6 2 -1 25 24 21 21 2 0.48271379D+00 0.78032771D-03 0.13975545D+05 0.13975545D+05 0.13975545D+05 0.12513402D+01  1  2  2  3  6  5       21 0.315998411526D+01 0.100000000000D+01
0.458564623361D-03 0.199965166509D-03 -.145517868875D-04 0.482141084167D-04 0.000000000000D+00  6 2 -1 25 24 21 21 4 0.48271379D+00 0.78032771D-03 0.13975545D+05 0.13975545D+05 0.13975545D+05 0.12513402D+01  1  2  3  3  6  5       21 0.598798809936D+00 0.100000000000D+01
0.183734068209D-03 0.000000000000D+00 0.000000000000D+00 0.482141084167D-04 0.000000000000D+00  6 2 -1 25 24 21 21 4 0.48271379D+00 0.78032771D-03 0.13975545D+05 0.13975545D+05 0.13975545D+05 0.12513402D+01  1  2 15  3  6  5       21 0.239921999612D+00 0.100000000000D+01
0.160785027621D-03 0.000000000000D+00 0.000000000000D+00 0.481064403575D-04 0.000000000000D+00  6 2 -1 25 24 21 21 4 0.48271379D+00 0.78032771D-03 0.14372962D+05 0.14372962D+05 0.14372962D+05 0.12499422D+01  1  2 12  3  6  5       21 0.209008018887D+00 0.100000000000D+01
-.347693443505D-02 0.000000000000D+00 0.000000000000D+00 0.482141084167D-04 0.000000000000D+00  6 2 -1 25 24 21 21 4 0.48271379D+00 0.78032771D-03 0.13975545D+05 0.13975545D+05 0.13975545D+05 0.12513402D+01  1  2  4  3  6  5       21 -.454021984223D+01 0.100000000000D+01
0.290507416343D-02 0.000000000000D+00 0.000000000000D+00 0.482141084167D-04 0.782328506180D-05  6 2 -1 25 24 21 21 4 0.48271379D+00 0.78032771D-03 0.14372962D+05 0.14372962D+05 0.14372962D+05 0.12499422D+01  1  2 11  3  6  5       21 0.377637025414D+01 0.100000000000D+01
0.444293553787D-05 0.000000000000D+00 0.000000000000D+00 0.481064403575D-04 0.000000000000D+00  6 2 -1 25 24 1 -1 4 0.48271379D+00 0.78032771D-03 0.14372962D+05 0.14372962D+05 0.14372962D+05 0.12499422D+01  1  2 12  6  6  5       21 0.577547031929D-02 0.100000000000D+01
0.609942048500D-04 0.000000000000D+00 0.000000000000D+00 0.481064403575D-04 0.208780770332D-06  6 2 -1 25 24 1 -1 4 0.48271379D+00 0.78032771D-03 0.14372962D+05 0.14372962D+05 0.14372962D+05 0.12499422D+01  1  2 11  6  6  5       21 0.792877179417D-01 0.100000000000D+01
0.444293553787D-05 0.000000000000D+00 0.000000000000D+00 0.481064403575D-04 0.000000000000D+00  6 2 -1 25 24 2 -2 4 0.48271379D+00 0.78032771D-03 0.14372962D+05 0.14372962D+05 0.14372962D+05 0.12499422D+01  1  2 12  7  6  5       21 0.577547031929D-02 0.100000000000D+01
0.634601041971D-04 0.000000000000D+00 0.000000000000D+00 0.481064403575D-04 0.207156722060D-06  6 2 -1 25 24 2 -2 4 0.48271379D+00 0.78032771D-03 0.14372962D+05 0.14372962D+05 0.14372962D+05 0.12499422D+01  1  2 11  7  6  5       21 0.824931951241D-01 0.100000000000D+01
0.444293553787D-05 0.000000000000D+00 0.000000000000D+00 0.481064403575D-04 0.000000000000D+00  6 2 -1 25 24 3 -3 4 0.48271379D+00 0.78032771D-03 0.14372962D+05 0.14372962D+05 0.14372962D+05 0.12499422D+01  1  2 12  8  6  5       21 0.577547031929D-02 0.100000000000D+01
0.444293553787D-05 0.000000000000D+00 0.000000000000D+00 0.481064403575D-04 0.000000000000D+00  6 2 -1 25 24 4 -4 4 0.48271379D+00 0.78032771D-03 0.14372962D+05 0.14372962D+05 0.14372962D+05 0.12499422D+01  1  2 12  8  6  5       21 0.577547031929D-02 0.100000000000D+01
0.637021499127D-04 0.000000000000D+00 0.000000000000D+00 0.481064403575D-04 0.200570084293D-06  6 2 -1 25 24 3 -3 4 0.48271379D+00 0.78032771D-03 0.14372962D+05 0.14372962D+05 0.14372962D+05 0.12499422D+01  1  2 11  8  6  5       21 0.828078357113D-01 0.100000000000D+01
0.637021499127D-04 0.000000000000D+00 0.000000000000D+00 0.481064403575D-04 0.200570084293D-06  6 2 -1 25 24 4 -4 4 0.48271379D+00 0.78032771D-03 0.14372962D+05 0.14372962D+05 0.14372962D+05 0.12499422D+01  1  2 11  8  6  5       21 0.828078357113D-01 0.100000000000D+01
  </mgrwgt>
  </event>
  <event>
  5     66 0.42622971E-03 0.25230906E+02 0.75467711E-02 0.11706324E+00
        2 -1    0    0  502    0 0.00000000E+00 0.00000000E+00 0.19284282E+04 0.19284283E+04 0.32000000E+00 0.0000E+00 0.9000E+01
       -1 -1    0    0    0  501 0.00000000E+00 0.00000000E+00 -.18631849E+02 0.18634597E+02 0.32000000E+00 0.0000E+00 0.9000E+01
       25  1    1    2    0    0 0.70365874E+01 0.11305274E+02 0.39872846E+03 0.41807501E+03 0.12500000E+03 0.0000E+00 0.9000E+01
       24  1    1    2    0    0 -.28406493E+02 -.24718383E+02 0.21423090E+03 0.23190520E+03 0.80419002E+02 0.0000E+00 0.9000E+01
       21  1    1    2  502  501 0.21369905E+02 0.13413110E+02 0.12968370E+04 0.12970826E+04 0.75000000E+00 0.0000E+00 0.9000E+01
#aMCatNLO 1  0  0  5  2 0.92092443D+02 0.00000000D+00  -5  6  0 0.00000000D+00 0.00000000D+00 0.00000000D+00 0.00000000D+00 0.00000000D+00
  <mgrwgt>
 0.4833037438D+00    4    2    0
 0.189559713482811D+03 0.000000000000000D+00 0.000000000000000D+00 0.189559713482811D+03
 0.189559713482811D+03 -.000000000000000D+00 -.000000000000000D+00 -.189559713482811D+03
 0.138553323801764D+03 0.703645488575989D+01 0.113051905193424D+02 -.582640927714368D+02
 0.111829574640046D+03 -.284065997685284D+02 -.247184506019094D+02 -.679757390488303D+02
 0.128736528523813D+03 0.213701448827685D+02 0.134132600825671D+02 0.126239831820267D+03
 0.000000000000000D+00 0.000000000000000D+00 0.000000000000000D+00 -.000000000000000D+00
 0.189559713482811D+03 0.000000000000000D+00 0.000000000000000D+00 0.189559713482811D+03
 0.189559713482811D+03 -.000000000000000D+00 -.000000000000000D+00 -.189559713482811D+03
 0.127276368285181D+03 0.164630223920153D+02 0.172219029394455D+02 -.257854158962778D+01
 0.894195053969232D+02 -.212701206805572D+02 -.202391431098043D+02 -.258184244963791D+02
 0.855034789476724D+02 -.673646708039563D+02 -.973163510326721D+01 0.517507615194841D+02
 0.769200743358459D+02 0.721717690924983D+02 0.127488752736260D+02 -.233537954334772D+02
0.657287943743D-03 0.000000000000D+00 0.000000000000D+00 0.676305867528D-04 0.000000000000D+00  6 2 -1 25 24 21 21 2 0.29668148D+00 0.28666518D-02 0.14368405D+05 0.14368405D+05 0.14368405D+05 0.12499580D+01  1  2  2  3  6  5       21 0.380913368212D+00 0.100000000000D+01
0.102351154415D-03 0.346860377364D-04 -.252415877186D-05 0.676305867528D-04 0.000000000000D+00  6 2 -1 25 24 21 21 4 0.29668148D+00 0.28666518D-02 0.14368405D+05 0.14368405D+05 0.14368405D+05 0.12499580D+01  1  2  3  3  6  5       21 0.926731978173D-01 0.100000000000D+01
0.244696919023D-04 0.000000000000D+00 0.000000000000D+00 0.676305867528D-04 0.000000000000D+00  6 2 -1 25 24 21 21 4 0.29668148D+00 0.28666518D-02 0.14368405D+05 0.14368405D+05 0.14368405D+05 0.12499580D+01  1  2 15  3  6  5       21 0.221559259508D-01 0.100000000000D+01
-.137377392904D-04 0.000000000000D+00 0.000000000000D+00 0.676305867528D-04 0.000000000000D+00  6 2 -1 25 24 21 21 4 0.29668148D+00 0.28666518D-02 0.14368405D+05 0.14368405D+05 0.14368405D+05 0.12499580D+01  1  2  4  3  6  5       21 -.124387481323D-01 0.100000000000D+01
  </mgrwgt>
  </event>
  <event>
  5     66 0.42622971E-03 0.49587846E+02 0.75467711E-02 0.12192819E+00
        2 -1    0    0  502    0 0.00000000E+00 0.00000000E+00 0.92622976E+03 0.92622982E+03 0.32000000E+00 0.0000E+00 0.9000E+01
       -1 -1    0    0    0  501 0.00000000E+00 0.00000000E+00 -.33661495E+02 0.33663016E+02 0.32000000E+00 0.0000E+00 0.9000E+01
       25  1    1    2    0    0 -.23598944E+02 0.17535368E+02 0.25526961E+03 0.28574809E+03 0.12500000E+03 0.0000E+00 0.9000E+01
       24  1    1    2    0    0 -.18606180E+02 -.43566077E+02 0.10890287E+03 0.14342679E+03 0.80419002E+02 0.0000E+00 0.9000E+01
       21  1    1    2  502  501 0.42205124E+02 0.26030709E+02 0.52839580E+03 0.53071796E+03 0.75000000E+00 0.0000E+00 0.9000E+01
#aMCatNLO 1  0  0  5  2 0.20047860D+00 0.00000000D+00  -5  6  0 0.00000000D+00 0.00000000D+00 0.00000000D+00 0.00000000D+00 0.00000000D+00
  <mgrwgt>
 0.1056227238D+00   15    2    0
 0.176575862104726D+03 0.000000000000000D+00 0.000000000000000D+00 0.176575862104726D+03
 0.176575862104726D+03 -.000000000000000D+00 -.000000000000000D+00 -.176575862104726D+03
 0.131507423482330D+03 -.235993302450146D+02 0.175351305670185D+02 -.283688779994089D+02
 0.114600331442327D+03 -.186065161950778D+02 -.435662848131830D+02 -.664965893484732D+02
 0.107043969284796D+03 0.422058464400924D+02 0.260311542461645D+02 0.948654673478821D+02
 0.000000000000000D+00 0.000000000000000D+00 0.000000000000000D+00 0.000000000000000D+00
 0.176575862104726D+03 0.000000000000000D+00 0.000000000000000D+00 0.176575862104726D+03
 0.176575862104726D+03 -.000000000000000D+00 -.000000000000000D+00 -.176575862104726D+03
 0.131504967980198D+03 -.235951110802714D+02 0.175377328066958D+02 -.283593946441644D+02
 0.114594077480261D+03 -.186028395281189D+02 -.435640171679918D+02 -.664883253576104D+02
 0.106334428991101D+03 0.417424873518611D+02 0.258623916367182D+02 0.943170834863564D+02
 0.718249757892816D+00 0.455463256529188D+00 0.163892724577787D+00 0.530636515418403D+00
0.186417089731D-04 0.000000000000D+00 0.000000000000D+00 0.134022267120D-04 0.000000000000D+00  6 2 -1 25 24 21 21 2 0.14249701D+00 0.51788128D-02 0.18405539D+05 0.18405539D+05 0.18405539D+05 0.12378182D+01  1  2  2  3  6  5       21 0.154356005709D-01 0.100000000000D+01
0.481288898459D-07 0.983750009516D-06 -.715890709314D-07 0.134022267120D-04 0.000000000000D+00  6 2 -1 25 24 21 21 4 0.14249701D+00 0.51788128D-02 0.18405539D+05 0.18405539D+05 0.18405539D+05 0.12378182D+01  1  2  3  3  6  5       21 0.610600799187D-04 0.100000000000D+01
0.511477044273D-06 0.000000000000D+00 0.000000000000D+00 0.134022267120D-04 0.000000000000D+00  6 2 -1 25 24 21 21 4 0.14249701D+00 0.51788128D-02 0.18405539D+05 0.18405539D+05 0.18405539D+05 0.12378182D+01  1  2 15  3  6  5       21 0.648899845807D-03 0.100000000000D+01
-.171067674150D-01 0.000000000000D+00 0.000000000000D+00 0.134022267120D-04 0.000000000000D+00  6 2 -1 25 24 21 21 4 0.14249701D+00 0.51788128D-02 0.18405539D+05 0.18405539D+05 0.18405539D+05 0.12378182D+01  1  2  4  3  6  5       21 -.217029852311D+02 0.100000000000D+01
-.233472128226D-01 0.000000000000D+00 0.000000000000D+00 0.134022267120D-04 0.000000000000D+00  6 2 -1 25 24 21 21 4 0.14249701D+00 0.51788128D-02 0.18405539D+05 0.18405539D+05 0.18405539D+05 0.12378182D+01  1  2  5  3  6  5       21 -.296201031313D+02 0.100000000000D+01
0.235024013657D-01 0.000000000000D+00 -.000000000000D+00 0.134022267120D-04 0.000000000000D+00  6 2 -1 25 24 21 21 4 0.14249701D+00 0.51788128D-02 0.18405539D+05 0.18405539D+05 0.18405539D+05 0.12378182D+01  1  2  6  3  6  5       21 0.298169874740D+02 0.100000000000D+01
0.170225985419D-01 0.000000000000D+00 0.000000000000D+00 0.134022267120D-04 0.222668561683D-02  6 2 -1 25 24 21 21 4 0.14249701D+00 0.51788128D-02 0.18405400D+05 0.18405400D+05 0.18405400D+05 0.12378185D+01  1  2 11  3  6  5       21 0.215962243483D+02 0.100000000000D+01
-.129008234705D-04 0.000000000000D+00 0.000000000000D+00 0.134022267120D-04 0.000000000000D+00  6 2 -1 25 24 1 -1 4 0.14249701D+00 0.51788128D-02 0.18405539D+05 0.18405539D+05 0.18405539D+05 0.12378182D+01  1  2  5  6  6  5       21 -.163669952631D-01 0.100000000000D+01
0.126610800369D-04 0.000000000000D+00 0.000000000000D+00 0.134022267120D-04 0.322117347566D-05  6 2 -1 25 24 1 -1 4 0.14249701D+00 0.51788128D-02 0.18405400D+05 0.18405400D+05 0.18405400D+05 0.12378185D+01  1  2 11  6  6  5       21 0.160628545810D-01 0.100000000000D+01
-.129008234705D-04 0.000000000000D+00 0.000000000000D+00 0.134022267120D-04 0.000000000000D+00  6 2 -1 25 24 2 -2 4 0.14249701D+00 0.51788128D-02 0.18405539D+05 0.18405539D+05 0.18405539D+05 0.12378182D+01  1  2  5  7  6  5       21 -.163669952631D-01 0.100000000000D+01
0.128133725862D-04 0.000000000000D+00 0.000000000000D+00 0.134022267120D-04 0.325473771799D-05  6 2 -1 25 24 2 -2 4 0.14249701D+00 0.51788128D-02 0.18405400D+05 0.18405400D+05 0.18405400D+05 0.12378185D+01  1  2 11  7  6  5       21 0.162560650390D-01 0.100000000000D+01
-.129008234705D-04 0.000000000000D+00 0.000000000000D+00 0.134022267120D-04 0.000000000000D+00  6 2 -1 25 24 3 -3 4 0.14249701D+00 0.51788128D-02 0.18405539D+05 0.18405539D+05 0.18405539D+05 0.12378182D+01  1  2  5  8  6  5       21 -.163669952631D-01 0.100000000000D+01
-.129008234705D-04 0.000000000000D+00 0.000000000000D+00 0.134022267120D-04 0.000000000000D+00  6 2 -1 25 24 4 -4 4 0.14249701D+00 0.51788128D-02 0.18405539D+05 0.18405539D+05 0.18405539D+05 0.12378182D+01  1  2  5  8  6  5       21 -.163669952631D-01 0.100000000000D+01
0.128096816115D-04 0.000000000000D+00 0.000000000000D+00 0.134022267120D-04 0.325362061943D-05  6 2 -1 25 24 3 -3 4 0.14249701D+00 0.51788128D-02 0.18405400D+05 0.18405400D+05 0.18405400D+05 0.12378185D+01  1  2 11  8  6  5       21 0.162513823745D-01 0.100000000000D+01
0.128096816115D-04 0.000000000000D+00 0.000000000000D+00 0.134022267120D-04 0.325362061943D-05  6 2 -1 25 24 4 -4 4 0.14249701D+00 0.51788128D-02 0.18405400D+05 0.18405400D+05 0.18405400D+05 0.12378185D+01  1  2 11  8  6  5       21 0.162513823745D-01 0.100000000000D+01
  </mgrwgt>
  </event>
  <event>
  6     66 0.42622971E-03 0.52533569E+02 0.75467711E-02 0.11957974E+00
        2 -1    0    0  502    0 0.00000000E+00 0.00000000E+00 0.21416263E+04 0.21416263E+04 0.32000000E+00 0.0000E+00 0.9000E+01
       21 -1    0    0  503  501 0.00000000E+00 0.00000000E+00 -.38901359E+02 0.38908588E+02 0.75000000E+00 0.0000E+00 0.9000E+01
       25  1    1    2    0    0 -.19716985E+02 0.11930622E+02 0.15894712E+04 0.15945453E+04 0.12500000E+03 0.0000E+00 0.9000E+01
       24  1    1    2    0    0 0.34043808E+02 -.66618858E+02 0.42845339E+03 0.44230823E+03 0.80419002E+02 0.0000E+00 0.9000E+01
        1  1    1    2  503    0 -.26262150E+02 0.52408416E+02 0.61923196E+00 0.58624469E+02 0.32000000E+00 0.0000E+00 0.9000E+01
       21  1    1    2  502  501 0.11935327E+02 0.22798194E+01 0.84181158E+02 0.85056919E+02 0.75000000E+00 0.0000E+00 0.9000E+01
#aMCatNLO 2  0  0  2  5 0.91731561D-01 0.00000000D+00  -5  6  0 0.00000000D+00 0.00000000D+00 0.00000000D+00 0.00000000D+00 0.00000000D+00
  <mgrwgt>
 0.6789613137D+00    1    2    0
 0.141614945661655D+03 0.000000000000000D+00 0.000000000000000D+00 0.141614945661655D+03
 0.141614945661655D+03 0.000000000000000D+00 0.000000000000000D+00 -.141614945661655D+03
 0.153195118552836D+03 -.334575064071874D+02 0.393222501195892D+02 0.719590179127187D+02
 0.118273214403225D+03 0.225997984813232D+02 -.438035579766651D+02 -.713570929066566D+02
 0.000000000000000D+00 -.000000000000000D+00 0.000000000000000D+00 -.000000000000000D+00
 0.117615583672482D+02 0.108577079258642D+02 0.448130785707584D+01 -.601925006062038D+00
 0.146644563349011D+03 0.000000000000000D+00 0.000000000000000D+00 0.146644563349011D+03
 0.568176625587217D+03 0.000000000000000D+00 0.000000000000000D+00 -.568176625587217D+03
 0.146063481785896D+03 -.197287926054775D+02 0.119254012421302D+02 0.719590179127187D+02
 0.130980762586795D+03 0.340345125051161D+02 -.666225297020281D+02 -.713570929066566D+02
 0.425588559576306D+03 -.262621495247577D+02 0.524084158297049D+02 -.421532062238206D+03
 0.121883849872308D+02 0.119564296251191D+02 0.228871263019292D+01 -.601925006062038D+00
0.183871843747D-03 0.000000000000D+00 0.000000000000D+00 0.111424089957D-03 0.110770199644D-06  6 2 21 25 24 1 21 4 0.32948139D+00 0.59853800D-02 0.23675767D+05 0.23675767D+05 0.23675767D+05 0.12258399D+01  1  2  1  5  5  2       -1 0.678961313732D+00 0.100000000000D+01
  </mgrwgt>
  </event>
  <event>
  5     66 -.42622971E-03 0.53693245E+02 0.75467711E-02 0.11846673E+00
        4 -1    0    0  502    0 0.00000000E+00 0.00000000E+00 0.11425276E+04 0.11425287E+04 0.15500000E+01 0.0000E+00 0.9000E+01
       -3 -1    0    0    0  501 0.00000000E+00 0.00000000E+00 -.30405399E+02 0.30409510E+02 0.50000000E+00 0.0000E+00 0.9000E+01
       25  1    1    2    0    0 -.69463057E+02 -.23585915E+02 0.26579204E+03 0.30274051E+03 0.12500000E+03 0.0000E+00 0.9000E+01
       24  1    1    2    0    0 0.65027074E+02 0.77091716E+02 0.73913688E+03 0.75030807E+03 0.80419002E+02 0.0000E+00 0.9000E+01
       21  1    1    2  502  501 0.44359826E+01 -.53505801E+02 0.10719328E+03 0.11988958E+03 0.75000000E+00 0.0000E+00 0.9000E+01
#aMCatNLO 1  0  0  5  2 0.47376773D+01 0.00000000D+00  -5  6  0 0.00000000D+00 0.00000000D+00 0.00000000D+00 0.00000000D+00 0.00000000D+00
  <mgrwgt>
 -.1092818146D-02   25    2    0
 0.186392154091000D+03 0.000000000000000D+00 0.000000000000000D+00 0.186392154091000D+03
 0.186392154091000D+03 -.000000000000000D+00 -.000000000000000D+00 -.186392154091000D+03
 0.159616371782072D+03 -.694632187455996D+02 -.235839619412033D+02 -.668658666400840D+02
 0.155733246545736D+03 0.650269161804571D+02 0.770936221767701D+02 0.872565282201270D+02
 0.574346898541912D+02 0.443630256514259D+01 -.535096602355668D+02 -.203906615800430D+02
 0.000000000000000D+00 0.000000000000000D+00 0.000000000000000D+00 -.000000000000000D+00
 0.186392154091000D+03 0.000000000000000D+00 0.000000000000000D+00 0.186392154091000D+03
 0.186392154091000D+03 -.000000000000000D+00 -.000000000000000D+00 -.186392154091000D+03
 0.159710888150433D+03 -.694344605141165D+02 -.239308371087649D+02 -.669980486446254D+02
 0.155505655630592D+03 0.650549459841050D+02 0.767555331380613D+02 0.871276943022534D+02
 0.200420483864066D+02 0.494151663155173D+01 -.190514754526018D+02 -.378238020062369D+01
 0.375257160145676D+02 -.562002101540185D+00 -.337732205766947D+02 -.163472654570043D+02
0.584744798477D-04 0.000000000000D+00 0.000000000000D+00 0.521794039433D-05 0.000000000000D+00  6 4 -3 25 24 21 21 2 0.17577387D+00 0.46781508D-02 0.26833993D+05 0.26833993D+05 0.26833993D+05 0.12200150D+01  1  2  2  3  6  5       21 0.935691792381D-03 0.100000000000D+01
0.107255803432D-05 0.308578307867D-05 -.224557399299D-06 0.521794039433D-05 0.000000000000D+00  6 4 -3 25 24 21 21 4 0.17577387D+00 0.46781508D-02 0.26833993D+05 0.26833993D+05 0.26833993D+05 0.12200150D+01  1  2  3  3  6  5       21 0.255456886917D-04 0.100000000000D+01
0.197975347807D-05 0.000000000000D+00 0.000000000000D+00 0.521794039433D-05 0.000000000000D+00  6 4 -3 25 24 21 21 4 0.17577387D+00 0.46781508D-02 0.26833993D+05 0.26833993D+05 0.26833993D+05 0.12200150D+01  1  2 15  3  6  5       21 0.471528480684D-04 0.100000000000D+01
0.261701091299D-04 0.000000000000D+00 0.000000000000D+00 0.521885252687D-05 0.000000000000D+00  6 4 -3 25 24 21 21 4 0.17577387D+00 0.46781508D-02 0.26772109D+05 0.26772109D+05 0.26772109D+05 0.12201217D+01  1  2 12  3  6  5       21 0.623444392503D-03 0.100000000000D+01
0.260382280398D-04 0.000000000000D+00 0.000000000000D+00 0.521885252687D-05 0.000000000000D+00  6 4 -3 25 24 21 21 4 0.17577387D+00 0.46781508D-02 0.26772109D+05 0.26772109D+05 0.26772109D+05 0.12201217D+01  1  2 12  3  6  5       21 0.620302620121D-03 0.100000000000D+01
-.702039730883D-03 0.000000000000D+00 0.000000000000D+00 0.521794039433D-05 0.000000000000D+00  6 4 -3 25 24 21 21 4 0.17577387D+00 0.46781508D-02 0.26833993D+05 0.26833993D+05 0.26833993D+05 0.12200150D+01  1  2  4  3  6  5       21 -.167208559727D-01 0.100000000000D+01
-.172854405276D-03 0.000000000000D+00 0.000000000000D+00 0.521794039433D-05 0.000000000000D+00  6 4 -3 25 24 21 21 4 0.17577387D+00 0.46781508D-02 0.26833993D+05 0.26833993D+05 0.26833993D+05 0.12200150D+01  1  2  5  3  6  5       21 -.411696587490D-02 0.100000000000D+01
0.608438514404D-03 0.000000000000D+00 -.000000000000D+00 0.521794039433D-05 0.000000000000D+00  6 4 -3 25 24 21 21 4 0.17577387D+00 0.46781508D-02 0.26833993D+05 0.26833993D+05 0.26833993D+05 0.12200150D+01  1  2  6  3  6  5       21 0.144915057084D-01 0.100000000000D+01
0.126306214749D-03 0.000000000000D+00 0.000000000000D+00 0.521794039433D-05 0.128269120994D-05  6 4 -3 25 24 21 21 4 0.17577387D+00 0.46781508D-02 0.26772109D+05 0.26772109D+05 0.26772109D+05 0.12201217D+01  1  2 11  3  6  5       21 0.300896342973D-02 0.100000000000D+01
0.201098539749D-05 0.000000000000D+00 0.000000000000D+00 0.521885252687D-05 0.000000000000D+00  6 4 -3 25 24 3 -3 4 0.17577387D+00 0.46781508D-02 0.26772109D+05 0.26772109D+05 0.26772109D+05 0.12201217D+01  1  2 12  6  6  5       21 0.479072350540D-04 0.100000000000D+01
0.200194979768D-05 0.000000000000D+00 0.000000000000D+00 0.521885252687D-05 0.000000000000D+00  6 4 -3 25 24 3 -3 4 0.17577387D+00 0.46781508D-02 0.26772109D+05 0.26772109D+05 0.26772109D+05 0.12201217D+01  1  2 12  6  6  5       21 0.476919820716D-04 0.100000000000D+01
-.127152455229D-04 0.000000000000D+00 0.000000000000D+00 0.521794039433D-05 0.000000000000D+00  6 4 -3 25 24 3 -3 4 0.17577387D+00 0.46781508D-02 0.26833993D+05 0.26833993D+05 0.26833993D+05 0.12200150D+01  1  2  5  6  6  5       21 -.302845807287D-03 0.100000000000D+01
0.867747548312D-05 0.000000000000D+00 0.000000000000D+00 0.521794039433D-05 0.381518193456D-07  6 4 -3 25 24 3 -3 4 0.17577387D+00 0.46781508D-02 0.26772109D+05 0.26772109D+05 0.26772109D+05 0.12201217D+01  1  2 11  6  6  5       21 0.206721470063D-03 0.100000000000D+01
0.201098539749D-05 0.000000000000D+00 0.000000000000D+00 0.521885252687D-05 0.000000000000D+00  6 4 -3 25 24 4 -4 4 0.17577387D+00 0.46781508D-02 0.26772109D+05 0.26772109D+05 0.26772109D+05 0.12201217D+01  1  2 12  7  6  5       21 0.479072350540D-04 0.100000000000D+01
0.200194979768D-05 0.000000000000D+00 0.000000000000D+00 0.521885252687D-05 0.000000000000D+00  6 4 -3 25 24 4 -4 4 0.17577387D+00 0.46781508D-02 0.26772109D+05 0.26772109D+05 0.26772109D+05 0.12201217D+01  1  2 12  7  6  5       21 0.476919820716D-04 0.100000000000D+01
-.127152455229D-04 0.000000000000D+00 0.000000000000D+00 0.521794039433D-05 0.000000000000D+00  6 4 -3 25 24 4 -4 4 0.17577387D+00 0.46781508D-02 0.26833993D+05 0.26833993D+05 0.26833993D+05 0.12200150D+01  1  2  5  7  6  5       21 -.302845807287D-03 0.100000000000D+01
0.858739481012D-05 0.000000000000D+00 0.000000000000D+00 0.521794039433D-05 0.377471680504D-07  6 4 -3 25 24 4 -4 4 0.17577387D+00 0.46781508D-02 0.26772109D+05 0.26772109D+05 0.26772109D+05 0.12201217D+01  1  2 11  7  6  5       21 0.204575499247D-03 0.100000000000D+01
0.201098539749D-05 0.000000000000D+00 0.000000000000D+00 0.521885252687D-05 0.000000000000D+00  6 4 -3 25 24 1 -1 4 0.17577387D+00 0.46781508D-02 0.26772109D+05 0.26772109D+05 0.26772109D+05 0.12201217D+01  1  2 12  8  6  5       21 0.479072350540D-04 0.100000000000D+01
0.201098539749D-05 0.000000000000D+00 0.000000000000D+00 0.521885252687D-05 0.000000000000D+00  6 4 -3 25 24 2 -2 4 0.17577387D+00 0.46781508D-02 0.26772109D+05 0.26772109D+05 0.26772109D+05 0.12201217D+01  1  2 12  8  6  5       21 0.479072350540D-04 0.100000000000D+01
0.200194979768D-05 0.000000000000D+00 0.000000000000D+00 0.521885252687D-05 0.000000000000D+00  6 4 -3 25 24 1 -1 4 0.17577387D+00 0.46781508D-02 0.26772109D+05 0.26772109D+05 0.26772109D+05 0.12201217D+01  1  2 12  8  6  5       21 0.476919820716D-04 0.100000000000D+01
0.200194979768D-05 0.000000000000D+00 0.000000000000D+00 0.521885252687D-05 0.000000000000D+00  6 4 -3 25 24 2 -2 4 0.17577387D+00 0.46781508D-02 0.26772109D+05 0.26772109D+05 0.26772109D+05 0.12201217D+01  1  2 12  8  6  5       21 0.476919820716D-04 0.100000000000D+01
-.127152455229D-04 0.000000000000D+00 0.000000000000D+00 0.521794039433D-05 0.000000000000D+00  6 4 -3 25 24 1 -1 4 0.17577387D+00 0.46781508D-02 0.26833993D+05 0.26833993D+05 0.26833993D+05 0.12200150D+01  1  2  5  8  6  5       21 -.302845807287D-03 0.100000000000D+01
-.127152455229D-04 0.000000000000D+00 0.000000000000D+00 0.521794039433D-05 0.000000000000D+00  6 4 -3 25 24 2 -2 4 0.17577387D+00 0.46781508D-02 0.26833993D+05 0.26833993D+05 0.26833993D+05 0.12200150D+01  1  2  5  8  6  5       21 -.302845807287D-03 0.100000000000D+01
0.860703178836D-05 0.000000000000D+00 0.000000000000D+00 0.521794039433D-05 0.377888665299D-07  6 4 -3 25 24 1 -1 4 0.17577387D+00 0.46781508D-02 0.26772109D+05 0.26772109D+05 0.26772109D+05 0.12201217D+01  1  2 11  8  6  5       21 0.205043306389D-03 0.100000000000D+01
0.860703178836D-05 0.000000000000D+00 0.000000000000D+00 0.521794039433D-05 0.377888665299D-07  6 4 -3 25 24 2 -2 4 0.17577387D+00 0.46781508D-02 0.26772109D+05 0.26772109D+05 0.26772109D+05 0.12201217D+01  1  2 11  8  6  5       21 0.205043306389D-03 0.100000000000D+01
  </mgrwgt>
  </event>
  <event>
  5     66 0.42622971E-03 0.22736458E+02 0.75467711E-02 0.11559975E+00
        2 -1    0    0  502    0 0.00000000E+00 0.00000000E+00 0.72529092E+03 0.72529099E+03 0.32000000E+00 0.0000E+00 0.9000E+01
       -1 -1    0    0    0  501 0.00000000E+00 0.00000000E+00 -.53765231E+02 0.53766183E+02 0.32000000E+00 0.0000E+00 0.9000E+01
       25  1    1    2    0    0 -.11570125E+03 -.52157109E+02 0.17561468E+03 0.25014528E+03 0.12500000E+03 0.0000E+00 0.9000E+01
       24  1    1    2    0    0 0.11796472E+03 0.74770802E+02 0.43439686E+03 0.46332947E+03 0.80419002E+02 0.0000E+00 0.9000E+01
       21  1    1    2  502  501 -.22634725E+01 -.22613692E+02 0.61514142E+02 0.65582426E+02 0.75000000E+00 0.0000E+00 0.9000E+01
#aMCatNLO 1  0  0  1  2 0.22837702D+02 0.00000000D+00  -5  6  0 0.00000000D+00 0.00000000D+00 0.00000000D+00 0.00000000D+00 0.00000000D+00
  <mgrwgt>
 0.8435969108D+00    7    4    0
 0.197473623361392D+03 0.000000000000000D+00 0.000000000000000D+00 0.197473623361392D+03
 0.197473623361392D+03 0.000000000000000D+00 0.000000000000000D+00 -.197473623361392D+03
 0.194829552522930D+03 -.115700733952298D+03 -.521519935602998D+02 -.789117498657265D+02
 0.175345141837447D+03 0.117965179348773D+03 0.747754060972054D+02 0.690764642684737D+02
 0.247725523624063D+02 -.226444539647452D+01 -.226234125369056D+02 0.983528559725282D+01
 0.000000000000000D+00 -.000000000000000D+00 -.000000000000000D+00 0.000000000000000D+00
 0.215457932650372D+03 0.000000000000000D+00 0.000000000000000D+00 0.215457932650372D+03
 0.205189180540166D+03 0.000000000000000D+00 0.000000000000000D+00 -.205189180540166D+03
 0.189902813907895D+03 -.111638798393590D+03 -.418066161809437D+02 -.789117498657265D+02
 0.182155789130910D+03 0.121739610279145D+03 0.843885355530131D+02 0.690764642684737D+02
 0.235483841756581D+02 -.175428158526490D+01 -.213240720929295D+02 0.983528559725282D+01
 0.250401259760759D+02 -.834653030028974D+01 -.212578472791399D+02 0.102687521102061D+02
 0.197473623361392D+03 0.000000000000000D+00 0.000000000000000D+00 0.197473623361392D+03
 0.197473623361392D+03 0.000000000000000D+00 0.000000000000000D+00 -.197473623361392D+03
 0.194829552522930D+03 -.115700733952298D+03 -.521519935602998D+02 -.789117498657265D+02
 0.175345141837447D+03 0.117965179348773D+03 0.747754060972054D+02 0.690764642684737D+02
 0.000000000000000D+00 -.000000000000000D+00 -.000000000000000D+00 0.000000000000000D+00
 0.247725523624063D+02 -.226444539647452D+01 -.226234125369056D+02 0.983528559725282D+01
 0.215457932650372D+03 0.000000000000000D+00 0.000000000000000D+00 0.215457932650372D+03
 0.205189180540166D+03 0.000000000000000D+00 0.000000000000000D+00 -.205189180540166D+03
 0.189902813907895D+03 -.111638798393590D+03 -.418066161809437D+02 -.789117498657265D+02
 0.182155789130910D+03 0.121739610279145D+03 0.843885355530131D+02 0.690764642684737D+02
 0.250401259760759D+02 -.834653030028974D+01 -.212578472791399D+02 0.102687521102061D+02
 0.235483841756581D+02 -.175428158526490D+01 -.213240720929295D+02 0.983528559725282D+01
0.446154741617D-03 0.000000000000D+00 0.000000000000D+00 0.286494741118D-04 0.000000000000D+00  6 2 -1 25 24 21 21 2 0.11158330D+00 0.82716527D-02 0.32767415D+05 0.32767415D+05 0.32767415D+05 0.12108969D+01  1  2  2  1  6  1        2 0.241000313422D+00 0.100000000000D+01
0.129354302815D-03 0.235442325564D-04 -.171335168305D-05 0.286494741118D-04 0.000000000000D+00  6 2 -1 25 24 21 21 4 0.11158330D+00 0.82716527D-02 0.32767415D+05 0.32767415D+05 0.32767415D+05 0.12108969D+01  1  2  3  1  6  1        2 0.102453625944D+00 0.100000000000D+01
0.816200265843D-05 0.000000000000D+00 0.000000000000D+00 0.286494741118D-04 0.000000000000D+00  6 2 -1 25 24 21 21 4 0.11158330D+00 0.82716527D-02 0.32767415D+05 0.32767415D+05 0.32767415D+05 0.12108969D+01  1  2 15  1  6  1        2 0.646462273866D-02 0.100000000000D+01
-.358428547152D-04 0.000000000000D+00 0.000000000000D+00 0.286494741118D-04 0.000000000000D+00  6 2 -1 25 24 21 21 4 0.11158330D+00 0.82716527D-02 0.32767415D+05 0.32767415D+05 0.32767415D+05 0.12108969D+01  1  2  4  1  6  1        2 -.283889314066D-01 0.100000000000D+01
-.498202315823D-02 0.000000000000D+00 -.975380460189D-03 0.286494741118D-04 0.000000000000D+00  6 2 -1 25 24 21 21 4 0.12504903D+00 0.82716527D-02 0.32767415D+05 0.32767415D+05 0.32767415D+05 0.12108969D+01  1  2  5  1  6  1        2 -.342612109081D+01 0.100000000000D+01
0.506652927947D-02 0.000000000000D+00 0.969083773957D-03 0.286494741118D-04 0.000000000000D+00  6 2 -1 25 24 21 21 4 0.11158330D+00 0.82716527D-02 0.32767415D+05 0.32767415D+05 0.32767415D+05 0.12108969D+01  1  2  6  1  6  1        2 0.401288773808D+01 0.100000000000D+01
-.863781901132D-04 0.000000000000D+00 -.177137457975D-04 0.286494741118D-04 0.000000000000D+00  6 21 -1 25 24 -2 21 4 0.12504903D+00 0.82716527D-02 0.32767415D+05 0.32767415D+05 0.32767415D+05 0.12108969D+01  3  4  5  4  5  1        2 -.646993671253D-01 0.100000000000D+01
  </mgrwgt>
  </event>
  <event>
  5     66 0.42622971E-03 0.41422697E+02 0.75467711E-02 0.12066644E+00
        2 -1    0    0  502    0 0.00000000E+00 0.00000000E+00 0.26243841E+04 0.26243841E+04 0.32000000E+00 0.0000E+00 0.9000E+01
       -1 -1    0    0    0  501 0.00000000E+00 0.00000000E+00 -.11750723E+02 0.11755079E+02 0.32000000E+00 0.0000E+00 0.9000E+01
       25  1    1    2    0    0 -.56783819E+02 -.11562395E+02 0.15292278E+04 0.15354220E+04 0.12500000E+03 0.0000E+00 0.9000E+01
       24  1    1    2    0    0 0.62087209E+02 -.33435937E+02 0.35156848E+03 0.36747843E+03 0.80419002E+02 0.0000E+00 0.9000E+01
       21  1    1    2  502  501 -.53033901E+01 0.44998332E+02 0.73183707E+03 0.73323873E+03 0.75000000E+00 0.0000E+00 0.9000E+01
#aMCatNLO 1  0  0  5  1 0.10095735D+01 0.00000000D+00  -5  6  0 0.00000000D+00 0.00000000D+00 0.00000000D+00 0.00000000D+00 0.00000000D+00
  <mgrwgt>
 0.1909631676D+00   25    2    0
 0.175625102826358D+03 0.000000000000000D+00 0.000000000000000D+00 0.175625102826358D+03
 0.175625102826358D+03 -.000000000000000D+00 -.000000000000000D+00 -.175625102826358D+03
 0.148823842088565D+03 -.567836404807710D+02 -.115639102446226D+02 0.562621553764789D+02
 0.142932815395840D+03 0.620873806945289D+02 -.334373916855324D+02 -.948138795660825D+02
 0.594935481683120D+02 -.530374021375784D+01 0.450013019301550D+02 0.385517241896035D+02
 0.000000000000000D+00 0.000000000000000D+00 0.000000000000000D+00 0.000000000000000D+00
 0.175625102826358D+03 0.000000000000000D+00 0.000000000000000D+00 0.175625102826358D+03
 0.175625102826358D+03 -.000000000000000D+00 -.000000000000000D+00 -.175625102826358D+03
 0.148886109079920D+03 -.568087452647250D+02 -.113509005727551D+02 0.564446365440750D+02
 0.142758519072747D+03 0.620632893962663D+02 -.332329812613201D+02 -.946387652036593D+02
 0.110543228826714D+01 0.906332792887507D+00 0.626741744097581D+00 0.879556631803641D-01
 0.585001452117833D+02 -.616087692442876D+01 0.439571400899776D+02 0.381061729964039D+02
0.257533282979D-03 0.000000000000D+00 0.000000000000D+00 0.765301090246D-05 0.000000000000D+00  6 2 -1 25 24 21 21 2 0.40375173D+00 0.18081401D-02 0.21032315D+05 0.21032315D+05 0.21032315D+05 0.12314270D+01  1  2  2  3  6  5       21 0.122051898593D+00 0.100000000000D+01
0.339188035102D-05 0.135904047181D-04 -.988995616710D-06 0.765301090246D-05 0.000000000000D+00  6 2 -1 25 24 21 21 4 0.40375173D+00 0.18081401D-02 0.21032315D+05 0.21032315D+05 0.21032315D+05 0.12314270D+01  1  2  3  3  6  5       21 0.243763706996D-02 0.100000000000D+01
0.135080828730D-04 0.000000000000D+00 0.000000000000D+00 0.765301090246D-05 0.000000000000D+00  6 2 -1 25 24 21 21 4 0.40375173D+00 0.18081401D-02 0.21032315D+05 0.21032315D+05 0.21032315D+05 0.12314270D+01  1  2 15  3  6  5       21 0.970783168852D-02 0.100000000000D+01
0.342247911241D-11 0.000000000000D+00 0.000000000000D+00 0.765264088132D-05 0.000000000000D+00  6 2 -1 25 24 21 21 4 0.40375173D+00 0.18081401D-02 0.21045495D+05 0.21045495D+05 0.21045495D+05 0.12313972D+01  1  2 12  3  6  5       21 0.245938042126D-08 0.100000000000D+01
0.446897386404D-11 0.000000000000D+00 0.000000000000D+00 0.765264088132D-05 0.000000000000D+00  6 2 -1 25 24 21 21 4 0.40375173D+00 0.18081401D-02 0.21045495D+05 0.21045495D+05 0.21045495D+05 0.12313972D+01  1  2 12  3  6  5       21 0.321138755368D-08 0.100000000000D+01
-.127426310615D-03 0.000000000000D+00 0.000000000000D+00 0.765301090246D-05 0.000000000000D+00  6 2 -1 25 24 21 21 4 0.40375173D+00 0.18081401D-02 0.21032315D+05 0.21032315D+05 0.21032315D+05 0.12314270D+01  1  2  4  3  6  5       21 -.915772569481D-01 0.100000000000D+01
-.402191018179D-06 0.000000000000D+00 0.000000000000D+00 0.765301090246D-05 0.000000000000D+00  6 2 -1 25 24 21 21 4 0.40375173D+00 0.18081401D-02 0.21032315D+05 0.21032315D+05 0.21032315D+05 0.12314270D+01  1  2  5  3  6  5       21 -.289041957161D-03 0.100000000000D+01
0.202768628827D-03 0.000000000000D+00 -.000000000000D+00 0.765301090246D-05 0.000000000000D+00  6 2 -1 25 24 21 21 4 0.40375173D+00 0.18081401D-02 0.21032315D+05 0.21032315D+05 0.21032315D+05 0.12314270D+01  1  2  6  3  6  5       21 0.145723396789D+00 0.100000000000D+01
0.496735293083D-06 0.000000000000D+00 0.000000000000D+00 0.765301090246D-05 0.419785761135D-04  6 2 -1 25 24 21 21 4 0.40375173D+00 0.18081401D-02 0.21045495D+05 0.21045495D+05 0.21045495D+05 0.12313972D+01  1  2 11  3  6  5       21 0.356952084799D-03 0.100000000000D+01
0.664080427947D-10 0.000000000000D+00 0.000000000000D+00 0.765264088132D-05 0.000000000000D+00  6 2 -1 25 24 1 -1 4 0.40375173D+00 0.18081401D-02 0.21045495D+05 0.21045495D+05 0.21045495D+05 0.12313972D+01  1  2 12  6  6  5       21 0.477205659696D-07 0.100000000000D+01
0.675308924410D-10 0.000000000000D+00 0.000000000000D+00 0.765264088132D-05 0.000000000000D+00  6 2 -1 25 24 1 -1 4 0.40375173D+00 0.18081401D-02 0.21045495D+05 0.21045495D+05 0.21045495D+05 0.12313972D+01  1  2 12  6  6  5       21 0.485274414378D-07 0.100000000000D+01
-.119226199628D-04 0.000000000000D+00 0.000000000000D+00 0.765301090246D-05 0.000000000000D+00  6 2 -1 25 24 1 -1 4 0.40375173D+00 0.18081401D-02 0.21032315D+05 0.21032315D+05 0.21032315D+05 0.12314270D+01  1  2  5  6  6  5       21 -.856840966799D-02 0.100000000000D+01
0.128680539639D-04 0.000000000000D+00 0.000000000000D+00 0.765301090246D-05 0.141922896344D-06  6 2 -1 25 24 1 -1 4 0.40375173D+00 0.18081401D-02 0.21045495D+05 0.21045495D+05 0.21045495D+05 0.12313972D+01  1  2 11  6  6  5       21 0.924693444108D-02 0.100000000000D+01
0.664080427947D-10 0.000000000000D+00 0.000000000000D+00 0.765264088132D-05 0.000000000000D+00  6 2 -1 25 24 2 -2 4 0.40375173D+00 0.18081401D-02 0.21045495D+05 0.21045495D+05 0.21045495D+05 0.12313972D+01  1  2 12  7  6  5       21 0.477205659696D-07 0.100000000000D+01
0.675308924410D-10 0.000000000000D+00 0.000000000000D+00 0.765264088132D-05 0.000000000000D+00  6 2 -1 25 24 2 -2 4 0.40375173D+00 0.18081401D-02 0.21045495D+05 0.21045495D+05 0.21045495D+05 0.12313972D+01  1  2 12  7  6  5       21 0.485274414378D-07 0.100000000000D+01
-.119226199628D-04 0.000000000000D+00 0.000000000000D+00 0.765301090246D-05 0.000000000000D+00  6 2 -1 25 24 2 -2 4 0.40375173D+00 0.18081401D-02 0.21032315D+05 0.21032315D+05 0.21032315D+05 0.12314270D+01  1  2  5  7  6  5       21 -.856840966799D-02 0.100000000000D+01
0.126400259521D-04 0.000000000000D+00 0.000000000000D+00 0.765301090246D-05 0.153796780279D-06  6 2 -1 25 24 2 -2 4 0.40375173D+00 0.18081401D-02 0.21045495D+05 0.21045495D+05 0.21045495D+05 0.12313972D+01  1  2 11  7  6  5       21 0.908307438255D-02 0.100000000000D+01
0.664080427947D-10 0.000000000000D+00 0.000000000000D+00 0.765264088132D-05 0.000000000000D+00  6 2 -1 25 24 3 -3 4 0.40375173D+00 0.18081401D-02 0.21045495D+05 0.21045495D+05 0.21045495D+05 0.12313972D+01  1  2 12  8  6  5       21 0.477205659696D-07 0.100000000000D+01
0.664080427947D-10 0.000000000000D+00 0.000000000000D+00 0.765264088132D-05 0.000000000000D+00  6 2 -1 25 24 4 -4 4 0.40375173D+00 0.18081401D-02 0.21045495D+05 0.21045495D+05 0.21045495D+05 0.12313972D+01  1  2 12  8  6  5       21 0.477205659696D-07 0.100000000000D+01
0.675308924410D-10 0.000000000000D+00 0.000000000000D+00 0.765264088132D-05 0.000000000000D+00  6 2 -1 25 24 3 -3 4 0.40375173D+00 0.18081401D-02 0.21045495D+05 0.21045495D+05 0.21045495D+05 0.12313972D+01  1  2 12  8  6  5       21 0.485274414378D-07 0.100000000000D+01
0.675308924410D-10 0.000000000000D+00 0.000000000000D+00 0.765264088132D-05 0.000000000000D+00  6 2 -1 25 24 4 -4 4 0.40375173D+00 0.18081401D-02 0.21045495D+05 0.21045495D+05 0.21045495D+05 0.12313972D+01  1  2 12  8  6  5       21 0.485274414378D-07 0.100000000000D+01
-.119226199628D-04 0.000000000000D+00 0.000000000000D+00 0.765301090246D-05 0.000000000000D+00  6 2 -1 25 24 3 -3 4 0.40375173D+00 0.18081401D-02 0.21032315D+05 0.21032315D+05 0.21032315D+05 0.12314270D+01  1  2  5  8  6  5       21 -.856840966799D-02 0.100000000000D+01
-.119226199628D-04 0.000000000000D+00 0.000000000000D+00 0.765301090246D-05 0.000000000000D+00  6 2 -1 25 24 4 -4 4 0.40375173D+00 0.18081401D-02 0.21032315D+05 0.21032315D+05 0.21032315D+05 0.12314270D+01  1  2  5  8  6  5       21 -.856840966799D-02 0.100000000000D+01
0.128688336847D-04 0.000000000000D+00 0.000000000000D+00 0.765301090246D-05 0.141915644665D-06  6 2 -1 25 24 3 -3 4 0.40375173D+00 0.18081401D-02 0.21045495D+05 0.21045495D+05 0.21045495D+05 0.12313972D+01  1  2 11  8  6  5       21 0.924749474552D-02 0.100000000000D+01
0.128688336847D-04 0.000000000000D+00 0.000000000000D+00 0.765301090246D-05 0.141915644665D-06  6 2 -1 25 24 4 -4 4 0.40375173D+00 0.18081401D-02 0.21045495D+05 0.21045495D+05 0.21045495D+05 0.12313972D+01  1  2 11  8  6  5       21 0.924749474552D-02 0.100000000000D+01
  </mgrwgt>
  </event>
  <event>
  5     66 -.42622971E-03 0.47193482E+02 0.75467711E-02 0.11924773E+00
        2 -1    0    0  502    0 0.00000000E+00 0.00000000E+00 0.35709487E+03 0.35709501E+03 0.32000000E+00 0.0000E+00 0.9000E+01
       -1 -1    0    0    0  501 0.00000000E+00 0.00000000E+00 -.88047173E+02 0.88047755E+02 0.32000000E+00 0.0000E+00 0.9000E+01
       25  1    1    2    0    0 0.72720887E+02 -.61965029E+02 0.97423463E+02 0.18505222E+03 0.12500000E+03 0.0000E+00 0.9000E+01
       24  1    1    2    0    0 -.70104808E+02 0.13542444E+02 0.31877372E+02 0.11216713E+03 0.80419002E+02 0.0000E+00 0.9000E+01
       21  1    1    2  502  501 -.26160799E+01 0.48422585E+02 0.13974686E+03 0.14792342E+03 0.75000000E+00 0.0000E+00 0.9000E+01
#aMCatNLO 1  0  0  2  2 0.28136629D-01 0.00000000D+00  -5  6  0 0.00000000D+00 0.00000000D+00 0.00000000D+00 0.00000000D+00 0.00000000D+00
  <mgrwgt>
 -.4809510000D-01    9    4    0
 0.177317102683266D+03 0.000000000000000D+00 0.000000000000000D+00 0.177317102683266D+03
 0.177317102683266D+03 0.000000000000000D+00 0.000000000000000D+00 -.177317102683266D+03
 0.158369636371234D+03 0.727209392159688D+02 -.619659875909872D+02 -.181058859429123D+02
 0.116610131416066D+03 -.701047694384798D+02 0.135417380392615D+02 -.450849135227655D+02
 0.796544375792331D+02 -.261616977748896D+01 0.484242495517257D+02 0.631907994656777D+02
 0.000000000000000D+00 -.000000000000000D+00 0.000000000000000D+00 -.000000000000000D+00
 0.177317552289772D+03 0.000000000000000D+00 0.000000000000000D+00 0.177317552289772D+03
 0.177757851883339D+03 0.000000000000000D+00 0.000000000000000D+00 -.177757851883339D+03
 0.158376295811953D+03 0.727254469009411D+02 -.619777164987216D+02 -.181058859429123D+02
 0.116607133544029D+03 -.701014504693828D+02 0.135331021468795D+02 -.450849135227655D+02
 0.796507771267290D+02 -.261390266795613D+01 0.484183505772637D+02 0.631907994656777D+02
 0.441197690399517D+00 -.100937636021939D-01 0.262637745784307D-01 -.440299593566818D+00
 0.177317102683266D+03 0.000000000000000D+00 0.000000000000000D+00 0.177317102683266D+03
 0.177317102683266D+03 0.000000000000000D+00 0.000000000000000D+00 -.177317102683266D+03
 0.158369636371234D+03 0.727209392159688D+02 -.619659875909872D+02 -.181058859429123D+02
 0.116610131416066D+03 -.701047694384798D+02 0.135417380392615D+02 -.450849135227655D+02
 0.000000000000000D+00 -.000000000000000D+00 0.000000000000000D+00 -.000000000000000D+00
 0.796544375792331D+02 -.261616977748896D+01 0.484242495517257D+02 0.631907994656777D+02
 0.177317552289772D+03 0.000000000000000D+00 0.000000000000000D+00 0.177317552289772D+03
 0.177757851883339D+03 0.000000000000000D+00 0.000000000000000D+00 -.177757851883339D+03
 0.158376295811953D+03 0.727254469009411D+02 -.619777164987216D+02 -.181058859429123D+02
 0.116607133544029D+03 -.701014504693828D+02 0.135331021468795D+02 -.450849135227655D+02
 0.441197690399517D+00 -.100937636021939D-01 0.262637745784307D-01 -.440299593566818D+00
 0.796507771267290D+02 -.261390266795613D+01 0.484183505772637D+02 0.631907994656777D+02
0.229599693582D-05 0.000000000000D+00 0.000000000000D+00 0.100074566088D-04 0.000000000000D+00  6 2 -1 25 24 21 21 2 0.54937728D-01 0.13545775D-01 0.24549887D+05 0.24549887D+05 0.24549887D+05 0.12241445D+01  1  2  2  2  6  2       -1 0.130437818276D-02 0.100000000000D+01
0.468625157250D-07 0.121163087071D-06 -.881723278344D-08 0.100074566088D-04 0.000000000000D+00  6 2 -1 25 24 21 21 4 0.54937728D-01 0.13545775D-01 0.24549887D+05 0.24549887D+05 0.24549887D+05 0.12241445D+01  1  2  3  2  6  2       -1 0.398954344977D-04 0.100000000000D+01
0.877390938018D-07 0.000000000000D+00 0.000000000000D+00 0.100074566088D-04 0.000000000000D+00  6 2 -1 25 24 21 21 4 0.54937728D-01 0.13545775D-01 0.24549887D+05 0.24549887D+05 0.24549887D+05 0.12241445D+01  1  2 15  2  6  2       -1 0.746948646589D-04 0.100000000000D+01
-.104144654496D+00 0.000000000000D+00 0.000000000000D+00 0.100074566088D-04 0.000000000000D+00  6 2 -1 25 24 21 21 4 0.54937728D-01 0.13545775D-01 0.24549887D+05 0.24549887D+05 0.24549887D+05 0.12241445D+01  1  2  4  2  6  2       -1 -.886613997873D+02 0.100000000000D+01
-.103938604483D+00 0.000000000000D+00 -.207421618192D-03 0.100074566088D-04 0.000000000000D+00  6 2 -1 25 24 21 21 4 0.54937728D-01 0.13579462D-01 0.24549887D+05 0.24549887D+05 0.24549887D+05 0.12241445D+01  1  2  5  2  6  2       -1 -.881434821888D+02 0.100000000000D+01
0.103938799701D+00 0.000000000000D+00 0.207420978352D-03 0.100074566088D-04 0.000000000000D+00  6 2 -1 25 24 21 21 4 0.54937728D-01 0.13545775D-01 0.24549887D+05 0.24549887D+05 0.24549887D+05 0.12241445D+01  1  2  6  2  6  2       -1 0.884861495608D+02 0.100000000000D+01
0.104104822517D+00 0.000000000000D+00 0.000000000000D+00 0.100074566088D-04 0.516910268561D-01  6 2 -1 25 24 21 21 4 0.54937867D-01 0.13579445D-01 0.24553894D+05 0.24553894D+05 0.24553894D+05 0.12241369D+01  1  2 11  2  6  2       -1 0.882824998208D+02 0.100000000000D+01
-.482260295312D-04 0.000000000000D+00 -.962416261323D-07 0.100074566088D-04 0.000000000000D+00  6 2 21 25 24 1 21 4 0.54937728D-01 0.13579462D-01 0.24549887D+05 0.24549887D+05 0.24549887D+05 0.12241445D+01  3  4  5  5  5  2       -1 -.572178363902D+00 0.100000000000D+01
0.471077515668D-04 0.000000000000D+00 0.000000000000D+00 0.100074566088D-04 0.467791697291D-04  6 2 21 25 24 1 21 4 0.54937867D-01 0.13579445D-01 0.24553894D+05 0.24553894D+05 0.24553894D+05 0.12241369D+01  3  4 11  5  5  2       -1 0.558896889956D+00 0.100000000000D+01
  </mgrwgt>
  </event>
  <event>
  6     66 -.42622971E-03 0.76542787E+02 0.75467711E-02 0.11883772E+00
        2 -1    0    0  502    0 0.00000000E+00 0.00000000E+00 0.15128472E+03 0.15128505E+03 0.32000000E+00 0.0000E+00 0.9000E+01
       -1 -1    0    0    0  503 0.00000000E+00 0.00000000E+00 -.19405311E+03 0.19405337E+03 0.32000000E+00 0.0000E+00 0.9000E+01
       25  1    1    2    0    0 -.31317329E+02 -.78039937E+02 -.28490371E+02 0.15332224E+03 0.12500000E+03 0.0000E+00 0.9000E+01
       24  1    1    2    0    0 -.11720992E+02 0.18719275E+02 -.40262207E+02 0.92606988E+02 0.80419002E+02 0.0000E+00 0.9000E+01
       21  1    1    2  502  501 0.47725715E+02 0.64037375E+02 0.35803001E+02 0.87526834E+02 0.75000000E+00 0.0000E+00 0.9000E+01
       21  1    1    2  501  503 -.46873949E+01 -.47167135E+01 -.98188137E+01 0.11882368E+02 0.75000000E+00 0.0000E+00 0.9000E+01
#aMCatNLO 2  0  0  2  5 0.66497411D+01 0.00000000D+00  -5  6  0 0.00000000D+00 0.00000000D+00 0.00000000D+00 0.00000000D+00 0.00000000D+00
  <mgrwgt>
 -.7361005036D-01    3    2    0
 0.165878757551942D+03 0.000000000000000D+00 0.000000000000000D+00 0.165878757551942D+03
 0.165878757551942D+03 0.000000000000000D+00 0.000000000000000D+00 -.165878757551942D+03
 0.152830362339717D+03 -.334660045816137D+02 -.802023082793551D+02 -.134065632022488D+02
 0.889819096432775D+02 -.129791043824084D+02 0.174531437700901D+02 -.312649150225133D+02
 0.899452431208904D+02 0.464451089640221D+02 0.627491645092650D+02 0.446714782247621D+02
 0.000000000000000D+00 -.000000000000000D+00 -.000000000000000D+00 -.000000000000000D+00
 0.167038610348387D+03 0.000000000000000D+00 0.000000000000000D+00 0.167038610348387D+03
 0.175725149715170D+03 0.000000000000000D+00 0.000000000000000D+00 -.175725149715170D+03
 0.151247954961830D+03 -.313180622340615D+02 -.780409310627664D+02 -.134065632022488D+02
 0.890645385874549D+02 -.117214234356713D+02 0.187186912123263D+02 -.312649150225133D+02
 0.915116585029356D+02 0.477268806033558D+02 0.640389533256559D+02 0.446714782247621D+02
 0.109396080113370D+02 -.468739493362299D+01 -.471671347521586D+01 -.868653936678306D+01
-.403641794332D-03 0.000000000000D+00 0.000000000000D+00 0.456251204473D-05 0.000000000000D+00  6 2 -1 25 24 21 21 4 0.23111241D-01 0.30093852D-01 0.25690741D+05 0.25690741D+05 0.25690741D+05 0.12220306D+01  1  2 13  2  6  2       -1 -.239543951445D+00 0.100000000000D+01
-.100986961520D-03 0.000000000000D+00 0.000000000000D+00 0.457775474322D-05 0.000000000000D+00  6 2 -1 25 24 21 21 4 0.23111241D-01 0.28179389D-01 0.24588989D+05 0.24588989D+05 0.24588989D+05 0.12240703D+01  1  2  8  2  6  2       -1 -.673140112843D-01 0.100000000000D+01
0.390752133340D-03 0.000000000000D+00 0.000000000000D+00 0.457775474322D-05 0.291504122233D-06  6 2 -1 25 24 21 21 4 0.23272839D-01 0.29852088D-01 0.25690741D+05 0.25690741D+05 0.25690741D+05 0.12220306D+01  1  2  1  2  6  2       -1 0.233247912370D+00 0.100000000000D+01
  </mgrwgt>
  </event>
  <event>
  6     66 0.42622971E-03 0.15444291E+02 0.75467711E-02 0.12153705E+00
        2 -1    0    0  502    0 0.00000000E+00 0.00000000E+00 0.11847514E+04 0.11847514E+04 0.32000000E+00 0.0000E+00 0.9000E+01
       -1 -1    0    0    0  503 0.00000000E+00 0.00000000E+00 -.78354157E+02 0.78354811E+02 0.32000000E+00 0.0000E+00 0.9000E+01
       25  1    1    2    0    0 0.76664353E+02 -.53210748E+01 0.10183500E+04 0.10288671E+04 0.12500000E+03 0.0000E+00 0.9000E+01
       24  1    1    2    0    0 -.52627375E+02 -.34290783E+01 0.10925650E+03 0.14555273E+03 0.80419002E+02 0.0000E+00 0.9000E+01
       21  1    1    2  502  501 -.98174371E+01 -.75851572E+01 0.30329312E+02 0.32777223E+02 0.75000000E+00 0.0000E+00 0.9000E+01
       21  1    1    2  501  503 -.14219540E+02 0.16335310E+02 -.51538648E+02 0.55909145E+02 0.75000000E+00 0.0000E+00 0.9000E+01
#aMCatNLO 2  0  0  2  5 0.58075291D+01 0.00000000D+00  -5  6  0 0.00000000D+00 0.00000000D+00 0.00000000D+00 0.00000000D+00 0.00000000D+00
  <mgrwgt>
 0.7598102118D+00    1    2    0
 0.170323435284311D+03 0.000000000000000D+00 0.000000000000000D+00 0.170323435284311D+03
 0.170323435284311D+03 0.000000000000000D+00 0.000000000000000D+00 -.170323435284311D+03
 0.181085541598119D+03 0.690579501238921D+02 0.343356557553968D+01 0.111293232175225D+03
 0.146455140370011D+03 -.586790983520753D+02 0.353641006171415D+01 -.107359905956050D+03
 0.131061886004934D+02 -.103788517718168D+02 -.696997563725382D+01 -.393332621917466D+01
 0.000000000000000D+00 -.000000000000000D+00 0.000000000000000D+00 -.000000000000000D+00
 0.170982310903359D+03 0.000000000000000D+00 0.000000000000000D+00 0.170982310903359D+03
 0.542922973363075D+03 0.000000000000000D+00 0.000000000000000D+00 -.542922973363075D+03
 0.184169165484804D+03 0.766736318051780D+02 -.531527733656800D+01 0.111293232175225D+03
 0.144131817755329D+03 -.526202639800563D+02 -.342393733325764D+01 -.107359905956050D+03
 0.130336445330350D+02 -.983382758872891D+01 -.759609568279790D+01 -.393332621917466D+01
 0.372570656493266D+03 -.142195402363929D+02 0.163353103526235D+02 -.371940662459716D+03
0.305541785887D-02 0.000000000000D+00 0.000000000000D+00 0.638404433272D-04 0.106716568739D-05  6 2 -1 25 24 21 21 4 0.18226909D+00 0.12054513D-01 0.19180463D+05 0.19180463D+05 0.19180463D+05 0.12358315D+01  1  2  1  2  6  2       -1 0.759810211828D+00 0.100000000000D+01
  </mgrwgt>
  </event>
  <event>
  5     66 0.42622971E-03 0.27914986E+02 0.75467711E-02 0.97925349E-01
        2 -1    0    0  502    0 0.00000000E+00 0.00000000E+00 0.15564252E+03 0.15564285E+03 0.32000000E+00 0.0000E+00 0.9000E+01
       -1 -1    0    0    0  501 0.00000000E+00 0.00000000E+00 -.15469380E+03 0.15469413E+03 0.32000000E+00 0.0000E+00 0.9000E+01
       25  1    1    2    0    0 -.43014751E+02 -.11773457E+02 -.66257145E+02 0.14833709E+03 0.12500000E+03 0.0000E+00 0.9000E+01
       24  1    1    2    0    0 0.22672307E+02 -.73413807E+01 -.55601495E+01 0.84059863E+02 0.80419002E+02 0.0000E+00 0.9000E+01
       21  1    1    2  502  501 0.20342444E+02 0.19114837E+02 0.72766014E+02 0.77940024E+02 0.75000000E+00 0.0000E+00 0.9000E+01
#aMCatNLO 1  0  0  2  5 0.13956372D+02 0.00000000D+00  -5  6  0 0.00000000D+00 0.00000000D+00 0.00000000D+00 0.00000000D+00 0.00000000D+00
  <mgrwgt>
 0.2123715006D+00    5    4    0
 0.155167763332840D+03 0.000000000000000D+00 0.000000000000000D+00 0.155167763332840D+03
 0.155167763332840D+03 0.000000000000000D+00 0.000000000000000D+00 -.155167763332840D+03
 0.148541227540051D+03 -.430152043914854D+02 -.117738826369408D+02 -.667125487289724D+02
 0.840772689288544D+02 0.226720504142117D+02 -.734162185181175D+01 -.581806795807777D+01
 0.777170301967747D+02 0.203431539772738D+02 0.191155044887525D+02 0.725306166870502D+02
 0.000000000000000D+00 0.000000000000000D+00 0.000000000000000D+00 -.000000000000000D+00
 0.639484941694552D+03 0.000000000000000D+00 0.000000000000000D+00 0.639484941694552D+03
 0.709376994234720D+03 0.000000000000000D+00 0.000000000000000D+00 -.709376994234720D+03
 0.412889680541640D+03 -.261519771844437D+03 -.286373415446154D+03 -.667125487289724D+02
 0.174723907921016D+03 -.780513661093186D+02 -.133922971810387D+03 -.581806795807777D+01
 0.120706407603141D+03 -.568817134550152D+02 -.779346980097649D+02 0.725306166870502D+02
 0.640541939863475D+03 0.396452851408771D+03 0.498231085266305D+03 -.698920525401678D+02
 0.155167763332840D+03 0.000000000000000D+00 0.000000000000000D+00 0.155167763332840D+03
 0.155167763332840D+03 0.000000000000000D+00 0.000000000000000D+00 -.155167763332840D+03
 0.148541227540051D+03 -.430152043914854D+02 -.117738826369408D+02 -.667125487289724D+02
 0.840772689288544D+02 0.226720504142117D+02 -.734162185181175D+01 -.581806795807777D+01
 0.000000000000000D+00 0.000000000000000D+00 0.000000000000000D+00 -.000000000000000D+00
 0.777170301967747D+02 0.203431539772738D+02 0.191155044887525D+02 0.725306166870502D+02
 0.639484941694552D+03 0.000000000000000D+00 0.000000000000000D+00 0.639484941694552D+03
 0.709376994234720D+03 0.000000000000000D+00 0.000000000000000D+00 -.709376994234720D+03
 0.412889680541640D+03 -.261519771844437D+03 -.286373415446154D+03 -.667125487289724D+02
 0.174723907921016D+03 -.780513661093186D+02 -.133922971810387D+03 -.581806795807777D+01
 0.640541939863475D+03 0.396452851408771D+03 0.498231085266305D+03 -.698920525401678D+02
 0.120706407603141D+03 -.568817134550152D+02 -.779346980097649D+02 0.725306166870502D+02
0.288287558252D-03 0.000000000000D+00 0.000000000000D+00 0.383140130529D-04 0.000000000000D+00  6 2 -1 25 24 21 21 2 0.23945054D-01 0.23799097D-01 0.14946065D+05 0.14946065D+05 0.14946065D+05 0.12480009D+01  1  2  2  2  6  2       -1 0.167355557481D+00 0.100000000000D+01
0.245021300267D-04 0.152133524122D-04 -.110710013154D-05 0.383140130529D-04 0.000000000000D+00  6 2 -1 25 24 21 21 4 0.23945054D-01 0.23799097D-01 0.14946065D+05 0.14946065D+05 0.14946065D+05 0.12480009D+01  1  2  3  2  6  2       -1 0.221537824597D-01 0.100000000000D+01
0.133401337552D-04 0.000000000000D+00 0.000000000000D+00 0.383140130529D-04 0.000000000000D+00  6 2 -1 25 24 21 21 4 0.23945054D-01 0.23799097D-01 0.14946065D+05 0.14946065D+05 0.14946065D+05 0.12480009D+01  1  2 15  2  6  2       -1 0.120615808043D-01 0.100000000000D+01
0.157213851446D-02 0.000000000000D+00 -.463268641615D-03 0.383140130529D-04 0.000000000000D+00  6 2 -1 25 24 21 21 4 0.23945054D-01 0.31722089D+00 0.14946065D+05 0.14946065D+05 0.14946065D+05 0.12480009D+01  1  2  5  2  6  2       -1 0.322367052048D-02 0.100000000000D+01
0.372103436241D-03 0.000000000000D+00 -.137615086661D-03 0.383140130529D-04 0.000000000000D+00  6 2 21 25 24 1 21 4 0.23945054D-01 0.31722089D+00 0.14946065D+05 0.14946065D+05 0.14946065D+05 0.12480009D+01  3  4  5  5  5  2       -1 0.757690935488D-02 0.100000000000D+01
  </mgrwgt>
  </event>
  <event>
  5     66 0.42622971E-03 0.35606409E+02 0.75467711E-02 0.12165462E+00
        2 -1    0    0  502    0 0.00000000E+00 0.00000000E+00 0.13921667E+03 0.13921704E+03 0.32000000E+00 0.0000E+00 0.9000E+01
       -1 -1    0    0    0  501 -.00000000E+00 -.00000000E+00 -.14191841E+03 0.14191877E+03 0.32000000E+00 0.0000E+00 0.9000E+01
       25  1    1    2    0    0 -.28397917E+02 -.38509904E+02 -.94491457E+01 0.13417802E+03 0.12500000E+03 0.0000E+00 0.9000E+01
       24  1    1    2    0    0 0.10541767E+02 0.69308449E+02 0.20767125E+02 0.10868891E+03 0.80419002E+02 0.0000E+00 0.9000E+01
       21  1    1    2  502  501 0.17856150E+02 -.30798545E+02 -.14019714E+02 0.38268882E+02 0.75000000E+00 0.0000E+00 0.9000E+01
#aMCatNLO 1  0  0  5  1 0.46041738D+01 0.00000000D+00  -5  6  0 0.00000000D+00 0.00000000D+00 0.00000000D+00 0.00000000D+00 0.00000000D+00
  <mgrwgt>
 0.1984091031D+00   19    2    0
 0.140561415238548D+03 0.000000000000000D+00 0.000000000000000D+00 0.140561415238548D+03
 0.140561415238548D+03 -.000000000000000D+00 -.000000000000000D+00 -.140561415238548D+03
 0.134092860337430D+03 -.283995648905382D+02 -.385070622404184D+02 -.815880292163374D+01
 0.108895057560479D+03 0.105404292032185D+02 0.693107571261727D+02 0.218136632764467D+02
 0.381349125791863D+02 0.178591356873197D+02 -.308036948857542D+02 -.136548603548129D+02
 0.000000000000000D+00 0.000000000000000D+00 0.000000000000000D+00 0.000000000000000D+00
 0.140561415238548D+03 0.000000000000000D+00 0.000000000000000D+00 0.140561415238548D+03
 0.140561415238548D+03 -.000000000000000D+00 -.000000000000000D+00 -.140561415238548D+03
 0.134630140727331D+03 -.268863396826690D+02 -.411170949101255D+02 -.931579502139746D+01
 0.107510825464365D+03 0.117590477659275D+02 0.672088662483035D+02 0.208819235444176D+02
 0.484853309187593D+01 -.403577349277551D+01 -.145869161215868D+01 0.225677297011564D+01
 0.341333311935237D+02 0.191630654095169D+02 -.246330797260193D+02 -.138229014931357D+02
0.253878082913D-03 0.000000000000D+00 0.000000000000D+00 0.180755690029D-04 0.000000000000D+00  6 2 -1 25 24 21 21 2 0.21418006D-01 0.21833657D-01 0.19063143D+05 0.19063143D+05 0.19063143D+05 0.12361265D+01  1  2  2  3  6  5       21 0.189604688756D+00 0.100000000000D+01
0.201497666741D-04 0.133975145113D-04 -.974958686021D-06 0.180755690029D-04 0.000000000000D+00  6 2 -1 25 24 21 21 4 0.21418006D-01 0.21833657D-01 0.19063143D+05 0.19063143D+05 0.19063143D+05 0.12361265D+01  1  2  3  3  6  5       21 0.229942735749D-01 0.100000000000D+01
0.101281922339D-04 0.000000000000D+00 0.000000000000D+00 0.180755690029D-04 0.000000000000D+00  6 2 -1 25 24 21 21 4 0.21418006D-01 0.21833657D-01 0.19063143D+05 0.19063143D+05 0.19063143D+05 0.12361265D+01  1  2 15  3  6  5       21 0.115579712069D-01 0.100000000000D+01
0.273900779989D-05 0.000000000000D+00 0.000000000000D+00 0.180844226355D-04 0.000000000000D+00  6 2 -1 25 24 21 21 4 0.21418006D-01 0.21833657D-01 0.18943569D+05 0.18943569D+05 0.18943569D+05 0.12364292D+01  1  2 12  3  6  5       21 0.312816759786D-02 0.100000000000D+01
0.202334316155D-05 0.000000000000D+00 0.000000000000D+00 0.180844226355D-04 0.000000000000D+00  6 2 -1 25 24 21 21 4 0.21418006D-01 0.21833657D-01 0.18943569D+05 0.18943569D+05 0.18943569D+05 0.12364292D+01  1  2 12  3  6  5       21 0.231082091755D-02 0.100000000000D+01
-.549077747058D-04 0.000000000000D+00 0.000000000000D+00 0.180755690029D-04 0.000000000000D+00  6 2 -1 25 24 21 21 4 0.21418006D-01 0.21833657D-01 0.19063143D+05 0.19063143D+05 0.19063143D+05 0.12361265D+01  1  2  4  3  6  5       21 -.626590080864D-01 0.100000000000D+01
0.651984759229D-05 0.000000000000D+00 0.000000000000D+00 0.180755690029D-04 0.406327106940D-05  6 2 -1 25 24 21 21 4 0.21418006D-01 0.21833657D-01 0.18943569D+05 0.18943569D+05 0.18943569D+05 0.12364292D+01  1  2 11  3  6  5       21 0.744619127481D-02 0.100000000000D+01
0.767990995877D-06 0.000000000000D+00 0.000000000000D+00 0.180844226355D-04 0.000000000000D+00  6 2 -1 25 24 1 -1 4 0.21418006D-01 0.21833657D-01 0.18943569D+05 0.18943569D+05 0.18943569D+05 0.12364292D+01  1  2 12  6  6  5       21 0.877107596717D-03 0.100000000000D+01
0.712383154673D-06 0.000000000000D+00 0.000000000000D+00 0.180844226355D-04 0.000000000000D+00  6 2 -1 25 24 1 -1 4 0.21418006D-01 0.21833657D-01 0.18943569D+05 0.18943569D+05 0.18943569D+05 0.12364292D+01  1  2 12  6  6  5       21 0.813598961565D-03 0.100000000000D+01
0.407601819043D-05 0.000000000000D+00 0.000000000000D+00 0.180844226355D-04 0.532866076690D-07  6 2 -1 25 24 1 -1 4 0.21418006D-01 0.21833657D-01 0.18943569D+05 0.18943569D+05 0.18943569D+05 0.12364292D+01  1  2 11  6  6  5       21 0.465514119094D-02 0.100000000000D+01
0.767990995877D-06 0.000000000000D+00 0.000000000000D+00 0.180844226355D-04 0.000000000000D+00  6 2 -1 25 24 2 -2 4 0.21418006D-01 0.21833657D-01 0.18943569D+05 0.18943569D+05 0.18943569D+05 0.12364292D+01  1  2 12  7  6  5       21 0.877107596717D-03 0.100000000000D+01
0.712383154673D-06 0.000000000000D+00 0.000000000000D+00 0.180844226355D-04 0.000000000000D+00  6 2 -1 25 24 2 -2 4 0.21418006D-01 0.21833657D-01 0.18943569D+05 0.18943569D+05 0.18943569D+05 0.12364292D+01  1  2 12  7  6  5       21 0.813598961565D-03 0.100000000000D+01
0.292563063432D-05 0.000000000000D+00 0.000000000000D+00 0.180844226355D-04 0.570814078264D-07  6 2 -1 25 24 2 -2 4 0.21418006D-01 0.21833657D-01 0.18943569D+05 0.18943569D+05 0.18943569D+05 0.12364292D+01  1  2 11  7  6  5       21 0.334130591156D-02 0.100000000000D+01
0.767990995877D-06 0.000000000000D+00 0.000000000000D+00 0.180844226355D-04 0.000000000000D+00  6 2 -1 25 24 3 -3 4 0.21418006D-01 0.21833657D-01 0.18943569D+05 0.18943569D+05 0.18943569D+05 0.12364292D+01  1  2 12  8  6  5       21 0.877107596717D-03 0.100000000000D+01
0.767990995877D-06 0.000000000000D+00 0.000000000000D+00 0.180844226355D-04 0.000000000000D+00  6 2 -1 25 24 4 -4 4 0.21418006D-01 0.21833657D-01 0.18943569D+05 0.18943569D+05 0.18943569D+05 0.12364292D+01  1  2 12  8  6  5       21 0.877107596717D-03 0.100000000000D+01
0.712383154673D-06 0.000000000000D+00 0.000000000000D+00 0.180844226355D-04 0.000000000000D+00  6 2 -1 25 24 3 -3 4 0.21418006D-01 0.21833657D-01 0.18943569D+05 0.18943569D+05 0.18943569D+05 0.12364292D+01  1  2 12  8  6  5       21 0.813598961565D-03 0.100000000000D+01
0.712383154673D-06 0.000000000000D+00 0.000000000000D+00 0.180844226355D-04 0.000000000000D+00  6 2 -1 25 24 4 -4 4 0.21418006D-01 0.21833657D-01 0.18943569D+05 0.18943569D+05 0.18943569D+05 0.12364292D+01  1  2 12  8  6  5       21 0.813598961565D-03 0.100000000000D+01
0.405694867070D-05 0.000000000000D+00 0.000000000000D+00 0.180844226355D-04 0.517899256716D-07  6 2 -1 25 24 3 -3 4 0.21418006D-01 0.21833657D-01 0.18943569D+05 0.18943569D+05 0.18943569D+05 0.12364292D+01  1  2 11  8  6  5       21 0.463336226292D-02 0.100000000000D+01
0.405694867070D-05 0.000000000000D+00 0.000000000000D+00 0.180844226355D-04 0.517899256716D-07  6 2 -1 25 24 4 -4 4 0.21418006D-01 0.21833657D-01 0.18943569D+05 0.18943569D+05 0.18943569D+05 0.12364292D+01  1  2 11  8  6  5       21 0.463336226292D-02 0.100000000000D+01
  </mgrwgt>
  </event>
  <event>
  5     66 0.42622971E-03 0.26514364E+02 0.75467711E-02 0.12372745E+00
        2 -1    0    0  502    0 0.00000000E+00 0.00000000E+00 0.93008198E+03 0.93008203E+03 0.32000000E+00 0.0000E+00 0.9000E+01
       -1 -1    0    0    0  501 0.00000000E+00 0.00000000E+00 -.23736478E+02 0.23738635E+02 0.32000000E+00 0.0000E+00 0.9000E+01
       25  1    1    2    0    0 -.18333966E+02 -.78829880E+01 0.20550112E+03 0.24135863E+03 0.12500000E+03 0.0000E+00 0.9000E+01
       24  1    1    2    0    0 0.34960553E+02 0.28533532E+02 0.40190797E+03 0.41235135E+03 0.80419002E+02 0.0000E+00 0.9000E+01
       21  1    1    2  502  501 -.16626587E+02 -.20650544E+02 0.29893641E+03 0.30011069E+03 0.75000000E+00 0.0000E+00 0.9000E+01
#aMCatNLO 1  0  0  5  2 0.17526619D+01 0.00000000D+00  -5  6  0 0.00000000D+00 0.00000000D+00 0.00000000D+00 0.00000000D+00 0.00000000D+00
  <mgrwgt>
 0.2706351622D+00   20    2    0
 0.148586422663250D+03 0.000000000000000D+00 0.000000000000000D+00 0.148586422663250D+03
 0.148586422663250D+03 -.000000000000000D+00 -.000000000000000D+00 -.148586422663250D+03
 0.147921114297001D+03 -.183330890680961D+02 -.788189893693315D+01 -.765338459064724D+02
 0.977267335964150D+02 0.349611324056210D+02 0.285342515932960D+02 0.323545083718059D+02
 0.515249974330846D+02 -.166280433375249D+02 -.206523526563629D+02 0.441793375346664D+02
 0.000000000000000D+00 -.000000000000000D+00 0.000000000000000D+00 0.000000000000000D+00
 0.148586422663250D+03 0.000000000000000D+00 0.000000000000000D+00 0.148586422663250D+03
 0.148586422663250D+03 -.000000000000000D+00 -.000000000000000D+00 -.148586422663250D+03
 0.147655147049766D+03 -.185588113743640D+02 -.816225042368516D+01 -.759341203852375D+02
 0.977515966789114D+02 0.348118517450764D+02 0.283488421146363D+02 0.327511347550626D+02
 0.180535351456341D+01 0.108326360327696D+01 0.722591828680102D+00 0.125048083851245D+01
 0.499607480832601D+02 -.173363039739894D+02 -.209091835196313D+02 0.419325047916625D+02
0.159737648861D-03 0.000000000000D+00 0.000000000000D+00 0.302987351192D-04 0.000000000000D+00  6 2 -1 25 24 21 21 2 0.14308971D+00 0.36519359D-02 0.15044587D+05 0.15044587D+05 0.15044587D+05 0.12476756D+01  1  2  2  3  6  5       21 0.222292069467D+00 0.100000000000D+01
0.123357787610D-04 0.842958732023D-05 -.613434631515D-06 0.302987351192D-04 0.000000000000D+00  6 2 -1 25 24 21 21 4 0.14308971D+00 0.36519359D-02 0.15044587D+05 0.15044587D+05 0.15044587D+05 0.12476756D+01  1  2  3  3  6  5       21 0.267230869274D-01 0.100000000000D+01
0.606185123264D-05 0.000000000000D+00 0.000000000000D+00 0.302987351192D-04 0.000000000000D+00  6 2 -1 25 24 21 21 4 0.14308971D+00 0.36519359D-02 0.15044587D+05 0.15044587D+05 0.15044587D+05 0.12476756D+01  1  2 15  3  6  5       21 0.131318322555D-01 0.100000000000D+01
0.582486369966D-09 0.000000000000D+00 0.000000000000D+00 0.302619596376D-04 0.000000000000D+00  6 2 -1 25 24 21 21 4 0.14308971D+00 0.36519359D-02 0.15276819D+05 0.15276819D+05 0.15276819D+05 0.12469182D+01  1  2 12  3  6  5       21 0.125931851970D-05 0.100000000000D+01
-.929272611313D-04 0.000000000000D+00 0.000000000000D+00 0.302987351192D-04 0.000000000000D+00  6 2 -1 25 24 21 21 4 0.14308971D+00 0.36519359D-02 0.15044587D+05 0.15044587D+05 0.15044587D+05 0.12476756D+01  1  2  4  3  6  5       21 -.201308999233D+00 0.100000000000D+01
-.986978527868D-06 0.000000000000D+00 0.000000000000D+00 0.302987351192D-04 0.000000000000D+00  6 2 -1 25 24 21 21 4 0.14308971D+00 0.36519359D-02 0.15044587D+05 0.15044587D+05 0.15044587D+05 0.12476756D+01  1  2  5  3  6  5       21 -.213809873755D-02 0.100000000000D+01
0.957206605954D-04 0.000000000000D+00 -.000000000000D+00 0.302987351192D-04 0.000000000000D+00  6 2 -1 25 24 21 21 4 0.14308971D+00 0.36519359D-02 0.15044587D+05 0.15044587D+05 0.15044587D+05 0.12476756D+01  1  2  6  3  6  5       21 0.207360360735D+00 0.100000000000D+01
0.479460145387D-06 0.000000000000D+00 0.000000000000D+00 0.302987351192D-04 0.332925221587D-04  6 2 -1 25 24 21 21 4 0.14308971D+00 0.36519359D-02 0.15276819D+05 0.15276819D+05 0.15276819D+05 0.12469182D+01  1  2 11  3  6  5       21 0.103657883115D-02 0.100000000000D+01
0.169904045722D-08 0.000000000000D+00 0.000000000000D+00 0.302619596376D-04 0.000000000000D+00  6 2 -1 25 24 1 -1 4 0.14308971D+00 0.36519359D-02 0.15276819D+05 0.15276819D+05 0.15276819D+05 0.12469182D+01  1  2 12  6  6  5       21 0.367327584611D-05 0.100000000000D+01
-.509482898795D-05 0.000000000000D+00 0.000000000000D+00 0.302987351192D-04 0.000000000000D+00  6 2 -1 25 24 1 -1 4 0.14308971D+00 0.36519359D-02 0.15044587D+05 0.15044587D+05 0.15044587D+05 0.12476756D+01  1  2  5  6  6  5       21 -.110369649588D-01 0.100000000000D+01
0.599563449545D-05 0.000000000000D+00 0.000000000000D+00 0.302987351192D-04 0.299059478116D-06  6 2 -1 25 24 1 -1 4 0.14308971D+00 0.36519359D-02 0.15276819D+05 0.15276819D+05 0.15276819D+05 0.12469182D+01  1  2 11  6  6  5       21 0.129623866699D-01 0.100000000000D+01
0.169904045722D-08 0.000000000000D+00 0.000000000000D+00 0.302619596376D-04 0.000000000000D+00  6 2 -1 25 24 2 -2 4 0.14308971D+00 0.36519359D-02 0.15276819D+05 0.15276819D+05 0.15276819D+05 0.12469182D+01  1  2 12  7  6  5       21 0.367327584611D-05 0.100000000000D+01
-.509482898795D-05 0.000000000000D+00 0.000000000000D+00 0.302987351192D-04 0.000000000000D+00  6 2 -1 25 24 2 -2 4 0.14308971D+00 0.36519359D-02 0.15044587D+05 0.15044587D+05 0.15044587D+05 0.12476756D+01  1  2  5  7  6  5       21 -.110369649588D-01 0.100000000000D+01
0.406648538427D-05 0.000000000000D+00 0.000000000000D+00 0.302987351192D-04 0.367019917105D-06  6 2 -1 25 24 2 -2 4 0.14308971D+00 0.36519359D-02 0.15276819D+05 0.15276819D+05 0.15276819D+05 0.12469182D+01  1  2 11  7  6  5       21 0.879162263452D-02 0.100000000000D+01
0.169904045722D-08 0.000000000000D+00 0.000000000000D+00 0.302619596376D-04 0.000000000000D+00  6 2 -1 25 24 3 -3 4 0.14308971D+00 0.36519359D-02 0.15276819D+05 0.15276819D+05 0.15276819D+05 0.12469182D+01  1  2 12  8  6  5       21 0.367327584611D-05 0.100000000000D+01
0.169904045722D-08 0.000000000000D+00 0.000000000000D+00 0.302619596376D-04 0.000000000000D+00  6 2 -1 25 24 4 -4 4 0.14308971D+00 0.36519359D-02 0.15276819D+05 0.15276819D+05 0.15276819D+05 0.12469182D+01  1  2 12  8  6  5       21 0.367327584611D-05 0.100000000000D+01
-.509482898795D-05 0.000000000000D+00 0.000000000000D+00 0.302987351192D-04 0.000000000000D+00  6 2 -1 25 24 3 -3 4 0.14308971D+00 0.36519359D-02 0.15044587D+05 0.15044587D+05 0.15044587D+05 0.12476756D+01  1  2  5  8  6  5       21 -.110369649588D-01 0.100000000000D+01
-.509482898795D-05 0.000000000000D+00 0.000000000000D+00 0.302987351192D-04 0.000000000000D+00  6 2 -1 25 24 4 -4 4 0.14308971D+00 0.36519359D-02 0.15044587D+05 0.15044587D+05 0.15044587D+05 0.12476756D+01  1  2  5  8  6  5       21 -.110369649588D-01 0.100000000000D+01
0.599365868424D-05 0.000000000000D+00 0.000000000000D+00 0.302987351192D-04 0.298847326176D-06  6 2 -1 25 24 3 -3 4 0.14308971D+00 0.36519359D-02 0.15276819D+05 0.15276819D+05 0.15276819D+05 0.12469182D+01  1  2 11  8  6  5       21 0.129581150238D-01 0.100000000000D+01
0.599365868424D-05 0.000000000000D+00 0.000000000000D+00 0.302987351192D-04 0.298847326176D-06  6 2 -1 25 24 4 -4 4 0.14308971D+00 0.36519359D-02 0.15276819D+05 0.15276819D+05 0.15276819D+05 0.12469182D+01  1  2 11  8  6  5       21 0.129581150238D-01 0.100000000000D+01
  </mgrwgt>
  </event>
  <event>
  5     66 0.42622971E-03 0.23674496E+02 0.75467711E-02 0.12058644E+00
        2 -1    0    0  502    0 0.00000000E+00 0.00000000E+00 0.13338490E+04 0.13338491E+04 0.32000000E+00 0.0000E+00 0.9000E+01
       -1 -1    0    0    0  501 0.00000000E+00 0.00000000E+00 -.24341191E+02 0.24343295E+02 0.32000000E+00 0.0000E+00 0.9000E+01
       25  1    1    2    0    0 0.19598105E+01 0.28671013E+01 0.17022099E+03 0.21121611E+03 0.12500000E+03 0.0000E+00 0.9000E+01
       24  1    1    2    0    0 -.12898658E+02 -.23862181E+02 0.49274081E+03 0.49999650E+03 0.80419002E+02 0.0000E+00 0.9000E+01
       21  1    1    2  502  501 0.10938848E+02 0.20995080E+02 0.64654605E+03 0.64697976E+03 0.75000000E+00 0.0000E+00 0.9000E+01
#aMCatNLO 1  0  0  2  5 0.75167722D-01 0.00000000D+00  -5  6  0 0.00000000D+00 0.00000000D+00 0.00000000D+00 0.00000000D+00 0.00000000D+00
  <mgrwgt>
 0.5071628046D+00    4    2    0
 0.180191367769837D+03 0.000000000000000D+00 0.000000000000000D+00 0.180191367769837D+03
 0.180191367769837D+03 0.000000000000000D+00 0.000000000000000D+00 -.180191367769837D+03
 0.177496775362173D+03 0.195961912026469D+01 0.286673390862612D+01 -.125968436497284D+03
 0.939095382044804D+02 -.128987593629829D+02 -.238623757576945D+02 0.401994333480297D+02
 0.889764219730205D+02 0.109391402427182D+02 0.209956418490684D+02 0.857690031492543D+02
 0.000000000000000D+00 -.000000000000000D+00 -.000000000000000D+00 0.000000000000000D+00
 0.221088368954609D+03 0.000000000000000D+00 0.000000000000000D+00 0.221088368954609D+03
 0.195372255261859D+03 0.000000000000000D+00 0.000000000000000D+00 -.195372255261859D+03
 0.179408022334258D+03 0.119711523215810D+02 0.234708967960908D+02 -.125968436497284D+03
 0.911932903729471D+02 -.770644161908771D+01 -.131763640942040D+02 0.401994333480297D+02
 0.927629905372919D+02 0.160371108334142D+02 0.314874830420232D+02 0.857690031492543D+02
 0.530963209719717D+02 -.203018215359075D+02 -.417820157439100D+02 0.257161136927503D+02
0.597439619169D-03 0.000000000000D+00 0.000000000000D+00 0.349757718431D-04 0.000000000000D+00  6 2 -1 25 24 21 21 2 0.20520771D+00 0.37449634D-02 0.13641452D+05 0.13641452D+05 0.13641452D+05 0.12525504D+01  1  2  2  2  6  2       -1 0.476101365850D+00 0.100000000000D+01
0.610883432744D-04 0.315277548797D-04 -.229432544707D-05 0.349757718431D-04 0.000000000000D+00  6 2 -1 25 24 21 21 4 0.20520771D+00 0.37449634D-02 0.13641452D+05 0.13641452D+05 0.13641452D+05 0.12525504D+01  1  2  3  2  6  2       -1 0.763755249926D-01 0.100000000000D+01
0.339596135051D-04 0.000000000000D+00 0.000000000000D+00 0.349757718431D-04 0.000000000000D+00  6 2 -1 25 24 21 21 4 0.20520771D+00 0.37449634D-02 0.13641452D+05 0.13641452D+05 0.13641452D+05 0.12525504D+01  1  2 15  2  6  2       -1 0.424579088411D-01 0.100000000000D+01
-.702037173266D-04 0.000000000000D+00 0.000000000000D+00 0.349757718431D-04 0.000000000000D+00  6 2 -1 25 24 21 21 4 0.20520771D+00 0.37449634D-02 0.13641452D+05 0.13641452D+05 0.13641452D+05 0.12525504D+01  1  2  4  2  6  2       -1 -.877719951116D-01 0.100000000000D+01
  </mgrwgt>
  </event>
  <event>
  6     66 0.42622971E-03 0.25266034E+02 0.75467711E-02 0.11897989E+00
        4 -1    0    0  503    0 0.00000000E+00 0.00000000E+00 0.68394172E+03 0.68394348E+03 0.15500000E+01 0.0000E+00 0.9000E+01
       -3 -1    0    0    0  501 0.00000000E+00 0.00000000E+00 -.96254805E+02 0.96256103E+02 0.50000000E+00 0.0000E+00 0.9000E+01
       25  1    1    2    0    0 -.90567360E+02 0.40830733E+02 0.74476350E+01 0.15984387E+03 0.12500000E+03 0.0000E+00 0.9000E+01
       24  1    1    2    0    0 0.74579455E+02 -.56237978E+02 0.18555162E+03 0.22275867E+03 0.80419002E+02 0.0000E+00 0.9000E+01
       21  1    1    2  502  501 -.57904608E+01 -.30602018E+01 0.10833330E+02 0.12681396E+02 0.75000000E+00 0.0000E+00 0.9000E+01
       21  1    1    2  503  502 0.21778366E+02 0.18467447E+02 0.38385433E+03 0.38491564E+03 0.75000000E+00 0.0000E+00 0.9000E+01
#aMCatNLO 2  0  0  1  5 0.46349450D+00 0.00000000D+00  -5  6  0 0.00000000D+00 0.00000000D+00 0.00000000D+00 0.00000000D+00 0.00000000D+00
  <mgrwgt>
 0.4503274221D-01    1    2    0
 0.168735239718178D+03 0.000000000000000D+00 0.000000000000000D+00 0.168735239718178D+03
 0.168735239718178D+03 0.000000000000000D+00 0.000000000000000D+00 -.168735239718178D+03
 0.179120861248565D+03 -.789202408107097D+02 0.507025580823342D+02 -.875221636427865D+02
 0.150581044229397D+03 0.842179021251639D+02 -.480687172296504D+02 0.824874433618672D+02
 0.776857395839357D+01 -.529766131445423D+01 -.263384085268373D+01 0.503472028091930D+01
 0.000000000000000D+00 0.000000000000000D+00 0.000000000000000D+00 0.000000000000000D+00
 0.386626838492927D+03 0.000000000000000D+00 0.000000000000000D+00 0.386626838492927D+03
 0.170276262038823D+03 0.000000000000000D+00 0.000000000000000D+00 -.170276262038823D+03
 0.182079351704192D+03 -.905543269568035D+02 0.408371773963912D+02 -.875221636427865D+02
 0.148314650628476D+03 0.745906147150984D+02 -.562323885383050D+02 0.824874433618672D+02
 0.828234511509675D+01 -.581465374283187D+01 -.307223601786032D+01 0.503472028091930D+01
 0.218226753083985D+03 0.217783659845370D+02 0.184674471597741D+02 0.216350576454104D+03
0.344842765428D-02 0.000000000000D+00 0.000000000000D+00 0.395016486610D-03 0.189430829731D-05  6 4 -3 25 24 21 21 4 0.10522164D+00 0.14808611D-01 0.25289787D+05 0.25289787D+05 0.25289787D+05 0.12227614D+01  1  2  1  1  6  1        4 0.450327422119D-01 0.100000000000D+01
  </mgrwgt>
  </event>
  <event>
  6     66 -.42622971E-03 0.15517364E+02 0.75467711E-02 0.12214053E+00
        2 -1    0    0  502    0 0.00000000E+00 0.00000000E+00 0.49033156E+03 0.49033166E+03 0.32000000E+00 0.0000E+00 0.9000E+01
       -1 -1    0    0    0  501 0.00000000E+00 0.00000000E+00 -.38365659E+02 0.38366993E+02 0.32000000E+00 0.0000E+00 0.9000E+01
       25  1    1    2    0    0 0.26795677E+02 0.37101814E+02 0.17005447E+03 0.21595850E+03 0.12500000E+03 0.0000E+00 0.9000E+01
       24  1    1    2    0    0 -.42290944E+02 -.55809201E+02 0.22668087E+03 0.25050873E+03 0.80419002E+02 0.0000E+00 0.9000E+01
       21  1    1    2  503  501 0.89672145E+01 0.17269285E+02 0.50161590E+02 0.53808798E+02 0.75000000E+00 0.0000E+00 0.9000E+01
       21  1    1    2  502  503 0.65280526E+01 0.14381022E+01 0.50689639E+01 0.84226186E+01 0.75000000E+00 0.0000E+00 0.9000E+01
#aMCatNLO 2  0  0  5  1 0.66237217D+01 0.00000000D+00  -5  6  0 0.00000000D+00 0.00000000D+00 0.00000000D+00 0.00000000D+00 0.00000000D+00
  <mgrwgt>
 -.7161918547D+00    3    2    0
 0.137157841857648D+03 0.000000000000000D+00 0.000000000000000D+00 0.137157841857648D+03
 0.137157841857648D+03 -.000000000000000D+00 -.000000000000000D+00 -.137157841857648D+03
 0.135410722652680D+03 0.254333292426421D+02 0.354570563610422D+02 -.284078638261698D+02
 0.110385969905214D+03 -.433936552398937D+02 -.571405010264528D+02 0.238704885771426D+02
 0.285189911574017D+02 0.179603259972516D+02 0.216834446654105D+02 0.453737524902723D+01
 0.000000000000000D+00 0.000000000000000D+00 0.000000000000000D+00 0.000000000000000D+00
 0.137157841857648D+03 0.000000000000000D+00 0.000000000000000D+00 0.137157841857648D+03
 0.137157841857648D+03 -.000000000000000D+00 -.000000000000000D+00 -.137157841857648D+03
 0.136054557517364D+03 0.268244908469142D+02 0.371366013576916D+02 -.280564101703961D+02
 0.109310519792775D+03 -.422677900063370D+02 -.557812474975206D+02 0.241549195526862D+02
 0.207138273990266D+02 0.856461918637473D+01 0.170179214246528D+02 0.813020873615133D+01
 0.823677900612931D+01 0.687867997304808D+01 0.162672471517615D+01 -.422871811844144D+01
-.975980071167D-04 0.000000000000D+00 0.000000000000D+00 0.276171142633D-04 0.000000000000D+00  6 2 -1 25 24 21 21 4 0.75435735D-01 0.59025197D-02 0.17670199D+05 0.17670199D+05 0.17670199D+05 0.12397920D+01  1  2 13  3  6  5       21 -.217805735596D+00 0.100000000000D+01
-.996143269428D-04 0.000000000000D+00 0.000000000000D+00 0.276171142633D-04 0.000000000000D+00  6 2 -1 25 24 21 21 4 0.75435735D-01 0.59025197D-02 0.17670199D+05 0.17670199D+05 0.17670199D+05 0.12397920D+01  1  2 13  3  6  5       21 -.222305479350D+00 0.100000000000D+01
-.123994445988D-03 0.000000000000D+00 0.000000000000D+00 0.275772066867D-04 0.000000000000D+00  6 2 -1 25 24 21 21 4 0.75435735D-01 0.59025197D-02 0.17999872D+05 0.17999872D+05 0.17999872D+05 0.12388959D+01  1  2  8  3  6  5       21 -.276080639706D+00 0.100000000000D+01
  </mgrwgt>
  </event>
  <event>
  6     66 0.42622971E-03 0.17821185E+02 0.75467711E-02 0.11005936E+00
        2 -1    0    0  502    0 0.00000000E+00 0.00000000E+00 0.16607450E+04 0.16607451E+04 0.32000000E+00 0.0000E+00 0.9000E+01
       -1 -1    0    0    0  501 0.00000000E+00 0.00000000E+00 -.17018095E+03 0.17018125E+03 0.32000000E+00 0.0000E+00 0.9000E+01
       25  1    1    2    0    0 -.96319003E+02 -.21076359E+03 -.45213814E+02 0.26714776E+03 0.12500000E+03 0.0000E+00 0.9000E+01
       24  1    1    2    0    0 0.84787411E+02 0.21242658E+03 0.10983574E+04 0.11247978E+04 0.80419002E+02 0.0000E+00 0.9000E+01
       21  1    1    2  503  501 0.24019270E+02 -.10820415E+01 0.31674178E+03 0.31765392E+03 0.75000000E+00 0.0000E+00 0.9000E+01
       21  1    1    2  502  503 -.12487678E+02 -.58095083E+00 0.12067867E+03 0.12132677E+03 0.75000000E+00 0.0000E+00 0.9000E+01
#aMCatNLO 2  0  0  5  2 0.24633674D+01 0.00000000D+00  -5  6  0 0.00000000D+00 0.00000000D+00 0.00000000D+00 0.00000000D+00 0.00000000D+00
  <mgrwgt>
 0.9304072346D+00    1    2    0
 0.531627195755083D+03 0.000000000000000D+00 0.000000000000000D+00 0.531627195755083D+03
 0.531627195755083D+03 -.000000000000000D+00 -.000000000000000D+00 -.531627195755083D+03
 0.525302678787796D+03 -.964995472768410D+02 -.210737548628869D+03 -.454527696972247D+03
 0.395819916009530D+03 0.846508988583257D+02 0.212446264233584D+03 0.312900942937365D+03
 0.142131796712840D+03 0.118486484185152D+02 -.170871560471490D+01 0.141626754034881D+03
 0.000000000000000D+00 0.000000000000000D+00 0.000000000000000D+00 0.000000000000000D+00
 0.531627195755083D+03 0.000000000000000D+00 0.000000000000000D+00 0.531627195755083D+03
 0.531627195755083D+03 -.000000000000000D+00 -.000000000000000D+00 -.531627195755083D+03
 0.523407598497301D+03 -.963184157283530D+02 -.210763669946042D+03 -.452362633721186D+03
 0.397133946670086D+03 0.847878565711827D+02 0.212426513307328D+03 0.314537996854982D+03
 0.102599717689866D+03 0.240773757202867D+02 -.107665854082690D+01 0.997287463816262D+02
 0.401131286529134D+02 -.125468165631165D+02 -.586184820459520D+00 0.380958904845779D+02
0.293228150446D-01 0.000000000000D+00 0.000000000000D+00 0.366376787896D-04 0.921053213704D-07  6 2 -1 25 24 21 21 4 0.25549926D+00 0.26181711D-01 0.73550526D+05 0.73550526D+05 0.73550526D+05 0.11760301D+01  1  2  1  3  6  5       21 0.930407234648D+00 0.100000000000D+01
  </mgrwgt>
  </event>
  <event>
  5     66 0.42622971E-03 0.21570267E+02 0.75467711E-02 0.10864472E+00
        2 -1    0    0  502    0 0.00000000E+00 0.00000000E+00 0.44586806E+03 0.44586818E+03 0.32000000E+00 0.0000E+00 0.9000E+01
       -1 -1    0    0    0  501 0.00000000E+00 0.00000000E+00 -.24830502E+03 0.24830523E+03 0.32000000E+00 0.0000E+00 0.9000E+01
       25  1    1    2    0    0 -.26438399E+01 -.19349275E+03 0.14332661E+03 0.27131891E+03 0.12500000E+03 0.0000E+00 0.9000E+01
       24  1    1    2    0    0 0.52862627E+01 0.21490040E+03 0.18222521E+03 0.29305865E+03 0.80419002E+02 0.0000E+00 0.9000E+01
       21  1    1    2  502  501 -.26424228E+01 -.21407652E+02 -.12798878E+03 0.12979584E+03 0.75000000E+00 0.0000E+00 0.9000E+01
#aMCatNLO 1  0  0  2  5 0.15040432D+01 0.00000000D+00  -5  6  0 0.00000000D+00 0.00000000D+00 0.00000000D+00 0.00000000D+00 0.00000000D+00
  <mgrwgt>
 0.4163824069D+01    7    4    0
 0.332733211371287D+03 0.000000000000000D+00 0.000000000000000D+00 0.332733211371287D+03
 0.332733211371287D+03 0.000000000000000D+00 0.000000000000000D+00 -.332733211371287D+03
 0.240472544534851D+03 -.264383092503695D+01 -.193492678995177D+03 0.689611340421178D+02
 0.251602119009504D+03 0.528627204866234D+01 0.214900479196535D+03 0.103083702420068D+03
 0.173391759198219D+03 -.264244112362539D+01 -.214078002013581D+02 -.172044836462186D+03
 0.000000000000000D+00 0.000000000000000D+00 0.000000000000000D+00 -.000000000000000D+00
 0.350971195288636D+03 0.000000000000000D+00 0.000000000000000D+00 0.350971195288636D+03
 0.470595759867547D+03 0.000000000000000D+00 0.000000000000000D+00 -.470595759867547D+03
 0.266387268368975D+03 -.179393069682111D+02 -.224186797127328D+03 0.689611340421178D+02
 0.227448459132304D+03 -.917000650192593D+01 0.185890416330198D+03 0.103083702420068D+03
 0.177751523072793D+03 -.132388694159527D+02 -.426721283507721D+02 -.172044836462186D+03
 0.149979704582111D+03 0.403481828860897D+02 0.809685091479016D+02 -.119624564578911D+03
 0.332733211371287D+03 0.000000000000000D+00 0.000000000000000D+00 0.332733211371287D+03
 0.332733211371287D+03 0.000000000000000D+00 0.000000000000000D+00 -.332733211371287D+03
 0.240472544534851D+03 -.264383092503695D+01 -.193492678995177D+03 0.689611340421178D+02
 0.251602119009504D+03 0.528627204866234D+01 0.214900479196535D+03 0.103083702420068D+03
 0.000000000000000D+00 0.000000000000000D+00 0.000000000000000D+00 -.000000000000000D+00
 0.173391759198219D+03 -.264244112362539D+01 -.214078002013581D+02 -.172044836462186D+03
 0.350971195288636D+03 0.000000000000000D+00 0.000000000000000D+00 0.350971195288636D+03
 0.470595759867547D+03 0.000000000000000D+00 0.000000000000000D+00 -.470595759867547D+03
 0.266387268368975D+03 -.179393069682111D+02 -.224186797127328D+03 0.689611340421178D+02
 0.227448459132304D+03 -.917000650192593D+01 0.185890416330198D+03 0.103083702420068D+03
 0.149979704582111D+03 0.403481828860897D+02 0.809685091479016D+02 -.119624564578911D+03
 0.177751523072793D+03 -.132388694159527D+02 -.426721283507721D+02 -.172044836462186D+03
0.276624478307D-01 0.000000000000D+00 0.000000000000D+00 0.428248819472D-04 0.000000000000D+00  6 2 -1 25 24 21 21 2 0.68595111D-01 0.38200797D-01 0.57950479D+05 0.57950479D+05 0.57950479D+05 0.11859865D+01  1  2  2  2  6  2       -1 0.211565652232D+01 0.100000000000D+01
0.103335699871D-01 0.145978747742D-02 -.106231083360D-03 0.428248819472D-04 0.000000000000D+00  6 2 -1 25 24 21 21 4 0.68595111D-01 0.38200797D-01 0.57950479D+05 0.57950479D+05 0.57950479D+05 0.11859865D+01  1  2  3  2  6  2       -1 0.111164070555D+01 0.100000000000D+01
0.205119371043D-03 0.000000000000D+00 0.000000000000D+00 0.428248819472D-04 0.000000000000D+00  6 2 -1 25 24 21 21 4 0.68595111D-01 0.38200797D-01 0.57950479D+05 0.57950479D+05 0.57950479D+05 0.11859865D+01  1  2 15  2  6  2       -1 0.220658535854D-01 0.100000000000D+01
-.219710372363D-01 0.000000000000D+00 0.000000000000D+00 0.428248819472D-04 0.000000000000D+00  6 2 -1 25 24 21 21 4 0.68595111D-01 0.38200797D-01 0.57950479D+05 0.57950479D+05 0.57950479D+05 0.11859865D+01  1  2  4  2  6  2       -1 -.236354903152D+01 0.100000000000D+01
-.872231601667D-01 0.000000000000D+00 -.203103910344D-01 0.428248819472D-04 0.000000000000D+00  6 2 -1 25 24 21 21 4 0.68595111D-01 0.56179373D-01 0.57950479D+05 0.57950479D+05 0.57950479D+05 0.11859865D+01  1  2  5  2  6  2       -1 -.464028711072D+01 0.100000000000D+01
0.897224612750D-01 0.000000000000D+00 0.188880054169D-01 0.428248819472D-04 0.000000000000D+00  6 2 -1 25 24 21 21 4 0.68595111D-01 0.38200797D-01 0.57950479D+05 0.57950479D+05 0.57950479D+05 0.11859865D+01  1  2  6  2  6  2       -1 0.965195380497D+01 0.100000000000D+01
-.338318763419D-02 0.000000000000D+00 -.941354757424D-03 0.428248819472D-04 0.000000000000D+00  6 2 21 25 24 1 21 4 0.68595111D-01 0.56179373D-01 0.57950479D+05 0.57950479D+05 0.57950479D+05 0.11859865D+01  3  4  5  5  5  2       -1 -.173365667489D+01 0.100000000000D+01
  </mgrwgt>
  </event>
  <event>
  5     66 0.42622971E-03 0.61241866E+02 0.75467711E-02 0.10586283E+00
        4 -1    0    0  502    0 0.00000000E+00 0.00000000E+00 0.19026393E+03 0.19027024E+03 0.15500000E+01 0.0000E+00 0.9000E+01
       -3 -1    0    0    0  501 0.00000000E+00 0.00000000E+00 -.19301476E+03 0.19301541E+03 0.50000000E+00 0.0000E+00 0.9000E+01
       25  1    1    2    0    0 -.11017580E+02 0.41062770E+02 -.14657933E+01 0.13204047E+03 0.12500000E+03 0.0000E+00 0.9000E+01
       24  1    1    2    0    0 -.44913422E+02 -.16119261E+02 0.97449305E+02 0.13505787E+03 0.80419002E+02 0.0000E+00 0.9000E+01
       21  1    1    2  502  501 0.55931002E+02 -.24943509E+02 -.98734348E+02 0.11618730E+03 0.75000000E+00 0.0000E+00 0.9000E+01
#aMCatNLO 1  0  0  1  5 0.13657605D+01 0.00000000D+00  -5  6  0 0.00000000D+00 0.00000000D+00 0.00000000D+00 0.00000000D+00 0.00000000D+00
  <mgrwgt>
 0.5806261909D-02    5    4    0
 0.191637889437546D+03 0.000000000000000D+00 0.000000000000000D+00 0.191637889437546D+03
 0.191637889437546D+03 0.000000000000000D+00 0.000000000000000D+00 -.191637889437546D+03
 0.132033441597241D+03 -.110179862870545D+02 0.410629508338800D+02 -.517442754991407D+00
 0.135761408297025D+03 -.449138399893230D+02 -.161190746418396D+02 0.984218798770137D+02
 0.115480928980827D+03 0.559318262763775D+02 -.249438761920404D+02 -.979044371220223D+02
 0.000000000000000D+00 0.000000000000000D+00 0.000000000000000D+00 0.000000000000000D+00
 0.511145207572237D+03 0.000000000000000D+00 0.000000000000000D+00 0.511145207572237D+03
 0.327217923324263D+03 0.000000000000000D+00 0.000000000000000D+00 -.327217923324263D+03
 0.146621535641049D+03 -.671995193488391D+02 -.368351946651538D+02 -.517442754991407D+00
 0.203145819450662D+03 -.113243240774805D+03 -.110860768472011D+03 0.984218798770137D+02
 0.136849831398557D+03 0.505769835926940D+01 -.954830730178925D+02 -.979044371220223D+02
 0.351745944406231D+03 0.175385061764375D+03 0.243179036155057D+03 0.183927284247974D+03
 0.191637889437546D+03 0.000000000000000D+00 0.000000000000000D+00 0.191637889437546D+03
 0.191637889437546D+03 0.000000000000000D+00 0.000000000000000D+00 -.191637889437546D+03
 0.132033441597241D+03 -.110179862870545D+02 0.410629508338800D+02 -.517442754991407D+00
 0.135761408297025D+03 -.449138399893230D+02 -.161190746418396D+02 0.984218798770137D+02
 0.000000000000000D+00 0.000000000000000D+00 0.000000000000000D+00 0.000000000000000D+00
 0.115480928980827D+03 0.559318262763775D+02 -.249438761920404D+02 -.979044371220223D+02
 0.511145207572237D+03 0.000000000000000D+00 0.000000000000000D+00 0.511145207572237D+03
 0.327217923324263D+03 0.000000000000000D+00 0.000000000000000D+00 -.327217923324263D+03
 0.146621535641049D+03 -.671995193488391D+02 -.368351946651538D+02 -.517442754991407D+00
 0.203145819450662D+03 -.113243240774805D+03 -.110860768472011D+03 0.984218798770137D+02
 0.351745944406231D+03 0.175385061764375D+03 0.243179036155057D+03 0.183927284247974D+03
 0.136849831398557D+03 0.505769835926940D+01 -.954830730178925D+02 -.979044371220223D+02
0.118446457758D-03 0.000000000000D+00 0.000000000000D+00 0.698198273605D-05 0.000000000000D+00  6 4 -3 25 24 21 21 2 0.29271909D-01 0.29695114D-01 0.20561441D+05 0.20561441D+05 0.20561441D+05 0.12325046D+01  1  2  2  1  6  1        4 0.436216377615D-02 0.100000000000D+01
-.333432055845D-05 0.625059130119D-05 -.454865585460D-06 0.698198273605D-05 0.000000000000D+00  6 4 -3 25 24 21 21 4 0.29271909D-01 0.29695114D-01 0.20561441D+05 0.20561441D+05 0.20561441D+05 0.12325046D+01  1  2  3  1  6  1        4 -.186536705700D-03 0.100000000000D+01
0.333509488825D-05 0.000000000000D+00 0.000000000000D+00 0.698198273605D-05 0.000000000000D+00  6 4 -3 25 24 21 21 4 0.29271909D-01 0.29695114D-01 0.20561441D+05 0.20561441D+05 0.20561441D+05 0.12325046D+01  1  2 15  1  6  1        4 0.186580025150D-03 0.100000000000D+01
0.102114462940D-03 0.000000000000D+00 -.875310355001D-04 0.698198273605D-05 0.000000000000D+00  6 4 -3 25 24 21 21 4 0.12141303D+00 0.29695114D-01 0.20561441D+05 0.20561441D+05 0.20561441D+05 0.12325046D+01  1  2  5  1  6  1        4 0.281673481241D-03 0.100000000000D+01
0.179041599520D-04 0.000000000000D+00 -.149271837295D-04 0.698198273605D-05 0.000000000000D+00  6 21 -3 25 24 -4 21 4 0.12141303D+00 0.29695114D-01 0.20561441D+05 0.20561441D+05 0.20561441D+05 0.12325046D+01  3  4  5  4  5  1        4 0.116238133171D-02 0.100000000000D+01
  </mgrwgt>
  </event>
  <event>
  6     66 0.42622971E-03 0.13073388E+02 0.75467711E-02 0.11905150E+00
        2 -1    0    0  502    0 0.00000000E+00 0.00000000E+00 0.12965911E+04 0.12965912E+04 0.32000000E+00 0.0000E+00 0.9000E+01
       21 -1    0    0  503  501 0.00000000E+00 0.00000000E+00 -.36907856E+02 0.36915475E+02 0.75000000E+00 0.0000E+00 0.9000E+01
       25  1    1    2    0    0 -.10011573E+03 0.34982558E+02 0.30669087E+03 0.34775167E+03 0.12500000E+03 0.0000E+00 0.9000E+01
       24  1    1    2    0    0 0.76841893E+02 -.26854193E+02 0.82962469E+03 0.83747845E+03 0.80419002E+02 0.0000E+00 0.9000E+01
        1  1    1    2  503    0 0.10265013E+02 -.18927250E+02 -.21334436E+01 0.21639438E+02 0.32000000E+00 0.0000E+00 0.9000E+01
       21  1    1    2  502  501 0.13008822E+02 0.10798885E+02 0.12550115E+03 0.12663706E+03 0.75000000E+00 0.0000E+00 0.9000E+01
#aMCatNLO 2  0  0  2  5 0.15040432D+01 0.00000000D+00  -5  6  0 0.00000000D+00 0.00000000D+00 0.00000000D+00 0.00000000D+00 0.00000000D+00
  <mgrwgt>
 0.1195925441D+01    1    2    0
 0.179130208888522D+03 0.000000000000000D+00 0.000000000000000D+00 0.179130208888522D+03
 0.179130208888522D+03 0.000000000000000D+00 0.000000000000000D+00 -.179130208888522D+03
 0.188488628403165D+03 -.946619032678809D+02 0.249153171128131D+02 -.101593868319780D+03
 0.148277854428228D+03 0.810276857197842D+02 -.345809822586713D+02 0.880782377911235D+02
 0.000000000000000D+00 0.000000000000000D+00 -.000000000000000D+00 -.000000000000000D+00
 0.214939349456502D+02 0.136342175480967D+02 0.966566514585823D+01 0.135156305286567D+02
 0.180813219960497D+03 0.000000000000000D+00 0.000000000000000D+00 0.180813219960497D+03
 0.264689435087559D+03 0.000000000000000D+00 0.000000000000000D+00 -.264689435087559D+03
 0.192857328139658D+03 -.100120213184501D+03 0.349796776554723D+02 -.101593868319780D+03
 0.144396824943210D+03 0.768385522640648D+02 -.268568057088393D+02 0.880782377911235D+02
 0.865957893840202D+02 0.102650132456372D+02 -.189272496170808D+02 -.838762151270621D+02
 0.216527125811685D+02 0.130166476747994D+02 0.108043776704479D+02 0.135156305286567D+02
0.108724134272D-03 0.000000000000D+00 0.000000000000D+00 0.465298985100D-04 0.409955453155D-07  6 2 21 25 24 1 21 4 0.19947582D+00 0.56787116D-02 0.25090571D+05 0.25090571D+05 0.25090571D+05 0.12231293D+01  1  2  1  5  5  2       -1 0.119592544064D+01 0.100000000000D+01
  </mgrwgt>
  </event>
  <event>
  5     66 0.42622971E-03 0.27915991E+02 0.75467711E-02 0.11699180E+00
        2 -1    0    0  502    0 0.00000000E+00 0.00000000E+00 0.20683123E+04 0.20683123E+04 0.32000000E+00 0.0000E+00 0.9000E+01
       -1 -1    0    0    0  501 0.00000000E+00 0.00000000E+00 -.19762446E+02 0.19765037E+02 0.32000000E+00 0.0000E+00 0.9000E+01
       25  1    1    2    0    0 0.75759605E+02 -.88882432E+02 0.43531353E+03 0.46772051E+03 0.12500000E+03 0.0000E+00 0.9000E+01
       24  1    1    2    0    0 -.64701122E+02 0.63253484E+02 0.11712239E+04 0.11774633E+04 0.80419002E+02 0.0000E+00 0.9000E+01
       21  1    1    2  502  501 -.11058484E+02 0.25628948E+02 0.44201246E+03 0.44289357E+03 0.75000000E+00 0.0000E+00 0.9000E+01
#aMCatNLO 1  0  0  1  5 0.35185367D+02 0.00000000D+00  -5  6  0 0.00000000D+00 0.00000000D+00 0.00000000D+00 0.00000000D+00 0.00000000D+00
  <mgrwgt>
 0.3988919470D+00    7    4    0
 0.202182197862638D+03 0.000000000000000D+00 0.000000000000000D+00 0.202182197862638D+03
 0.202182197862638D+03 0.000000000000000D+00 0.000000000000000D+00 -.202182197862638D+03
 0.209900039633321D+03 0.757603133611772D+02 -.888840730048947D+02 -.121626572440180D+03
 0.146707465714256D+03 -.647006269906638D+02 0.632523374365447D+02 0.828784363858153D+02
 0.477568903776985D+02 -.110596863705133D+02 0.256317355683500D+02 0.387481360543649D+02
 0.000000000000000D+00 -.000000000000000D+00 0.000000000000000D+00 0.000000000000000D+00
 0.339210284722712D+03 0.000000000000000D+00 0.000000000000000D+00 0.339210284722712D+03
 0.205217502085546D+03 0.000000000000000D+00 0.000000000000000D+00 -.205217502085546D+03
 0.220674290857767D+03 0.849971264239875D+02 -.105140896047620D+03 -.121626572440180D+03
 0.139695259904253D+03 -.585566275697038D+02 0.524388771356856D+02 0.828784363858153D+02
 0.455227681912084D+02 -.905862242464114D+01 0.221098560798282D+02 0.387481360543649D+02
 0.138535467855031D+03 -.173818764296426D+02 0.305921628321065D+02 0.133992782637166D+03
 0.202182197862638D+03 0.000000000000000D+00 0.000000000000000D+00 0.202182197862638D+03
 0.202182197862638D+03 0.000000000000000D+00 0.000000000000000D+00 -.202182197862638D+03
 0.209900039633321D+03 0.757603133611772D+02 -.888840730048947D+02 -.121626572440180D+03
 0.146707465714256D+03 -.647006269906638D+02 0.632523374365447D+02 0.828784363858153D+02
 0.000000000000000D+00 -.000000000000000D+00 0.000000000000000D+00 0.000000000000000D+00
 0.477568903776985D+02 -.110596863705133D+02 0.256317355683500D+02 0.387481360543649D+02
 0.339210284722712D+03 0.000000000000000D+00 0.000000000000000D+00 0.339210284722712D+03
 0.205217502085546D+03 0.000000000000000D+00 0.000000000000000D+00 -.205217502085546D+03
 0.220674290857767D+03 0.849971264239875D+02 -.105140896047620D+03 -.121626572440180D+03
 0.139695259904253D+03 -.585566275697038D+02 0.524388771356856D+02 0.828784363858153D+02
 0.138535467855031D+03 -.173818764296426D+02 0.305921628321065D+02 0.133992782637166D+03
 0.455227681912084D+02 -.905862242464114D+01 0.221098560798282D+02 0.387481360543649D+02
0.156170308367D-03 0.000000000000D+00 0.000000000000D+00 0.164220445886D-04 0.000000000000D+00  6 2 -1 25 24 21 21 2 0.31820210D+00 0.30405775D-02 0.25606542D+05 0.25606542D+05 0.25606542D+05 0.12221830D+01  1  2  2  1  6  1        2 0.673611619256D-01 0.100000000000D+01
0.188218559215D-04 0.824133359038D-05 -.599735104716D-06 0.164220445886D-04 0.000000000000D+00  6 2 -1 25 24 21 21 4 0.31820210D+00 0.30405775D-02 0.25606542D+05 0.25606542D+05 0.25606542D+05 0.12221830D+01  1  2  3  1  6  1        2 0.121267953585D-01 0.100000000000D+01
0.294251486013D-05 0.000000000000D+00 0.000000000000D+00 0.164220445886D-04 0.000000000000D+00  6 2 -1 25 24 21 21 4 0.31820210D+00 0.30405775D-02 0.25606542D+05 0.25606542D+05 0.25606542D+05 0.12221830D+01  1  2 15  1  6  1        2 0.189584256180D-02 0.100000000000D+01
-.606857535570D-03 0.000000000000D+00 0.000000000000D+00 0.164220445886D-04 0.000000000000D+00  6 2 -1 25 24 21 21 4 0.31820210D+00 0.30405775D-02 0.25606542D+05 0.25606542D+05 0.25606542D+05 0.12221830D+01  1  2  4  1  6  1        2 -.390994234378D+00 0.100000000000D+01
-.146744108782D-02 0.000000000000D+00 -.786838342633D-04 0.164220445886D-04 0.000000000000D+00  6 2 -1 25 24 21 21 4 0.53529394D+00 0.30405775D-02 0.25606542D+05 0.25606542D+05 0.25606542D+05 0.12221830D+01  1  2  5  1  6  1        2 -.149975246072D+00 0.100000000000D+01
0.133345354114D-02 0.000000000000D+00 0.691212893946D-04 0.164220445886D-04 0.000000000000D+00  6 2 -1 25 24 21 21 4 0.31820210D+00 0.30405775D-02 0.25606542D+05 0.25606542D+05 0.25606542D+05 0.12221830D+01  1  2  6  1  6  1        2 0.859135160789D+00 0.100000000000D+01
-.816864423880D-04 0.000000000000D+00 -.457876663213D-05 0.164220445886D-04 0.000000000000D+00  6 21 -1 25 24 -2 21 4 0.53529394D+00 0.30405775D-02 0.25606542D+05 0.25606542D+05 0.25606542D+05 0.12221830D+01  3  4  5  4  5  1        2 -.657533153980D-03 0.100000000000D+01
  </mgrwgt>
  </event>
  <event>
  6     66 -.42622971E-03 0.30378071E+02 0.75467711E-02 0.11234513E+00
        2 -1    0    0  502    0 0.00000000E+00 0.00000000E+00 0.18064517E+04 0.18064517E+04 0.32000000E+00 0.0000E+00 0.9000E+01
       -1 -1    0    0    0  501 0.00000000E+00 0.00000000E+00 -.30612041E+03 0.30612058E+03 0.32000000E+00 0.0000E+00 0.9000E+01
       25  1    1    2    0    0 -.10995547E+03 0.13677896E+03 0.62457888E+03 0.66069847E+03 0.12500000E+03 0.0000E+00 0.9000E+01
       24  1    1    2    0    0 0.11483702E+03 -.70538990E+02 0.11497914E+04 0.11604528E+04 0.80419002E+02 0.0000E+00 0.9000E+01
       21  1    1    2  503  501 0.32816987E+02 -.29735357E+02 -.15751509E+03 0.16362369E+03 0.75000000E+00 0.0000E+00 0.9000E+01
       21  1    1    2  502  503 -.37698537E+02 -.36504616E+02 -.11652392E+03 0.12779731E+03 0.75000000E+00 0.0000E+00 0.9000E+01
#aMCatNLO 2  0  0  5  1 0.36464812D+02 0.00000000D+00  -5  6  0 0.00000000D+00 0.00000000D+00 0.00000000D+00 0.00000000D+00 0.00000000D+00
  <mgrwgt>
 -.1022719950D+01    2    2    0
 0.743634279654295D+03 0.000000000000000D+00 0.000000000000000D+00 0.743634279654295D+03
 0.743634279654295D+03 -.000000000000000D+00 -.000000000000000D+00 -.743634279654295D+03
 0.309032219374782D+03 -.109949651999867D+03 0.136857877167993D+03 0.221487941192929D+03
 0.489666290579212D+03 0.114846230371414D+03 -.704139777604081D+02 0.463851350413758D+03
 0.688570049354595D+03 -.489657837154746D+01 -.664438994075853D+02 -.685339291606687D+03
 0.000000000000000D+00 -.000000000000000D+00 0.000000000000000D+00 0.000000000000000D+00
 0.743634279654295D+03 0.000000000000000D+00 0.000000000000000D+00 0.743634279654295D+03
 0.743634279654295D+03 -.000000000000000D+00 -.000000000000000D+00 -.743634279654295D+03
 0.308416705029790D+03 -.109955464962654D+03 0.136778998431585D+03 0.220674342084285D+03
 0.488461419374062D+03 0.114837021804107D+03 -.705389329992263D+02 0.462562492661313D+03
 0.390914174457148D+03 0.328249869099799D+02 -.296953217975559D+02 -.388400051350683D+03
 0.299476260447589D+03 -.377065437514339D+02 -.365447436348030D+02 -.294836783394914D+03
-.146331957795D+00 0.000000000000D+00 0.000000000000D+00 0.219857063354D-04 0.000000000000D+00  6 2 -1 25 24 21 21 4 0.27791566D+00 0.47095463D-01 0.55031663D+05 0.55031663D+05 0.55031663D+05 0.11881795D+01  1  2 13  3  6  5       21 -.147235200141D+01 0.100000000000D+01
0.446873698243D-01 0.000000000000D+00 0.000000000000D+00 0.221969788849D-04 0.410439780670D-07  6 2 -1 25 24 21 21 4 0.27791566D+00 0.47095463D-01 0.55031663D+05 0.55031663D+05 0.55031663D+05 0.11881795D+01  1  2  1  3  6  5       21 0.449632051602D+00 0.100000000000D+01
  </mgrwgt>
  </event>
  <event>
  5     66 -.42622971E-03 0.20153540E+02 0.75467711E-02 0.12188936E+00
        2 -1    0    0  502    0 0.00000000E+00 0.00000000E+00 0.16578021E+03 0.16578052E+03 0.32000000E+00 0.0000E+00 0.9000E+01
       -1 -1    0    0    0  501 0.00000000E+00 0.00000000E+00 -.16142164E+03 0.16142196E+03 0.32000000E+00 0.0000E+00 0.9000E+01
       25  1    1    2    0    0 -.80275429E+02 -.16857398E+02 0.17649982E+02 0.15054846E+03 0.12500000E+03 0.0000E+00 0.9000E+01
       24  1    1    2    0    0 0.60222613E+02 0.18858925E+02 0.47415761E+02 0.11268493E+03 0.80419002E+02 0.0000E+00 0.9000E+01
       21  1    1    2  502  501 0.20052815E+02 -.20015275E+01 -.60707172E+02 0.63969092E+02 0.75000000E+00 0.0000E+00 0.9000E+01
#aMCatNLO 1  0  0  5  1 0.13112948D+01 0.00000000D+00  -5  6  0 0.00000000D+00 0.00000000D+00 0.00000000D+00 0.00000000D+00 0.00000000D+00
  <mgrwgt>
 -.6313236691D+00   15    2    0
 0.163586722803530D+03 0.000000000000000D+00 0.000000000000000D+00 0.163586722803530D+03
 0.163586722803530D+03 -.000000000000000D+00 -.000000000000000D+00 -.163586722803530D+03
 0.150327205401116D+03 -.802760462827526D+02 -.168573359738888D+02 0.156478529128474D+02
 0.112063596588388D+03 0.602221530913196D+02 0.188589710145840D+02 0.459202048696562D+02
 0.647826436175558D+02 0.200538931914330D+02 -.200163504069527D+01 -.615680577825035D+02
 0.000000000000000D+00 0.000000000000000D+00 0.000000000000000D+00 -.000000000000000D+00
 0.163586722803530D+03 0.000000000000000D+00 0.000000000000000D+00 0.163586722803530D+03
 0.163586722803530D+03 -.000000000000000D+00 -.000000000000000D+00 -.163586722803530D+03
 0.150269208309113D+03 -.802070150970797D+02 -.168642261691653D+02 0.154359182033256D+02
 0.112025763239115D+03 0.602736146307792D+02 0.188538344947249D+02 0.457622112569056D+02
 0.628189099083193D+02 0.197403457312905D+02 -.320985158537242D+01 -.595502396744005D+02
 0.205956415051175D+01 0.193054735009892D+00 0.122024325981282D+01 -.164788978583060D+01
0.461335088320D-04 0.000000000000D+00 0.000000000000D+00 0.590537312979D-04 0.000000000000D+00  6 2 -1 25 24 21 21 2 0.25504696D-01 0.24834147D-01 0.18480680D+05 0.18480680D+05 0.18480680D+05 0.12376215D+01  1  2  2  3  6  5       21 0.230392366041D-01 0.100000000000D+01
0.796760895955D-05 0.243453214606D-05 -.177164821147D-06 0.590537312979D-04 0.000000000000D+00  6 2 -1 25 24 21 21 4 0.25504696D-01 0.24834147D-01 0.18480680D+05 0.18480680D+05 0.18480680D+05 0.12376215D+01  1  2  3  3  6  5       21 0.609474143501D-02 0.100000000000D+01
0.728799784552D-06 0.000000000000D+00 0.000000000000D+00 0.590537312979D-04 0.000000000000D+00  6 2 -1 25 24 21 21 4 0.25504696D-01 0.24834147D-01 0.18480680D+05 0.18480680D+05 0.18480680D+05 0.12376215D+01  1  2 15  3  6  5       21 0.557487982566D-03 0.100000000000D+01
0.169347749309D-08 0.000000000000D+00 0.000000000000D+00 0.590174145496D-04 0.000000000000D+00  6 2 -1 25 24 21 21 4 0.25504696D-01 0.24834147D-01 0.18627053D+05 0.18627053D+05 0.18627053D+05 0.12372409D+01  1  2 12  3  6  5       21 0.129405172783D-05 0.100000000000D+01
-.921183818772D-03 0.000000000000D+00 0.000000000000D+00 0.590537312979D-04 0.000000000000D+00  6 2 -1 25 24 21 21 4 0.25504696D-01 0.24834147D-01 0.18480680D+05 0.18480680D+05 0.18480680D+05 0.12376215D+01  1  2  4  3  6  5       21 -.704650192803D+00 0.100000000000D+01
-.197686744155D-02 0.000000000000D+00 0.000000000000D+00 0.590537312979D-04 0.000000000000D+00  6 2 -1 25 24 21 21 4 0.25504696D-01 0.24834147D-01 0.18480680D+05 0.18480680D+05 0.18480680D+05 0.12376215D+01  1  2  5  3  6  5       21 -.151218464269D+01 0.100000000000D+01
0.205510751509D-02 0.000000000000D+00 -.000000000000D+00 0.590537312979D-04 0.000000000000D+00  6 2 -1 25 24 21 21 4 0.25504696D-01 0.24834147D-01 0.18480680D+05 0.18480680D+05 0.18480680D+05 0.12376215D+01  1  2  6  3  6  5       21 0.157203359116D+01 0.100000000000D+01
0.195028355663D-09 0.000000000000D+00 0.000000000000D+00 0.590174145496D-04 0.000000000000D+00  6 2 -1 25 24 1 -1 4 0.25504696D-01 0.24834147D-01 0.18627053D+05 0.18627053D+05 0.18627053D+05 0.12372409D+01  1  2 12  6  6  5       21 0.149028718511D-06 0.100000000000D+01
-.529969167240D-05 0.000000000000D+00 0.000000000000D+00 0.590537312979D-04 0.000000000000D+00  6 2 -1 25 24 1 -1 4 0.25504696D-01 0.24834147D-01 0.18480680D+05 0.18480680D+05 0.18480680D+05 0.12376215D+01  1  2  5  6  6  5       21 -.405394524161D-02 0.100000000000D+01
0.195028355663D-09 0.000000000000D+00 0.000000000000D+00 0.590174145496D-04 0.000000000000D+00  6 2 -1 25 24 2 -2 4 0.25504696D-01 0.24834147D-01 0.18627053D+05 0.18627053D+05 0.18627053D+05 0.12372409D+01  1  2 12  7  6  5       21 0.149028718511D-06 0.100000000000D+01
-.529969167240D-05 0.000000000000D+00 0.000000000000D+00 0.590537312979D-04 0.000000000000D+00  6 2 -1 25 24 2 -2 4 0.25504696D-01 0.24834147D-01 0.18480680D+05 0.18480680D+05 0.18480680D+05 0.12376215D+01  1  2  5  7  6  5       21 -.405394524161D-02 0.100000000000D+01
0.195028355663D-09 0.000000000000D+00 0.000000000000D+00 0.590174145496D-04 0.000000000000D+00  6 2 -1 25 24 3 -3 4 0.25504696D-01 0.24834147D-01 0.18627053D+05 0.18627053D+05 0.18627053D+05 0.12372409D+01  1  2 12  8  6  5       21 0.149028718511D-06 0.100000000000D+01
0.195028355663D-09 0.000000000000D+00 0.000000000000D+00 0.590174145496D-04 0.000000000000D+00  6 2 -1 25 24 4 -4 4 0.25504696D-01 0.24834147D-01 0.18627053D+05 0.18627053D+05 0.18627053D+05 0.12372409D+01  1  2 12  8  6  5       21 0.149028718511D-06 0.100000000000D+01
-.529969167240D-05 0.000000000000D+00 0.000000000000D+00 0.590537312979D-04 0.000000000000D+00  6 2 -1 25 24 3 -3 4 0.25504696D-01 0.24834147D-01 0.18480680D+05 0.18480680D+05 0.18480680D+05 0.12376215D+01  1  2  5  8  6  5       21 -.405394524161D-02 0.100000000000D+01
-.529969167240D-05 0.000000000000D+00 0.000000000000D+00 0.590537312979D-04 0.000000000000D+00  6 2 -1 25 24 4 -4 4 0.25504696D-01 0.24834147D-01 0.18480680D+05 0.18480680D+05 0.18480680D+05 0.12376215D+01  1  2  5  8  6  5       21 -.405394524161D-02 0.100000000000D+01
  </mgrwgt>
  </event>
  <event>
  5     66 0.42622971E-03 0.26477010E+02 0.75467711E-02 0.10979757E+00
        2 -1    0    0  502    0 0.00000000E+00 0.00000000E+00 0.14393276E+03 0.14393311E+03 0.32000000E+00 0.0000E+00 0.9000E+01
       -1 -1    0    0    0  501 -.00000000E+00 -.00000000E+00 -.54114660E+03 0.54114669E+03 0.32000000E+00 0.0000E+00 0.9000E+01
       25  1    1    2    0    0 -.18661475E+03 -.14420809E+03 -.14397930E+03 0.30327558E+03 0.12500000E+03 0.0000E+00 0.9000E+01
       24  1    1    2    0    0 0.20868765E+03 0.12960370E+03 -.23735093E+03 0.35092782E+03 0.80419002E+02 0.0000E+00 0.9000E+01
       21  1    1    2  502  501 -.22072897E+02 0.14604391E+02 -.15883606E+02 0.30876406E+02 0.75000000E+00 0.0000E+00 0.9000E+01
#aMCatNLO 1  0  0  5  1 0.68469737D+00 0.00000000D+00  -5  6  0 0.00000000D+00 0.00000000D+00 0.00000000D+00 0.00000000D+00 0.00000000D+00
  <mgrwgt>
 0.6320357182D+00   11    2    0
 0.279085787178383D+03 0.000000000000000D+00 0.000000000000000D+00 0.279085787178383D+03
 0.279085787178383D+03 -.000000000000000D+00 -.000000000000000D+00 -.279085787178383D+03
 0.269767527496867D+03 -.186610505943842D+03 -.144210898916000D+03 0.391056849702858D+02
 0.261811268958530D+03 0.208691767644113D+03 0.129600973407250D+03 -.415843529320101D+02
 0.265927779013693D+02 -.220812617002709D+02 0.146099255087500D+02 0.247866796172433D+01
 0.000000000000000D+00 0.000000000000000D+00 0.000000000000000D+00 0.000000000000000D+00
 0.279085787178383D+03 0.000000000000000D+00 0.000000000000000D+00 0.279085787178383D+03
 0.279085787178383D+03 -.000000000000000D+00 -.000000000000000D+00 -.279085787178383D+03
 0.270270149413997D+03 -.188015407139299D+03 -.143281355029813D+03 0.392633880775555D+02
 0.261152450400774D+03 0.207331284133570D+03 0.130501128616437D+03 -.414316358030793D+02
 0.180600697474840D+01 0.109933777863358D+01 -.126670943066876D+01 -.669749848498357D+00
 0.249429675672461D+02 -.204152147729045D+02 0.140469358440451D+02 0.283799757402212D+01
0.872518209167D-02 0.000000000000D+00 0.000000000000D+00 0.210008051969D-04 0.000000000000D+00  6 2 -1 25 24 21 21 2 0.22143536D-01 0.83253357D-01 0.76143650D+05 0.76143650D+05 0.76143650D+05 0.11746043D+01  1  2  2  3  6  5       21 0.509501110644D+00 0.100000000000D+01
0.362691607726D-02 0.460440508866D-03 -.335069966252D-04 0.210008051969D-04 0.000000000000D+00  6 2 -1 25 24 21 21 4 0.22143536D-01 0.83253357D-01 0.76143650D+05 0.76143650D+05 0.76143650D+05 0.11746043D+01  1  2  3  3  6  5       21 0.292207448721D+00 0.100000000000D+01
0.970688643838D-04 0.000000000000D+00 0.000000000000D+00 0.210008051969D-04 0.000000000000D+00  6 2 -1 25 24 21 21 4 0.22143536D-01 0.83253357D-01 0.76143650D+05 0.76143650D+05 0.76143650D+05 0.11746043D+01  1  2 15  3  6  5       21 0.782048567093D-02 0.100000000000D+01
-.284170226101D-02 0.000000000000D+00 0.000000000000D+00 0.210008051969D-04 0.000000000000D+00  6 2 -1 25 24 21 21 4 0.22143536D-01 0.83253357D-01 0.76143650D+05 0.76143650D+05 0.76143650D+05 0.11746043D+01  1  2  4  3  6  5       21 -.228945624886D+00 0.100000000000D+01
0.365434532988D-13 0.000000000000D+00 0.000000000000D+00 0.210008051969D-04 0.000000000000D+00  6 2 -1 25 24 21 21 4 0.22143536D-01 0.83253357D-01 0.76143650D+05 0.76143650D+05 0.76143650D+05 0.11746043D+01  1  2  5  3  6  5       21 0.294417323931D-11 0.100000000000D+01
-.814890928183D-12 0.000000000000D+00 0.000000000000D+00 0.210008051969D-04 0.000000000000D+00  6 2 -1 25 24 21 21 4 0.22143536D-01 0.83253357D-01 0.76143650D+05 0.76143650D+05 0.76143650D+05 0.11746043D+01  1  2  6  3  6  5       21 -.656528009025D-10 0.100000000000D+01
0.835492506849D-04 0.000000000000D+00 0.000000000000D+00 0.210008051969D-04 0.152505337035D-04  6 2 -1 25 24 21 21 4 0.22143536D-01 0.83253357D-01 0.76094913D+05 0.76094913D+05 0.76094913D+05 0.11746306D+01  1  2 11  3  6  5       21 0.673188240360D-02 0.100000000000D+01
0.139338953588D-03 0.000000000000D+00 0.000000000000D+00 0.210017456060D-04 0.165473622424D-06  6 2 -1 25 24 1 -1 4 0.22143536D-01 0.83253357D-01 0.76094913D+05 0.76094913D+05 0.76094913D+05 0.11746306D+01  1  2 11  6  6  5       21 0.112270719618D-01 0.100000000000D+01
0.137132117329D-03 0.000000000000D+00 0.000000000000D+00 0.210017456060D-04 0.169949595360D-06  6 2 -1 25 24 2 -2 4 0.22143536D-01 0.83253357D-01 0.76094913D+05 0.76094913D+05 0.76094913D+05 0.11746306D+01  1  2 11  7  6  5       21 0.110492587312D-01 0.100000000000D+01
0.139276533339D-03 0.000000000000D+00 0.000000000000D+00 0.210017456060D-04 0.165202502716D-06  6 2 -1 25 24 3 -3 4 0.22143536D-01 0.83253357D-01 0.76094913D+05 0.76094913D+05 0.76094913D+05 0.11746306D+01  1  2 11  8  6  5       21 0.112220425238D-01 0.100000000000D+01
0.139276533339D-03 0.000000000000D+00 0.000000000000D+00 0.210017456060D-04 0.165202502716D-06  6 2 -1 25 24 4 -4 4 0.22143536D-01 0.83253357D-01 0.76094913D+05 0.76094913D+05 0.76094913D+05 0.11746306D+01  1  2 11  8  6  5       21 0.112220425238D-01 0.100000000000D+01
  </mgrwgt>
  </event>
  <event>
  5     66 0.42622971E-03 0.39285430E+02 0.75467711E-02 0.11412320E+00
        2 -1    0    0  502    0 0.00000000E+00 0.00000000E+00 0.20355304E+04 0.20355304E+04 0.32000000E+00 0.0000E+00 0.9000E+01
       -1 -1    0    0    0  501 0.00000000E+00 0.00000000E+00 -.23108625E+02 0.23110840E+02 0.32000000E+00 0.0000E+00 0.9000E+01
       25  1    1    2    0    0 -.16232661E+02 -.17347862E+03 0.85098024E+03 0.87758231E+03 0.12500000E+03 0.0000E+00 0.9000E+01
       24  1    1    2    0    0 -.14789661E+02 0.14801485E+03 0.81914201E+03 0.83641376E+03 0.80419002E+02 0.0000E+00 0.9000E+01
       21  1    1    2  502  501 0.31022321E+02 0.25463773E+02 0.34229955E+03 0.34464522E+03 0.75000000E+00 0.0000E+00 0.9000E+01
#aMCatNLO 1  0  0  5  1 0.10141535D+02 0.00000000D+00  -5  6  0 0.00000000D+00 0.00000000D+00 0.00000000D+00 0.00000000D+00 0.00000000D+00
  <mgrwgt>
 0.3366857892D+00   20    2    0
 0.216888485632650D+03 0.000000000000000D+00 0.000000000000000D+00 0.216888485632650D+03
 0.216888485632650D+03 -.000000000000000D+00 -.000000000000000D+00 -.216888485632650D+03
 0.216924134686125D+03 -.162345866586989D+02 -.173480199968749D+03 -.327435279734462D+02
 0.169248794571372D+03 -.147911630220111D+02 0.148013613124021D+03 0.715054794550671D+01
 0.476040420078032D+02 0.310257496807100D+02 0.254665868447286D+02 0.255929800279395D+02
 0.000000000000000D+00 0.000000000000000D+00 0.000000000000000D+00 0.000000000000000D+00
 0.216888485632650D+03 0.000000000000000D+00 0.000000000000000D+00 0.216888485632650D+03
 0.216888485632650D+03 -.000000000000000D+00 -.000000000000000D+00 -.216888485632650D+03
 0.215199211735251D+03 -.142007729500130D+02 -.171810802968797D+03 -.310658455914694D+02
 0.170326419868721D+03 -.131929324890447D+02 0.149325474306572D+03 0.846892002454410D+01
 0.349930064228123D+02 0.280973618478429D+02 0.182810207223710D+02 0.100425612792059D+02
 0.132583332385148D+02 -.703656408785234D+00 0.420430793985368D+01 0.125543642877195D+02
0.460481037276D-03 0.000000000000D+00 0.000000000000D+00 0.104588312818D-04 0.000000000000D+00  6 2 -1 25 24 21 21 2 0.31315870D+00 0.35553454D-02 0.44875212D+05 0.44875212D+05 0.44875212D+05 0.11969610D+01  1  2  2  3  6  5       21 0.157027389493D+00 0.100000000000D+01
0.690256117560D-04 0.243002519488D-04 -.176836843058D-05 0.104588312818D-04 0.000000000000D+00  6 2 -1 25 24 21 21 4 0.31315870D+00 0.35553454D-02 0.44875212D+05 0.44875212D+05 0.44875212D+05 0.11969610D+01  1  2  3  3  6  5       21 0.337236008704D-01 0.100000000000D+01
0.766153887961D-05 0.000000000000D+00 0.000000000000D+00 0.104588312818D-04 0.000000000000D+00  6 2 -1 25 24 21 21 4 0.31315870D+00 0.35553454D-02 0.44875212D+05 0.44875212D+05 0.44875212D+05 0.11969610D+01  1  2 15  3  6  5       21 0.374317116004D-02 0.100000000000D+01
0.301440279917D-03 0.000000000000D+00 0.000000000000D+00 0.104690418916D-04 0.000000000000D+00  6 2 -1 25 24 21 21 4 0.31315870D+00 0.35553454D-02 0.44277550D+05 0.44277550D+05 0.44277550D+05 0.11975452D+01  1  2 12  3  6  5       21 0.147573502691D+00 0.100000000000D+01
0.328947253180D-03 0.000000000000D+00 0.000000000000D+00 0.104690418916D-04 0.000000000000D+00  6 2 -1 25 24 21 21 4 0.31315870D+00 0.35553454D-02 0.44277550D+05 0.44277550D+05 0.44277550D+05 0.11975452D+01  1  2 12  3  6  5       21 0.161039852954D+00 0.100000000000D+01
-.763987684301D-03 0.000000000000D+00 0.000000000000D+00 0.104588312818D-04 0.000000000000D+00  6 2 -1 25 24 21 21 4 0.31315870D+00 0.35553454D-02 0.44875212D+05 0.44875212D+05 0.44875212D+05 0.11969610D+01  1  2  4  3  6  5       21 -.373258781485D+00 0.100000000000D+01
-.754437656746D-03 0.000000000000D+00 0.000000000000D+00 0.104588312818D-04 0.000000000000D+00  6 2 -1 25 24 21 21 4 0.31315870D+00 0.35553454D-02 0.44875212D+05 0.44875212D+05 0.44875212D+05 0.11969610D+01  1  2  5  3  6  5       21 -.368592958041D+00 0.100000000000D+01
0.114411329272D-02 0.000000000000D+00 -.000000000000D+00 0.104588312818D-04 0.000000000000D+00  6 2 -1 25 24 21 21 4 0.31315870D+00 0.35553454D-02 0.44875212D+05 0.44875212D+05 0.44875212D+05 0.11969610D+01  1  2  6  3  6  5       21 0.558975415832D+00 0.100000000000D+01
0.723465753077D-05 0.000000000000D+00 0.000000000000D+00 0.104690418916D-04 0.000000000000D+00  6 2 -1 25 24 1 -1 4 0.31315870D+00 0.35553454D-02 0.44277550D+05 0.44277550D+05 0.44277550D+05 0.11975452D+01  1  2 12  6  6  5       21 0.354180852300D-02 0.100000000000D+01
0.769899016623D-05 0.000000000000D+00 0.000000000000D+00 0.104690418916D-04 0.000000000000D+00  6 2 -1 25 24 1 -1 4 0.31315870D+00 0.35553454D-02 0.44277550D+05 0.44277550D+05 0.44277550D+05 0.11975452D+01  1  2 12  6  6  5       21 0.376912782302D-02 0.100000000000D+01
-.654422167145D-05 0.000000000000D+00 0.000000000000D+00 0.104588312818D-04 0.000000000000D+00  6 2 -1 25 24 1 -1 4 0.31315870D+00 0.35553454D-02 0.44875212D+05 0.44875212D+05 0.44875212D+05 0.11969610D+01  1  2  5  6  6  5       21 -.319728741320D-02 0.100000000000D+01
0.723465753077D-05 0.000000000000D+00 0.000000000000D+00 0.104690418916D-04 0.000000000000D+00  6 2 -1 25 24 2 -2 4 0.31315870D+00 0.35553454D-02 0.44277550D+05 0.44277550D+05 0.44277550D+05 0.11975452D+01  1  2 12  7  6  5       21 0.354180852300D-02 0.100000000000D+01
0.769899016623D-05 0.000000000000D+00 0.000000000000D+00 0.104690418916D-04 0.000000000000D+00  6 2 -1 25 24 2 -2 4 0.31315870D+00 0.35553454D-02 0.44277550D+05 0.44277550D+05 0.44277550D+05 0.11975452D+01  1  2 12  7  6  5       21 0.376912782302D-02 0.100000000000D+01
-.654422167145D-05 0.000000000000D+00 0.000000000000D+00 0.104588312818D-04 0.000000000000D+00  6 2 -1 25 24 2 -2 4 0.31315870D+00 0.35553454D-02 0.44875212D+05 0.44875212D+05 0.44875212D+05 0.11969610D+01  1  2  5  7  6  5       21 -.319728741320D-02 0.100000000000D+01
0.723465753077D-05 0.000000000000D+00 0.000000000000D+00 0.104690418916D-04 0.000000000000D+00  6 2 -1 25 24 3 -3 4 0.31315870D+00 0.35553454D-02 0.44277550D+05 0.44277550D+05 0.44277550D+05 0.11975452D+01  1  2 12  8  6  5       21 0.354180852300D-02 0.100000000000D+01
0.723465753077D-05 0.000000000000D+00 0.000000000000D+00 0.104690418916D-04 0.000000000000D+00  6 2 -1 25 24 4 -4 4 0.31315870D+00 0.35553454D-02 0.44277550D+05 0.44277550D+05 0.44277550D+05 0.11975452D+01  1  2 12  8  6  5       21 0.354180852300D-02 0.100000000000D+01
0.769899016623D-05 0.000000000000D+00 0.000000000000D+00 0.104690418916D-04 0.000000000000D+00  6 2 -1 25 24 3 -3 4 0.31315870D+00 0.35553454D-02 0.44277550D+05 0.44277550D+05 0.44277550D+05 0.11975452D+01  1  2 12  8  6  5       21 0.376912782302D-02 0.100000000000D+01
0.769899016623D-05 0.000000000000D+00 0.000000000000D+00 0.104690418916D-04 0.000000000000D+00  6 2 -1 25 24 4 -4 4 0.31315870D+00 0.35553454D-02 0.44277550D+05 0.44277550D+05 0.44277550D+05 0.11975452D+01  1  2 12  8  6  5       21 0.376912782302D-02 0.100000000000D+01
-.654422167145D-05 0.000000000000D+00 0.000000000000D+00 0.104588312818D-04 0.000000000000D+00  6 2 -1 25 24 3 -3 4 0.31315870D+00 0.35553454D-02 0.44875212D+05 0.44875212D+05 0.44875212D+05 0.11969610D+01  1  2  5  8  6  5       21 -.319728741320D-02 0.100000000000D+01
-.654422167145D-05 0.000000000000D+00 0.000000000000D+00 0.104588312818D-04 0.000000000000D+00  6 2 -1 25 24 4 -4 4 0.31315870D+00 0.35553454D-02 0.44875212D+05 0.44875212D+05 0.44875212D+05 0.11969610D+01  1  2  5  8  6  5       21 -.319728741320D-02 0.100000000000D+01
  </mgrwgt>
  </event>
  <event>
  5     66 -.42622971E-03 0.52557468E+02 0.75467711E-02 0.11943556E+00
        2 -1    0    0  502    0 0.00000000E+00 0.00000000E+00 0.87516934E+03 0.87516940E+03 0.32000000E+00 0.0000E+00 0.9000E+01
       -1 -1    0    0    0  501 0.00000000E+00 0.00000000E+00 -.37930305E+02 0.37931655E+02 0.32000000E+00 0.0000E+00 0.9000E+01
       25  1    1    2    0    0 0.56311874E+01 -.43481815E+02 0.48114632E+03 0.49904825E+03 0.12500000E+03 0.0000E+00 0.9000E+01
       24  1    1    2    0    0 -.24116342E+02 0.92677984E+02 0.12409164E+03 0.17617252E+03 0.80419002E+02 0.0000E+00 0.9000E+01
       21  1    1    2  502  501 0.18485154E+02 -.49196169E+02 0.23200108E+03 0.23788028E+03 0.75000000E+00 0.0000E+00 0.9000E+01
#aMCatNLO 1  0  0  2  5 0.10214128D+00 0.00000000D+00  -5  6  0 0.00000000D+00 0.00000000D+00 0.00000000D+00 0.00000000D+00 0.00000000D+00
  <mgrwgt>
 -.8867020720D-01    9    4    0
 0.182197921640126D+03 0.000000000000000D+00 0.000000000000000D+00 0.182197921640126D+03
 0.182197921640126D+03 0.000000000000000D+00 0.000000000000000D+00 -.182197921640126D+03
 0.145025531978143D+03 0.563066650885416D+01 -.434804291381621D+02 0.590351827486855D+02
 0.156339700851981D+03 -.241169030044820D+02 0.926794784571029D+02 -.938284358310857D+02
 0.630306104501281D+02 0.184862364956278D+02 -.491990493189408D+02 0.347932530824002D+02
 0.000000000000000D+00 -.000000000000000D+00 0.000000000000000D+00 -.000000000000000D+00
 0.182243519043212D+03 0.000000000000000D+00 0.000000000000000D+00 0.182243519043212D+03
 0.182255138628646D+03 0.000000000000000D+00 0.000000000000000D+00 -.182255138628646D+03
 0.145030272474818D+03 0.566988083876173D+01 -.434911437332192D+02 0.590351827486855D+02
 0.156326338867495D+03 -.240746318654659D+02 0.926679286451278D+02 -.938284358310857D+02
 0.630392462531964D+02 0.185032806122298D+02 -.492037063106049D+02 0.347932530824002D+02
 0.102800076348539D+00 -.985295855255868D-01 0.269213986963059D-01 -.116195854339182D-01
 0.182197921640126D+03 0.000000000000000D+00 0.000000000000000D+00 0.182197921640126D+03
 0.182197921640126D+03 0.000000000000000D+00 0.000000000000000D+00 -.182197921640126D+03
 0.145025531978143D+03 0.563066650885416D+01 -.434804291381621D+02 0.590351827486855D+02
 0.156339700851981D+03 -.241169030044820D+02 0.926794784571029D+02 -.938284358310857D+02
 0.000000000000000D+00 -.000000000000000D+00 0.000000000000000D+00 -.000000000000000D+00
 0.630306104501281D+02 0.184862364956278D+02 -.491990493189408D+02 0.347932530824002D+02
 0.182243519043212D+03 0.000000000000000D+00 0.000000000000000D+00 0.182243519043212D+03
 0.182255138628646D+03 0.000000000000000D+00 0.000000000000000D+00 -.182255138628646D+03
 0.145030272474818D+03 0.566988083876173D+01 -.434911437332192D+02 0.590351827486855D+02
 0.156326338867495D+03 -.240746318654659D+02 0.926679286451278D+02 -.938284358310857D+02
 0.102800076348539D+00 -.985295855255868D-01 0.269213986963059D-01 -.116195854339182D-01
 0.630392462531964D+02 0.185032806122298D+02 -.492037063106049D+02 0.347932530824002D+02
0.172282766776D-04 0.000000000000D+00 0.000000000000D+00 0.551908749502D-05 0.000000000000D+00  6 2 -1 25 24 21 21 2 0.13464154D+00 0.58355398D-02 0.24036906D+05 0.24036906D+05 0.24036906D+05 0.12251311D+01  1  2  2  2  6  2       -1 0.126682532984D-01 0.100000000000D+01
0.562175613071D-07 0.909161138068D-06 -.661611187514D-07 0.551908749502D-05 0.000000000000D+00  6 2 -1 25 24 21 21 4 0.13464154D+00 0.58355398D-02 0.24036906D+05 0.24036906D+05 0.24036906D+05 0.12251311D+01  1  2  3  2  6  2       -1 0.620457469546D-04 0.100000000000D+01
0.468892998995D-06 0.000000000000D+00 0.000000000000D+00 0.551908749502D-05 0.000000000000D+00  6 2 -1 25 24 21 21 4 0.13464154D+00 0.58355398D-02 0.24036906D+05 0.24036906D+05 0.24036906D+05 0.12251311D+01  1  2 15  2  6  2       -1 0.517504062573D-03 0.100000000000D+01
-.233258646608D-02 0.000000000000D+00 0.000000000000D+00 0.551908749502D-05 0.000000000000D+00  6 2 -1 25 24 21 21 4 0.13464154D+00 0.58355398D-02 0.24036906D+05 0.24036906D+05 0.24036906D+05 0.12251311D+01  1  2  4  2  6  2       -1 -.257441031342D+01 0.100000000000D+01
-.102942234483D+00 0.000000000000D+00 -.683822499998D-02 0.551908749502D-05 0.000000000000D+00  6 2 -1 25 24 21 21 4 0.13464154D+00 0.58388624D-02 0.24036906D+05 0.24036906D+05 0.24036906D+05 0.12251311D+01  1  2  5  2  6  2       -1 -.113517953912D+03 0.100000000000D+01
0.102946111276D+00 0.000000000000D+00 0.683822389220D-02 0.551908749502D-05 0.000000000000D+00  6 2 -1 25 24 21 21 4 0.13464154D+00 0.58355398D-02 0.24036906D+05 0.24036906D+05 0.24036906D+05 0.12251311D+01  1  2  6  2  6  2       -1 0.113618738018D+03 0.100000000000D+01
0.233116938401D-02 0.000000000000D+00 0.000000000000D+00 0.551908749502D-05 0.136931963185D-02  6 2 -1 25 24 21 21 4 0.13467524D+00 0.58373724D-02 0.24052565D+05 0.24052565D+05 0.24052565D+05 0.12251006D+01  1  2 11  2  6  2       -1 0.257058066288D+01 0.100000000000D+01
-.109764299404D-04 0.000000000000D+00 -.729195119911D-06 0.551908749502D-05 0.000000000000D+00  6 2 21 25 24 1 21 4 0.13464154D+00 0.58388624D-02 0.24036906D+05 0.24036906D+05 0.24036906D+05 0.12251311D+01  3  4  5  5  5  2       -1 -.204304340593D+00 0.100000000000D+01
0.291828737290D-06 0.000000000000D+00 0.000000000000D+00 0.551908749502D-05 0.279377746144D-06  6 2 21 25 24 1 21 4 0.13467524D+00 0.58373724D-02 0.24052565D+05 0.24052565D+05 0.24052565D+05 0.12251006D+01  3  4 11  5  5  2       -1 0.543187500317D-02 0.100000000000D+01
  </mgrwgt>
  </event>
  <event>
  5     66 0.42622971E-03 0.36815913E+02 0.75467711E-02 0.10740223E+00
        2 -1    0    0  502    0 0.00000000E+00 0.00000000E+00 0.55253103E+03 0.55253112E+03 0.32000000E+00 0.0000E+00 0.9000E+01
       -1 -1    0    0    0  501 0.00000000E+00 0.00000000E+00 -.81730828E+02 0.81731455E+02 0.32000000E+00 0.0000E+00 0.9000E+01
       25  1    1    2    0    0 0.14760188E+03 0.66625618E+02 0.12505675E+03 0.23976963E+03 0.12500000E+03 0.0000E+00 0.9000E+01
       24  1    1    2    0    0 -.11313215E+03 -.53712988E+02 0.30625248E+03 0.34050222E+03 0.80419002E+02 0.0000E+00 0.9000E+01
       21  1    1    2  502  501 -.34469726E+02 -.12912630E+02 0.39490978E+02 0.53990720E+02 0.75000000E+00 0.0000E+00 0.9000E+01
#aMCatNLO 1  0  0  1  5 0.12002253D+02 0.00000000D+00  -5  6  0 0.00000000D+00 0.00000000D+00 0.00000000D+00 0.00000000D+00 0.00000000D+00
  <mgrwgt>
 0.2469521662D+00    3    2    0
 0.212506580422413D+03 0.000000000000000D+00 0.000000000000000D+00 0.212506580422413D+03
 0.212506580422413D+03 0.000000000000000D+00 0.000000000000000D+00 -.212506580422413D+03
 0.219290582479657D+03 0.147605566399653D+03 0.666270005547312D+02 -.789734077344057D+02
 0.168896303248188D+03 -.113129309702359D+03 -.537119239123628D+02 0.798469399065086D+02
 0.368262751169819D+02 -.344762566972938D+02 -.129150766423684D+02 -.873532172102940D+00
 0.000000000000000D+00 0.000000000000000D+00 0.000000000000000D+00 -.000000000000000D+00
 0.338883660218584D+03 0.000000000000000D+00 0.000000000000000D+00 0.338883660218584D+03
 0.341534107626703D+03 0.000000000000000D+00 0.000000000000000D+00 -.341534107626703D+03
 0.165030234274491D+03 0.653254297492863D+02 0.332530799111883D+02 -.789734077344057D+02
 0.248969279442667D+03 -.202591123235304D+03 -.899988284682345D+02 0.798469399065086D+02
 0.589433834513873D+02 -.549798054264931D+02 -.212315894248768D+02 -.873532172102940D+00
 0.207474870676741D+03 0.192245498912511D+03 0.779773379819231D+02 -.265044740811918D+01
0.503614528435D-03 0.000000000000D+00 0.000000000000D+00 0.105254833169D-04 0.000000000000D+00  6 2 -1 25 24 21 21 2 0.85004829D-01 0.12574029D-01 0.38068429D+05 0.38068429D+05 0.38068429D+05 0.12041892D+01  1  2  2  1  6  1        2 0.194429516397D+00 0.100000000000D+01
0.863375961535D-04 0.265764688128D-04 -.193401239394D-05 0.105254833169D-04 0.000000000000D+00  6 2 -1 25 24 21 21 4 0.85004829D-01 0.12574029D-01 0.38068429D+05 0.38068429D+05 0.38068429D+05 0.12041892D+01  1  2  3  1  6  1        2 0.483340695051D-01 0.100000000000D+01
0.748192651343D-05 0.000000000000D+00 0.000000000000D+00 0.105254833169D-04 0.000000000000D+00  6 2 -1 25 24 21 21 4 0.85004829D-01 0.12574029D-01 0.38068429D+05 0.38068429D+05 0.38068429D+05 0.12041892D+01  1  2 15  1  6  1        2 0.418858032009D-02 0.100000000000D+01
  </mgrwgt>
  </event>
  <event>
  5     66 0.42622971E-03 0.58626982E+02 0.75467711E-02 0.11844829E+00
        2 -1    0    0  502    0 0.00000000E+00 0.00000000E+00 0.72280130E+03 0.72280137E+03 0.32000000E+00 0.0000E+00 0.9000E+01
       -1 -1    0    0    0  501 0.00000000E+00 0.00000000E+00 -.44532428E+02 0.44533578E+02 0.32000000E+00 0.0000E+00 0.9000E+01
       25  1    1    2    0    0 -.22846048E+02 0.28139696E+02 0.48042083E+03 0.49773784E+03 0.12500000E+03 0.0000E+00 0.9000E+01
       24  1    1    2    0    0 0.86261960E+01 -.87336854E+02 0.15362915E+03 0.19434832E+03 0.80419002E+02 0.0000E+00 0.9000E+01
       21  1    1    2  502  501 0.14219852E+02 0.59197158E+02 0.44218899E+02 0.75248796E+02 0.75000000E+00 0.0000E+00 0.9000E+01
#aMCatNLO 1  0  0  2  5 0.16360966D+02 0.00000000D+00  -5  6  0 0.00000000D+00 0.00000000D+00 0.00000000D+00 0.00000000D+00 0.00000000D+00
  <mgrwgt>
 0.1917755601D+00    9    4    0
 0.179411720589849D+03 0.000000000000000D+00 0.000000000000000D+00 0.179411720589849D+03
 0.179411720589849D+03 0.000000000000000D+00 0.000000000000000D+00 -.179411720589849D+03
 0.156280974959288D+03 -.228463393532478D+02 0.281384833868899D+02 0.865159734677217D+02
 0.125210709512366D+03 0.862596261564814D+01 -.873378259011068D+02 -.388355862327463D+02
 0.773317567080436D+02 0.142203767375996D+02 0.591993425142169D+02 -.476803872349754D+02
 0.000000000000000D+00 0.000000000000000D+00 -.000000000000000D+00 -.000000000000000D+00
 0.180960521208993D+03 0.000000000000000D+00 0.000000000000000D+00 0.180960521208993D+03
 0.228717608809021D+03 0.000000000000000D+00 0.000000000000000D+00 -.228717608809021D+03
 0.157942441987671D+03 -.246002785422899D+02 0.350803023305540D+02 0.865159734677217D+02
 0.121383515306668D+03 0.724951754066324D+01 -.818900700403910D+02 -.388355862327463D+02
 0.798702887026328D+02 0.133429028983730D+02 0.626722477082903D+02 -.476803872349754D+02
 0.504818840210420D+02 0.400785810325366D+01 -.158624799984533D+02 -.477570876000284D+02
 0.179411720589849D+03 0.000000000000000D+00 0.000000000000000D+00 0.179411720589849D+03
 0.179411720589849D+03 0.000000000000000D+00 0.000000000000000D+00 -.179411720589849D+03
 0.156280974959288D+03 -.228463393532478D+02 0.281384833868899D+02 0.865159734677217D+02
 0.125210709512366D+03 0.862596261564814D+01 -.873378259011068D+02 -.388355862327463D+02
 0.000000000000000D+00 0.000000000000000D+00 -.000000000000000D+00 -.000000000000000D+00
 0.773317567080436D+02 0.142203767375996D+02 0.591993425142169D+02 -.476803872349754D+02
 0.180960521208993D+03 0.000000000000000D+00 0.000000000000000D+00 0.180960521208993D+03
 0.228717608809021D+03 0.000000000000000D+00 0.000000000000000D+00 -.228717608809021D+03
 0.157942441987671D+03 -.246002785422899D+02 0.350803023305540D+02 0.865159734677217D+02
 0.121383515306668D+03 0.724951754066324D+01 -.818900700403910D+02 -.388355862327463D+02
 0.504818840210420D+02 0.400785810325366D+01 -.158624799984533D+02 -.477570876000284D+02
 0.798702887026328D+02 0.133429028983730D+02 0.626722477082903D+02 -.476803872349754D+02
0.367198870733D-04 0.000000000000D+00 0.000000000000D+00 0.517393336712D-05 0.000000000000D+00  6 2 -1 25 24 21 21 2 0.11120029D+00 0.68512367D-02 0.24035542D+05 0.24035542D+05 0.24035542D+05 0.12251337D+01  1  2  2  2  6  2       -1 0.269631669754D-01 0.100000000000D+01
-.833618740617D-06 0.193776167786D-05 -.141014034930D-06 0.517393336712D-05 0.000000000000D+00  6 2 -1 25 24 21 21 4 0.11120029D+00 0.68512367D-02 0.24035542D+05 0.24035542D+05 0.24035542D+05 0.12251337D+01  1  2  3  2  6  2       -1 -.918764128397D-03 0.100000000000D+01
0.110712642751D-05 0.000000000000D+00 0.000000000000D+00 0.517393336712D-05 0.000000000000D+00  6 2 -1 25 24 21 21 4 0.11120029D+00 0.68512367D-02 0.24035542D+05 0.24035542D+05 0.24035542D+05 0.12251337D+01  1  2 15  2  6  2       -1 0.122020774922D-02 0.100000000000D+01
0.474605075658D-03 0.000000000000D+00 0.000000000000D+00 0.513088733012D-05 0.000000000000D+00  6 2 -1 25 24 21 21 4 0.11120029D+00 0.91094010D-02 0.26827235D+05 0.26827235D+05 0.26827235D+05 0.12200267D+01  1  2 12  2  6  2       -1 0.334833549805D+00 0.100000000000D+01
-.297618376567D-03 0.000000000000D+00 0.000000000000D+00 0.517393336712D-05 0.000000000000D+00  6 2 -1 25 24 21 21 4 0.11120029D+00 0.68512367D-02 0.24035542D+05 0.24035542D+05 0.24035542D+05 0.12251337D+01  1  2  4  2  6  2       -1 -.328016963894D+00 0.100000000000D+01
-.638454484241D-03 0.000000000000D+00 -.386566209068D-04 0.517393336712D-05 0.000000000000D+00  6 2 -1 25 24 21 21 4 0.11120029D+00 0.87954953D-02 0.24035542D+05 0.24035542D+05 0.24035542D+05 0.12251337D+01  1  2  5  2  6  2       -1 -.482361521763D+00 0.100000000000D+01
0.629541198038D-03 0.000000000000D+00 0.374810193038D-04 0.517393336712D-05 0.000000000000D+00  6 2 -1 25 24 21 21 4 0.11120029D+00 0.68512367D-02 0.24035542D+05 0.24035542D+05 0.24035542D+05 0.12251337D+01  1  2  6  2  6  2       -1 0.693842210982D+00 0.100000000000D+01
0.176716908697D-04 0.000000000000D+00 0.000000000000D+00 0.513088733012D-05 0.000000000000D+00  6 2 21 25 24 1 21 4 0.11120029D+00 0.91094010D-02 0.26827235D+05 0.26827235D+05 0.26827235D+05 0.12200267D+01  3  4 12  5  5  2       -1 0.190862027581D+00 0.100000000000D+01
-.209482455649D-04 0.000000000000D+00 -.130753346686D-05 0.517393336712D-05 0.000000000000D+00  6 2 21 25 24 1 21 4 0.11120029D+00 0.87954953D-02 0.24035542D+05 0.24035542D+05 0.24035542D+05 0.12251337D+01  3  4  5  5  5  2       -1 -.244648353209D+00 0.100000000000D+01
  </mgrwgt>
  </event>
  <event>
  5     66 0.42622971E-03 0.77117176E+02 0.75467711E-02 0.10294534E+00
        2 -1    0    0  502    0 0.00000000E+00 0.00000000E+00 0.92287477E+03 0.92287482E+03 0.32000000E+00 0.0000E+00 0.9000E+01
       -1 -1    0    0    0  501 0.00000000E+00 0.00000000E+00 -.35082027E+02 0.35083486E+02 0.32000000E+00 0.0000E+00 0.9000E+01
       25  1    1    2    0    0 0.35719616E+02 -.11820661E+02 0.62474684E+03 0.63823916E+03 0.12500000E+03 0.0000E+00 0.9000E+01
       24  1    1    2    0    0 0.29715985E+02 0.52622917E+02 0.11497912E+03 0.15277312E+03 0.80419002E+02 0.0000E+00 0.9000E+01
       21  1    1    2  502  501 -.65435602E+02 -.40802256E+02 0.14806678E+03 0.16694603E+03 0.75000000E+00 0.0000E+00 0.9000E+01
#aMCatNLO 1  0  0  1  5 0.12236047D+02 0.00000000D+00  -5  6  0 0.00000000D+00 0.00000000D+00 0.00000000D+00 0.00000000D+00 0.00000000D+00
  <mgrwgt>
 0.1447280593D+00    3    2    0
 0.179936219417049D+03 0.000000000000000D+00 0.000000000000000D+00 0.179936219417049D+03
 0.179936219417049D+03 0.000000000000000D+00 0.000000000000000D+00 -.179936219417049D+03
 0.157725212073817D+03 0.357209047202450D+02 -.118198575529236D+02 0.885242930337560D+02
 0.123023524232613D+03 0.297169903610117D+02 0.526235433849935D+02 -.708183219635494D+02
 0.791237025276674D+02 -.654378950812566D+02 -.408036858320699D+02 -.177059710702066D+02
 0.000000000000000D+00 0.000000000000000D+00 0.000000000000000D+00 -.000000000000000D+00
 0.304293900748522D+03 0.000000000000000D+00 0.000000000000000D+00 0.304293900748522D+03
 0.131495953064060D+04 0.000000000000000D+00 0.000000000000000D+00 -.131495953064060D+04
 0.241987448894207D+03 0.131657397527456D+02 -.186877067244654D+03 0.885242930337560D+02
 0.121196764034165D+03 0.159360186076348D+02 -.543345952702952D+02 -.708183219635494D+02
 0.171026429555346D+03 -.795534787160354D+02 -.150358844831583D+03 -.177059710702066D+02
 0.108504278890541D+04 0.504517203556550D+02 0.391570507346532D+03 -.101066562989208D+04
0.194520625129D-03 0.000000000000D+00 0.000000000000D+00 0.271439624250D-05 0.000000000000D+00  6 2 -1 25 24 21 21 2 0.14198085D+00 0.53973514D-02 0.23755004D+05 0.23755004D+05 0.23755004D+05 0.12256833D+01  1  2  2  1  6  1        2 0.149966971840D+00 0.100000000000D+01
-.113171905841D-04 0.102651354068D-04 -.747010418954D-06 0.271439624250D-05 0.000000000000D+00  6 2 -1 25 24 21 21 4 0.14198085D+00 0.53973514D-02 0.23755004D+05 0.23755004D+05 0.23755004D+05 0.12256833D+01  1  2  3  1  6  1        2 -.131076592039D-01 0.100000000000D+01
0.679389842222D-05 0.000000000000D+00 0.000000000000D+00 0.271439624250D-05 0.000000000000D+00  6 2 -1 25 24 21 21 4 0.14198085D+00 0.53973514D-02 0.23755004D+05 0.23755004D+05 0.23755004D+05 0.12256833D+01  1  2 15  1  6  1        2 0.786874662247D-02 0.100000000000D+01
  </mgrwgt>
  </event>
  <event>
  5     66 0.42622971E-03 0.42445031E+02 0.75467711E-02 0.11342064E+00
        2 -1    0    0  502    0 0.00000000E+00 0.00000000E+00 0.99796072E+03 0.99796077E+03 0.32000000E+00 0.0000E+00 0.9000E+01
       -1 -1    0    0    0  501 0.00000000E+00 0.00000000E+00 -.66629819E+02 0.66630587E+02 0.32000000E+00 0.0000E+00 0.9000E+01
       25  1    1    2    0    0 -.14884293E+02 -.16414813E+03 0.41170001E+03 0.46074727E+03 0.12500000E+03 0.0000E+00 0.9000E+01
       24  1    1    2    0    0 0.57239448E+02 0.16140104E+03 0.52773829E+03 0.56062605E+03 0.80419002E+02 0.0000E+00 0.9000E+01
       21  1    1    2  502  501 -.42355155E+02 0.27470830E+01 -.81074042E+01 0.43218030E+02 0.75000000E+00 0.0000E+00 0.9000E+01
#aMCatNLO 1  0  0  5  1 0.89072401D+01 0.00000000D+00  -5  6  0 0.00000000D+00 0.00000000D+00 0.00000000D+00 0.00000000D+00 0.00000000D+00
  <mgrwgt>
 0.5401260946D+00   17    2    0
 0.257865038131154D+03 0.000000000000000D+00 0.000000000000000D+00 0.257865038131154D+03
 0.257865038131154D+03 -.000000000000000D+00 -.000000000000000D+00 -.257865038131154D+03
 0.207625395133120D+03 -.148838484734678D+02 -.164148154999119D+03 0.178089575547840D+02
 0.204252029157392D+03 0.572398857782012D+02 0.161401014794050D+03 0.769739135038028D+02
 0.103852651971796D+03 -.423560373047334D+02 0.274714020506892D+01 -.947828710585868D+02
 0.000000000000000D+00 -.000000000000000D+00 0.000000000000000D+00 0.000000000000000D+00
 0.257865038131154D+03 0.000000000000000D+00 0.000000000000000D+00 0.257865038131154D+03
 0.257865038131154D+03 -.000000000000000D+00 -.000000000000000D+00 -.257865038131154D+03
 0.207609113505798D+03 -.149795353759460D+02 -.164141948910126D+03 0.175948327235506D+02
 0.204151216749374D+03 0.571457730762223D+02 0.161407118783088D+03 0.767633113638419D+02
 0.597107117868713D+00 0.295356749702427D+00 0.500966946429082D+00 -.135400957155536D+00
 0.103372638889267D+03 -.424615944499787D+02 0.223386318060872D+01 -.942227431302370D+02
0.154405930845D-02 0.000000000000D+00 0.000000000000D+00 0.100270098849D-04 0.000000000000D+00  6 2 -1 25 24 21 21 2 0.15353248D+00 0.10250804D-01 0.48070128D+05 0.48070128D+05 0.48070128D+05 0.11939785D+01  1  2  2  3  6  5       21 0.386625594250D+00 0.100000000000D+01
0.169970882073D-03 0.814822483055D-04 -.592959430462D-05 0.100270098849D-04 0.000000000000D+00  6 2 -1 25 24 21 21 4 0.15353248D+00 0.10250804D-01 0.48070128D+05 0.48070128D+05 0.48070128D+05 0.11939785D+01  1  2  3  3  6  5       21 0.606728143446D-01 0.100000000000D+01
0.466622683634D-04 0.000000000000D+00 0.000000000000D+00 0.100270098849D-04 0.000000000000D+00  6 2 -1 25 24 21 21 4 0.15353248D+00 0.10250804D-01 0.48070128D+05 0.48070128D+05 0.48070128D+05 0.11939785D+01  1  2 15  3  6  5       21 0.166565655881D-01 0.100000000000D+01
-.470229470305D-03 0.000000000000D+00 0.000000000000D+00 0.100270098849D-04 0.000000000000D+00  6 2 -1 25 24 21 21 4 0.15353248D+00 0.10250804D-01 0.48070128D+05 0.48070128D+05 0.48070128D+05 0.11939785D+01  1  2  4  3  6  5       21 -.167853134627D+00 0.100000000000D+01
0.656461204243D-03 0.000000000000D+00 -.000000000000D+00 0.100270098849D-04 0.000000000000D+00  6 2 -1 25 24 21 21 4 0.15353248D+00 0.10250804D-01 0.48070128D+05 0.48070128D+05 0.48070128D+05 0.11939785D+01  1  2  6  3  6  5       21 0.234330423445D+00 0.100000000000D+01
0.312862174606D-12 0.000000000000D+00 0.000000000000D+00 0.100249084834D-04 0.000000000000D+00  6 2 -1 25 24 1 -1 4 0.15353248D+00 0.10250804D-01 0.48209578D+05 0.48209578D+05 0.48209578D+05 0.11938533D+01  1  2 12  6  6  5       21 0.111633007112D-09 0.100000000000D+01
-.445906819452D-04 0.000000000000D+00 0.000000000000D+00 0.100270098849D-04 0.000000000000D+00  6 2 -1 25 24 1 -1 4 0.15353248D+00 0.10250804D-01 0.48070128D+05 0.48070128D+05 0.48070128D+05 0.11939785D+01  1  2  5  6  6  5       21 -.159170919993D-01 0.100000000000D+01
0.534340319837D-04 0.000000000000D+00 0.000000000000D+00 0.100270098849D-04 0.113883834002D-06  6 2 -1 25 24 1 -1 4 0.15353248D+00 0.10250804D-01 0.48209578D+05 0.48209578D+05 0.48209578D+05 0.11938533D+01  1  2 11  6  6  5       21 0.190659087503D-01 0.100000000000D+01
0.312862174606D-12 0.000000000000D+00 0.000000000000D+00 0.100249084834D-04 0.000000000000D+00  6 2 -1 25 24 2 -2 4 0.15353248D+00 0.10250804D-01 0.48209578D+05 0.48209578D+05 0.48209578D+05 0.11938533D+01  1  2 12  7  6  5       21 0.111633007112D-09 0.100000000000D+01
-.445906819452D-04 0.000000000000D+00 0.000000000000D+00 0.100270098849D-04 0.000000000000D+00  6 2 -1 25 24 2 -2 4 0.15353248D+00 0.10250804D-01 0.48070128D+05 0.48070128D+05 0.48070128D+05 0.11939785D+01  1  2  5  7  6  5       21 -.159170919993D-01 0.100000000000D+01
0.461603467131D-04 0.000000000000D+00 0.000000000000D+00 0.100270098849D-04 0.115692221463D-06  6 2 -1 25 24 2 -2 4 0.15353248D+00 0.10250804D-01 0.48209578D+05 0.48209578D+05 0.48209578D+05 0.11938533D+01  1  2 11  7  6  5       21 0.164705698904D-01 0.100000000000D+01
0.312862174606D-12 0.000000000000D+00 0.000000000000D+00 0.100249084834D-04 0.000000000000D+00  6 2 -1 25 24 3 -3 4 0.15353248D+00 0.10250804D-01 0.48209578D+05 0.48209578D+05 0.48209578D+05 0.11938533D+01  1  2 12  8  6  5       21 0.111633007112D-09 0.100000000000D+01
0.312862174606D-12 0.000000000000D+00 0.000000000000D+00 0.100249084834D-04 0.000000000000D+00  6 2 -1 25 24 4 -4 4 0.15353248D+00 0.10250804D-01 0.48209578D+05 0.48209578D+05 0.48209578D+05 0.11938533D+01  1  2 12  8  6  5       21 0.111633007112D-09 0.100000000000D+01
-.445906819452D-04 0.000000000000D+00 0.000000000000D+00 0.100270098849D-04 0.000000000000D+00  6 2 -1 25 24 3 -3 4 0.15353248D+00 0.10250804D-01 0.48070128D+05 0.48070128D+05 0.48070128D+05 0.11939785D+01  1  2  5  8  6  5       21 -.159170919993D-01 0.100000000000D+01
-.445906819452D-04 0.000000000000D+00 0.000000000000D+00 0.100270098849D-04 0.000000000000D+00  6 2 -1 25 24 4 -4 4 0.15353248D+00 0.10250804D-01 0.48070128D+05 0.48070128D+05 0.48070128D+05 0.11939785D+01  1  2  5  8  6  5       21 -.159170919993D-01 0.100000000000D+01
0.530050989229D-04 0.000000000000D+00 0.000000000000D+00 0.100270098849D-04 0.112508958591D-06  6 2 -1 25 24 3 -3 4 0.15353248D+00 0.10250804D-01 0.48209578D+05 0.48209578D+05 0.48209578D+05 0.11938533D+01  1  2 11  8  6  5       21 0.189128602474D-01 0.100000000000D+01
0.530050989229D-04 0.000000000000D+00 0.000000000000D+00 0.100270098849D-04 0.112508958591D-06  6 2 -1 25 24 4 -4 4 0.15353248D+00 0.10250804D-01 0.48209578D+05 0.48209578D+05 0.48209578D+05 0.11938533D+01  1  2 11  8  6  5       21 0.189128602474D-01 0.100000000000D+01
  </mgrwgt>
  </event>
  <event>
  5     66 0.42622971E-03 0.25363061E+02 0.75467711E-02 0.10701663E+00
        2 -1    0    0  502    0 0.00000000E+00 0.00000000E+00 0.88292215E+03 0.88292221E+03 0.32000000E+00 0.0000E+00 0.9000E+01
       -1 -1    0    0    0  501 0.00000000E+00 0.00000000E+00 -.11936485E+03 0.11936528E+03 0.32000000E+00 0.0000E+00 0.9000E+01
       25  1    1    2    0    0 0.28954010E+03 -.89736415E+01 0.34591216E+03 0.46818182E+03 0.12500000E+03 0.0000E+00 0.9000E+01
       24  1    1    2    0    0 -.29445222E+03 0.33846199E+02 0.37784386E+03 0.48690951E+03 0.80419002E+02 0.0000E+00 0.9000E+01
       21  1    1    2  502  501 0.49121199E+01 -.24872557E+02 0.39801275E+02 0.47196154E+02 0.75000000E+00 0.0000E+00 0.9000E+01
#aMCatNLO 1  0  0  1  2 0.16250363D+02 0.00000000D+00  -5  6  0 0.00000000D+00 0.00000000D+00 0.00000000D+00 0.00000000D+00 0.00000000D+00
  <mgrwgt>
 0.1815159235D+01    7    4    0
 0.324638436280719D+03 0.000000000000000D+00 0.000000000000000D+00 0.324638436280719D+03
 0.324638436280719D+03 0.000000000000000D+00 0.000000000000000D+00 -.324638436280719D+03
 0.315933604575803D+03 0.289539104565671D+03 -.896862221750482D+01 -.166046151141499D+02
 0.307293857378503D+03 -.294453179843512D+03 0.338510805933404D+02 0.106643354643823D+02
 0.260494106071312D+02 0.491407527784065D+01 -.248824583758356D+02 0.594027964976756D+01
 0.000000000000000D+00 0.000000000000000D+00 -.000000000000000D+00 0.000000000000000D+00
 0.336063191887931D+03 0.000000000000000D+00 0.000000000000000D+00 0.336063191887931D+03
 0.330570537651755D+03 0.000000000000000D+00 0.000000000000000D+00 -.330570537651755D+03
 0.309881692363772D+03 0.283027577784083D+03 -.461954898461981D+01 -.166046151141499D+02
 0.313989110072547D+03 -.300917548326171D+03 0.381686566209677D+02 0.106643354643823D+02
 0.256093985959056D+02 0.437657208596354D+01 -.245234579719683D+02 0.594027964976756D+01
 0.171535285074614D+02 0.135133984561249D+02 -.902564966437958D+01 0.549265423617577D+01
 0.324638436280719D+03 0.000000000000000D+00 0.000000000000000D+00 0.324638436280719D+03
 0.324638436280719D+03 0.000000000000000D+00 0.000000000000000D+00 -.324638436280719D+03
 0.315933604575803D+03 0.289539104565671D+03 -.896862221750482D+01 -.166046151141499D+02
 0.307293857378503D+03 -.294453179843512D+03 0.338510805933404D+02 0.106643354643823D+02
 0.000000000000000D+00 0.000000000000000D+00 -.000000000000000D+00 0.000000000000000D+00
 0.260494106071312D+02 0.491407527784065D+01 -.248824583758356D+02 0.594027964976756D+01
 0.336063191887931D+03 0.000000000000000D+00 0.000000000000000D+00 0.336063191887931D+03
 0.330570537651755D+03 0.000000000000000D+00 0.000000000000000D+00 -.330570537651755D+03
 0.309881692363772D+03 0.283027577784083D+03 -.461954898461981D+01 -.166046151141499D+02
 0.313989110072547D+03 -.300917548326171D+03 0.381686566209677D+02 0.106643354643823D+02
 0.171535285074614D+02 0.135133984561249D+02 -.902564966437958D+01 0.549265423617577D+01
 0.256093985959056D+02 0.437657208596354D+01 -.245234579719683D+02 0.594027964976756D+01
0.378388393617D-02 0.000000000000D+00 0.000000000000D+00 0.223830354441D-04 0.000000000000D+00  6 2 -1 25 24 21 21 2 0.13583421D+00 0.18363861D-01 0.10496588D+06 0.10496588D+06 0.10496588D+06 0.11616431D+01  1  2  2  1  6  1        2 0.420371208744D+00 0.100000000000D+01
0.187710349857D-02 0.199681041238D-03 -.145311106344D-04 0.223830354441D-04 0.000000000000D+00  6 2 -1 25 24 21 21 4 0.13583421D+00 0.18363861D-01 0.10496588D+06 0.10496588D+06 0.10496588D+06 0.11616431D+01  1  2  3  1  6  1        2 0.281403038839D+00 0.100000000000D+01
0.239379964936D-04 0.000000000000D+00 0.000000000000D+00 0.223830354441D-04 0.000000000000D+00  6 2 -1 25 24 21 21 4 0.13583421D+00 0.18363861D-01 0.10496588D+06 0.10496588D+06 0.10496588D+06 0.11616431D+01  1  2 15  1  6  1        2 0.358862735175D-02 0.100000000000D+01
-.459762766605D-03 0.000000000000D+00 0.000000000000D+00 0.223830354441D-04 0.000000000000D+00  6 2 -1 25 24 21 21 4 0.13583421D+00 0.18363861D-01 0.10496588D+06 0.10496588D+06 0.10496588D+06 0.11616431D+01  1  2  4  1  6  1        2 -.689246169786D-01 0.100000000000D+01
-.129020213297D+00 0.000000000000D+00 -.187741313952D-01 0.223830354441D-04 0.000000000000D+00  6 2 -1 25 24 21 21 4 0.14236975D+00 0.18363861D-01 0.10496588D+06 0.10496588D+06 0.10496588D+06 0.11616431D+01  1  2  5  1  6  1        2 -.181473907433D+02 0.100000000000D+01
0.129779843101D+00 0.000000000000D+00 0.187534211355D-01 0.223830354441D-04 0.000000000000D+00  6 2 -1 25 24 21 21 4 0.13583421D+00 0.18363861D-01 0.10496588D+06 0.10496588D+06 0.10496588D+06 0.11616431D+01  1  2  6  1  6  1        2 0.194557424546D+02 0.100000000000D+01
-.104616306440D-02 0.000000000000D+00 -.154362108914D-03 0.223830354441D-04 0.000000000000D+00  6 21 -1 25 24 -2 21 4 0.14236975D+00 0.18363861D-01 0.10496588D+06 0.10496588D+06 0.10496588D+06 0.11616431D+01  3  4  5  4  5  1        2 -.129630733989D+00 0.100000000000D+01
  </mgrwgt>
  </event>
  <event>
  5     66 0.42622971E-03 0.23346342E+02 0.75467711E-02 0.12072253E+00
        2 -1    0    0  502    0 0.00000000E+00 0.00000000E+00 0.37270058E+03 0.37270071E+03 0.32000000E+00 0.0000E+00 0.9000E+01
       -1 -1    0    0    0  501 0.00000000E+00 0.00000000E+00 -.58450639E+02 0.58451515E+02 0.32000000E+00 0.0000E+00 0.9000E+01
       25  1    1    2    0    0 0.69093111E+02 -.41876972E+02 0.13666089E+03 0.20206123E+03 0.12500000E+03 0.0000E+00 0.9000E+01
       24  1    1    2    0    0 -.58123350E+02 0.62477208E+02 0.12413105E+03 0.17075556E+03 0.80419002E+02 0.0000E+00 0.9000E+01
       21  1    1    2  502  501 -.10969761E+02 -.20600236E+02 0.53457987E+02 0.58335446E+02 0.75000000E+00 0.0000E+00 0.9000E+01
#aMCatNLO 1  0  0  5  2 0.15302802D+01 0.00000000D+00  -5  6  0 0.00000000D+00 0.00000000D+00 0.00000000D+00 0.00000000D+00 0.00000000D+00
  <mgrwgt>
 0.2889106386D+00   25    2    0
 0.147596765778604D+03 0.000000000000000D+00 0.000000000000000D+00 0.147596765778604D+03
 0.147596765778604D+03 -.000000000000000D+00 -.000000000000000D+00 -.147596765778604D+03
 0.149642575579298D+03 0.690950653005485D+02 -.418733013198116D+02 -.155048061483876D+02
 0.117257628680991D+03 -.581218182730092D+02 0.624800845767466D+02 -.478331935383527D+00
 0.282933272969192D+02 -.109732470275393D+02 -.206067832569350D+02 0.159831380837711D+02
 0.000000000000000D+00 -.000000000000000D+00 0.000000000000000D+00 0.000000000000000D+00
 0.147596765778604D+03 0.000000000000000D+00 0.000000000000000D+00 0.147596765778604D+03
 0.147596765778604D+03 -.000000000000000D+00 -.000000000000000D+00 -.147596765778604D+03
 0.149627662208923D+03 0.689158008053651D+02 -.422099441192160D+02 -.152436975473652D+02
 0.117186418748183D+03 -.582622515286571D+02 0.622163633961389D+02 -.273783171381266D+00
 0.265947849494100D+02 -.895200284649406D+01 -.195032663583048D+02 0.157088138603379D+02
 0.178466565069171D+01 -.170154643021394D+01 -.503152918618005D+00 -.191333141591403D+00
0.143864682554D-03 0.000000000000D+00 0.000000000000D+00 0.388615184700D-04 0.000000000000D+00  6 2 -1 25 24 21 21 2 0.57338628D-01 0.89924840D-02 0.20943901D+05 0.20943901D+05 0.20943901D+05 0.12316273D+01  1  2  2  3  6  5       21 0.147898373083D+00 0.100000000000D+01
0.279474890206D-04 0.759194787538D-05 -.552478261449D-06 0.388615184700D-04 0.000000000000D+00  6 2 -1 25 24 21 21 4 0.57338628D-01 0.89924840D-02 0.20943901D+05 0.20943901D+05 0.20943901D+05 0.12316273D+01  1  2  3  3  6  5       21 0.435823438851D-01 0.100000000000D+01
0.628265564661D-05 0.000000000000D+00 0.000000000000D+00 0.388615184700D-04 0.000000000000D+00  6 2 -1 25 24 21 21 4 0.57338628D-01 0.89924840D-02 0.20943901D+05 0.20943901D+05 0.20943901D+05 0.12316273D+01  1  2 15  3  6  5       21 0.979740465055D-02 0.100000000000D+01
0.328012957180D-08 0.000000000000D+00 0.000000000000D+00 0.388650634464D-04 0.000000000000D+00  6 2 -1 25 24 21 21 4 0.57338628D-01 0.89924840D-02 0.20919175D+05 0.20919175D+05 0.20919175D+05 0.12316834D+01  1  2 12  3  6  5       21 0.511590951430D-05 0.100000000000D+01
0.363202635431D-08 0.000000000000D+00 0.000000000000D+00 0.388650634464D-04 0.000000000000D+00  6 2 -1 25 24 21 21 4 0.57338628D-01 0.89924840D-02 0.20919175D+05 0.20919175D+05 0.20919175D+05 0.12316834D+01  1  2 12  3  6  5       21 0.566475127749D-05 0.100000000000D+01
-.150777882379D-02 0.000000000000D+00 0.000000000000D+00 0.388615184700D-04 0.000000000000D+00  6 2 -1 25 24 21 21 4 0.57338628D-01 0.89924840D-02 0.20943901D+05 0.20943901D+05 0.20943901D+05 0.12316273D+01  1  2  4  3  6  5       21 -.235128584012D+01 0.100000000000D+01
-.136421667911D-02 0.000000000000D+00 0.000000000000D+00 0.388615184700D-04 0.000000000000D+00  6 2 -1 25 24 21 21 4 0.57338628D-01 0.89924840D-02 0.20943901D+05 0.20943901D+05 0.20943901D+05 0.12316273D+01  1  2  5  3  6  5       21 -.212740974328D+01 0.100000000000D+01
0.153833143806D-02 0.000000000000D+00 -.000000000000D+00 0.388615184700D-04 0.000000000000D+00  6 2 -1 25 24 21 21 4 0.57338628D-01 0.89924840D-02 0.20943901D+05 0.20943901D+05 0.20943901D+05 0.12316273D+01  1  2  6  3  6  5       21 0.239893071227D+01 0.100000000000D+01
0.139227126707D-02 0.000000000000D+00 0.000000000000D+00 0.388615184700D-04 0.112615763664D-03  6 2 -1 25 24 21 21 4 0.57338628D-01 0.89924840D-02 0.20919175D+05 0.20919175D+05 0.20919175D+05 0.12316834D+01  1  2 11  3  6  5       21 0.217147940829D+01 0.100000000000D+01
0.762229767862D-09 0.000000000000D+00 0.000000000000D+00 0.388650634464D-04 0.000000000000D+00  6 2 -1 25 24 1 -1 4 0.57338628D-01 0.89924840D-02 0.20919175D+05 0.20919175D+05 0.20919175D+05 0.12316834D+01  1  2 12  6  6  5       21 0.118882453761D-05 0.100000000000D+01
0.777190039701D-09 0.000000000000D+00 0.000000000000D+00 0.388650634464D-04 0.000000000000D+00  6 2 -1 25 24 1 -1 4 0.57338628D-01 0.89924840D-02 0.20919175D+05 0.20919175D+05 0.20919175D+05 0.12316834D+01  1  2 12  6  6  5       21 0.121215757838D-05 0.100000000000D+01
-.705484768675D-05 0.000000000000D+00 0.000000000000D+00 0.388615184700D-04 0.000000000000D+00  6 2 -1 25 24 1 -1 4 0.57338628D-01 0.89924840D-02 0.20943901D+05 0.20943901D+05 0.20943901D+05 0.12316273D+01  1  2  5  6  6  5       21 -.110015893633D-01 0.100000000000D+01
0.621210690442D-05 0.000000000000D+00 0.000000000000D+00 0.388615184700D-04 0.975330919947D-06  6 2 -1 25 24 1 -1 4 0.57338628D-01 0.89924840D-02 0.20919175D+05 0.20919175D+05 0.20919175D+05 0.12316834D+01  1  2 11  6  6  5       21 0.968881750568D-02 0.100000000000D+01
0.762229767862D-09 0.000000000000D+00 0.000000000000D+00 0.388650634464D-04 0.000000000000D+00  6 2 -1 25 24 2 -2 4 0.57338628D-01 0.89924840D-02 0.20919175D+05 0.20919175D+05 0.20919175D+05 0.12316834D+01  1  2 12  7  6  5       21 0.118882453761D-05 0.100000000000D+01
0.777190039701D-09 0.000000000000D+00 0.000000000000D+00 0.388650634464D-04 0.000000000000D+00  6 2 -1 25 24 2 -2 4 0.57338628D-01 0.89924840D-02 0.20919175D+05 0.20919175D+05 0.20919175D+05 0.12316834D+01  1  2 12  7  6  5       21 0.121215757838D-05 0.100000000000D+01
-.705484768675D-05 0.000000000000D+00 0.000000000000D+00 0.388615184700D-04 0.000000000000D+00  6 2 -1 25 24 2 -2 4 0.57338628D-01 0.89924840D-02 0.20943901D+05 0.20943901D+05 0.20943901D+05 0.12316273D+01  1  2  5  7  6  5       21 -.110015893633D-01 0.100000000000D+01
0.647888409887D-05 0.000000000000D+00 0.000000000000D+00 0.388615184700D-04 0.984256413557D-06  6 2 -1 25 24 2 -2 4 0.57338628D-01 0.89924840D-02 0.20919175D+05 0.20919175D+05 0.20919175D+05 0.12316834D+01  1  2 11  7  6  5       21 0.101049010650D-01 0.100000000000D+01
0.762229767862D-09 0.000000000000D+00 0.000000000000D+00 0.388650634464D-04 0.000000000000D+00  6 2 -1 25 24 3 -3 4 0.57338628D-01 0.89924840D-02 0.20919175D+05 0.20919175D+05 0.20919175D+05 0.12316834D+01  1  2 12  8  6  5       21 0.118882453761D-05 0.100000000000D+01
0.762229767862D-09 0.000000000000D+00 0.000000000000D+00 0.388650634464D-04 0.000000000000D+00  6 2 -1 25 24 4 -4 4 0.57338628D-01 0.89924840D-02 0.20919175D+05 0.20919175D+05 0.20919175D+05 0.12316834D+01  1  2 12  8  6  5       21 0.118882453761D-05 0.100000000000D+01
0.777190039701D-09 0.000000000000D+00 0.000000000000D+00 0.388650634464D-04 0.000000000000D+00  6 2 -1 25 24 3 -3 4 0.57338628D-01 0.89924840D-02 0.20919175D+05 0.20919175D+05 0.20919175D+05 0.12316834D+01  1  2 12  8  6  5       21 0.121215757838D-05 0.100000000000D+01
0.777190039701D-09 0.000000000000D+00 0.000000000000D+00 0.388650634464D-04 0.000000000000D+00  6 2 -1 25 24 4 -4 4 0.57338628D-01 0.89924840D-02 0.20919175D+05 0.20919175D+05 0.20919175D+05 0.12316834D+01  1  2 12  8  6  5       21 0.121215757838D-05 0.100000000000D+01
-.705484768675D-05 0.000000000000D+00 0.000000000000D+00 0.388615184700D-04 0.000000000000D+00  6 2 -1 25 24 3 -3 4 0.57338628D-01 0.89924840D-02 0.20943901D+05 0.20943901D+05 0.20943901D+05 0.12316273D+01  1  2  5  8  6  5       21 -.110015893633D-01 0.100000000000D+01
-.705484768675D-05 0.000000000000D+00 0.000000000000D+00 0.388615184700D-04 0.000000000000D+00  6 2 -1 25 24 4 -4 4 0.57338628D-01 0.89924840D-02 0.20943901D+05 0.20943901D+05 0.20943901D+05 0.12316273D+01  1  2  5  8  6  5       21 -.110015893633D-01 0.100000000000D+01
0.644696444583D-05 0.000000000000D+00 0.000000000000D+00 0.388615184700D-04 0.977461784794D-06  6 2 -1 25 24 3 -3 4 0.57338628D-01 0.89924840D-02 0.20919175D+05 0.20919175D+05 0.20919175D+05 0.12316834D+01  1  2 11  8  6  5       21 0.100551170388D-01 0.100000000000D+01
0.644696444583D-05 0.000000000000D+00 0.000000000000D+00 0.388615184700D-04 0.977461784794D-06  6 2 -1 25 24 4 -4 4 0.57338628D-01 0.89924840D-02 0.20919175D+05 0.20919175D+05 0.20919175D+05 0.12316834D+01  1  2 11  8  6  5       21 0.100551170388D-01 0.100000000000D+01
  </mgrwgt>
  </event>
  <event>
  5     66 0.42622971E-03 0.62196337E+02 0.75467711E-02 0.11059960E+00
        2 -1    0    0  502    0 0.00000000E+00 0.00000000E+00 0.35253819E+04 0.35253819E+04 0.32000000E+00 0.0000E+00 0.9000E+01
       -1 -1    0    0    0  501 0.00000000E+00 0.00000000E+00 -.15651180E+03 0.15651213E+03 0.32000000E+00 0.0000E+00 0.9000E+01
       25  1    1    2    0    0 0.18169820E+03 0.12071469E+03 0.14258206E+04 0.14478175E+04 0.12500000E+03 0.0000E+00 0.9000E+01
       24  1    1    2    0    0 -.17836789E+03 -.54233526E+02 0.20757282E+04 0.20856345E+04 0.80419002E+02 0.0000E+00 0.9000E+01
       21  1    1    2  502  501 -.33303176E+01 -.66481163E+02 -.13267870E+03 0.14844203E+03 0.75000000E+00 0.0000E+00 0.9000E+01
#aMCatNLO 1  0  0  5  1 0.61900987D+01 0.00000000D+00  -5  6  0 0.00000000D+00 0.00000000D+00 0.00000000D+00 0.00000000D+00 0.00000000D+00
  <mgrwgt>
 0.3776599282D+01   25    2    0
 0.742808524843672D+03 0.000000000000000D+00 0.000000000000000D+00 0.742808524843672D+03
 0.742808524843672D+03 -.000000000000000D+00 -.000000000000000D+00 -.742808524843672D+03
 0.354941088077279D+03 0.181698204423690D+03 0.120714698195378D+03 0.250543210154035D+03
 0.461913558360729D+03 -.178367885712578D+03 -.542335125062326D+02 0.414898231992812D+03
 0.668762403249336D+03 -.333031871111217D+01 -.664811856891449D+02 -.665441442146847D+03
 0.000000000000000D+00 0.000000000000000D+00 0.000000000000000D+00 -.000000000000000D+00
 0.742808524843672D+03 0.000000000000000D+00 0.000000000000000D+00 0.742808524843672D+03
 0.742808524843672D+03 -.000000000000000D+00 -.000000000000000D+00 -.742808524843672D+03
 0.354888003464555D+03 0.181697846552663D+03 0.120707554227416D+03 0.250471702820136D+03
 0.461831246629175D+03 -.178368351432433D+03 -.542428093966676D+02 0.414805175045731D+03
 0.597465986851808D+03 -.913221174615652D+01 -.600218766874519D+02 -.594373268638777D+03
 0.714318127418070D+02 0.580271662592615D+01 -.644286814329632D+01 -.709036092270899D+02
0.682836679732D-02 0.000000000000D+00 0.000000000000D+00 0.167509063936D-04 0.000000000000D+00  6 2 -1 25 24 21 21 2 0.54236648D+00 0.24078765D-01 0.67865203D+05 0.67865203D+05 0.67865203D+05 0.11793613D+01  1  2  2  3  6  5       21 0.158813905635D-01 0.100000000000D+01
0.155825240348D-02 0.360342815754D-03 -.262227264520D-04 0.167509063936D-04 0.000000000000D+00  6 2 -1 25 24 21 21 4 0.54236648D+00 0.24078765D-01 0.67865203D+05 0.67865203D+05 0.67865203D+05 0.11793613D+01  1  2  3  3  6  5       21 0.504084344620D-02 0.100000000000D+01
0.209291220149D-03 0.000000000000D+00 0.000000000000D+00 0.167509063936D-04 0.000000000000D+00  6 2 -1 25 24 21 21 4 0.54236648D+00 0.24078765D-01 0.67865203D+05 0.67865203D+05 0.67865203D+05 0.11793613D+01  1  2 15  3  6  5       21 0.677043252480D-03 0.100000000000D+01
0.173929257932D+01 0.000000000000D+00 0.000000000000D+00 0.167381710760D-04 0.000000000000D+00  6 2 -1 25 24 21 21 4 0.54236648D+00 0.24078765D-01 0.68601315D+05 0.68601315D+05 0.68601315D+05 0.11789129D+01  1  2 12  3  6  5       21 0.561335405958D+01 0.100000000000D+01
0.118889154913D+01 0.000000000000D+00 0.000000000000D+00 0.167381710760D-04 0.000000000000D+00  6 2 -1 25 24 21 21 4 0.54236648D+00 0.24078765D-01 0.68601315D+05 0.68601315D+05 0.68601315D+05 0.11789129D+01  1  2 12  3  6  5       21 0.383700205650D+01 0.100000000000D+01
-.259420556615D+01 0.000000000000D+00 0.000000000000D+00 0.167509063936D-04 0.000000000000D+00  6 2 -1 25 24 21 21 4 0.54236648D+00 0.24078765D-01 0.67865203D+05 0.67865203D+05 0.67865203D+05 0.11793613D+01  1  2  4  3  6  5       21 -.839208339872D+01 0.100000000000D+01
-.416925848929D+01 0.000000000000D+00 0.000000000000D+00 0.167509063936D-04 0.000000000000D+00  6 2 -1 25 24 21 21 4 0.54236648D+00 0.24078765D-01 0.67865203D+05 0.67865203D+05 0.67865203D+05 0.11793613D+01  1  2  5  3  6  5       21 -.134872754147D+02 0.100000000000D+01
0.461483865931D+01 0.000000000000D+00 -.000000000000D+00 0.167509063936D-04 0.000000000000D+00  6 2 -1 25 24 21 21 4 0.54236648D+00 0.24078765D-01 0.67865203D+05 0.67865203D+05 0.67865203D+05 0.11793613D+01  1  2  6  3  6  5       21 0.149286977893D+02 0.100000000000D+01
0.398401779161D+00 0.000000000000D+00 0.000000000000D+00 0.167509063936D-04 0.235869538901D-05  6 2 -1 25 24 21 21 4 0.54236648D+00 0.24078765D-01 0.68601315D+05 0.68601315D+05 0.68601315D+05 0.11789129D+01  1  2 11  3  6  5       21 0.128579301205D+01 0.100000000000D+01
0.142110704270D-01 0.000000000000D+00 0.000000000000D+00 0.167381710760D-04 0.000000000000D+00  6 2 -1 25 24 1 -1 4 0.54236648D+00 0.24078765D-01 0.68601315D+05 0.68601315D+05 0.68601315D+05 0.11789129D+01  1  2 12  6  6  5       21 0.458644915878D-01 0.100000000000D+01
0.122983038748D-01 0.000000000000D+00 0.000000000000D+00 0.167381710760D-04 0.000000000000D+00  6 2 -1 25 24 1 -1 4 0.54236648D+00 0.24078765D-01 0.68601315D+05 0.68601315D+05 0.68601315D+05 0.11789129D+01  1  2 12  6  6  5       21 0.396912714990D-01 0.100000000000D+01
-.347074389094D-01 0.000000000000D+00 0.000000000000D+00 0.167509063936D-04 0.000000000000D+00  6 2 -1 25 24 1 -1 4 0.54236648D+00 0.24078765D-01 0.67865203D+05 0.67865203D+05 0.67865203D+05 0.11793613D+01  1  2  5  6  6  5       21 -.112276268960D+00 0.100000000000D+01
0.638953076209D-02 0.000000000000D+00 0.000000000000D+00 0.167509063936D-04 0.733642026090D-07  6 2 -1 25 24 1 -1 4 0.54236648D+00 0.24078765D-01 0.68601315D+05 0.68601315D+05 0.68601315D+05 0.11789129D+01  1  2 11  6  6  5       21 0.206214290044D-01 0.100000000000D+01
0.142110704270D-01 0.000000000000D+00 0.000000000000D+00 0.167381710760D-04 0.000000000000D+00  6 2 -1 25 24 2 -2 4 0.54236648D+00 0.24078765D-01 0.68601315D+05 0.68601315D+05 0.68601315D+05 0.11789129D+01  1  2 12  7  6  5       21 0.458644915878D-01 0.100000000000D+01
0.122983038748D-01 0.000000000000D+00 0.000000000000D+00 0.167381710760D-04 0.000000000000D+00  6 2 -1 25 24 2 -2 4 0.54236648D+00 0.24078765D-01 0.68601315D+05 0.68601315D+05 0.68601315D+05 0.11789129D+01  1  2 12  7  6  5       21 0.396912714990D-01 0.100000000000D+01
-.347074389094D-01 0.000000000000D+00 0.000000000000D+00 0.167509063936D-04 0.000000000000D+00  6 2 -1 25 24 2 -2 4 0.54236648D+00 0.24078765D-01 0.67865203D+05 0.67865203D+05 0.67865203D+05 0.11793613D+01  1  2  5  7  6  5       21 -.112276268960D+00 0.100000000000D+01
0.576036003718D-02 0.000000000000D+00 0.000000000000D+00 0.167509063936D-04 0.483809475468D-07  6 2 -1 25 24 2 -2 4 0.54236648D+00 0.24078765D-01 0.68601315D+05 0.68601315D+05 0.68601315D+05 0.11789129D+01  1  2 11  7  6  5       21 0.185908574463D-01 0.100000000000D+01
0.142110704270D-01 0.000000000000D+00 0.000000000000D+00 0.167381710760D-04 0.000000000000D+00  6 2 -1 25 24 3 -3 4 0.54236648D+00 0.24078765D-01 0.68601315D+05 0.68601315D+05 0.68601315D+05 0.11789129D+01  1  2 12  8  6  5       21 0.458644915878D-01 0.100000000000D+01
0.142110704270D-01 0.000000000000D+00 0.000000000000D+00 0.167381710760D-04 0.000000000000D+00  6 2 -1 25 24 4 -4 4 0.54236648D+00 0.24078765D-01 0.68601315D+05 0.68601315D+05 0.68601315D+05 0.11789129D+01  1  2 12  8  6  5       21 0.458644915878D-01 0.100000000000D+01
0.122983038748D-01 0.000000000000D+00 0.000000000000D+00 0.167381710760D-04 0.000000000000D+00  6 2 -1 25 24 3 -3 4 0.54236648D+00 0.24078765D-01 0.68601315D+05 0.68601315D+05 0.68601315D+05 0.11789129D+01  1  2 12  8  6  5       21 0.396912714990D-01 0.100000000000D+01
0.122983038748D-01 0.000000000000D+00 0.000000000000D+00 0.167381710760D-04 0.000000000000D+00  6 2 -1 25 24 4 -4 4 0.54236648D+00 0.24078765D-01 0.68601315D+05 0.68601315D+05 0.68601315D+05 0.11789129D+01  1  2 12  8  6  5       21 0.396912714990D-01 0.100000000000D+01
-.347074389094D-01 0.000000000000D+00 0.000000000000D+00 0.167509063936D-04 0.000000000000D+00  6 2 -1 25 24 3 -3 4 0.54236648D+00 0.24078765D-01 0.67865203D+05 0.67865203D+05 0.67865203D+05 0.11793613D+01  1  2  5  8  6  5       21 -.112276268960D+00 0.100000000000D+01
-.347074389094D-01 0.000000000000D+00 0.000000000000D+00 0.167509063936D-04 0.000000000000D+00  6 2 -1 25 24 4 -4 4 0.54236648D+00 0.24078765D-01 0.67865203D+05 0.67865203D+05 0.67865203D+05 0.11793613D+01  1  2  5  8  6  5       21 -.112276268960D+00 0.100000000000D+01
0.576034813651D-02 0.000000000000D+00 0.000000000000D+00 0.167509063936D-04 0.483806819019D-07  6 2 -1 25 24 3 -3 4 0.54236648D+00 0.24078765D-01 0.68601315D+05 0.68601315D+05 0.68601315D+05 0.11789129D+01  1  2 11  8  6  5       21 0.185908190383D-01 0.100000000000D+01
0.576034813651D-02 0.000000000000D+00 0.000000000000D+00 0.167509063936D-04 0.483806819019D-07  6 2 -1 25 24 4 -4 4 0.54236648D+00 0.24078765D-01 0.68601315D+05 0.68601315D+05 0.68601315D+05 0.11789129D+01  1  2 11  8  6  5       21 0.185908190383D-01 0.100000000000D+01
  </mgrwgt>
  </event>
  <event>
  6     66 0.42622971E-03 0.48394034E+02 0.75467711E-02 0.11673405E+00
        2 -1    0    0  502    0 0.00000000E+00 0.00000000E+00 0.10445449E+03 0.10445498E+03 0.32000000E+00 0.0000E+00 0.9000E+01
       -1 -1    0    0    0  501 -.00000000E+00 -.00000000E+00 -.34646509E+03 0.34646524E+03 0.32000000E+00 0.0000E+00 0.9000E+01
       25  1    1    2    0    0 -.10545317E+03 0.67727234E+01 -.10210676E+03 0.19291716E+03 0.12500000E+03 0.0000E+00 0.9000E+01
       24  1    1    2    0    0 0.94514011E+01 -.45154214E+02 -.86806323E+02 0.12700703E+03 0.80419002E+02 0.0000E+00 0.9000E+01
       21  1    1    2  502  503 0.65209318E+02 0.17944831E+02 -.63312152E+02 0.92645902E+02 0.75000000E+00 0.0000E+00 0.9000E+01
       21  1    1    2  503  501 0.30792447E+02 0.20436660E+02 0.10214630E+02 0.38350137E+02 0.75000000E+00 0.0000E+00 0.9000E+01
#aMCatNLO 2  0  0  5  2 0.29854696D+02 0.00000000D+00  -5  6  0 0.00000000D+00 0.00000000D+00 0.00000000D+00 0.00000000D+00 0.00000000D+00
  <mgrwgt>
 0.1503622004D-01    3    2    0
 0.190236641840093D+03 0.000000000000000D+00 0.000000000000000D+00 0.190236641840093D+03
 0.190236641840093D+03 -.000000000000000D+00 -.000000000000000D+00 -.190236641840093D+03
 0.167874591133621D+03 -.111979673494867D+03 0.416342666914571D+01 0.311368967956946D+00
 0.959202466418047D+02 0.568726802793973D+01 -.466591142098953D+02 -.228923525435991D+02
 0.116678445904760D+03 0.106292405466927D+03 0.424956875407496D+02 0.225809835756421D+02
 0.000000000000000D+00 0.000000000000000D+00 0.000000000000000D+00 0.000000000000000D+00
 0.190236641840093D+03 0.000000000000000D+00 0.000000000000000D+00 0.190236641840093D+03
 0.190236641840093D+03 -.000000000000000D+00 -.000000000000000D+00 -.190236641840093D+03
 0.163682852332938D+03 -.105443170612811D+03 0.677671952732160D+01 0.169999747413717D+01
 0.953067697247402D+02 0.945722092218968D+01 -.451518876161079D+02 -.220914557719808D+02
 0.690665623623102D+02 0.647348088966731D+02 0.177346063806467D+02 -.162812250823338D+02
 0.524170992601977D+02 0.312511407939479D+02 0.206405617081395D+02 0.366726833801774D+02
-.454017028086D-04 0.000000000000D+00 0.000000000000D+00 0.206585048650D-05 0.000000000000D+00  6 2 -1 25 24 21 21 4 0.16069971D-01 0.53302371D-01 0.32572569D+05 0.32572569D+05 0.32572569D+05 0.12111661D+01  1  2 13  3  6  5       21 -.144008914461D-01 0.100000000000D+01
-.473854800910D-04 0.000000000000D+00 0.000000000000D+00 0.206585048650D-05 0.000000000000D+00  6 2 -1 25 24 21 21 4 0.16069971D-01 0.53302371D-01 0.32572569D+05 0.32572569D+05 0.32572569D+05 0.12111661D+01  1  2 13  3  6  5       21 -.150301224998D-01 0.100000000000D+01
0.140191886723D-03 0.000000000000D+00 0.000000000000D+00 0.205376001945D-05 0.285752082760D-07  6 2 -1 25 24 21 21 4 0.16069971D-01 0.53302371D-01 0.32572569D+05 0.32572569D+05 0.32572569D+05 0.12111661D+01  1  2  1  3  6  5       21 0.444672339899D-01 0.100000000000D+01
  </mgrwgt>
  </event>
  <event>
  5     66 0.42622971E-03 0.26532648E+02 0.75467711E-02 0.11988019E+00
        2 -1    0    0  502    0 0.00000000E+00 0.00000000E+00 0.94687893E+03 0.94687899E+03 0.32000000E+00 0.0000E+00 0.9000E+01
       -1 -1    0    0    0  501 0.00000000E+00 0.00000000E+00 -.26780825E+02 0.26782737E+02 0.32000000E+00 0.0000E+00 0.9000E+01
       25  1    1    2    0    0 -.11623445E+02 0.77929666E+02 0.39429996E+03 0.42107671E+03 0.12500000E+03 0.0000E+00 0.9000E+01
       24  1    1    2    0    0 -.63211994E+01 -.97468758E+02 0.30504141E+03 0.33023869E+03 0.80419002E+02 0.0000E+00 0.9000E+01
       21  1    1    2  502  501 0.17944645E+02 0.19539092E+02 0.22075674E+03 0.22234632E+03 0.75000000E+00 0.0000E+00 0.9000E+01
#aMCatNLO 1  0  0  5  1 0.11434449D+02 0.00000000D+00  -5  6  0 0.00000000D+00 0.00000000D+00 0.00000000D+00 0.00000000D+00 0.00000000D+00
  <mgrwgt>
 0.3018170799D+00   20    2    0
 0.159245583461892D+03 0.000000000000000D+00 0.000000000000000D+00 0.159245583461892D+03
 0.159245583461892D+03 -.000000000000000D+00 -.000000000000000D+00 -.159245583461892D+03
 0.148172007948442D+03 -.116247774468051D+02 0.779282152140560D+02 -.110454407941589D+02
 0.128333807499881D+03 -.632235329222156D+01 -.974700147442378D+02 -.214935866632879D+02
 0.419853514754611D+02 0.179471307390267D+02 0.195417995301818D+02 0.325390274574468D+02
 0.000000000000000D+00 0.000000000000000D+00 0.000000000000000D+00 0.000000000000000D+00
 0.159245583461892D+03 0.000000000000000D+00 0.000000000000000D+00 0.159245583461892D+03
 0.159245583461892D+03 -.000000000000000D+00 -.000000000000000D+00 -.159245583461892D+03
 0.148695116254159D+03 -.102609642607806D+02 0.794132082341355D+02 -.857278065966843D+01
 0.126972026122040D+03 -.514947346156397D+01 -.961929202126945D+02 -.193670980580056D+02
 0.187981470259693D+02 -.346669554579115D+01 0.635177833292645D+01 0.173495609630940D+02
 0.240258775216150D+02 0.188771332681358D+02 0.104279336456325D+02 0.105903177545800D+02
0.183714995595D-03 0.000000000000D+00 0.000000000000D+00 0.299409627780D-04 0.000000000000D+00  6 2 -1 25 24 21 21 2 0.14567383D+00 0.41202781D-02 0.22622191D+05 0.22622191D+05 0.22622191D+05 0.12279788D+01  1  2  2  3  6  5       21 0.204681417755D+00 0.100000000000D+01
0.259885963017D-04 0.969490667007D-05 -.705513956354D-06 0.299409627780D-04 0.000000000000D+00  6 2 -1 25 24 21 21 4 0.14567383D+00 0.41202781D-02 0.22622191D+05 0.22622191D+05 0.22622191D+05 0.12279788D+01  1  2  3  3  6  5       21 0.436614701592D-01 0.100000000000D+01
0.255272827629D-05 0.000000000000D+00 0.000000000000D+00 0.299409627780D-04 0.000000000000D+00  6 2 -1 25 24 21 21 4 0.14567383D+00 0.41202781D-02 0.22622191D+05 0.22622191D+05 0.22622191D+05 0.12279788D+01  1  2 15  3  6  5       21 0.428864522601D-02 0.100000000000D+01
0.449839582719D-04 0.000000000000D+00 0.000000000000D+00 0.299117152014D-04 0.000000000000D+00  6 2 -1 25 24 21 21 4 0.14567383D+00 0.41202781D-02 0.22912304D+05 0.22912304D+05 0.22912304D+05 0.12273789D+01  1  2 12  3  6  5       21 0.754485176880D-01 0.100000000000D+01
0.553450308670D-04 0.000000000000D+00 0.000000000000D+00 0.299117152014D-04 0.000000000000D+00  6 2 -1 25 24 21 21 4 0.14567383D+00 0.41202781D-02 0.22912304D+05 0.22912304D+05 0.22912304D+05 0.12273789D+01  1  2 12  3  6  5       21 0.928264363724D-01 0.100000000000D+01
-.239490657081D-03 0.000000000000D+00 0.000000000000D+00 0.299409627780D-04 0.000000000000D+00  6 2 -1 25 24 21 21 4 0.14567383D+00 0.41202781D-02 0.22622191D+05 0.22622191D+05 0.22622191D+05 0.12279788D+01  1  2  4  3  6  5       21 -.402350094486D+00 0.100000000000D+01
-.902579920682D-04 0.000000000000D+00 0.000000000000D+00 0.299409627780D-04 0.000000000000D+00  6 2 -1 25 24 21 21 4 0.14567383D+00 0.41202781D-02 0.22622191D+05 0.22622191D+05 0.22622191D+05 0.12279788D+01  1  2  5  3  6  5       21 -.151635609002D+00 0.100000000000D+01
0.252657764774D-03 0.000000000000D+00 -.000000000000D+00 0.299409627780D-04 0.000000000000D+00  6 2 -1 25 24 21 21 4 0.14567383D+00 0.41202781D-02 0.22622191D+05 0.22622191D+05 0.22622191D+05 0.12279788D+01  1  2  6  3  6  5       21 0.424471153775D+00 0.100000000000D+01
0.218744492944D-05 0.000000000000D+00 0.000000000000D+00 0.299117152014D-04 0.000000000000D+00  6 2 -1 25 24 1 -1 4 0.14567383D+00 0.41202781D-02 0.22912304D+05 0.22912304D+05 0.22912304D+05 0.12273789D+01  1  2 12  6  6  5       21 0.366885182608D-02 0.100000000000D+01
0.267907754532D-05 0.000000000000D+00 0.000000000000D+00 0.299117152014D-04 0.000000000000D+00  6 2 -1 25 24 1 -1 4 0.14567383D+00 0.41202781D-02 0.22912304D+05 0.22912304D+05 0.22912304D+05 0.12273789D+01  1  2 12  6  6  5       21 0.449343360011D-02 0.100000000000D+01
-.330709516173D-05 0.000000000000D+00 0.000000000000D+00 0.299409627780D-04 0.000000000000D+00  6 2 -1 25 24 1 -1 4 0.14567383D+00 0.41202781D-02 0.22622191D+05 0.22622191D+05 0.22622191D+05 0.12279788D+01  1  2  5  6  6  5       21 -.555599983320D-02 0.100000000000D+01
0.218744492944D-05 0.000000000000D+00 0.000000000000D+00 0.299117152014D-04 0.000000000000D+00  6 2 -1 25 24 2 -2 4 0.14567383D+00 0.41202781D-02 0.22912304D+05 0.22912304D+05 0.22912304D+05 0.12273789D+01  1  2 12  7  6  5       21 0.366885182608D-02 0.100000000000D+01
0.267907754532D-05 0.000000000000D+00 0.000000000000D+00 0.299117152014D-04 0.000000000000D+00  6 2 -1 25 24 2 -2 4 0.14567383D+00 0.41202781D-02 0.22912304D+05 0.22912304D+05 0.22912304D+05 0.12273789D+01  1  2 12  7  6  5       21 0.449343360011D-02 0.100000000000D+01
-.330709516173D-05 0.000000000000D+00 0.000000000000D+00 0.299409627780D-04 0.000000000000D+00  6 2 -1 25 24 2 -2 4 0.14567383D+00 0.41202781D-02 0.22622191D+05 0.22622191D+05 0.22622191D+05 0.12279788D+01  1  2  5  7  6  5       21 -.555599983320D-02 0.100000000000D+01
0.218744492944D-05 0.000000000000D+00 0.000000000000D+00 0.299117152014D-04 0.000000000000D+00  6 2 -1 25 24 3 -3 4 0.14567383D+00 0.41202781D-02 0.22912304D+05 0.22912304D+05 0.22912304D+05 0.12273789D+01  1  2 12  8  6  5       21 0.366885182608D-02 0.100000000000D+01
0.218744492944D-05 0.000000000000D+00 0.000000000000D+00 0.299117152014D-04 0.000000000000D+00  6 2 -1 25 24 4 -4 4 0.14567383D+00 0.41202781D-02 0.22912304D+05 0.22912304D+05 0.22912304D+05 0.12273789D+01  1  2 12  8  6  5       21 0.366885182608D-02 0.100000000000D+01
0.267907754532D-05 0.000000000000D+00 0.000000000000D+00 0.299117152014D-04 0.000000000000D+00  6 2 -1 25 24 3 -3 4 0.14567383D+00 0.41202781D-02 0.22912304D+05 0.22912304D+05 0.22912304D+05 0.12273789D+01  1  2 12  8  6  5       21 0.449343360011D-02 0.100000000000D+01
0.267907754532D-05 0.000000000000D+00 0.000000000000D+00 0.299117152014D-04 0.000000000000D+00  6 2 -1 25 24 4 -4 4 0.14567383D+00 0.41202781D-02 0.22912304D+05 0.22912304D+05 0.22912304D+05 0.12273789D+01  1  2 12  8  6  5       21 0.449343360011D-02 0.100000000000D+01
-.330709516173D-05 0.000000000000D+00 0.000000000000D+00 0.299409627780D-04 0.000000000000D+00  6 2 -1 25 24 3 -3 4 0.14567383D+00 0.41202781D-02 0.22622191D+05 0.22622191D+05 0.22622191D+05 0.12279788D+01  1  2  5  8  6  5       21 -.555599983320D-02 0.100000000000D+01
-.330709516173D-05 0.000000000000D+00 0.000000000000D+00 0.299409627780D-04 0.000000000000D+00  6 2 -1 25 24 4 -4 4 0.14567383D+00 0.41202781D-02 0.22622191D+05 0.22622191D+05 0.22622191D+05 0.12279788D+01  1  2  5  8  6  5       21 -.555599983320D-02 0.100000000000D+01
  </mgrwgt>
  </event>
  <event>
  5     66 -.42622971E-03 0.27409816E+02 0.75467711E-02 0.11244447E+00
        2 -1    0    0  502    0 0.00000000E+00 0.00000000E+00 0.20433438E+04 0.20433438E+04 0.32000000E+00 0.0000E+00 0.9000E+01
       -1 -1    0    0    0  501 0.00000000E+00 0.00000000E+00 -.36209671E+02 0.36211085E+02 0.32000000E+00 0.0000E+00 0.9000E+01
       25  1    1    2    0    0 -.20262368E+03 -.30820466E+02 0.51020093E+03 0.56385835E+03 0.12500000E+03 0.0000E+00 0.9000E+01
       24  1    1    2    0    0 0.18131939E+03 0.13577897E+02 0.11004036E+04 0.11182202E+04 0.80419002E+02 0.0000E+00 0.9000E+01
       21  1    1    2  502  501 0.21304289E+02 0.17242569E+02 0.39652953E+03 0.39747630E+03 0.75000000E+00 0.0000E+00 0.9000E+01
#aMCatNLO 1  0  0  1  5 0.10948674D+03 0.00000000D+00  -5  6  0 0.00000000D+00 0.00000000D+00 0.00000000D+00 0.00000000D+00 0.00000000D+00
  <mgrwgt>
 -.1051268625D+00    1    2    0
 0.272011582825364D+03 0.000000000000000D+00 0.000000000000000D+00 0.272011582825364D+03
 0.272011582825364D+03 0.000000000000000D+00 0.000000000000000D+00 -.272011582825364D+03
 0.273028276972840D+03 -.202624625762423D+03 -.308212311785886D+02 -.130049039865859D+03
 0.214590014041882D+03 0.181318648367285D+03 0.135772955970092D+02 0.807518604779892D+02
 0.564048746360066D+02 0.213059773951381D+02 0.172439355815794D+02 0.492971793878700D+02
 0.000000000000000D+00 -.000000000000000D+00 -.000000000000000D+00 0.000000000000000D+00
 0.389412483091833D+03 0.000000000000000D+00 0.000000000000000D+00 0.389412483091833D+03
 0.302812124698666D+03 0.000000000000000D+00 0.000000000000000D+00 -.302812124698666D+03
 0.238288919007856D+03 -.154809423229687D+03 -.166702918748343D+02 -.130049039865859D+03
 0.253706972585192D+03 0.225110868611505D+03 0.265376307587881D+02 0.807518604779892D+02
 0.624747828689110D+02 0.324228632446696D+02 0.205339849502040D+02 0.492971793878700D+02
 0.137753933328541D+03 -.102724308626487D+03 -.304013238341578D+02 0.866003583931673D+02
-.437233562107D-03 0.000000000000D+00 0.000000000000D+00 0.174204633732D-04 0.000000000000D+00  6 2 -1 25 24 21 21 4 0.31436069D+00 0.55708293D-02 0.54357138D+05 0.54357138D+05 0.54357138D+05 0.11887047D+01  1  2 14  1  6  1        2 -.105126862468D+00 0.100000000000D+01
  </mgrwgt>
  </event>
  <event>
  5     66 0.42622971E-03 0.24459182E+02 0.75467711E-02 0.11583992E+00
        2 -1    0    0  502    0 0.00000000E+00 0.00000000E+00 0.16117925E+04 0.16117925E+04 0.32000000E+00 0.0000E+00 0.9000E+01
       -1 -1    0    0    0  501 0.00000000E+00 0.00000000E+00 -.27613683E+02 0.27615537E+02 0.32000000E+00 0.0000E+00 0.9000E+01
       25  1    1    2    0    0 0.49151293E+02 -.39409898E+02 0.51935526E+03 0.53788835E+03 0.12500000E+03 0.0000E+00 0.9000E+01
       24  1    1    2    0    0 -.54585667E+02 0.63257372E+02 0.16673678E+03 0.20309963E+03 0.80419002E+02 0.0000E+00 0.9000E+01
       21  1    1    2  502  501 0.54343734E+01 -.23847474E+02 0.89808678E+03 0.89842009E+03 0.75000000E+00 0.0000E+00 0.9000E+01
#aMCatNLO 1  0  0  1  5 0.57436271D+02 0.00000000D+00  -5  6  0 0.00000000D+00 0.00000000D+00 0.00000000D+00 0.00000000D+00 0.00000000D+00
  <mgrwgt>
 0.3870792856D+00    7    4    0
 0.210971733914109D+03 0.000000000000000D+00 0.000000000000000D+00 0.210971733914109D+03
 0.210971733914109D+03 0.000000000000000D+00 0.000000000000000D+00 -.210971733914109D+03
 0.139987656188229D+03 0.491512573297945D+02 -.394097401727824D+02 -.160317419135895D+01
 0.163108579633654D+03 -.545857084444864D+02 0.632575557072165D+02 -.114699934068418D+03
 0.118847232006335D+03 0.543445111469187D+01 -.238478155344341D+02 0.116303108259777D+03
 0.000000000000000D+00 0.000000000000000D+00 0.000000000000000D+00 0.000000000000000D+00
 0.329494788533529D+03 0.000000000000000D+00 0.000000000000000D+00 0.329494788533529D+03
 0.228460395488580D+03 0.000000000000000D+00 0.000000000000000D+00 -.228460395488580D+03
 0.140334191016233D+03 0.293868402542965D+02 -.565908881407706D+02 -.160317419135895D+01
 0.165923310673501D+03 -.777844836238853D+02 0.430909306298968D+02 -.114699934068418D+03
 0.123115987940843D+03 -.116254464411287D+02 -.386779328662850D+02 0.116303108259777D+03
 0.128581694391533D+03 0.600230898107174D+02 0.521778903771588D+02 0.101034393044949D+03
 0.210971733914109D+03 0.000000000000000D+00 0.000000000000000D+00 0.210971733914109D+03
 0.210971733914109D+03 0.000000000000000D+00 0.000000000000000D+00 -.210971733914109D+03
 0.139987656188229D+03 0.491512573297945D+02 -.394097401727824D+02 -.160317419135895D+01
 0.163108579633654D+03 -.545857084444864D+02 0.632575557072165D+02 -.114699934068418D+03
 0.000000000000000D+00 0.000000000000000D+00 0.000000000000000D+00 0.000000000000000D+00
 0.118847232006335D+03 0.543445111469187D+01 -.238478155344341D+02 0.116303108259777D+03
 0.329494788533529D+03 0.000000000000000D+00 0.000000000000000D+00 0.329494788533529D+03
 0.228460395488580D+03 0.000000000000000D+00 0.000000000000000D+00 -.228460395488580D+03
 0.140334191016233D+03 0.293868402542965D+02 -.565908881407706D+02 -.160317419135895D+01
 0.165923310673501D+03 -.777844836238853D+02 0.430909306298968D+02 -.114699934068418D+03
 0.128581694391533D+03 0.600230898107174D+02 0.521778903771588D+02 0.101034393044949D+03
 0.123115987940843D+03 -.116254464411287D+02 -.386779328662850D+02 0.116303108259777D+03
0.330801722234D-03 0.000000000000D+00 0.000000000000D+00 0.384811572413D-04 0.000000000000D+00  6 2 -1 25 24 21 21 2 0.24796822D+00 0.42484040D-02 0.19656686D+05 0.19656686D+05 0.19656686D+05 0.12346548D+01  1  2  2  1  6  1        2 0.152972807418D+00 0.100000000000D+01
0.554470819267D-04 0.174568864831D-04 -.127036571547D-05 0.384811572413D-04 0.000000000000D+00  6 2 -1 25 24 21 21 4 0.24796822D+00 0.42484040D-02 0.19656686D+05 0.19656686D+05 0.19656686D+05 0.12346548D+01  1  2  3  1  6  1        2 0.390855509802D-01 0.100000000000D+01
0.122631669647D-04 0.000000000000D+00 0.000000000000D+00 0.384811572413D-04 0.000000000000D+00  6 2 -1 25 24 21 21 4 0.24796822D+00 0.42484040D-02 0.19656686D+05 0.19656686D+05 0.19656686D+05 0.12346548D+01  1  2 15  1  6  1        2 0.864450609339D-02 0.100000000000D+01
-.205047967326D-03 0.000000000000D+00 0.000000000000D+00 0.384811572413D-04 0.000000000000D+00  6 2 -1 25 24 21 21 4 0.24796822D+00 0.42484040D-02 0.19656686D+05 0.19656686D+05 0.19656686D+05 0.12346548D+01  1  2  4  1  6  1        2 -.144541651279D+00 0.100000000000D+01
-.636093517243D-03 0.000000000000D+00 -.194409756366D-03 0.384811572413D-04 0.000000000000D+00  6 2 -1 25 24 21 21 4 0.39657351D+00 0.42484040D-02 0.19656686D+05 0.19656686D+05 0.19656686D+05 0.12346548D+01  1  2  5  1  6  1        2 -.141321180358D+00 0.100000000000D+01
0.671596531486D-03 0.000000000000D+00 0.174784240649D-03 0.384811572413D-04 0.000000000000D+00  6 2 -1 25 24 21 21 4 0.24796822D+00 0.42484040D-02 0.19656686D+05 0.19656686D+05 0.19656686D+05 0.12346548D+01  1  2  6  1  6  1        2 0.473419331683D+00 0.100000000000D+01
-.259973609252D-04 0.000000000000D+00 -.104364785117D-04 0.384811572413D-04 0.000000000000D+00  6 21 -1 25 24 -2 21 4 0.39657351D+00 0.42484040D-02 0.19656686D+05 0.19656686D+05 0.19656686D+05 0.12346548D+01  3  4  5  4  5  1        2 -.118007897293D-02 0.100000000000D+01
  </mgrwgt>
  </event>
  <event>
  5     66 0.42622971E-03 0.39324678E+02 0.75467711E-02 0.11985876E+00
        2 -1    0    0  502    0 0.00000000E+00 0.00000000E+00 0.11341568E+04 0.11341569E+04 0.32000000E+00 0.0000E+00 0.9000E+01
       -1 -1    0    0    0  501 0.00000000E+00 0.00000000E+00 -.21507715E+02 0.21510096E+02 0.32000000E+00 0.0000E+00 0.9000E+01
       25  1    1    2    0    0 -.35177985E+02 0.76723972E+02 0.72289061E+03 0.73845778E+03 0.12500000E+03 0.0000E+00 0.9000E+01
       24  1    1    2    0    0 0.52353474E+02 -.41355195E+02 0.22903755E+03 0.25174700E+03 0.80419002E+02 0.0000E+00 0.9000E+01
       21  1    1    2  502  501 -.17175489E+02 -.35368777E+02 0.16072095E+03 0.16546218E+03 0.75000000E+00 0.0000E+00 0.9000E+01
#aMCatNLO 1  0  0  2  5 0.82690564D+01 0.00000000D+00  -5  6  0 0.00000000D+00 0.00000000D+00 0.00000000D+00 0.00000000D+00 0.00000000D+00
  <mgrwgt>
 0.2478788610D+00    6    4    0
 0.156187463391509D+03 0.000000000000000D+00 0.000000000000000D+00 0.156187463391509D+03
 0.156187463391509D+03 0.000000000000000D+00 0.000000000000000D+00 -.156187463391509D+03
 0.157144506968246D+03 -.351764404075732D+02 0.767271518159877D+02 0.441016812009701D+02
 0.115557337791938D+03 0.523546096243272D+02 -.413528563189269D+02 -.493479329713009D+02
 0.396730820228339D+02 -.171781692167540D+02 -.353742954970608D+02 0.524625177033076D+01
 0.000000000000000D+00 -.000000000000000D+00 -.000000000000000D+00 0.000000000000000D+00
 0.198028371435272D+03 0.000000000000000D+00 0.000000000000000D+00 0.198028371435272D+03
 0.156651267770170D+03 0.000000000000000D+00 0.000000000000000D+00 -.156651267770170D+03
 0.157651809124270D+03 -.318193844293999D+02 0.791938217914581D+02 0.441016812009701D+02
 0.116066480068651D+03 0.548246960982989D+02 -.395379064992708D+02 -.493479329713009D+02
 0.387660658978593D+02 -.163416771836878D+02 -.347596647622443D+02 0.524625177033076D+01
 0.421952841146626D+02 -.666363448521121D+01 -.489625052994294D+01 0.413771036651025D+02
 0.156187463391509D+03 0.000000000000000D+00 0.000000000000000D+00 0.156187463391509D+03
 0.156187463391509D+03 0.000000000000000D+00 0.000000000000000D+00 -.156187463391509D+03
 0.157144506968246D+03 -.351764404075732D+02 0.767271518159877D+02 0.441016812009701D+02
 0.115557337791938D+03 0.523546096243272D+02 -.413528563189269D+02 -.493479329713009D+02
 0.000000000000000D+00 -.000000000000000D+00 -.000000000000000D+00 0.000000000000000D+00
 0.396730820228339D+02 -.171781692167540D+02 -.353742954970608D+02 0.524625177033076D+01
 0.198028371435272D+03 0.000000000000000D+00 0.000000000000000D+00 0.198028371435272D+03
 0.156651267770170D+03 0.000000000000000D+00 0.000000000000000D+00 -.156651267770170D+03
 0.157651809124270D+03 -.318193844293999D+02 0.791938217914581D+02 0.441016812009701D+02
 0.116066480068651D+03 0.548246960982989D+02 -.395379064992708D+02 -.493479329713009D+02
 0.421952841146626D+02 -.666363448521121D+01 -.489625052994294D+01 0.413771036651025D+02
 0.387660658978593D+02 -.163416771836878D+02 -.347596647622443D+02 0.524625177033076D+01
0.191513144413D-03 0.000000000000D+00 0.000000000000D+00 0.121793534859D-04 0.000000000000D+00  6 2 -1 25 24 21 21 2 0.17448585D+00 0.33090659D-02 0.21703833D+05 0.21703833D+05 0.21703833D+05 0.12299361D+01  1  2  2  2  6  2       -1 0.228800253896D+00 0.100000000000D+01
0.142803837555D-04 0.101064262891D-04 -.735460901116D-06 0.121793534859D-04 0.000000000000D+00  6 2 -1 25 24 21 21 4 0.17448585D+00 0.33090659D-02 0.21703833D+05 0.21703833D+05 0.21703833D+05 0.12299361D+01  1  2  3  2  6  2       -1 0.258085093362D-01 0.100000000000D+01
0.832635820047D-05 0.000000000000D+00 0.000000000000D+00 0.121793534859D-04 0.000000000000D+00  6 2 -1 25 24 21 21 4 0.17448585D+00 0.33090659D-02 0.21703833D+05 0.21703833D+05 0.21703833D+05 0.12299361D+01  1  2 15  2  6  2       -1 0.150479774936D-01 0.100000000000D+01
-.120773603941D-04 0.000000000000D+00 0.000000000000D+00 0.121793534859D-04 0.000000000000D+00  6 2 -1 25 24 21 21 4 0.17448585D+00 0.33090659D-02 0.21703833D+05 0.21703833D+05 0.21703833D+05 0.12299361D+01  1  2  4  2  6  2       -1 -.218270512770D-01 0.100000000000D+01
0.276870813655D-07 0.000000000000D+00 0.000000000000D+00 0.121793534859D-04 0.882981985135D-06  6 2 -1 25 24 21 21 4 0.22122870D+00 0.33188923D-02 0.22965810D+05 0.22965810D+05 0.22965810D+05 0.12272691D+01  1  2 11  2  6  2       -1 0.337734051111D-04 0.100000000000D+01
0.668145658178D-09 0.000000000000D+00 0.000000000000D+00 0.121265912320D-04 0.250316936028D-08  6 2 21 25 24 1 21 4 0.22122870D+00 0.33188923D-02 0.22965810D+05 0.22965810D+05 0.22965810D+05 0.12272691D+01  3  4 11  5  5  2       -1 0.153981468179D-04 0.100000000000D+01
  </mgrwgt>
  </event>
  <event>
  5     66 0.42622971E-03 0.87914963E+02 0.75467711E-02 0.10406065E+00
        2 -1    0    0  502    0 0.00000000E+00 0.00000000E+00 0.23597444E+04 0.23597444E+04 0.32000000E+00 0.0000E+00 0.9000E+01
       -1 -1    0    0    0  501 0.00000000E+00 0.00000000E+00 -.96486822E+02 0.96487353E+02 0.32000000E+00 0.0000E+00 0.9000E+01
       25  1    1    2    0    0 -.34366985E+03 -.11234697E+03 0.10873525E+04 0.11526887E+04 0.12500000E+03 0.0000E+00 0.9000E+01
       24  1    1    2    0    0 0.32778256E+03 0.25880166E+02 0.40583218E+03 0.52846775E+03 0.80419002E+02 0.0000E+00 0.9000E+01
       21  1    1    2  502  501 0.15887289E+02 0.86466808E+02 0.77007284E+03 0.77507526E+03 0.75000000E+00 0.0000E+00 0.9000E+01
#aMCatNLO 1  0  0  2  1 0.89473977D+01 0.00000000D+00  -5  6  0 0.00000000D+00 0.00000000D+00 0.00000000D+00 0.00000000D+00 0.00000000D+00
  <mgrwgt>
 0.2498876910D+00    6    4    0
 0.477163402723524D+03 0.000000000000000D+00 0.000000000000000D+00 0.477163402723524D+03
 0.477163402723524D+03 0.000000000000000D+00 0.000000000000000D+00 -.477163402723524D+03
 0.388034692333433D+03 -.343669909525487D+03 -.112347321440478D+03 0.649229936632253D+02
 0.397701012505155D+03 0.327782491040528D+03 0.258798090641255D+02 -.208776802933960D+03
 0.168591100608460D+03 0.158874184849588D+02 0.864675123763524D+02 0.143853809270735D+03
 0.000000000000000D+00 0.000000000000000D+00 -.000000000000000D+00 0.000000000000000D+00
 0.482469739375839D+03 0.000000000000000D+00 0.000000000000000D+00 0.482469739375839D+03
 0.480971053044631D+03 0.000000000000000D+00 0.000000000000000D+00 -.480971053044631D+03
 0.387650673698506D+03 -.344382905334159D+03 -.108781727446820D+03 0.649229936632253D+02
 0.397353823644834D+03 0.327051691169005D+03 0.295344387278337D+02 -.208776802933960D+03
 0.169364250846047D+03 0.155767761038374D+02 0.880209922072726D+02 0.143853809270735D+03
 0.907204423108194D+01 0.175443806131672D+01 -.877370348828589D+01 0.149868633120818D+01
 0.477163402723524D+03 0.000000000000000D+00 0.000000000000000D+00 0.477163402723524D+03
 0.477163402723524D+03 0.000000000000000D+00 0.000000000000000D+00 -.477163402723524D+03
 0.388034692333433D+03 -.343669909525487D+03 -.112347321440478D+03 0.649229936632253D+02
 0.397701012505155D+03 0.327782491040528D+03 0.258798090641255D+02 -.208776802933960D+03
 0.000000000000000D+00 0.000000000000000D+00 -.000000000000000D+00 0.000000000000000D+00
 0.168591100608460D+03 0.158874184849588D+02 0.864675123763524D+02 0.143853809270735D+03
 0.482469739375839D+03 0.000000000000000D+00 0.000000000000000D+00 0.482469739375839D+03
 0.480971053044631D+03 0.000000000000000D+00 0.000000000000000D+00 -.480971053044631D+03
 0.387650673698506D+03 -.344382905334159D+03 -.108781727446820D+03 0.649229936632253D+02
 0.397353823644834D+03 0.327051691169005D+03 0.295344387278337D+02 -.208776802933960D+03
 0.907204423108194D+01 0.175443806131672D+01 -.877370348828589D+01 0.149868633120818D+01
 0.169364250846047D+03 0.155767761038374D+02 0.880209922072726D+02 0.143853809270735D+03
0.109303211236D-01 0.000000000000D+00 0.000000000000D+00 0.169540461678D-05 0.000000000000D+00  6 2 -1 25 24 21 21 2 0.36303764D+00 0.14844169D-01 0.16360978D+06 0.16360978D+06 0.16360978D+06 0.11444272D+01  1  2  2  2  6  2       -1 0.247800238138D+00 0.100000000000D+01
0.868271184227D-03 0.576808892624D-03 -.419753111344D-04 0.169540461678D-05 0.000000000000D+00  6 2 -1 25 24 21 21 4 0.36303764D+00 0.14844169D-01 0.16360978D+06 0.16360978D+06 0.16360978D+06 0.11444272D+01  1  2  3  2  6  2       -1 0.257810444777D-01 0.100000000000D+01
0.262886512799D-03 0.000000000000D+00 0.000000000000D+00 0.169540461678D-05 0.000000000000D+00  6 2 -1 25 24 21 21 4 0.36303764D+00 0.14844169D-01 0.16360978D+06 0.16360978D+06 0.16360978D+06 0.11444272D+01  1  2 15  2  6  2       -1 0.780572821278D-02 0.100000000000D+01
-.106568158462D-02 0.000000000000D+00 0.000000000000D+00 0.169540461678D-05 0.000000000000D+00  6 2 -1 25 24 21 21 4 0.36303764D+00 0.14844169D-01 0.16360978D+06 0.16360978D+06 0.16360978D+06 0.11444272D+01  1  2  4  2  6  2       -1 -.316426305874D-01 0.100000000000D+01
0.485431845646D-05 0.000000000000D+00 0.000000000000D+00 0.169540461678D-05 0.445373230579D-07  6 2 -1 25 24 21 21 4 0.36707483D+00 0.14962622D-01 0.16752555D+06 0.16752555D+06 0.16752555D+06 0.11435317D+01  1  2 11  2  6  2       -1 0.137108838133D-03 0.100000000000D+01
0.167483269720D-07 0.000000000000D+00 0.000000000000D+00 0.169275244487D-05 0.232859702404D-09  6 2 21 25 24 1 21 4 0.36707483D+00 0.14962622D-01 0.16752555D+06 0.16752555D+06 0.16752555D+06 0.11435317D+01  3  4 11  5  5  2       -1 0.620193774084D-05 0.100000000000D+01
  </mgrwgt>
  </event>
  <event>
  5     66 -.42622971E-03 0.26743428E+02 0.75467711E-02 0.12404181E+00
        2 -1    0    0  502    0 0.00000000E+00 0.00000000E+00 0.66913849E+03 0.66913856E+03 0.32000000E+00 0.0000E+00 0.9000E+01
       -1 -1    0    0    0  501 0.00000000E+00 0.00000000E+00 -.24789653E+02 0.24791718E+02 0.32000000E+00 0.0000E+00 0.9000E+01
       25  1    1    2    0    0 -.14711215E+02 -.25117866E+02 0.28503905E+03 0.31260133E+03 0.12500000E+03 0.0000E+00 0.9000E+01
       24  1    1    2    0    0 0.35322699E+02 0.80839450E+01 0.18468875E+03 0.20467094E+03 0.80419002E+02 0.0000E+00 0.9000E+01
       21  1    1    2  502  501 -.20611484E+02 0.17033921E+02 0.17462103E+03 0.17665801E+03 0.75000000E+00 0.0000E+00 0.9000E+01
#aMCatNLO 1  0  0  5  2 0.87740580D+00 0.00000000D+00  -5  6  0 0.00000000D+00 0.00000000D+00 0.00000000D+00 0.00000000D+00 0.00000000D+00
  <mgrwgt>
 -.1178558904D+01   25    2    0
 0.128796171974568D+03 0.000000000000000D+00 0.000000000000000D+00 0.128796171974568D+03
 0.128796171974568D+03 -.000000000000000D+00 -.000000000000000D+00 -.128796171974568D+03
 0.129115022492176D+03 -.147093141854746D+02 -.251194374056760D+02 -.140832870371416D+02
 0.893798555453521D+02 0.353240152961502D+02 0.808285728478961D+01 -.144368966335755D+02
 0.390974659116074D+02 -.206147011106756D+02 0.170365801208863D+02 0.285201836707171D+02
 0.000000000000000D+00 0.000000000000000D+00 0.000000000000000D+00 0.000000000000000D+00
 0.128796171974568D+03 0.000000000000000D+00 0.000000000000000D+00 0.128796171974568D+03
 0.128796171974568D+03 -.000000000000000D+00 -.000000000000000D+00 -.128796171974568D+03
 0.129112508720528D+03 -.147220364992411D+02 -.251089233207692D+02 -.140656858736134D+02
 0.893750665592828D+02 0.353152084265046D+02 0.809013553440026D+01 -.144247124384950D+02
 0.112324461038912D+02 -.608505751528749D+01 0.555283625637560D+01 0.763583197970881D+01
 0.278723225654339D+02 -.145081144119760D+02 0.114659515299933D+02 0.208545663323995D+02
0.262989662104D-04 0.000000000000D+00 0.000000000000D+00 0.376318605776D-04 0.000000000000D+00  6 2 -1 25 24 21 21 2 0.10294455D+00 0.38139575D-02 0.14798027D+05 0.14798027D+05 0.14798027D+05 0.12484943D+01  1  2  2  3  6  5       21 0.516310843482D-01 0.100000000000D+01
0.245114740641D-05 0.138783457552D-05 -.100994954925D-06 0.376318605776D-04 0.000000000000D+00  6 2 -1 25 24 21 21 4 0.10294455D+00 0.38139575D-02 0.14798027D+05 0.14798027D+05 0.14798027D+05 0.12484943D+01  1  2  3  3  6  5       21 0.750092982006D-02 0.100000000000D+01
0.690958227349D-06 0.000000000000D+00 0.000000000000D+00 0.376318605776D-04 0.000000000000D+00  6 2 -1 25 24 21 21 4 0.10294455D+00 0.38139575D-02 0.14798027D+05 0.14798027D+05 0.14798027D+05 0.12484943D+01  1  2 15  3  6  5       21 0.211445021967D-02 0.100000000000D+01
0.941484733561D-09 0.000000000000D+00 0.000000000000D+00 0.376322800905D-04 0.000000000000D+00  6 2 -1 25 24 21 21 4 0.10294455D+00 0.38139575D-02 0.14795951D+05 0.14795951D+05 0.14795951D+05 0.12485012D+01  1  2 12  3  6  5       21 0.288115384684D-05 0.100000000000D+01
0.943278927760D-09 0.000000000000D+00 0.000000000000D+00 0.376322800905D-04 0.000000000000D+00  6 2 -1 25 24 21 21 4 0.10294455D+00 0.38139575D-02 0.14795951D+05 0.14795951D+05 0.14795951D+05 0.12485012D+01  1  2 12  3  6  5       21 0.288664448235D-05 0.100000000000D+01
-.320109343190D-02 0.000000000000D+00 0.000000000000D+00 0.376318605776D-04 0.000000000000D+00  6 2 -1 25 24 21 21 4 0.10294455D+00 0.38139575D-02 0.14798027D+05 0.14798027D+05 0.14798027D+05 0.12484943D+01  1  2  4  3  6  5       21 -.979589277957D+01 0.100000000000D+01
-.642461159557D-03 0.000000000000D+00 0.000000000000D+00 0.376318605776D-04 0.000000000000D+00  6 2 -1 25 24 21 21 4 0.10294455D+00 0.38139575D-02 0.14798027D+05 0.14798027D+05 0.14798027D+05 0.12484943D+01  1  2  5  3  6  5       21 -.196604090694D+01 0.100000000000D+01
0.283573323754D-02 0.000000000000D+00 -.000000000000D+00 0.376318605776D-04 0.000000000000D+00  6 2 -1 25 24 21 21 4 0.10294455D+00 0.38139575D-02 0.14798027D+05 0.14798027D+05 0.14798027D+05 0.12484943D+01  1  2  6  3  6  5       21 0.867782816631D+01 0.100000000000D+01
0.616497685582D-03 0.000000000000D+00 0.000000000000D+00 0.376318605776D-04 0.287123193450D-03  6 2 -1 25 24 21 21 4 0.10294455D+00 0.38139575D-02 0.14795951D+05 0.14795951D+05 0.14795951D+05 0.12485012D+01  1  2 11  3  6  5       21 0.188662079699D+01 0.100000000000D+01
0.669954174703D-10 0.000000000000D+00 0.000000000000D+00 0.376322800905D-04 0.000000000000D+00  6 2 -1 25 24 1 -1 4 0.10294455D+00 0.38139575D-02 0.14795951D+05 0.14795951D+05 0.14795951D+05 0.12485012D+01  1  2 12  6  6  5       21 0.205020960919D-06 0.100000000000D+01
0.671331029293D-10 0.000000000000D+00 0.000000000000D+00 0.376322800905D-04 0.000000000000D+00  6 2 -1 25 24 1 -1 4 0.10294455D+00 0.38139575D-02 0.14795951D+05 0.14795951D+05 0.14795951D+05 0.12485012D+01  1  2 12  6  6  5       21 0.205442309216D-06 0.100000000000D+01
-.454077675100D-04 0.000000000000D+00 0.000000000000D+00 0.376318605776D-04 0.000000000000D+00  6 2 -1 25 24 1 -1 4 0.10294455D+00 0.38139575D-02 0.14798027D+05 0.14798027D+05 0.14798027D+05 0.12484943D+01  1  2  5  6  6  5       21 -.138955526088D+00 0.100000000000D+01
0.418709128165D-04 0.000000000000D+00 0.000000000000D+00 0.376318605776D-04 0.525041798328D-05  6 2 -1 25 24 1 -1 4 0.10294455D+00 0.38139575D-02 0.14795951D+05 0.14795951D+05 0.14795951D+05 0.12485012D+01  1  2 11  6  6  5       21 0.128134357607D+00 0.100000000000D+01
0.669954174703D-10 0.000000000000D+00 0.000000000000D+00 0.376322800905D-04 0.000000000000D+00  6 2 -1 25 24 2 -2 4 0.10294455D+00 0.38139575D-02 0.14795951D+05 0.14795951D+05 0.14795951D+05 0.12485012D+01  1  2 12  7  6  5       21 0.205020960919D-06 0.100000000000D+01
0.671331029293D-10 0.000000000000D+00 0.000000000000D+00 0.376322800905D-04 0.000000000000D+00  6 2 -1 25 24 2 -2 4 0.10294455D+00 0.38139575D-02 0.14795951D+05 0.14795951D+05 0.14795951D+05 0.12485012D+01  1  2 12  7  6  5       21 0.205442309216D-06 0.100000000000D+01
-.454077675100D-04 0.000000000000D+00 0.000000000000D+00 0.376318605776D-04 0.000000000000D+00  6 2 -1 25 24 2 -2 4 0.10294455D+00 0.38139575D-02 0.14798027D+05 0.14798027D+05 0.14798027D+05 0.12484943D+01  1  2  5  7  6  5       21 -.138955526088D+00 0.100000000000D+01
0.421479863307D-04 0.000000000000D+00 0.000000000000D+00 0.376318605776D-04 0.528650198719D-05  6 2 -1 25 24 2 -2 4 0.10294455D+00 0.38139575D-02 0.14795951D+05 0.14795951D+05 0.14795951D+05 0.12485012D+01  1  2 11  7  6  5       21 0.128982264528D+00 0.100000000000D+01
0.669954174703D-10 0.000000000000D+00 0.000000000000D+00 0.376322800905D-04 0.000000000000D+00  6 2 -1 25 24 3 -3 4 0.10294455D+00 0.38139575D-02 0.14795951D+05 0.14795951D+05 0.14795951D+05 0.12485012D+01  1  2 12  8  6  5       21 0.205020960919D-06 0.100000000000D+01
0.669954174703D-10 0.000000000000D+00 0.000000000000D+00 0.376322800905D-04 0.000000000000D+00  6 2 -1 25 24 4 -4 4 0.10294455D+00 0.38139575D-02 0.14795951D+05 0.14795951D+05 0.14795951D+05 0.12485012D+01  1  2 12  8  6  5       21 0.205020960919D-06 0.100000000000D+01
0.671331029293D-10 0.000000000000D+00 0.000000000000D+00 0.376322800905D-04 0.000000000000D+00  6 2 -1 25 24 3 -3 4 0.10294455D+00 0.38139575D-02 0.14795951D+05 0.14795951D+05 0.14795951D+05 0.12485012D+01  1  2 12  8  6  5       21 0.205442309216D-06 0.100000000000D+01
0.671331029293D-10 0.000000000000D+00 0.000000000000D+00 0.376322800905D-04 0.000000000000D+00  6 2 -1 25 24 4 -4 4 0.10294455D+00 0.38139575D-02 0.14795951D+05 0.14795951D+05 0.14795951D+05 0.12485012D+01  1  2 12  8  6  5       21 0.205442309216D-06 0.100000000000D+01
-.454077675100D-04 0.000000000000D+00 0.000000000000D+00 0.376318605776D-04 0.000000000000D+00  6 2 -1 25 24 3 -3 4 0.10294455D+00 0.38139575D-02 0.14798027D+05 0.14798027D+05 0.14798027D+05 0.12484943D+01  1  2  5  8  6  5       21 -.138955526088D+00 0.100000000000D+01
-.454077675100D-04 0.000000000000D+00 0.000000000000D+00 0.376318605776D-04 0.000000000000D+00  6 2 -1 25 24 4 -4 4 0.10294455D+00 0.38139575D-02 0.14798027D+05 0.14798027D+05 0.14798027D+05 0.12484943D+01  1  2  5  8  6  5       21 -.138955526088D+00 0.100000000000D+01
0.418886749639D-04 0.000000000000D+00 0.000000000000D+00 0.376318605776D-04 0.525261801580D-05  6 2 -1 25 24 3 -3 4 0.10294455D+00 0.38139575D-02 0.14795951D+05 0.14795951D+05 0.14795951D+05 0.12485012D+01  1  2 11  8  6  5       21 0.128188713751D+00 0.100000000000D+01
0.418886749639D-04 0.000000000000D+00 0.000000000000D+00 0.376318605776D-04 0.525261801580D-05  6 2 -1 25 24 4 -4 4 0.10294455D+00 0.38139575D-02 0.14795951D+05 0.14795951D+05 0.14795951D+05 0.12485012D+01  1  2 11  8  6  5       21 0.128188713751D+00 0.100000000000D+01
  </mgrwgt>
  </event>
  <event>
  5     66 0.42622971E-03 0.31742517E+02 0.75467711E-02 0.12288610E+00
        2 -1    0    0  502    0 0.00000000E+00 0.00000000E+00 0.12287136E+04 0.12287137E+04 0.32000000E+00 0.0000E+00 0.9000E+01
       -1 -1    0    0    0  501 0.00000000E+00 0.00000000E+00 -.26945181E+02 0.26947081E+02 0.32000000E+00 0.0000E+00 0.9000E+01
       25  1    1    2    0    0 -.48940722E+02 -.16866685E+01 0.17241354E+03 0.21851651E+03 0.12500000E+03 0.0000E+00 0.9000E+01
       24  1    1    2    0    0 0.35002049E+02 0.30198448E+02 0.84499988E+03 0.85007594E+03 0.80419002E+02 0.0000E+00 0.9000E+01
       21  1    1    2  502  501 0.13938673E+02 -.28511780E+02 0.18435501E+03 0.18706828E+03 0.75000000E+00 0.0000E+00 0.9000E+01
#aMCatNLO 1  0  0  5  1 0.44530800D+01 0.00000000D+00  -5  6  0 0.00000000D+00 0.00000000D+00 0.00000000D+00 0.00000000D+00 0.00000000D+00
  <mgrwgt>
 0.2290120365D+00   25    2    0
 0.181959143880347D+03 0.000000000000000D+00 0.000000000000000D+00 0.181959143880347D+03
 0.181959143880347D+03 -.000000000000000D+00 -.000000000000000D+00 -.181959143880347D+03
 0.184607596336317D+03 -.489422018621562D+02 -.168364125012655D+01 -.126715393122135D+03
 0.142648674321328D+03 0.350009049837877D+02 0.302007873388179D+02 0.108371017461741D+03
 0.366620171030488D+02 0.139412968783685D+02 -.285171460886914D+02 0.183443756603943D+02
 0.000000000000000D+00 0.000000000000000D+00 0.000000000000000D+00 0.000000000000000D+00
 0.181959143880347D+03 0.000000000000000D+00 0.000000000000000D+00 0.181959143880347D+03
 0.181959143880347D+03 -.000000000000000D+00 -.000000000000000D+00 -.181959143880347D+03
 0.183987422549936D+03 -.483988524823134D+02 -.279507111044447D+01 -.126000437747062D+03
 0.142994436998561D+03 0.354219741774544D+02 0.293394835581149D+02 0.108925072908306D+03
 0.317165418309887D+02 0.147230470007830D+02 -.252406308285036D+02 0.123321315314421D+02
 0.521988638120756D+01 -.174616869592397D+01 -.130378161916689D+01 0.474323330731410D+01
0.854772355367D-04 0.000000000000D+00 0.000000000000D+00 0.101758395612D-04 0.000000000000D+00  6 2 -1 25 24 21 21 2 0.18903301D+00 0.41455619D-02 0.16738234D+05 0.16738234D+05 0.16738234D+05 0.12424303D+01  1  2  2  3  6  5       21 0.660214653700D-01 0.100000000000D+01
0.588784581876D-05 0.451075764534D-05 -.328255091134D-06 0.101758395612D-04 0.000000000000D+00  6 2 -1 25 24 21 21 4 0.18903301D+00 0.41455619D-02 0.16738234D+05 0.16738234D+05 0.16738234D+05 0.12424303D+01  1  2  3  3  6  5       21 0.701996844809D-02 0.100000000000D+01
0.137111713196D-05 0.000000000000D+00 0.000000000000D+00 0.101758395612D-04 0.000000000000D+00  6 2 -1 25 24 21 21 4 0.18903301D+00 0.41455619D-02 0.16738234D+05 0.16738234D+05 0.16738234D+05 0.12424303D+01  1  2 15  3  6  5       21 0.163475731214D-02 0.100000000000D+01
0.519295050804D-05 0.000000000000D+00 0.000000000000D+00 0.101797901792D-04 0.000000000000D+00  6 2 -1 25 24 21 21 4 0.18903301D+00 0.41455619D-02 0.16655834D+05 0.16655834D+05 0.16655834D+05 0.12426714D+01  1  2 12  3  6  5       21 0.619578250026D-02 0.100000000000D+01
0.569053657110D-05 0.000000000000D+00 0.000000000000D+00 0.101797901792D-04 0.000000000000D+00  6 2 -1 25 24 21 21 4 0.18903301D+00 0.41455619D-02 0.16655834D+05 0.16655834D+05 0.16655834D+05 0.12426714D+01  1  2 12  3  6  5       21 0.678945945079D-02 0.100000000000D+01
-.348366594549D-03 0.000000000000D+00 0.000000000000D+00 0.101758395612D-04 0.000000000000D+00  6 2 -1 25 24 21 21 4 0.18903301D+00 0.41455619D-02 0.16738234D+05 0.16738234D+05 0.16738234D+05 0.12424303D+01  1  2  4  3  6  5       21 -.415350975107D+00 0.100000000000D+01
-.300122555114D-03 0.000000000000D+00 0.000000000000D+00 0.101758395612D-04 0.000000000000D+00  6 2 -1 25 24 21 21 4 0.18903301D+00 0.41455619D-02 0.16738234D+05 0.16738234D+05 0.16738234D+05 0.12424303D+01  1  2  5  3  6  5       21 -.357830509207D+00 0.100000000000D+01
0.382948821991D-03 0.000000000000D+00 -.000000000000D+00 0.101758395612D-04 0.000000000000D+00  6 2 -1 25 24 21 21 4 0.18903301D+00 0.41455619D-02 0.16738234D+05 0.16738234D+05 0.16738234D+05 0.12424303D+01  1  2  6  3  6  5       21 0.456582718088D+00 0.100000000000D+01
0.380593469775D-03 0.000000000000D+00 0.000000000000D+00 0.101758395612D-04 0.107182934653D-04  6 2 -1 25 24 21 21 4 0.18903301D+00 0.41455619D-02 0.16655834D+05 0.16655834D+05 0.16655834D+05 0.12426714D+01  1  2 11  3  6  5       21 0.454091437246D+00 0.100000000000D+01
0.339507165311D-06 0.000000000000D+00 0.000000000000D+00 0.101797901792D-04 0.000000000000D+00  6 2 -1 25 24 1 -1 4 0.18903301D+00 0.41455619D-02 0.16655834D+05 0.16655834D+05 0.16655834D+05 0.12426714D+01  1  2 12  6  6  5       21 0.405070787848D-03 0.100000000000D+01
0.351980386994D-06 0.000000000000D+00 0.000000000000D+00 0.101797901792D-04 0.000000000000D+00  6 2 -1 25 24 1 -1 4 0.18903301D+00 0.41455619D-02 0.16655834D+05 0.16655834D+05 0.16655834D+05 0.12426714D+01  1  2 12  6  6  5       21 0.419952764579D-03 0.100000000000D+01
-.258404225223D-05 0.000000000000D+00 0.000000000000D+00 0.101758395612D-04 0.000000000000D+00  6 2 -1 25 24 1 -1 4 0.18903301D+00 0.41455619D-02 0.16738234D+05 0.16738234D+05 0.16738234D+05 0.12424303D+01  1  2  5  6  6  5       21 -.308090524744D-02 0.100000000000D+01
0.271338618154D-05 0.000000000000D+00 0.000000000000D+00 0.101758395612D-04 0.670566755232D-07  6 2 -1 25 24 1 -1 4 0.18903301D+00 0.41455619D-02 0.16655834D+05 0.16655834D+05 0.16655834D+05 0.12426714D+01  1  2 11  6  6  5       21 0.323737932684D-02 0.100000000000D+01
0.339507165311D-06 0.000000000000D+00 0.000000000000D+00 0.101797901792D-04 0.000000000000D+00  6 2 -1 25 24 2 -2 4 0.18903301D+00 0.41455619D-02 0.16655834D+05 0.16655834D+05 0.16655834D+05 0.12426714D+01  1  2 12  7  6  5       21 0.405070787848D-03 0.100000000000D+01
0.351980386994D-06 0.000000000000D+00 0.000000000000D+00 0.101797901792D-04 0.000000000000D+00  6 2 -1 25 24 2 -2 4 0.18903301D+00 0.41455619D-02 0.16655834D+05 0.16655834D+05 0.16655834D+05 0.12426714D+01  1  2 12  7  6  5       21 0.419952764579D-03 0.100000000000D+01
-.258404225223D-05 0.000000000000D+00 0.000000000000D+00 0.101758395612D-04 0.000000000000D+00  6 2 -1 25 24 2 -2 4 0.18903301D+00 0.41455619D-02 0.16738234D+05 0.16738234D+05 0.16738234D+05 0.12424303D+01  1  2  5  7  6  5       21 -.308090524744D-02 0.100000000000D+01
0.269136229385D-05 0.000000000000D+00 0.000000000000D+00 0.101758395612D-04 0.659762690639D-07  6 2 -1 25 24 2 -2 4 0.18903301D+00 0.41455619D-02 0.16655834D+05 0.16655834D+05 0.16655834D+05 0.12426714D+01  1  2 11  7  6  5       21 0.321110231579D-02 0.100000000000D+01
0.339507165311D-06 0.000000000000D+00 0.000000000000D+00 0.101797901792D-04 0.000000000000D+00  6 2 -1 25 24 3 -3 4 0.18903301D+00 0.41455619D-02 0.16655834D+05 0.16655834D+05 0.16655834D+05 0.12426714D+01  1  2 12  8  6  5       21 0.405070787848D-03 0.100000000000D+01
0.339507165311D-06 0.000000000000D+00 0.000000000000D+00 0.101797901792D-04 0.000000000000D+00  6 2 -1 25 24 4 -4 4 0.18903301D+00 0.41455619D-02 0.16655834D+05 0.16655834D+05 0.16655834D+05 0.12426714D+01  1  2 12  8  6  5       21 0.405070787848D-03 0.100000000000D+01
0.351980386994D-06 0.000000000000D+00 0.000000000000D+00 0.101797901792D-04 0.000000000000D+00  6 2 -1 25 24 3 -3 4 0.18903301D+00 0.41455619D-02 0.16655834D+05 0.16655834D+05 0.16655834D+05 0.12426714D+01  1  2 12  8  6  5       21 0.419952764579D-03 0.100000000000D+01
0.351980386994D-06 0.000000000000D+00 0.000000000000D+00 0.101797901792D-04 0.000000000000D+00  6 2 -1 25 24 4 -4 4 0.18903301D+00 0.41455619D-02 0.16655834D+05 0.16655834D+05 0.16655834D+05 0.12426714D+01  1  2 12  8  6  5       21 0.419952764579D-03 0.100000000000D+01
-.258404225223D-05 0.000000000000D+00 0.000000000000D+00 0.101758395612D-04 0.000000000000D+00  6 2 -1 25 24 3 -3 4 0.18903301D+00 0.41455619D-02 0.16738234D+05 0.16738234D+05 0.16738234D+05 0.12424303D+01  1  2  5  8  6  5       21 -.308090524744D-02 0.100000000000D+01
-.258404225223D-05 0.000000000000D+00 0.000000000000D+00 0.101758395612D-04 0.000000000000D+00  6 2 -1 25 24 4 -4 4 0.18903301D+00 0.41455619D-02 0.16738234D+05 0.16738234D+05 0.16738234D+05 0.12424303D+01  1  2  5  8  6  5       21 -.308090524744D-02 0.100000000000D+01
0.269587692944D-05 0.000000000000D+00 0.000000000000D+00 0.101758395612D-04 0.657735980266D-07  6 2 -1 25 24 3 -3 4 0.18903301D+00 0.41455619D-02 0.16655834D+05 0.16655834D+05 0.16655834D+05 0.12426714D+01  1  2 11  8  6  5       21 0.321648879119D-02 0.100000000000D+01
0.269587692944D-05 0.000000000000D+00 0.000000000000D+00 0.101758395612D-04 0.657735980266D-07  6 2 -1 25 24 4 -4 4 0.18903301D+00 0.41455619D-02 0.16655834D+05 0.16655834D+05 0.16655834D+05 0.12426714D+01  1  2 11  8  6  5       21 0.321648879119D-02 0.100000000000D+01
  </mgrwgt>
  </event>
  <event>
  6     66 0.42622971E-03 0.48394609E+02 0.75467711E-02 0.12123065E+00
        4 -1    0    0  503    0 0.00000000E+00 0.00000000E+00 0.40348065E+03 0.40348362E+03 0.15500000E+01 0.0000E+00 0.9000E+01
       -3 -1    0    0    0  501 0.00000000E+00 0.00000000E+00 -.71005735E+02 0.71007495E+02 0.50000000E+00 0.0000E+00 0.9000E+01
       25  1    1    2    0    0 -.49382706E+02 -.46204300E+02 0.75840113E+02 0.16109069E+03 0.12500000E+03 0.0000E+00 0.9000E+01
       24  1    1    2    0    0 0.20584503E+02 0.54258302E+01 0.50021986E+02 0.97069956E+02 0.80419002E+02 0.0000E+00 0.9000E+01
       21  1    1    2  502  501 0.36858920E+01 -.36116749E+01 0.22168169E+01 0.56662839E+01 0.75000000E+00 0.0000E+00 0.9000E+01
       21  1    1    2  503  502 0.25112310E+02 0.44390144E+02 0.20439600E+03 0.21066418E+03 0.75000000E+00 0.0000E+00 0.9000E+01
#aMCatNLO 2  0  0  1  2 0.27242903D+02 0.00000000D+00  -5  6  0 0.00000000D+00 0.00000000D+00 0.00000000D+00 0.00000000D+00 0.00000000D+00
  <mgrwgt>
 0.1283450113D-02    1    2    0
 0.248322801642141D+03 0.000000000000000D+00 0.000000000000000D+00 0.248322801642141D+03
 0.112471473633709D+03 0.000000000000000D+00 0.000000000000000D+00 -.112471473633709D+03
 0.131128583257748D+03 -.343475233679951D+02 -.195617814986892D+02 -.269994264136441D+01
 0.887333065583433D+02 0.300460529757714D+02 0.221949051440677D+02 0.331732190620107D+01
 0.508105745132627D+01 0.430147039222368D+01 -.263312364537845D+01 -.617379264836652D+00
 0.135851328008432D+03 0.000000000000000D+00 0.000000000000000D+00 0.135851328008432D+03
 0.237463746843438D+03 0.000000000000000D+00 0.000000000000000D+00 0.237463746843438D+03
 0.120650248595972D+03 0.000000000000000D+00 0.000000000000000D+00 -.120650248595972D+03
 0.142151572442718D+03 -.494106687328674D+02 -.461883716214520D+02 -.269994264136441D+01
 0.832512099115220D+02 0.205663021850394D+02 0.543788443845899D+01 0.331732190620107D+01
 0.524942893314323D+01 0.373205613051030D+01 -.363965712755907D+01 -.617379264836652D+00
 0.127461784152028D+03 0.251123104173177D+02 0.443901443105521D+02 0.116813498247466D+03
0.178139625691D-04 0.000000000000D+00 0.000000000000D+00 0.901173838873D-03 0.167198338993D-05  6 4 -3 25 24 21 21 4 0.62073764D-01 0.10924228D-01 0.19814099D+05 0.19814099D+05 0.19814099D+05 0.12342728D+01  1  2  1  1  6  1        4 0.128345011290D-02 0.100000000000D+01
  </mgrwgt>
  </event>
  <event>
  6     66 -.42622971E-03 0.13618551E+02 0.75467711E-02 0.12226707E+00
        2 -1    0    0  502    0 0.00000000E+00 0.00000000E+00 0.24327600E+04 0.24327600E+04 0.32000000E+00 0.0000E+00 0.9000E+01
       -1 -1    0    0    0  501 0.00000000E+00 0.00000000E+00 -.14155965E+02 0.14159581E+02 0.32000000E+00 0.0000E+00 0.9000E+01
       25  1    1    2    0    0 0.52473563E+02 -.14070260E+02 0.16915189E+04 0.16970010E+04 0.12500000E+03 0.0000E+00 0.9000E+01
       24  1    1    2    0    0 -.72987716E+02 0.10626149E+02 0.70600453E+03 0.71438766E+03 0.80419002E+02 0.0000E+00 0.9000E+01
       21  1    1    2  503  501 0.14953333E+02 0.98831158E+01 0.74066455E+01 0.19408736E+02 0.75000000E+00 0.0000E+00 0.9000E+01
       21  1    1    2  502  503 0.55608198E+01 -.64390047E+01 0.13673976E+02 0.16122147E+02 0.75000000E+00 0.0000E+00 0.9000E+01
#aMCatNLO 2  0  0  5  1 0.74176539D+01 0.00000000D+00  -5  6  0 0.00000000D+00 0.00000000D+00 0.00000000D+00 0.00000000D+00 0.00000000D+00
  <mgrwgt>
 -.5335594522D+00    2    2    0
 0.185586946492463D+03 0.000000000000000D+00 0.000000000000000D+00 0.185586946492463D+03
 0.185586946492463D+03 -.000000000000000D+00 -.000000000000000D+00 -.185586946492463D+03
 0.165618610808489D+03 0.522793489121487D+02 -.141028668093915D+02 0.941939651528277D+02
 0.109204597506864D+03 -.731158979480995D+02 0.106046288198225D+02 -.188353663212737D+00
 0.963506846695740D+02 0.208365490359509D+02 0.349823798956901D+01 -.940056114896150D+02
 0.000000000000000D+00 0.000000000000000D+00 0.000000000000000D+00 0.000000000000000D+00
 0.185586946492463D+03 0.000000000000000D+00 0.000000000000000D+00 0.185586946492463D+03
 0.185586946492463D+03 -.000000000000000D+00 -.000000000000000D+00 -.185586946492463D+03
 0.165179705237729D+03 0.524739879880149D+02 -.140701889504872D+02 0.933158367585812D+02
 0.109123267262189D+03 -.729874355836522D+02 0.106261963031310D+02 -.767920994752965D+00
 0.795405269481804D+02 0.148989245127672D+02 0.994691061398580D+01 -.774969447449024D+02
 0.173303935368284D+02 0.561452308287016D+01 -.650291796662960D+01 -.150509710189259D+02
-.747103449083D-03 0.000000000000D+00 0.000000000000D+00 0.570316770327D-04 0.000000000000D+00  6 2 -1 25 24 21 21 4 0.37427105D+00 0.21781205D-02 0.18485352D+05 0.18485352D+05 0.18485352D+05 0.12376093D+01  1  2 13  3  6  5       21 -.530906735073D+00 0.100000000000D+01
-.370925671165D-05 0.000000000000D+00 0.000000000000D+00 0.572095321590D-04 0.000000000000D+00  6 2 -1 25 24 21 21 4 0.37427105D+00 0.21781205D-02 0.17763127D+05 0.17763127D+05 0.17763127D+05 0.12395375D+01  1  2  8  3  6  5       21 -.265271711194D-02 0.100000000000D+01
  </mgrwgt>
  </event>
  <event>
  6     66 0.42622971E-03 0.15580227E+03 0.75467711E-02 0.10733524E+00
        2 -1    0    0  502    0 0.00000000E+00 0.00000000E+00 0.10342635E+04 0.10342635E+04 0.32000000E+00 0.0000E+00 0.9000E+01
       21 -1    0    0  503  501 0.00000000E+00 0.00000000E+00 -.19071788E+03 0.19071936E+03 0.75000000E+00 0.0000E+00 0.9000E+01
       25  1    1    2    0    0 0.51758459E+02 -.14301845E+01 0.31224093E+03 0.34029455E+03 0.12500000E+03 0.0000E+00 0.9000E+01
       24  1    1    2    0    0 0.80891457E+02 0.46336066E+02 -.33083722E+02 0.12748415E+03 0.80419002E+02 0.0000E+00 0.9000E+01
        1  1    1    2  503    0 0.84835287E+02 -.13239341E+03 0.48476142E+03 0.50962611E+03 0.32000000E+00 0.0000E+00 0.9000E+01
       21  1    1    2  502  501 -.21748520E+03 0.87487528E+02 0.79626958E+02 0.24757806E+03 0.75000000E+00 0.0000E+00 0.9000E+01
#aMCatNLO 2  0  0  2  5 0.15724198D+03 0.00000000D+00  -5  6  0 0.00000000D+00 0.00000000D+00 0.00000000D+00 0.00000000D+00 0.00000000D+00
  <mgrwgt>
 0.8043174787D-02    1    2    0
 0.299284217235326D+03 0.000000000000000D+00 0.000000000000000D+00 0.299284217235326D+03
 0.299284217235326D+03 0.000000000000000D+00 0.000000000000000D+00 -.299284217235326D+03
 0.227184349251368D+03 0.823854789093263D+02 -.492258310623427D+02 0.163637339766540D+03
 0.173404595015507D+03 0.104580052879495D+03 0.936831802016212D+01 -.112148048468604D+03
 0.000000000000000D+00 0.000000000000000D+00 -.000000000000000D+00 0.000000000000000D+00
 0.197979490203779D+03 -.186965531788822D+03 0.398575130421806D+02 -.514892912979355D+02
 0.595901869006096D+03 0.000000000000000D+00 0.000000000000000D+00 0.595901869006096D+03
 0.331016542232874D+03 0.000000000000000D+00 0.000000000000000D+00 -.331016542232874D+03
 0.212328075124167D+03 0.517589310902269D+02 -.143023510693555D+01 0.163637339766540D+03
 0.166538027232252D+03 0.808918283866074D+02 0.463360106719922D+02 -.112148048468604D+03
 0.308041031316649D+03 0.848352865215255D+02 -.132393409185197D+03 0.264885326773221D+03
 0.240011277565902D+03 -.217486045998360D+03 0.874876336201404D+02 -.514892912979355D+02
0.130692225589D-04 0.000000000000D+00 0.000000000000D+00 0.342594781398D-06 0.127175812706D-10  6 2 21 25 24 1 21 4 0.15911754D+00 0.29341323D-01 0.10565157D+06 0.10565157D+06 0.10565157D+06 0.11613847D+01  1  2  1  5  5  2       -1 0.804317478693D-02 0.100000000000D+01
  </mgrwgt>
  </event>
  <event>
  5     66 0.42622971E-03 0.25760513E+02 0.75467711E-02 0.11880854E+00
        2 -1    0    0  502    0 0.00000000E+00 0.00000000E+00 0.36928379E+03 0.36928393E+03 0.32000000E+00 0.0000E+00 0.9000E+01
       -1 -1    0    0    0  501 0.00000000E+00 0.00000000E+00 -.73891300E+02 0.73891993E+02 0.32000000E+00 0.0000E+00 0.9000E+01
       25  1    1    2    0    0 -.59959652E+02 -.80545810E+02 0.11504265E+03 0.19733879E+03 0.12500000E+03 0.0000E+00 0.9000E+01
       24  1    1    2    0    0 0.84462093E+02 0.60527954E+02 0.16421648E+03 0.21031345E+03 0.80419002E+02 0.0000E+00 0.9000E+01
       21  1    1    2  502  501 -.24502441E+02 0.20017856E+02 0.16133365E+02 0.35523684E+02 0.75000000E+00 0.0000E+00 0.9000E+01
#aMCatNLO 1  0  0  5  2 0.43741973D+01 0.00000000D+00  -5  6  0 0.00000000D+00 0.00000000D+00 0.00000000D+00 0.00000000D+00 0.00000000D+00
  <mgrwgt>
 0.3120998145D+00   25    2    0
 0.165187903430415D+03 0.000000000000000D+00 0.000000000000000D+00 0.165187903430415D+03
 0.165187903430415D+03 -.000000000000000D+00 -.000000000000000D+00 -.165187903430415D+03
 0.161855209636536D+03 -.599565929495317D+02 -.805483092194052D+02 -.221198040286590D+02
 0.135293935266636D+03 0.844646500667931D+02 0.605258651734212D+02 0.322424487231522D+02
 0.332266619576578D+02 -.245080571172615D+02 0.200224440459840D+02 -.101226446944932D+02
 0.000000000000000D+00 0.000000000000000D+00 0.000000000000000D+00 0.000000000000000D+00
 0.165187903430415D+03 0.000000000000000D+00 0.000000000000000D+00 0.165187903430415D+03
 0.165187903430415D+03 -.000000000000000D+00 -.000000000000000D+00 -.165187903430415D+03
 0.161896009795400D+03 -.613908029239942D+02 -.793765970422027D+02 -.227121805650494D+02
 0.134875445433527D+03 0.832678063258663D+02 0.615036553229968D+02 0.317481123550646D+02
 0.291503568927856D+02 -.220689344386165D+02 0.146788315390972D+02 -.121341396220592D+02
 0.445399473911668D+01 0.191931036744466D+00 0.319411018010877D+01 0.309820783204400D+01
0.180079198566D-03 0.000000000000D+00 0.000000000000D+00 0.189329398048D-04 0.000000000000D+00  6 2 -1 25 24 21 21 2 0.56812955D-01 0.11367956D-01 0.26143595D+05 0.26143595D+05 0.26143595D+05 0.12212205D+01  1  2  2  3  6  5       21 0.129132715154D+00 0.100000000000D+01
0.281241929029D-04 0.950304038963D-05 -.691551538436D-06 0.189329398048D-04 0.000000000000D+00  6 2 -1 25 24 21 21 4 0.56812955D-01 0.11367956D-01 0.26143595D+05 0.26143595D+05 0.26143595D+05 0.12212205D+01  1  2  3  3  6  5       21 0.300774459264D-01 0.100000000000D+01
0.755766307625D-05 0.000000000000D+00 0.000000000000D+00 0.189329398048D-04 0.000000000000D+00  6 2 -1 25 24 21 21 4 0.56812955D-01 0.11367956D-01 0.26143595D+05 0.26143595D+05 0.26143595D+05 0.12212205D+01  1  2 15  3  6  5       21 0.808255025452D-02 0.100000000000D+01
0.781341061676D-05 0.000000000000D+00 0.000000000000D+00 0.189534136867D-04 0.000000000000D+00  6 2 -1 25 24 21 21 4 0.56812955D-01 0.11367956D-01 0.25773942D+05 0.25773942D+05 0.25773942D+05 0.12218806D+01  1  2 12  3  6  5       21 0.837133993511D-02 0.100000000000D+01
0.714317556709D-05 0.000000000000D+00 0.000000000000D+00 0.189534136867D-04 0.000000000000D+00  6 2 -1 25 24 21 21 4 0.56812955D-01 0.11367956D-01 0.25773942D+05 0.25773942D+05 0.25773942D+05 0.12218806D+01  1  2 12  3  6  5       21 0.765324565946D-02 0.100000000000D+01
-.687063962942D-03 0.000000000000D+00 0.000000000000D+00 0.189329398048D-04 0.000000000000D+00  6 2 -1 25 24 21 21 4 0.56812955D-01 0.11367956D-01 0.26143595D+05 0.26143595D+05 0.26143595D+05 0.12212205D+01  1  2  4  3  6  5       21 -.734781234956D+00 0.100000000000D+01
-.423128887885D-03 0.000000000000D+00 0.000000000000D+00 0.189329398048D-04 0.000000000000D+00  6 2 -1 25 24 21 21 4 0.56812955D-01 0.11367956D-01 0.26143595D+05 0.26143595D+05 0.26143595D+05 0.12212205D+01  1  2  5  3  6  5       21 -.452515607797D+00 0.100000000000D+01
0.534331879836D-03 0.000000000000D+00 -.000000000000D+00 0.189329398048D-04 0.000000000000D+00  6 2 -1 25 24 21 21 4 0.56812955D-01 0.11367956D-01 0.26143595D+05 0.26143595D+05 0.26143595D+05 0.12212205D+01  1  2  6  3  6  5       21 0.571441757563D+00 0.100000000000D+01
0.694014734558D-03 0.000000000000D+00 0.000000000000D+00 0.189329398048D-04 0.133170108398D-04  6 2 -1 25 24 21 21 4 0.56812955D-01 0.11367956D-01 0.25773942D+05 0.25773942D+05 0.25773942D+05 0.12218806D+01  1  2 11  3  6  5       21 0.743571987692D+00 0.100000000000D+01
0.454447557725D-06 0.000000000000D+00 0.000000000000D+00 0.189534136867D-04 0.000000000000D+00  6 2 -1 25 24 1 -1 4 0.56812955D-01 0.11367956D-01 0.25773942D+05 0.25773942D+05 0.25773942D+05 0.12218806D+01  1  2 12  6  6  5       21 0.486898126182D-03 0.100000000000D+01
0.441527419310D-06 0.000000000000D+00 0.000000000000D+00 0.189534136867D-04 0.000000000000D+00  6 2 -1 25 24 1 -1 4 0.56812955D-01 0.11367956D-01 0.25773942D+05 0.25773942D+05 0.25773942D+05 0.12218806D+01  1  2 12  6  6  5       21 0.473055404228D-03 0.100000000000D+01
-.369220915350D-05 0.000000000000D+00 0.000000000000D+00 0.189329398048D-04 0.000000000000D+00  6 2 -1 25 24 1 -1 4 0.56812955D-01 0.11367956D-01 0.26143595D+05 0.26143595D+05 0.26143595D+05 0.12212205D+01  1  2  5  6  6  5       21 -.394863673231D-02 0.100000000000D+01
0.305855763331D-05 0.000000000000D+00 0.000000000000D+00 0.189329398048D-04 0.813157213656D-07  6 2 -1 25 24 1 -1 4 0.56812955D-01 0.11367956D-01 0.25773942D+05 0.25773942D+05 0.25773942D+05 0.12218806D+01  1  2 11  6  6  5       21 0.327695892555D-02 0.100000000000D+01
0.454447557725D-06 0.000000000000D+00 0.000000000000D+00 0.189534136867D-04 0.000000000000D+00  6 2 -1 25 24 2 -2 4 0.56812955D-01 0.11367956D-01 0.25773942D+05 0.25773942D+05 0.25773942D+05 0.12218806D+01  1  2 12  7  6  5       21 0.486898126182D-03 0.100000000000D+01
0.441527419310D-06 0.000000000000D+00 0.000000000000D+00 0.189534136867D-04 0.000000000000D+00  6 2 -1 25 24 2 -2 4 0.56812955D-01 0.11367956D-01 0.25773942D+05 0.25773942D+05 0.25773942D+05 0.12218806D+01  1  2 12  7  6  5       21 0.473055404228D-03 0.100000000000D+01
-.369220915350D-05 0.000000000000D+00 0.000000000000D+00 0.189329398048D-04 0.000000000000D+00  6 2 -1 25 24 2 -2 4 0.56812955D-01 0.11367956D-01 0.26143595D+05 0.26143595D+05 0.26143595D+05 0.12212205D+01  1  2  5  7  6  5       21 -.394863673231D-02 0.100000000000D+01
0.302660543143D-05 0.000000000000D+00 0.000000000000D+00 0.189329398048D-04 0.781919528635D-07  6 2 -1 25 24 2 -2 4 0.56812955D-01 0.11367956D-01 0.25773942D+05 0.25773942D+05 0.25773942D+05 0.12218806D+01  1  2 11  7  6  5       21 0.324272512462D-02 0.100000000000D+01
0.454447557725D-06 0.000000000000D+00 0.000000000000D+00 0.189534136867D-04 0.000000000000D+00  6 2 -1 25 24 3 -3 4 0.56812955D-01 0.11367956D-01 0.25773942D+05 0.25773942D+05 0.25773942D+05 0.12218806D+01  1  2 12  8  6  5       21 0.486898126182D-03 0.100000000000D+01
0.454447557725D-06 0.000000000000D+00 0.000000000000D+00 0.189534136867D-04 0.000000000000D+00  6 2 -1 25 24 4 -4 4 0.56812955D-01 0.11367956D-01 0.25773942D+05 0.25773942D+05 0.25773942D+05 0.12218806D+01  1  2 12  8  6  5       21 0.486898126182D-03 0.100000000000D+01
0.441527419310D-06 0.000000000000D+00 0.000000000000D+00 0.189534136867D-04 0.000000000000D+00  6 2 -1 25 24 3 -3 4 0.56812955D-01 0.11367956D-01 0.25773942D+05 0.25773942D+05 0.25773942D+05 0.12218806D+01  1  2 12  8  6  5       21 0.473055404228D-03 0.100000000000D+01
0.441527419310D-06 0.000000000000D+00 0.000000000000D+00 0.189534136867D-04 0.000000000000D+00  6 2 -1 25 24 4 -4 4 0.56812955D-01 0.11367956D-01 0.25773942D+05 0.25773942D+05 0.25773942D+05 0.12218806D+01  1  2 12  8  6  5       21 0.473055404228D-03 0.100000000000D+01
-.369220915350D-05 0.000000000000D+00 0.000000000000D+00 0.189329398048D-04 0.000000000000D+00  6 2 -1 25 24 3 -3 4 0.56812955D-01 0.11367956D-01 0.26143595D+05 0.26143595D+05 0.26143595D+05 0.12212205D+01  1  2  5  8  6  5       21 -.394863673231D-02 0.100000000000D+01
-.369220915350D-05 0.000000000000D+00 0.000000000000D+00 0.189329398048D-04 0.000000000000D+00  6 2 -1 25 24 4 -4 4 0.56812955D-01 0.11367956D-01 0.26143595D+05 0.26143595D+05 0.26143595D+05 0.12212205D+01  1  2  5  8  6  5       21 -.394863673231D-02 0.100000000000D+01
0.303370526533D-05 0.000000000000D+00 0.000000000000D+00 0.189329398048D-04 0.781818795641D-07  6 2 -1 25 24 3 -3 4 0.56812955D-01 0.11367956D-01 0.25773942D+05 0.25773942D+05 0.25773942D+05 0.12218806D+01  1  2 11  8  6  5       21 0.325033193373D-02 0.100000000000D+01
0.303370526533D-05 0.000000000000D+00 0.000000000000D+00 0.189329398048D-04 0.781818795641D-07  6 2 -1 25 24 4 -4 4 0.56812955D-01 0.11367956D-01 0.25773942D+05 0.25773942D+05 0.25773942D+05 0.12218806D+01  1  2 11  8  6  5       21 0.325033193373D-02 0.100000000000D+01
  </mgrwgt>
  </event>
  <event>
  5     66 0.42622971E-03 0.29599876E+02 0.75467711E-02 0.12321295E+00
        2 -1    0    0  502    0 0.00000000E+00 0.00000000E+00 0.35365064E+02 0.35366511E+02 0.32000000E+00 0.0000E+00 0.9000E+01
       -1 -1    0    0    0  501 0.00000000E+00 0.00000000E+00 -.50645093E+03 0.50645103E+03 0.32000000E+00 0.0000E+00 0.9000E+01
       25  1    1    2    0    0 0.18846304E+02 0.10215819E+02 -.34941298E+03 0.37171760E+03 0.12500000E+03 0.0000E+00 0.9000E+01
       24  1    1    2    0    0 -.35745258E+02 0.14076919E+02 -.87660594E+02 0.12500991E+03 0.80419002E+02 0.0000E+00 0.9000E+01
       21  1    1    2  502  501 0.16898954E+02 -.24292738E+02 -.34012295E+02 0.45090026E+02 0.75000000E+00 0.0000E+00 0.9000E+01
#aMCatNLO 1  0  0  2  1 0.81460508D+01 0.00000000D+00  -5  6  0 0.00000000D+00 0.00000000D+00 0.00000000D+00 0.00000000D+00 0.00000000D+00
  <mgrwgt>
 0.1359625002D+00    6    4    0
 0.133832316933830D+03 0.000000000000000D+00 0.000000000000000D+00 0.133832316933830D+03
 0.133832316933830D+03 0.000000000000000D+00 0.000000000000000D+00 -.133832316933830D+03
 0.137484510272221D+03 0.188438289522895D+02 0.102193774282318D+02 -.530797984188781D+02
 0.987692694858333D+02 -.357470364973408D+02 0.140794755586752D+02 0.425684201027603D+02
 0.314108541096059D+02 0.169032075450513D+02 -.242988529869070D+02 0.105113783161178D+02
 0.000000000000000D+00 -.000000000000000D+00 -.000000000000000D+00 0.000000000000000D+00
 0.151713651914726D+03 0.000000000000000D+00 0.000000000000000D+00 0.151713651914726D+03
 0.134825264665134D+03 0.000000000000000D+00 0.000000000000000D+00 -.134825264665134D+03
 0.138183063871727D+03 0.228914834950710D+02 0.113169838819273D+02 -.530797984188781D+02
 0.978771465935062D+02 -.328596575162003D+02 0.148624489499238D+02 0.425684201027603D+02
 0.317283523347621D+02 0.178302868237288D+02 -.240474559893103D+02 0.105113783161178D+02
 0.187503537798651D+02 -.786211280259951D+01 -.213197684254088D+01 0.168883872495918D+02
 0.133832316933830D+03 0.000000000000000D+00 0.000000000000000D+00 0.133832316933830D+03
 0.133832316933830D+03 0.000000000000000D+00 0.000000000000000D+00 -.133832316933830D+03
 0.137484510272221D+03 0.188438289522895D+02 0.102193774282318D+02 -.530797984188781D+02
 0.987692694858333D+02 -.357470364973408D+02 0.140794755586752D+02 0.425684201027603D+02
 0.000000000000000D+00 -.000000000000000D+00 -.000000000000000D+00 0.000000000000000D+00
 0.314108541096059D+02 0.169032075450513D+02 -.242988529869070D+02 0.105113783161178D+02
 0.151713651914726D+03 0.000000000000000D+00 0.000000000000000D+00 0.151713651914726D+03
 0.134825264665134D+03 0.000000000000000D+00 0.000000000000000D+00 -.134825264665134D+03
 0.138183063871727D+03 0.228914834950710D+02 0.113169838819273D+02 -.530797984188781D+02
 0.978771465935062D+02 -.328596575162003D+02 0.148624489499238D+02 0.425684201027603D+02
 0.187503537798651D+02 -.786211280259951D+01 -.213197684254088D+01 0.168883872495918D+02
 0.317283523347621D+02 0.178302868237288D+02 -.240474559893103D+02 0.105113783161178D+02
0.329275178325D-03 0.000000000000D+00 0.000000000000D+00 0.237486376421D-04 0.000000000000D+00  6 2 -1 25 24 21 21 2 0.54408982D-02 0.77915647D-01 0.15073681D+05 0.15073681D+05 0.15073681D+05 0.12475800D+01  1  2  2  2  6  2       -1 0.136056431377D+00 0.100000000000D+01
0.308406594048D-04 0.173763285479D-04 -.126450338491D-05 0.237486376421D-04 0.000000000000D+00  6 2 -1 25 24 21 21 4 0.54408982D-02 0.77915647D-01 0.15073681D+05 0.15073681D+05 0.15073681D+05 0.12475800D+01  1  2  3  2  6  2       -1 0.198344676326D-01 0.100000000000D+01
0.149683379607D-04 0.000000000000D+00 0.000000000000D+00 0.237486376421D-04 0.000000000000D+00  6 2 -1 25 24 21 21 4 0.54408982D-02 0.77915647D-01 0.15073681D+05 0.15073681D+05 0.15073681D+05 0.12475800D+01  1  2 15  2  6  2       -1 0.962654562270D-02 0.100000000000D+01
-.460933401748D-04 0.000000000000D+00 0.000000000000D+00 0.237486376421D-04 0.000000000000D+00  6 2 -1 25 24 21 21 4 0.54408982D-02 0.77915647D-01 0.15073681D+05 0.15073681D+05 0.15073681D+05 0.12475800D+01  1  2  4  2  6  2       -1 -.296438818566D-01 0.100000000000D+01
0.151810048519D-06 0.000000000000D+00 0.000000000000D+00 0.237486376421D-04 0.116388023581D-05  6 2 -1 25 24 21 21 4 0.61678565D-02 0.78493730D-01 0.16103591D+05 0.16103591D+05 0.16103591D+05 0.12443230D+01  1  2 11  2  6  2       -1 0.811166438635D-04 0.100000000000D+01
0.158064408567D-08 0.000000000000D+00 0.000000000000D+00 0.236247988880D-04 0.772711573993D-08  6 2 21 25 24 1 21 4 0.61678565D-02 0.78493730D-01 0.16103591D+05 0.16103591D+05 0.16103591D+05 0.12443230D+01  3  4 11  5  5  2       -1 0.782075647316D-05 0.100000000000D+01
  </mgrwgt>
  </event>
  <event>
  5     66 0.42622971E-03 0.47364919E+02 0.75467711E-02 0.12191006E+00
        2 -1    0    0  502    0 0.00000000E+00 0.00000000E+00 0.15455822E+04 0.15455823E+04 0.32000000E+00 0.0000E+00 0.9000E+01
       -1 -1    0    0    0  501 0.00000000E+00 0.00000000E+00 -.12571173E+02 0.12575245E+02 0.32000000E+00 0.0000E+00 0.9000E+01
       25  1    1    2    0    0 0.28534770E+02 0.86831297E+01 0.63349181E+03 0.64639501E+03 0.12500000E+03 0.0000E+00 0.9000E+01
       24  1    1    2    0    0 -.60668794E+01 -.51463306E+02 0.47782911E+03 0.48731217E+03 0.80419002E+02 0.0000E+00 0.9000E+01
       21  1    1    2  502  501 -.22467891E+02 0.42780176E+02 0.42169015E+03 0.42445034E+03 0.75000000E+00 0.0000E+00 0.9000E+01
#aMCatNLO 1  0  0  5  1 0.12253180D+02 0.00000000D+00  -5  6  0 0.00000000D+00 0.00000000D+00 0.00000000D+00 0.00000000D+00 0.00000000D+00
  <mgrwgt>
 0.3161250288D+00   20    2    0
 0.139402226028264D+03 0.000000000000000D+00 0.000000000000000D+00 0.139402226028264D+03
 0.139402226028264D+03 -.000000000000000D+00 -.000000000000000D+00 -.139402226028264D+03
 0.129249514775258D+03 0.285357951955680D+02 0.868117775614046D+01 -.138124080073903D+02
 0.960961524989293D+02 -.606611719472782D+01 -.514647572010058D+02 -.904630085439887D+01
 0.534587847823404D+02 -.224696780008402D+02 0.427835794448654D+02 0.228587088617891D+02
 0.000000000000000D+00 0.000000000000000D+00 0.000000000000000D+00 0.000000000000000D+00
 0.139402226028264D+03 0.000000000000000D+00 0.000000000000000D+00 0.139402226028264D+03
 0.139402226028264D+03 -.000000000000000D+00 -.000000000000000D+00 -.139402226028264D+03
 0.129034652248772D+03 0.273069266695409D+02 0.110210152121383D+02 -.125622633517873D+02
 0.951583548507798D+02 -.697607093773452D+01 -.497321521207896D+02 -.812059254258828D+01
 0.211106812822068D+02 -.176194245284643D+02 0.115614734752665D+02 0.124461824081692D+01
 0.335007636747695D+02 -.271143120334204D+01 0.271496634333848D+02 0.194382376535586D+02
0.129283874049D-03 0.000000000000D+00 0.000000000000D+00 0.113120903089D-04 0.000000000000D+00  6 2 -1 25 24 21 21 2 0.23778220D+00 0.19343425D-02 0.18564597D+05 0.18564597D+05 0.18564597D+05 0.12374029D+01  1  2  2  3  6  5       21 0.204104710663D+00 0.100000000000D+01
0.816867055791D-06 0.682249747112D-05 -.496484117575D-06 0.113120903089D-04 0.000000000000D+00  6 2 -1 25 24 21 21 4 0.23778220D+00 0.19343425D-02 0.18564597D+05 0.18564597D+05 0.18564597D+05 0.12374029D+01  1  2  3  3  6  5       21 0.197461432451D-02 0.100000000000D+01
0.625928489934D-05 0.000000000000D+00 0.000000000000D+00 0.113120903089D-04 0.000000000000D+00  6 2 -1 25 24 21 21 4 0.23778220D+00 0.19343425D-02 0.18564597D+05 0.18564597D+05 0.18564597D+05 0.12374029D+01  1  2 15  3  6  5       21 0.151305815748D-01 0.100000000000D+01
0.361762877315D-04 0.000000000000D+00 0.000000000000D+00 0.113180093597D-04 0.000000000000D+00  6 2 -1 25 24 21 21 4 0.23778220D+00 0.19343425D-02 0.18440499D+05 0.18440499D+05 0.18440499D+05 0.12377266D+01  1  2 12  3  6  5       21 0.875283512420D-01 0.100000000000D+01
0.384387511435D-04 0.000000000000D+00 0.000000000000D+00 0.113180093597D-04 0.000000000000D+00  6 2 -1 25 24 21 21 4 0.23778220D+00 0.19343425D-02 0.18440499D+05 0.18440499D+05 0.18440499D+05 0.12377266D+01  1  2 12  3  6  5       21 0.930023704024D-01 0.100000000000D+01
-.151466084659D-03 0.000000000000D+00 0.000000000000D+00 0.113120903089D-04 0.000000000000D+00  6 2 -1 25 24 21 21 4 0.23778220D+00 0.19343425D-02 0.18564597D+05 0.18564597D+05 0.18564597D+05 0.12374029D+01  1  2  4  3  6  5       21 -.366139261370D+00 0.100000000000D+01
-.604954590982D-04 0.000000000000D+00 0.000000000000D+00 0.113120903089D-04 0.000000000000D+00  6 2 -1 25 24 21 21 4 0.23778220D+00 0.19343425D-02 0.18564597D+05 0.18564597D+05 0.18564597D+05 0.12374029D+01  1  2  5  3  6  5       21 -.146235791071D+00 0.100000000000D+01
0.180385808445D-03 0.000000000000D+00 -.000000000000D+00 0.113120903089D-04 0.000000000000D+00  6 2 -1 25 24 21 21 4 0.23778220D+00 0.19343425D-02 0.18564597D+05 0.18564597D+05 0.18564597D+05 0.12374029D+01  1  2  6  3  6  5       21 0.436046965989D+00 0.100000000000D+01
0.229676777867D-05 0.000000000000D+00 0.000000000000D+00 0.113180093597D-04 0.000000000000D+00  6 2 -1 25 24 1 -1 4 0.23778220D+00 0.19343425D-02 0.18440499D+05 0.18440499D+05 0.18440499D+05 0.12377266D+01  1  2 12  6  6  5       21 0.555701840789D-02 0.100000000000D+01
0.242928036704D-05 0.000000000000D+00 0.000000000000D+00 0.113180093597D-04 0.000000000000D+00  6 2 -1 25 24 1 -1 4 0.23778220D+00 0.19343425D-02 0.18440499D+05 0.18440499D+05 0.18440499D+05 0.12377266D+01  1  2 12  6  6  5       21 0.587763196737D-02 0.100000000000D+01
-.569086068711D-05 0.000000000000D+00 0.000000000000D+00 0.113120903089D-04 0.000000000000D+00  6 2 -1 25 24 1 -1 4 0.23778220D+00 0.19343425D-02 0.18564597D+05 0.18564597D+05 0.18564597D+05 0.12374029D+01  1  2  5  6  6  5       21 -.137565286198D-01 0.100000000000D+01
0.229676777867D-05 0.000000000000D+00 0.000000000000D+00 0.113180093597D-04 0.000000000000D+00  6 2 -1 25 24 2 -2 4 0.23778220D+00 0.19343425D-02 0.18440499D+05 0.18440499D+05 0.18440499D+05 0.12377266D+01  1  2 12  7  6  5       21 0.555701840789D-02 0.100000000000D+01
0.242928036704D-05 0.000000000000D+00 0.000000000000D+00 0.113180093597D-04 0.000000000000D+00  6 2 -1 25 24 2 -2 4 0.23778220D+00 0.19343425D-02 0.18440499D+05 0.18440499D+05 0.18440499D+05 0.12377266D+01  1  2 12  7  6  5       21 0.587763196737D-02 0.100000000000D+01
-.569086068711D-05 0.000000000000D+00 0.000000000000D+00 0.113120903089D-04 0.000000000000D+00  6 2 -1 25 24 2 -2 4 0.23778220D+00 0.19343425D-02 0.18564597D+05 0.18564597D+05 0.18564597D+05 0.12374029D+01  1  2  5  7  6  5       21 -.137565286198D-01 0.100000000000D+01
0.229676777867D-05 0.000000000000D+00 0.000000000000D+00 0.113180093597D-04 0.000000000000D+00  6 2 -1 25 24 3 -3 4 0.23778220D+00 0.19343425D-02 0.18440499D+05 0.18440499D+05 0.18440499D+05 0.12377266D+01  1  2 12  8  6  5       21 0.555701840789D-02 0.100000000000D+01
0.229676777867D-05 0.000000000000D+00 0.000000000000D+00 0.113180093597D-04 0.000000000000D+00  6 2 -1 25 24 4 -4 4 0.23778220D+00 0.19343425D-02 0.18440499D+05 0.18440499D+05 0.18440499D+05 0.12377266D+01  1  2 12  8  6  5       21 0.555701840789D-02 0.100000000000D+01
0.242928036704D-05 0.000000000000D+00 0.000000000000D+00 0.113180093597D-04 0.000000000000D+00  6 2 -1 25 24 3 -3 4 0.23778220D+00 0.19343425D-02 0.18440499D+05 0.18440499D+05 0.18440499D+05 0.12377266D+01  1  2 12  8  6  5       21 0.587763196737D-02 0.100000000000D+01
0.242928036704D-05 0.000000000000D+00 0.000000000000D+00 0.113180093597D-04 0.000000000000D+00  6 2 -1 25 24 4 -4 4 0.23778220D+00 0.19343425D-02 0.18440499D+05 0.18440499D+05 0.18440499D+05 0.12377266D+01  1  2 12  8  6  5       21 0.587763196737D-02 0.100000000000D+01
-.569086068711D-05 0.000000000000D+00 0.000000000000D+00 0.113120903089D-04 0.000000000000D+00  6 2 -1 25 24 3 -3 4 0.23778220D+00 0.19343425D-02 0.18564597D+05 0.18564597D+05 0.18564597D+05 0.12374029D+01  1  2  5  8  6  5       21 -.137565286198D-01 0.100000000000D+01
-.569086068711D-05 0.000000000000D+00 0.000000000000D+00 0.113120903089D-04 0.000000000000D+00  6 2 -1 25 24 4 -4 4 0.23778220D+00 0.19343425D-02 0.18564597D+05 0.18564597D+05 0.18564597D+05 0.12374029D+01  1  2  5  8  6  5       21 -.137565286198D-01 0.100000000000D+01
  </mgrwgt>
  </event>
  <event>
  5     66 0.42622971E-03 0.34291332E+02 0.75467711E-02 0.12118898E+00
        2 -1    0    0  502    0 0.00000000E+00 0.00000000E+00 0.21856551E+04 0.21856552E+04 0.32000000E+00 0.0000E+00 0.9000E+01
       -1 -1    0    0    0  501 0.00000000E+00 0.00000000E+00 -.11943994E+02 0.11948280E+02 0.32000000E+00 0.0000E+00 0.9000E+01
       25  1    1    2    0    0 -.48349932E+02 -.48901321E+02 0.11940437E+04 0.12025366E+04 0.12500000E+03 0.0000E+00 0.9000E+01
       24  1    1    2    0    0 0.16687189E+02 0.62060479E+02 0.35941127E+03 0.37386313E+03 0.80419002E+02 0.0000E+00 0.9000E+01
       21  1    1    2  502  501 0.31662743E+02 -.13159158E+02 0.62025619E+03 0.62120367E+03 0.75000000E+00 0.0000E+00 0.9000E+01
#aMCatNLO 1  0  0  5  2 0.82545274D+01 0.00000000D+00  -5  6  0 0.00000000D+00 0.00000000D+00 0.00000000D+00 0.00000000D+00 0.00000000D+00
  <mgrwgt>
 0.3079186247D+00   25    2    0
 0.161586471859424D+03 0.000000000000000D+00 0.000000000000000D+00 0.161586471859424D+03
 0.161586471859424D+03 -.000000000000000D+00 -.000000000000000D+00 -.161586471859424D+03
 0.146028825477790D+03 -.483514037625252D+02 -.489007094234389D+02 0.311493217020922D+02
 0.124846285838509D+03 0.166859309859707D+02 0.620610015072095D+02 -.706356208463809D+02
 0.522978324025492D+02 0.316654727765544D+02 -.131602920837707D+02 0.394862991442887D+02
 0.000000000000000D+00 0.000000000000000D+00 0.000000000000000D+00 0.000000000000000D+00
 0.161586471859424D+03 0.000000000000000D+00 0.000000000000000D+00 0.161586471859424D+03
 0.161586471859424D+03 -.000000000000000D+00 -.000000000000000D+00 -.161586471859424D+03
 0.146098968884156D+03 -.474962560404192D+02 -.492561121005787D+02 0.322156761824408D+02
 0.124283109224474D+03 0.174152091950609D+02 0.617579106830276D+02 -.697262234807787D+02
 0.169452567468968D+02 0.683182566901409D+01 -.116446000141448D+02 0.102406628084823D+02
 0.358456088633203D+02 0.232492211763442D+02 -.857198568304124D+00 0.272698844898557D+02
0.191360021047D-03 0.000000000000D+00 0.000000000000D+00 0.163316224674D-04 0.000000000000D+00  6 2 -1 25 24 21 21 2 0.33625497D+00 0.18378691D-02 0.19586280D+05 0.19586280D+05 0.19586280D+05 0.12348267D+01  1  2  2  3  6  5       21 0.152105002028D+00 0.100000000000D+01
0.114668350570D-04 0.100983457471D-04 -.734872867073D-06 0.163316224674D-04 0.000000000000D+00  6 2 -1 25 24 21 21 4 0.33625497D+00 0.18378691D-02 0.19586280D+05 0.19586280D+05 0.19586280D+05 0.12348267D+01  1  2  3  3  6  5       21 0.138978583981D-01 0.100000000000D+01
0.476775279774D-05 0.000000000000D+00 0.000000000000D+00 0.163316224674D-04 0.000000000000D+00  6 2 -1 25 24 21 21 4 0.33625497D+00 0.18378691D-02 0.19586280D+05 0.19586280D+05 0.19586280D+05 0.12348267D+01  1  2 15  3  6  5       21 0.577853897182D-02 0.100000000000D+01
0.610042933157D-04 0.000000000000D+00 0.000000000000D+00 0.163113651697D-04 0.000000000000D+00  6 2 -1 25 24 21 21 4 0.33625497D+00 0.18378691D-02 0.19902132D+05 0.19902132D+05 0.19902132D+05 0.12340607D+01  1  2 12  3  6  5       21 0.737601243277D-01 0.100000000000D+01
0.678968510097D-04 0.000000000000D+00 0.000000000000D+00 0.163113651697D-04 0.000000000000D+00  6 2 -1 25 24 21 21 4 0.33625497D+00 0.18378691D-02 0.19902132D+05 0.19902132D+05 0.19902132D+05 0.12340607D+01  1  2 12  3  6  5       21 0.820938969987D-01 0.100000000000D+01
-.344705560024D-03 0.000000000000D+00 0.000000000000D+00 0.163316224674D-04 0.000000000000D+00  6 2 -1 25 24 21 21 4 0.33625497D+00 0.18378691D-02 0.19586280D+05 0.19586280D+05 0.19586280D+05 0.12348267D+01  1  2  4  3  6  5       21 -.417784771338D+00 0.100000000000D+01
-.111686633278D-03 0.000000000000D+00 0.000000000000D+00 0.163316224674D-04 0.000000000000D+00  6 2 -1 25 24 21 21 4 0.33625497D+00 0.18378691D-02 0.19586280D+05 0.19586280D+05 0.19586280D+05 0.12348267D+01  1  2  5  3  6  5       21 -.135364728501D+00 0.100000000000D+01
0.470681729134D-03 0.000000000000D+00 -.000000000000D+00 0.163316224674D-04 0.000000000000D+00  6 2 -1 25 24 21 21 4 0.33625497D+00 0.18378691D-02 0.19586280D+05 0.19586280D+05 0.19586280D+05 0.12348267D+01  1  2  6  3  6  5       21 0.570468484947D+00 0.100000000000D+01
0.248714091023D-06 0.000000000000D+00 0.000000000000D+00 0.163316224674D-04 0.110300220031D-05  6 2 -1 25 24 21 21 4 0.33625497D+00 0.18378691D-02 0.19902132D+05 0.19902132D+05 0.19902132D+05 0.12340607D+01  1  2 11  3  6  5       21 0.300719527739D-03 0.100000000000D+01
0.578094398189D-05 0.000000000000D+00 0.000000000000D+00 0.163113651697D-04 0.000000000000D+00  6 2 -1 25 24 1 -1 4 0.33625497D+00 0.18378691D-02 0.19902132D+05 0.19902132D+05 0.19902132D+05 0.12340607D+01  1  2 12  6  6  5       21 0.698972356961D-02 0.100000000000D+01
0.632316172535D-05 0.000000000000D+00 0.000000000000D+00 0.163113651697D-04 0.000000000000D+00  6 2 -1 25 24 1 -1 4 0.33625497D+00 0.18378691D-02 0.19902132D+05 0.19902132D+05 0.19902132D+05 0.12340607D+01  1  2 12  6  6  5       21 0.764531756138D-02 0.100000000000D+01
-.198222720205D-04 0.000000000000D+00 0.000000000000D+00 0.163316224674D-04 0.000000000000D+00  6 2 -1 25 24 1 -1 4 0.33625497D+00 0.18378691D-02 0.19586280D+05 0.19586280D+05 0.19586280D+05 0.12348267D+01  1  2  5  6  6  5       21 -.240246875709D-01 0.100000000000D+01
0.460667792195D-07 0.000000000000D+00 0.000000000000D+00 0.163316224674D-04 0.658764524582D-07  6 2 -1 25 24 1 -1 4 0.33625497D+00 0.18378691D-02 0.19902132D+05 0.19902132D+05 0.19902132D+05 0.12340607D+01  1  2 11  6  6  5       21 0.556992168572D-04 0.100000000000D+01
0.578094398189D-05 0.000000000000D+00 0.000000000000D+00 0.163113651697D-04 0.000000000000D+00  6 2 -1 25 24 2 -2 4 0.33625497D+00 0.18378691D-02 0.19902132D+05 0.19902132D+05 0.19902132D+05 0.12340607D+01  1  2 12  7  6  5       21 0.698972356961D-02 0.100000000000D+01
0.632316172535D-05 0.000000000000D+00 0.000000000000D+00 0.163113651697D-04 0.000000000000D+00  6 2 -1 25 24 2 -2 4 0.33625497D+00 0.18378691D-02 0.19902132D+05 0.19902132D+05 0.19902132D+05 0.12340607D+01  1  2 12  7  6  5       21 0.764531756138D-02 0.100000000000D+01
-.198222720205D-04 0.000000000000D+00 0.000000000000D+00 0.163316224674D-04 0.000000000000D+00  6 2 -1 25 24 2 -2 4 0.33625497D+00 0.18378691D-02 0.19586280D+05 0.19586280D+05 0.19586280D+05 0.12348267D+01  1  2  5  7  6  5       21 -.240246875709D-01 0.100000000000D+01
0.455369233677D-07 0.000000000000D+00 0.000000000000D+00 0.163316224674D-04 0.686575524367D-07  6 2 -1 25 24 2 -2 4 0.33625497D+00 0.18378691D-02 0.19902132D+05 0.19902132D+05 0.19902132D+05 0.12340607D+01  1  2 11  7  6  5       21 0.550585695947D-04 0.100000000000D+01
0.578094398189D-05 0.000000000000D+00 0.000000000000D+00 0.163113651697D-04 0.000000000000D+00  6 2 -1 25 24 3 -3 4 0.33625497D+00 0.18378691D-02 0.19902132D+05 0.19902132D+05 0.19902132D+05 0.12340607D+01  1  2 12  8  6  5       21 0.698972356961D-02 0.100000000000D+01
0.578094398189D-05 0.000000000000D+00 0.000000000000D+00 0.163113651697D-04 0.000000000000D+00  6 2 -1 25 24 4 -4 4 0.33625497D+00 0.18378691D-02 0.19902132D+05 0.19902132D+05 0.19902132D+05 0.12340607D+01  1  2 12  8  6  5       21 0.698972356961D-02 0.100000000000D+01
0.632316172535D-05 0.000000000000D+00 0.000000000000D+00 0.163113651697D-04 0.000000000000D+00  6 2 -1 25 24 3 -3 4 0.33625497D+00 0.18378691D-02 0.19902132D+05 0.19902132D+05 0.19902132D+05 0.12340607D+01  1  2 12  8  6  5       21 0.764531756138D-02 0.100000000000D+01
0.632316172535D-05 0.000000000000D+00 0.000000000000D+00 0.163113651697D-04 0.000000000000D+00  6 2 -1 25 24 4 -4 4 0.33625497D+00 0.18378691D-02 0.19902132D+05 0.19902132D+05 0.19902132D+05 0.12340607D+01  1  2 12  8  6  5       21 0.764531756138D-02 0.100000000000D+01
-.198222720205D-04 0.000000000000D+00 0.000000000000D+00 0.163316224674D-04 0.000000000000D+00  6 2 -1 25 24 3 -3 4 0.33625497D+00 0.18378691D-02 0.19586280D+05 0.19586280D+05 0.19586280D+05 0.12348267D+01  1  2  5  8  6  5       21 -.240246875709D-01 0.100000000000D+01
-.198222720205D-04 0.000000000000D+00 0.000000000000D+00 0.163316224674D-04 0.000000000000D+00  6 2 -1 25 24 4 -4 4 0.33625497D+00 0.18378691D-02 0.19586280D+05 0.19586280D+05 0.19586280D+05 0.12348267D+01  1  2  5  8  6  5       21 -.240246875709D-01 0.100000000000D+01
0.460373529161D-07 0.000000000000D+00 0.000000000000D+00 0.163316224674D-04 0.657060621689D-07  6 2 -1 25 24 3 -3 4 0.33625497D+00 0.18378691D-02 0.19902132D+05 0.19902132D+05 0.19902132D+05 0.12340607D+01  1  2 11  8  6  5       21 0.556636375941D-04 0.100000000000D+01
0.460373529161D-07 0.000000000000D+00 0.000000000000D+00 0.163316224674D-04 0.657060621689D-07  6 2 -1 25 24 4 -4 4 0.33625497D+00 0.18378691D-02 0.19902132D+05 0.19902132D+05 0.19902132D+05 0.12340607D+01  1  2 11  8  6  5       21 0.556636375941D-04 0.100000000000D+01
  </mgrwgt>
  </event>
  <event>
  5     66 -.42622971E-03 0.97358408E+02 0.75467711E-02 0.11739351E+00
        2 -1    0    0  502    0 0.00000000E+00 0.00000000E+00 0.12842227E+04 0.12842228E+04 0.32000000E+00 0.0000E+00 0.9000E+01
       -1 -1    0    0    0  501 0.00000000E+00 0.00000000E+00 -.21650536E+02 0.21652901E+02 0.32000000E+00 0.0000E+00 0.9000E+01
       25  1    1    2    0    0 0.50116176E+02 0.56161547E+02 0.52839246E+03 0.54816908E+03 0.12500000E+03 0.0000E+00 0.9000E+01
       24  1    1    2    0    0 0.13138589E+02 0.17846004E+02 0.43992042E+03 0.44775920E+03 0.80419002E+02 0.0000E+00 0.9000E+01
       21  1    1    2  502  501 -.63254766E+02 -.74007551E+02 0.29425932E+03 0.30994740E+03 0.75000000E+00 0.0000E+00 0.9000E+01
#aMCatNLO 1  0  0  2  5 0.20362058D+02 0.00000000D+00  -5  6  0 0.00000000D+00 0.00000000D+00 0.00000000D+00 0.00000000D+00 0.00000000D+00
  <mgrwgt>
 -.7834827943D-01    9    4    0
 0.166750356180557D+03 0.000000000000000D+00 0.000000000000000D+00 0.166750356180557D+03
 0.166750356180557D+03 0.000000000000000D+00 0.000000000000000D+00 -.166750356180557D+03
 0.146048396587318D+03 0.501169609126962D+02 0.561624654146638D+02 -.626113832689584D+01
 0.878157752305014D+02 0.131390613521098D+02 0.178465558799401D+02 0.274455813378599D+02
 0.996365405432944D+02 -.632560222648061D+02 -.740090212946038D+02 -.211844430109641D+02
 0.000000000000000D+00 -.000000000000000D+00 -.000000000000000D+00 -.000000000000000D+00
 0.168836457019567D+03 0.000000000000000D+00 0.000000000000000D+00 0.168836457019567D+03
 0.225437855771662D+03 0.000000000000000D+00 0.000000000000000D+00 -.225437855771662D+03
 0.150765724040353D+03 0.576609773277107D+02 0.611662765408899D+02 -.626113832689584D+01
 0.892501140976109D+02 0.176394805801628D+02 0.208316034417660D+02 0.274455813378599D+02
 0.941059039893029D+02 -.583317411061196D+02 -.707428336970449D+02 -.211844430109641D+02
 0.601525706639625D+02 -.169687168017540D+02 -.112550462856109D+02 -.566013987520947D+02
 0.166750356180557D+03 0.000000000000000D+00 0.000000000000000D+00 0.166750356180557D+03
 0.166750356180557D+03 0.000000000000000D+00 0.000000000000000D+00 -.166750356180557D+03
 0.146048396587318D+03 0.501169609126962D+02 0.561624654146638D+02 -.626113832689584D+01
 0.878157752305014D+02 0.131390613521098D+02 0.178465558799401D+02 0.274455813378599D+02
 0.000000000000000D+00 -.000000000000000D+00 -.000000000000000D+00 -.000000000000000D+00
 0.996365405432944D+02 -.632560222648061D+02 -.740090212946038D+02 -.211844430109641D+02
 0.168836457019567D+03 0.000000000000000D+00 0.000000000000000D+00 0.168836457019567D+03
 0.225437855771662D+03 0.000000000000000D+00 0.000000000000000D+00 -.225437855771662D+03
 0.150765724040353D+03 0.576609773277107D+02 0.611662765408899D+02 -.626113832689584D+01
 0.892501140976109D+02 0.176394805801628D+02 0.208316034417660D+02 0.274455813378599D+02
 0.601525706639625D+02 -.169687168017540D+02 -.112550462856109D+02 -.566013987520947D+02
 0.941059039893029D+02 -.583317411061196D+02 -.707428336970449D+02 -.211844430109641D+02
0.707674851151D-05 0.000000000000D+00 0.000000000000D+00 0.316219066484D-05 0.000000000000D+00  6 2 -1 25 24 21 21 2 0.19757291D+00 0.33310367D-02 0.26681468D+05 0.26681468D+05 0.26681468D+05 0.12202783D+01  1  2  2  2  6  2       -1 0.682860246128D-02 0.100000000000D+01
-.544167912892D-06 0.373450278919D-06 -.271765776349D-07 0.316219066484D-05 0.000000000000D+00  6 2 -1 25 24 21 21 4 0.19757291D+00 0.33310367D-02 0.26681468D+05 0.26681468D+05 0.26681468D+05 0.12202783D+01  1  2  3  2  6  2       -1 -.781895655234D-03 0.100000000000D+01
0.412302537649D-06 0.000000000000D+00 0.000000000000D+00 0.316219066484D-05 0.000000000000D+00  6 2 -1 25 24 21 21 4 0.19757291D+00 0.33310367D-02 0.26681468D+05 0.26681468D+05 0.26681468D+05 0.12202783D+01  1  2 15  2  6  2       -1 0.592422954739D-03 0.100000000000D+01
0.752681581994D-04 0.000000000000D+00 0.000000000000D+00 0.313273894394D-05 0.000000000000D+00  6 2 -1 25 24 21 21 4 0.19757291D+00 0.45947311D-02 0.30208799D+05 0.30208799D+05 0.30208799D+05 0.12145824D+01  1  2 12  2  6  2       -1 0.661451816455D-01 0.100000000000D+01
-.131035620458D-03 0.000000000000D+00 0.000000000000D+00 0.316219066484D-05 0.000000000000D+00  6 2 -1 25 24 21 21 4 0.19757291D+00 0.33310367D-02 0.26681468D+05 0.26681468D+05 0.26681468D+05 0.12202783D+01  1  2  4  2  6  2       -1 -.188280455150D+00 0.100000000000D+01
-.896622982101D-04 0.000000000000D+00 -.625150676099D-05 0.316219066484D-05 0.000000000000D+00  6 2 -1 25 24 21 21 4 0.19757291D+00 0.45568973D-02 0.26681468D+05 0.26681468D+05 0.26681468D+05 0.12202783D+01  1  2  5  2  6  2       -1 -.811739014261D-01 0.100000000000D+01
0.875808772558D-04 0.000000000000D+00 0.595665358218D-05 0.316219066484D-05 0.000000000000D+00  6 2 -1 25 24 21 21 4 0.19757291D+00 0.33310367D-02 0.26681468D+05 0.26681468D+05 0.26681468D+05 0.12202783D+01  1  2  6  2  6  2       -1 0.125841869367D+00 0.100000000000D+01
0.305931639036D-05 0.000000000000D+00 0.000000000000D+00 0.313273894394D-05 0.000000000000D+00  6 2 21 25 24 1 21 4 0.19757291D+00 0.45947311D-02 0.30208799D+05 0.30208799D+05 0.30208799D+05 0.12145824D+01  3  4 12  5  5  2       -1 0.474621654214D-01 0.100000000000D+01
-.342672574011D-05 0.000000000000D+00 -.249371600452D-06 0.316219066484D-05 0.000000000000D+00  6 2 21 25 24 1 21 4 0.19757291D+00 0.45568973D-02 0.26681468D+05 0.26681468D+05 0.26681468D+05 0.12202783D+01  3  4  5  5  5  2       -1 -.549822690488D-01 0.100000000000D+01
  </mgrwgt>
  </event>
  <event>
  5     66 0.42622971E-03 0.69852770E+02 0.75467711E-02 0.11388578E+00
        2 -1    0    0  502    0 0.00000000E+00 0.00000000E+00 0.40602345E+03 0.40602358E+03 0.32000000E+00 0.0000E+00 0.9000E+01
       -1 -1    0    0    0  501 0.00000000E+00 0.00000000E+00 -.15064903E+03 0.15064937E+03 0.32000000E+00 0.0000E+00 0.9000E+01
       25  1    1    2    0    0 -.76330573E+02 0.58222968E+02 0.13064380E+03 0.20471705E+03 0.12500000E+03 0.0000E+00 0.9000E+01
       24  1    1    2    0    0 0.58201092E+02 0.92357166E+01 0.21548395E+03 0.23743044E+03 0.80419002E+02 0.0000E+00 0.9000E+01
       21  1    1    2  502  501 0.18129481E+02 -.67458684E+02 -.90753324E+02 0.11452546E+03 0.75000000E+00 0.0000E+00 0.9000E+01
#aMCatNLO 1  0  0  2  1 0.10551577D+03 0.00000000D+00  -5  6  0 0.00000000D+00 0.00000000D+00 0.00000000D+00 0.00000000D+00 0.00000000D+00
  <mgrwgt>
 0.6189862419D-01    7    4    0
 0.247319974290156D+03 0.000000000000000D+00 0.000000000000000D+00 0.247319974290156D+03
 0.247319974290156D+03 0.000000000000000D+00 0.000000000000000D+00 -.247319974290156D+03
 0.162941694168745D+03 -.763306276184456D+02 0.582231698776477D+02 0.413363456942388D+02
 0.155956240703282D+03 0.582010403610705D+02 0.923591032741924D+01 0.119926935761914D+03
 0.175742013708285D+03 0.181295872573751D+02 -.674590802050670D+02 -.161263281456153D+03
 0.000000000000000D+00 0.000000000000000D+00 -.000000000000000D+00 -.000000000000000D+00
 0.278170940187431D+03 0.000000000000000D+00 0.000000000000000D+00 0.278170940187431D+03
 0.362959013547336D+03 0.000000000000000D+00 0.000000000000000D+00 -.362959013547336D+03
 0.187065689961973D+03 -.106665386045906D+03 0.792614301238199D+02 0.413363456942388D+02
 0.150386001623210D+03 0.316506921729016D+02 0.276495441839372D+02 0.119926935761914D+03
 0.168317283289204D+03 -.116896569424639D+02 -.467783478590177D+02 -.161263281456153D+03
 0.135360978860380D+03 0.867043508154686D+02 -.601326264487394D+02 -.847880733599051D+02
 0.247319974290156D+03 0.000000000000000D+00 0.000000000000000D+00 0.247319974290156D+03
 0.247319974290156D+03 0.000000000000000D+00 0.000000000000000D+00 -.247319974290156D+03
 0.162941694168745D+03 -.763306276184456D+02 0.582231698776477D+02 0.413363456942388D+02
 0.155956240703282D+03 0.582010403610705D+02 0.923591032741924D+01 0.119926935761914D+03
 0.000000000000000D+00 0.000000000000000D+00 -.000000000000000D+00 -.000000000000000D+00
 0.175742013708285D+03 0.181295872573751D+02 -.674590802050670D+02 -.161263281456153D+03
 0.278170940187431D+03 0.000000000000000D+00 0.000000000000000D+00 0.278170940187431D+03
 0.362959013547336D+03 0.000000000000000D+00 0.000000000000000D+00 -.362959013547336D+03
 0.187065689961973D+03 -.106665386045906D+03 0.792614301238199D+02 0.413363456942388D+02
 0.150386001623210D+03 0.316506921729016D+02 0.276495441839372D+02 0.119926935761914D+03
 0.135360978860380D+03 0.867043508154686D+02 -.601326264487394D+02 -.847880733599051D+02
 0.168317283289204D+03 -.116896569424639D+02 -.467783478590177D+02 -.161263281456153D+03
0.261236146424D-03 0.000000000000D+00 0.000000000000D+00 0.698905228270D-05 0.000000000000D+00  6 2 -1 25 24 21 21 2 0.62465182D-01 0.23176810D-01 0.26758899D+05 0.26758899D+05 0.26758899D+05 0.12201445D+01  1  2  2  2  6  2       -1 0.545875901142D-01 0.100000000000D+01
-.193617879216D-05 0.137858101905D-04 -.100321558732D-05 0.698905228270D-05 0.000000000000D+00  6 2 -1 25 24 21 21 4 0.62465182D-01 0.23176810D-01 0.26758899D+05 0.26758899D+05 0.26758899D+05 0.12201445D+01  1  2  3  2  6  2       -1 -.602321845223D-03 0.100000000000D+01
0.874191818771D-05 0.000000000000D+00 0.000000000000D+00 0.698905228270D-05 0.000000000000D+00  6 2 -1 25 24 21 21 4 0.62465182D-01 0.23176810D-01 0.26758899D+05 0.26758899D+05 0.26758899D+05 0.12201445D+01  1  2 15  2  6  2       -1 0.271950520010D-02 0.100000000000D+01
-.170300050495D-03 0.000000000000D+00 0.000000000000D+00 0.698905228270D-05 0.000000000000D+00  6 2 -1 25 24 21 21 4 0.62465182D-01 0.23176810D-01 0.26758899D+05 0.26758899D+05 0.26758899D+05 0.12201445D+01  1  2  4  2  6  2       -1 -.529782895417D-01 0.100000000000D+01
-.329953303670D-03 0.000000000000D+00 -.168503080580D-03 0.698905228270D-05 0.000000000000D+00  6 2 -1 25 24 21 21 4 0.62465182D-01 0.37730305D-01 0.26758899D+05 0.26758899D+05 0.26758899D+05 0.12201445D+01  1  2  5  2  6  2       -1 -.451278755509D-01 0.100000000000D+01
0.383790160225D-03 0.000000000000D+00 0.150300944342D-03 0.698905228270D-05 0.000000000000D+00  6 2 -1 25 24 21 21 4 0.62465182D-01 0.23176810D-01 0.26758899D+05 0.26758899D+05 0.26758899D+05 0.12201445D+01  1  2  6  2  6  2       -1 0.119392485043D+00 0.100000000000D+01
-.108506070340D-04 0.000000000000D+00 -.931021459720D-05 0.698905228270D-05 0.000000000000D+00  6 2 21 25 24 1 21 4 0.62465182D-01 0.37730305D-01 0.26758899D+05 0.26758899D+05 0.26758899D+05 0.12201445D+01  3  4  5  5  5  2       -1 -.160924692293D-01 0.100000000000D+01
  </mgrwgt>
  </event>
  <event>
  5     66 0.42622971E-03 0.37478810E+03 0.75467711E-02 0.10441243E+00
        2 -1    0    0  502    0 0.00000000E+00 0.00000000E+00 0.68079893E+03 0.68079901E+03 0.32000000E+00 0.0000E+00 0.9000E+01
       -1 -1    0    0    0  501 0.00000000E+00 0.00000000E+00 -.26678765E+03 0.26678784E+03 0.32000000E+00 0.0000E+00 0.9000E+01
       25  1    1    2    0    0 0.21050128E+03 -.35584431E+02 0.86122584E+02 0.26195255E+03 0.12500000E+03 0.0000E+00 0.9000E+01
       24  1    1    2    0    0 0.15766969E+03 0.10569831E+03 0.20621954E+03 0.29159146E+03 0.80419002E+02 0.0000E+00 0.9000E+01
       21  1    1    2  502  501 -.36817097E+03 -.70113878E+02 0.12166915E+03 0.39404284E+03 0.75000000E+00 0.0000E+00 0.9000E+01
#aMCatNLO 1  0  0  5  2 0.11851044D+03 0.00000000D+00  -5  6  0 0.00000000D+00 0.00000000D+00 0.00000000D+00 0.00000000D+00 0.00000000D+00
  <mgrwgt>
 0.9330358309D-02    4    2    0
 0.426179393314089D+03 0.000000000000000D+00 0.000000000000000D+00 0.426179393314089D+03
 0.426179393314089D+03 -.000000000000000D+00 -.000000000000000D+00 -.426179393314089D+03
 0.249387017813603D+03 0.210501489285110D+03 -.355843909831928D+02 -.314922019088584D+02
 0.224003266861807D+03 0.157669876501161D+03 0.105698344797373D+03 0.876260096181232D+02
 0.378968501952769D+03 -.368171365786271D+03 -.701139538141799D+02 -.561338077092648D+02
 0.000000000000000D+00 0.000000000000000D+00 0.000000000000000D+00 0.000000000000000D+00
 0.426179393314089D+03 0.000000000000000D+00 0.000000000000000D+00 0.426179393314089D+03
 0.426179393314089D+03 -.000000000000000D+00 -.000000000000000D+00 -.426179393314089D+03
 0.217463859076328D+03 0.168298095371924D+03 -.436215364176601D+02 -.379268066031746D+02
 0.193052767125995D+03 0.119967944347764D+03 0.985184503912358D+02 0.818777271430675D+02
 0.323263003446067D+03 -.302749486861635D+03 0.467854320290293D+02 -.103212600741606D+03
 0.118579156979788D+03 0.144834471419466D+02 -.101682346002605D+03 0.592616802017128D+02
0.356087337917D-03 0.000000000000D+00 0.000000000000D+00 0.324562335161D-06 0.000000000000D+00  6 2 -1 25 24 21 21 2 0.10473832D+00 0.41044275D-01 0.17153345D+06 0.17153345D+06 0.17153345D+06 0.11426387D+01  1  2  2  3  6  5       21 0.134688348466D-01 0.100000000000D+01
-.422048849347D-04 0.187912450822D-04 -.136746913755D-05 0.324562335161D-06 0.000000000000D+00  6 2 -1 25 24 21 21 4 0.10473832D+00 0.41044275D-01 0.17153345D+06 0.17153345D+06 0.17153345D+06 0.11426387D+01  1  2  3  3  6  5       21 -.208427052335D-02 0.100000000000D+01
0.179016771969D-04 0.000000000000D+00 0.000000000000D+00 0.324562335161D-06 0.000000000000D+00  6 2 -1 25 24 21 21 4 0.10473832D+00 0.41044275D-01 0.17153345D+06 0.17153345D+06 0.17153345D+06 0.11426387D+01  1  2 15  3  6  5       21 0.884066812590D-03 0.100000000000D+01
-.594977787947D-04 0.000000000000D+00 0.000000000000D+00 0.324562335161D-06 0.000000000000D+00  6 2 -1 25 24 21 21 4 0.10473832D+00 0.41044275D-01 0.17153345D+06 0.17153345D+06 0.17153345D+06 0.11426387D+01  1  2  4  3  6  5       21 -.293827282644D-02 0.100000000000D+01
  </mgrwgt>
  </event>
  <event>
  5     66 0.42622971E-03 0.47541475E+02 0.75467711E-02 0.11226478E+00
        2 -1    0    0  502    0 0.00000000E+00 0.00000000E+00 0.27905447E+03 0.27905466E+03 0.32000000E+00 0.0000E+00 0.9000E+01
       -1 -1    0    0    0  501 0.00000000E+00 0.00000000E+00 -.28826941E+03 0.28826959E+03 0.32000000E+00 0.0000E+00 0.9000E+01
       25  1    1    2    0    0 -.61923861E+02 0.17068381E+03 0.18229501E+03 0.28604894E+03 0.12500000E+03 0.0000E+00 0.9000E+01
       24  1    1    2    0    0 0.47428249E+02 -.12541031E+03 -.16289087E+03 0.22578272E+03 0.80419002E+02 0.0000E+00 0.9000E+01
       21  1    1    2  502  501 0.14495612E+02 -.45273502E+02 -.28619076E+02 0.55492583E+02 0.75000000E+00 0.0000E+00 0.9000E+01
#aMCatNLO 1  0  0  1  1 0.45585467D+02 0.00000000D+00  -5  6  0 0.00000000D+00 0.00000000D+00 0.00000000D+00 0.00000000D+00 0.00000000D+00
  <mgrwgt>
 0.2802815584D+00    7    4    0
 0.283624702474025D+03 0.000000000000000D+00 0.000000000000000D+00 0.283624702474025D+03
 0.283624702474025D+03 0.000000000000000D+00 0.000000000000000D+00 -.283624702474025D+03
 0.289050320165813D+03 -.619245473949882D+02 0.170685952820433D+03 0.186967225811546D+03
 0.223164591033264D+03 0.474277195946664D+02 -.125408653872026D+03 -.159243523211242D+03
 0.550344937489721D+02 0.144968278003217D+02 -.452772989484068D+02 -.277237026003033D+02
 0.000000000000000D+00 0.000000000000000D+00 -.000000000000000D+00 0.000000000000000D+00
 0.309806349684239D+03 0.000000000000000D+00 0.000000000000000D+00 0.309806349684239D+03
 0.305099595911661D+03 0.000000000000000D+00 0.000000000000000D+00 -.305099595911661D+03
 0.299888225223945D+03 -.837020132432823D+02 0.179847649635250D+03 0.186967225811546D+03
 0.216462796184984D+03 0.311714047617085D+02 -.118569684229586D+03 -.159243523211242D+03
 0.527271122671082D+02 0.105120746997763D+02 -.436009285183755D+02 -.277237026003033D+02
 0.458278119198623D+02 0.420185337817974D+02 -.176770368872882D+02 0.470675377257834D+01
 0.283624702474025D+03 0.000000000000000D+00 0.000000000000000D+00 0.283624702474025D+03
 0.283624702474025D+03 0.000000000000000D+00 0.000000000000000D+00 -.283624702474025D+03
 0.289050320165813D+03 -.619245473949882D+02 0.170685952820433D+03 0.186967225811546D+03
 0.223164591033264D+03 0.474277195946664D+02 -.125408653872026D+03 -.159243523211242D+03
 0.000000000000000D+00 0.000000000000000D+00 -.000000000000000D+00 0.000000000000000D+00
 0.550344937489721D+02 0.144968278003217D+02 -.452772989484068D+02 -.277237026003033D+02
 0.309806349684239D+03 0.000000000000000D+00 0.000000000000000D+00 0.309806349684239D+03
 0.305099595911661D+03 0.000000000000000D+00 0.000000000000000D+00 -.305099595911661D+03
 0.299888225223945D+03 -.837020132432823D+02 0.179847649635250D+03 0.186967225811546D+03
 0.216462796184984D+03 0.311714047617085D+02 -.118569684229586D+03 -.159243523211242D+03
 0.458278119198623D+02 0.420185337817974D+02 -.176770368872882D+02 0.470675377257834D+01
 0.527271122671082D+02 0.105120746997763D+02 -.436009285183755D+02 -.277237026003033D+02
0.142297518391D-02 0.000000000000D+00 0.000000000000D+00 0.389119042709D-05 0.000000000000D+00  6 2 -1 25 24 21 21 2 0.42931485D-01 0.44349168D-01 0.45013142D+05 0.45013142D+05 0.45013142D+05 0.11968274D+01  1  2  2  1  6  1        2 0.141170427018D+00 0.100000000000D+01
0.132328124719D-03 0.750924635040D-04 -.546459938420D-05 0.389119042709D-05 0.000000000000D+00  6 2 -1 25 24 21 21 4 0.42931485D-01 0.44349168D-01 0.45013142D+05 0.45013142D+05 0.45013142D+05 0.11968274D+01  1  2  3  1  6  1        2 0.188044933610D-01 0.100000000000D+01
0.226078388502D-04 0.000000000000D+00 0.000000000000D+00 0.389119042709D-05 0.000000000000D+00  6 2 -1 25 24 21 21 4 0.42931485D-01 0.44349168D-01 0.45013142D+05 0.45013142D+05 0.45013142D+05 0.11968274D+01  1  2 15  1  6  1        2 0.321268782784D-02 0.100000000000D+01
-.370976352934D-03 0.000000000000D+00 0.000000000000D+00 0.389119042709D-05 0.000000000000D+00  6 2 -1 25 24 21 21 4 0.42931485D-01 0.44349168D-01 0.45013142D+05 0.45013142D+05 0.45013142D+05 0.11968274D+01  1  2  4  1  6  1        2 -.527176092056D-01 0.100000000000D+01
-.903307266211D-02 0.000000000000D+00 -.253947334204D-02 0.389119042709D-05 0.000000000000D+00  6 2 -1 25 24 21 21 4 0.50087586D-01 0.44349168D-01 0.45013142D+05 0.45013142D+05 0.45013142D+05 0.11968274D+01  1  2  5  1  6  1        2 -.108763523889D+01 0.100000000000D+01
0.934320687471D-02 0.000000000000D+00 0.250959064590D-02 0.389119042709D-05 0.000000000000D+00  6 2 -1 25 24 21 21 4 0.42931485D-01 0.44349168D-01 0.45013142D+05 0.45013142D+05 0.45013142D+05 0.11968274D+01  1  2  6  1  6  1        2 0.132771677993D+01 0.100000000000D+01
-.192150862362D-03 0.000000000000D+00 -.592240827509D-04 0.389119042709D-05 0.000000000000D+00  6 21 -1 25 24 -2 21 4 0.50087586D-01 0.44349168D-01 0.45013142D+05 0.45013142D+05 0.45013142D+05 0.11968274D+01  3  4  5  4  5  1        2 -.702699816222D-01 0.100000000000D+01
  </mgrwgt>
  </event>
  <event>
  6     66 0.42622971E-03 0.35385852E+02 0.75467711E-02 0.11467777E+00
        2 -1    0    0  502    0 0.00000000E+00 0.00000000E+00 0.13029833E+04 0.13029833E+04 0.32000000E+00 0.0000E+00 0.9000E+01
       21 -1    0    0  503  501 0.00000000E+00 0.00000000E+00 -.43234493E+02 0.43240998E+02 0.75000000E+00 0.0000E+00 0.9000E+01
       25  1    1    2    0    0 -.48509208E+02 -.12139863E+03 0.61486209E+03 0.64091431E+03 0.12500000E+03 0.0000E+00 0.9000E+01
       24  1    1    2    0    0 0.51277901E+02 0.89626105E+02 0.55246283E+03 0.56775404E+03 0.80419002E+02 0.0000E+00 0.9000E+01
        1  1    1    2  503    0 0.39808420E+02 -.36280829E+01 0.63619178E+02 0.75135714E+02 0.32000000E+00 0.0000E+00 0.9000E+01
       21  1    1    2  502  501 -.42577112E+02 0.35400604E+02 0.28804678E+02 0.62420231E+02 0.75000000E+00 0.0000E+00 0.9000E+01
#aMCatNLO 2  0  0  2  1 0.39973407D+02 0.00000000D+00  -5  6  0 0.00000000D+00 0.00000000D+00 0.00000000D+00 0.00000000D+00 0.00000000D+00
  <mgrwgt>
 0.4630945781D-01    1    2    0
 0.214092456089801D+03 0.000000000000000D+00 0.000000000000000D+00 0.214092456089801D+03
 0.214092456089801D+03 0.000000000000000D+00 0.000000000000000D+00 -.214092456089801D+03
 0.181495590357878D+03 -.315474568155308D+02 -.122944867502323D+03 0.347126323211486D+02
 0.146116254413239D+03 0.646187329504981D+02 0.884099416981266D+02 0.537665826530761D+02
 0.000000000000000D+00 0.000000000000000D+00 -.000000000000000D+00 -.000000000000000D+00
 0.100573067408485D+03 -.330712761349673D+02 0.345349258041961D+02 -.884792149742247D+02
 0.227115599736936D+03 0.000000000000000D+00 0.000000000000000D+00 0.227115599736936D+03
 0.248058481718710D+03 0.000000000000000D+00 0.000000000000000D+00 -.248058481718710D+03
 0.184176003482807D+03 -.485088547360654D+02 -.121399029767256D+03 0.347126323211486D+02
 0.141493090981961D+03 0.512781928727861D+02 0.896257795880760D+02 0.537665826530761D+02
 0.451273487426825D+02 0.398084201294558D+02 -.362808291496986D+01 -.209428819817744D+02
 0.104377638248195D+03 -.425777582661766D+02 0.354013330941500D+02 -.884792149742247D+02
0.604216370680D-05 0.000000000000D+00 0.000000000000D+00 0.952438462856D-05 0.280887091816D-08  6 2 21 25 24 1 21 4 0.20045898D+00 0.66519476D-02 0.41432739D+05 0.41432739D+05 0.41432739D+05 0.12004513D+01  1  2  1  5  5  2       -1 0.463094578098D-01 0.100000000000D+01
  </mgrwgt>
  </event>
  <event>
  5     66 0.42622971E-03 0.30151687E+02 0.75467711E-02 0.11009029E+00
        2 -1    0    0  502    0 0.00000000E+00 0.00000000E+00 0.31892424E+03 0.31892440E+03 0.32000000E+00 0.0000E+00 0.9000E+01
       -1 -1    0    0    0  501 0.00000000E+00 0.00000000E+00 -.63815883E+02 0.63816686E+02 0.32000000E+00 0.0000E+00 0.9000E+01
       25  1    1    2    0    0 -.46046239E+02 0.20146394E+02 0.89750879E+02 0.16188377E+03 0.12500000E+03 0.0000E+00 0.9000E+01
       24  1    1    2    0    0 0.73218419E+02 -.33200811E+02 0.11223050E+03 0.15976900E+03 0.80419002E+02 0.0000E+00 0.9000E+01
       21  1    1    2  502  501 -.27172181E+02 0.13054417E+02 0.53126972E+02 0.61088320E+02 0.75000000E+00 0.0000E+00 0.9000E+01
#aMCatNLO 1  0  0  2  5 0.25406889D+02 0.00000000D+00  -5  6  0 0.00000000D+00 0.00000000D+00 0.00000000D+00 0.00000000D+00 0.00000000D+00
  <mgrwgt>
 0.1905168386D+00    5    4    0
 0.142662595479879D+03 0.000000000000000D+00 0.000000000000000D+00 0.142662595479879D+03
 0.142662595479879D+03 0.000000000000000D+00 0.000000000000000D+00 -.142662595479879D+03
 0.136907315345943D+03 -.460431470011406D+02 0.201449090140318D+02 -.243479824683939D+02
 0.113974389655100D+03 0.732209934051440D+02 -.332020477926822D+02 0.769777175670637D+01
 0.344434859587140D+02 -.271778464040034D+02 0.130571387786504D+02 0.166502107116876D+02
 0.000000000000000D+00 0.000000000000000D+00 0.000000000000000D+00 -.000000000000000D+00
 0.221687108107526D+03 0.000000000000000D+00 0.000000000000000D+00 0.221687108107526D+03
 0.378611083505220D+03 0.000000000000000D+00 0.000000000000000D+00 -.378611083505220D+03
 0.190844384997935D+03 -.140806112416266D+03 -.194266245440770D+02 -.243479824683939D+02
 0.100729178718564D+03 0.111436744989399D+02 -.591245661260118D+02 0.769777175670637D+01
 0.558731346272470D+02 -.532911229606732D+02 0.215264254377958D+01 0.166502107116876D+02
 0.252851493269001D+03 0.182953560877999D+03 0.763985481263093D+02 -.156923975397694D+03
 0.142662595479879D+03 0.000000000000000D+00 0.000000000000000D+00 0.142662595479879D+03
 0.142662595479879D+03 0.000000000000000D+00 0.000000000000000D+00 -.142662595479879D+03
 0.136907315345943D+03 -.460431470011406D+02 0.201449090140318D+02 -.243479824683939D+02
 0.113974389655100D+03 0.732209934051440D+02 -.332020477926822D+02 0.769777175670637D+01
 0.000000000000000D+00 0.000000000000000D+00 0.000000000000000D+00 -.000000000000000D+00
 0.344434859587140D+02 -.271778464040034D+02 0.130571387786504D+02 0.166502107116876D+02
 0.221687108107526D+03 0.000000000000000D+00 0.000000000000000D+00 0.221687108107526D+03
 0.378611083505220D+03 0.000000000000000D+00 0.000000000000000D+00 -.378611083505220D+03
 0.190844384997935D+03 -.140806112416266D+03 -.194266245440770D+02 -.243479824683939D+02
 0.100729178718564D+03 0.111436744989399D+02 -.591245661260118D+02 0.769777175670637D+01
 0.252851493269001D+03 0.182953560877999D+03 0.763985481263093D+02 -.156923975397694D+03
 0.558731346272470D+02 -.532911229606732D+02 0.215264254377958D+01 0.166502107116876D+02
0.133641642012D-03 0.000000000000D+00 0.000000000000D+00 0.244442434068D-04 0.000000000000D+00  6 2 -1 25 24 21 21 2 0.49065341D-01 0.98179023D-02 0.19403193D+05 0.19403193D+05 0.19403193D+05 0.12352771D+01  1  2  2  2  6  2       -1 0.142373503302D+00 0.100000000000D+01
0.157244330612D-04 0.705246320445D-05 -.513219093978D-06 0.244442434068D-04 0.000000000000D+00  6 2 -1 25 24 21 21 4 0.49065341D-01 0.98179023D-02 0.19403193D+05 0.19403193D+05 0.19403193D+05 0.12352771D+01  1  2  3  2  6  2       -1 0.255617842179D-01 0.100000000000D+01
0.428022663952D-05 0.000000000000D+00 0.000000000000D+00 0.244442434068D-04 0.000000000000D+00  6 2 -1 25 24 21 21 4 0.49065341D-01 0.98179023D-02 0.19403193D+05 0.19403193D+05 0.19403193D+05 0.12352771D+01  1  2 15  2  6  2       -1 0.695797612146D-02 0.100000000000D+01
0.287851417184D-04 0.000000000000D+00 -.853317579962D-04 0.244442434068D-04 0.000000000000D+00  6 2 -1 25 24 21 21 4 0.49065341D-01 0.39397842D-01 0.19403193D+05 0.19403193D+05 0.19403193D+05 0.12352771D+01  1  2  5  2  6  2       -1 0.496207182405D-02 0.100000000000D+01
0.572661148927D-05 0.000000000000D+00 -.141559330894D-04 0.244442434068D-04 0.000000000000D+00  6 2 21 25 24 1 21 4 0.49065341D-01 0.39397842D-01 0.19403193D+05 0.19403193D+05 0.19403193D+05 0.12352771D+01  3  4  5  5  5  2       -1 0.106615031703D-01 0.100000000000D+01
  </mgrwgt>
  </event>
  <event>
  6     66 -.42622971E-03 0.13761344E+02 0.75467711E-02 0.12370284E+00
        2 -1    0    0  502    0 0.00000000E+00 0.00000000E+00 0.54567046E+03 0.54567056E+03 0.32000000E+00 0.0000E+00 0.9000E+01
       -1 -1    0    0    0  501 0.00000000E+00 0.00000000E+00 -.28720043E+02 0.28721826E+02 0.32000000E+00 0.0000E+00 0.9000E+01
       25  1    1    2    0    0 0.33472654E+02 0.25856822E+00 0.28142756E+03 0.30975306E+03 0.12500000E+03 0.0000E+00 0.9000E+01
       24  1    1    2    0    0 -.25981923E+02 0.70085828E+00 0.14371268E+03 0.16672163E+03 0.80419002E+02 0.0000E+00 0.9000E+01
       21  1    1    2  502  503 -.20646810E+02 -.97367278E+00 0.51071340E+02 0.55100663E+02 0.75000000E+00 0.0000E+00 0.9000E+01
       21  1    1    2  503  501 0.13156079E+02 0.14246282E-01 0.40738847E+02 0.42817038E+02 0.75000000E+00 0.0000E+00 0.9000E+01
#aMCatNLO 2  0  0  5  2 0.14087885D+02 0.00000000D+00  -5  6  0 0.00000000D+00 0.00000000D+00 0.00000000D+00 0.00000000D+00 0.00000000D+00
  <mgrwgt>
 -.8678544847D+00    2    2    0
 0.125188730371306D+03 0.000000000000000D+00 0.000000000000000D+00 0.125188730371306D+03
 0.125188730371306D+03 -.000000000000000D+00 -.000000000000000D+00 -.125188730371306D+03
 0.131947223480276D+03 0.420725291237141D+02 0.136005585808047D+01 -.362247503110122D+01
 0.855558727855466D+02 -.203479273036217D+02 0.142247065710561D+01 -.208932966619033D+02
 0.328743644767895D+02 -.217246018200924D+02 -.278252651518608D+01 0.245157716930046D+02
 0.000000000000000D+00 0.000000000000000D+00 0.000000000000000D+00 0.000000000000000D+00
 0.125188730371306D+03 0.000000000000000D+00 0.000000000000000D+00 0.125188730371306D+03
 0.125188730371306D+03 -.000000000000000D+00 -.000000000000000D+00 -.125188730371306D+03
 0.129503153824080D+03 0.332564523071895D+02 0.230876704186428D+00 0.632628850674244D+01
 0.857718513846556D+02 -.261250785652032D+02 0.682522615677110D+00 -.143738988594591D+02
 0.204492308069328D+02 -.203581857803412D+02 -.825060085203036D+00 0.174200694146881D+01
 0.146532247269430D+02 0.132268120383550D+02 -.883392346604997D-01 0.630560341124783D+01
-.348871586786D-03 0.000000000000D+00 0.000000000000D+00 0.547496482101D-04 0.000000000000D+00  6 2 -1 25 24 21 21 4 0.83949447D-01 0.44186125D-02 0.15315227D+05 0.15315227D+05 0.15315227D+05 0.12467942D+01  1  2 13  3  6  5       21 -.108037756978D+01 0.100000000000D+01
0.686271799631D-04 0.000000000000D+00 0.000000000000D+00 0.551374035554D-04 0.742320977904D-06  6 2 -1 25 24 21 21 4 0.83949447D-01 0.44186125D-02 0.15315227D+05 0.15315227D+05 0.15315227D+05 0.12467942D+01  1  2  1  3  6  5       21 0.212523085049D+00 0.100000000000D+01
  </mgrwgt>
  </event>
  <event>
  5     66 0.42622971E-03 0.37589410E+02 0.75467711E-02 0.11986709E+00
        2 -1    0    0  502    0 0.00000000E+00 0.00000000E+00 0.79550819E+03 0.79550825E+03 0.32000000E+00 0.0000E+00 0.9000E+01
       -1 -1    0    0    0  501 0.00000000E+00 0.00000000E+00 -.31870309E+02 0.31871916E+02 0.32000000E+00 0.0000E+00 0.9000E+01
       25  1    1    2    0    0 -.18802092E+02 -.82716348E+02 0.26585562E+03 0.30577724E+03 0.12500000E+03 0.0000E+00 0.9000E+01
       24  1    1    2    0    0 -.17755552E+02 0.73984808E+02 0.28931517E+03 0.30977330E+03 0.80419002E+02 0.0000E+00 0.9000E+01
       21  1    1    2  502  501 0.36557644E+02 0.87315394E+01 0.20846709E+03 0.21182963E+03 0.75000000E+00 0.0000E+00 0.9000E+01
#aMCatNLO 1  0  0  5  2 0.11284757D+02 0.00000000D+00  -5  6  0 0.00000000D+00 0.00000000D+00 0.00000000D+00 0.00000000D+00 0.00000000D+00
  <mgrwgt>
 0.4415368576D+00   20    2    0
 0.159228713338243D+03 0.000000000000000D+00 0.000000000000000D+00 0.159228713338243D+03
 0.159228713338243D+03 -.000000000000000D+00 -.000000000000000D+00 -.159228713338243D+03
 0.156934385527272D+03 -.188040817482476D+02 -.827168231489989D+02 -.425174674523889D+02
 0.111061082682933D+03 -.177569602002783D+02 0.739844720316130D+02 0.885078499252234D+01
 0.504619584662810D+02 0.365610419485259D+02 0.873235111738595D+01 0.336666824598666D+02
 0.000000000000000D+00 0.000000000000000D+00 0.000000000000000D+00 0.000000000000000D+00
 0.159228713338243D+03 0.000000000000000D+00 0.000000000000000D+00 0.159228713338243D+03
 0.159228713338243D+03 -.000000000000000D+00 -.000000000000000D+00 -.159228713338243D+03
 0.155652525171721D+03 -.161389613429732D+02 -.820802776374751D+02 -.400633316395199D+02
 0.111229369827587D+03 -.158617086698841D+02 0.744371397056488D+02 0.105959986969127D+02
 0.375109774106318D+02 0.284964787372115D+02 -.479577471857739D+01 0.239170372481468D+02
 0.140645542665465D+02 0.350419127564579D+01 0.124389126504037D+02 0.555029569446033D+01
0.160302903341D-03 0.000000000000D+00 0.000000000000D+00 0.151538886372D-04 0.000000000000D+00  6 2 -1 25 24 21 21 2 0.12238600D+00 0.49032530D-02 0.22404456D+05 0.22404456D+05 0.22404456D+05 0.12284347D+01  1  2  2  3  6  5       21 0.173073622220D+00 0.100000000000D+01
0.107183633297D-04 0.845941661865D-05 -.615605357553D-06 0.151538886372D-04 0.000000000000D+00  6 2 -1 25 24 21 21 4 0.12238600D+00 0.49032530D-02 0.22404456D+05 0.22404456D+05 0.22404456D+05 0.12284347D+01  1  2  3  3  6  5       21 0.174631315698D-01 0.100000000000D+01
0.335334266222D-05 0.000000000000D+00 0.000000000000D+00 0.151538886372D-04 0.000000000000D+00  6 2 -1 25 24 21 21 4 0.12238600D+00 0.49032530D-02 0.22404456D+05 0.22404456D+05 0.22404456D+05 0.12284347D+01  1  2 15  3  6  5       21 0.546350802895D-02 0.100000000000D+01
0.115222706696D-03 0.000000000000D+00 0.000000000000D+00 0.151261973848D-04 0.000000000000D+00  6 2 -1 25 24 21 21 4 0.12238600D+00 0.49032530D-02 0.22944985D+05 0.22944985D+05 0.22944985D+05 0.12273118D+01  1  2 12  3  6  5       21 0.187152707852D+00 0.100000000000D+01
0.146811088308D-03 0.000000000000D+00 0.000000000000D+00 0.151261973848D-04 0.000000000000D+00  6 2 -1 25 24 21 21 4 0.12238600D+00 0.49032530D-02 0.22944985D+05 0.22944985D+05 0.22944985D+05 0.12273118D+01  1  2 12  3  6  5       21 0.238460747081D+00 0.100000000000D+01
-.218394804394D-03 0.000000000000D+00 0.000000000000D+00 0.151538886372D-04 0.000000000000D+00  6 2 -1 25 24 21 21 4 0.12238600D+00 0.49032530D-02 0.22404456D+05 0.22404456D+05 0.22404456D+05 0.12284347D+01  1  2  4  3  6  5       21 -.355824586832D+00 0.100000000000D+01
-.212092803696D-03 0.000000000000D+00 0.000000000000D+00 0.151538886372D-04 0.000000000000D+00  6 2 -1 25 24 21 21 4 0.12238600D+00 0.49032530D-02 0.22404456D+05 0.22404456D+05 0.22404456D+05 0.12284347D+01  1  2  5  3  6  5       21 -.345556912191D+00 0.100000000000D+01
0.328544724013D-03 0.000000000000D+00 -.000000000000D+00 0.151538886372D-04 0.000000000000D+00  6 2 -1 25 24 21 21 4 0.12238600D+00 0.49032530D-02 0.22404456D+05 0.22404456D+05 0.22404456D+05 0.12284347D+01  1  2  6  3  6  5       21 0.535288790417D+00 0.100000000000D+01
0.206213423900D-05 0.000000000000D+00 0.000000000000D+00 0.151261973848D-04 0.000000000000D+00  6 2 -1 25 24 1 -1 4 0.12238600D+00 0.49032530D-02 0.22944985D+05 0.22944985D+05 0.22944985D+05 0.12273118D+01  1  2 12  6  6  5       21 0.334946138525D-02 0.100000000000D+01
0.245713114015D-05 0.000000000000D+00 0.000000000000D+00 0.151261973848D-04 0.000000000000D+00  6 2 -1 25 24 1 -1 4 0.12238600D+00 0.49032530D-02 0.22944985D+05 0.22944985D+05 0.22944985D+05 0.12273118D+01  1  2 12  6  6  5       21 0.399104273465D-02 0.100000000000D+01
-.665115482198D-05 0.000000000000D+00 0.000000000000D+00 0.151538886372D-04 0.000000000000D+00  6 2 -1 25 24 1 -1 4 0.12238600D+00 0.49032530D-02 0.22404456D+05 0.22404456D+05 0.22404456D+05 0.12284347D+01  1  2  5  6  6  5       21 -.108365417531D-01 0.100000000000D+01
0.206213423900D-05 0.000000000000D+00 0.000000000000D+00 0.151261973848D-04 0.000000000000D+00  6 2 -1 25 24 2 -2 4 0.12238600D+00 0.49032530D-02 0.22944985D+05 0.22944985D+05 0.22944985D+05 0.12273118D+01  1  2 12  7  6  5       21 0.334946138525D-02 0.100000000000D+01
0.245713114015D-05 0.000000000000D+00 0.000000000000D+00 0.151261973848D-04 0.000000000000D+00  6 2 -1 25 24 2 -2 4 0.12238600D+00 0.49032530D-02 0.22944985D+05 0.22944985D+05 0.22944985D+05 0.12273118D+01  1  2 12  7  6  5       21 0.399104273465D-02 0.100000000000D+01
-.665115482198D-05 0.000000000000D+00 0.000000000000D+00 0.151538886372D-04 0.000000000000D+00  6 2 -1 25 24 2 -2 4 0.12238600D+00 0.49032530D-02 0.22404456D+05 0.22404456D+05 0.22404456D+05 0.12284347D+01  1  2  5  7  6  5       21 -.108365417531D-01 0.100000000000D+01
0.206213423900D-05 0.000000000000D+00 0.000000000000D+00 0.151261973848D-04 0.000000000000D+00  6 2 -1 25 24 3 -3 4 0.12238600D+00 0.49032530D-02 0.22944985D+05 0.22944985D+05 0.22944985D+05 0.12273118D+01  1  2 12  8  6  5       21 0.334946138525D-02 0.100000000000D+01
0.206213423900D-05 0.000000000000D+00 0.000000000000D+00 0.151261973848D-04 0.000000000000D+00  6 2 -1 25 24 4 -4 4 0.12238600D+00 0.49032530D-02 0.22944985D+05 0.22944985D+05 0.22944985D+05 0.12273118D+01  1  2 12  8  6  5       21 0.334946138525D-02 0.100000000000D+01
0.245713114015D-05 0.000000000000D+00 0.000000000000D+00 0.151261973848D-04 0.000000000000D+00  6 2 -1 25 24 3 -3 4 0.12238600D+00 0.49032530D-02 0.22944985D+05 0.22944985D+05 0.22944985D+05 0.12273118D+01  1  2 12  8  6  5       21 0.399104273465D-02 0.100000000000D+01
0.245713114015D-05 0.000000000000D+00 0.000000000000D+00 0.151261973848D-04 0.000000000000D+00  6 2 -1 25 24 4 -4 4 0.12238600D+00 0.49032530D-02 0.22944985D+05 0.22944985D+05 0.22944985D+05 0.12273118D+01  1  2 12  8  6  5       21 0.399104273465D-02 0.100000000000D+01
-.665115482198D-05 0.000000000000D+00 0.000000000000D+00 0.151538886372D-04 0.000000000000D+00  6 2 -1 25 24 3 -3 4 0.12238600D+00 0.49032530D-02 0.22404456D+05 0.22404456D+05 0.22404456D+05 0.12284347D+01  1  2  5  8  6  5       21 -.108365417531D-01 0.100000000000D+01
-.665115482198D-05 0.000000000000D+00 0.000000000000D+00 0.151538886372D-04 0.000000000000D+00  6 2 -1 25 24 4 -4 4 0.12238600D+00 0.49032530D-02 0.22404456D+05 0.22404456D+05 0.22404456D+05 0.12284347D+01  1  2  5  8  6  5       21 -.108365417531D-01 0.100000000000D+01
  </mgrwgt>
  </event>
  <event>
  5     66 0.42622971E-03 0.36726402E+02 0.75467711E-02 0.11959461E+00
        2 -1    0    0  502    0 0.00000000E+00 0.00000000E+00 0.98751319E+02 0.98751837E+02 0.32000000E+00 0.0000E+00 0.9000E+01
       -1 -1    0    0    0  501 -.00000000E+00 -.00000000E+00 -.27900582E+03 0.27900600E+03 0.32000000E+00 0.0000E+00 0.9000E+01
       25  1    1    2    0    0 0.32185364E+02 -.81403662E+02 -.19855220E+02 0.15388854E+03 0.12500000E+03 0.0000E+00 0.9000E+01
       24  1    1    2    0    0 0.39222878E+01 0.88083108E+02 -.12610768E+03 0.17362137E+03 0.80419002E+02 0.0000E+00 0.9000E+01
       21  1    1    2  502  501 -.36107652E+02 -.66794463E+01 -.34291599E+02 0.50247924E+02 0.75000000E+00 0.0000E+00 0.9000E+01
#aMCatNLO 1  0  0  5  1 0.13824933D+02 0.00000000D+00  -5  6  0 0.00000000D+00 0.00000000D+00 0.00000000D+00 0.00000000D+00 0.00000000D+00
  <mgrwgt>
 0.2942248397D+00   14    2    0
 0.165988931286058D+03 0.000000000000000D+00 0.000000000000000D+00 0.165988931286058D+03
 0.165988931286058D+03 -.000000000000000D+00 -.000000000000000D+00 -.165988931286058D+03
 0.164329822968048D+03 0.321887464042742D+02 -.814030363711524D+02 0.609649160680817D+02
 0.129091099009832D+03 0.392494475754481D+01 0.880835998178439D+02 -.492257060993134D+02
 0.385569405942347D+02 -.361136911618190D+02 -.668056344669151D+01 -.117392099687684D+02
 0.000000000000000D+00 0.000000000000000D+00 0.000000000000000D+00 0.000000000000000D+00
 0.165988931286058D+03 0.000000000000000D+00 0.000000000000000D+00 0.165988931286058D+03
 0.165988931286058D+03 -.000000000000000D+00 -.000000000000000D+00 -.165988931286058D+03
 0.162418947872075D+03 0.222002596214178D+02 -.832507765921758D+02 0.577180326883460D+02
 0.129108261655694D+03 -.396803336971329D+01 0.866235014599600D+02 -.517914180089489D+02
 0.263187407562218D+02 -.221868980208412D+02 0.935481592931145D+01 -.106256806904172D+02
 0.141319122881252D+02 0.395467176913663D+01 -.127275407970957D+02 0.469906601102004D+01
0.357838206076D-03 0.000000000000D+00 0.000000000000D+00 0.129653266529D-04 0.000000000000D+00  6 2 -1 25 24 21 21 2 0.15192565D-01 0.42924026D-01 0.23818698D+05 0.23818698D+05 0.23818698D+05 0.12255579D+01  1  2  2  3  6  5       21 0.124853940849D+00 0.100000000000D+01
0.354258102221D-04 0.188836409334D-04 -.137419293230D-05 0.129653266529D-04 0.000000000000D+00  6 2 -1 25 24 21 21 4 0.15192565D-01 0.42924026D-01 0.23818698D+05 0.23818698D+05 0.23818698D+05 0.12255579D+01  1  2  3  3  6  5       21 0.185653442308D-01 0.100000000000D+01
0.129201519364D-04 0.000000000000D+00 0.000000000000D+00 0.129653266529D-04 0.000000000000D+00  6 2 -1 25 24 21 21 4 0.15192565D-01 0.42924026D-01 0.23818698D+05 0.23818698D+05 0.23818698D+05 0.12255579D+01  1  2 15  3  6  5       21 0.677096915244D-02 0.100000000000D+01
0.223782296642D-03 0.000000000000D+00 0.000000000000D+00 0.129729053384D-04 0.000000000000D+00  6 2 -1 25 24 21 21 4 0.15192565D-01 0.42924026D-01 0.23637311D+05 0.23637311D+05 0.23637311D+05 0.12259160D+01  1  2 12  3  6  5       21 0.117395227737D+00 0.100000000000D+01
0.185018158878D-03 0.000000000000D+00 0.000000000000D+00 0.129729053384D-04 0.000000000000D+00  6 2 -1 25 24 21 21 4 0.15192565D-01 0.42924026D-01 0.23637311D+05 0.23637311D+05 0.23637311D+05 0.12259160D+01  1  2 12  3  6  5       21 0.970597282395D-01 0.100000000000D+01
-.164084949679D-03 0.000000000000D+00 0.000000000000D+00 0.129653266529D-04 0.000000000000D+00  6 2 -1 25 24 21 21 4 0.15192565D-01 0.42924026D-01 0.23818698D+05 0.23818698D+05 0.23818698D+05 0.12255579D+01  1  2  4  3  6  5       21 -.859907947001D-01 0.100000000000D+01
0.393962869337D-05 0.000000000000D+00 0.000000000000D+00 0.129729053384D-04 0.000000000000D+00  6 2 -1 25 24 1 -1 4 0.15192565D-01 0.42924026D-01 0.23637311D+05 0.23637311D+05 0.23637311D+05 0.12259160D+01  1  2 12  6  6  5       21 0.206671222253D-02 0.100000000000D+01
0.348057345506D-05 0.000000000000D+00 0.000000000000D+00 0.129729053384D-04 0.000000000000D+00  6 2 -1 25 24 1 -1 4 0.15192565D-01 0.42924026D-01 0.23637311D+05 0.23637311D+05 0.23637311D+05 0.12259160D+01  1  2 12  6  6  5       21 0.182589382423D-02 0.100000000000D+01
0.393962869337D-05 0.000000000000D+00 0.000000000000D+00 0.129729053384D-04 0.000000000000D+00  6 2 -1 25 24 2 -2 4 0.15192565D-01 0.42924026D-01 0.23637311D+05 0.23637311D+05 0.23637311D+05 0.12259160D+01  1  2 12  7  6  5       21 0.206671222253D-02 0.100000000000D+01
0.348057345506D-05 0.000000000000D+00 0.000000000000D+00 0.129729053384D-04 0.000000000000D+00  6 2 -1 25 24 2 -2 4 0.15192565D-01 0.42924026D-01 0.23637311D+05 0.23637311D+05 0.23637311D+05 0.12259160D+01  1  2 12  7  6  5       21 0.182589382423D-02 0.100000000000D+01
0.393962869337D-05 0.000000000000D+00 0.000000000000D+00 0.129729053384D-04 0.000000000000D+00  6 2 -1 25 24 3 -3 4 0.15192565D-01 0.42924026D-01 0.23637311D+05 0.23637311D+05 0.23637311D+05 0.12259160D+01  1  2 12  8  6  5       21 0.206671222253D-02 0.100000000000D+01
0.393962869337D-05 0.000000000000D+00 0.000000000000D+00 0.129729053384D-04 0.000000000000D+00  6 2 -1 25 24 4 -4 4 0.15192565D-01 0.42924026D-01 0.23637311D+05 0.23637311D+05 0.23637311D+05 0.12259160D+01  1  2 12  8  6  5       21 0.206671222253D-02 0.100000000000D+01
0.348057345506D-05 0.000000000000D+00 0.000000000000D+00 0.129729053384D-04 0.000000000000D+00  6 2 -1 25 24 3 -3 4 0.15192565D-01 0.42924026D-01 0.23637311D+05 0.23637311D+05 0.23637311D+05 0.12259160D+01  1  2 12  8  6  5       21 0.182589382423D-02 0.100000000000D+01
0.348057345506D-05 0.000000000000D+00 0.000000000000D+00 0.129729053384D-04 0.000000000000D+00  6 2 -1 25 24 4 -4 4 0.15192565D-01 0.42924026D-01 0.23637311D+05 0.23637311D+05 0.23637311D+05 0.12259160D+01  1  2 12  8  6  5       21 0.182589382423D-02 0.100000000000D+01
  </mgrwgt>
  </event>
  <event>
  5     66 0.42622971E-03 0.39708883E+02 0.75467711E-02 0.11813233E+00
        2 -1    0    0  502    0 0.00000000E+00 0.00000000E+00 0.54216108E+03 0.54216118E+03 0.32000000E+00 0.0000E+00 0.9000E+01
       -1 -1    0    0    0  501 0.00000000E+00 0.00000000E+00 -.62226244E+02 0.62227067E+02 0.32000000E+00 0.0000E+00 0.9000E+01
       25  1    1    2    0    0 -.24203144E+02 -.58022087E+02 0.99438326E+02 0.17165470E+03 0.12500000E+03 0.0000E+00 0.9000E+01
       24  1    1    2    0    0 0.48928678E+02 0.26951352E+02 0.71618919E+02 0.12131313E+03 0.80419002E+02 0.0000E+00 0.9000E+01
       21  1    1    2  502  501 -.24725534E+02 0.31070736E+02 0.30887760E+03 0.31142041E+03 0.75000000E+00 0.0000E+00 0.9000E+01
#aMCatNLO 1  0  0  2  5 0.15475662D+02 0.00000000D+00  -5  6  0 0.00000000D+00 0.00000000D+00 0.00000000D+00 0.00000000D+00 0.00000000D+00
  <mgrwgt>
 0.7902456700D-01    7    4    0
 0.183676142110617D+03 0.000000000000000D+00 0.000000000000000D+00 0.183676142110617D+03
 0.183676142110617D+03 0.000000000000000D+00 0.000000000000000D+00 -.183676142110617D+03
 0.152503038246640D+03 -.242029000617248D+02 -.580223936798269D+02 -.606613397043094D+02
 0.106023362437524D+03 0.489288475727674D+02 0.269511388306342D+02 -.406613012472643D+02
 0.108825883537070D+03 -.247259475110426D+02 0.310712548491927D+02 0.101322640951574D+03
 0.000000000000000D+00 0.000000000000000D+00 -.000000000000000D+00 -.000000000000000D+00
 0.206929401000568D+03 0.000000000000000D+00 0.000000000000000D+00 0.206929401000568D+03
 0.209152693832487D+03 0.000000000000000D+00 0.000000000000000D+00 -.209152693832487D+03
 0.153618574305903D+03 -.416951110300998D+02 -.505508254457258D+02 -.606613397043094D+02
 0.102552521734473D+03 0.370105340031050D+02 0.320418899787961D+02 -.406613012472643D+02
 0.114028764945965D+03 -.374601693585092D+02 0.365105105049554D+02 0.101322640951574D+03
 0.458822338467144D+02 0.421447463855039D+02 -.180015750380258D+02 -.222329283191903D+01
 0.183676142110617D+03 0.000000000000000D+00 0.000000000000000D+00 0.183676142110617D+03
 0.183676142110617D+03 0.000000000000000D+00 0.000000000000000D+00 -.183676142110617D+03
 0.152503038246640D+03 -.242029000617248D+02 -.580223936798269D+02 -.606613397043094D+02
 0.106023362437524D+03 0.489288475727674D+02 0.269511388306342D+02 -.406613012472643D+02
 0.000000000000000D+00 0.000000000000000D+00 -.000000000000000D+00 -.000000000000000D+00
 0.108825883537070D+03 -.247259475110426D+02 0.310712548491927D+02 0.101322640951574D+03
 0.206929401000568D+03 0.000000000000000D+00 0.000000000000000D+00 0.206929401000568D+03
 0.209152693832487D+03 0.000000000000000D+00 0.000000000000000D+00 -.209152693832487D+03
 0.153618574305903D+03 -.416951110300998D+02 -.505508254457258D+02 -.606613397043094D+02
 0.102552521734473D+03 0.370105340031050D+02 0.320418899787961D+02 -.406613012472643D+02
 0.458822338467144D+02 0.421447463855039D+02 -.180015750380258D+02 -.222329283191903D+01
 0.114028764945965D+03 -.374601693585092D+02 0.365105105049554D+02 0.101322640951574D+03
0.135419902868D-03 0.000000000000D+00 0.000000000000D+00 0.205440091529D-04 0.000000000000D+00  6 2 -1 25 24 21 21 2 0.83409468D-01 0.95733389D-02 0.19257726D+05 0.19257726D+05 0.19257726D+05 0.12356384D+01  1  2  2  2  6  2       -1 0.846285728700D-01 0.100000000000D+01
0.702765361948D-05 0.714630460797D-05 -.520048083892D-06 0.205440091529D-04 0.000000000000D+00  6 2 -1 25 24 21 21 4 0.83409468D-01 0.95733389D-02 0.19257726D+05 0.19257726D+05 0.19257726D+05 0.12356384D+01  1  2  3  2  6  2       -1 0.670544585916D-02 0.100000000000D+01
0.570329581125D-05 0.000000000000D+00 0.000000000000D+00 0.205440091529D-04 0.000000000000D+00  6 2 -1 25 24 21 21 4 0.83409468D-01 0.95733389D-02 0.19257726D+05 0.19257726D+05 0.19257726D+05 0.12356384D+01  1  2 15  2  6  2       -1 0.544180794214D-02 0.100000000000D+01
-.643689703301D-04 0.000000000000D+00 0.000000000000D+00 0.205440091529D-04 0.000000000000D+00  6 2 -1 25 24 21 21 4 0.83409468D-01 0.95733389D-02 0.19257726D+05 0.19257726D+05 0.19257726D+05 0.12356384D+01  1  2  4  2  6  2       -1 -.614177460827D-01 0.100000000000D+01
-.363510958405D-03 0.000000000000D+00 -.142933328725D-03 0.205440091529D-04 0.000000000000D+00  6 2 -1 25 24 21 21 4 0.83409468D-01 0.12270156D-01 0.19257726D+05 0.19257726D+05 0.19257726D+05 0.12356384D+01  1  2  5  2  6  2       -1 -.237004926427D+00 0.100000000000D+01
0.391167812204D-03 0.000000000000D+00 0.138641402158D-03 0.205440091529D-04 0.000000000000D+00  6 2 -1 25 24 21 21 4 0.83409468D-01 0.95733389D-02 0.19257726D+05 0.19257726D+05 0.19257726D+05 0.12356384D+01  1  2  6  2  6  2       -1 0.373233333429D+00 0.100000000000D+01
-.986951520110D-05 0.000000000000D+00 -.481142102108D-05 0.205440091529D-04 0.000000000000D+00  6 2 21 25 24 1 21 4 0.83409468D-01 0.12270156D-01 0.19257726D+05 0.19257726D+05 0.19257726D+05 0.12356384D+01  3  4  5  5  5  2       -1 -.925619205898D-01 0.100000000000D+01
  </mgrwgt>
  </event>
  <event>
  5     66 0.42622971E-03 0.32692770E+02 0.75467711E-02 0.10504800E+00
        2 -1    0    0  502    0 0.00000000E+00 0.00000000E+00 0.19978180E+04 0.19978180E+04 0.32000000E+00 0.0000E+00 0.9000E+01
       -1 -1    0    0    0  501 0.00000000E+00 0.00000000E+00 -.77589641E+02 0.77590301E+02 0.32000000E+00 0.0000E+00 0.9000E+01
       25  1    1    2    0    0 -.28844824E+03 0.20328078E+03 0.95915397E+03 0.10296246E+04 0.12500000E+03 0.0000E+00 0.9000E+01
       24  1    1    2    0    0 0.28550171E+03 -.17072290E+03 0.95229784E+03 0.10119268E+04 0.80419002E+02 0.0000E+00 0.9000E+01
       21  1    1    2  502  501 0.29465272E+01 -.32557884E+02 0.87765222E+01 0.33856870E+02 0.75000000E+00 0.0000E+00 0.9000E+01
#aMCatNLO 1  0  0  1  5 0.12494261D+02 0.00000000D+00  -5  6  0 0.00000000D+00 0.00000000D+00 0.00000000D+00 0.00000000D+00 0.00000000D+00
  <mgrwgt>
 0.2277187893D+01    9    4    0
 0.393713971055197D+03 0.000000000000000D+00 0.000000000000000D+00 0.393713971055197D+03
 0.393713971055197D+03 0.000000000000000D+00 0.000000000000000D+00 -.393713971055197D+03
 0.374761039571145D+03 -.288448321847907D+03 0.203281729897346D+03 0.171738374719737D+02
 0.344833874954403D+03 0.285501630073698D+03 -.170722027513173D+03 0.422610211512982D+02
 0.678330275848456D+02 0.294669177420884D+01 -.325597023841729D+02 -.594348586232719D+02
 0.000000000000000D+00 -.000000000000000D+00 0.000000000000000D+00 0.000000000000000D+00
 0.412342840192505D+03 0.000000000000000D+00 0.000000000000000D+00 0.412342840192505D+03
 0.395864072933258D+03 0.000000000000000D+00 0.000000000000000D+00 -.395864072933258D+03
 0.370726640239902D+03 -.287256665673987D+03 0.197489010114273D+03 0.171738374719737D+02
 0.348443398605463D+03 0.286609828325192D+03 -.176109052794025D+03 0.422610211512982D+02
 0.683570213642869D+02 0.316439049284880D+01 -.336179503098869D+02 -.594348586232719D+02
 0.206798529161113D+02 -.251755314405338D+01 0.122379929896391D+02 0.164787672592463D+02
 0.393713971055197D+03 0.000000000000000D+00 0.000000000000000D+00 0.393713971055197D+03
 0.393713971055197D+03 0.000000000000000D+00 0.000000000000000D+00 -.393713971055197D+03
 0.374761039571145D+03 -.288448321847907D+03 0.203281729897346D+03 0.171738374719737D+02
 0.344833874954403D+03 0.285501630073698D+03 -.170722027513173D+03 0.422610211512982D+02
 0.000000000000000D+00 -.000000000000000D+00 0.000000000000000D+00 0.000000000000000D+00
 0.678330275848456D+02 0.294669177420884D+01 -.325597023841729D+02 -.594348586232719D+02
 0.412342840192505D+03 0.000000000000000D+00 0.000000000000000D+00 0.412342840192505D+03
 0.395864072933258D+03 0.000000000000000D+00 0.000000000000000D+00 -.395864072933258D+03
 0.370726640239902D+03 -.287256665673987D+03 0.197489010114273D+03 0.171738374719737D+02
 0.348443398605463D+03 0.286609828325192D+03 -.176109052794025D+03 0.422610211512982D+02
 0.206798529161113D+02 -.251755314405338D+01 0.122379929896391D+02 0.164787672592463D+02
 0.683570213642869D+02 0.316439049284880D+01 -.336179503098869D+02 -.594348586232719D+02
0.531119027454D-02 0.000000000000D+00 0.000000000000D+00 0.132199459216D-04 0.000000000000D+00  6 2 -1 25 24 21 21 2 0.30735666D+00 0.11936921D-01 0.14036057D+06 0.14036057D+06 0.14036057D+06 0.11502830D+01  1  2  2  1  6  1        2 0.271123129520D+00 0.100000000000D+01
0.170323654729D-02 0.280279211024D-03 -.203963691227D-04 0.132199459216D-04 0.000000000000D+00  6 2 -1 25 24 21 21 4 0.30735666D+00 0.11936921D-01 0.14036057D+06 0.14036057D+06 0.14036057D+06 0.11502830D+01  1  2  3  1  6  1        2 0.115042699102D+00 0.100000000000D+01
0.664182711974D-04 0.000000000000D+00 0.000000000000D+00 0.132199459216D-04 0.000000000000D+00  6 2 -1 25 24 21 21 4 0.30735666D+00 0.11936921D-01 0.14036057D+06 0.14036057D+06 0.14036057D+06 0.11502830D+01  1  2 15  1  6  1        2 0.448612801341D-02 0.100000000000D+01
0.401493439586D-01 0.000000000000D+00 0.000000000000D+00 0.131891840382D-04 0.000000000000D+00  6 2 -1 25 24 21 21 4 0.32708696D+00 0.11936921D-01 0.14533652D+06 0.14533652D+06 0.14533652D+06 0.11489439D+01  1  2 12  1  6  1        2 0.230279366794D+01 0.100000000000D+01
-.302929297897D-01 0.000000000000D+00 0.000000000000D+00 0.132199459216D-04 0.000000000000D+00  6 2 -1 25 24 21 21 4 0.30735666D+00 0.11936921D-01 0.14036057D+06 0.14036057D+06 0.14036057D+06 0.11502830D+01  1  2  4  1  6  1        2 -.204609301759D+01 0.100000000000D+01
-.206420858654D+00 0.000000000000D+00 -.206072471107D-01 0.132199459216D-04 0.000000000000D+00  6 2 -1 25 24 21 21 4 0.32253307D+00 0.11936921D-01 0.14036057D+06 0.14036057D+06 0.14036057D+06 0.11502830D+01  1  2  5  1  6  1        2 -.123501304061D+02 0.100000000000D+01
0.207197274636D+00 0.000000000000D+00 0.205833356192D-01 0.132199459216D-04 0.000000000000D+00  6 2 -1 25 24 21 21 4 0.30735666D+00 0.11936921D-01 0.14036057D+06 0.14036057D+06 0.14036057D+06 0.11502830D+01  1  2  6  1  6  1        2 0.139948463170D+02 0.100000000000D+01
0.842996035179D-03 0.000000000000D+00 0.000000000000D+00 0.131891840382D-04 0.000000000000D+00  6 21 -1 25 24 -2 21 4 0.32708696D+00 0.11936921D-01 0.14533652D+06 0.14533652D+06 0.14533652D+06 0.11489439D+01  3  4 12  4  5  1        2 0.124829992675D-01 0.100000000000D+01
-.172079721802D-02 0.000000000000D+00 -.173475291559D-03 0.132199459216D-04 0.000000000000D+00  6 21 -1 25 24 -2 21 4 0.32253307D+00 0.11936921D-01 0.14036057D+06 0.14036057D+06 0.14036057D+06 0.11502830D+01  3  4  5  4  5  1        2 -.273636241222D-01 0.100000000000D+01
  </mgrwgt>
  </event>
  <event>
  5     66 0.42622971E-03 0.60566464E+02 0.75467711E-02 0.12107547E+00
        2 -1    0    0  502    0 0.00000000E+00 0.00000000E+00 0.99869238E+03 0.99869243E+03 0.32000000E+00 0.0000E+00 0.9000E+01
       -1 -1    0    0    0  501 0.00000000E+00 0.00000000E+00 -.43439340E+02 0.43440519E+02 0.32000000E+00 0.0000E+00 0.9000E+01
       25  1    1    2    0    0 0.65770519E+02 -.18547113E+02 0.83501894E+03 0.84708405E+03 0.12500000E+03 0.0000E+00 0.9000E+01
       24  1    1    2    0    0 -.81839278E+01 -.21407430E+00 0.10514721E+03 0.13262795E+03 0.80419002E+02 0.0000E+00 0.9000E+01
       21  1    1    2  502  501 -.57586592E+02 0.18761187E+02 0.15086887E+02 0.62420945E+02 0.75000000E+00 0.0000E+00 0.9000E+01
#aMCatNLO 1  0  0  1  5 0.12494261D+02 0.00000000D+00  -5  6  0 0.00000000D+00 0.00000000D+00 0.00000000D+00 0.00000000D+00 0.00000000D+00
  <mgrwgt>
 0.1373563867D-01    1    2    0
 0.208286291552458D+03 0.000000000000000D+00 0.000000000000000D+00 0.208286291552458D+03
 0.208286291552458D+03 0.000000000000000D+00 0.000000000000000D+00 -.208286291552458D+03
 0.204334599595912D+03 0.657710569363941D+02 -.185472881902283D+02 0.146484793621318D+03
 0.906773020591353D+02 -.818368917041102D+01 -.214152028197238D+00 -.410869629544950D+02
 0.121560681449868D+03 -.575873677659831D+02 0.187614402184255D+02 -.105397830666823D+03
 0.000000000000000D+00 0.000000000000000D+00 -.000000000000000D+00 -.000000000000000D+00
 0.209301320575058D+03 0.000000000000000D+00 0.000000000000000D+00 0.209301320575058D+03
 0.333987840132644D+03 0.000000000000000D+00 0.000000000000000D+00 -.333987840132644D+03
 0.202546246608798D+03 0.620427302453627D+02 -.963778380816538D+01 0.146484793621318D+03
 0.909202213214482D+02 -.984770186543081D+01 0.376230433592727D+01 -.410869629544950D+02
 0.123575812452740D+03 -.598336001499551D+02 0.241292148064925D+02 -.105397830666823D+03
 0.126246880324715D+03 0.763857177002324D+01 -.182537353342544D+02 -.124686519557586D+03
0.177446446065D-04 0.000000000000D+00 0.000000000000D+00 0.516997882483D-05 0.000000000000D+00  6 2 -1 25 24 21 21 4 0.15364508D+00 0.66830701D-02 0.20144269D+05 0.20144269D+05 0.20144269D+05 0.12334825D+01  1  2 14  1  6  1        2 0.137356386685D-01 0.100000000000D+01
  </mgrwgt>
  </event>
  <event>
  5     66 0.42622971E-03 0.34802978E+02 0.75467711E-02 0.12177510E+00
        2 -1    0    0  502    0 0.00000000E+00 0.00000000E+00 0.38140404E+04 0.38140404E+04 0.32000000E+00 0.0000E+00 0.9000E+01
       -1 -1    0    0    0  501 0.00000000E+00 0.00000000E+00 -.57656343E+01 0.57745077E+01 0.32000000E+00 0.0000E+00 0.9000E+01
       25  1    1    2    0    0 0.65459411E+01 -.34243677E+02 0.24810895E+04 0.24844810E+04 0.12500000E+03 0.0000E+00 0.9000E+01
       24  1    1    2    0    0 -.89795859E+01 0.68954494E+02 0.80496156E+03 0.81195177E+03 0.80419002E+02 0.0000E+00 0.9000E+01
       21  1    1    2  502  501 0.24336448E+01 -.34710817E+02 0.52222368E+03 0.52338217E+03 0.75000000E+00 0.0000E+00 0.9000E+01
#aMCatNLO 1  0  0  2  5 0.25911005D+01 0.00000000D+00  -5  6  0 0.00000000D+00 0.00000000D+00 0.00000000D+00 0.00000000D+00 0.00000000D+00
  <mgrwgt>
 0.2272743697D+00    8    4    0
 0.148348694114395D+03 0.000000000000000D+00 0.000000000000000D+00 0.148348694114395D+03
 0.148348694114395D+03 0.000000000000000D+00 0.000000000000000D+00 -.148348694114395D+03
 0.140164790959233D+03 0.654568040326927D+01 -.342399592905207D+02 0.529711985940205D+02
 0.121306517704590D+03 -.897981150145973D+01 0.689577111464061D+02 -.584144874332605D+02
 0.352260795649673D+02 0.243413109819046D+01 -.347177518558854D+02 0.544328883923997D+01
 0.000000000000000D+00 -.000000000000000D+00 -.000000000000000D+00 0.000000000000000D+00
 0.157464954141710D+03 0.000000000000000D+00 0.000000000000000D+00 0.157464954141710D+03
 0.148538581561358D+03 0.000000000000000D+00 0.000000000000000D+00 -.148538581561358D+03
 0.140000934264249D+03 0.741691847024682D+01 -.333811778519135D+02 0.529711985940205D+02
 0.121678047977145D+03 -.822419657696792D+01 0.697025225779582D+02 -.584144874332605D+02
 0.350297199961603D+02 0.265260724103332D+01 -.345023994012999D+02 0.544328883923997D+01
 0.929483346551253D+01 -.184532913431222D+01 -.181894532474486D+01 0.892637258035194D+01
 0.148348694114395D+03 0.000000000000000D+00 0.000000000000000D+00 0.148348694114395D+03
 0.148348694114395D+03 0.000000000000000D+00 0.000000000000000D+00 -.148348694114395D+03
 0.140164790959233D+03 0.654568040326927D+01 -.342399592905207D+02 0.529711985940205D+02
 0.121306517704590D+03 -.897981150145973D+01 0.689577111464061D+02 -.584144874332605D+02
 0.000000000000000D+00 -.000000000000000D+00 -.000000000000000D+00 0.000000000000000D+00
 0.352260795649673D+02 0.243413109819046D+01 -.347177518558854D+02 0.544328883923997D+01
 0.157464954141710D+03 0.000000000000000D+00 0.000000000000000D+00 0.157464954141710D+03
 0.148538581561358D+03 0.000000000000000D+00 0.000000000000000D+00 -.148538581561358D+03
 0.140000934264249D+03 0.741691847024682D+01 -.333811778519135D+02 0.529711985940205D+02
 0.121678047977145D+03 -.822419657696792D+01 0.697025225779582D+02 -.584144874332605D+02
 0.929483346551253D+01 -.184532913431222D+01 -.181894532474486D+01 0.892637258035194D+01
 0.350297199961603D+02 0.265260724103332D+01 -.345023994012999D+02 0.544328883923997D+01
0.843127117534D-03 0.000000000000D+00 0.000000000000D+00 0.150633336874D-04 0.000000000000D+00  6 2 -1 25 24 21 21 2 0.58677613D+00 0.88770426D-03 0.18345146D+05 0.18345146D+05 0.18345146D+05 0.12379769D+01  1  2  2  2  6  2       -1 0.209406493463D+00 0.100000000000D+01
0.695300642539D-04 0.444930403695D-04 -.323783013180D-05 0.150633336874D-04 0.000000000000D+00  6 2 -1 25 24 21 21 4 0.58677613D+00 0.88770426D-03 0.18345146D+05 0.18345146D+05 0.18345146D+05 0.12379769D+01  1  2  3  2  6  2       -1 0.264663970171D-01 0.100000000000D+01
0.189591254617D-04 0.000000000000D+00 0.000000000000D+00 0.150633336874D-04 0.000000000000D+00  6 2 -1 25 24 21 21 4 0.58677613D+00 0.88770426D-03 0.18345146D+05 0.18345146D+05 0.18345146D+05 0.12379769D+01  1  2 15  2  6  2       -1 0.721673058915D-02 0.100000000000D+01
-.122326779357D-03 0.000000000000D+00 0.000000000000D+00 0.150633336874D-04 0.000000000000D+00  6 2 -1 25 24 21 21 4 0.58677613D+00 0.88770426D-03 0.18345146D+05 0.18345146D+05 0.18345146D+05 0.12379769D+01  1  2  4  2  6  2       -1 -.465632980931D-01 0.100000000000D+01
0.943299458847D-06 0.000000000000D+00 0.000000000000D+00 0.150633336874D-04 0.000000000000D+00  6 2 -1 25 24 21 21 4 0.58677613D+00 0.10328328D-02 0.18345146D+05 0.18345146D+05 0.18345146D+05 0.12379769D+01  1  2  5  2  6  2       -1 0.289383138131D-03 0.100000000000D+01
-.932587545012D-06 0.000000000000D+00 0.000000000000D+00 0.150633336874D-04 0.000000000000D+00  6 2 -1 25 24 21 21 4 0.58677613D+00 0.88770426D-03 0.18345146D+05 0.18345146D+05 0.18345146D+05 0.12379769D+01  1  2  6  2  6  2       -1 -.354986472173D-03 0.100000000000D+01
0.112478711736D-03 0.000000000000D+00 0.000000000000D+00 0.150633336874D-04 0.113568600338D-04  6 2 -1 25 24 21 21 4 0.62283444D+00 0.88884053D-03 0.18704333D+05 0.18704333D+05 0.18704333D+05 0.12370413D+01  1  2 11  2  6  2       -1 0.286615169719D-01 0.100000000000D+01
0.357032213998D-06 0.000000000000D+00 0.000000000000D+00 0.150405723815D-04 0.894866555297D-08  6 2 21 25 24 1 21 4 0.62283444D+00 0.88884053D-03 0.18704333D+05 0.18704333D+05 0.18704333D+05 0.12370413D+01  3  4 11  5  5  2       -1 0.215213313229D-02 0.100000000000D+01
  </mgrwgt>
  </event>
  <event>
  5     66 0.42622971E-03 0.25203871E+02 0.75467711E-02 0.12388385E+00
        2 -1    0    0  502    0 0.00000000E+00 0.00000000E+00 0.22217387E+02 0.22219692E+02 0.32000000E+00 0.0000E+00 0.9000E+01
       -1 -1    0    0    0  501 -.00000000E+00 -.00000000E+00 -.11048771E+04 0.11048772E+04 0.32000000E+00 0.0000E+00 0.9000E+01
       25  1    1    2    0    0 -.95446070E+00 -.16036847E+02 -.92686010E+03 0.93538908E+03 0.12500000E+03 0.0000E+00 0.9000E+01
       24  1    1    2    0    0 0.94989307E+01 -.76722174E+01 -.14011625E+03 0.16201503E+03 0.80419002E+02 0.0000E+00 0.9000E+01
       21  1    1    2  502  501 -.85444700E+01 0.23709064E+02 -.15683383E+02 0.29692738E+02 0.75000000E+00 0.0000E+00 0.9000E+01
#aMCatNLO 1  0  0  5  2 0.15714729D+02 0.00000000D+00  -5  6  0 0.00000000D+00 0.00000000D+00 0.00000000D+00 0.00000000D+00 0.00000000D+00
  <mgrwgt>
 0.2551477461D+00   15    2    0
 0.156680591168670D+03 0.000000000000000D+00 0.000000000000000D+00 0.156680591168670D+03
 0.156680591168670D+03 -.000000000000000D+00 -.000000000000000D+00 -.156680591168670D+03
 0.162114861638969D+03 -.954011495452222D+00 -.160380935022697D+02 -.101971063459694D+03
 0.986343681466424D+02 0.949920398012269D+01 -.767297578065874D+01 0.557890060113128D+02
 0.526119525517298D+02 -.854519248467046D+01 0.237110692829284D+02 0.461820574483811D+02
 0.000000000000000D+00 -.000000000000000D+00 0.000000000000000D+00 0.000000000000000D+00
 0.156680591168670D+03 0.000000000000000D+00 0.000000000000000D+00 0.156680591168670D+03
 0.156680591168670D+03 -.000000000000000D+00 -.000000000000000D+00 -.156680591168670D+03
 0.158660103004944D+03 -.191527975186267D+01 -.133707810610208D+02 -.967759381397563D+02
 0.100324626692484D+03 0.890298236950389D+01 -.601858918343198D+01 0.590112553313790D+02
 0.201601788956565D+02 0.128521545718481D+02 0.106718702467380D+02 0.112856599896942D+02
 0.342162737442555D+02 -.198398571894893D+02 0.871749999771477D+01 0.264790228186831D+02
0.140555974784D-02 0.000000000000D+00 0.000000000000D+00 0.264609811361D-04 0.000000000000D+00  6 2 -1 25 24 21 21 2 0.34182404D-02 0.16998127D+00 0.13522546D+05 0.13522546D+05 0.13522546D+05 0.12529892D+01  1  2  2  3  6  5       21 0.174519213904D+00 0.100000000000D+01
0.906247451127D-04 0.741734256935D-04 -.539771952410D-05 0.264609811361D-04 0.000000000000D+00  6 2 -1 25 24 21 21 4 0.34182404D-02 0.16998127D+00 0.13522546D+05 0.13522546D+05 0.13522546D+05 0.12529892D+01  1  2  3  3  6  5       21 0.176658856540D-01 0.100000000000D+01
0.558591635553D-04 0.000000000000D+00 0.000000000000D+00 0.264609811361D-04 0.000000000000D+00  6 2 -1 25 24 21 21 4 0.34182404D-02 0.16998127D+00 0.13522546D+05 0.13522546D+05 0.13522546D+05 0.12529892D+01  1  2 15  3  6  5       21 0.108888758238D-01 0.100000000000D+01
0.260080590589D-03 0.000000000000D+00 0.000000000000D+00 0.262383067076D-04 0.000000000000D+00  6 2 -1 25 24 21 21 4 0.34182404D-02 0.16998127D+00 0.15035346D+05 0.15035346D+05 0.15035346D+05 0.12477060D+01  1  2 12  3  6  5       21 0.499185124208D-01 0.100000000000D+01
-.705977032444D-03 0.000000000000D+00 0.000000000000D+00 0.264609811361D-04 0.000000000000D+00  6 2 -1 25 24 21 21 4 0.34182404D-02 0.16998127D+00 0.13522546D+05 0.13522546D+05 0.13522546D+05 0.12529892D+01  1  2  4  3  6  5       21 -.137619250835D+00 0.100000000000D+01
-.316840948110D-03 0.000000000000D+00 0.000000000000D+00 0.264609811361D-04 0.000000000000D+00  6 2 -1 25 24 21 21 4 0.34182404D-02 0.16998127D+00 0.13522546D+05 0.13522546D+05 0.13522546D+05 0.12529892D+01  1  2  5  3  6  5       21 -.617632187859D-01 0.100000000000D+01
0.115638269579D-02 0.000000000000D+00 -.000000000000D+00 0.264609811361D-04 0.000000000000D+00  6 2 -1 25 24 21 21 4 0.34182404D-02 0.16998127D+00 0.13522546D+05 0.13522546D+05 0.13522546D+05 0.12529892D+01  1  2  6  3  6  5       21 0.225418835118D+00 0.100000000000D+01
0.176363778912D-04 0.000000000000D+00 0.000000000000D+00 0.262383067076D-04 0.000000000000D+00  6 2 -1 25 24 1 -1 4 0.34182404D-02 0.16998127D+00 0.15035346D+05 0.15035346D+05 0.15035346D+05 0.12477060D+01  1  2 12  6  6  5       21 0.338503441117D-02 0.100000000000D+01
-.479920853926D-04 0.000000000000D+00 0.000000000000D+00 0.264609811361D-04 0.000000000000D+00  6 2 -1 25 24 1 -1 4 0.34182404D-02 0.16998127D+00 0.13522546D+05 0.13522546D+05 0.13522546D+05 0.12529892D+01  1  2  5  6  6  5       21 -.935531119881D-02 0.100000000000D+01
0.176363778912D-04 0.000000000000D+00 0.000000000000D+00 0.262383067076D-04 0.000000000000D+00  6 2 -1 25 24 2 -2 4 0.34182404D-02 0.16998127D+00 0.15035346D+05 0.15035346D+05 0.15035346D+05 0.12477060D+01  1  2 12  7  6  5       21 0.338503441117D-02 0.100000000000D+01
-.479920853926D-04 0.000000000000D+00 0.000000000000D+00 0.264609811361D-04 0.000000000000D+00  6 2 -1 25 24 2 -2 4 0.34182404D-02 0.16998127D+00 0.13522546D+05 0.13522546D+05 0.13522546D+05 0.12529892D+01  1  2  5  7  6  5       21 -.935531119881D-02 0.100000000000D+01
0.176363778912D-04 0.000000000000D+00 0.000000000000D+00 0.262383067076D-04 0.000000000000D+00  6 2 -1 25 24 3 -3 4 0.34182404D-02 0.16998127D+00 0.15035346D+05 0.15035346D+05 0.15035346D+05 0.12477060D+01  1  2 12  8  6  5       21 0.338503441117D-02 0.100000000000D+01
0.176363778912D-04 0.000000000000D+00 0.000000000000D+00 0.262383067076D-04 0.000000000000D+00  6 2 -1 25 24 4 -4 4 0.34182404D-02 0.16998127D+00 0.15035346D+05 0.15035346D+05 0.15035346D+05 0.12477060D+01  1  2 12  8  6  5       21 0.338503441117D-02 0.100000000000D+01
-.479920853926D-04 0.000000000000D+00 0.000000000000D+00 0.264609811361D-04 0.000000000000D+00  6 2 -1 25 24 3 -3 4 0.34182404D-02 0.16998127D+00 0.13522546D+05 0.13522546D+05 0.13522546D+05 0.12529892D+01  1  2  5  8  6  5       21 -.935531119881D-02 0.100000000000D+01
-.479920853926D-04 0.000000000000D+00 0.000000000000D+00 0.264609811361D-04 0.000000000000D+00  6 2 -1 25 24 4 -4 4 0.34182404D-02 0.16998127D+00 0.13522546D+05 0.13522546D+05 0.13522546D+05 0.12529892D+01  1  2  5  8  6  5       21 -.935531119881D-02 0.100000000000D+01
  </mgrwgt>
  </event>
  <event>
  6     66 -.42622971E-03 0.17184217E+02 0.75467711E-02 0.12346936E+00
        2 -1    0    0  502    0 0.00000000E+00 0.00000000E+00 0.16207028E+03 0.16207060E+03 0.32000000E+00 0.0000E+00 0.9000E+01
       -1 -1    0    0    0  503 0.00000000E+00 0.00000000E+00 -.13860601E+03 0.13860638E+03 0.32000000E+00 0.0000E+00 0.9000E+01
       25  1    1    2    0    0 0.26928328E+02 0.59597992E+00 -.47101206E+02 0.13626817E+03 0.12500000E+03 0.0000E+00 0.9000E+01
       24  1    1    2    0    0 -.40601977E+02 -.20695465E+02 0.26380068E+02 0.96124642E+02 0.80419002E+02 0.0000E+00 0.9000E+01
       21  1    1    2  502  501 0.17597195E+02 0.12376350E+02 0.52196508E+02 0.56461255E+02 0.75000000E+00 0.0000E+00 0.9000E+01
       21  1    1    2  501  503 -.39235465E+01 0.77231351E+01 -.80111013E+01 0.11822913E+02 0.75000000E+00 0.0000E+00 0.9000E+01
#aMCatNLO 2  0  0  2  5 0.86626227D+01 0.00000000D+00  -5  6  0 0.00000000D+00 0.00000000D+00 0.00000000D+00 0.00000000D+00 0.00000000D+00
  <mgrwgt>
 -.5688755453D+00    3    2    0
 0.143501681694613D+03 0.000000000000000D+00 0.000000000000000D+00 0.143501681694613D+03
 0.143501681694613D+03 0.000000000000000D+00 0.000000000000000D+00 -.143501681694613D+03
 0.141961222773188D+03 0.249852076431269D+02 0.441833528120233D+01 -.623234023752826D+02
 0.938496464001541D+02 -.418849910755201D+02 -.181716215872626D+02 0.159993708175150D+02
 0.511924942158839D+02 0.168997834323932D+02 0.137532863060603D+02 0.463240315577676D+02
 0.000000000000000D+00 -.000000000000000D+00 0.000000000000000D+00 -.000000000000000D+00
 0.145264505597448D+03 0.000000000000000D+00 0.000000000000000D+00 0.145264505597448D+03
 0.154618908412240D+03 0.000000000000000D+00 0.000000000000000D+00 -.154618908412240D+03
 0.142248542997714D+03 0.269274433974606D+02 0.595225518381791D+00 -.623234023752826D+02
 0.938087776554094D+02 -.406025689187233D+02 -.206959498809662D+02 0.159993708175150D+02
 0.510767449495327D+02 0.175986720590272D+02 0.123775892900587D+02 0.463240315577676D+02
 0.127493484070317D+02 -.392354653776445D+01 0.772313507252563D+01 -.935440281479273D+01
-.144197495385D-02 0.000000000000D+00 0.000000000000D+00 0.507631164950D-04 0.000000000000D+00  6 2 -1 25 24 21 21 4 0.24629509D-01 0.21677657D-01 0.15685225D+05 0.15685225D+05 0.15685225D+05 0.12456170D+01  1  2 13  2  6  2       -1 -.146124769932D+01 0.100000000000D+01
-.547305806152D-04 0.000000000000D+00 0.000000000000D+00 0.510474085703D-04 0.000000000000D+00  6 2 -1 25 24 21 21 4 0.24629509D-01 0.19789349D-01 0.14618483D+05 0.14618483D+05 0.14618483D+05 0.12491001D+01  1  2  8  2  6  2       -1 -.647965383856D-01 0.100000000000D+01
0.932150085482D-03 0.000000000000D+00 0.000000000000D+00 0.510474085703D-04 0.288721659158D-05  6 2 -1 25 24 21 21 4 0.24932067D-01 0.21322451D-01 0.15685225D+05 0.15685225D+05 0.15685225D+05 0.12456170D+01  1  2  1  2  6  2       -1 0.957168692441D+00 0.100000000000D+01
  </mgrwgt>
  </event>
  <event>
  5     66 0.42622971E-03 0.22133664E+02 0.75467711E-02 0.11804565E+00
        4 -1    0    0  502    0 0.00000000E+00 0.00000000E+00 0.14045488E+03 0.14046343E+03 0.15500000E+01 0.0000E+00 0.9000E+01
       -3 -1    0    0    0  501 -.00000000E+00 -.00000000E+00 -.21293506E+03 0.21293565E+03 0.50000000E+00 0.0000E+00 0.9000E+01
       25  1    1    2    0    0 0.75146253E+02 0.83005490E+02 -.29467183E+02 0.17038247E+03 0.12500000E+03 0.0000E+00 0.9000E+01
       24  1    1    2    0    0 -.64247920E+02 -.10226308E+03 -.58023869E+02 0.15626746E+03 0.80419002E+02 0.0000E+00 0.9000E+01
       21  1    1    2  502  501 -.10898333E+02 0.19257592E+02 0.15010866E+02 0.26749151E+02 0.75000000E+00 0.0000E+00 0.9000E+01
#aMCatNLO 1  0  0  5  1 0.69574487D+01 0.00000000D+00  -5  6  0 0.00000000D+00 0.00000000D+00 0.00000000D+00 0.00000000D+00 0.00000000D+00
  <mgrwgt>
 0.5670610143D-01   20    2    0
 0.172943293184250D+03 0.000000000000000D+00 0.000000000000000D+00 0.172943293184250D+03
 0.172943293184250D+03 -.000000000000000D+00 -.000000000000000D+00 -.172943293184250D+03
 0.167907490248950D+03 0.751478558289834D+02 0.830026576323757D+02 0.559319872435746D+01
 0.147504267532217D+03 -.642465123171123D+02 -.102265569424822D+03 -.265411369603751D+02
 0.304748285873337D+02 -.109013435118711D+02 0.192629117924458D+02 0.209479382360176D+02
 0.000000000000000D+00 0.000000000000000D+00 0.000000000000000D+00 0.000000000000000D+00
 0.172943293184250D+03 0.000000000000000D+00 0.000000000000000D+00 0.172943293184250D+03
 0.172943293184250D+03 -.000000000000000D+00 -.000000000000000D+00 -.172943293184250D+03
 0.168235550798635D+03 0.744977085193828D+02 0.841514821110553D+02 0.684251681721418D+01
 0.146865090665069D+03 -.648158635244566D+02 -.101259513421353D+03 -.254470760390710D+02
 0.111060226700837D+02 -.848418945634021D+01 0.693722589385369D+01 0.179921252635252D+01
 0.196799222347131D+02 -.119765553858600D+01 0.101708054164435D+02 0.168053466955042D+02
0.607920297738D-03 0.000000000000D+00 0.000000000000D+00 0.381619589641D-04 0.000000000000D+00  6 4 -3 25 24 21 21 2 0.21609145D-01 0.32759943D-01 0.28063747D+05 0.28063747D+05 0.28063747D+05 0.12179513D+01  1  2  2  3  6  5       21 0.326972681176D-01 0.100000000000D+01
0.144464896675D-03 0.320808354828D-04 -.233457401241D-05 0.381619589641D-04 0.000000000000D+00  6 4 -3 25 24 21 21 4 0.21609145D-01 0.32759943D-01 0.28063747D+05 0.28063747D+05 0.28063747D+05 0.12179513D+01  1  2  3  3  6  5       21 0.115262226666D-01 0.100000000000D+01
0.862041972314D-05 0.000000000000D+00 0.000000000000D+00 0.381619589641D-04 0.000000000000D+00  6 4 -3 25 24 21 21 4 0.21609145D-01 0.32759943D-01 0.28063747D+05 0.28063747D+05 0.28063747D+05 0.12179513D+01  1  2 15  3  6  5       21 0.687785610867D-03 0.100000000000D+01
0.133975540027D-03 0.000000000000D+00 0.000000000000D+00 0.381809758319D-04 0.000000000000D+00  6 4 -3 25 24 21 21 4 0.21609145D-01 0.32759943D-01 0.27879054D+05 0.27879054D+05 0.27879054D+05 0.12182547D+01  1  2 12  3  6  5       21 0.106948353737D-01 0.100000000000D+01
0.144615105095D-03 0.000000000000D+00 0.000000000000D+00 0.381809758319D-04 0.000000000000D+00  6 4 -3 25 24 21 21 4 0.21609145D-01 0.32759943D-01 0.27879054D+05 0.27879054D+05 0.27879054D+05 0.12182547D+01  1  2 12  3  6  5       21 0.115441575471D-01 0.100000000000D+01
-.993221668594D-03 0.000000000000D+00 0.000000000000D+00 0.381619589641D-04 0.000000000000D+00  6 4 -3 25 24 21 21 4 0.21609145D-01 0.32759943D-01 0.28063747D+05 0.28063747D+05 0.28063747D+05 0.12179513D+01  1  2  4  3  6  5       21 -.792448156818D-01 0.100000000000D+01
-.255695711954D-03 0.000000000000D+00 0.000000000000D+00 0.381619589641D-04 0.000000000000D+00  6 4 -3 25 24 21 21 4 0.21609145D-01 0.32759943D-01 0.28063747D+05 0.28063747D+05 0.28063747D+05 0.12179513D+01  1  2  5  3  6  5       21 -.204008432409D-01 0.100000000000D+01
0.109007478615D-02 0.000000000000D+00 -.000000000000D+00 0.381619589641D-04 0.000000000000D+00  6 4 -3 25 24 21 21 4 0.21609145D-01 0.32759943D-01 0.28063747D+05 0.28063747D+05 0.28063747D+05 0.12179513D+01  1  2  6  3  6  5       21 0.869723025984D-01 0.100000000000D+01
0.980780320983D-05 0.000000000000D+00 0.000000000000D+00 0.381809758319D-04 0.000000000000D+00  6 4 -3 25 24 3 -3 4 0.21609145D-01 0.32759943D-01 0.27879054D+05 0.27879054D+05 0.27879054D+05 0.12182547D+01  1  2 12  6  6  5       21 0.782925306255D-03 0.100000000000D+01
0.104928638726D-04 0.000000000000D+00 0.000000000000D+00 0.381809758319D-04 0.000000000000D+00  6 4 -3 25 24 3 -3 4 0.21609145D-01 0.32759943D-01 0.27879054D+05 0.27879054D+05 0.27879054D+05 0.12182547D+01  1  2 12  6  6  5       21 0.837611490078D-03 0.100000000000D+01
-.133262054690D-04 0.000000000000D+00 0.000000000000D+00 0.381619589641D-04 0.000000000000D+00  6 4 -3 25 24 3 -3 4 0.21609145D-01 0.32759943D-01 0.28063747D+05 0.28063747D+05 0.28063747D+05 0.12179513D+01  1  2  5  6  6  5       21 -.106323968709D-02 0.100000000000D+01
0.980780320983D-05 0.000000000000D+00 0.000000000000D+00 0.381809758319D-04 0.000000000000D+00  6 4 -3 25 24 4 -4 4 0.21609145D-01 0.32759943D-01 0.27879054D+05 0.27879054D+05 0.27879054D+05 0.12182547D+01  1  2 12  7  6  5       21 0.782925306255D-03 0.100000000000D+01
0.104928638726D-04 0.000000000000D+00 0.000000000000D+00 0.381809758319D-04 0.000000000000D+00  6 4 -3 25 24 4 -4 4 0.21609145D-01 0.32759943D-01 0.27879054D+05 0.27879054D+05 0.27879054D+05 0.12182547D+01  1  2 12  7  6  5       21 0.837611490078D-03 0.100000000000D+01
-.133262054690D-04 0.000000000000D+00 0.000000000000D+00 0.381619589641D-04 0.000000000000D+00  6 4 -3 25 24 4 -4 4 0.21609145D-01 0.32759943D-01 0.28063747D+05 0.28063747D+05 0.28063747D+05 0.12179513D+01  1  2  5  7  6  5       21 -.106323968709D-02 0.100000000000D+01
0.980780320983D-05 0.000000000000D+00 0.000000000000D+00 0.381809758319D-04 0.000000000000D+00  6 4 -3 25 24 1 -1 4 0.21609145D-01 0.32759943D-01 0.27879054D+05 0.27879054D+05 0.27879054D+05 0.12182547D+01  1  2 12  8  6  5       21 0.782925306255D-03 0.100000000000D+01
0.980780320983D-05 0.000000000000D+00 0.000000000000D+00 0.381809758319D-04 0.000000000000D+00  6 4 -3 25 24 2 -2 4 0.21609145D-01 0.32759943D-01 0.27879054D+05 0.27879054D+05 0.27879054D+05 0.12182547D+01  1  2 12  8  6  5       21 0.782925306255D-03 0.100000000000D+01
0.104928638726D-04 0.000000000000D+00 0.000000000000D+00 0.381809758319D-04 0.000000000000D+00  6 4 -3 25 24 1 -1 4 0.21609145D-01 0.32759943D-01 0.27879054D+05 0.27879054D+05 0.27879054D+05 0.12182547D+01  1  2 12  8  6  5       21 0.837611490078D-03 0.100000000000D+01
0.104928638726D-04 0.000000000000D+00 0.000000000000D+00 0.381809758319D-04 0.000000000000D+00  6 4 -3 25 24 2 -2 4 0.21609145D-01 0.32759943D-01 0.27879054D+05 0.27879054D+05 0.27879054D+05 0.12182547D+01  1  2 12  8  6  5       21 0.837611490078D-03 0.100000000000D+01
-.133262054690D-04 0.000000000000D+00 0.000000000000D+00 0.381619589641D-04 0.000000000000D+00  6 4 -3 25 24 1 -1 4 0.21609145D-01 0.32759943D-01 0.28063747D+05 0.28063747D+05 0.28063747D+05 0.12179513D+01  1  2  5  8  6  5       21 -.106323968709D-02 0.100000000000D+01
-.133262054690D-04 0.000000000000D+00 0.000000000000D+00 0.381619589641D-04 0.000000000000D+00  6 4 -3 25 24 2 -2 4 0.21609145D-01 0.32759943D-01 0.28063747D+05 0.28063747D+05 0.28063747D+05 0.12179513D+01  1  2  5  8  6  5       21 -.106323968709D-02 0.100000000000D+01
  </mgrwgt>
  </event>
  <event>
  5     66 0.42622971E-03 0.26971419E+02 0.75467711E-02 0.10648641E+00
        2 -1    0    0  502    0 0.00000000E+00 0.00000000E+00 0.11352457E+04 0.11352457E+04 0.32000000E+00 0.0000E+00 0.9000E+01
       -1 -1    0    0    0  501 0.00000000E+00 0.00000000E+00 -.75423215E+02 0.75423894E+02 0.32000000E+00 0.0000E+00 0.9000E+01
       25  1    1    2    0    0 -.27236407E+03 0.30905263E+00 0.53921798E+03 0.61689814E+03 0.12500000E+03 0.0000E+00 0.9000E+01
       24  1    1    2    0    0 0.24565117E+03 0.33438958E+01 0.47518946E+03 0.54095094E+03 0.80419002E+02 0.0000E+00 0.9000E+01
       21  1    1    2  502  501 0.26712900E+02 -.36529485E+01 0.45415046E+02 0.52820564E+02 0.75000000E+00 0.0000E+00 0.9000E+01
#aMCatNLO 1  0  0  1  1 0.96154661D+02 0.00000000D+00  -5  6  0 0.00000000D+00 0.00000000D+00 0.00000000D+00 0.00000000D+00 0.00000000D+00
  <mgrwgt>
 0.2685066858D+01    4    2    0
 0.292616334856851D+03 0.000000000000000D+00 0.000000000000000D+00 0.292616334856851D+03
 0.292616334856851D+03 0.000000000000000D+00 0.000000000000000D+00 -.292616334856851D+03
 0.299688173586220D+03 -.272369341752605D+03 0.309773355631513D+00 -.168733552233179D+01
 0.258519202346232D+03 0.245646624739962D+03 0.334451756386047D+01 0.339293140083144D+01
 0.270252937812493D+02 0.267227170126429D+02 -.365429091949198D+01 -.170559587849966D+01
 0.000000000000000D+00 0.000000000000000D+00 0.000000000000000D+00 -.000000000000000D+00
 0.323267317034763D+03 0.000000000000000D+00 0.000000000000000D+00 0.323267317034763D+03
 0.383020330772394D+03 0.000000000000000D+00 0.000000000000000D+00 -.383020330772394D+03
 0.325987561731739D+03 -.297841073461434D+03 -.439401668406056D+02 -.168733552233179D+01
 0.241374086205006D+03 0.225295591432669D+03 -.320096553315475D+02 0.339293140083144D+01
 0.257176017822061D+02 0.245755139016634D+02 -.738444991834344D+01 -.170559587849966D+01
 0.113208398088205D+03 0.479699681271012D+02 0.833342720904966D+02 -.597530137376313D+02
0.103557476926D-01 0.000000000000D+00 0.000000000000D+00 0.203537593259D-04 0.000000000000D+00  6 2 -1 25 24 21 21 2 0.17465324D+00 0.11603627D-01 0.85600651D+05 0.85600651D+05 0.85600651D+05 0.11698259D+01  1  2  2  1  6  1        2 0.169752798281D+01 0.100000000000D+01
0.448783676053D-02 0.546487819644D-03 -.397687978706D-04 0.203537593259D-04 0.000000000000D+00  6 2 -1 25 24 21 21 4 0.17465324D+00 0.11603627D-01 0.85600651D+05 0.85600651D+05 0.85600651D+05 0.11698259D+01  1  2  3  1  6  1        2 0.100673461336D+01 0.100000000000D+01
0.187504725909D-03 0.000000000000D+00 0.000000000000D+00 0.203537593259D-04 0.000000000000D+00  6 2 -1 25 24 21 21 4 0.17465324D+00 0.11603627D-01 0.85600651D+05 0.85600651D+05 0.85600651D+05 0.11698259D+01  1  2 15  1  6  1        2 0.420620240469D-01 0.100000000000D+01
-.273075778068D-03 0.000000000000D+00 0.000000000000D+00 0.203537593259D-04 0.000000000000D+00  6 2 -1 25 24 21 21 4 0.17465324D+00 0.11603627D-01 0.85600651D+05 0.85600651D+05 0.85600651D+05 0.11698259D+01  1  2  4  1  6  1        2 -.612577623741D-01 0.100000000000D+01
  </mgrwgt>
  </event>
  <event>
  5     66 0.42622971E-03 0.29960623E+02 0.75467711E-02 0.12324446E+00
        2 -1    0    0  502    0 0.00000000E+00 0.00000000E+00 0.10651176E+04 0.10651176E+04 0.32000000E+00 0.0000E+00 0.9000E+01
       -1 -1    0    0    0  501 0.00000000E+00 0.00000000E+00 -.20104504E+02 0.20107050E+02 0.32000000E+00 0.0000E+00 0.9000E+01
       25  1    1    2    0    0 -.26424061E+02 -.20778596E+02 0.30885206E+03 0.33487994E+03 0.12500000E+03 0.0000E+00 0.9000E+01
       24  1    1    2    0    0 0.47251780E+02 -.75591985E+00 0.32576363E+03 0.33885463E+03 0.80419002E+02 0.0000E+00 0.9000E+01
       21  1    1    2  502  501 -.20827719E+02 0.21534516E+02 0.41039737E+03 0.41149009E+03 0.75000000E+00 0.0000E+00 0.9000E+01
#aMCatNLO 1  0  0  5  2 0.48795628D+01 0.00000000D+00  -5  6  0 0.00000000D+00 0.00000000D+00 0.00000000D+00 0.00000000D+00 0.00000000D+00
  <mgrwgt>
 0.3231196742D+00    9    2    0
 0.146338880559301D+03 0.000000000000000D+00 0.000000000000000D+00 0.146338880559301D+03
 0.146338880559301D+03 -.000000000000000D+00 -.000000000000000D+00 -.146338880559301D+03
 0.138943705671968D+03 -.264232997765267D+02 -.207793835247771D+02 -.505012850837338D+02
 0.932979643526275D+02 0.472522913078483D+02 -.756448488010581D+00 -.198568623323307D+01
 0.604360910940059D+02 -.208289915313216D+02 0.215358320127877D+02 0.524869713169669D+02
 0.000000000000000D+00 0.000000000000000D+00 0.000000000000000D+00 -.000000000000000D+00
 0.146338880559301D+03 0.000000000000000D+00 0.000000000000000D+00 0.146338880559301D+03
 0.146338880559301D+03 -.000000000000000D+00 -.000000000000000D+00 -.146338880559301D+03
 0.137306580633485D+03 -.284074504309941D+02 -.187278998934925D+02 -.455014242727595D+02
 0.926168226970292D+02 0.459169698088803D+02 0.624187700812851D+00 0.137919012719326D+01
 0.558718063644693D+02 -.148808004457748D+02 0.219843748852860D+02 0.491620563587915D+02
 0.688255142361807D+01 -.262871893211137D+01 -.388066269260637D+01 -.503982221322533D+01
0.187151778698D-03 0.000000000000D+00 0.000000000000D+00 0.299807463520D-04 0.000000000000D+00  6 2 -1 25 24 21 21 2 0.16386444D+00 0.30932002D-02 0.15961601D+05 0.15961601D+05 0.15961601D+05 0.12447579D+01  1  2  2  3  6  5       21 0.274760452409D+00 0.100000000000D+01
0.127482992489D-04 0.987627069708D-05 -.718712108393D-06 0.299807463520D-04 0.000000000000D+00  6 2 -1 25 24 21 21 4 0.16386444D+00 0.30932002D-02 0.15961601D+05 0.15961601D+05 0.15961601D+05 0.12447579D+01  1  2  3  3  6  5       21 0.289989506428D-01 0.100000000000D+01
0.800728814663D-05 0.000000000000D+00 0.000000000000D+00 0.299807463520D-04 0.000000000000D+00  6 2 -1 25 24 21 21 4 0.16386444D+00 0.30932002D-02 0.15961601D+05 0.15961601D+05 0.15961601D+05 0.12447579D+01  1  2 15  3  6  5       21 0.182144260354D-01 0.100000000000D+01
-.137113035573D-03 0.000000000000D+00 0.000000000000D+00 0.299807463520D-04 0.000000000000D+00  6 2 -1 25 24 21 21 4 0.16386444D+00 0.30932002D-02 0.15961601D+05 0.15961601D+05 0.15961601D+05 0.12447579D+01  1  2  4  3  6  5       21 -.311895263315D+00 0.100000000000D+01
0.135510887098D-03 0.000000000000D+00 0.000000000000D+00 0.299807463520D-04 0.667197901582D-05  6 2 -1 25 24 21 21 4 0.16386444D+00 0.30932002D-02 0.16051498D+05 0.16051498D+05 0.16051498D+05 0.12444820D+01  1  2 11  3  6  5       21 0.308023544703D+00 0.100000000000D+01
0.174959633268D-06 0.000000000000D+00 0.000000000000D+00 0.299674593343D-04 0.145945405527D-07  6 2 -1 25 24 1 -1 4 0.16386444D+00 0.30932002D-02 0.16051498D+05 0.16051498D+05 0.16051498D+05 0.12444820D+01  1  2 11  6  6  5       21 0.397692669373D-03 0.100000000000D+01
0.696094758837D-06 0.000000000000D+00 0.000000000000D+00 0.299674593343D-04 0.183164572396D-07  6 2 -1 25 24 2 -2 4 0.16386444D+00 0.30932002D-02 0.16051498D+05 0.16051498D+05 0.16051498D+05 0.12444820D+01  1  2 11  7  6  5       21 0.158226087703D-02 0.100000000000D+01
0.668178217687D-06 0.000000000000D+00 0.000000000000D+00 0.299674593343D-04 0.111672041119D-07  6 2 -1 25 24 3 -3 4 0.16386444D+00 0.30932002D-02 0.16051498D+05 0.16051498D+05 0.16051498D+05 0.12444820D+01  1  2 11  8  6  5       21 0.151880507546D-02 0.100000000000D+01
0.668178217687D-06 0.000000000000D+00 0.000000000000D+00 0.299674593343D-04 0.111672041119D-07  6 2 -1 25 24 4 -4 4 0.16386444D+00 0.30932002D-02 0.16051498D+05 0.16051498D+05 0.16051498D+05 0.12444820D+01  1  2 11  8  6  5       21 0.151880507546D-02 0.100000000000D+01
  </mgrwgt>
  </event>
  <event>
  5     66 0.42622971E-03 0.21083966E+02 0.75467711E-02 0.11376810E+00
        2 -1    0    0  502    0 0.00000000E+00 0.00000000E+00 0.12026632E+03 0.12026675E+03 0.32000000E+00 0.0000E+00 0.9000E+01
       -1 -1    0    0    0  501 0.00000000E+00 0.00000000E+00 -.42779274E+03 0.42779286E+03 0.32000000E+00 0.0000E+00 0.9000E+01
       25  1    1    2    0    0 -.10588861E+02 0.46436696E+02 -.29751113E+03 0.32619988E+03 0.12500000E+03 0.0000E+00 0.9000E+01
       24  1    1    2    0    0 -.98206957E+01 -.51726079E+02 -.94491875E+02 0.13478859E+03 0.80419002E+02 0.0000E+00 0.9000E+01
       21  1    1    2  502  501 0.20409556E+02 0.52893825E+01 0.84476587E+02 0.87071142E+02 0.75000000E+00 0.0000E+00 0.9000E+01
#aMCatNLO 1  0  0  2  1 0.24137763D+03 0.00000000D+00  -5  6  0 0.00000000D+00 0.00000000D+00 0.00000000D+00 0.00000000D+00 0.00000000D+00
  <mgrwgt>
 0.9094103423D+00    4    2    0
 0.226824184355875D+03 0.000000000000000D+00 0.000000000000000D+00 0.226824184355875D+03
 0.226824184355875D+03 0.000000000000000D+00 0.000000000000000D+00 -.226824184355875D+03
 0.192406040671991D+03 -.105889529562015D+02 0.464366724881325D+02 -.138298929896775D+03
 0.987846124398890D+02 -.982074308189310D+01 -.517260911801515D+02 -.227848238323370D+02
 0.162457715599869D+03 0.204096960380946D+02 0.528941869201902D+01 0.161083753729112D+03
 0.000000000000000D+00 0.000000000000000D+00 -.000000000000000D+00 0.000000000000000D+00
 0.312746398478758D+03 0.000000000000000D+00 0.000000000000000D+00 0.312746398478758D+03
 0.292504715686422D+03 0.000000000000000D+00 0.000000000000000D+00 -.292504715686422D+03
 0.213830869889817D+03 -.344248843587837D+02 0.989291374880376D+02 -.138298929896775D+03
 0.903790436307883D+02 -.209199116033520D+02 -.272830473862929D+02 -.227848238323370D+02
 0.168086637886262D+03 0.101502182124349D+01 0.480011651019926D+02 0.161083753729112D+03
 0.132954562758313D+03 0.543297741408922D+02 -.119647255203737D+03 0.202416827923367D+02
0.635034968080D-02 0.000000000000D+00 0.000000000000D+00 0.896822801968D-04 0.000000000000D+00  6 2 -1 25 24 21 21 2 0.18502553D-01 0.65814310D-01 0.15746679D+05 0.15746679D+05 0.15746679D+05 0.12454245D+01  1  2  2  2  6  2       -1 0.820547596929D+00 0.100000000000D+01
0.154232186153D-02 0.335117159480D-03 -.243870148597D-04 0.896822801968D-04 0.000000000000D+00  6 2 -1 25 24 21 21 4 0.18502553D-01 0.65814310D-01 0.15746679D+05 0.15746679D+05 0.15746679D+05 0.12454245D+01  1  2  3  2  6  2       -1 0.309112080467D+00 0.100000000000D+01
0.305161167864D-03 0.000000000000D+00 0.000000000000D+00 0.896822801968D-04 0.000000000000D+00  6 2 -1 25 24 21 21 4 0.18502553D-01 0.65814310D-01 0.15746679D+05 0.15746679D+05 0.15746679D+05 0.12454245D+01  1  2 15  2  6  2       -1 0.611603880028D-01 0.100000000000D+01
-.140410031005D-02 0.000000000000D+00 0.000000000000D+00 0.896822801968D-04 0.000000000000D+00  6 2 -1 25 24 21 21 4 0.18502553D-01 0.65814310D-01 0.15746679D+05 0.15746679D+05 0.15746679D+05 0.12454245D+01  1  2  4  2  6  2       -1 -.281409723127D+00 0.100000000000D+01
  </mgrwgt>
  </event>
  <event>
  5     66 0.42622971E-03 0.21449188E+02 0.75467711E-02 0.11206847E+00
        2 -1    0    0  502    0 0.00000000E+00 0.00000000E+00 0.11343554E+03 0.11343599E+03 0.32000000E+00 0.0000E+00 0.9000E+01
       -1 -1    0    0    0  501 0.00000000E+00 0.00000000E+00 -.14978628E+03 0.14978662E+03 0.32000000E+00 0.0000E+00 0.9000E+01
       25  1    1    2    0    0 0.32571985E+02 0.46769042E+02 -.11796681E+02 0.13788560E+03 0.12500000E+03 0.0000E+00 0.9000E+01
       24  1    1    2    0    0 -.15384872E+02 -.59581410E+02 -.22931735E+02 0.10382543E+03 0.80419002E+02 0.0000E+00 0.9000E+01
       21  1    1    2  502  501 -.17187113E+02 0.12812368E+02 -.16223244E+01 0.21511580E+02 0.75000000E+00 0.0000E+00 0.9000E+01
#aMCatNLO 1  0  0  2  2 0.16780537D+03 0.00000000D+00  -5  6  0 0.00000000D+00 0.00000000D+00 0.00000000D+00 0.00000000D+00 0.00000000D+00
  <mgrwgt>
 0.3070092889D+00    3    2    0
 0.130350263833482D+03 0.000000000000000D+00 0.000000000000000D+00 0.130350263833482D+03
 0.130350263833482D+03 0.000000000000000D+00 0.000000000000000D+00 -.130350263833482D+03
 0.137574557114150D+03 0.325775117973059D+02 0.467649222059362D+02 0.731481656118357D+01
 0.101633569759405D+03 -.153807885914202D+02 -.595844540746017D+02 -.867702268103151D+01
 0.214924007934090D+02 -.171967232058857D+02 0.128195318686654D+02 0.136220611984793D+01
 0.000000000000000D+00 -.000000000000000D+00 0.000000000000000D+00 0.000000000000000D+00
 0.376771076766152D+03 0.000000000000000D+00 0.000000000000000D+00 0.376771076766152D+03
 0.186764491056735D+03 0.000000000000000D+00 0.000000000000000D+00 -.186764491056735D+03
 0.152810211907457D+03 0.851602772798110D+02 -.204983290905321D+02 0.731481656118357D+01
 0.144985864468756D+03 0.292769664180465D+02 -.116710125765211D+03 -.867702268103151D+01
 0.122416733831525D+02 -.110881696575294D+02 0.500554246337773D+01 0.136220611984793D+01
 0.253497818063522D+03 -.103349074040328D+03 0.132202912392365D+03 0.190006585709417D+03
0.258596808502D-03 0.000000000000D+00 0.000000000000D+00 0.502723902055D-04 0.000000000000D+00  6 2 -1 25 24 21 21 2 0.17451682D-01 0.23044104D-01 0.16911914D+05 0.16911914D+05 0.16911914D+05 0.12419263D+01  1  2  2  2  6  2       -1 0.224510237357D+00 0.100000000000D+01
0.562728213071D-04 0.136465285019D-04 -.993079834751D-06 0.502723902055D-04 0.000000000000D+00  6 2 -1 25 24 21 21 4 0.17451682D-01 0.23044104D-01 0.16911914D+05 0.16911914D+05 0.16911914D+05 0.12419263D+01  1  2  3  2  6  2       -1 0.753534818723D-01 0.100000000000D+01
0.533620156376D-05 0.000000000000D+00 0.000000000000D+00 0.502723902055D-04 0.000000000000D+00  6 2 -1 25 24 21 21 4 0.17451682D-01 0.23044104D-01 0.16911914D+05 0.16911914D+05 0.16911914D+05 0.12419263D+01  1  2 15  2  6  2       -1 0.714556971663D-02 0.100000000000D+01
  </mgrwgt>
  </event>
  <event>
  6     66 0.42622971E-03 0.37757781E+02 0.75467711E-02 0.11841003E+00
        2 -1    0    0  502    0 0.00000000E+00 0.00000000E+00 0.13819524E+04 0.13819525E+04 0.32000000E+00 0.0000E+00 0.9000E+01
       -1 -1    0    0    0  501 0.00000000E+00 0.00000000E+00 -.21280957E+02 0.21283363E+02 0.32000000E+00 0.0000E+00 0.9000E+01
       25  1    1    2    0    0 -.58450052E+02 -.91409606E+02 0.85760130E+03 0.87342837E+03 0.12500000E+03 0.0000E+00 0.9000E+01
       24  1    1    2    0    0 0.58348548E+02 0.55388178E+02 0.30358708E+03 0.32419860E+03 0.80419002E+02 0.0000E+00 0.9000E+01
       21  1    1    2  503  501 0.51210773E+01 0.41355161E+02 0.18046964E+03 0.18521967E+03 0.75000000E+00 0.0000E+00 0.9000E+01
       21  1    1    2  502  503 -.50195739E+01 -.53337332E+01 0.19013445E+02 0.20389174E+02 0.75000000E+00 0.0000E+00 0.9000E+01
#aMCatNLO 2  0  0  5  2 0.60372133D+01 0.00000000D+00  -5  6  0 0.00000000D+00 0.00000000D+00 0.00000000D+00 0.00000000D+00 0.00000000D+00
  <mgrwgt>
 0.4284433823D-01    2    2    0
 0.171496308597065D+03 0.000000000000000D+00 0.000000000000000D+00 0.171496308597065D+03
 0.171496308597065D+03 -.000000000000000D+00 -.000000000000000D+00 -.171496308597065D+03
 0.175057522452419D+03 -.584700684921872D+02 -.985131602139933D+02 0.435493343502536D+02
 0.119844293999380D+03 0.583345666116516D+02 0.504263693880977D+02 -.441553899134085D+02
 0.480908007423322D+02 0.135501880535603D+00 0.480867908258956D+02 0.606055563154956D+00
 0.000000000000000D+00 0.000000000000000D+00 0.000000000000000D+00 -.000000000000000D+00
 0.171496308597065D+03 0.000000000000000D+00 0.000000000000000D+00 0.171496308597065D+03
 0.171496308597065D+03 -.000000000000000D+00 -.000000000000000D+00 -.171496308597065D+03
 0.171085186540931D+03 -.584495662002948D+02 -.912373245002640D+02 0.436410343916823D+02
 0.122054605278994D+03 0.583488944646226D+02 0.555110255277571D+02 -.440913061164397D+02
 0.416790594978853D+02 0.528026714841148D+01 0.411820967442699D+02 0.364659940427579D+01
 0.817376587632034D+01 -.517959541273922D+01 -.545579777176303D+01 -.319632767951837D+01
-.227986053438D-04 0.000000000000D+00 0.000000000000D+00 0.788428530150D-05 0.000000000000D+00  6 2 -1 25 24 21 21 4 0.21260825D+00 0.32741813D-02 0.27069220D+05 0.27069220D+05 0.27069220D+05 0.12196122D+01  1  2  8  3  6  5       21 -.296940627486D-01 0.100000000000D+01
0.556576304733D-04 0.000000000000D+00 0.000000000000D+00 0.788428530150D-05 0.399874570836D-06  6 2 -1 25 24 21 21 4 0.21260825D+00 0.32741813D-02 0.26941961D+05 0.26941961D+05 0.26941961D+05 0.12198297D+01  1  2  1  3  6  5       21 0.725384009800D-01 0.100000000000D+01
  </mgrwgt>
  </event>
  <event>
  5     66 0.42622971E-03 0.20535265E+02 0.75467711E-02 0.11888963E+00
        2 -1    0    0  502    0 0.00000000E+00 0.00000000E+00 0.10292571E+04 0.10292572E+04 0.32000000E+00 0.0000E+00 0.9000E+01
       -1 -1    0    0    0  501 0.00000000E+00 0.00000000E+00 -.42215758E+02 0.42216971E+02 0.32000000E+00 0.0000E+00 0.9000E+01
       25  1    1    2    0    0 -.10713975E+03 0.50691144E+01 0.26429162E+03 0.31141561E+03 0.12500000E+03 0.0000E+00 0.9000E+01
       24  1    1    2    0    0 0.90438783E+02 0.68791305E+01 0.18053655E+03 0.21745611E+03 0.80419002E+02 0.0000E+00 0.9000E+01
       21  1    1    2  502  501 0.16700970E+02 -.11948245E+02 0.54221320E+03 0.54260243E+03 0.75000000E+00 0.0000E+00 0.9000E+01
#aMCatNLO 1  0  0  5  2 0.19105561D+02 0.00000000D+00  -5  6  0 0.00000000D+00 0.00000000D+00 0.00000000D+00 0.00000000D+00 0.00000000D+00
  <mgrwgt>
 0.6760819046D+00   15    2    0
 0.208450344806174D+03 0.000000000000000D+00 0.000000000000000D+00 0.208450344806174D+03
 0.208450344806174D+03 -.000000000000000D+00 -.000000000000000D+00 -.208450344806174D+03
 0.174639195701389D+03 -.107139912532374D+03 0.506922905672284D+01 -.580447304632718D+02
 0.131450119958120D+03 0.904386620699744D+02 0.687921680124579D+01 -.508472502877788D+02
 0.110811373952838D+03 0.167012504623996D+02 -.119484458579686D+02 0.108891980751051D+03
 0.000000000000000D+00 0.000000000000000D+00 -.000000000000000D+00 0.000000000000000D+00
 0.208450344806174D+03 0.000000000000000D+00 0.000000000000000D+00 0.208450344806174D+03
 0.208450344806174D+03 -.000000000000000D+00 -.000000000000000D+00 -.208450344806174D+03
 0.172804858590560D+03 -.106468238059989D+03 0.458869820751845D+01 -.536654198312574D+02
 0.130542069837296D+03 0.909451420735204D+02 0.651686974740465D+01 -.475450058887087D+02
 0.877377932992993D+02 0.832806795193054D+01 0.911558153242479D+01 0.868646638774612D+02
 0.258159678851932D+02 0.719502803453804D+01 -.202211494873479D+02 0.143457618425049D+02
0.645997411833D-03 0.000000000000D+00 0.000000000000D+00 0.609468403951D-04 0.000000000000D+00  6 2 -1 25 24 21 21 2 0.15834735D+00 0.64948291D-02 0.23479990D+05 0.23479990D+05 0.23479990D+05 0.12262292D+01  1  2  2  3  6  5       21 0.325696859727D+00 0.100000000000D+01
0.154608785221D-03 0.340902199983D-04 -.248080015646D-05 0.609468403951D-04 0.000000000000D+00  6 2 -1 25 24 21 21 4 0.15834735D+00 0.64948291D-02 0.23479990D+05 0.23479990D+05 0.23479990D+05 0.12262292D+01  1  2  3  3  6  5       21 0.117208805035D+00 0.100000000000D+01
0.708206380327D-05 0.000000000000D+00 0.000000000000D+00 0.609468403951D-04 0.000000000000D+00  6 2 -1 25 24 21 21 4 0.15834735D+00 0.64948291D-02 0.23479990D+05 0.23479990D+05 0.23479990D+05 0.12262292D+01  1  2 15  3  6  5       21 0.536890729964D-02 0.100000000000D+01
0.928254232635D-03 0.000000000000D+00 0.000000000000D+00 0.605566399531D-04 0.000000000000D+00  6 2 -1 25 24 21 21 4 0.15834735D+00 0.64948291D-02 0.25543498D+05 0.25543498D+05 0.25543498D+05 0.12222975D+01  1  2 12  3  6  5       21 0.695405120948D+00 0.100000000000D+01
-.929958075188D-03 0.000000000000D+00 0.000000000000D+00 0.609468403951D-04 0.000000000000D+00  6 2 -1 25 24 21 21 4 0.15834735D+00 0.64948291D-02 0.23479990D+05 0.23479990D+05 0.23479990D+05 0.12262292D+01  1  2  4  3  6  5       21 -.705000524838D+00 0.100000000000D+01
-.152411338687D-02 0.000000000000D+00 0.000000000000D+00 0.609468403951D-04 0.000000000000D+00  6 2 -1 25 24 21 21 4 0.15834735D+00 0.64948291D-02 0.23479990D+05 0.23479990D+05 0.23479990D+05 0.12262292D+01  1  2  5  3  6  5       21 -.115542922453D+01 0.100000000000D+01
0.187147318812D-02 0.000000000000D+00 -.000000000000D+00 0.609468403951D-04 0.000000000000D+00  6 2 -1 25 24 21 21 4 0.15834735D+00 0.64948291D-02 0.23479990D+05 0.23479990D+05 0.23479990D+05 0.12262292D+01  1  2  6  3  6  5       21 0.141876243139D+01 0.100000000000D+01
0.131992901878D-04 0.000000000000D+00 0.000000000000D+00 0.605566399531D-04 0.000000000000D+00  6 2 -1 25 24 1 -1 4 0.15834735D+00 0.64948291D-02 0.25543498D+05 0.25543498D+05 0.25543498D+05 0.12222975D+01  1  2 12  6  6  5       21 0.988829748016D-02 0.100000000000D+01
-.215946856173D-04 0.000000000000D+00 0.000000000000D+00 0.609468403951D-04 0.000000000000D+00  6 2 -1 25 24 1 -1 4 0.15834735D+00 0.64948291D-02 0.23479990D+05 0.23479990D+05 0.23479990D+05 0.12262292D+01  1  2  5  6  6  5       21 -.163709150983D-01 0.100000000000D+01
0.131992901878D-04 0.000000000000D+00 0.000000000000D+00 0.605566399531D-04 0.000000000000D+00  6 2 -1 25 24 2 -2 4 0.15834735D+00 0.64948291D-02 0.25543498D+05 0.25543498D+05 0.25543498D+05 0.12222975D+01  1  2 12  7  6  5       21 0.988829748016D-02 0.100000000000D+01
-.215946856173D-04 0.000000000000D+00 0.000000000000D+00 0.609468403951D-04 0.000000000000D+00  6 2 -1 25 24 2 -2 4 0.15834735D+00 0.64948291D-02 0.23479990D+05 0.23479990D+05 0.23479990D+05 0.12262292D+01  1  2  5  7  6  5       21 -.163709150983D-01 0.100000000000D+01
0.131992901878D-04 0.000000000000D+00 0.000000000000D+00 0.605566399531D-04 0.000000000000D+00  6 2 -1 25 24 3 -3 4 0.15834735D+00 0.64948291D-02 0.25543498D+05 0.25543498D+05 0.25543498D+05 0.12222975D+01  1  2 12  8  6  5       21 0.988829748016D-02 0.100000000000D+01
0.131992901878D-04 0.000000000000D+00 0.000000000000D+00 0.605566399531D-04 0.000000000000D+00  6 2 -1 25 24 4 -4 4 0.15834735D+00 0.64948291D-02 0.25543498D+05 0.25543498D+05 0.25543498D+05 0.12222975D+01  1  2 12  8  6  5       21 0.988829748016D-02 0.100000000000D+01
-.215946856173D-04 0.000000000000D+00 0.000000000000D+00 0.609468403951D-04 0.000000000000D+00  6 2 -1 25 24 3 -3 4 0.15834735D+00 0.64948291D-02 0.23479990D+05 0.23479990D+05 0.23479990D+05 0.12262292D+01  1  2  5  8  6  5       21 -.163709150983D-01 0.100000000000D+01
-.215946856173D-04 0.000000000000D+00 0.000000000000D+00 0.609468403951D-04 0.000000000000D+00  6 2 -1 25 24 4 -4 4 0.15834735D+00 0.64948291D-02 0.23479990D+05 0.23479990D+05 0.23479990D+05 0.12262292D+01  1  2  5  8  6  5       21 -.163709150983D-01 0.100000000000D+01
  </mgrwgt>
  </event>
  <event>
  6     66 0.42622971E-03 0.87870682E+02 0.75467711E-02 0.11642016E+00
        2 -1    0    0  503    0 0.00000000E+00 0.00000000E+00 0.47091220E+03 0.47091231E+03 0.32000000E+00 0.0000E+00 0.9000E+01
       -1 -1    0    0    0  501 0.00000000E+00 0.00000000E+00 -.26038927E+03 0.26038946E+03 0.32000000E+00 0.0000E+00 0.9000E+01
       25  1    1    2    0    0 0.27274297E+02 -.28893539E+02 -.97670343E+02 0.16353354E+03 0.12500000E+03 0.0000E+00 0.9000E+01
       24  1    1    2    0    0 -.72117549E+02 -.69217613E+02 -.51635510E+02 0.13829483E+03 0.80419002E+02 0.0000E+00 0.9000E+01
       21  1    1    2  502  501 0.74947359E+01 0.11187021E+02 -.27568420E+02 0.30690403E+02 0.75000000E+00 0.0000E+00 0.9000E+01
       21  1    1    2  503  502 0.37348517E+02 0.86924131E+02 0.38739721E+03 0.39878300E+03 0.75000000E+00 0.0000E+00 0.9000E+01
#aMCatNLO 2  0  0  1  1 0.94608225D+02 0.00000000D+00  -5  6  0 0.00000000D+00 0.00000000D+00 0.00000000D+00 0.00000000D+00 0.00000000D+00
  <mgrwgt>
 0.1699988451D-01    1    2    0
 0.132602331303458D+03 0.000000000000000D+00 0.000000000000000D+00 0.132602331303458D+03
 0.132602331303458D+03 0.000000000000000D+00 0.000000000000000D+00 -.132602331303458D+03
 0.134271042261239D+03 0.454441644122554D+02 0.133960663380472D+02 -.126129345299982D+02
 0.106118638396472D+03 -.559310823589074D+02 -.315444354551186D+02 0.258961788441761D+02
 0.248149819492060D+02 0.104869179466520D+02 0.181483691170714D+02 -.132832443141779D+02
 0.000000000000000D+00 0.000000000000000D+00 0.000000000000000D+00 0.000000000000000D+00
 0.851920595487109D+03 0.000000000000000D+00 0.000000000000000D+00 0.851920595487109D+03
 0.143933914818255D+03 0.000000000000000D+00 0.000000000000000D+00 -.143933914818255D+03
 0.131768404468772D+03 0.272719690676153D+02 -.288975085770897D+02 -.126129345299982D+02
 0.130884666671302D+03 -.721199235625493D+02 -.692219947840982D+02 0.258961788441761D+02
 0.189214826506792D+02 0.749943775090631D+01 0.111953722408009D+02 -.132832443141779D+02
 0.714279956514611D+03 0.373485167440277D+02 0.869241311203869D+02 0.707986680668853D+03
0.168168914983D-03 0.000000000000D+00 0.000000000000D+00 0.516888832112D-04 0.187930516054D-06  6 2 -1 25 24 21 21 4 0.72447958D-01 0.40059857D-01 0.33772133D+05 0.33772133D+05 0.33772133D+05 0.12095367D+01  1  2  1  1  6  1        2 0.169998845148D-01 0.100000000000D+01
  </mgrwgt>
  </event>
  <event>
  5     66 0.42622971E-03 0.40394855E+02 0.75467711E-02 0.11377255E+00
        4 -1    0    0  502    0 0.00000000E+00 0.00000000E+00 0.49589073E+03 0.49589316E+03 0.15500000E+01 0.0000E+00 0.9000E+01
       -3 -1    0    0    0  501 0.00000000E+00 0.00000000E+00 -.11372519E+03 0.11372629E+03 0.50000000E+00 0.0000E+00 0.9000E+01
       25  1    1    2    0    0 0.14489951E+03 -.82577328E+00 0.10946836E+03 0.22046513E+03 0.12500000E+03 0.0000E+00 0.9000E+01
       24  1    1    2    0    0 -.14016469E+03 0.40940753E+02 0.29801884E+03 0.34147435E+03 0.80419002E+02 0.0000E+00 0.9000E+01
       21  1    1    2  502  501 -.47348173E+01 -.40114979E+02 -.25321662E+02 0.47679966E+02 0.75000000E+00 0.0000E+00 0.9000E+01
#aMCatNLO 1  0  0  5  1 0.29370639D+02 0.00000000D+00  -5  6  0 0.00000000D+00 0.00000000D+00 0.00000000D+00 0.00000000D+00 0.00000000D+00
  <mgrwgt>
 0.1140106147D-01    9    2    0
 0.237479138167465D+03 0.000000000000000D+00 0.000000000000000D+00 0.237479138167465D+03
 0.237479138167465D+03 -.000000000000000D+00 -.000000000000000D+00 -.237479138167465D+03
 0.194890190723600D+03 0.144899591617254D+03 -.825077504310888D+00 -.368865020915003D+02
 0.198495826786804D+03 -.140164608570498D+03 0.409414613636729D+02 0.107754612630237D+03
 0.815722588245250D+02 -.473498304675506D+01 -.401163838593620D+02 -.708681105387364D+02
 0.000000000000000D+00 0.000000000000000D+00 0.000000000000000D+00 0.000000000000000D+00
 0.237479138167465D+03 0.000000000000000D+00 0.000000000000000D+00 0.237479138167465D+03
 0.237479138167465D+03 -.000000000000000D+00 -.000000000000000D+00 -.237479138167465D+03
 0.197320357551288D+03 0.144023765392171D+03 -.824537461891300D+01 -.499949227804495D+02
 0.190946285092594D+03 -.141034252735440D+03 0.335735407613492D+02 0.947387183383524D+02
 0.572238665162204D+02 0.200153301284381D+02 -.408069322280544D+02 -.347671071711585D+02
 0.294677671748271D+02 -.230048427851688D+02 0.154787660856182D+02 -.997668838674428D+01
0.611025942975D-03 0.000000000000D+00 0.000000000000D+00 0.963020193439D-05 0.000000000000D+00  6 4 -3 25 24 21 21 2 0.76291153D-01 0.17496454D-01 0.39693476D+05 0.39693476D+05 0.39693476D+05 0.12023397D+01  1  2  2  3  6  5       21 0.823816776961D-02 0.100000000000D+01
0.561553710016D-04 0.322447248846D-04 -.234650050785D-05 0.963020193439D-05 0.000000000000D+00  6 4 -3 25 24 21 21 4 0.76291153D-01 0.17496454D-01 0.39693476D+05 0.39693476D+05 0.39693476D+05 0.12023397D+01  1  2  3  3  6  5       21 0.109450219493D-02 0.100000000000D+01
0.185936686688D-04 0.000000000000D+00 0.000000000000D+00 0.963020193439D-05 0.000000000000D+00  6 4 -3 25 24 21 21 4 0.76291153D-01 0.17496454D-01 0.39693476D+05 0.39693476D+05 0.39693476D+05 0.12023397D+01  1  2 15  3  6  5       21 0.362401864804D-03 0.100000000000D+01
0.326972771556D-03 0.000000000000D+00 0.000000000000D+00 0.952419727612D-05 0.000000000000D+00  6 4 -3 25 24 21 21 4 0.76291153D-01 0.17496454D-01 0.46192047D+05 0.46192047D+05 0.46192047D+05 0.11957040D+01  1  2 12  3  6  5       21 0.628500084945D-02 0.100000000000D+01
-.258889684073D-03 0.000000000000D+00 0.000000000000D+00 0.963020193439D-05 0.000000000000D+00  6 4 -3 25 24 21 21 4 0.76291153D-01 0.17496454D-01 0.39693476D+05 0.39693476D+05 0.39693476D+05 0.12023397D+01  1  2  4  3  6  5       21 -.504591675576D-02 0.100000000000D+01
0.607260857748D-05 0.000000000000D+00 0.000000000000D+00 0.952419727612D-05 0.000000000000D+00  6 4 -3 25 24 3 -3 4 0.76291153D-01 0.17496454D-01 0.46192047D+05 0.46192047D+05 0.46192047D+05 0.11957040D+01  1  2 12  6  6  5       21 0.116726386378D-03 0.100000000000D+01
0.607260857748D-05 0.000000000000D+00 0.000000000000D+00 0.952419727612D-05 0.000000000000D+00  6 4 -3 25 24 4 -4 4 0.76291153D-01 0.17496454D-01 0.46192047D+05 0.46192047D+05 0.46192047D+05 0.11957040D+01  1  2 12  7  6  5       21 0.116726386378D-03 0.100000000000D+01
0.607260857748D-05 0.000000000000D+00 0.000000000000D+00 0.952419727612D-05 0.000000000000D+00  6 4 -3 25 24 1 -1 4 0.76291153D-01 0.17496454D-01 0.46192047D+05 0.46192047D+05 0.46192047D+05 0.11957040D+01  1  2 12  8  6  5       21 0.116726386378D-03 0.100000000000D+01
0.607260857748D-05 0.000000000000D+00 0.000000000000D+00 0.952419727612D-05 0.000000000000D+00  6 4 -3 25 24 2 -2 4 0.76291153D-01 0.17496454D-01 0.46192047D+05 0.46192047D+05 0.46192047D+05 0.11957040D+01  1  2 12  8  6  5       21 0.116726386378D-03 0.100000000000D+01
  </mgrwgt>
  </event>
  <event>
  5     66 0.42622971E-03 0.21407376E+02 0.75467711E-02 0.11877775E+00
        2 -1    0    0  502    0 0.00000000E+00 0.00000000E+00 0.14946991E+04 0.14946992E+04 0.32000000E+00 0.0000E+00 0.9000E+01
       -1 -1    0    0    0  501 0.00000000E+00 0.00000000E+00 -.25928308E+02 0.25930283E+02 0.32000000E+00 0.0000E+00 0.9000E+01
       25  1    1    2    0    0 0.10664281E+03 -.46274744E+02 0.11232355E+04 0.11361325E+04 0.12500000E+03 0.0000E+00 0.9000E+01
       24  1    1    2    0    0 -.97956420E+02 0.26719037E+02 0.20605574E+03 0.24338355E+03 0.80419002E+02 0.0000E+00 0.9000E+01
       21  1    1    2  502  501 -.86863911E+01 0.19555707E+02 0.13947956E+03 0.14111339E+03 0.75000000E+00 0.0000E+00 0.9000E+01
#aMCatNLO 1  0  0  5  1 0.18895652D+01 0.00000000D+00  -5  6  0 0.00000000D+00 0.00000000D+00 0.00000000D+00 0.00000000D+00 0.00000000D+00
  <mgrwgt>
 0.5309648561D+00   20    2    0
 0.196866825764688D+03 0.000000000000000D+00 0.000000000000000D+00 0.196866825764688D+03
 0.196866825764688D+03 -.000000000000000D+00 -.000000000000000D+00 -.196866825764688D+03
 0.197751114587246D+03 0.106644826357659D+03 -.462792820706379D+02 0.998279138451211D+02
 0.171302428512881D+03 -.979546733639084D+02 0.267151059781827D+02 -.112109282125900D+03
 0.246801084292496D+02 -.869015299375105D+01 0.195641760924552D+02 0.122813682807789D+02
 0.000000000000000D+00 0.000000000000000D+00 0.000000000000000D+00 0.000000000000000D+00
 0.196866825764688D+03 0.000000000000000D+00 0.000000000000000D+00 0.196866825764688D+03
 0.196866825764688D+03 -.000000000000000D+00 -.000000000000000D+00 -.196866825764688D+03
 0.197686607047379D+03 0.106459997386555D+03 -.458631758708646D+02 0.100089123591914D+03
 0.171302714308913D+03 -.981148082032989D+02 0.270756181807441D+02 -.111882971387924D+03
 0.233372634179670D+01 -.999548166363077D+00 0.188156995995907D+01 -.952300681137899D+00
 0.224106038312876D+02 -.734564101689285D+01 0.169059877301614D+02 0.127461484771477D+02
0.538608936858D-03 0.000000000000D+00 0.000000000000D+00 0.266054214356D-04 0.000000000000D+00  6 2 -1 25 24 21 21 2 0.22995386D+00 0.39891251D-02 0.25862075D+05 0.25862075D+05 0.25862075D+05 0.12217223D+01  1  2  2  3  6  5       21 0.308345262110D+00 0.100000000000D+01
0.135961141518D-03 0.284231744806D-04 -.206840013652D-05 0.266054214356D-04 0.000000000000D+00  6 2 -1 25 24 21 21 4 0.22995386D+00 0.39891251D-02 0.25862075D+05 0.25862075D+05 0.25862075D+05 0.12217223D+01  1  2  3  3  6  5       21 0.116177893851D+00 0.100000000000D+01
0.137505718576D-04 0.000000000000D+00 0.000000000000D+00 0.266054214356D-04 0.000000000000D+00  6 2 -1 25 24 21 21 4 0.22995386D+00 0.39891251D-02 0.25862075D+05 0.25862075D+05 0.25862075D+05 0.12217223D+01  1  2 15  3  6  5       21 0.117497724705D-01 0.100000000000D+01
0.175314640847D-07 0.000000000000D+00 0.000000000000D+00 0.266164415533D-04 0.000000000000D+00  6 2 -1 25 24 21 21 4 0.22995386D+00 0.39891251D-02 0.25721420D+05 0.25721420D+05 0.25721420D+05 0.12219753D+01  1  2 12  3  6  5       21 0.149923490602D-04 0.100000000000D+01
0.183588130868D-07 0.000000000000D+00 0.000000000000D+00 0.266164415533D-04 0.000000000000D+00  6 2 -1 25 24 21 21 4 0.22995386D+00 0.39891251D-02 0.25721420D+05 0.25721420D+05 0.25721420D+05 0.12219753D+01  1  2 12  3  6  5       21 0.156998715452D-04 0.100000000000D+01
-.715917885899D-03 0.000000000000D+00 0.000000000000D+00 0.266054214356D-04 0.000000000000D+00  6 2 -1 25 24 21 21 4 0.22995386D+00 0.39891251D-02 0.25862075D+05 0.25862075D+05 0.25862075D+05 0.12217223D+01  1  2  4  3  6  5       21 -.611747086158D+00 0.100000000000D+01
-.317919303602D-04 0.000000000000D+00 0.000000000000D+00 0.266054214356D-04 0.000000000000D+00  6 2 -1 25 24 21 21 4 0.22995386D+00 0.39891251D-02 0.25862075D+05 0.25862075D+05 0.25862075D+05 0.12217223D+01  1  2  5  3  6  5       21 -.271659936764D-01 0.100000000000D+01
0.942977108942D-03 0.000000000000D+00 -.000000000000D+00 0.266054214356D-04 0.000000000000D+00  6 2 -1 25 24 21 21 4 0.22995386D+00 0.39891251D-02 0.25862075D+05 0.25862075D+05 0.25862075D+05 0.12217223D+01  1  2  6  3  6  5       21 0.805767686589D+00 0.100000000000D+01
0.122819944861D-07 0.000000000000D+00 0.000000000000D+00 0.266164415533D-04 0.000000000000D+00  6 2 -1 25 24 1 -1 4 0.22995386D+00 0.39891251D-02 0.25721420D+05 0.25721420D+05 0.25721420D+05 0.12219753D+01  1  2 12  6  6  5       21 0.105031700491D-04 0.100000000000D+01
0.124398028625D-07 0.000000000000D+00 0.000000000000D+00 0.266164415533D-04 0.000000000000D+00  6 2 -1 25 24 1 -1 4 0.22995386D+00 0.39891251D-02 0.25721420D+05 0.25721420D+05 0.25721420D+05 0.12219753D+01  1  2 12  6  6  5       21 0.106381227405D-04 0.100000000000D+01
-.211464298894D-04 0.000000000000D+00 0.000000000000D+00 0.266054214356D-04 0.000000000000D+00  6 2 -1 25 24 1 -1 4 0.22995386D+00 0.39891251D-02 0.25862075D+05 0.25862075D+05 0.25862075D+05 0.12217223D+01  1  2  5  6  6  5       21 -.180694841158D-01 0.100000000000D+01
0.122819944861D-07 0.000000000000D+00 0.000000000000D+00 0.266164415533D-04 0.000000000000D+00  6 2 -1 25 24 2 -2 4 0.22995386D+00 0.39891251D-02 0.25721420D+05 0.25721420D+05 0.25721420D+05 0.12219753D+01  1  2 12  7  6  5       21 0.105031700491D-04 0.100000000000D+01
0.124398028625D-07 0.000000000000D+00 0.000000000000D+00 0.266164415533D-04 0.000000000000D+00  6 2 -1 25 24 2 -2 4 0.22995386D+00 0.39891251D-02 0.25721420D+05 0.25721420D+05 0.25721420D+05 0.12219753D+01  1  2 12  7  6  5       21 0.106381227405D-04 0.100000000000D+01
-.211464298894D-04 0.000000000000D+00 0.000000000000D+00 0.266054214356D-04 0.000000000000D+00  6 2 -1 25 24 2 -2 4 0.22995386D+00 0.39891251D-02 0.25862075D+05 0.25862075D+05 0.25862075D+05 0.12217223D+01  1  2  5  7  6  5       21 -.180694841158D-01 0.100000000000D+01
0.122819944861D-07 0.000000000000D+00 0.000000000000D+00 0.266164415533D-04 0.000000000000D+00  6 2 -1 25 24 3 -3 4 0.22995386D+00 0.39891251D-02 0.25721420D+05 0.25721420D+05 0.25721420D+05 0.12219753D+01  1  2 12  8  6  5       21 0.105031700491D-04 0.100000000000D+01
0.122819944861D-07 0.000000000000D+00 0.000000000000D+00 0.266164415533D-04 0.000000000000D+00  6 2 -1 25 24 4 -4 4 0.22995386D+00 0.39891251D-02 0.25721420D+05 0.25721420D+05 0.25721420D+05 0.12219753D+01  1  2 12  8  6  5       21 0.105031700491D-04 0.100000000000D+01
0.124398028625D-07 0.000000000000D+00 0.000000000000D+00 0.266164415533D-04 0.000000000000D+00  6 2 -1 25 24 3 -3 4 0.22995386D+00 0.39891251D-02 0.25721420D+05 0.25721420D+05 0.25721420D+05 0.12219753D+01  1  2 12  8  6  5       21 0.106381227405D-04 0.100000000000D+01
0.124398028625D-07 0.000000000000D+00 0.000000000000D+00 0.266164415533D-04 0.000000000000D+00  6 2 -1 25 24 4 -4 4 0.22995386D+00 0.39891251D-02 0.25721420D+05 0.25721420D+05 0.25721420D+05 0.12219753D+01  1  2 12  8  6  5       21 0.106381227405D-04 0.100000000000D+01
-.211464298894D-04 0.000000000000D+00 0.000000000000D+00 0.266054214356D-04 0.000000000000D+00  6 2 -1 25 24 3 -3 4 0.22995386D+00 0.39891251D-02 0.25862075D+05 0.25862075D+05 0.25862075D+05 0.12217223D+01  1  2  5  8  6  5       21 -.180694841158D-01 0.100000000000D+01
-.211464298894D-04 0.000000000000D+00 0.000000000000D+00 0.266054214356D-04 0.000000000000D+00  6 2 -1 25 24 4 -4 4 0.22995386D+00 0.39891251D-02 0.25862075D+05 0.25862075D+05 0.25862075D+05 0.12217223D+01  1  2  5  8  6  5       21 -.180694841158D-01 0.100000000000D+01
  </mgrwgt>
  </event>
  <event>
  5     66 0.42622971E-03 0.45751446E+02 0.75467711E-02 0.10244273E+00
        2 -1    0    0  502    0 0.00000000E+00 0.00000000E+00 0.12506381E+04 0.12506381E+04 0.32000000E+00 0.0000E+00 0.9000E+01
       -1 -1    0    0    0  501 0.00000000E+00 0.00000000E+00 -.56235709E+02 0.56236619E+02 0.32000000E+00 0.0000E+00 0.9000E+01
       25  1    1    2    0    0 -.53678804E+02 -.51455729E+02 0.98780604E+03 0.99845625E+03 0.12500000E+03 0.0000E+00 0.9000E+01
       24  1    1    2    0    0 0.85974667E+02 0.19049772E+02 0.22845510E+03 0.25770814E+03 0.80419002E+02 0.0000E+00 0.9000E+01
       21  1    1    2  502  501 -.32295863E+02 0.32405957E+02 -.21858787E+02 0.50710333E+02 0.75000000E+00 0.0000E+00 0.9000E+01
#aMCatNLO 1  0  0  2  1 0.82191078D-01 0.00000000D+00  -5  6  0 0.00000000D+00 0.00000000D+00 0.00000000D+00 0.00000000D+00 0.00000000D+00
  <mgrwgt>
 0.6941541985D+00    3    2    0
 0.265200187255047D+03 0.000000000000000D+00 0.000000000000000D+00 0.265200187255047D+03
 0.265200187255047D+03 0.000000000000000D+00 0.000000000000000D+00 -.265200187255047D+03
 0.235708093218510D+03 -.536786710888959D+02 -.514558623254251D+02 0.185483691226972D+03
 0.120522046611612D+03 0.859747348740281D+02 0.190497038532209D+02 -.174299027973803D+02
 0.174170234679973D+03 -.322960637851321D+02 0.324061584722042D+02 -.168053788429591D+03
 0.000000000000000D+00 0.000000000000000D+00 -.000000000000000D+00 0.000000000000000D+00
 0.880287234585569D+03 0.000000000000000D+00 0.000000000000000D+00 0.880287234585569D+03
 0.400440815336181D+03 0.000000000000000D+00 0.000000000000000D+00 -.400440815336181D+03
 0.296670267876211D+03 -.182599282930571D+03 0.681289219333539D+02 0.185483691226972D+03
 0.112907310134896D+03 0.294475397572186D+02 0.714834639496988D+02 -.174299027973803D+02
 0.250725094821621D+03 -.135188611362343D+03 0.127847709113987D+03 -.168053788429591D+03
 0.620425377089022D+03 0.288340354535695D+03 -.267460094997039D+03 0.479846419249388D+03
0.251638797736D-02 0.000000000000D+00 0.000000000000D+00 0.109639020056D-04 0.000000000000D+00  6 2 -1 25 24 21 21 2 0.19240593D+00 0.86517207D-02 0.24094954D+05 0.24094954D+05 0.24094954D+05 0.12250183D+01  1  2  2  2  6  2       -1 0.614881877899D+00 0.100000000000D+01
0.153373447270D-03 0.132793441859D-03 -.966359241323D-05 0.109639020056D-04 0.000000000000D+00  6 2 -1 25 24 21 21 4 0.19240593D+00 0.86517207D-02 0.24094954D+05 0.24094954D+05 0.24094954D+05 0.12250183D+01  1  2  3  2  6  2       -1 0.562405293591D-01 0.100000000000D+01
0.628099566757D-04 0.000000000000D+00 0.000000000000D+00 0.109639020056D-04 0.000000000000D+00  6 2 -1 25 24 21 21 4 0.19240593D+00 0.86517207D-02 0.24094954D+05 0.24094954D+05 0.24094954D+05 0.12250183D+01  1  2 15  2  6  2       -1 0.230317911956D-01 0.100000000000D+01
  </mgrwgt>
  </event>
  <event>
  5     66 0.42622971E-03 0.23829302E+02 0.75467711E-02 0.10882490E+00
        2 -1    0    0  502    0 0.00000000E+00 0.00000000E+00 0.10623060E+04 0.10623060E+04 0.32000000E+00 0.0000E+00 0.9000E+01
       -1 -1    0    0    0  501 0.00000000E+00 0.00000000E+00 -.48805806E+02 0.48806855E+02 0.32000000E+00 0.0000E+00 0.9000E+01
       25  1    1    2    0    0 -.69306047E+02 0.12991088E+02 0.13864048E+03 0.19954518E+03 0.12500000E+03 0.0000E+00 0.9000E+01
       24  1    1    2    0    0 0.86862185E+02 0.31212766E+01 0.17497845E+03 0.21128051E+03 0.80419002E+02 0.0000E+00 0.9000E+01
       21  1    1    2  502  501 -.17556139E+02 -.16112364E+02 0.69988127E+03 0.70028721E+03 0.75000000E+00 0.0000E+00 0.9000E+01
#aMCatNLO 1  0  0  2  5 0.77392414D+01 0.00000000D+00  -5  6  0 0.00000000D+00 0.00000000D+00 0.00000000D+00 0.00000000D+00 0.00000000D+00
  <mgrwgt>
 0.7050555605D+00    5    4    0
 0.227700043846730D+03 0.000000000000000D+00 0.000000000000000D+00 0.227700043846730D+03
 0.227700043846730D+03 0.000000000000000D+00 0.000000000000000D+00 -.227700043846730D+03
 0.178316291634356D+03 -.693059618038692D+02 0.129911654252671D+02 -.105828224692483D+03
 0.126077953543220D+03 0.868622453481150D+02 0.312133158208128D+01 -.432855869489413D+02
 0.151005842515884D+03 -.175562835442458D+02 -.161124970073483D+02 0.149113811641425D+03
 0.000000000000000D+00 -.000000000000000D+00 0.000000000000000D+00 -.000000000000000D+00
 0.311154084788450D+03 0.000000000000000D+00 0.000000000000000D+00 0.311154084788450D+03
 0.451987464943845D+03 0.000000000000000D+00 0.000000000000000D+00 -.451987464943845D+03
 0.171380595045278D+03 -.179937517230623D+02 -.471478537734171D+02 -.105828224692483D+03
 0.165391385442173D+03 0.129630529893450D+03 -.470040222336328D+02 -.432855869489413D+02
 0.167682418636222D+03 0.292059257559043D+02 -.709188169543139D+02 0.149113811641425D+03
 0.258687150608623D+03 -.140842703926292D+03 0.165070692961364D+03 -.140833380155396D+03
 0.227700043846730D+03 0.000000000000000D+00 0.000000000000000D+00 0.227700043846730D+03
 0.227700043846730D+03 0.000000000000000D+00 0.000000000000000D+00 -.227700043846730D+03
 0.178316291634356D+03 -.693059618038692D+02 0.129911654252671D+02 -.105828224692483D+03
 0.126077953543220D+03 0.868622453481150D+02 0.312133158208128D+01 -.432855869489413D+02
 0.000000000000000D+00 -.000000000000000D+00 0.000000000000000D+00 -.000000000000000D+00
 0.151005842515884D+03 -.175562835442458D+02 -.161124970073483D+02 0.149113811641425D+03
 0.311154084788450D+03 0.000000000000000D+00 0.000000000000000D+00 0.311154084788450D+03
 0.451987464943845D+03 0.000000000000000D+00 0.000000000000000D+00 -.451987464943845D+03
 0.171380595045278D+03 -.179937517230623D+02 -.471478537734171D+02 -.105828224692483D+03
 0.165391385442173D+03 0.129630529893450D+03 -.470040222336328D+02 -.432855869489413D+02
 0.258687150608623D+03 -.140842703926292D+03 0.165070692961364D+03 -.140833380155396D+03
 0.167682418636222D+03 0.292059257559043D+02 -.709188169543139D+02 0.149113811641425D+03
0.105800912482D-02 0.000000000000D+00 0.000000000000D+00 0.599211921325D-04 0.000000000000D+00  6 2 -1 25 24 21 21 2 0.16343178D+00 0.75086699D-02 0.20414797D+05 0.20414797D+05 0.20414797D+05 0.12328458D+01  1  2  2  2  6  2       -1 0.414078388106D+00 0.100000000000D+01
0.233090947656D-03 0.558326754326D-04 -.406303361949D-05 0.599211921325D-04 0.000000000000D+00  6 2 -1 25 24 21 21 4 0.16343178D+00 0.75086699D-02 0.20414797D+05 0.20414797D+05 0.20414797D+05 0.12328458D+01  1  2  3  2  6  2       -1 0.138655169159D+00 0.100000000000D+01
0.456632333857D-04 0.000000000000D+00 0.000000000000D+00 0.599211921325D-04 0.000000000000D+00  6 2 -1 25 24 21 21 4 0.16343178D+00 0.75086699D-02 0.20414797D+05 0.20414797D+05 0.20414797D+05 0.12328458D+01  1  2 15  2  6  2       -1 0.271629739942D-01 0.100000000000D+01
0.237045834809D-03 0.000000000000D+00 -.582915414091D-03 0.599211921325D-04 0.000000000000D+00  6 2 -1 25 24 21 21 4 0.16343178D+00 0.20516522D-01 0.20414797D+05 0.20414797D+05 0.20414797D+05 0.12328458D+01  1  2  5  2  6  2       -1 0.296375692433D-01 0.100000000000D+01
0.601367737044D-04 0.000000000000D+00 -.655011725232D-04 0.599211921325D-04 0.000000000000D+00  6 2 21 25 24 1 21 4 0.16343178D+00 0.20516522D-01 0.20414797D+05 0.20414797D+05 0.20414797D+05 0.12328458D+01  3  4  5  5  5  2       -1 0.955214599858D-01 0.100000000000D+01
  </mgrwgt>
  </event>
  <event>
  5     66 0.42622971E-03 0.56873787E+02 0.75467711E-02 0.12074949E+00
        4 -1    0    0  502    0 0.00000000E+00 0.00000000E+00 0.89549108E+03 0.89549242E+03 0.15500000E+01 0.0000E+00 0.9000E+01
       -3 -1    0    0    0  501 0.00000000E+00 0.00000000E+00 -.30025736E+02 0.30029899E+02 0.50000000E+00 0.0000E+00 0.9000E+01
       25  1    1    2    0    0 0.36905339E+01 -.16709832E+02 0.19774584E+03 0.23456610E+03 0.12500000E+03 0.0000E+00 0.9000E+01
       24  1    1    2    0    0 0.44009297E+02 0.49315418E+02 0.27563362E+03 0.29463526E+03 0.80419002E+02 0.0000E+00 0.9000E+01
       21  1    1    2  502  501 -.47699831E+02 -.32605587E+02 0.39208589E+03 0.39632097E+03 0.75000000E+00 0.0000E+00 0.9000E+01
#aMCatNLO 1  0  0  5  1 0.59022443D+01 0.00000000D+00  -5  6  0 0.00000000D+00 0.00000000D+00 0.00000000D+00 0.00000000D+00 0.00000000D+00
  <mgrwgt>
 0.1158903663D-02   25    2    0
 0.163982699971020D+03 0.000000000000000D+00 0.000000000000000D+00 0.163982699971020D+03
 0.163982699971020D+03 -.000000000000000D+00 -.000000000000000D+00 -.163982699971020D+03
 0.140118818460945D+03 0.369135109642950D+01 -.167092731707626D+02 -.609545519553625D+02
 0.104097300218169D+03 0.440099044064078D+02 0.493158333346571D+02 0.329931793351616D+00
 0.837492812629262D+02 -.477012555028373D+02 -.326065601638945D+02 0.606246201620109D+02
 0.000000000000000D+00 0.000000000000000D+00 -.000000000000000D+00 0.000000000000000D+00
 0.163982699971020D+03 0.000000000000000D+00 0.000000000000000D+00 0.163982699971020D+03
 0.163982699971020D+03 -.000000000000000D+00 -.000000000000000D+00 -.163982699971020D+03
 0.139997496967213D+03 0.344636943997194D+01 -.168767322666738D+02 -.606431991468705D+02
 0.103962580655528D+03 0.438279412309287D+02 0.491914510062189D+02 0.561192968358530D+00
 0.248772852502113D+02 -.166681766683338D+02 -.429162593198716D+01 0.179619919506018D+02
 0.591280370690879D+02 -.306061340025668D+02 -.280230928075579D+02 0.421200142279102D+02
0.176923830170D-04 0.000000000000D+00 0.000000000000D+00 0.814594149029D-05 0.000000000000D+00  6 4 -3 25 24 21 21 2 0.13776828D+00 0.46197674D-02 0.20742227D+05 0.20742227D+05 0.20742227D+05 0.12320876D+01  1  2  2  3  6  5       21 0.544837425739D-03 0.100000000000D+01
-.394703873202D-06 0.933652702468D-06 -.679434092968D-07 0.814594149029D-05 0.000000000000D+00  6 4 -3 25 24 21 21 4 0.13776828D+00 0.46197674D-02 0.20742227D+05 0.20742227D+05 0.20742227D+05 0.12320876D+01  1  2  3  3  6  5       21 -.184516481174D-04 0.100000000000D+01
0.515929224075D-06 0.000000000000D+00 0.000000000000D+00 0.814594149029D-05 0.000000000000D+00  6 4 -3 25 24 21 21 4 0.13776828D+00 0.46197674D-02 0.20742227D+05 0.20742227D+05 0.20742227D+05 0.12320876D+01  1  2 15  3  6  5       21 0.241187004802D-04 0.100000000000D+01
0.168211900037D-04 0.000000000000D+00 0.000000000000D+00 0.814241568437D-05 0.000000000000D+00  6 4 -3 25 24 21 21 4 0.13776828D+00 0.46197674D-02 0.20858788D+05 0.20858788D+05 0.20858788D+05 0.12318209D+01  1  2 12  3  6  5       21 0.785991608650D-03 0.100000000000D+01
0.173520138947D-04 0.000000000000D+00 0.000000000000D+00 0.814241568437D-05 0.000000000000D+00  6 4 -3 25 24 21 21 4 0.13776828D+00 0.46197674D-02 0.20858788D+05 0.20858788D+05 0.20858788D+05 0.12318209D+01  1  2 12  3  6  5       21 0.810795033608D-03 0.100000000000D+01
-.132625674234D-03 0.000000000000D+00 0.000000000000D+00 0.814594149029D-05 0.000000000000D+00  6 4 -3 25 24 21 21 4 0.13776828D+00 0.46197674D-02 0.20742227D+05 0.20742227D+05 0.20742227D+05 0.12320876D+01  1  2  4  3  6  5       21 -.619999558772D-02 0.100000000000D+01
-.431045340523D-04 0.000000000000D+00 0.000000000000D+00 0.814594149029D-05 0.000000000000D+00  6 4 -3 25 24 21 21 4 0.13776828D+00 0.46197674D-02 0.20742227D+05 0.20742227D+05 0.20742227D+05 0.12320876D+01  1  2  5  3  6  5       21 -.201505419277D-02 0.100000000000D+01
0.149546393775D-03 0.000000000000D+00 -.000000000000D+00 0.814594149029D-05 0.000000000000D+00  6 4 -3 25 24 21 21 4 0.13776828D+00 0.46197674D-02 0.20742227D+05 0.20742227D+05 0.20742227D+05 0.12320876D+01  1  2  6  3  6  5       21 0.699100673318D-02 0.100000000000D+01
0.105073799787D-04 0.000000000000D+00 0.000000000000D+00 0.814594149029D-05 0.123519992022D-05  6 4 -3 25 24 21 21 4 0.13776828D+00 0.46197674D-02 0.20858788D+05 0.20858788D+05 0.20858788D+05 0.12318209D+01  1  2 11  3  6  5       21 0.490970763089D-03 0.100000000000D+01
0.230469602406D-05 0.000000000000D+00 0.000000000000D+00 0.814241568437D-05 0.000000000000D+00  6 4 -3 25 24 3 -3 4 0.13776828D+00 0.46197674D-02 0.20858788D+05 0.20858788D+05 0.20858788D+05 0.12318209D+01  1  2 12  6  6  5       21 0.107689868255D-03 0.100000000000D+01
0.235674550519D-05 0.000000000000D+00 0.000000000000D+00 0.814241568437D-05 0.000000000000D+00  6 4 -3 25 24 3 -3 4 0.13776828D+00 0.46197674D-02 0.20858788D+05 0.20858788D+05 0.20858788D+05 0.12318209D+01  1  2 12  6  6  5       21 0.110121946806D-03 0.100000000000D+01
-.804834557944D-05 0.000000000000D+00 0.000000000000D+00 0.814594149029D-05 0.000000000000D+00  6 4 -3 25 24 3 -3 4 0.13776828D+00 0.46197674D-02 0.20742227D+05 0.20742227D+05 0.20742227D+05 0.12320876D+01  1  2  5  6  6  5       21 -.376244700501D-03 0.100000000000D+01
0.202162743776D-05 0.000000000000D+00 0.000000000000D+00 0.814594149029D-05 0.672889058098D-07  6 4 -3 25 24 3 -3 4 0.13776828D+00 0.46197674D-02 0.20858788D+05 0.20858788D+05 0.20858788D+05 0.12318209D+01  1  2 11  6  6  5       21 0.944631266599D-04 0.100000000000D+01
0.230469602406D-05 0.000000000000D+00 0.000000000000D+00 0.814241568437D-05 0.000000000000D+00  6 4 -3 25 24 4 -4 4 0.13776828D+00 0.46197674D-02 0.20858788D+05 0.20858788D+05 0.20858788D+05 0.12318209D+01  1  2 12  7  6  5       21 0.107689868255D-03 0.100000000000D+01
0.235674550519D-05 0.000000000000D+00 0.000000000000D+00 0.814241568437D-05 0.000000000000D+00  6 4 -3 25 24 4 -4 4 0.13776828D+00 0.46197674D-02 0.20858788D+05 0.20858788D+05 0.20858788D+05 0.12318209D+01  1  2 12  7  6  5       21 0.110121946806D-03 0.100000000000D+01
-.804834557944D-05 0.000000000000D+00 0.000000000000D+00 0.814594149029D-05 0.000000000000D+00  6 4 -3 25 24 4 -4 4 0.13776828D+00 0.46197674D-02 0.20742227D+05 0.20742227D+05 0.20742227D+05 0.12320876D+01  1  2  5  7  6  5       21 -.376244700501D-03 0.100000000000D+01
0.203627203424D-05 0.000000000000D+00 0.000000000000D+00 0.814594149029D-05 0.691172347478D-07  6 4 -3 25 24 4 -4 4 0.13776828D+00 0.46197674D-02 0.20858788D+05 0.20858788D+05 0.20858788D+05 0.12318209D+01  1  2 11  7  6  5       21 0.951474141538D-04 0.100000000000D+01
0.230469602406D-05 0.000000000000D+00 0.000000000000D+00 0.814241568437D-05 0.000000000000D+00  6 4 -3 25 24 1 -1 4 0.13776828D+00 0.46197674D-02 0.20858788D+05 0.20858788D+05 0.20858788D+05 0.12318209D+01  1  2 12  8  6  5       21 0.107689868255D-03 0.100000000000D+01
0.230469602406D-05 0.000000000000D+00 0.000000000000D+00 0.814241568437D-05 0.000000000000D+00  6 4 -3 25 24 2 -2 4 0.13776828D+00 0.46197674D-02 0.20858788D+05 0.20858788D+05 0.20858788D+05 0.12318209D+01  1  2 12  8  6  5       21 0.107689868255D-03 0.100000000000D+01
0.235674550519D-05 0.000000000000D+00 0.000000000000D+00 0.814241568437D-05 0.000000000000D+00  6 4 -3 25 24 1 -1 4 0.13776828D+00 0.46197674D-02 0.20858788D+05 0.20858788D+05 0.20858788D+05 0.12318209D+01  1  2 12  8  6  5       21 0.110121946806D-03 0.100000000000D+01
0.235674550519D-05 0.000000000000D+00 0.000000000000D+00 0.814241568437D-05 0.000000000000D+00  6 4 -3 25 24 2 -2 4 0.13776828D+00 0.46197674D-02 0.20858788D+05 0.20858788D+05 0.20858788D+05 0.12318209D+01  1  2 12  8  6  5       21 0.110121946806D-03 0.100000000000D+01
-.804834557944D-05 0.000000000000D+00 0.000000000000D+00 0.814594149029D-05 0.000000000000D+00  6 4 -3 25 24 1 -1 4 0.13776828D+00 0.46197674D-02 0.20742227D+05 0.20742227D+05 0.20742227D+05 0.12320876D+01  1  2  5  8  6  5       21 -.376244700501D-03 0.100000000000D+01
-.804834557944D-05 0.000000000000D+00 0.000000000000D+00 0.814594149029D-05 0.000000000000D+00  6 4 -3 25 24 2 -2 4 0.13776828D+00 0.46197674D-02 0.20742227D+05 0.20742227D+05 0.20742227D+05 0.12320876D+01  1  2  5  8  6  5       21 -.376244700501D-03 0.100000000000D+01
0.202033881396D-05 0.000000000000D+00 0.000000000000D+00 0.814594149029D-05 0.672218355013D-07  6 4 -3 25 24 1 -1 4 0.13776828D+00 0.46197674D-02 0.20858788D+05 0.20858788D+05 0.20858788D+05 0.12318209D+01  1  2 11  8  6  5       21 0.944029140656D-04 0.100000000000D+01
0.202033881396D-05 0.000000000000D+00 0.000000000000D+00 0.814594149029D-05 0.672218355013D-07  6 4 -3 25 24 2 -2 4 0.13776828D+00 0.46197674D-02 0.20858788D+05 0.20858788D+05 0.20858788D+05 0.12318209D+01  1  2 11  8  6  5       21 0.944029140656D-04 0.100000000000D+01
  </mgrwgt>
  </event>
  <event>
  5     66 -.42622971E-03 0.21427875E+02 0.75467711E-02 0.12389934E+00
        2 -1    0    0  502    0 0.00000000E+00 0.00000000E+00 0.17059498E+04 0.17059498E+04 0.32000000E+00 0.0000E+00 0.9000E+01
       -1 -1    0    0    0  501 0.00000000E+00 0.00000000E+00 -.13320522E+02 0.13324365E+02 0.32000000E+00 0.0000E+00 0.9000E+01
       25  1    1    2    0    0 0.41377743E+02 0.20395098E+01 0.11162238E+04 0.11239648E+04 0.12500000E+03 0.0000E+00 0.9000E+01
       24  1    1    2    0    0 -.38021952E+02 -.23198574E+02 0.22233712E+03 0.24059271E+03 0.80419002E+02 0.0000E+00 0.9000E+01
       21  1    1    2  502  501 -.33557913E+01 0.21159064E+02 0.35406833E+03 0.35471667E+03 0.75000000E+00 0.0000E+00 0.9000E+01
#aMCatNLO 1  0  0  5  2 0.24002250D+01 0.00000000D+00  -5  6  0 0.00000000D+00 0.00000000D+00 0.00000000D+00 0.00000000D+00 0.00000000D+00
  <mgrwgt>
 -.1805990133D+01   20    2    0
 0.150756331326764D+03 0.000000000000000D+00 0.000000000000000D+00 0.150756331326764D+03
 0.150756331326764D+03 -.000000000000000D+00 -.000000000000000D+00 -.150756331326764D+03
 0.142780891098131D+03 0.413781083578365D+02 0.203720672812546D+01 0.551822870154044D+02
 0.123746491229332D+03 -.380216351786909D+02 -.232005695807749D+02 -.828375939212791D+02
 0.349852803260648D+02 -.335647317914556D+01 0.211633628526494D+02 0.276553069058746D+02
 0.000000000000000D+00 -.000000000000000D+00 0.000000000000000D+00 0.000000000000000D+00
 0.150756331326764D+03 0.000000000000000D+00 0.000000000000000D+00 0.150756331326764D+03
 0.150756331326764D+03 -.000000000000000D+00 -.000000000000000D+00 -.150756331326764D+03
 0.142940376799711D+03 0.413250008061175D+02 0.237206249108143D+01 0.556198610889685D+02
 0.123453445925175D+03 -.380675826979076D+02 -.229108595281506D+02 -.824590141806762D+02
 0.319029911607453D+02 -.140525917544567D+01 0.179596248848926D+02 0.263301721537548D+02
 0.321584876789647D+01 -.185215893276425D+01 0.257917215217662D+01 0.508980937952935D+00
0.146332922986D-03 0.000000000000D+00 0.000000000000D+00 0.360983870976D-04 0.000000000000D+00  6 2 -1 25 24 21 21 2 0.26245411D+00 0.20496090D-02 0.15011671D+05 0.15011671D+05 0.15011671D+05 0.12477840D+01  1  2  2  3  6  5       21 0.178083655952D+00 0.100000000000D+01
0.183801950105D-04 0.772220050145D-05 -.561956954610D-06 0.360983870976D-04 0.000000000000D+00  6 2 -1 25 24 21 21 4 0.26245411D+00 0.20496090D-02 0.15011671D+05 0.15011671D+05 0.15011671D+05 0.12477840D+01  1  2  3  3  6  5       21 0.348265917058D-01 0.100000000000D+01
0.600489308267D-05 0.000000000000D+00 0.000000000000D+00 0.360983870976D-04 0.000000000000D+00  6 2 -1 25 24 21 21 4 0.26245411D+00 0.20496090D-02 0.15011671D+05 0.15011671D+05 0.15011671D+05 0.12477840D+01  1  2 15  3  6  5       21 0.113780054840D-01 0.100000000000D+01
0.165885910156D-06 0.000000000000D+00 0.000000000000D+00 0.361054712327D-04 0.000000000000D+00  6 2 -1 25 24 21 21 4 0.26245411D+00 0.20496090D-02 0.14974598D+05 0.14974598D+05 0.14974598D+05 0.12479065D+01  1  2 12  3  6  5       21 0.314429432312D-03 0.100000000000D+01
0.203530050824D-06 0.000000000000D+00 0.000000000000D+00 0.361054712327D-04 0.000000000000D+00  6 2 -1 25 24 21 21 4 0.26245411D+00 0.20496090D-02 0.14974598D+05 0.14974598D+05 0.14974598D+05 0.12479065D+01  1  2 12  3  6  5       21 0.385782242018D-03 0.100000000000D+01
-.124724803336D-02 0.000000000000D+00 0.000000000000D+00 0.360983870976D-04 0.000000000000D+00  6 2 -1 25 24 21 21 4 0.26245411D+00 0.20496090D-02 0.15011671D+05 0.15011671D+05 0.15011671D+05 0.12477840D+01  1  2  4  3  6  5       21 -.236327187980D+01 0.100000000000D+01
-.127094578109D-02 0.000000000000D+00 0.000000000000D+00 0.360983870976D-04 0.000000000000D+00  6 2 -1 25 24 21 21 4 0.26245411D+00 0.20496090D-02 0.15011671D+05 0.15011671D+05 0.15011671D+05 0.12477840D+01  1  2  5  3  6  5       21 -.240817411201D+01 0.100000000000D+01
0.147921424521D-02 0.000000000000D+00 -.000000000000D+00 0.360983870976D-04 0.000000000000D+00  6 2 -1 25 24 21 21 4 0.26245411D+00 0.20496090D-02 0.15011671D+05 0.15011671D+05 0.15011671D+05 0.12477840D+01  1  2  6  3  6  5       21 0.280279891121D+01 0.100000000000D+01
0.170570074884D-07 0.000000000000D+00 0.000000000000D+00 0.361054712327D-04 0.000000000000D+00  6 2 -1 25 24 1 -1 4 0.26245411D+00 0.20496090D-02 0.14974598D+05 0.14974598D+05 0.14974598D+05 0.12479065D+01  1  2 12  6  6  5       21 0.323308060129D-04 0.100000000000D+01
0.181267128002D-07 0.000000000000D+00 0.000000000000D+00 0.361054712327D-04 0.000000000000D+00  6 2 -1 25 24 1 -1 4 0.26245411D+00 0.20496090D-02 0.14974598D+05 0.14974598D+05 0.14974598D+05 0.12479065D+01  1  2 12  6  6  5       21 0.343583852908D-04 0.100000000000D+01
-.825926709761D-05 0.000000000000D+00 0.000000000000D+00 0.360983870976D-04 0.000000000000D+00  6 2 -1 25 24 1 -1 4 0.26245411D+00 0.20496090D-02 0.15011671D+05 0.15011671D+05 0.15011671D+05 0.12477840D+01  1  2  5  6  6  5       21 -.156495686163D-01 0.100000000000D+01
0.170570074884D-07 0.000000000000D+00 0.000000000000D+00 0.361054712327D-04 0.000000000000D+00  6 2 -1 25 24 2 -2 4 0.26245411D+00 0.20496090D-02 0.14974598D+05 0.14974598D+05 0.14974598D+05 0.12479065D+01  1  2 12  7  6  5       21 0.323308060129D-04 0.100000000000D+01
0.181267128002D-07 0.000000000000D+00 0.000000000000D+00 0.361054712327D-04 0.000000000000D+00  6 2 -1 25 24 2 -2 4 0.26245411D+00 0.20496090D-02 0.14974598D+05 0.14974598D+05 0.14974598D+05 0.12479065D+01  1  2 12  7  6  5       21 0.343583852908D-04 0.100000000000D+01
-.825926709761D-05 0.000000000000D+00 0.000000000000D+00 0.360983870976D-04 0.000000000000D+00  6 2 -1 25 24 2 -2 4 0.26245411D+00 0.20496090D-02 0.15011671D+05 0.15011671D+05 0.15011671D+05 0.12477840D+01  1  2  5  7  6  5       21 -.156495686163D-01 0.100000000000D+01
0.170570074884D-07 0.000000000000D+00 0.000000000000D+00 0.361054712327D-04 0.000000000000D+00  6 2 -1 25 24 3 -3 4 0.26245411D+00 0.20496090D-02 0.14974598D+05 0.14974598D+05 0.14974598D+05 0.12479065D+01  1  2 12  8  6  5       21 0.323308060129D-04 0.100000000000D+01
0.170570074884D-07 0.000000000000D+00 0.000000000000D+00 0.361054712327D-04 0.000000000000D+00  6 2 -1 25 24 4 -4 4 0.26245411D+00 0.20496090D-02 0.14974598D+05 0.14974598D+05 0.14974598D+05 0.12479065D+01  1  2 12  8  6  5       21 0.323308060129D-04 0.100000000000D+01
0.181267128002D-07 0.000000000000D+00 0.000000000000D+00 0.361054712327D-04 0.000000000000D+00  6 2 -1 25 24 3 -3 4 0.26245411D+00 0.20496090D-02 0.14974598D+05 0.14974598D+05 0.14974598D+05 0.12479065D+01  1  2 12  8  6  5       21 0.343583852908D-04 0.100000000000D+01
0.181267128002D-07 0.000000000000D+00 0.000000000000D+00 0.361054712327D-04 0.000000000000D+00  6 2 -1 25 24 4 -4 4 0.26245411D+00 0.20496090D-02 0.14974598D+05 0.14974598D+05 0.14974598D+05 0.12479065D+01  1  2 12  8  6  5       21 0.343583852908D-04 0.100000000000D+01
-.825926709761D-05 0.000000000000D+00 0.000000000000D+00 0.360983870976D-04 0.000000000000D+00  6 2 -1 25 24 3 -3 4 0.26245411D+00 0.20496090D-02 0.15011671D+05 0.15011671D+05 0.15011671D+05 0.12477840D+01  1  2  5  8  6  5       21 -.156495686163D-01 0.100000000000D+01
-.825926709761D-05 0.000000000000D+00 0.000000000000D+00 0.360983870976D-04 0.000000000000D+00  6 2 -1 25 24 4 -4 4 0.26245411D+00 0.20496090D-02 0.15011671D+05 0.15011671D+05 0.15011671D+05 0.12477840D+01  1  2  5  8  6  5       21 -.156495686163D-01 0.100000000000D+01
  </mgrwgt>
  </event>
  <event>
  5     66 0.42622971E-03 0.35045333E+02 0.75467711E-02 0.10430122E+00
        2 -1    0    0  502    0 0.00000000E+00 0.00000000E+00 0.10166876E+04 0.10166876E+04 0.32000000E+00 0.0000E+00 0.9000E+01
       -1 -1    0    0    0  501 0.00000000E+00 0.00000000E+00 -.22777962E+03 0.22777984E+03 0.32000000E+00 0.0000E+00 0.9000E+01
       25  1    1    2    0    0 -.34084635E+03 0.60631166E+02 0.28658890E+03 0.46648748E+03 0.12500000E+03 0.0000E+00 0.9000E+01
       24  1    1    2    0    0 0.37564067E+03 -.64815923E+02 0.14000679E+03 0.41397600E+03 0.80419002E+02 0.0000E+00 0.9000E+01
       21  1    1    2  502  501 -.34794315E+02 0.41847578E+01 0.36231226E+03 0.36400398E+03 0.75000000E+00 0.0000E+00 0.9000E+01
#aMCatNLO 1  0  0  5  2 0.13763171D+02 0.00000000D+00  -5  6  0 0.00000000D+00 0.00000000D+00 0.00000000D+00 0.00000000D+00 0.00000000D+00
  <mgrwgt>
 0.5708433193D+00   15    2    0
 0.481228506891700D+03 0.000000000000000D+00 0.000000000000000D+00 0.481228506891700D+03
 0.481228506891700D+03 -.000000000000000D+00 -.000000000000000D+00 -.481228506891700D+03
 0.368261781903744D+03 -.340846226100519D+03 0.606311507262567D+02 -.118090526954685D+02
 0.420514958291102D+03 0.375640807262748D+03 -.648159404555891D+02 -.158298742806269D+03
 0.173680273588553D+03 -.347945811622295D+02 0.418478972933239D+01 0.170107795501737D+03
 0.000000000000000D+00 0.000000000000000D+00 0.000000000000000D+00 0.000000000000000D+00
 0.481228506891700D+03 0.000000000000000D+00 0.000000000000000D+00 0.481228506891700D+03
 0.481228506891700D+03 -.000000000000000D+00 -.000000000000000D+00 -.481228506891700D+03
 0.368589919293199D+03 -.341255341507354D+03 0.606803555706734D+02 -.980892170846230D+01
 0.419236243531521D+03 0.375174559910648D+03 -.647598642774825D+02 -.156019298519973D+03
 0.225163273407812D+02 -.649262427976349D+01 -.130172658412025D+02 0.171866697442668D+02
 0.152114523617898D+03 -.274265941235307D+02 0.170967745480115D+02 0.148641550484168D+03
0.804146872051D-02 0.000000000000D+00 0.000000000000D+00 0.118257359629D-04 0.000000000000D+00  6 2 -1 25 24 21 21 2 0.15641349D+00 0.35043039D-01 0.15709332D+06 0.15709332D+06 0.15709332D+06 0.11459711D+01  1  2  2  3  6  5       21 0.238728047681D+00 0.100000000000D+01
0.251428915709D-02 0.424359963013D-03 -.308813572541D-04 0.118257359629D-04 0.000000000000D+00  6 2 -1 25 24 21 21 4 0.15641349D+00 0.35043039D-01 0.15709332D+06 0.15709332D+06 0.15709332D+06 0.11459711D+01  1  2  3  3  6  5       21 0.980235891977D-01 0.100000000000D+01
0.497231167663D-04 0.000000000000D+00 0.000000000000D+00 0.118257359629D-04 0.000000000000D+00  6 2 -1 25 24 21 21 4 0.15641349D+00 0.35043039D-01 0.15709332D+06 0.15709332D+06 0.15709332D+06 0.11459711D+01  1  2 15  3  6  5       21 0.193853533424D-02 0.100000000000D+01
0.778772347606D-03 0.000000000000D+00 0.000000000000D+00 0.118026663015D-04 0.000000000000D+00  6 2 -1 25 24 21 21 4 0.15641349D+00 0.35043039D-01 0.16178429D+06 0.16178429D+06 0.16178429D+06 0.11448527D+01  1  2 12  3  6  5       21 0.302225687568D-01 0.100000000000D+01
-.669777267241D-02 0.000000000000D+00 0.000000000000D+00 0.118257359629D-04 0.000000000000D+00  6 2 -1 25 24 21 21 4 0.15641349D+00 0.35043039D-01 0.15709332D+06 0.15709332D+06 0.15709332D+06 0.11459711D+01  1  2  4  3  6  5       21 -.261123393516D+00 0.100000000000D+01
-.126307937593D-02 0.000000000000D+00 0.000000000000D+00 0.118257359629D-04 0.000000000000D+00  6 2 -1 25 24 21 21 4 0.15641349D+00 0.35043039D-01 0.15709332D+06 0.15709332D+06 0.15709332D+06 0.11459711D+01  1  2  5  3  6  5       21 -.492431721787D-01 0.100000000000D+01
0.150532638499D-01 0.000000000000D+00 -.000000000000D+00 0.118257359629D-04 0.000000000000D+00  6 2 -1 25 24 21 21 4 0.15641349D+00 0.35043039D-01 0.15709332D+06 0.15709332D+06 0.15709332D+06 0.11459711D+01  1  2  6  3  6  5       21 0.586875597640D+00 0.100000000000D+01
0.359434620352D-03 0.000000000000D+00 0.000000000000D+00 0.118026663015D-04 0.000000000000D+00  6 2 -1 25 24 1 -1 4 0.15641349D+00 0.35043039D-01 0.16178429D+06 0.16178429D+06 0.16178429D+06 0.11448527D+01  1  2 12  6  6  5       21 0.139489255885D-01 0.100000000000D+01
-.836018986378D-03 0.000000000000D+00 0.000000000000D+00 0.118257359629D-04 0.000000000000D+00  6 2 -1 25 24 1 -1 4 0.15641349D+00 0.35043039D-01 0.15709332D+06 0.15709332D+06 0.15709332D+06 0.11459711D+01  1  2  5  6  6  5       21 -.325935389933D-01 0.100000000000D+01
0.359434620352D-03 0.000000000000D+00 0.000000000000D+00 0.118026663015D-04 0.000000000000D+00  6 2 -1 25 24 2 -2 4 0.15641349D+00 0.35043039D-01 0.16178429D+06 0.16178429D+06 0.16178429D+06 0.11448527D+01  1  2 12  7  6  5       21 0.139489255885D-01 0.100000000000D+01
-.836018986378D-03 0.000000000000D+00 0.000000000000D+00 0.118257359629D-04 0.000000000000D+00  6 2 -1 25 24 2 -2 4 0.15641349D+00 0.35043039D-01 0.15709332D+06 0.15709332D+06 0.15709332D+06 0.11459711D+01  1  2  5  7  6  5       21 -.325935389933D-01 0.100000000000D+01
0.359434620352D-03 0.000000000000D+00 0.000000000000D+00 0.118026663015D-04 0.000000000000D+00  6 2 -1 25 24 3 -3 4 0.15641349D+00 0.35043039D-01 0.16178429D+06 0.16178429D+06 0.16178429D+06 0.11448527D+01  1  2 12  8  6  5       21 0.139489255885D-01 0.100000000000D+01
0.359434620352D-03 0.000000000000D+00 0.000000000000D+00 0.118026663015D-04 0.000000000000D+00  6 2 -1 25 24 4 -4 4 0.15641349D+00 0.35043039D-01 0.16178429D+06 0.16178429D+06 0.16178429D+06 0.11448527D+01  1  2 12  8  6  5       21 0.139489255885D-01 0.100000000000D+01
-.836018986378D-03 0.000000000000D+00 0.000000000000D+00 0.118257359629D-04 0.000000000000D+00  6 2 -1 25 24 3 -3 4 0.15641349D+00 0.35043039D-01 0.15709332D+06 0.15709332D+06 0.15709332D+06 0.11459711D+01  1  2  5  8  6  5       21 -.325935389933D-01 0.100000000000D+01
-.836018986378D-03 0.000000000000D+00 0.000000000000D+00 0.118257359629D-04 0.000000000000D+00  6 2 -1 25 24 4 -4 4 0.15641349D+00 0.35043039D-01 0.15709332D+06 0.15709332D+06 0.15709332D+06 0.11459711D+01  1  2  5  8  6  5       21 -.325935389933D-01 0.100000000000D+01
  </mgrwgt>
  </event>
  <event>
  6     66 -.42622971E-03 0.26380273E+02 0.75467711E-02 0.11869011E+00
        2 -1    0    0  502    0 0.00000000E+00 0.00000000E+00 0.17967319E+04 0.17967319E+04 0.32000000E+00 0.0000E+00 0.9000E+01
       -1 -1    0    0    0  503 0.00000000E+00 0.00000000E+00 -.27260539E+02 0.27262418E+02 0.32000000E+00 0.0000E+00 0.9000E+01
       25  1    1    2    0    0 -.50822174E+02 -.87051580E+02 0.30605231E+03 0.34562102E+03 0.12500000E+03 0.0000E+00 0.9000E+01
       24  1    1    2    0    0 0.16438551E+02 0.79218976E+02 0.10318040E+04 0.10380909E+04 0.80419002E+02 0.0000E+00 0.9000E+01
       21  1    1    2  502  501 0.26813037E+02 0.20523828E+02 0.42030098E+03 0.42165584E+03 0.75000000E+00 0.0000E+00 0.9000E+01
       21  1    1    2  501  503 0.75705852E+01 -.12691224E+02 0.11314014E+02 0.18626603E+02 0.75000000E+00 0.0000E+00 0.9000E+01
#aMCatNLO 2  0  0  2  5 0.14777717D+02 0.00000000D+00  -5  6  0 0.00000000D+00 0.00000000D+00 0.00000000D+00 0.00000000D+00 0.00000000D+00
  <mgrwgt>
 -.1149692526D+00    2    2    0
 0.204949414043130D+03 0.000000000000000D+00 0.000000000000000D+00 0.204949414043130D+03
 0.204949414043130D+03 0.000000000000000D+00 0.000000000000000D+00 -.204949414043130D+03
 0.211285783304932D+03 -.469400008353548D+02 -.935628284974528D+02 -.134384953294303D+03
 0.144378141299554D+03 0.191223135343799D+02 0.747177490844098D+02 0.918119100530841D+02
 0.542349034817743D+02 0.278176873009750D+02 0.188450794130430D+02 0.425730432412185D+02
 0.000000000000000D+00 0.000000000000000D+00 -.000000000000000D+00 -.000000000000000D+00
 0.206801490965505D+03 0.000000000000000D+00 0.000000000000000D+00 0.206801490965505D+03
 0.236843766852100D+03 0.000000000000000D+00 0.000000000000000D+00 -.236843766852100D+03
 0.209393124435438D+03 -.508235827016830D+02 -.870524458604594D+02 -.134384953294303D+03
 0.146432160570655D+03 0.164376397984159D+02 0.792182988032540D+02 0.918119100530841D+02
 0.543398405047453D+02 0.268153577352923D+02 0.205253707589122D+02 0.425730432412185D+02
 0.334801323067662D+02 0.757058516797478D+01 -.126912237017068D+02 -.300422758865943D+02
-.125767835810D-02 0.000000000000D+00 0.000000000000D+00 0.102938202035D-04 0.000000000000D+00  6 2 -1 25 24 21 21 4 0.27393934D+00 0.42644590D-02 0.26114864D+05 0.26114864D+05 0.26114864D+05 0.12212714D+01  1  2 13  2  6  2       -1 -.691142782906D+00 0.100000000000D+01
0.104266997705D-02 0.000000000000D+00 0.000000000000D+00 0.103692890912D-04 0.184452227345D-06  6 2 -1 25 24 21 21 4 0.27641486D+00 0.41939913D-02 0.26114864D+05 0.26114864D+05 0.26114864D+05 0.12212714D+01  1  2  1  2  6  2       -1 0.576173530309D+00 0.100000000000D+01
  </mgrwgt>
  </event>
  <event>
  6     66 0.42622971E-03 0.16727510E+02 0.75467711E-02 0.11390783E+00
        4 -1    0    0  503    0 0.00000000E+00 0.00000000E+00 0.38239987E+03 0.38240302E+03 0.15500000E+01 0.0000E+00 0.9000E+01
       -3 -1    0    0    0  501 0.00000000E+00 0.00000000E+00 -.14176611E+03 0.14176699E+03 0.50000000E+00 0.0000E+00 0.9000E+01
       25  1    1    2    0    0 0.11285752E+03 -.10940282E+03 0.14099435E+03 0.24537768E+03 0.12500000E+03 0.0000E+00 0.9000E+01
       24  1    1    2    0    0 -.14082252E+03 0.80195215E+02 0.19842679E+02 0.18199781E+03 0.80419002E+02 0.0000E+00 0.9000E+01
       21  1    1    2  502  501 0.44707302E+01 0.18024783E+02 0.76561718E+01 0.20101236E+02 0.75000000E+00 0.0000E+00 0.9000E+01
       21  1    1    2  503  502 0.23494271E+02 0.11182826E+02 0.72140560E+02 0.76693280E+02 0.75000000E+00 0.0000E+00 0.9000E+01
#aMCatNLO 2  0  0  1  5 0.41045600D+02 0.00000000D+00  -5  6  0 0.00000000D+00 0.00000000D+00 0.00000000D+00 0.00000000D+00 0.00000000D+00
  <mgrwgt>
 0.2691198629D-01    1    2    0
 0.206862530351366D+03 0.000000000000000D+00 0.000000000000000D+00 0.206862530351366D+03
 0.206862530351366D+03 0.000000000000000D+00 0.000000000000000D+00 -.206862530351366D+03
 0.211428343754808D+03 0.124740290013024D+03 -.103752952945552D+03 0.524607409921561D+02
 0.182933263901364D+03 -.130291476815505D+03 0.852025147167018D+02 -.525549773325091D+02
 0.193634530465586D+02 0.555118680248127D+01 0.185504382288504D+02 0.942363403530466D-01
 0.000000000000000D+00 0.000000000000000D+00 0.000000000000000D+00 0.000000000000000D+00
 0.257350015757516D+03 0.000000000000000D+00 0.000000000000000D+00 0.257350015757516D+03
 0.210651093253029D+03 0.000000000000000D+00 0.000000000000000D+00 -.210651093253029D+03
 0.207566825723271D+03 0.112855258107613D+03 -.109410001886722D+03 0.524607409921561D+02
 0.188390584645177D+03 -.140824285088004D+03 0.801890984836034D+02 -.525549773325091D+02
 0.185850629879098D+02 0.447475595867354D+01 0.180380776383473D+02 0.942363403530466D-01
 0.534586356541881D+02 0.234942710217170D+02 0.111828257647711D+02 0.466989225044873D+02
0.117832456745D-02 0.000000000000D+00 0.000000000000D+00 0.363840685196D-04 0.321665175544D-06  6 4 -3 25 24 21 21 4 0.58830335D-01 0.21810212D-01 0.45442349D+05 0.45442349D+05 0.45442349D+05 0.11964147D+01  1  2  1  1  6  1        4 0.269119862928D-01 0.100000000000D+01
  </mgrwgt>
  </event>
  <event>
  5     66 0.42622971E-03 0.28894932E+02 0.75467711E-02 0.11558773E+00
        2 -1    0    0  502    0 0.00000000E+00 0.00000000E+00 0.12633844E+04 0.12633844E+04 0.32000000E+00 0.0000E+00 0.9000E+01
       -1 -1    0    0    0  501 0.00000000E+00 0.00000000E+00 -.15137905E+02 0.15141287E+02 0.32000000E+00 0.0000E+00 0.9000E+01
       25  1    1    2    0    0 -.45261621E+02 0.87351757E+01 0.40522997E+03 0.42656916E+03 0.12500000E+03 0.0000E+00 0.9000E+01
       24  1    1    2    0    0 0.43111870E+02 0.20071325E+02 0.68170417E+03 0.68807651E+03 0.80419002E+02 0.0000E+00 0.9000E+01
       21  1    1    2  502  501 0.21497504E+01 -.28806501E+02 0.16131234E+03 0.16388004E+03 0.75000000E+00 0.0000E+00 0.9000E+01
#aMCatNLO 1  0  0  2  2 0.10734730D+03 0.00000000D+00  -5  6  0 0.00000000D+00 0.00000000D+00 0.00000000D+00 0.00000000D+00 0.00000000D+00
  <mgrwgt>
 0.6617546850D+00    3    2    0
 0.138301051776853D+03 0.000000000000000D+00 0.000000000000000D+00 0.138301051776853D+03
 0.138301051776853D+03 0.000000000000000D+00 0.000000000000000D+00 -.138301051776853D+03
 0.142995901213644D+03 -.452619795335922D+02 0.873998213340746D+01 -.519402896113474D+02
 0.104079996529309D+03 0.431116093863833D+02 0.200748232215837D+02 0.458674212476409D+02
 0.295262058107530D+02 0.215037014720895D+01 -.288148053549912D+02 0.607286836370657D+01
 0.000000000000000D+00 -.000000000000000D+00 0.000000000000000D+00 0.000000000000000D+00
 0.261290848434371D+03 0.000000000000000D+00 0.000000000000000D+00 0.261290848434371D+03
 0.174626001383707D+03 0.000000000000000D+00 0.000000000000000D+00 -.174626001383707D+03
 0.137564477339335D+03 -.372832020887152D+01 -.242340951791861D+02 -.519402896113474D+02
 0.120136476481567D+03 0.763042171703282D+02 -.627719182041755D+01 0.458674212476409D+02
 0.393986284038217D+02 0.123538799872145D+02 -.369154959224581D+02 0.607286836370657D+01
 0.138817267593354D+03 -.849297769486712D+02 0.674267829220618D+02 0.866648470506646D+02
0.312698161595D-03 0.000000000000D+00 0.000000000000D+00 0.237592777733D-04 0.000000000000D+00  6 2 -1 25 24 21 21 2 0.19436709D+00 0.23291718D-02 0.16326753D+05 0.16326753D+05 0.16326753D+05 0.12436480D+01  1  2  2  2  6  2       -1 0.536029011671D+00 0.100000000000D+01
0.362226745870D-04 0.165015353415D-04 -.120084327584D-05 0.237592777733D-04 0.000000000000D+00  6 2 -1 25 24 21 21 4 0.19436709D+00 0.23291718D-02 0.16326753D+05 0.16326753D+05 0.16326753D+05 0.12436480D+01  1  2  3  2  6  2       -1 0.960369709155D-01 0.100000000000D+01
0.111978147209D-04 0.000000000000D+00 0.000000000000D+00 0.237592777733D-04 0.000000000000D+00  6 2 -1 25 24 21 21 4 0.19436709D+00 0.23291718D-02 0.16326753D+05 0.16326753D+05 0.16326753D+05 0.12436480D+01  1  2 15  2  6  2       -1 0.296887024199D-01 0.100000000000D+01
  </mgrwgt>
  </event>
  <event>
  5     66 0.42622971E-03 0.54282782E+02 0.75467711E-02 0.10848772E+00
        2 -1    0    0  502    0 0.00000000E+00 0.00000000E+00 0.25008741E+04 0.25008741E+04 0.32000000E+00 0.0000E+00 0.9000E+01
       -1 -1    0    0    0  501 0.00000000E+00 0.00000000E+00 -.22274392E+02 0.22276690E+02 0.32000000E+00 0.0000E+00 0.9000E+01
       25  1    1    2    0    0 -.10464856E+02 0.43340390E+01 0.46613005E+03 0.48273235E+03 0.12500000E+03 0.0000E+00 0.9000E+01
       24  1    1    2    0    0 -.30124792E+02 -.40376641E+02 0.15221764E+03 0.17937447E+03 0.80419002E+02 0.0000E+00 0.9000E+01
       21  1    1    2  502  501 0.40589648E+02 0.36042602E+02 0.18602520E+04 0.18610440E+04 0.75000000E+00 0.0000E+00 0.9000E+01
#aMCatNLO 1  0  0  2  5 0.88213079D+02 0.00000000D+00  -5  6  0 0.00000000D+00 0.00000000D+00 0.00000000D+00 0.00000000D+00 0.00000000D+00
  <mgrwgt>
 0.2431861890D+00    3    2    0
 0.236026217425106D+03 0.000000000000000D+00 0.000000000000000D+00 0.236026217425106D+03
 0.236026217425106D+03 0.000000000000000D+00 0.000000000000000D+00 -.236026217425106D+03
 0.132732666075032D+03 -.104649556739069D+02 0.433395082372359D+01 -.431817347542544D+02
 0.159521406113915D+03 -.301249114135706D+02 -.403767470789897D+02 -.128226639439057D+03
 0.179798362661265D+03 0.405898670874775D+02 0.360427962552661D+02 0.171408374193311D+03
 0.000000000000000D+00 0.000000000000000D+00 0.000000000000000D+00 0.000000000000000D+00
 0.583982246350273D+03 0.000000000000000D+00 0.000000000000000D+00 0.583982246350273D+03
 0.312933598078789D+03 0.000000000000000D+00 0.000000000000000D+00 -.312933598078789D+03
 0.148068023468947D+03 -.203109813490670D+02 -.634187779309234D+02 -.431817347542544D+02
 0.202648641854163D+03 -.428240810518600D+02 -.127762604510068D+03 -.128226639439057D+03
 0.181007782087715D+03 0.279385214988208D+02 -.510139730777695D+02 0.171408374193311D+03
 0.365191397018237D+03 0.351965409021062D+02 0.242195355518761D+03 0.271048648271485D+03
0.100107869481D-02 0.000000000000D+00 0.000000000000D+00 0.148046606514D-04 0.000000000000D+00  6 2 -1 25 24 21 21 2 0.38475004D+00 0.34270079D-02 0.18863601D+05 0.18863601D+05 0.18863601D+05 0.12366328D+01  1  2  2  2  6  2       -1 0.220761004418D+00 0.100000000000D+01
0.249456598469D-04 0.528283741030D-04 -.384440577816D-05 0.148046606514D-04 0.000000000000D+00  6 2 -1 25 24 21 21 4 0.38475004D+00 0.34270079D-02 0.18863601D+05 0.18863601D+05 0.18863601D+05 0.12366328D+01  1  2  3  2  6  2       -1 0.841260817611D-02 0.100000000000D+01
0.415510809807D-04 0.000000000000D+00 0.000000000000D+00 0.148046606514D-04 0.000000000000D+00  6 2 -1 25 24 21 21 4 0.38475004D+00 0.34270079D-02 0.18863601D+05 0.18863601D+05 0.18863601D+05 0.12366328D+01  1  2 15  2  6  2       -1 0.140125763652D-01 0.100000000000D+01
  </mgrwgt>
  </event>
  <event>
  5     66 -.42622971E-03 0.61638743E+02 0.75467711E-02 0.11575904E+00
        4 -1    0    0  502    0 0.00000000E+00 0.00000000E+00 0.20943454E+03 0.20944028E+03 0.15500000E+01 0.0000E+00 0.9000E+01
       -3 -1    0    0    0  501 0.00000000E+00 0.00000000E+00 -.16309143E+03 0.16309220E+03 0.50000000E+00 0.0000E+00 0.9000E+01
       25  1    1    2    0    0 -.70064376E+02 -.66825908E+02 0.36635965E+02 0.16230192E+03 0.12500000E+03 0.0000E+00 0.9000E+01
       24  1    1    2    0    0 0.10550382E+03 0.16397607E+02 -.29887842E+02 0.13696875E+03 0.80419002E+02 0.0000E+00 0.9000E+01
       21  1    1    2  502  501 -.35439447E+02 0.50428302E+02 0.39594988E+02 0.73261815E+02 0.75000000E+00 0.0000E+00 0.9000E+01
#aMCatNLO 1  0  0  1  5 0.27192830D+02 0.00000000D+00  -5  6  0 0.00000000D+00 0.00000000D+00 0.00000000D+00 0.00000000D+00 0.00000000D+00
  <mgrwgt>
 -.2030672568D-01    7    4    0
 0.184819346986887D+03 0.000000000000000D+00 0.000000000000000D+00 0.184819346986887D+03
 0.184819346986887D+03 0.000000000000000D+00 0.000000000000000D+00 -.184819346986887D+03
 0.158979389604999D+03 -.700634724738563D+02 -.668271945207839D+02 0.165735396510389D+02
 0.141788891578685D+03 0.105504629086955D+03 0.163964594197287D+02 -.472948536361283D+02
 0.688704127900903D+02 -.354411566130986D+02 0.504307351010552D+02 0.307213139850894D+02
 0.000000000000000D+00 -.000000000000000D+00 -.000000000000000D+00 0.000000000000000D+00
 0.228263192595633D+03 0.000000000000000D+00 0.000000000000000D+00 0.228263192595633D+03
 0.189623482364584D+03 0.000000000000000D+00 0.000000000000000D+00 -.189623482364584D+03
 0.152779801502781D+03 -.594595345936843D+02 -.625023941666795D+02 0.165735396510389D+02
 0.149814381742415D+03 0.115422999047322D+03 0.204416519134477D+02 -.472948536361283D+02
 0.680433945319546D+02 -.307842754394530D+02 0.523300371882981D+02 0.307213139850894D+02
 0.472490971830664D+02 -.251791890141848D+02 -.102692949350664D+02 0.386397102310489D+02
 0.184819346986887D+03 0.000000000000000D+00 0.000000000000000D+00 0.184819346986887D+03
 0.184819346986887D+03 0.000000000000000D+00 0.000000000000000D+00 -.184819346986887D+03
 0.158979389604999D+03 -.700634724738563D+02 -.668271945207839D+02 0.165735396510389D+02
 0.141788891578685D+03 0.105504629086955D+03 0.163964594197287D+02 -.472948536361283D+02
 0.000000000000000D+00 -.000000000000000D+00 -.000000000000000D+00 0.000000000000000D+00
 0.688704127900903D+02 -.354411566130986D+02 0.504307351010552D+02 0.307213139850894D+02
 0.228263192595633D+03 0.000000000000000D+00 0.000000000000000D+00 0.228263192595633D+03
 0.189623482364584D+03 0.000000000000000D+00 0.000000000000000D+00 -.189623482364584D+03
 0.152779801502781D+03 -.594595345936843D+02 -.625023941666795D+02 0.165735396510389D+02
 0.149814381742415D+03 0.115422999047322D+03 0.204416519134477D+02 -.472948536361283D+02
 0.472490971830664D+02 -.251791890141848D+02 -.102692949350664D+02 0.386397102310489D+02
 0.680433945319546D+02 -.307842754394530D+02 0.523300371882981D+02 0.307213139850894D+02
0.901648245378D-04 0.000000000000D+00 0.000000000000D+00 0.512107464464D-05 0.000000000000D+00  6 4 -3 25 24 21 21 2 0.32221199D-01 0.25091490D-01 0.31226504D+05 0.31226504D+05 0.31226504D+05 0.12130762D+01  1  2  2  1  6  1        4 0.376142822442D-02 0.100000000000D+01
0.702209494525D-06 0.475812851306D-05 -.346256667169D-06 0.512107464464D-05 0.000000000000D+00  6 4 -3 25 24 21 21 4 0.32221199D-01 0.25091490D-01 0.31226504D+05 0.31226504D+05 0.31226504D+05 0.12130762D+01  1  2  3  1  6  1        4 0.431080631796D-04 0.100000000000D+01
0.273178233011D-05 0.000000000000D+00 0.000000000000D+00 0.512107464464D-05 0.000000000000D+00  6 4 -3 25 24 21 21 4 0.32221199D-01 0.25091490D-01 0.31226504D+05 0.31226504D+05 0.31226504D+05 0.12130762D+01  1  2 15  1  6  1        4 0.167701869880D-03 0.100000000000D+01
-.335220947190D-03 0.000000000000D+00 0.000000000000D+00 0.512107464464D-05 0.000000000000D+00  6 4 -3 25 24 21 21 4 0.32221199D-01 0.25091490D-01 0.31226504D+05 0.31226504D+05 0.31226504D+05 0.12130762D+01  1  2  4  1  6  1        4 -.205789381705D-01 0.100000000000D+01
-.775902699379D-03 0.000000000000D+00 -.114655865223D-03 0.512107464464D-05 0.000000000000D+00  6 4 -3 25 24 21 21 4 0.40565725D-01 0.25091490D-01 0.31226504D+05 0.31226504D+05 0.31226504D+05 0.12130762D+01  1  2  5  1  6  1        4 -.304011497859D-01 0.100000000000D+01
0.784389420857D-03 0.000000000000D+00 0.111681104042D-03 0.512107464464D-05 0.000000000000D+00  6 4 -3 25 24 21 21 4 0.32221199D-01 0.25091490D-01 0.31226504D+05 0.31226504D+05 0.31226504D+05 0.12130762D+01  1  2  6  1  6  1        4 0.481530212499D-01 0.100000000000D+01
-.230289779261D-04 0.000000000000D+00 -.365088572604D-05 0.512107464464D-05 0.000000000000D+00  6 21 -3 25 24 -4 21 4 0.40565725D-01 0.25091490D-01 0.31226504D+05 0.31226504D+05 0.31226504D+05 0.12130762D+01  3  4  5  4  5  1        4 -.214518971274D-01 0.100000000000D+01
  </mgrwgt>
  </event>
  <event>
  6     66 0.42622971E-03 0.33453510E+02 0.75467711E-02 0.11957515E+00
        2 -1    0    0  502    0 0.00000000E+00 0.00000000E+00 0.10108938E+03 0.10108989E+03 0.32000000E+00 0.0000E+00 0.9000E+01
       21 -1    0    0  503  501 0.00000000E+00 0.00000000E+00 -.84285856E+03 0.84285889E+03 0.75000000E+00 0.0000E+00 0.9000E+01
       25  1    1    2    0    0 -.18995347E+02 -.75988037E+02 -.49813592E+02 0.15569650E+03 0.12500000E+03 0.0000E+00 0.9000E+01
       24  1    1    2    0    0 -.78298174E+01 0.96182013E+02 -.35928631E+02 0.13065362E+03 0.80419002E+02 0.0000E+00 0.9000E+01
        1  1    1    2  503    0 0.27207301E+02 -.20184122E+02 -.65586750E+03 0.65674189E+03 0.32000000E+00 0.0000E+00 0.9000E+01
       21  1    1    2  502  501 -.38213616E+00 -.98537228E-02 -.15945318E+00 0.85676745E+00 0.75000000E+00 0.0000E+00 0.9000E+01
#aMCatNLO 2  0  0  2  5 0.91268132D+01 0.00000000D+00  -5  6  0 0.00000000D+00 0.00000000D+00 0.00000000D+00 0.00000000D+00 0.00000000D+00
  <mgrwgt>
 0.1692182189D+00    1    2    0
 0.135978913478888D+03 0.000000000000000D+00 0.000000000000000D+00 0.135978913478888D+03
 0.135978913478888D+03 0.000000000000000D+00 0.000000000000000D+00 -.135978913478888D+03
 0.152392193198877D+03 -.379209221719794D+01 -.870162828302388D+02 -.348813804026712D+01
 0.118749724321133D+03 0.454578271267247D+01 0.871961429695318D+02 0.323258143604544D+01
 0.000000000000000D+00 0.000000000000000D+00 -.000000000000000D+00 -.000000000000000D+00
 0.815909437766493D+00 -.753690495474530D+00 -.179860139292934D+00 0.255556604221682D+00
 0.137624982021196D+03 0.000000000000000D+00 0.000000000000000D+00 0.137624982021196D+03
 0.619105479015885D+03 0.000000000000000D+00 0.000000000000000D+00 -.619105479015885D+03
 0.147491167867918D+03 -.187348678405904D+02 -.759307725434815D+02 -.348813804026712D+01
 0.125684221874584D+03 -.763402479565220D+01 0.962319061254001D+02 0.323258143604544D+01
 0.482670803949739D+03 0.272073006035109D+02 -.201841223020817D+02 -.481480496994689D+03
 0.884267344839367D+00 -.838407967268246D+00 -.117011279836923D+00 0.255556604221682D+00
0.371895468073D-03 0.000000000000D+00 0.000000000000D+00 0.340171952370D-01 0.896902182156D-04  6 2 21 25 24 1 21 4 0.15552271D-01 0.12967056D+00 0.23687652D+05 0.23687652D+05 0.23687652D+05 0.12258163D+01  1  2  1  5  5  2       -1 0.169218218896D+00 0.100000000000D+01
  </mgrwgt>
  </event>
  <event>
  5     66 0.42622971E-03 0.23821659E+02 0.75467711E-02 0.11398999E+00
        2 -1    0    0  502    0 0.00000000E+00 0.00000000E+00 0.44047472E+03 0.44047484E+03 0.32000000E+00 0.0000E+00 0.9000E+01
       -1 -1    0    0    0  501 0.00000000E+00 0.00000000E+00 -.49159424E+02 0.49160466E+02 0.32000000E+00 0.0000E+00 0.9000E+01
       25  1    1    2    0    0 0.24775166E+01 -.60621676E+02 0.21577309E+03 0.25664013E+03 0.12500000E+03 0.0000E+00 0.9000E+01
       24  1    1    2    0    0 0.14936830E+02 0.76868879E+02 0.89046989E+02 0.14327776E+03 0.80419002E+02 0.0000E+00 0.9000E+01
       21  1    1    2  502  501 -.17414347E+02 -.16247203E+02 0.86495213E+02 0.89717420E+02 0.75000000E+00 0.0000E+00 0.9000E+01
#aMCatNLO 1  0  0  1  5 0.12619828D+03 0.00000000D+00  -5  6  0 0.00000000D+00 0.00000000D+00 0.00000000D+00 0.00000000D+00 0.00000000D+00
  <mgrwgt>
 0.3803878557D+00    3    2    0
 0.147152190094715D+03 0.000000000000000D+00 0.000000000000000D+00 0.147152190094715D+03
 0.147152190094715D+03 0.000000000000000D+00 0.000000000000000D+00 -.147152190094715D+03
 0.140074104562583D+03 0.247950373035873D+01 -.606198219738297D+02 0.177438444008548D+02
 0.119974465682651D+03 0.149385323306480D+02 0.768704668697784D+02 -.423606897547202D+02
 0.342558099441960D+02 -.174180360610067D+02 -.162506448959487D+02 0.246168453538654D+02
 0.000000000000000D+00 -.000000000000000D+00 -.000000000000000D+00 -.000000000000000D+00
 0.196723930203329D+03 0.000000000000000D+00 0.000000000000000D+00 0.196723930203329D+03
 0.268853511100637D+03 0.000000000000000D+00 0.000000000000000D+00 -.268853511100637D+03
 0.130822351529842D+03 0.316167931730203D+02 -.132295893787426D+02 0.177438444008548D+02
 0.161973645769996D+03 0.452645242233021D+02 0.126194060002823D+03 -.423606897547202D+02
 0.274243561329858D+02 -.107837933035115D+02 -.546040622297035D+01 0.246168453538654D+02
 0.145357087871143D+03 -.660975240928109D+02 -.107504064401110D+03 -.721295808973081D+02
0.263605216438D-03 0.000000000000D+00 0.000000000000D+00 0.367470746927D-04 0.000000000000D+00  6 2 -1 25 24 21 21 2 0.67765431D-01 0.75630774D-02 0.18908260D+05 0.18908260D+05 0.18908260D+05 0.12365190D+01  1  2  2  1  6  1        2 0.295807315246D+00 0.100000000000D+01
0.399249986999D-04 0.139108294499D-04 -.101231343997D-05 0.367470746927D-04 0.000000000000D+00  6 2 -1 25 24 21 21 4 0.67765431D-01 0.75630774D-02 0.18908260D+05 0.18908260D+05 0.18908260D+05 0.12365190D+01  1  2  3  1  6  1        2 0.685017046953D-01 0.100000000000D+01
0.937126309267D-05 0.000000000000D+00 0.000000000000D+00 0.367470746927D-04 0.000000000000D+00  6 2 -1 25 24 21 21 4 0.67765431D-01 0.75630774D-02 0.18908260D+05 0.18908260D+05 0.18908260D+05 0.12365190D+01  1  2 15  1  6  1        2 0.160788357646D-01 0.100000000000D+01
  </mgrwgt>
  </event>
  <event>
  5     66 0.42622971E-03 0.22253533E+03 0.75467711E-02 0.96278764E-01
        2 -1    0    0  502    0 0.00000000E+00 0.00000000E+00 0.18740826E+03 0.18740853E+03 0.32000000E+00 0.0000E+00 0.9000E+01
       -1 -1    0    0    0  501 0.00000000E+00 0.00000000E+00 -.44216152E+03 0.44216164E+03 0.32000000E+00 0.0000E+00 0.9000E+01
       25  1    1    2    0    0 -.16264152E+02 0.13666966E+03 -.96595042E+02 0.20952022E+03 0.12500000E+03 0.0000E+00 0.9000E+01
       24  1    1    2    0    0 0.11347899E+02 0.85810746E+02 -.15827912E+03 0.19751394E+03 0.80419002E+02 0.0000E+00 0.9000E+01
       21  1    1    2  502  501 0.49162526E+01 -.22248041E+03 0.12090165E+00 0.22253601E+03 0.75000000E+00 0.0000E+00 0.9000E+01
#aMCatNLO 1  0  0  2  1 0.67375422D+03 0.00000000D+00  -5  6  0 0.00000000D+00 0.00000000D+00 0.00000000D+00 0.00000000D+00 0.00000000D+00
  <mgrwgt>
 0.2351965325D-01    5    4    0
 0.287862540764430D+03 0.000000000000000D+00 0.000000000000000D+00 0.287862540764430D+03
 0.287862540764430D+03 0.000000000000000D+00 0.000000000000000D+00 -.287862540764430D+03
 0.186373546654926D+03 -.162641590574634D+02 0.136670001220881D+03 -.129184669823454D+02
 0.145949677726081D+03 0.113478929541027D+02 0.858110137517542D+02 -.856842326123940D+02
 0.243401857147852D+03 0.491626610336076D+01 -.222481014972635D+03 0.986026995947395D+02
 0.000000000000000D+00 0.000000000000000D+00 -.000000000000000D+00 -.000000000000000D+00
 0.691124150190375D+03 0.000000000000000D+00 0.000000000000000D+00 0.691124150190375D+03
 0.900704119592501D+03 0.000000000000000D+00 0.000000000000000D+00 -.900704119592501D+03
 0.434502742861749D+03 -.160944739916809D+03 0.383532967889750D+03 -.129184669823454D+02
 0.304588554538712D+03 -.936394197264249D+02 0.264946868176499D+03 -.856842326123940D+02
 0.147138988857618D+03 -.860900702689900D+02 -.672003681221474D+02 0.986026995947395D+02
 0.705597983524797D+03 0.340674229912224D+03 -.581279467944101D+03 -.209579969402126D+03
 0.287862540764430D+03 0.000000000000000D+00 0.000000000000000D+00 0.287862540764430D+03
 0.287862540764430D+03 0.000000000000000D+00 0.000000000000000D+00 -.287862540764430D+03
 0.186373546654926D+03 -.162641590574634D+02 0.136670001220881D+03 -.129184669823454D+02
 0.145949677726081D+03 0.113478929541027D+02 0.858110137517542D+02 -.856842326123940D+02
 0.000000000000000D+00 0.000000000000000D+00 -.000000000000000D+00 -.000000000000000D+00
 0.243401857147852D+03 0.491626610336076D+01 -.222481014972635D+03 0.986026995947395D+02
 0.691124150190375D+03 0.000000000000000D+00 0.000000000000000D+00 0.691124150190375D+03
 0.900704119592501D+03 0.000000000000000D+00 0.000000000000000D+00 -.900704119592501D+03
 0.434502742861749D+03 -.160944739916809D+03 0.383532967889750D+03 -.129184669823454D+02
 0.304588554538712D+03 -.936394197264249D+02 0.264946868176499D+03 -.856842326123940D+02
 0.705597983524797D+03 0.340674229912224D+03 -.581279467944101D+03 -.209579969402126D+03
 0.147138988857618D+03 -.860900702689900D+02 -.672003681221474D+02 0.986026995947395D+02
0.370053609983D-03 0.000000000000D+00 0.000000000000D+00 0.966990634185D-06 0.000000000000D+00  6 2 -1 25 24 21 21 2 0.28832069D-01 0.68024879D-01 0.69329794D+05 0.69329794D+05 0.69329794D+05 0.11784743D+01  1  2  2  2  6  2       -1 0.244511236046D-01 0.100000000000D+01
-.409751131775D-04 0.195282655076D-04 -.142110329969D-05 0.966990634185D-06 0.000000000000D+00  6 2 -1 25 24 21 21 4 0.28832069D-01 0.68024879D-01 0.69329794D+05 0.69329794D+05 0.69329794D+05 0.11784743D+01  1  2  3  2  6  2       -1 -.376005838605D-02 0.100000000000D+01
0.233424230984D-04 0.000000000000D+00 0.000000000000D+00 0.966990634185D-06 0.000000000000D+00  6 2 -1 25 24 21 21 4 0.28832069D-01 0.68024879D-01 0.69329794D+05 0.69329794D+05 0.69329794D+05 0.11784743D+01  1  2 15  2  6  2       -1 0.214200442453D-02 0.100000000000D+01
0.418243155459D-03 0.000000000000D+00 -.266917937700D-03 0.966990634185D-06 0.000000000000D+00  6 2 -1 25 24 21 21 4 0.28832069D-01 0.36419180D+00 0.69329794D+05 0.69329794D+05 0.69329794D+05 0.11784743D+01  1  2  5  2  6  2       -1 0.257118633447D-03 0.100000000000D+01
0.747064859367D-04 0.000000000000D+00 -.547598336898D-04 0.966990634185D-06 0.000000000000D+00  6 2 21 25 24 1 21 4 0.28832069D-01 0.36419180D+00 0.69329794D+05 0.69329794D+05 0.69329794D+05 0.11784743D+01  3  4  5  5  5  2       -1 0.429464972858D-03 0.100000000000D+01
  </mgrwgt>
  </event>
  <event>
  5     66 0.42622971E-03 0.32847505E+02 0.75467711E-02 0.10343762E+00
        2 -1    0    0  502    0 0.00000000E+00 0.00000000E+00 0.77977613E+03 0.77977620E+03 0.32000000E+00 0.0000E+00 0.9000E+01
       -1 -1    0    0    0  501 0.00000000E+00 0.00000000E+00 -.73435311E+02 0.73436008E+02 0.32000000E+00 0.0000E+00 0.9000E+01
       25  1    1    2    0    0 -.10370882E+03 -.14451367E+03 0.50678092E+03 0.55144503E+03 0.12500000E+03 0.0000E+00 0.9000E+01
       24  1    1    2    0    0 0.11895262E+03 0.11542581E+03 0.13197369E+03 0.22662108E+03 0.80419002E+02 0.0000E+00 0.9000E+01
       21  1    1    2  502  501 -.15243804E+02 0.29087862E+02 0.67586214E+02 0.75146098E+02 0.75000000E+00 0.0000E+00 0.9000E+01
#aMCatNLO 1  0  0  2  1 0.31811059D+03 0.00000000D+00  -5  6  0 0.00000000D+00 0.00000000D+00 0.00000000D+00 0.00000000D+00 0.00000000D+00
  <mgrwgt>
 0.7500559166D+00    5    4    0
 0.239297781207523D+03 0.000000000000000D+00 0.000000000000000D+00 0.239297781207523D+03
 0.239297781207523D+03 0.000000000000000D+00 0.000000000000000D+00 -.239297781207523D+03
 0.235146355958882D+03 -.103707017057548D+03 -.144517103816061D+03 0.896017301082097D+02
 0.209231619762064D+03 0.118954221785255D+03 0.115422751864545D+03 -.991873793653521D+02
 0.342175866941002D+02 -.152472047277069D+02 0.290943519515163D+02 0.958564925714236D+01
 0.000000000000000D+00 -.000000000000000D+00 0.000000000000000D+00 -.000000000000000D+00
 0.425771762200771D+03 0.000000000000000D+00 0.000000000000000D+00 0.425771762200771D+03
 0.470082186866098D+03 0.000000000000000D+00 0.000000000000000D+00 -.470082186866098D+03
 0.295094342006056D+03 0.155817699574935D+02 -.251365091233040D+03 0.896017301082097D+02
 0.258942531337512D+03 0.224279834871556D+03 0.210816988340403D+02 -.991873793653521D+02
 0.206352580683353D+02 -.290690466935867D+01 0.180410395795005D+02 0.958564925714236D+01
 0.321181817654965D+03 -.236954700159691D+03 0.212242352819499D+03 -.443104246653263D+02
 0.239297781207523D+03 0.000000000000000D+00 0.000000000000000D+00 0.239297781207523D+03
 0.239297781207523D+03 0.000000000000000D+00 0.000000000000000D+00 -.239297781207523D+03
 0.235146355958882D+03 -.103707017057548D+03 -.144517103816061D+03 0.896017301082097D+02
 0.209231619762064D+03 0.118954221785255D+03 0.115422751864545D+03 -.991873793653521D+02
 0.000000000000000D+00 -.000000000000000D+00 0.000000000000000D+00 -.000000000000000D+00
 0.342175866941002D+02 -.152472047277069D+02 0.290943519515163D+02 0.958564925714236D+01
 0.425771762200771D+03 0.000000000000000D+00 0.000000000000000D+00 0.425771762200771D+03
 0.470082186866098D+03 0.000000000000000D+00 0.000000000000000D+00 -.470082186866098D+03
 0.295094342006056D+03 0.155817699574935D+02 -.251365091233040D+03 0.896017301082097D+02
 0.258942531337512D+03 0.224279834871556D+03 0.210816988340403D+02 -.991873793653521D+02
 0.321181817654965D+03 -.236954700159691D+03 0.212242352819499D+03 -.443104246653263D+02
 0.206352580683353D+02 -.290690466935867D+01 0.180410395795005D+02 0.958564925714236D+01
0.153786519662D-02 0.000000000000D+00 0.000000000000D+00 0.123757962859D-04 0.000000000000D+00  6 2 -1 25 24 21 21 2 0.11996562D+00 0.11297799D-01 0.47193399D+05 0.47193399D+05 0.47193399D+05 0.11947745D+01  1  2  2  2  6  2       -1 0.459643138269D+00 0.100000000000D+01
0.360675703172D-03 0.811553760439D-04 -.590580728424D-05 0.123757962859D-04 0.000000000000D+00  6 2 -1 25 24 21 21 4 0.11996562D+00 0.11297799D-01 0.47193399D+05 0.47193399D+05 0.47193399D+05 0.11947745D+01  1  2  3  2  6  2       -1 0.153883219346D+00 0.100000000000D+01
0.298687843194D-04 0.000000000000D+00 0.000000000000D+00 0.123757962859D-04 0.000000000000D+00  6 2 -1 25 24 21 21 4 0.11996562D+00 0.11297799D-01 0.47193399D+05 0.47193399D+05 0.47193399D+05 0.11947745D+01  1  2 15  2  6  2       -1 0.127435938950D-01 0.100000000000D+01
0.770691840006D-03 0.000000000000D+00 -.915676369834D-03 0.123757962859D-04 0.000000000000D+00  6 2 -1 25 24 21 21 4 0.11996562D+00 0.39567206D-01 0.47193399D+05 0.47193399D+05 0.47193399D+05 0.11947745D+01  1  2  5  2  6  2       -1 0.419720008115D-01 0.100000000000D+01
0.142195363241D-03 0.000000000000D+00 -.134286127809D-03 0.123757962859D-04 0.000000000000D+00  6 2 21 25 24 1 21 4 0.11996562D+00 0.39567206D-01 0.47193399D+05 0.47193399D+05 0.47193399D+05 0.11947745D+01  3  4  5  5  5  2       -1 0.818139642621D-01 0.100000000000D+01
  </mgrwgt>
  </event>
  <event>
  5     66 -.42622971E-03 0.28612107E+02 0.75467711E-02 0.12046317E+00
        2 -1    0    0  502    0 0.00000000E+00 0.00000000E+00 0.42615434E+02 0.42616635E+02 0.32000000E+00 0.0000E+00 0.9000E+01
       -1 -1    0    0    0  501 -.00000000E+00 -.00000000E+00 -.71845761E+03 0.71845769E+03 0.32000000E+00 0.0000E+00 0.9000E+01
       25  1    1    2    0    0 0.57853481E+02 0.30731119E+02 -.18981748E+03 0.23653140E+03 0.12500000E+03 0.0000E+00 0.9000E+01
       24  1    1    2    0    0 -.80822351E+02 -.47787909E+02 -.47951218E+03 0.49519197E+03 0.80419002E+02 0.0000E+00 0.9000E+01
       21  1    1    2  502  501 0.22968870E+02 0.17056790E+02 -.65125168E+01 0.29350953E+02 0.75000000E+00 0.0000E+00 0.9000E+01
#aMCatNLO 1  0  0  5  2 0.16312463D+01 0.00000000D+00  -5  6  0 0.00000000D+00 0.00000000D+00 0.00000000D+00 0.00000000D+00 0.00000000D+00
  <mgrwgt>
 -.3916375238D+00   25    2    0
 0.174979619590302D+03 0.000000000000000D+00 0.000000000000000D+00 0.174979619590302D+03
 0.174979619590302D+03 -.000000000000000D+00 -.000000000000000D+00 -.174979619590302D+03
 0.147819830217723D+03 0.578524419057352D+02 0.307303474582118D+02 0.439823023071499D+02
 0.150886177970836D+03 -.808234110445695D+02 -.477886962062261D+02 -.865057194080587D+02
 0.512532309920460D+02 0.229709691388343D+02 0.170583487480143D+02 0.425234171009088D+02
 0.000000000000000D+00 0.000000000000000D+00 0.000000000000000D+00 0.000000000000000D+00
 0.174979619590302D+03 0.000000000000000D+00 0.000000000000000D+00 0.174979619590302D+03
 0.174979619590302D+03 -.000000000000000D+00 -.000000000000000D+00 -.174979619590302D+03
 0.147844493415462D+03 0.578749276068636D+02 0.307470454446735D+02 0.440239274054254D+02
 0.150844137925540D+03 -.808004640159215D+02 -.477716556357982D+02 -.864632403091348D+02
 0.165981361544808D+02 0.800574642730596D+01 0.676363028338595D+01 0.128708761680790D+02
 0.346724716851219D+02 0.149197899817519D+02 0.102609799077388D+02 0.295684367356304D+02
0.919284596347D-04 0.000000000000D+00 0.000000000000D+00 0.203251731623D-04 0.000000000000D+00  6 2 -1 25 24 21 21 2 0.65563185D-02 0.11053204D+00 0.21515482D+05 0.21515482D+05 0.21515482D+05 0.12303490D+01  1  2  2  3  6  5       21 0.138090856824D-01 0.100000000000D+01
0.918022388888D-05 0.485119809407D-05 -.353029490317D-06 0.203251731623D-04 0.000000000000D+00  6 2 -1 25 24 21 21 4 0.65563185D-02 0.11053204D+00 0.21515482D+05 0.21515482D+05 0.21515482D+05 0.12303490D+01  1  2  3  3  6  5       21 0.208749231881D-02 0.100000000000D+01
0.260781578633D-05 0.000000000000D+00 0.000000000000D+00 0.203251731623D-04 0.000000000000D+00  6 2 -1 25 24 21 21 4 0.65563185D-02 0.11053204D+00 0.21515482D+05 0.21515482D+05 0.21515482D+05 0.12303490D+01  1  2 15  3  6  5       21 0.592991575013D-03 0.100000000000D+01
0.262333736928D-06 0.000000000000D+00 0.000000000000D+00 0.203255230515D-04 0.000000000000D+00  6 2 -1 25 24 21 21 4 0.65563185D-02 0.11053204D+00 0.21510675D+05 0.21510675D+05 0.21510675D+05 0.12303596D+01  1  2 12  3  6  5       21 0.596539989574D-04 0.100000000000D+01
0.263676703730D-06 0.000000000000D+00 0.000000000000D+00 0.203255230515D-04 0.000000000000D+00  6 2 -1 25 24 21 21 4 0.65563185D-02 0.11053204D+00 0.21510675D+05 0.21510675D+05 0.21510675D+05 0.12303596D+01  1  2 12  3  6  5       21 0.599593860613D-04 0.100000000000D+01
-.764414887522D-02 0.000000000000D+00 0.000000000000D+00 0.203251731623D-04 0.000000000000D+00  6 2 -1 25 24 21 21 4 0.65563185D-02 0.11053204D+00 0.21515482D+05 0.21515482D+05 0.21515482D+05 0.12303490D+01  1  2  4  3  6  5       21 -.173820401920D+01 0.100000000000D+01
-.157423221708D-02 0.000000000000D+00 0.000000000000D+00 0.203251731623D-04 0.000000000000D+00  6 2 -1 25 24 21 21 4 0.65563185D-02 0.11053204D+00 0.21515482D+05 0.21515482D+05 0.21515482D+05 0.12303490D+01  1  2  5  3  6  5       21 -.357964871113D+00 0.100000000000D+01
0.596599432697D-02 0.000000000000D+00 -.000000000000D+00 0.203251731623D-04 0.000000000000D+00  6 2 -1 25 24 21 21 4 0.65563185D-02 0.11053204D+00 0.21515482D+05 0.21515482D+05 0.21515482D+05 0.12303490D+01  1  2  6  3  6  5       21 0.135660823552D+01 0.100000000000D+01
0.150394049811D-02 0.000000000000D+00 0.000000000000D+00 0.203251731623D-04 0.424726962896D-04  6 2 -1 25 24 21 21 4 0.65563185D-02 0.11053204D+00 0.21510675D+05 0.21510675D+05 0.21510675D+05 0.12303596D+01  1  2 11  3  6  5       21 0.341992097383D+00 0.100000000000D+01
0.115514593595D-07 0.000000000000D+00 0.000000000000D+00 0.203255230515D-04 0.000000000000D+00  6 2 -1 25 24 1 -1 4 0.65563185D-02 0.11053204D+00 0.21510675D+05 0.21510675D+05 0.21510675D+05 0.12303596D+01  1  2 12  6  6  5       21 0.262677135109D-05 0.100000000000D+01
0.116240194549D-07 0.000000000000D+00 0.000000000000D+00 0.203255230515D-04 0.000000000000D+00  6 2 -1 25 24 1 -1 4 0.65563185D-02 0.11053204D+00 0.21510675D+05 0.21510675D+05 0.21510675D+05 0.12303596D+01  1  2 12  6  6  5       21 0.264327132516D-05 0.100000000000D+01
-.679664555328D-04 0.000000000000D+00 0.000000000000D+00 0.203251731623D-04 0.000000000000D+00  6 2 -1 25 24 1 -1 4 0.65563185D-02 0.11053204D+00 0.21515482D+05 0.21515482D+05 0.21515482D+05 0.12303490D+01  1  2  5  6  6  5       21 -.154549012724D-01 0.100000000000D+01
0.560452527796D-04 0.000000000000D+00 0.000000000000D+00 0.203251731623D-04 0.573659526479D-06  6 2 -1 25 24 1 -1 4 0.65563185D-02 0.11053204D+00 0.21510675D+05 0.21510675D+05 0.21510675D+05 0.12303596D+01  1  2 11  6  6  5       21 0.127445424673D-01 0.100000000000D+01
0.115514593595D-07 0.000000000000D+00 0.000000000000D+00 0.203255230515D-04 0.000000000000D+00  6 2 -1 25 24 2 -2 4 0.65563185D-02 0.11053204D+00 0.21510675D+05 0.21510675D+05 0.21510675D+05 0.12303596D+01  1  2 12  7  6  5       21 0.262677135109D-05 0.100000000000D+01
0.116240194549D-07 0.000000000000D+00 0.000000000000D+00 0.203255230515D-04 0.000000000000D+00  6 2 -1 25 24 2 -2 4 0.65563185D-02 0.11053204D+00 0.21510675D+05 0.21510675D+05 0.21510675D+05 0.12303596D+01  1  2 12  7  6  5       21 0.264327132516D-05 0.100000000000D+01
-.679664555328D-04 0.000000000000D+00 0.000000000000D+00 0.203251731623D-04 0.000000000000D+00  6 2 -1 25 24 2 -2 4 0.65563185D-02 0.11053204D+00 0.21515482D+05 0.21515482D+05 0.21515482D+05 0.12303490D+01  1  2  5  7  6  5       21 -.154549012724D-01 0.100000000000D+01
0.566228936018D-04 0.000000000000D+00 0.000000000000D+00 0.203251731623D-04 0.580086580269D-06  6 2 -1 25 24 2 -2 4 0.65563185D-02 0.11053204D+00 0.21510675D+05 0.21510675D+05 0.21510675D+05 0.12303596D+01  1  2 11  7  6  5       21 0.128758964647D-01 0.100000000000D+01
0.115514593595D-07 0.000000000000D+00 0.000000000000D+00 0.203255230515D-04 0.000000000000D+00  6 2 -1 25 24 3 -3 4 0.65563185D-02 0.11053204D+00 0.21510675D+05 0.21510675D+05 0.21510675D+05 0.12303596D+01  1  2 12  8  6  5       21 0.262677135109D-05 0.100000000000D+01
0.115514593595D-07 0.000000000000D+00 0.000000000000D+00 0.203255230515D-04 0.000000000000D+00  6 2 -1 25 24 4 -4 4 0.65563185D-02 0.11053204D+00 0.21510675D+05 0.21510675D+05 0.21510675D+05 0.12303596D+01  1  2 12  8  6  5       21 0.262677135109D-05 0.100000000000D+01
0.116240194549D-07 0.000000000000D+00 0.000000000000D+00 0.203255230515D-04 0.000000000000D+00  6 2 -1 25 24 3 -3 4 0.65563185D-02 0.11053204D+00 0.21510675D+05 0.21510675D+05 0.21510675D+05 0.12303596D+01  1  2 12  8  6  5       21 0.264327132516D-05 0.100000000000D+01
0.116240194549D-07 0.000000000000D+00 0.000000000000D+00 0.203255230515D-04 0.000000000000D+00  6 2 -1 25 24 4 -4 4 0.65563185D-02 0.11053204D+00 0.21510675D+05 0.21510675D+05 0.21510675D+05 0.12303596D+01  1  2 12  8  6  5       21 0.264327132516D-05 0.100000000000D+01
-.679664555328D-04 0.000000000000D+00 0.000000000000D+00 0.203251731623D-04 0.000000000000D+00  6 2 -1 25 24 3 -3 4 0.65563185D-02 0.11053204D+00 0.21515482D+05 0.21515482D+05 0.21515482D+05 0.12303490D+01  1  2  5  8  6  5       21 -.154549012724D-01 0.100000000000D+01
-.679664555328D-04 0.000000000000D+00 0.000000000000D+00 0.203251731623D-04 0.000000000000D+00  6 2 -1 25 24 4 -4 4 0.65563185D-02 0.11053204D+00 0.21515482D+05 0.21515482D+05 0.21515482D+05 0.12303490D+01  1  2  5  8  6  5       21 -.154549012724D-01 0.100000000000D+01
0.560691133457D-04 0.000000000000D+00 0.000000000000D+00 0.203251731623D-04 0.573896533517D-06  6 2 -1 25 24 3 -3 4 0.65563185D-02 0.11053204D+00 0.21510675D+05 0.21510675D+05 0.21510675D+05 0.12303596D+01  1  2 11  8  6  5       21 0.127499682970D-01 0.100000000000D+01
0.560691133457D-04 0.000000000000D+00 0.000000000000D+00 0.203251731623D-04 0.573896533517D-06  6 2 -1 25 24 4 -4 4 0.65563185D-02 0.11053204D+00 0.21510675D+05 0.21510675D+05 0.21510675D+05 0.12303596D+01  1  2 11  8  6  5       21 0.127499682970D-01 0.100000000000D+01
  </mgrwgt>
  </event>
  <event>
  5     66 0.42622971E-03 0.25844711E+02 0.75467711E-02 0.12013830E+00
        2 -1    0    0  502    0 0.00000000E+00 0.00000000E+00 0.24007231E+03 0.24007252E+03 0.32000000E+00 0.0000E+00 0.9000E+01
       -1 -1    0    0    0  501 0.00000000E+00 0.00000000E+00 -.12573742E+03 0.12573782E+03 0.32000000E+00 0.0000E+00 0.9000E+01
       25  1    1    2    0    0 0.74426289E+01 -.24798045E+02 -.68495468E+02 0.14486878E+03 0.12500000E+03 0.0000E+00 0.9000E+01
       24  1    1    2    0    0 0.18862551E+01 0.48897996E+02 0.11668958E+03 0.14992747E+03 0.80419002E+02 0.0000E+00 0.9000E+01
       21  1    1    2  502  501 -.93288840E+01 -.24099951E+02 0.66140782E+02 0.71014091E+02 0.75000000E+00 0.0000E+00 0.9000E+01
#aMCatNLO 1  0  0  1  5 0.30562537D+03 0.00000000D+00  -5  6  0 0.00000000D+00 0.00000000D+00 0.00000000D+00 0.00000000D+00 0.00000000D+00
  <mgrwgt>
 0.1243844522D+00    7    4    0
 0.173741719667384D+03 0.000000000000000D+00 0.000000000000000D+00 0.173741719667384D+03
 0.173741719667384D+03 0.000000000000000D+00 0.000000000000000D+00 -.173741719667384D+03
 0.175048411864807D+03 0.744309957029219D+01 -.247968294190416D+02 -.119777560569336D+03
 0.119439095100492D+03 0.188657622180084D+01 0.488988256489719D+02 0.735107282263255D+02
 0.529959323694693D+02 -.932967579209303D+01 -.241019962299303D+02 0.462668323430103D+02
 0.000000000000000D+00 0.000000000000000D+00 -.000000000000000D+00 0.000000000000000D+00
 0.240781898182847D+03 0.000000000000000D+00 0.000000000000000D+00 0.240781898182847D+03
 0.183364331094726D+03 0.000000000000000D+00 0.000000000000000D+00 -.183364331094726D+03
 0.175225405767801D+03 -.155294239800013D+02 -.221611326740999D+02 -.119777560569336D+03
 0.120975242624165D+03 -.138808712926483D+02 0.507078654786140D+02 0.735107282263255D+02
 0.543246738753597D+02 -.163682411380676D+02 -.232944435145818D+02 0.462668323430103D+02
 0.736209070102465D+02 0.457785364107172D+02 -.525228928993233D+01 0.574175670881210D+02
 0.173741719667384D+03 0.000000000000000D+00 0.000000000000000D+00 0.173741719667384D+03
 0.173741719667384D+03 0.000000000000000D+00 0.000000000000000D+00 -.173741719667384D+03
 0.175048411864807D+03 0.744309957029219D+01 -.247968294190416D+02 -.119777560569336D+03
 0.119439095100492D+03 0.188657622180084D+01 0.488988256489719D+02 0.735107282263255D+02
 0.000000000000000D+00 0.000000000000000D+00 -.000000000000000D+00 0.000000000000000D+00
 0.529959323694693D+02 -.932967579209303D+01 -.241019962299303D+02 0.462668323430103D+02
 0.240781898182847D+03 0.000000000000000D+00 0.000000000000000D+00 0.240781898182847D+03
 0.183364331094726D+03 0.000000000000000D+00 0.000000000000000D+00 -.183364331094726D+03
 0.175225405767801D+03 -.155294239800013D+02 -.221611326740999D+02 -.119777560569336D+03
 0.120975242624165D+03 -.138808712926483D+02 0.507078654786140D+02 0.735107282263255D+02
 0.736209070102465D+02 0.457785364107172D+02 -.525228928993233D+01 0.574175670881210D+02
 0.543246738753597D+02 -.163682411380676D+02 -.232944435145818D+02 0.462668323430103D+02
0.147275830131D-03 0.000000000000D+00 0.000000000000D+00 0.203974806446D-04 0.000000000000D+00  6 2 -1 25 24 21 21 2 0.36934249D-01 0.19344266D-01 0.15330797D+05 0.15330797D+05 0.15330797D+05 0.12467440D+01  1  2  2  1  6  1        2 0.746166339874D-01 0.100000000000D+01
0.973737230987D-05 0.777195907855D-05 -.565577966321D-06 0.203974806446D-04 0.000000000000D+00  6 2 -1 25 24 21 21 4 0.36934249D-01 0.19344266D-01 0.15330797D+05 0.15330797D+05 0.15330797D+05 0.12467440D+01  1  2  3  1  6  1        2 0.766832511713D-02 0.100000000000D+01
0.466104940468D-05 0.000000000000D+00 0.000000000000D+00 0.203974806446D-04 0.000000000000D+00  6 2 -1 25 24 21 21 4 0.36934249D-01 0.19344266D-01 0.15330797D+05 0.15330797D+05 0.15330797D+05 0.12467440D+01  1  2 15  1  6  1        2 0.367064553810D-02 0.100000000000D+01
-.102165226532D-03 0.000000000000D+00 0.000000000000D+00 0.203974806446D-04 0.000000000000D+00  6 2 -1 25 24 21 21 4 0.36934249D-01 0.19344266D-01 0.15330797D+05 0.15330797D+05 0.15330797D+05 0.12467440D+01  1  2  4  1  6  1        2 -.804566311917D-01 0.100000000000D+01
-.537632093036D-03 0.000000000000D+00 -.129879885345D-03 0.203974806446D-04 0.000000000000D+00  6 2 -1 25 24 21 21 4 0.53301814D-01 0.19344266D-01 0.15330797D+05 0.15330797D+05 0.15330797D+05 0.12467440D+01  1  2  5  1  6  1        2 -.287186143331D+00 0.100000000000D+01
0.555737569581D-03 0.000000000000D+00 0.121605778870D-03 0.203974806446D-04 0.000000000000D+00  6 2 -1 25 24 21 21 4 0.36934249D-01 0.19344266D-01 0.15330797D+05 0.15330797D+05 0.15330797D+05 0.12467440D+01  1  2  6  1  6  1        2 0.437651578654D+00 0.100000000000D+01
-.200967482236D-04 0.000000000000D+00 -.580438251708D-05 0.203974806446D-04 0.000000000000D+00  6 21 -1 25 24 -2 21 4 0.53301814D-01 0.19344266D-01 0.15330797D+05 0.15330797D+05 0.15330797D+05 0.12467440D+01  3  4  5  4  5  1        2 -.315799565245D-01 0.100000000000D+01
  </mgrwgt>
  </event>
  <event>
  5     66 0.42622971E-03 0.28876192E+02 0.75467711E-02 0.11977295E+00
        2 -1    0    0  502    0 0.00000000E+00 0.00000000E+00 0.12979859E+04 0.12979860E+04 0.32000000E+00 0.0000E+00 0.9000E+01
       -1 -1    0    0    0  501 0.00000000E+00 0.00000000E+00 -.22663526E+02 0.22665785E+02 0.32000000E+00 0.0000E+00 0.9000E+01
       25  1    1    2    0    0 -.79639926E+02 0.43882072E+00 0.68396741E+03 0.69984221E+03 0.12500000E+03 0.0000E+00 0.9000E+01
       24  1    1    2    0    0 0.86383920E+02 -.28513613E+02 0.24684267E+03 0.27508858E+03 0.80419002E+02 0.0000E+00 0.9000E+01
       21  1    1    2  502  501 -.67439935E+01 0.28074792E+02 0.34451232E+03 0.34572095E+03 0.75000000E+00 0.0000E+00 0.9000E+01
#aMCatNLO 1  0  0  5  2 0.14093594D+02 0.00000000D+00  -5  6  0 0.00000000D+00 0.00000000D+00 0.00000000D+00 0.00000000D+00 0.00000000D+00
  <mgrwgt>
 0.2752305127D+00   15    2    0
 0.171518089833264D+03 0.000000000000000D+00 0.000000000000000D+00 0.171518089833264D+03
 0.171518089833264D+03 -.000000000000000D+00 -.000000000000000D+00 -.171518089833264D+03
 0.151496219142462D+03 -.796395936169519D+02 0.437435465338313D+00 0.313599775701636D+02
 0.141363270424684D+03 0.863842303886987D+02 -.285149054277415D+02 -.723949112810503D+02
 0.501766900993810D+02 -.674463677174673D+01 0.280774699624032D+02 0.410349337108867D+02
 0.000000000000000D+00 0.000000000000000D+00 0.000000000000000D+00 0.000000000000000D+00
 0.171518089833264D+03 0.000000000000000D+00 0.000000000000000D+00 0.171518089833264D+03
 0.171518089833264D+03 -.000000000000000D+00 -.000000000000000D+00 -.171518089833264D+03
 0.152478499879996D+03 -.801603830051220D+02 0.260544671604611D+01 0.345285037257031D+02
 0.139196863907497D+03 0.859035563998431D+02 -.265138918905357D+02 -.694704505670409D+02
 0.288495814715581D+02 -.154480817525751D+02 0.190209468367957D+02 0.152269071935707D+02
 0.225112344074761D+02 0.970490835785406D+01 0.488749833769394D+01 0.197150396477671D+02
0.160449304572D-03 0.000000000000D+00 0.000000000000D+00 0.217851137665D-04 0.000000000000D+00  6 2 -1 25 24 21 21 2 0.19969032D+00 0.34868731D-02 0.22277055D+05 0.22277055D+05 0.22277055D+05 0.12287038D+01  1  2  2  3  6  5       21 0.143868013637D+00 0.100000000000D+01
0.171292840678D-04 0.846714242384D-05 -.616167576827D-06 0.217851137665D-04 0.000000000000D+00  6 2 -1 25 24 21 21 4 0.19969032D+00 0.34868731D-02 0.22277055D+05 0.22277055D+05 0.22277055D+05 0.12287038D+01  1  2  3  3  6  5       21 0.231878249945D-01 0.100000000000D+01
0.686587581774D-05 0.000000000000D+00 0.000000000000D+00 0.217851137665D-04 0.000000000000D+00  6 2 -1 25 24 21 21 4 0.19969032D+00 0.34868731D-02 0.22277055D+05 0.22277055D+05 0.22277055D+05 0.12287038D+01  1  2 15  3  6  5       21 0.929430128344D-02 0.100000000000D+01
0.757526589619D-04 0.000000000000D+00 0.000000000000D+00 0.217187106450D-04 0.000000000000D+00  6 2 -1 25 24 21 21 4 0.19969032D+00 0.34868731D-02 0.23181496D+05 0.23181496D+05 0.23181496D+05 0.12268298D+01  1  2 12  3  6  5       21 0.101985157141D+00 0.100000000000D+01
-.116996803813D-03 0.000000000000D+00 0.000000000000D+00 0.217851137665D-04 0.000000000000D+00  6 2 -1 25 24 21 21 4 0.19969032D+00 0.34868731D-02 0.22277055D+05 0.22277055D+05 0.22277055D+05 0.12287038D+01  1  2  4  3  6  5       21 -.158377980130D+00 0.100000000000D+01
-.118725958317D-03 0.000000000000D+00 0.000000000000D+00 0.217851137665D-04 0.000000000000D+00  6 2 -1 25 24 21 21 4 0.19969032D+00 0.34868731D-02 0.22277055D+05 0.22277055D+05 0.22277055D+05 0.12287038D+01  1  2  5  3  6  5       21 -.160718727815D+00 0.100000000000D+01
0.241640573697D-03 0.000000000000D+00 -.000000000000D+00 0.217851137665D-04 0.000000000000D+00  6 2 -1 25 24 21 21 4 0.19969032D+00 0.34868731D-02 0.22277055D+05 0.22277055D+05 0.22277055D+05 0.12287038D+01  1  2  6  3  6  5       21 0.327107619459D+00 0.100000000000D+01
0.221634644987D-05 0.000000000000D+00 0.000000000000D+00 0.217187106450D-04 0.000000000000D+00  6 2 -1 25 24 1 -1 4 0.19969032D+00 0.34868731D-02 0.23181496D+05 0.23181496D+05 0.23181496D+05 0.12268298D+01  1  2 12  6  6  5       21 0.298384827763D-02 0.100000000000D+01
-.425706865106D-05 0.000000000000D+00 0.000000000000D+00 0.217851137665D-04 0.000000000000D+00  6 2 -1 25 24 1 -1 4 0.19969032D+00 0.34868731D-02 0.22277055D+05 0.22277055D+05 0.22277055D+05 0.12287038D+01  1  2  5  6  6  5       21 -.576277224895D-02 0.100000000000D+01
0.221634644987D-05 0.000000000000D+00 0.000000000000D+00 0.217187106450D-04 0.000000000000D+00  6 2 -1 25 24 2 -2 4 0.19969032D+00 0.34868731D-02 0.23181496D+05 0.23181496D+05 0.23181496D+05 0.12268298D+01  1  2 12  7  6  5       21 0.298384827763D-02 0.100000000000D+01
-.425706865106D-05 0.000000000000D+00 0.000000000000D+00 0.217851137665D-04 0.000000000000D+00  6 2 -1 25 24 2 -2 4 0.19969032D+00 0.34868731D-02 0.22277055D+05 0.22277055D+05 0.22277055D+05 0.12287038D+01  1  2  5  7  6  5       21 -.576277224895D-02 0.100000000000D+01
0.221634644987D-05 0.000000000000D+00 0.000000000000D+00 0.217187106450D-04 0.000000000000D+00  6 2 -1 25 24 3 -3 4 0.19969032D+00 0.34868731D-02 0.23181496D+05 0.23181496D+05 0.23181496D+05 0.12268298D+01  1  2 12  8  6  5       21 0.298384827763D-02 0.100000000000D+01
0.221634644987D-05 0.000000000000D+00 0.000000000000D+00 0.217187106450D-04 0.000000000000D+00  6 2 -1 25 24 4 -4 4 0.19969032D+00 0.34868731D-02 0.23181496D+05 0.23181496D+05 0.23181496D+05 0.12268298D+01  1  2 12  8  6  5       21 0.298384827763D-02 0.100000000000D+01
-.425706865106D-05 0.000000000000D+00 0.000000000000D+00 0.217851137665D-04 0.000000000000D+00  6 2 -1 25 24 3 -3 4 0.19969032D+00 0.34868731D-02 0.22277055D+05 0.22277055D+05 0.22277055D+05 0.12287038D+01  1  2  5  8  6  5       21 -.576277224895D-02 0.100000000000D+01
-.425706865106D-05 0.000000000000D+00 0.000000000000D+00 0.217851137665D-04 0.000000000000D+00  6 2 -1 25 24 4 -4 4 0.19969032D+00 0.34868731D-02 0.22277055D+05 0.22277055D+05 0.22277055D+05 0.12287038D+01  1  2  5  8  6  5       21 -.576277224895D-02 0.100000000000D+01
  </mgrwgt>
  </event>
  <event>
  5     66 0.42622971E-03 0.35814742E+02 0.75467711E-02 0.10881991E+00
        2 -1    0    0  502    0 0.00000000E+00 0.00000000E+00 0.33640436E+03 0.33640451E+03 0.32000000E+00 0.0000E+00 0.9000E+01
       -1 -1    0    0    0  501 0.00000000E+00 0.00000000E+00 -.68433847E+03 0.68433855E+03 0.32000000E+00 0.0000E+00 0.9000E+01
       25  1    1    2    0    0 -.16058350E+03 -.15387559E+03 0.24699696E+03 0.35510175E+03 0.12500000E+03 0.0000E+00 0.9000E+01
       24  1    1    2    0    0 0.19638267E+03 0.15484261E+03 -.52000606E+03 0.58259412E+03 0.80419002E+02 0.0000E+00 0.9000E+01
       21  1    1    2  502  501 -.35799163E+02 -.96701250E+00 -.74925011E+02 0.83047185E+02 0.75000000E+00 0.0000E+00 0.9000E+01
#aMCatNLO 1  0  0  1  2 0.32854567D+02 0.00000000D+00  -5  6  0 0.00000000D+00 0.00000000D+00 0.00000000D+00 0.00000000D+00 0.00000000D+00
  <mgrwgt>
 0.1082790136D+01    7    4    0
 0.479806793666457D+03 0.000000000000000D+00 0.000000000000000D+00 0.479806793666457D+03
 0.479806793666457D+03 0.000000000000000D+00 0.000000000000000D+00 -.479806793666457D+03
 0.467279058617999D+03 -.160582193222655D+03 -.153875558195068D+03 0.391484853388840D+03
 0.431163459991698D+03 0.196383875881020D+03 0.154842638748000D+03 -.341894492200659D+03
 0.611710687232159D+02 -.358016826583656D+02 -.967080552931568D+00 -.495903611881808D+02
 0.000000000000000D+00 0.000000000000000D+00 0.000000000000000D+00 0.000000000000000D+00
 0.499524131717206D+03 0.000000000000000D+00 0.000000000000000D+00 0.499524131717206D+03
 0.493972095412698D+03 0.000000000000000D+00 0.000000000000000D+00 -.493972095412698D+03
 0.473505851961216D+03 -.176616098159565D+03 -.155335621412240D+03 0.391484853388840D+03
 0.424239381444468D+03 0.181805147323495D+03 0.153515085328934D+03 -.341894492200659D+03
 0.624306148306818D+02 -.379082403017329D+02 -.115890577218005D+01 -.495903611881808D+02
 0.333203788935372D+02 0.327191911378030D+02 0.297944185548588D+01 0.555203630450795D+01
 0.479806793666457D+03 0.000000000000000D+00 0.000000000000000D+00 0.479806793666457D+03
 0.479806793666457D+03 0.000000000000000D+00 0.000000000000000D+00 -.479806793666457D+03
 0.467279058617999D+03 -.160582193222655D+03 -.153875558195068D+03 0.391484853388840D+03
 0.431163459991698D+03 0.196383875881020D+03 0.154842638748000D+03 -.341894492200659D+03
 0.000000000000000D+00 0.000000000000000D+00 0.000000000000000D+00 0.000000000000000D+00
 0.611710687232159D+02 -.358016826583656D+02 -.967080552931568D+00 -.495903611881808D+02
 0.499524131717206D+03 0.000000000000000D+00 0.000000000000000D+00 0.499524131717206D+03
 0.493972095412698D+03 0.000000000000000D+00 0.000000000000000D+00 -.493972095412698D+03
 0.473505851961216D+03 -.176616098159565D+03 -.155335621412240D+03 0.391484853388840D+03
 0.424239381444468D+03 0.181805147323495D+03 0.153515085328934D+03 -.341894492200659D+03
 0.333203788935372D+02 0.327191911378030D+02 0.297944185548588D+01 0.555203630450795D+01
 0.624306148306818D+02 -.379082403017329D+02 -.115890577218005D+01 -.495903611881808D+02
0.383137354661D-01 0.000000000000D+00 0.000000000000D+00 0.384767740999D-05 0.000000000000D+00  6 2 -1 25 24 21 21 2 0.51754534D-01 0.10528286D+00 0.76628911D+05 0.76628911D+05 0.76628911D+05 0.11743434D+01  1  2  2  1  6  1        2 0.525492706835D+00 0.100000000000D+01
0.661220646079D-02 0.202187136832D-02 -.147134832428D-03 0.384767740999D-05 0.000000000000D+00  6 2 -1 25 24 21 21 4 0.51754534D-01 0.10528286D+00 0.76628911D+05 0.76628911D+05 0.76628911D+05 0.11743434D+01  1  2  3  1  6  1        2 0.125068758103D+00 0.100000000000D+01
0.600459020276D-03 0.000000000000D+00 0.000000000000D+00 0.384767740999D-05 0.000000000000D+00  6 2 -1 25 24 21 21 4 0.51754534D-01 0.10528286D+00 0.76628911D+05 0.76628911D+05 0.76628911D+05 0.11743434D+01  1  2 15  1  6  1        2 0.113575800155D-01 0.100000000000D+01
-.166707314744D-01 0.000000000000D+00 0.000000000000D+00 0.384767740999D-05 0.000000000000D+00  6 2 -1 25 24 21 21 4 0.51754534D-01 0.10528286D+00 0.76628911D+05 0.76628911D+05 0.76628911D+05 0.11743434D+01  1  2  4  1  6  1        2 -.315324044179D+00 0.100000000000D+01
-.722168921275D+00 0.000000000000D+00 -.149631091451D+00 0.384767740999D-05 0.000000000000D+00  6 2 -1 25 24 21 21 4 0.55297081D-01 0.10528286D+00 0.76628911D+05 0.76628911D+05 0.76628911D+05 0.11743434D+01  1  2  5  1  6  1        2 -.127113155183D+02 0.100000000000D+01
0.730800745203D+00 0.000000000000D+00 0.149303734591D+00 0.384767740999D-05 0.000000000000D+00  6 2 -1 25 24 21 21 4 0.51754534D-01 0.10528286D+00 0.76628911D+05 0.76628911D+05 0.76628911D+05 0.11743434D+01  1  2  6  1  6  1        2 0.138229715247D+02 0.100000000000D+01
-.791304216853D-02 0.000000000000D+00 -.168640410433D-02 0.384767740999D-05 0.000000000000D+00  6 21 -1 25 24 -2 21 4 0.55297081D-01 0.10528286D+00 0.76628911D+05 0.76628911D+05 0.76628911D+05 0.11743434D+01  3  4  5  4  5  1        2 -.375460871143D+00 0.100000000000D+01
  </mgrwgt>
  </event>
  <event>
  5     66 0.42622971E-03 0.35780963E+02 0.75467711E-02 0.11950685E+00
        2 -1    0    0  502    0 0.00000000E+00 0.00000000E+00 0.51484498E+03 0.51484508E+03 0.32000000E+00 0.0000E+00 0.9000E+01
       -1 -1    0    0    0  501 0.00000000E+00 0.00000000E+00 -.50529041E+02 0.50530054E+02 0.32000000E+00 0.0000E+00 0.9000E+01
       25  1    1    2    0    0 0.83195231E+02 -.19029508E+02 0.16796289E+03 0.22609754E+03 0.12500000E+03 0.0000E+00 0.9000E+01
       24  1    1    2    0    0 -.94900773E+02 -.14775595E+02 0.25813015E+03 0.28691961E+03 0.80419002E+02 0.0000E+00 0.9000E+01
       21  1    1    2  502  501 0.11705543E+02 0.33805103E+02 0.38222909E+02 0.52357980E+02 0.75000000E+00 0.0000E+00 0.9000E+01
#aMCatNLO 1  0  0  5  1 0.52802947D+01 0.00000000D+00  -5  6  0 0.00000000D+00 0.00000000D+00 0.00000000D+00 0.00000000D+00 0.00000000D+00
  <mgrwgt>
 0.1829674269D+00   19    2    0
 0.161291468081720D+03 0.000000000000000D+00 0.000000000000000D+00 0.161291468081720D+03
 0.161291468081720D+03 -.000000000000000D+00 -.000000000000000D+00 -.161291468081720D+03
 0.154508983167266D+03 0.831940624570900D+02 -.190328813371042D+02 -.310567750945917D+02
 0.131326464981751D+03 -.949017659539693D+02 -.147784625623330D+02 0.394293838823817D+02
 0.367474880144239D+02 0.117077034968794D+02 0.338113438994372D+02 -.837260878779000D+01
 0.000000000000000D+00 0.000000000000000D+00 0.000000000000000D+00 0.000000000000000D+00
 0.161291468081720D+03 0.000000000000000D+00 0.000000000000000D+00 0.161291468081720D+03
 0.161291468081720D+03 -.000000000000000D+00 -.000000000000000D+00 -.161291468081720D+03
 0.154789685976892D+03 0.839924803465592D+02 -.167270848294028D+02 -.316277530527780D+02
 0.130487776032177D+03 -.942259234929534D+02 -.128266586174054D+02 0.389460641152069D+02
 0.531029947930644D+01 0.486881526605894D+00 -.848401774951404D+00 -.521942921852873D+01
 0.319951746750654D+02 0.974656161978826D+01 0.304021452217596D+02 -.209888184390012D+01
0.248720415712D-03 0.000000000000D+00 0.000000000000D+00 0.148781677171D-04 0.000000000000D+00  6 2 -1 25 24 21 21 2 0.79207006D-01 0.77737841D-02 0.24399078D+05 0.24399078D+05 0.24399078D+05 0.12244321D+01  1  2  2  3  6  5       21 0.222959292967D+00 0.100000000000D+01
0.283444465945D-04 0.131253369354D-04 -.955151885925D-06 0.148781677171D-04 0.000000000000D+00  6 2 -1 25 24 21 21 4 0.79207006D-01 0.77737841D-02 0.24399078D+05 0.24399078D+05 0.24399078D+05 0.12244321D+01  1  2  3  3  6  5       21 0.380935603632D-01 0.100000000000D+01
0.996758553061D-05 0.000000000000D+00 0.000000000000D+00 0.148781677171D-04 0.000000000000D+00  6 2 -1 25 24 21 21 4 0.79207006D-01 0.77737841D-02 0.24399078D+05 0.24399078D+05 0.24399078D+05 0.12244321D+01  1  2 15  3  6  5       21 0.133959511194D-01 0.100000000000D+01
0.590918250459D-05 0.000000000000D+00 0.000000000000D+00 0.149033073172D-04 0.000000000000D+00  6 2 -1 25 24 21 21 4 0.79207006D-01 0.77737841D-02 0.23865411D+05 0.23865411D+05 0.23865411D+05 0.12254662D+01  1  2 12  3  6  5       21 0.796396080948D-02 0.100000000000D+01
0.543537599588D-05 0.000000000000D+00 0.000000000000D+00 0.149033073172D-04 0.000000000000D+00  6 2 -1 25 24 21 21 4 0.79207006D-01 0.77737841D-02 0.23865411D+05 0.23865411D+05 0.23865411D+05 0.12254662D+01  1  2 12  3  6  5       21 0.732539930562D-02 0.100000000000D+01
-.109467345480D-03 0.000000000000D+00 0.000000000000D+00 0.148781677171D-04 0.000000000000D+00  6 2 -1 25 24 21 21 4 0.79207006D-01 0.77737841D-02 0.24399078D+05 0.24399078D+05 0.24399078D+05 0.12244321D+01  1  2  4  3  6  5       21 -.147118798701D+00 0.100000000000D+01
0.434075135193D-05 0.000000000000D+00 0.000000000000D+00 0.148781677171D-04 0.688835536204D-04  6 2 -1 25 24 21 21 4 0.79207006D-01 0.77737841D-02 0.23865411D+05 0.23865411D+05 0.23865411D+05 0.12254662D+01  1  2 11  3  6  5       21 0.585014485905D-02 0.100000000000D+01
0.176353232473D-05 0.000000000000D+00 0.000000000000D+00 0.149033073172D-04 0.000000000000D+00  6 2 -1 25 24 1 -1 4 0.79207006D-01 0.77737841D-02 0.23865411D+05 0.23865411D+05 0.23865411D+05 0.12254662D+01  1  2 12  6  6  5       21 0.237675893569D-02 0.100000000000D+01
0.171511651346D-05 0.000000000000D+00 0.000000000000D+00 0.149033073172D-04 0.000000000000D+00  6 2 -1 25 24 1 -1 4 0.79207006D-01 0.77737841D-02 0.23865411D+05 0.23865411D+05 0.23865411D+05 0.12254662D+01  1  2 12  6  6  5       21 0.231150767239D-02 0.100000000000D+01
0.290912186033D-05 0.000000000000D+00 0.000000000000D+00 0.149033073172D-04 0.501993610362D-07  6 2 -1 25 24 1 -1 4 0.79207006D-01 0.77737841D-02 0.23865411D+05 0.23865411D+05 0.23865411D+05 0.12254662D+01  1  2 11  6  6  5       21 0.392070010829D-02 0.100000000000D+01
0.176353232473D-05 0.000000000000D+00 0.000000000000D+00 0.149033073172D-04 0.000000000000D+00  6 2 -1 25 24 2 -2 4 0.79207006D-01 0.77737841D-02 0.23865411D+05 0.23865411D+05 0.23865411D+05 0.12254662D+01  1  2 12  7  6  5       21 0.237675893569D-02 0.100000000000D+01
0.171511651346D-05 0.000000000000D+00 0.000000000000D+00 0.149033073172D-04 0.000000000000D+00  6 2 -1 25 24 2 -2 4 0.79207006D-01 0.77737841D-02 0.23865411D+05 0.23865411D+05 0.23865411D+05 0.12254662D+01  1  2 12  7  6  5       21 0.231150767239D-02 0.100000000000D+01
0.293236358772D-05 0.000000000000D+00 0.000000000000D+00 0.149033073172D-04 0.519714560242D-07  6 2 -1 25 24 2 -2 4 0.79207006D-01 0.77737841D-02 0.23865411D+05 0.23865411D+05 0.23865411D+05 0.12254662D+01  1  2 11  7  6  5       21 0.395202359608D-02 0.100000000000D+01
0.176353232473D-05 0.000000000000D+00 0.000000000000D+00 0.149033073172D-04 0.000000000000D+00  6 2 -1 25 24 3 -3 4 0.79207006D-01 0.77737841D-02 0.23865411D+05 0.23865411D+05 0.23865411D+05 0.12254662D+01  1  2 12  8  6  5       21 0.237675893569D-02 0.100000000000D+01
0.176353232473D-05 0.000000000000D+00 0.000000000000D+00 0.149033073172D-04 0.000000000000D+00  6 2 -1 25 24 4 -4 4 0.79207006D-01 0.77737841D-02 0.23865411D+05 0.23865411D+05 0.23865411D+05 0.12254662D+01  1  2 12  8  6  5       21 0.237675893569D-02 0.100000000000D+01
0.171511651346D-05 0.000000000000D+00 0.000000000000D+00 0.149033073172D-04 0.000000000000D+00  6 2 -1 25 24 3 -3 4 0.79207006D-01 0.77737841D-02 0.23865411D+05 0.23865411D+05 0.23865411D+05 0.12254662D+01  1  2 12  8  6  5       21 0.231150767239D-02 0.100000000000D+01
0.171511651346D-05 0.000000000000D+00 0.000000000000D+00 0.149033073172D-04 0.000000000000D+00  6 2 -1 25 24 4 -4 4 0.79207006D-01 0.77737841D-02 0.23865411D+05 0.23865411D+05 0.23865411D+05 0.12254662D+01  1  2 12  8  6  5       21 0.231150767239D-02 0.100000000000D+01
0.292052099332D-05 0.000000000000D+00 0.000000000000D+00 0.149033073172D-04 0.500352101351D-07  6 2 -1 25 24 3 -3 4 0.79207006D-01 0.77737841D-02 0.23865411D+05 0.23865411D+05 0.23865411D+05 0.12254662D+01  1  2 11  8  6  5       21 0.393606301988D-02 0.100000000000D+01
0.292052099332D-05 0.000000000000D+00 0.000000000000D+00 0.149033073172D-04 0.500352101351D-07  6 2 -1 25 24 4 -4 4 0.79207006D-01 0.77737841D-02 0.23865411D+05 0.23865411D+05 0.23865411D+05 0.12254662D+01  1  2 11  8  6  5       21 0.393606301988D-02 0.100000000000D+01
  </mgrwgt>
  </event>
  <event>
  5     66 0.42622971E-03 0.74724777E+02 0.75467711E-02 0.11774872E+00
        2 -1    0    0  502    0 0.00000000E+00 0.00000000E+00 0.87432323E+03 0.87432329E+03 0.32000000E+00 0.0000E+00 0.9000E+01
       -1 -1    0    0    0  501 0.00000000E+00 0.00000000E+00 -.65076047E+02 0.65076834E+02 0.32000000E+00 0.0000E+00 0.9000E+01
       25  1    1    2    0    0 0.95696866E+02 0.40492792E+01 0.24424688E+03 0.29061284E+03 0.12500000E+03 0.0000E+00 0.9000E+01
       24  1    1    2    0    0 -.35552718E+02 -.55573481E+02 0.55983814E+03 0.56941932E+03 0.80419002E+02 0.0000E+00 0.9000E+01
       21  1    1    2  502  501 -.60144148E+02 0.51524202E+02 0.51621640E+01 0.79367956E+02 0.75000000E+00 0.0000E+00 0.9000E+01
#aMCatNLO 1  0  0  5  1 0.52802947D+01 0.00000000D+00  -5  6  0 0.00000000D+00 0.00000000D+00 0.00000000D+00 0.00000000D+00 0.00000000D+00
  <mgrwgt>
 0.1244733114D-01    1    2    0
 0.238532801034047D+03 0.000000000000000D+00 0.000000000000000D+00 0.238532801034047D+03
 0.238532801034047D+03 -.000000000000000D+00 -.000000000000000D+00 -.238532801034047D+03
 0.157935709890060D+03 0.956971234569008D+02 0.404905878448105D+01 -.120147469183377D+02
 0.171601922285138D+03 -.355524382692889D+02 -.555737209847874D+02 0.136482927308134D+03
 0.147527969892897D+03 -.601446851876120D+02 0.515246622003064D+02 -.124468180389796D+03
 0.000000000000000D+00 0.000000000000000D+00 0.000000000000000D+00 0.000000000000000D+00
 0.238532801034047D+03 0.000000000000000D+00 0.000000000000000D+00 0.238532801034047D+03
 0.238532801034047D+03 -.000000000000000D+00 -.000000000000000D+00 -.238532801034047D+03
 0.155908522765841D+03 0.800721122383102D+02 0.174346708697813D+02 -.443503840387512D+02
 0.147029309190140D+03 -.514157744353325D+02 -.419839410270789D+02 0.103654081644714D+03
 0.711641776422696D+02 -.759466478040371D+00 -.674944355762604D+02 -.225447234716079D+02
 0.102963592469844D+03 -.278968713249374D+02 0.920437057335580D+02 -.367589741343550D+02
0.261636314689D-04 0.000000000000D+00 0.000000000000D+00 0.345859326994D-05 0.000000000000D+00  6 2 -1 25 24 21 21 4 0.13451133D+00 0.10011765D-01 0.29017854D+05 0.29017854D+05 0.29017854D+05 0.12164185D+01  1  2 14  3  6  5       21 0.124473311371D-01 0.100000000000D+01
  </mgrwgt>
  </event>
  <event>
  6     66 -.42622971E-03 0.16076601E+02 0.75467711E-02 0.11387559E+00
        2 -1    0    0  502    0 0.00000000E+00 0.00000000E+00 0.78885770E+03 0.78885776E+03 0.32000000E+00 0.0000E+00 0.9000E+01
       -1 -1    0    0    0  501 0.00000000E+00 0.00000000E+00 -.64565016E+02 0.64565809E+02 0.32000000E+00 0.0000E+00 0.9000E+01
       25  1    1    2    0    0 -.14138592E+03 -.53648542E+02 0.23513154E+03 0.30623518E+03 0.12500000E+03 0.0000E+00 0.9000E+01
       24  1    1    2    0    0 0.14268359E+03 0.63272919E+02 0.34220250E+03 0.38461908E+03 0.80419002E+02 0.0000E+00 0.9000E+01
       21  1    1    2  502  503 0.24586859E+02 -.18187747E+02 0.31412141E+02 0.43847382E+02 0.75000000E+00 0.0000E+00 0.9000E+01
       21  1    1    2  503  501 -.25884529E+02 0.85633696E+01 0.11554650E+03 0.11872193E+03 0.75000000E+00 0.0000E+00 0.9000E+01
#aMCatNLO 2  0  0  5  2 0.31455208D+02 0.00000000D+00  -5  6  0 0.00000000D+00 0.00000000D+00 0.00000000D+00 0.00000000D+00 0.00000000D+00
  <mgrwgt>
 -.1065214085D+00    2    2    0
 0.225683353206958D+03 0.000000000000000D+00 0.000000000000000D+00 0.225683353206958D+03
 0.225683353206958D+03 -.000000000000000D+00 -.000000000000000D+00 -.225683353206958D+03
 0.203821539699377D+03 -.139742949438754D+03 -.414631711096964D+02 -.683442284989069D+02
 0.181234116230513D+03 0.144139404398245D+03 0.740701954492910D+02 0.107715912151996D+02
 0.663110504840263D+02 -.439645495949177D+01 -.326070243395947D+02 0.575726372837073D+02
 0.000000000000000D+00 0.000000000000000D+00 0.000000000000000D+00 0.000000000000000D+00
 0.225683353206958D+03 0.000000000000000D+00 0.000000000000000D+00 0.225683353206958D+03
 0.225683353206958D+03 -.000000000000000D+00 -.000000000000000D+00 -.225683353206958D+03
 0.201714756296329D+03 -.141367946823742D+03 -.535152289090594D+02 -.470644961020307D+02
 0.178119459607816D+03 0.142699462704273D+03 0.633906333258130D+02 0.296279747379735D+02
 0.317451721456684D+02 0.240006980800956D+02 -.165984282694442D+02 -.124985849283162D+02
 0.397873183641031D+02 -.253322139606264D+02 0.672302385269061D+01 0.299351062923734D+02
-.277394345728D-03 0.000000000000D+00 0.000000000000D+00 0.157391342718D-04 0.000000000000D+00  6 2 -1 25 24 21 21 4 0.12136279D+00 0.99331453D-02 0.45619775D+05 0.45619775D+05 0.45619775D+05 0.11962453D+01  1  2 13  3  6  5       21 -.143040128950D+00 0.100000000000D+01
0.708198925628D-04 0.000000000000D+00 0.000000000000D+00 0.158572201057D-04 0.827622783822D-07  6 2 -1 25 24 21 21 4 0.12136279D+00 0.99331453D-02 0.45619775D+05 0.45619775D+05 0.45619775D+05 0.11962453D+01  1  2  1  3  6  5       21 0.365187204440D-01 0.100000000000D+01
  </mgrwgt>
  </event>
  <event>
  5     66 0.42622971E-03 0.12320466E+03 0.75467711E-02 0.94077904E-01
        2 -1    0    0  502    0 0.00000000E+00 0.00000000E+00 0.76658020E+03 0.76658026E+03 0.32000000E+00 0.0000E+00 0.9000E+01
       -1 -1    0    0    0  501 0.00000000E+00 0.00000000E+00 -.11826160E+03 0.11826203E+03 0.32000000E+00 0.0000E+00 0.9000E+01
       25  1    1    2    0    0 0.24634146E+02 -.11657721E+03 0.39064953E+03 0.42711725E+03 0.12500000E+03 0.0000E+00 0.9000E+01
       24  1    1    2    0    0 0.39175111E+02 0.22196935E+03 0.22899490E+03 0.33122645E+03 0.80419002E+02 0.0000E+00 0.9000E+01
       21  1    1    2  502  501 -.63809257E+02 -.10539214E+03 0.28674169E+02 0.12649860E+03 0.75000000E+00 0.0000E+00 0.9000E+01
#aMCatNLO 1  0  0  2  1 0.85895739D+03 0.00000000D+00  -5  6  0 0.00000000D+00 0.00000000D+00 0.00000000D+00 0.00000000D+00 0.00000000D+00
  <mgrwgt>
 0.3011405525D+00    3    2    0
 0.301093377436663D+03 0.000000000000000D+00 0.000000000000000D+00 0.301093377436663D+03
 0.301093377436663D+03 0.000000000000000D+00 0.000000000000000D+00 -.301093377436663D+03
 0.207022240503094D+03 0.246344026318008D+02 -.116576786933489D+03 0.114176210386223D+03
 0.240161051928890D+03 0.391754089442375D+02 0.221969845248461D+03 -.201193947137163D+02
 0.155003462441342D+03 -.638098115760383D+02 -.105393058314973D+03 -.940568156725067D+02
 0.000000000000000D+00 -.000000000000000D+00 -.000000000000000D+00 0.000000000000000D+00
 0.107401612137547D+04 0.000000000000000D+00 0.000000000000000D+00 0.107401612137547D+04
 0.860176185796654D+03 0.000000000000000D+00 0.000000000000000D+00 -.860176185796654D+03
 0.290020575921124D+03 0.232529901968311D+03 0.371560510559006D+02 0.114176210386223D+03
 0.651543962714008D+03 0.412144201881858D+03 0.497769712021757D+03 -.201193947137163D+02
 0.107452468560321D+03 0.459662580631022D+02 -.242167616524400D+02 -.940568156725067D+02
 0.885175299976670D+03 -.690640361913271D+03 -.510709001425217D+03 0.213839935578814D+03
0.216962926418D-02 0.000000000000D+00 0.000000000000D+00 0.112236434807D-05 0.000000000000D+00  6 2 -1 25 24 21 21 2 0.11793545D+00 0.18194131D-01 0.71612961D+05 0.71612961D+05 0.71612961D+05 0.11771323D+01  1  2  2  2  6  2       -1 0.302461628022D+00 0.100000000000D+01
-.959435314000D-04 0.114494481829D-03 -.833194765096D-05 0.112236434807D-05 0.000000000000D+00  6 2 -1 25 24 21 21 4 0.11793545D+00 0.18194131D-01 0.71612961D+05 0.71612961D+05 0.71612961D+05 0.11771323D+01  1  2  3  2  6  2       -1 -.185332250112D-01 0.100000000000D+01
0.891045354012D-04 0.000000000000D+00 0.000000000000D+00 0.112236434807D-05 0.000000000000D+00  6 2 -1 25 24 21 21 4 0.11793545D+00 0.18194131D-01 0.71612961D+05 0.71612961D+05 0.71612961D+05 0.11771323D+01  1  2 15  2  6  2       -1 0.172121494801D-01 0.100000000000D+01
  </mgrwgt>
  </event>
  <event>
  5     66 0.42622971E-03 0.26995294E+02 0.75467711E-02 0.11860349E+00
        2 -1    0    0  502    0 0.00000000E+00 0.00000000E+00 0.60903299E+03 0.60903307E+03 0.32000000E+00 0.0000E+00 0.9000E+01
       -1 -1    0    0    0  501 0.00000000E+00 0.00000000E+00 -.68009694E+02 0.68010447E+02 0.32000000E+00 0.0000E+00 0.9000E+01
       25  1    1    2    0    0 -.13754940E+02 -.92505241E+02 0.46601541E+03 0.49146901E+03 0.12500000E+03 0.0000E+00 0.9000E+01
       24  1    1    2    0    0 0.41227642E+01 0.11771757E+03 0.65544299E+02 0.15696399E+03 0.80419002E+02 0.0000E+00 0.9000E+01
       21  1    1    2  502  501 0.96321754E+01 -.25212326E+02 0.94635803E+01 0.28610523E+02 0.75000000E+00 0.0000E+00 0.9000E+01
#aMCatNLO 1  0  0  5  1 0.14106552D+01 0.00000000D+00  -5  6  0 0.00000000D+00 0.00000000D+00 0.00000000D+00 0.00000000D+00 0.00000000D+00
  <mgrwgt>
 0.3070486839D+00   23    2    0
 0.203520098729332D+03 0.000000000000000D+00 0.000000000000000D+00 0.203520098729332D+03
 0.203520098729332D+03 -.000000000000000D+00 -.000000000000000D+00 -.203520098729332D+03
 0.198066015180605D+03 -.137560154285847D+02 -.925024250922958D+02 0.121898399337712D+03
 0.173964689635175D+03 0.412181926250695D+01 0.117720040818265D+03 -.996067260841626D+02
 0.350094926428836D+02 0.963419616607769D+01 -.252176157259692D+02 -.222916732535493D+02
 0.000000000000000D+00 0.000000000000000D+00 -.000000000000000D+00 0.000000000000000D+00
 0.203520098729332D+03 0.000000000000000D+00 0.000000000000000D+00 0.203520098729332D+03
 0.203520098729332D+03 -.000000000000000D+00 -.000000000000000D+00 -.203520098729332D+03
 0.198020062946639D+03 -.135827895277736D+02 -.929558458162603D+02 0.121497587986836D+03
 0.173901242870603D+03 0.427395636817024D+01 0.117321820250390D+03 -.999587420272392D+02
 0.336995049251043D+02 0.907572381069552D+01 -.233683782595257D+02 -.225212514534346D+02
 0.141938671631636D+01 0.233109348907782D+00 -.997596174603581D+00 0.982405493838178D+00
0.293245361799D-03 0.000000000000D+00 0.000000000000D+00 0.163975139913D-04 0.000000000000D+00  6 2 -1 25 24 21 21 2 0.93697447D-01 0.10463094D-01 0.26525550D+05 0.26525550D+05 0.26525550D+05 0.12205492D+01  1  2  2  3  6  5       21 0.137644349798D+00 0.100000000000D+01
0.477165211486D-04 0.154749828933D-04 -.112613940259D-05 0.163975139913D-04 0.000000000000D+00  6 2 -1 25 24 21 21 4 0.93697447D-01 0.10463094D-01 0.26525550D+05 0.26525550D+05 0.26525550D+05 0.12205492D+01  1  2  3  3  6  5       21 0.333661901821D-01 0.100000000000D+01
0.185443743459D-05 0.000000000000D+00 0.000000000000D+00 0.163975139913D-04 0.000000000000D+00  6 2 -1 25 24 21 21 4 0.93697447D-01 0.10463094D-01 0.26525550D+05 0.26525550D+05 0.26525550D+05 0.12205492D+01  1  2 15  3  6  5       21 0.129673141784D-02 0.100000000000D+01
-.533320107306D-02 0.000000000000D+00 0.000000000000D+00 0.163975139913D-04 0.000000000000D+00  6 2 -1 25 24 21 21 4 0.93697447D-01 0.10463094D-01 0.26525550D+05 0.26525550D+05 0.26525550D+05 0.12205492D+01  1  2  4  3  6  5       21 -.372928698488D+01 0.100000000000D+01
-.254965701548D-02 0.000000000000D+00 0.000000000000D+00 0.163975139913D-04 0.000000000000D+00  6 2 -1 25 24 21 21 4 0.93697447D-01 0.10463094D-01 0.26525550D+05 0.26525550D+05 0.26525550D+05 0.12205492D+01  1  2  5  3  6  5       21 -.178286972373D+01 0.100000000000D+01
0.276137411669D-02 0.000000000000D+00 -.000000000000D+00 0.163975139913D-04 0.000000000000D+00  6 2 -1 25 24 21 21 4 0.93697447D-01 0.10463094D-01 0.26525550D+05 0.26525550D+05 0.26525550D+05 0.12205492D+01  1  2  6  3  6  5       21 0.193091473820D+01 0.100000000000D+01
0.531304193497D-02 0.000000000000D+00 0.000000000000D+00 0.163975139913D-04 0.112697879801D-03  6 2 -1 25 24 21 21 4 0.93697447D-01 0.10463094D-01 0.26367483D+05 0.26367483D+05 0.26367483D+05 0.12208257D+01  1  2 11  3  6  5       21 0.371822001339D+01 0.100000000000D+01
0.556143480322D-09 0.000000000000D+00 0.000000000000D+00 0.164049431433D-04 0.000000000000D+00  6 2 -1 25 24 1 -1 4 0.93697447D-01 0.10463094D-01 0.26367483D+05 0.26367483D+05 0.26367483D+05 0.12208257D+01  1  2 12  6  6  5       21 0.389205250807D-06 0.100000000000D+01
0.541565241812D-09 0.000000000000D+00 0.000000000000D+00 0.164049431433D-04 0.000000000000D+00  6 2 -1 25 24 1 -1 4 0.93697447D-01 0.10463094D-01 0.26367483D+05 0.26367483D+05 0.26367483D+05 0.12208257D+01  1  2 12  6  6  5       21 0.379002978954D-06 0.100000000000D+01
-.757593747628D-05 0.000000000000D+00 0.000000000000D+00 0.163975139913D-04 0.000000000000D+00  6 2 -1 25 24 1 -1 4 0.93697447D-01 0.10463094D-01 0.26525550D+05 0.26525550D+05 0.26525550D+05 0.12205492D+01  1  2  5  6  6  5       21 -.529753981549D-02 0.100000000000D+01
0.681920425825D-05 0.000000000000D+00 0.000000000000D+00 0.163975139913D-04 0.214432733340D-06  6 2 -1 25 24 1 -1 4 0.93697447D-01 0.10463094D-01 0.26367483D+05 0.26367483D+05 0.26367483D+05 0.12208257D+01  1  2 11  6  6  5       21 0.477227585604D-02 0.100000000000D+01
0.556143480322D-09 0.000000000000D+00 0.000000000000D+00 0.164049431433D-04 0.000000000000D+00  6 2 -1 25 24 2 -2 4 0.93697447D-01 0.10463094D-01 0.26367483D+05 0.26367483D+05 0.26367483D+05 0.12208257D+01  1  2 12  7  6  5       21 0.389205250807D-06 0.100000000000D+01
0.541565241812D-09 0.000000000000D+00 0.000000000000D+00 0.164049431433D-04 0.000000000000D+00  6 2 -1 25 24 2 -2 4 0.93697447D-01 0.10463094D-01 0.26367483D+05 0.26367483D+05 0.26367483D+05 0.12208257D+01  1  2 12  7  6  5       21 0.379002978954D-06 0.100000000000D+01
-.757593747628D-05 0.000000000000D+00 0.000000000000D+00 0.163975139913D-04 0.000000000000D+00  6 2 -1 25 24 2 -2 4 0.93697447D-01 0.10463094D-01 0.26525550D+05 0.26525550D+05 0.26525550D+05 0.12205492D+01  1  2  5  7  6  5       21 -.529753981549D-02 0.100000000000D+01
0.675065212694D-05 0.000000000000D+00 0.000000000000D+00 0.163975139913D-04 0.206646761129D-06  6 2 -1 25 24 2 -2 4 0.93697447D-01 0.10463094D-01 0.26367483D+05 0.26367483D+05 0.26367483D+05 0.12208257D+01  1  2 11  7  6  5       21 0.472430109701D-02 0.100000000000D+01
0.556143480322D-09 0.000000000000D+00 0.000000000000D+00 0.164049431433D-04 0.000000000000D+00  6 2 -1 25 24 3 -3 4 0.93697447D-01 0.10463094D-01 0.26367483D+05 0.26367483D+05 0.26367483D+05 0.12208257D+01  1  2 12  8  6  5       21 0.389205250807D-06 0.100000000000D+01
0.556143480322D-09 0.000000000000D+00 0.000000000000D+00 0.164049431433D-04 0.000000000000D+00  6 2 -1 25 24 4 -4 4 0.93697447D-01 0.10463094D-01 0.26367483D+05 0.26367483D+05 0.26367483D+05 0.12208257D+01  1  2 12  8  6  5       21 0.389205250807D-06 0.100000000000D+01
0.541565241812D-09 0.000000000000D+00 0.000000000000D+00 0.164049431433D-04 0.000000000000D+00  6 2 -1 25 24 3 -3 4 0.93697447D-01 0.10463094D-01 0.26367483D+05 0.26367483D+05 0.26367483D+05 0.12208257D+01  1  2 12  8  6  5       21 0.379002978954D-06 0.100000000000D+01
0.541565241812D-09 0.000000000000D+00 0.000000000000D+00 0.164049431433D-04 0.000000000000D+00  6 2 -1 25 24 4 -4 4 0.93697447D-01 0.10463094D-01 0.26367483D+05 0.26367483D+05 0.26367483D+05 0.12208257D+01  1  2 12  8  6  5       21 0.379002978954D-06 0.100000000000D+01
-.757593747628D-05 0.000000000000D+00 0.000000000000D+00 0.163975139913D-04 0.000000000000D+00  6 2 -1 25 24 3 -3 4 0.93697447D-01 0.10463094D-01 0.26525550D+05 0.26525550D+05 0.26525550D+05 0.12205492D+01  1  2  5  8  6  5       21 -.529753981549D-02 0.100000000000D+01
-.757593747628D-05 0.000000000000D+00 0.000000000000D+00 0.163975139913D-04 0.000000000000D+00  6 2 -1 25 24 4 -4 4 0.93697447D-01 0.10463094D-01 0.26525550D+05 0.26525550D+05 0.26525550D+05 0.12205492D+01  1  2  5  8  6  5       21 -.529753981549D-02 0.100000000000D+01
0.675442223219D-05 0.000000000000D+00 0.000000000000D+00 0.163975139913D-04 0.206711982891D-06  6 2 -1 25 24 3 -3 4 0.93697447D-01 0.10463094D-01 0.26367483D+05 0.26367483D+05 0.26367483D+05 0.12208257D+01  1  2 11  8  6  5       21 0.472693952542D-02 0.100000000000D+01
0.675442223219D-05 0.000000000000D+00 0.000000000000D+00 0.163975139913D-04 0.206711982891D-06  6 2 -1 25 24 4 -4 4 0.93697447D-01 0.10463094D-01 0.26367483D+05 0.26367483D+05 0.26367483D+05 0.12208257D+01  1  2 11  8  6  5       21 0.472693952542D-02 0.100000000000D+01
  </mgrwgt>
  </event>
  <event>
  5     66 0.42622971E-03 0.20811617E+02 0.75467711E-02 0.99955819E-01
        2 -1    0    0  502    0 0.00000000E+00 0.00000000E+00 0.28678989E+03 0.28679007E+03 0.32000000E+00 0.0000E+00 0.9000E+01
       -1 -1    0    0    0  501 0.00000000E+00 0.00000000E+00 -.13469309E+03 0.13469347E+03 0.32000000E+00 0.0000E+00 0.9000E+01
       25  1    1    2    0    0 0.91582255E+02 0.10285295E+03 0.50054042E+01 0.18605400E+03 0.12500000E+03 0.0000E+00 0.9000E+01
       24  1    1    2    0    0 -.10512671E+03 -.87059201E+02 0.10991296E+03 0.19281858E+03 0.80419002E+02 0.0000E+00 0.9000E+01
       21  1    1    2  502  501 0.13544452E+02 -.15793745E+02 0.37178437E+02 0.42610952E+02 0.75000000E+00 0.0000E+00 0.9000E+01
#aMCatNLO 1  0  0  2  2 0.14514577D+03 0.00000000D+00  -5  6  0 0.00000000D+00 0.00000000D+00 0.00000000D+00 0.00000000D+00 0.00000000D+00
  <mgrwgt>
 0.1427096725D+01    3    2    0
 0.196541936038873D+03 0.000000000000000D+00 0.000000000000000D+00 0.196541936038873D+03
 0.196541936038873D+03 0.000000000000000D+00 0.000000000000000D+00 -.196541936038873D+03
 0.197560762744760D+03 0.915802999157131D+02 0.102855224526020D+03 -.666266195401004D+02
 0.164219836113870D+03 -.105128331478657D+03 -.870573061999505D+02 0.432434732256515D+02
 0.313032732191155D+02 0.135480315629435D+02 -.157979183260692D+02 0.233831463144489D+02
 0.000000000000000D+00 -.000000000000000D+00 0.000000000000000D+00 0.000000000000000D+00
 0.822088756187023D+03 0.000000000000000D+00 0.000000000000000D+00 0.822088756187023D+03
 0.440904424368236D+03 0.000000000000000D+00 0.000000000000000D+00 -.440904424368236D+03
 0.214025928955020D+03 0.130771362274363D+03 -.929615116197296D+02 -.666266195401004D+02
 0.347503480790478D+03 -.564023137827247D+02 -.330515104390805D+03 0.432434732256515D+02
 0.736146411064825D+02 0.235382586664799D+02 -.657137294073559D+02 0.233831463144489D+02
 0.627849129703279D+03 -.979073071581182D+02 0.489190345417891D+03 0.381184331818788D+03
0.278672467307D-02 0.000000000000D+00 0.000000000000D+00 0.373092642827D-04 0.000000000000D+00  6 2 -1 25 24 21 21 2 0.44121564D-01 0.20722056D-01 0.33346878D+05 0.33346878D+05 0.33346878D+05 0.12101068D+01  1  2  2  2  6  2       -1 0.100020014487D+01 0.100000000000D+01
0.748105309764D-03 0.147059501230D-03 -.107017565061D-04 0.373092642827D-04 0.000000000000D+00  6 2 -1 25 24 21 21 4 0.44121564D-01 0.20722056D-01 0.33346878D+05 0.33346878D+05 0.33346878D+05 0.12101068D+01  1  2  3  2  6  2       -1 0.393190491255D+00 0.100000000000D+01
0.641310111113D-04 0.000000000000D+00 0.000000000000D+00 0.373092642827D-04 0.000000000000D+00  6 2 -1 25 24 21 21 4 0.44121564D-01 0.20722056D-01 0.33346878D+05 0.33346878D+05 0.33346878D+05 0.12101068D+01  1  2 15  2  6  2       -1 0.337060884803D-01 0.100000000000D+01
  </mgrwgt>
  </event>
  <event>
  5     66 -.42622971E-03 0.22275047E+02 0.75467711E-02 0.11485145E+00
        2 -1    0    0  502    0 0.00000000E+00 0.00000000E+00 0.63191099E+03 0.63191107E+03 0.32000000E+00 0.0000E+00 0.9000E+01
       -1 -1    0    0    0  501 0.00000000E+00 0.00000000E+00 -.75852039E+02 0.75852714E+02 0.32000000E+00 0.0000E+00 0.9000E+01
       25  1    1    2    0    0 -.93173978E+02 0.14062913E+03 0.22671093E+03 0.30899966E+03 0.12500000E+03 0.0000E+00 0.9000E+01
       24  1    1    2    0    0 0.72715004E+02 -.13182434E+03 0.18112341E+03 0.24887353E+03 0.80419002E+02 0.0000E+00 0.9000E+01
       21  1    1    2  502  501 0.20458974E+02 -.88047923E+01 0.14822461E+03 0.14989060E+03 0.75000000E+00 0.0000E+00 0.9000E+01
#aMCatNLO 1  0  0  5  2 0.23003773D+01 0.00000000D+00  -5  6  0 0.00000000D+00 0.00000000D+00 0.00000000D+00 0.00000000D+00 0.00000000D+00
  <mgrwgt>
 -.3047367114D+01    9    2    0
 0.218933790430605D+03 0.000000000000000D+00 0.000000000000000D+00 0.218933790430605D+03
 0.218933790430605D+03 -.000000000000000D+00 -.000000000000000D+00 -.218933790430605D+03
 0.211558367182995D+03 -.931749294662115D+02 0.140629538917426D+03 -.259558861912583D+02
 0.172262656587479D+03 0.727142284811553D+02 -.131824003430885D+03 -.232869061072870D+02
 0.540465570907370D+02 0.204607009850562D+02 -.880553548654151D+01 0.492427922985453D+02
 0.000000000000000D+00 0.000000000000000D+00 0.000000000000000D+00 -.000000000000000D+00
 0.218933790430605D+03 0.000000000000000D+00 0.000000000000000D+00 0.218933790430605D+03
 0.218933790430605D+03 -.000000000000000D+00 -.000000000000000D+00 -.218933790430605D+03
 0.210978829466544D+03 -.926032437674609D+02 0.140383506354262D+03 -.245800095707953D+02
 0.172465682525320D+03 0.731806401083150D+02 -.132024729893643D+03 -.221643927144845D+02
 0.520267165470221D+02 0.177391938405902D+02 -.766891040790214D+01 0.483041204216133D+02
 0.239635232232406D+01 0.168340981855573D+01 -.689866052716287D+00 -.155971813633353D+01
0.835258992483D-03 0.000000000000D+00 0.000000000000D+00 0.352761689352D-04 0.000000000000D+00  6 2 -1 25 24 21 21 2 0.97217134D-01 0.11669603D-01 0.40585433D+05 0.40585433D+05 0.40585433D+05 0.12013600D+01  1  2  2  3  6  5       21 0.309160639479D+00 0.100000000000D+01
0.201144582294D-03 0.440778280033D-04 -.320761445988D-05 0.352761689352D-04 0.000000000000D+00  6 2 -1 25 24 21 21 4 0.97217134D-01 0.11669603D-01 0.40585433D+05 0.40585433D+05 0.40585433D+05 0.12013600D+01  1  2  3  3  6  5       21 0.107452792117D+00 0.100000000000D+01
-.155880331809D-05 0.000000000000D+00 0.000000000000D+00 0.352761689352D-04 0.000000000000D+00  6 2 -1 25 24 21 21 4 0.97217134D-01 0.11669603D-01 0.40585433D+05 0.40585433D+05 0.40585433D+05 0.12013600D+01  1  2 15  3  6  5       21 -.832723243051D-03 0.100000000000D+01
0.248040865402D-06 0.000000000000D+00 0.000000000000D+00 0.352915199537D-04 0.000000000000D+00  6 2 -1 25 24 21 21 4 0.97217134D-01 0.11669603D-01 0.40345307D+05 0.40345307D+05 0.40345307D+05 0.12016214D+01  1  2 12  3  6  5       21 0.132611905111D-03 0.100000000000D+01
-.648314222433D-02 0.000000000000D+00 0.000000000000D+00 0.352761689352D-04 0.000000000000D+00  6 2 -1 25 24 21 21 4 0.97217134D-01 0.11669603D-01 0.40585433D+05 0.40585433D+05 0.40585433D+05 0.12013600D+01  1  2  4  3  6  5       21 -.346333829006D+01 0.100000000000D+01
0.270536666689D-07 0.000000000000D+00 0.000000000000D+00 0.352915199537D-04 0.000000000000D+00  6 2 -1 25 24 1 -1 4 0.97217134D-01 0.11669603D-01 0.40345307D+05 0.40345307D+05 0.40345307D+05 0.12016214D+01  1  2 12  6  6  5       21 0.144639000167D-04 0.100000000000D+01
0.270536666689D-07 0.000000000000D+00 0.000000000000D+00 0.352915199537D-04 0.000000000000D+00  6 2 -1 25 24 2 -2 4 0.97217134D-01 0.11669603D-01 0.40345307D+05 0.40345307D+05 0.40345307D+05 0.12016214D+01  1  2 12  7  6  5       21 0.144639000167D-04 0.100000000000D+01
0.270536666689D-07 0.000000000000D+00 0.000000000000D+00 0.352915199537D-04 0.000000000000D+00  6 2 -1 25 24 3 -3 4 0.97217134D-01 0.11669603D-01 0.40345307D+05 0.40345307D+05 0.40345307D+05 0.12016214D+01  1  2 12  8  6  5       21 0.144639000167D-04 0.100000000000D+01
0.270536666689D-07 0.000000000000D+00 0.000000000000D+00 0.352915199537D-04 0.000000000000D+00  6 2 -1 25 24 4 -4 4 0.97217134D-01 0.11669603D-01 0.40345307D+05 0.40345307D+05 0.40345307D+05 0.12016214D+01  1  2 12  8  6  5       21 0.144639000167D-04 0.100000000000D+01
  </mgrwgt>
  </event>
  <event>
  5     66 0.42622971E-03 0.32460534E+02 0.75467711E-02 0.11781365E+00
        2 -1    0    0  502    0 0.00000000E+00 0.00000000E+00 0.40917506E+03 0.40917519E+03 0.32000000E+00 0.0000E+00 0.9000E+01
       -1 -1    0    0    0  501 0.00000000E+00 0.00000000E+00 -.70984984E+02 0.70985705E+02 0.32000000E+00 0.0000E+00 0.9000E+01
       25  1    1    2    0    0 -.10620347E+02 0.50855873E+02 0.11036495E+03 0.17465547E+03 0.12500000E+03 0.0000E+00 0.9000E+01
       24  1    1    2    0    0 -.12854091E+02 -.73273909E+02 0.42739026E+02 0.11759309E+03 0.80419002E+02 0.0000E+00 0.9000E+01
       21  1    1    2  502  501 0.23474438E+02 0.22418035E+02 0.18508610E+03 0.18791233E+03 0.75000000E+00 0.0000E+00 0.9000E+01
#aMCatNLO 1  0  0  1  5 0.96890031D+02 0.00000000D+00  -5  6  0 0.00000000D+00 0.00000000D+00 0.00000000D+00 0.00000000D+00 0.00000000D+00
  <mgrwgt>
 0.2617827723D+00    7    4    0
 0.170427368979381D+03 0.000000000000000D+00 0.000000000000000D+00 0.170427368979381D+03
 0.170427368979381D+03 0.000000000000000D+00 0.000000000000000D+00 -.170427368979381D+03
 0.136534450917802D+03 -.106207494986110D+02 0.508554891255246D+02 -.178206395316519D+02
 0.123248832791976D+03 -.128544541750764D+02 -.732742556476339D+02 -.564686222371333D+02
 0.810714542489836D+02 0.234752036736874D+02 0.224187665221092D+02 0.742892617687852D+02
 0.000000000000000D+00 -.000000000000000D+00 0.000000000000000D+00 0.000000000000000D+00
 0.200317478369496D+03 0.000000000000000D+00 0.000000000000000D+00 0.200317478369496D+03
 0.197605927183931D+03 0.000000000000000D+00 0.000000000000000D+00 -.197605927183931D+03
 0.135057478065904D+03 0.995711772430154D+01 0.468913957440960D+02 -.178206395316519D+02
 0.124917442701706D+03 0.594850762656125D+01 -.768964335741263D+02 -.564686222371333D+02
 0.849628646644207D+02 0.360552246700099D+02 0.199953677592759D+02 0.742892617687852D+02
 0.529856201213964D+02 -.519608500208727D+02 0.100096700707544D+02 0.271155118556514D+01
 0.170427368979381D+03 0.000000000000000D+00 0.000000000000000D+00 0.170427368979381D+03
 0.170427368979381D+03 0.000000000000000D+00 0.000000000000000D+00 -.170427368979381D+03
 0.136534450917802D+03 -.106207494986110D+02 0.508554891255246D+02 -.178206395316519D+02
 0.123248832791976D+03 -.128544541750764D+02 -.732742556476339D+02 -.564686222371333D+02
 0.000000000000000D+00 -.000000000000000D+00 0.000000000000000D+00 0.000000000000000D+00
 0.810714542489836D+02 0.234752036736874D+02 0.224187665221092D+02 0.742892617687852D+02
 0.200317478369496D+03 0.000000000000000D+00 0.000000000000000D+00 0.200317478369496D+03
 0.197605927183931D+03 0.000000000000000D+00 0.000000000000000D+00 -.197605927183931D+03
 0.135057478065904D+03 0.995711772430154D+01 0.468913957440960D+02 -.178206395316519D+02
 0.124917442701706D+03 0.594850762656125D+01 -.768964335741263D+02 -.564686222371333D+02
 0.529856201213964D+02 -.519608500208727D+02 0.100096700707544D+02 0.271155118556514D+01
 0.849628646644207D+02 0.360552246700099D+02 0.199953677592759D+02 0.742892617687852D+02
0.208381325608D-03 0.000000000000D+00 0.000000000000D+00 0.242666536818D-04 0.000000000000D+00  6 2 -1 25 24 21 21 2 0.62950074D-01 0.10920832D-01 0.19234733D+05 0.19234733D+05 0.19234733D+05 0.12356958D+01  1  2  2  1  6  1        2 0.144727847893D+00 0.100000000000D+01
0.158199823524D-04 0.109965846664D-04 -.800239158397D-06 0.242666536818D-04 0.000000000000D+00  6 2 -1 25 24 21 21 4 0.62950074D-01 0.10920832D-01 0.19234733D+05 0.19234733D+05 0.19234733D+05 0.12356958D+01  1  2  3  1  6  1        2 0.167773140245D-01 0.100000000000D+01
0.819845366069D-05 0.000000000000D+00 0.000000000000D+00 0.242666536818D-04 0.000000000000D+00  6 2 -1 25 24 21 21 4 0.62950074D-01 0.10920832D-01 0.19234733D+05 0.19234733D+05 0.19234733D+05 0.12356958D+01  1  2 15  1  6  1        2 0.869457553853D-02 0.100000000000D+01
-.789925403766D-04 0.000000000000D+00 0.000000000000D+00 0.242666536818D-04 0.000000000000D+00  6 2 -1 25 24 21 21 4 0.62950074D-01 0.10920832D-01 0.19234733D+05 0.19234733D+05 0.19234733D+05 0.12356958D+01  1  2  4  1  6  1        2 -.837727012568D-01 0.100000000000D+01
-.508915848945D-03 0.000000000000D+00 -.213769589615D-03 0.242666536818D-04 0.000000000000D+00  6 2 -1 25 24 21 21 4 0.83995611D-01 0.10920832D-01 0.19234733D+05 0.19234733D+05 0.19234733D+05 0.12356958D+01  1  2  5  1  6  1        2 -.393999395316D+00 0.100000000000D+01
0.555883191113D-03 0.000000000000D+00 0.205176206564D-03 0.242666536818D-04 0.000000000000D+00  6 2 -1 25 24 21 21 4 0.62950074D-01 0.10920832D-01 0.19234733D+05 0.19234733D+05 0.19234733D+05 0.12356958D+01  1  2  6  1  6  1        2 0.589521950817D+00 0.100000000000D+01
-.146125949881D-04 0.000000000000D+00 -.803131226887D-05 0.242666536818D-04 0.000000000000D+00  6 21 -1 25 24 -2 21 4 0.83995611D-01 0.10920832D-01 0.19234733D+05 0.19234733D+05 0.19234733D+05 0.12356958D+01  3  4  5  4  5  1        2 -.201668194105D-01 0.100000000000D+01
  </mgrwgt>
  </event>
  <event>
  5     66 0.42622971E-03 0.25395211E+02 0.75467711E-02 0.12401462E+00
        2 -1    0    0  502    0 0.00000000E+00 0.00000000E+00 0.30764393E+04 0.30764393E+04 0.32000000E+00 0.0000E+00 0.9000E+01
       -1 -1    0    0    0  501 0.00000000E+00 0.00000000E+00 -.51210870E+01 0.51310751E+01 0.32000000E+00 0.0000E+00 0.9000E+01
       25  1    1    2    0    0 0.30708985E+01 0.27303079E+02 0.11934579E+04 0.12003006E+04 0.12500000E+03 0.0000E+00 0.9000E+01
       24  1    1    2    0    0 -.19573582E+02 -.80075932E+01 0.11685891E+04 0.11715438E+04 0.80419002E+02 0.0000E+00 0.9000E+01
       21  1    1    2  502  501 0.16502683E+02 -.19295486E+02 0.70927124E+03 0.70972594E+03 0.75000000E+00 0.0000E+00 0.9000E+01
#aMCatNLO 1  0  0  1  2 0.71777209D+01 0.00000000D+00  -5  6  0 0.00000000D+00 0.00000000D+00 0.00000000D+00 0.00000000D+00 0.00000000D+00
  <mgrwgt>
 0.2418435680D+00    9    4    0
 0.125579172535266D+03 0.000000000000000D+00 0.000000000000000D+00 0.125579172535266D+03
 0.125579172535266D+03 0.000000000000000D+00 0.000000000000000D+00 -.125579172535266D+03
 0.132674315582056D+03 0.306884153091169D+01 0.273054842662527D+02 -.349637920685194D+02
 0.839540926399220D+02 -.195748833443731D+02 -.800607133501295D+01 0.115672157607152D+02
 0.345299368485543D+02 0.165060418134614D+02 -.192994129312398D+02 0.233965763078043D+02
 0.000000000000000D+00 0.000000000000000D+00 -.000000000000000D+00 0.000000000000000D+00
 0.140403376630837D+03 0.000000000000000D+00 0.000000000000000D+00 0.140403376630837D+03
 0.126502303488775D+03 0.000000000000000D+00 0.000000000000000D+00 -.126502303488775D+03
 0.132818952852407D+03 -.626447450847687D+00 0.281605228039283D+02 -.349637920685194D+02
 0.844818111736607D+02 -.219192717470065D+02 -.746361242545913D+01 0.115672157607152D+02
 0.339601242474093D+02 0.155527575000008D+02 -.190788361835500D+02 0.233965763078043D+02
 0.156447918461343D+02 0.699296169785340D+01 -.161807419491924D+01 0.139010731420622D+02
 0.125579172535266D+03 0.000000000000000D+00 0.000000000000000D+00 0.125579172535266D+03
 0.125579172535266D+03 0.000000000000000D+00 0.000000000000000D+00 -.125579172535266D+03
 0.132674315582056D+03 0.306884153091169D+01 0.273054842662527D+02 -.349637920685194D+02
 0.839540926399220D+02 -.195748833443731D+02 -.800607133501295D+01 0.115672157607152D+02
 0.000000000000000D+00 0.000000000000000D+00 -.000000000000000D+00 0.000000000000000D+00
 0.345299368485543D+02 0.165060418134614D+02 -.192994129312398D+02 0.233965763078043D+02
 0.140403376630837D+03 0.000000000000000D+00 0.000000000000000D+00 0.140403376630837D+03
 0.126502303488775D+03 0.000000000000000D+00 0.000000000000000D+00 -.126502303488775D+03
 0.132818952852407D+03 -.626447450847687D+00 0.281605228039283D+02 -.349637920685194D+02
 0.844818111736607D+02 -.219192717470065D+02 -.746361242545913D+01 0.115672157607152D+02
 0.156447918461343D+02 0.699296169785340D+01 -.161807419491924D+01 0.139010731420622D+02
 0.339601242474093D+02 0.155527575000008D+02 -.190788361835500D+02 0.233965763078043D+02
0.876187592356D-04 0.000000000000D+00 0.000000000000D+00 0.403831746975D-04 0.000000000000D+00  6 2 -1 25 24 21 21 2 0.47329913D+00 0.78862914D-03 0.13986968D+05 0.13986968D+05 0.13986968D+05 0.12512994D+01  1  2  2  1  6  1        2 0.781920778923D-01 0.100000000000D+01
0.895518678844D-05 0.462376895574D-05 -.336479106014D-06 0.403831746975D-04 0.000000000000D+00  6 2 -1 25 24 21 21 4 0.47329913D+00 0.78862914D-03 0.13986968D+05 0.13986968D+05 0.13986968D+05 0.12512994D+01  1  2  3  1  6  1        2 0.125130386734D-01 0.100000000000D+01
0.273513587047D-05 0.000000000000D+00 0.000000000000D+00 0.403831746975D-04 0.000000000000D+00  6 2 -1 25 24 21 21 4 0.47329913D+00 0.78862914D-03 0.13986968D+05 0.13986968D+05 0.13986968D+05 0.12512994D+01  1  2 15  1  6  1        2 0.382179196623D-02 0.100000000000D+01
-.442102354934D-03 0.000000000000D+00 0.000000000000D+00 0.403831746975D-04 0.000000000000D+00  6 2 -1 25 24 21 21 4 0.47329913D+00 0.78862914D-03 0.13986968D+05 0.13986968D+05 0.13986968D+05 0.12512994D+01  1  2  4  1  6  1        2 -.617747456929D+00 0.100000000000D+01
-.133248551972D-02 0.000000000000D+00 -.114191859555D-03 0.403831746975D-04 0.000000000000D+00  6 2 -1 25 24 21 21 4 0.53005860D+00 0.78862914D-03 0.13986968D+05 0.13986968D+05 0.13986968D+05 0.12512994D+01  1  2  5  1  6  1        2 -.111043873076D+01 0.100000000000D+01
0.133755924830D-02 0.000000000000D+00 0.113463337561D-03 0.403831746975D-04 0.000000000000D+00  6 2 -1 25 24 21 21 4 0.47329913D+00 0.78862914D-03 0.13986968D+05 0.13986968D+05 0.13986968D+05 0.12512994D+01  1  2  6  1  6  1        2 0.186896499173D+01 0.100000000000D+01
0.100142028698D-04 0.000000000000D+00 0.000000000000D+00 0.403831746975D-04 0.871950621796D-05  6 2 -1 25 24 21 21 4 0.52917052D+00 0.79442634D-03 0.14836832D+05 0.14836832D+05 0.14836832D+05 0.12483644D+01  1  2 11  1  6  1        2 0.824645023204D-02 0.100000000000D+01
-.236028035766D-04 0.000000000000D+00 -.206340483995D-05 0.403831746975D-04 0.000000000000D+00  6 21 -1 25 24 -2 21 4 0.53005860D+00 0.78862914D-03 0.13986968D+05 0.13986968D+05 0.13986968D+05 0.12512994D+01  3  4  5  4  5  1        2 -.171529382615D-02 0.100000000000D+01
0.932884318910D-07 0.000000000000D+00 0.000000000000D+00 0.403831746975D-04 0.162121527859D-06  6 21 -1 25 24 -2 21 4 0.52917052D+00 0.79442634D-03 0.14836832D+05 0.14836832D+05 0.14836832D+05 0.12483644D+01  3  4 11  4  5  1        2 0.669902537412D-05 0.100000000000D+01
  </mgrwgt>
  </event>
  <event>
  6     66 0.42622971E-03 0.12267212E+03 0.75467711E-02 0.10278326E+00
        2 -1    0    0  502    0 0.00000000E+00 0.00000000E+00 0.25180617E+04 0.25180617E+04 0.32000000E+00 0.0000E+00 0.9000E+01
       -1 -1    0    0    0  503 0.00000000E+00 0.00000000E+00 -.97871803E+02 0.97872326E+02 0.32000000E+00 0.0000E+00 0.9000E+01
       25  1    1    2    0    0 -.41072801E+03 0.93619436E+02 0.91003205E+03 0.10105669E+04 0.12500000E+03 0.0000E+00 0.9000E+01
       24  1    1    2    0    0 0.21973234E+03 -.76027655E+02 0.12213003E+04 0.12458348E+04 0.80419002E+02 0.0000E+00 0.9000E+01
       21  1    1    2  502  501 0.14292290E+03 -.54752762E+02 0.19881527E+03 0.25090415E+03 0.75000000E+00 0.0000E+00 0.9000E+01
       21  1    1    2  501  503 0.48072773E+02 0.37160981E+02 0.90042248E+02 0.10862826E+03 0.75000000E+00 0.0000E+00 0.9000E+01
#aMCatNLO 2  0  0  2  5 0.60761254D+02 0.00000000D+00  -5  6  0 0.00000000D+00 0.00000000D+00 0.00000000D+00 0.00000000D+00 0.00000000D+00
  <mgrwgt>
 0.7171002944D-01    1    2    0
 0.461871820674209D+03 0.000000000000000D+00 0.000000000000000D+00 0.461871820674209D+03
 0.461871820674209D+03 0.000000000000000D+00 0.000000000000000D+00 -.461871820674209D+03
 0.429800835057071D+03 -.387952778727580D+03 0.111225671814736D+03 -.789002485589555D+02
 0.309194306606765D+03 0.235570834870282D+03 -.637838069914783D+02 0.171964853990168D+03
 0.184748499684583D+03 0.152381943857298D+03 -.474418648232577D+02 -.930646054312124D+02
 0.000000000000000D+00 0.000000000000000D+00 0.000000000000000D+00 -.000000000000000D+00
 0.481877585285970D+03 0.000000000000000D+00 0.000000000000000D+00 0.481877585285970D+03
 0.511428350407576D+03 0.000000000000000D+00 0.000000000000000D+00 -.511428350407576D+03
 0.446444713825591D+03 -.410728626129048D+03 0.936195970846563D+02 -.789002485589555D+02
 0.300169007936186D+03 0.219731934596518D+03 -.760275166083689D+02 0.171964853990168D+03
 0.179126114783299D+03 0.142923918418018D+03 -.547530616251924D+02 -.930646054312124D+02
 0.675660991484702D+02 0.480727731145121D+02 0.371609811489050D+02 -.295507651216052D+02
0.313550662665D-02 0.000000000000D+00 0.000000000000D+00 0.505933603197D-06 0.786063939050D-09  6 2 -1 25 24 21 21 4 0.38739251D+00 0.15057178D-01 0.20216663D+06 0.20216663D+06 0.20216663D+06 0.11364913D+01  1  2  1  2  6  2       -1 0.717100294357D-01 0.100000000000D+01
  </mgrwgt>
  </event>
  <event>
  5     66 0.42622971E-03 0.32469324E+02 0.75467711E-02 0.10793485E+00
        2 -1    0    0  502    0 0.00000000E+00 0.00000000E+00 0.52540661E+02 0.52541636E+02 0.32000000E+00 0.0000E+00 0.9000E+01
       -1 -1    0    0    0  501 0.00000000E+00 0.00000000E+00 -.62531735E+03 0.62531744E+03 0.32000000E+00 0.0000E+00 0.9000E+01
       25  1    1    2    0    0 0.10031917E+03 -.32472435E+02 -.21115213E+03 0.26707418E+03 0.12500000E+03 0.0000E+00 0.9000E+01
       24  1    1    2    0    0 -.10347525E+03 0.64784862E+02 -.21097370E+03 0.25667358E+03 0.80419002E+02 0.0000E+00 0.9000E+01
       21  1    1    2  502  501 0.31560825E+01 -.32312426E+02 -.15065086E+03 0.15411132E+03 0.75000000E+00 0.0000E+00 0.9000E+01
#aMCatNLO 1  0  0  1  5 0.22321002D+03 0.00000000D+00  -5  6  0 0.00000000D+00 0.00000000D+00 0.00000000D+00 0.00000000D+00 0.00000000D+00
  <mgrwgt>
 0.2472722133D+00    5    4    0
 0.181259331439269D+03 0.000000000000000D+00 0.000000000000000D+00 0.181259331439269D+03
 0.181259331439269D+03 0.000000000000000D+00 0.000000000000000D+00 -.181259331439269D+03
 0.165772427899583D+03 0.100319006491184D+03 -.324707819286172D+02 0.271522210746810D+02
 0.146607653820275D+03 -.103475393284272D+03 0.647863239400289D+02 0.110527561864915D+02
 0.501385811586806D+02 0.315638679308826D+01 -.323155420114117D+02 -.382049772611725D+02
 0.000000000000000D+00 0.000000000000000D+00 -.000000000000000D+00 0.000000000000000D+00
 0.408366157489404D+03 0.000000000000000D+00 0.000000000000000D+00 0.408366157489404D+03
 0.276573775466992D+03 0.000000000000000D+00 0.000000000000000D+00 -.276573775466992D+03
 0.134806113139783D+03 0.357818429738987D+02 0.230240036474724D+02 0.271522210746810D+02
 0.246485654919016D+03 -.187876385637002D+03 0.137361793913534D+03 0.110527561864915D+02
 0.444340749484749D+02 -.171492908855192D+02 -.148549167323086D+02 -.382049772611725D+02
 0.259214089949122D+03 0.169243833548622D+03 -.145530880828698D+03 0.131792382022411D+03
 0.181259331439269D+03 0.000000000000000D+00 0.000000000000000D+00 0.181259331439269D+03
 0.181259331439269D+03 0.000000000000000D+00 0.000000000000000D+00 -.181259331439269D+03
 0.165772427899583D+03 0.100319006491184D+03 -.324707819286172D+02 0.271522210746810D+02
 0.146607653820275D+03 -.103475393284272D+03 0.647863239400289D+02 0.110527561864915D+02
 0.000000000000000D+00 0.000000000000000D+00 -.000000000000000D+00 0.000000000000000D+00
 0.501385811586806D+02 0.315638679308826D+01 -.323155420114117D+02 -.382049772611725D+02
 0.408366157489404D+03 0.000000000000000D+00 0.000000000000000D+00 0.408366157489404D+03
 0.276573775466992D+03 0.000000000000000D+00 0.000000000000000D+00 -.276573775466992D+03
 0.134806113139783D+03 0.357818429738987D+02 0.230240036474724D+02 0.271522210746810D+02
 0.246485654919016D+03 -.187876385637002D+03 0.137361793913534D+03 0.110527561864915D+02
 0.259214089949122D+03 0.169243833548622D+03 -.145530880828698D+03 0.131792382022411D+03
 0.444340749484749D+02 -.171492908855192D+02 -.148549167323086D+02 -.382049772611725D+02
0.118362916378D-02 0.000000000000D+00 0.000000000000D+00 0.184809733984D-04 0.000000000000D+00  6 2 -1 25 24 21 21 2 0.80832599D-02 0.96202751D-01 0.29274081D+05 0.29274081D+05 0.29274081D+05 0.12160165D+01  1  2  2  1  6  1        2 0.182043711390D+00 0.100000000000D+01
0.147811392446D-03 0.624618270146D-04 -.454544764564D-05 0.184809733984D-04 0.000000000000D+00  6 2 -1 25 24 21 21 4 0.80832599D-02 0.96202751D-01 0.29274081D+05 0.29274081D+05 0.29274081D+05 0.12160165D+01  1  2  3  1  6  1        2 0.336160634031D-01 0.100000000000D+01
0.154756292070D-04 0.000000000000D+00 0.000000000000D+00 0.184809733984D-04 0.000000000000D+00  6 2 -1 25 24 21 21 4 0.80832599D-02 0.96202751D-01 0.29274081D+05 0.29274081D+05 0.29274081D+05 0.12160165D+01  1  2 15  1  6  1        2 0.351955099005D-02 0.100000000000D+01
0.210725022983D-03 0.000000000000D+00 -.809582462040D-03 0.184809733984D-04 0.000000000000D+00  6 2 -1 25 24 21 21 4 0.27544625D-01 0.96202751D-01 0.29274081D+05 0.29274081D+05 0.29274081D+05 0.12160165D+01  1  2  5  1  6  1        2 0.112842727796D-01 0.100000000000D+01
0.588554164829D-04 0.000000000000D+00 -.115595940905D-03 0.184809733984D-04 0.000000000000D+00  6 21 -1 25 24 -2 21 4 0.27544625D-01 0.96202751D-01 0.29274081D+05 0.29274081D+05 0.29274081D+05 0.12160165D+01  3  4  5  4  5  1        2 0.168086147784D-01 0.100000000000D+01
  </mgrwgt>
  </event>
  <event>
  5     66 0.42622971E-03 0.35491646E+02 0.75467711E-02 0.11640151E+00
        2 -1    0    0  502    0 0.00000000E+00 0.00000000E+00 0.95612354E+03 0.95612359E+03 0.32000000E+00 0.0000E+00 0.9000E+01
       -1 -1    0    0    0  501 0.00000000E+00 0.00000000E+00 -.61761103E+02 0.61761932E+02 0.32000000E+00 0.0000E+00 0.9000E+01
       25  1    1    2    0    0 0.10407897E+03 -.30784727E+02 0.28156739E+03 0.32662720E+03 0.12500000E+03 0.0000E+00 0.9000E+01
       24  1    1    2    0    0 -.13771116E+03 0.42120411E+02 0.13777351E+03 0.21491219E+03 0.80419002E+02 0.0000E+00 0.9000E+01
       21  1    1    2  502  501 0.33632195E+02 -.11335684E+02 0.47502153E+03 0.47634613E+03 0.75000000E+00 0.0000E+00 0.9000E+01
#aMCatNLO 1  0  0  5  2 0.17113640D+01 0.00000000D+00  -5  6  0 0.00000000D+00 0.00000000D+00 0.00000000D+00 0.00000000D+00 0.00000000D+00
  <mgrwgt>
 0.3829172055D-01   20    2    0
 0.243005541634072D+03 0.000000000000000D+00 0.000000000000000D+00 0.243005541634072D+03
 0.243005541634072D+03 -.000000000000000D+00 -.000000000000000D+00 -.243005541634072D+03
 0.165933978904526D+03 0.104078756052128D+03 -.307846553991305D+02 -.113579437261341D+02
 0.196573461716017D+03 -.137711413299344D+03 0.421204957452995D+02 -.106936150958950D+03
 0.123503642647601D+03 0.336326572472164D+02 -.113358403461690D+02 0.118294094685084D+03
 0.000000000000000D+00 0.000000000000000D+00 0.000000000000000D+00 0.000000000000000D+00
 0.243005541634072D+03 0.000000000000000D+00 0.000000000000000D+00 0.243005541634072D+03
 0.243005541634072D+03 -.000000000000000D+00 -.000000000000000D+00 -.243005541634072D+03
 0.165961442644197D+03 0.104139591250483D+03 -.308051598181215D+02 -.111439717922054D+02
 0.196380068573363D+03 -.137639386376382D+03 0.420962191710961D+02 -.106682815054442D+03
 0.121066748114198D+03 0.346119385718186D+02 -.111082561819169D+02 0.115480638428458D+03
 0.260282393638602D+01 -.111214344591879D+01 -.182803171057693D+00 0.234614841818994D+01
0.759213880776D-04 0.000000000000D+00 0.000000000000D+00 0.160310602107D-04 0.000000000000D+00  6 2 -1 25 24 21 21 2 0.14709600D+00 0.95017760D-02 0.33485013D+05 0.33485013D+05 0.33485013D+05 0.12099207D+01  1  2  2  3  6  5       21 0.232505951133D-01 0.100000000000D+01
0.949322282074D-05 0.400648172072D-05 -.291558120778D-06 0.160310602107D-04 0.000000000000D+00  6 2 -1 25 24 21 21 4 0.14709600D+00 0.95017760D-02 0.33485013D+05 0.33485013D+05 0.33485013D+05 0.12099207D+01  1  2  3  3  6  5       21 0.425595908510D-02 0.100000000000D+01
0.199881086299D-05 0.000000000000D+00 0.000000000000D+00 0.160310602107D-04 0.000000000000D+00  6 2 -1 25 24 21 21 4 0.14709600D+00 0.95017760D-02 0.33485013D+05 0.33485013D+05 0.33485013D+05 0.12099207D+01  1  2 15  3  6  5       21 0.896097922949D-03 0.100000000000D+01
0.168088357026D-07 0.000000000000D+00 0.000000000000D+00 0.160183177129D-04 0.000000000000D+00  6 2 -1 25 24 21 21 4 0.14709600D+00 0.95017760D-02 0.33844990D+05 0.33844990D+05 0.33844990D+05 0.12094398D+01  1  2 12  3  6  5       21 0.752412219663D-05 0.100000000000D+01
-.114642941445D-02 0.000000000000D+00 0.000000000000D+00 0.160310602107D-04 0.000000000000D+00  6 2 -1 25 24 21 21 4 0.14709600D+00 0.95017760D-02 0.33485013D+05 0.33485013D+05 0.33485013D+05 0.12099207D+01  1  2  4  3  6  5       21 -.513962094223D+00 0.100000000000D+01
-.469956090336D-02 0.000000000000D+00 0.000000000000D+00 0.160310602107D-04 0.000000000000D+00  6 2 -1 25 24 21 21 4 0.14709600D+00 0.95017760D-02 0.33485013D+05 0.33485013D+05 0.33485013D+05 0.12099207D+01  1  2  5  3  6  5       21 -.210688607023D+01 0.100000000000D+01
0.479559431202D-02 0.000000000000D+00 -.000000000000D+00 0.160310602107D-04 0.000000000000D+00  6 2 -1 25 24 21 21 4 0.14709600D+00 0.95017760D-02 0.33485013D+05 0.33485013D+05 0.33485013D+05 0.12099207D+01  1  2  6  3  6  5       21 0.214993933737D+01 0.100000000000D+01
0.107385895364D-02 0.000000000000D+00 0.000000000000D+00 0.160310602107D-04 0.231540169684D-04  6 2 -1 25 24 21 21 4 0.14709600D+00 0.95017760D-02 0.33844990D+05 0.33844990D+05 0.33844990D+05 0.12094398D+01  1  2 11  3  6  5       21 0.480690401886D+00 0.100000000000D+01
0.185542015646D-08 0.000000000000D+00 0.000000000000D+00 0.160183177129D-04 0.000000000000D+00  6 2 -1 25 24 1 -1 4 0.14709600D+00 0.95017760D-02 0.33844990D+05 0.33844990D+05 0.33844990D+05 0.12094398D+01  1  2 12  6  6  5       21 0.830539855960D-06 0.100000000000D+01
-.784366183480D-05 0.000000000000D+00 0.000000000000D+00 0.160310602107D-04 0.000000000000D+00  6 2 -1 25 24 1 -1 4 0.14709600D+00 0.95017760D-02 0.33485013D+05 0.33485013D+05 0.33485013D+05 0.12099207D+01  1  2  5  6  6  5       21 -.351643530091D-02 0.100000000000D+01
0.784945857946D-05 0.000000000000D+00 0.000000000000D+00 0.160310602107D-04 0.137618972619D-06  6 2 -1 25 24 1 -1 4 0.14709600D+00 0.95017760D-02 0.33844990D+05 0.33844990D+05 0.33844990D+05 0.12094398D+01  1  2 11  6  6  5       21 0.351364523838D-02 0.100000000000D+01
0.185542015646D-08 0.000000000000D+00 0.000000000000D+00 0.160183177129D-04 0.000000000000D+00  6 2 -1 25 24 2 -2 4 0.14709600D+00 0.95017760D-02 0.33844990D+05 0.33844990D+05 0.33844990D+05 0.12094398D+01  1  2 12  7  6  5       21 0.830539855960D-06 0.100000000000D+01
-.784366183480D-05 0.000000000000D+00 0.000000000000D+00 0.160310602107D-04 0.000000000000D+00  6 2 -1 25 24 2 -2 4 0.14709600D+00 0.95017760D-02 0.33485013D+05 0.33485013D+05 0.33485013D+05 0.12099207D+01  1  2  5  7  6  5       21 -.351643530091D-02 0.100000000000D+01
0.804414969386D-05 0.000000000000D+00 0.000000000000D+00 0.160310602107D-04 0.140632502966D-06  6 2 -1 25 24 2 -2 4 0.14709600D+00 0.95017760D-02 0.33844990D+05 0.33844990D+05 0.33844990D+05 0.12094398D+01  1  2 11  7  6  5       21 0.360079462584D-02 0.100000000000D+01
0.185542015646D-08 0.000000000000D+00 0.000000000000D+00 0.160183177129D-04 0.000000000000D+00  6 2 -1 25 24 3 -3 4 0.14709600D+00 0.95017760D-02 0.33844990D+05 0.33844990D+05 0.33844990D+05 0.12094398D+01  1  2 12  8  6  5       21 0.830539855960D-06 0.100000000000D+01
0.185542015646D-08 0.000000000000D+00 0.000000000000D+00 0.160183177129D-04 0.000000000000D+00  6 2 -1 25 24 4 -4 4 0.14709600D+00 0.95017760D-02 0.33844990D+05 0.33844990D+05 0.33844990D+05 0.12094398D+01  1  2 12  8  6  5       21 0.830539855960D-06 0.100000000000D+01
-.784366183480D-05 0.000000000000D+00 0.000000000000D+00 0.160310602107D-04 0.000000000000D+00  6 2 -1 25 24 3 -3 4 0.14709600D+00 0.95017760D-02 0.33485013D+05 0.33485013D+05 0.33485013D+05 0.12099207D+01  1  2  5  8  6  5       21 -.351643530091D-02 0.100000000000D+01
-.784366183480D-05 0.000000000000D+00 0.000000000000D+00 0.160310602107D-04 0.000000000000D+00  6 2 -1 25 24 4 -4 4 0.14709600D+00 0.95017760D-02 0.33485013D+05 0.33485013D+05 0.33485013D+05 0.12099207D+01  1  2  5  8  6  5       21 -.351643530091D-02 0.100000000000D+01
0.787253373002D-05 0.000000000000D+00 0.000000000000D+00 0.160310602107D-04 0.135667756129D-06  6 2 -1 25 24 3 -3 4 0.14709600D+00 0.95017760D-02 0.33844990D+05 0.33844990D+05 0.33844990D+05 0.12094398D+01  1  2 11  8  6  5       21 0.352397434479D-02 0.100000000000D+01
0.787253373002D-05 0.000000000000D+00 0.000000000000D+00 0.160310602107D-04 0.135667756129D-06  6 2 -1 25 24 4 -4 4 0.14709600D+00 0.95017760D-02 0.33844990D+05 0.33844990D+05 0.33844990D+05 0.12094398D+01  1  2 11  8  6  5       21 0.352397434479D-02 0.100000000000D+01
  </mgrwgt>
  </event>
  <event>
  5     66 0.42622971E-03 0.57793534E+02 0.75467711E-02 0.11952585E+00
        2 -1    0    0  502    0 0.00000000E+00 0.00000000E+00 0.50021565E+03 0.50021575E+03 0.32000000E+00 0.0000E+00 0.9000E+01
       -1 -1    0    0    0  501 0.00000000E+00 0.00000000E+00 -.48950641E+02 0.48951687E+02 0.32000000E+00 0.0000E+00 0.9000E+01
       25  1    1    2    0    0 -.50930495E+02 0.76852012E+01 0.15892325E+03 0.20864941E+03 0.12500000E+03 0.0000E+00 0.9000E+01
       24  1    1    2    0    0 -.19260263E+02 -.36259124E+02 0.10533954E+03 0.13874191E+03 0.80419002E+02 0.0000E+00 0.9000E+01
       21  1    1    2  502  501 0.70190758E+02 0.28573923E+02 0.18700221E+03 0.20177612E+03 0.75000000E+00 0.0000E+00 0.9000E+01
#aMCatNLO 1  0  0  1  5 0.71194558D+01 0.00000000D+00  -5  6  0 0.00000000D+00 0.00000000D+00 0.00000000D+00 0.00000000D+00 0.00000000D+00
  <mgrwgt>
 0.1767545340D+00   11    4    0
 0.156480644619021D+03 0.000000000000000D+00 0.000000000000000D+00 0.156480644619021D+03
 0.156480644619021D+03 0.000000000000000D+00 0.000000000000000D+00 -.156480644619021D+03
 0.136972614496279D+03 -.509317072642129D+02 0.768470768502601D+01 -.219864409328650D+02
 0.915659736715698D+02 -.192610733756401D+02 -.362594539897900D+02 -.152110035445591D+02
 0.844227010701932D+02 0.701927806398530D+02 0.285747463047640D+02 0.371974444774242D+02
 0.000000000000000D+00 -.000000000000000D+00 -.000000000000000D+00 0.000000000000000D+00
 0.178498275029456D+03 0.000000000000000D+00 0.000000000000000D+00 0.178498275029456D+03
 0.157097712567468D+03 0.000000000000000D+00 0.000000000000000D+00 -.157097712567468D+03
 0.136070279230535D+03 -.481965217881879D+02 0.915492176384095D+01 -.219864409328650D+02
 0.908131884966165D+02 -.174341046210856D+02 -.352774236272990D+02 -.152110035445591D+02
 0.861587901429906D+02 0.719015671637455D+02 0.294932514764012D+02 0.371974444774242D+02
 0.225537297267815D+02 -.627094075447200D+01 -.337074961294320D+01 0.214005624619881D+02
 0.156480644619021D+03 0.000000000000000D+00 0.000000000000000D+00 0.156480644619021D+03
 0.156480644619021D+03 0.000000000000000D+00 0.000000000000000D+00 -.156480644619021D+03
 0.136972614496279D+03 -.509317072642129D+02 0.768470768502601D+01 -.219864409328650D+02
 0.915659736715698D+02 -.192610733756401D+02 -.362594539897900D+02 -.152110035445591D+02
 0.000000000000000D+00 -.000000000000000D+00 -.000000000000000D+00 0.000000000000000D+00
 0.844227010701932D+02 0.701927806398530D+02 0.285747463047640D+02 0.371974444774242D+02
 0.178498275029456D+03 0.000000000000000D+00 0.000000000000000D+00 0.178498275029456D+03
 0.157097712567468D+03 0.000000000000000D+00 0.000000000000000D+00 -.157097712567468D+03
 0.136070279230535D+03 -.481965217881879D+02 0.915492176384095D+01 -.219864409328650D+02
 0.908131884966165D+02 -.174341046210856D+02 -.352774236272990D+02 -.152110035445591D+02
 0.225537297267815D+02 -.627094075447200D+01 -.337074961294320D+01 0.214005624619881D+02
 0.861587901429906D+02 0.719015671637455D+02 0.294932514764012D+02 0.371974444774242D+02
0.101858469671D-04 0.000000000000D+00 0.000000000000D+00 0.519878404118D-05 0.000000000000D+00  6 2 -1 25 24 21 21 2 0.76956342D-01 0.75309562D-02 0.22691862D+05 0.22691862D+05 0.22691862D+05 0.12278339D+01  1  2  2  1  6  1        2 0.992529033494D-02 0.100000000000D+01
-.544421744278D-06 0.537521912032D-06 -.391163343486D-07 0.519878404118D-05 0.000000000000D+00  6 2 -1 25 24 21 21 4 0.76956342D-01 0.75309562D-02 0.22691862D+05 0.22691862D+05 0.22691862D+05 0.12278339D+01  1  2  3  1  6  1        2 -.799762049931D-03 0.100000000000D+01
0.276539349810D-06 0.000000000000D+00 0.000000000000D+00 0.519878404118D-05 0.000000000000D+00  6 2 -1 25 24 21 21 4 0.76956342D-01 0.75309562D-02 0.22691862D+05 0.22691862D+05 0.22691862D+05 0.12278339D+01  1  2 15  1  6  1        2 0.406239610403D-03 0.100000000000D+01
0.309256870759D-03 0.000000000000D+00 0.000000000000D+00 0.517957628766D-05 0.000000000000D+00  6 2 -1 25 24 21 21 4 0.88820791D-01 0.75309562D-02 0.23815794D+05 0.23815794D+05 0.23815794D+05 0.12255636D+01  1  2 12  1  6  1        2 0.384686120491D+00 0.100000000000D+01
-.208268277457D-03 0.000000000000D+00 0.000000000000D+00 0.519878404118D-05 0.000000000000D+00  6 2 -1 25 24 21 21 4 0.76956342D-01 0.75309562D-02 0.22691862D+05 0.22691862D+05 0.22691862D+05 0.12278339D+01  1  2  4  1  6  1        2 -.305948589059D+00 0.100000000000D+01
-.410060593562D-03 0.000000000000D+00 -.199826890947D-04 0.519878404118D-05 0.000000000000D+00  6 2 -1 25 24 21 21 4 0.87947886D-01 0.75309562D-02 0.22691862D+05 0.22691862D+05 0.22691862D+05 0.12278339D+01  1  2  5  1  6  1        2 -.519036187822D+00 0.100000000000D+01
0.409252519704D-03 0.000000000000D+00 0.198059174629D-04 0.519878404118D-05 0.000000000000D+00  6 2 -1 25 24 21 21 4 0.76956342D-01 0.75309562D-02 0.22691862D+05 0.22691862D+05 0.22691862D+05 0.12278339D+01  1  2  6  1  6  1        2 0.601196843326D+00 0.100000000000D+01
0.764910416093D-05 0.000000000000D+00 0.000000000000D+00 0.519878404118D-05 0.270066081992D-06  6 2 -1 25 24 21 21 4 0.87784495D-01 0.75606539D-02 0.23815794D+05 0.23815794D+05 0.23815794D+05 0.12255636D+01  1  2 11  1  6  1        2 0.958489951195D-02 0.100000000000D+01
0.680042709461D-05 0.000000000000D+00 0.000000000000D+00 0.517957628766D-05 0.000000000000D+00  6 21 -1 25 24 -2 21 4 0.88820791D-01 0.75309562D-02 0.23815794D+05 0.23815794D+05 0.23815794D+05 0.12255636D+01  3  4 12  4  5  1        2 0.140405528912D-01 0.100000000000D+01
-.839145731819D-05 0.000000000000D+00 -.414399260141D-06 0.519878404118D-05 0.000000000000D+00  6 21 -1 25 24 -2 21 4 0.87947886D-01 0.75309562D-02 0.22691862D+05 0.22691862D+05 0.22691862D+05 0.12278339D+01  3  4  5  4  5  1        2 -.178613726643D-01 0.100000000000D+01
0.265848173441D-06 0.000000000000D+00 0.000000000000D+00 0.519878404118D-05 0.186807101171D-07  6 21 -1 25 24 -2 21 4 0.87784495D-01 0.75606539D-02 0.23815794D+05 0.23815794D+05 0.23815794D+05 0.12255636D+01  3  4 11  4  5  1        2 0.560499435789D-03 0.100000000000D+01
  </mgrwgt>
  </event>
  <event>
  5     66 0.42622971E-03 0.88980433E+02 0.75467711E-02 0.10320076E+00
        2 -1    0    0  502    0 0.00000000E+00 0.00000000E+00 0.18546766E+04 0.18546767E+04 0.32000000E+00 0.0000E+00 0.9000E+01
       -1 -1    0    0    0  501 0.00000000E+00 0.00000000E+00 -.12014321E+03 0.12014363E+03 0.32000000E+00 0.0000E+00 0.9000E+01
       25  1    1    2    0    0 0.37823847E+03 -.42806742E+02 0.85717538E+03 0.94618782E+03 0.12500000E+03 0.0000E+00 0.9000E+01
       24  1    1    2    0    0 -.32723158E+03 -.30101837E+02 0.32490720E+03 0.46906133E+03 0.80419002E+02 0.0000E+00 0.9000E+01
       21  1    1    2  502  501 -.51006889E+02 0.72908579E+02 0.55245085E+03 0.55957114E+03 0.75000000E+00 0.0000E+00 0.9000E+01
#aMCatNLO 1  0  0  1  5 0.40395870D+02 0.00000000D+00  -5  6  0 0.00000000D+00 0.00000000D+00 0.00000000D+00 0.00000000D+00 0.00000000D+00
  <mgrwgt>
 0.6382137716D+00    9    4    0
 0.472045812765486D+03 0.000000000000000D+00 0.000000000000000D+00 0.472045812765486D+03
 0.472045812765486D+03 0.000000000000000D+00 0.000000000000000D+00 -.472045812765486D+03
 0.404358785413680D+03 0.378238726862763D+03 -.428071054923934D+02 0.546264090145517D+02
 0.384231291328789D+03 -.327231342340915D+03 -.301021819012083D+02 -.182153716724001D+03
 0.155501548788502D+03 -.510073845218480D+02 0.729092873936017D+02 0.127527307709449D+03
 0.000000000000000D+00 0.000000000000000D+00 -.000000000000000D+00 0.000000000000000D+00
 0.662423310341107D+03 0.000000000000000D+00 0.000000000000000D+00 0.662423310341107D+03
 0.474625485616382D+03 0.000000000000000D+00 0.000000000000000D+00 -.474625485616382D+03
 0.400578178162808D+03 0.375751908080718D+03 -.257747130364082D+02 0.546264090145517D+02
 0.385331217876855D+03 -.329608873238922D+03 -.138183096611211D+02 -.182153716724001D+03
 0.159046065174813D+03 -.519791661018316D+02 0.795650861077178D+02 0.127527307709449D+03
 0.192093334743013D+03 0.583613126003552D+01 -.399720634101885D+02 0.187797824724725D+03
 0.472045812765486D+03 0.000000000000000D+00 0.000000000000000D+00 0.472045812765486D+03
 0.472045812765486D+03 0.000000000000000D+00 0.000000000000000D+00 -.472045812765486D+03
 0.404358785413680D+03 0.378238726862763D+03 -.428071054923934D+02 0.546264090145517D+02
 0.384231291328789D+03 -.327231342340915D+03 -.301021819012083D+02 -.182153716724001D+03
 0.000000000000000D+00 0.000000000000000D+00 -.000000000000000D+00 0.000000000000000D+00
 0.155501548788502D+03 -.510073845218480D+02 0.729092873936017D+02 0.127527307709449D+03
 0.662423310341107D+03 0.000000000000000D+00 0.000000000000000D+00 0.662423310341107D+03
 0.474625485616382D+03 0.000000000000000D+00 0.000000000000000D+00 -.474625485616382D+03
 0.400578178162808D+03 0.375751908080718D+03 -.257747130364082D+02 0.546264090145517D+02
 0.385331217876855D+03 -.329608873238922D+03 -.138183096611211D+02 -.182153716724001D+03
 0.192093334743013D+03 0.583613126003552D+01 -.399720634101885D+02 0.187797824724725D+03
 0.159046065174813D+03 -.519791661018316D+02 0.795650861077178D+02 0.127527307709449D+03
0.193418861209D-02 0.000000000000D+00 0.000000000000D+00 0.168096196292D-05 0.000000000000D+00  6 2 -1 25 24 21 21 2 0.28533490D+00 0.18483605D-01 0.17137218D+06 0.17137218D+06 0.17137218D+06 0.11426742D+01  1  2  2  1  6  1        2 0.572111405589D-01 0.100000000000D+01
0.165312413115D-03 0.102069937273D-03 -.742779355399D-05 0.168096196292D-05 0.000000000000D+00  6 2 -1 25 24 21 21 4 0.28533490D+00 0.18483605D-01 0.17137218D+06 0.17137218D+06 0.17137218D+06 0.11426742D+01  1  2  3  1  6  1        2 0.638457648474D-02 0.100000000000D+01
0.508051524038D-04 0.000000000000D+00 0.000000000000D+00 0.168096196292D-05 0.000000000000D+00  6 2 -1 25 24 21 21 4 0.28533490D+00 0.18483605D-01 0.17137218D+06 0.17137218D+06 0.17137218D+06 0.11426742D+01  1  2 15  1  6  1        2 0.196215985980D-02 0.100000000000D+01
0.335321001198D-01 0.000000000000D+00 0.000000000000D+00 0.166957449536D-05 0.000000000000D+00  6 2 -1 25 24 21 21 4 0.42873047D+00 0.18483605D-01 0.19002181D+06 0.19002181D+06 0.19002181D+06 0.11387972D+01  1  2 12  1  6  1        2 0.390910076657D+00 0.100000000000D+01
-.204301442923D-01 0.000000000000D+00 0.000000000000D+00 0.168096196292D-05 0.000000000000D+00  6 2 -1 25 24 21 21 4 0.28533490D+00 0.18483605D-01 0.17137218D+06 0.17137218D+06 0.17137218D+06 0.11426742D+01  1  2  4  1  6  1        2 -.789038260170D+00 0.100000000000D+01
-.445040851173D-01 0.000000000000D+00 -.133569359045D-02 0.168096196292D-05 0.000000000000D+00  6 2 -1 25 24 21 21 4 0.40096584D+00 0.18483605D-01 0.17137218D+06 0.17137218D+06 0.17137218D+06 0.11426742D+01  1  2  5  1  6  1        2 -.670415002831D+00 0.100000000000D+01
0.425461581302D-01 0.000000000000D+00 0.126195421817D-02 0.168096196292D-05 0.000000000000D+00  6 2 -1 25 24 21 21 4 0.28533490D+00 0.18483605D-01 0.17137218D+06 0.17137218D+06 0.17137218D+06 0.11426742D+01  1  2  6  1  6  1        2 0.164318695491D+01 0.100000000000D+01
0.161709428982D-02 0.000000000000D+00 0.000000000000D+00 0.166957449536D-05 0.000000000000D+00  6 21 -1 25 24 -2 21 4 0.42873047D+00 0.18483605D-01 0.19002181D+06 0.19002181D+06 0.19002181D+06 0.11387972D+01  3  4 12  4  5  1        2 0.255108126438D-02 0.100000000000D+01
-.184736611782D-02 0.000000000000D+00 -.565321959534D-04 0.168096196292D-05 0.000000000000D+00  6 21 -1 25 24 -2 21 4 0.40096584D+00 0.18483605D-01 0.17137218D+06 0.17137218D+06 0.17137218D+06 0.11426742D+01  3  4  5  4  5  1        2 -.453895511916D-02 0.100000000000D+01
  </mgrwgt>
  </event>
  <event>
  5     66 0.42622971E-03 0.26074185E+02 0.75467711E-02 0.12429910E+00
        2 -1    0    0  502    0 0.00000000E+00 0.00000000E+00 0.83810055E+03 0.83810061E+03 0.32000000E+00 0.0000E+00 0.9000E+01
       -1 -1    0    0    0  501 0.00000000E+00 0.00000000E+00 -.26600170E+02 0.26602095E+02 0.32000000E+00 0.0000E+00 0.9000E+01
       25  1    1    2    0    0 0.13855168E+02 -.34151607E+01 0.62704283E+03 0.63953994E+03 0.12500000E+03 0.0000E+00 0.9000E+01
       24  1    1    2    0    0 -.34962185E+02 -.11878377E+02 0.86318687E+02 0.12361870E+03 0.80419002E+02 0.0000E+00 0.9000E+01
       21  1    1    2  502  501 0.21107017E+02 0.15293538E+02 0.98138867E+02 0.10154407E+03 0.75000000E+00 0.0000E+00 0.9000E+01
#aMCatNLO 1  0  0  5  1 0.25047268D+01 0.00000000D+00  -5  6  0 0.00000000D+00 0.00000000D+00 0.00000000D+00 0.00000000D+00 0.00000000D+00
  <mgrwgt>
 0.3028432576D+00   25    2    0
 0.149313346927312D+03 0.000000000000000D+00 0.000000000000000D+00 0.149313346927312D+03
 0.149313346927312D+03 -.000000000000000D+00 -.000000000000000D+00 -.149313346927312D+03
 0.147897339404162D+03 0.138512334681845D+02 -.341801142720811D+01 0.777501352546946D+02
 0.123386108797944D+03 -.349654670817311D+02 -.118807552579333D+02 -.859836010887249D+02
 0.273432456525182D+02 0.211142336135466D+02 0.152987666851414D+02 0.823346583403027D+01
 0.000000000000000D+00 0.000000000000000D+00 0.000000000000000D+00 0.000000000000000D+00
 0.149313346927312D+03 0.000000000000000D+00 0.000000000000000D+00 0.149313346927312D+03
 0.149313346927312D+03 -.000000000000000D+00 -.000000000000000D+00 -.149313346927312D+03
 0.148033257383238D+03 0.143290029702580D+02 -.307183338090627D+01 0.779364408030684D+02
 0.123138225935181D+03 -.345674622456883D+02 -.115923723955655D+02 -.858283996601855D+02
 0.240854513268482D+02 0.195512762509727D+02 0.113858011953379D+02 0.825954561197933D+01
 0.336975920935781D+01 0.687183024457541D+00 0.327840458113378D+01 -.367586754862264D+00
0.125267712482D-03 0.000000000000D+00 0.000000000000D+00 0.212151823728D-04 0.000000000000D+00  6 2 -1 25 24 21 21 2 0.12893870D+00 0.40924866D-02 0.14445441D+05 0.14445441D+05 0.14445441D+05 0.12496920D+01  1  2  2  3  6  5       21 0.169138948695D+00 0.100000000000D+01
0.148284473233D-04 0.661055880250D-05 -.481060999676D-06 0.212151823728D-04 0.000000000000D+00  6 2 -1 25 24 21 21 4 0.12893870D+00 0.40924866D-02 0.14445441D+05 0.14445441D+05 0.14445441D+05 0.12496920D+01  1  2  3  3  6  5       21 0.312684328019D-01 0.100000000000D+01
0.294143773105D-05 0.000000000000D+00 0.000000000000D+00 0.212151823728D-04 0.000000000000D+00  6 2 -1 25 24 21 21 4 0.12893870D+00 0.40924866D-02 0.14445441D+05 0.14445441D+05 0.14445441D+05 0.12496920D+01  1  2 15  3  6  5       21 0.620254744338D-02 0.100000000000D+01
0.175756779973D-06 0.000000000000D+00 0.000000000000D+00 0.212186952101D-04 0.000000000000D+00  6 2 -1 25 24 21 21 4 0.12893870D+00 0.40924866D-02 0.14415430D+05 0.14415430D+05 0.14415430D+05 0.12497954D+01  1  2 12  3  6  5       21 0.370715216124D-03 0.100000000000D+01
0.180532125670D-06 0.000000000000D+00 0.000000000000D+00 0.212186952101D-04 0.000000000000D+00  6 2 -1 25 24 21 21 4 0.12893870D+00 0.40924866D-02 0.14415430D+05 0.14415430D+05 0.14415430D+05 0.12497954D+01  1  2 12  3  6  5       21 0.380787620230D-03 0.100000000000D+01
-.927841619195D-03 0.000000000000D+00 0.000000000000D+00 0.212151823728D-04 0.000000000000D+00  6 2 -1 25 24 21 21 4 0.12893870D+00 0.40924866D-02 0.14445441D+05 0.14445441D+05 0.14445441D+05 0.12496920D+01  1  2  4  3  6  5       21 -.195651997057D+01 0.100000000000D+01
-.743388502105D-03 0.000000000000D+00 0.000000000000D+00 0.212151823728D-04 0.000000000000D+00  6 2 -1 25 24 21 21 4 0.12893870D+00 0.40924866D-02 0.14445441D+05 0.14445441D+05 0.14445441D+05 0.12496920D+01  1  2  5  3  6  5       21 -.156756758931D+01 0.100000000000D+01
0.944626263627D-03 0.000000000000D+00 -.000000000000D+00 0.212151823728D-04 0.000000000000D+00  6 2 -1 25 24 21 21 4 0.12893870D+00 0.40924866D-02 0.14445441D+05 0.14445441D+05 0.14445441D+05 0.12496920D+01  1  2  6  3  6  5       21 0.199191339479D+01 0.100000000000D+01
0.772661258167D-03 0.000000000000D+00 0.000000000000D+00 0.212151823728D-04 0.234069319632D-04  6 2 -1 25 24 21 21 4 0.12893870D+00 0.40924866D-02 0.14415430D+05 0.14415430D+05 0.14415430D+05 0.12497954D+01  1  2 11  3  6  5       21 0.162973676097D+01 0.100000000000D+01
0.183257056512D-07 0.000000000000D+00 0.000000000000D+00 0.212186952101D-04 0.000000000000D+00  6 2 -1 25 24 1 -1 4 0.12893870D+00 0.40924866D-02 0.14415430D+05 0.14415430D+05 0.14415430D+05 0.12497954D+01  1  2 12  6  6  5       21 0.386535184143D-04 0.100000000000D+01
0.185047644640D-07 0.000000000000D+00 0.000000000000D+00 0.212186952101D-04 0.000000000000D+00  6 2 -1 25 24 1 -1 4 0.12893870D+00 0.40924866D-02 0.14415430D+05 0.14415430D+05 0.14415430D+05 0.12497954D+01  1  2 12  6  6  5       21 0.390311984474D-04 0.100000000000D+01
-.787726886507D-05 0.000000000000D+00 0.000000000000D+00 0.212151823728D-04 0.000000000000D+00  6 2 -1 25 24 1 -1 4 0.12893870D+00 0.40924866D-02 0.14445441D+05 0.14445441D+05 0.14445441D+05 0.12496920D+01  1  2  5  6  6  5       21 -.166106300141D-01 0.100000000000D+01
0.749332015938D-05 0.000000000000D+00 0.000000000000D+00 0.212151823728D-04 0.439174938763D-06  6 2 -1 25 24 1 -1 4 0.12893870D+00 0.40924866D-02 0.14415430D+05 0.14415430D+05 0.14415430D+05 0.12497954D+01  1  2 11  6  6  5       21 0.158052952654D-01 0.100000000000D+01
0.183257056512D-07 0.000000000000D+00 0.000000000000D+00 0.212186952101D-04 0.000000000000D+00  6 2 -1 25 24 2 -2 4 0.12893870D+00 0.40924866D-02 0.14415430D+05 0.14415430D+05 0.14415430D+05 0.12497954D+01  1  2 12  7  6  5       21 0.386535184143D-04 0.100000000000D+01
0.185047644640D-07 0.000000000000D+00 0.000000000000D+00 0.212186952101D-04 0.000000000000D+00  6 2 -1 25 24 2 -2 4 0.12893870D+00 0.40924866D-02 0.14415430D+05 0.14415430D+05 0.14415430D+05 0.12497954D+01  1  2 12  7  6  5       21 0.390311984474D-04 0.100000000000D+01
-.787726886507D-05 0.000000000000D+00 0.000000000000D+00 0.212151823728D-04 0.000000000000D+00  6 2 -1 25 24 2 -2 4 0.12893870D+00 0.40924866D-02 0.14445441D+05 0.14445441D+05 0.14445441D+05 0.12496920D+01  1  2  5  7  6  5       21 -.166106300141D-01 0.100000000000D+01
0.764251597081D-05 0.000000000000D+00 0.000000000000D+00 0.212151823728D-04 0.439715550718D-06  6 2 -1 25 24 2 -2 4 0.12893870D+00 0.40924866D-02 0.14415430D+05 0.14415430D+05 0.14415430D+05 0.12497954D+01  1  2 11  7  6  5       21 0.161199867242D-01 0.100000000000D+01
0.183257056512D-07 0.000000000000D+00 0.000000000000D+00 0.212186952101D-04 0.000000000000D+00  6 2 -1 25 24 3 -3 4 0.12893870D+00 0.40924866D-02 0.14415430D+05 0.14415430D+05 0.14415430D+05 0.12497954D+01  1  2 12  8  6  5       21 0.386535184143D-04 0.100000000000D+01
0.183257056512D-07 0.000000000000D+00 0.000000000000D+00 0.212186952101D-04 0.000000000000D+00  6 2 -1 25 24 4 -4 4 0.12893870D+00 0.40924866D-02 0.14415430D+05 0.14415430D+05 0.14415430D+05 0.12497954D+01  1  2 12  8  6  5       21 0.386535184143D-04 0.100000000000D+01
0.185047644640D-07 0.000000000000D+00 0.000000000000D+00 0.212186952101D-04 0.000000000000D+00  6 2 -1 25 24 3 -3 4 0.12893870D+00 0.40924866D-02 0.14415430D+05 0.14415430D+05 0.14415430D+05 0.12497954D+01  1  2 12  8  6  5       21 0.390311984474D-04 0.100000000000D+01
0.185047644640D-07 0.000000000000D+00 0.000000000000D+00 0.212186952101D-04 0.000000000000D+00  6 2 -1 25 24 4 -4 4 0.12893870D+00 0.40924866D-02 0.14415430D+05 0.14415430D+05 0.14415430D+05 0.12497954D+01  1  2 12  8  6  5       21 0.390311984474D-04 0.100000000000D+01
-.787726886507D-05 0.000000000000D+00 0.000000000000D+00 0.212151823728D-04 0.000000000000D+00  6 2 -1 25 24 3 -3 4 0.12893870D+00 0.40924866D-02 0.14445441D+05 0.14445441D+05 0.14445441D+05 0.12496920D+01  1  2  5  8  6  5       21 -.166106300141D-01 0.100000000000D+01
-.787726886507D-05 0.000000000000D+00 0.000000000000D+00 0.212151823728D-04 0.000000000000D+00  6 2 -1 25 24 4 -4 4 0.12893870D+00 0.40924866D-02 0.14445441D+05 0.14445441D+05 0.14445441D+05 0.12496920D+01  1  2  5  8  6  5       21 -.166106300141D-01 0.100000000000D+01
0.761543424526D-05 0.000000000000D+00 0.000000000000D+00 0.212151823728D-04 0.437421159644D-06  6 2 -1 25 24 3 -3 4 0.12893870D+00 0.40924866D-02 0.14415430D+05 0.14415430D+05 0.14415430D+05 0.12497954D+01  1  2 11  8  6  5       21 0.160628645594D-01 0.100000000000D+01
0.761543424526D-05 0.000000000000D+00 0.000000000000D+00 0.212151823728D-04 0.437421159644D-06  6 2 -1 25 24 4 -4 4 0.12893870D+00 0.40924866D-02 0.14415430D+05 0.14415430D+05 0.14415430D+05 0.12497954D+01  1  2 11  8  6  5       21 0.160628645594D-01 0.100000000000D+01
  </mgrwgt>
  </event>
  <event>
  6     66 0.42622971E-03 0.48546384E+02 0.75467711E-02 0.11000448E+00
        2 -1    0    0  502    0 0.00000000E+00 0.00000000E+00 0.10476113E+04 0.10476113E+04 0.32000000E+00 0.0000E+00 0.9000E+01
       -1 -1    0    0    0  501 0.00000000E+00 0.00000000E+00 -.10033460E+03 0.10033511E+03 0.32000000E+00 0.0000E+00 0.9000E+01
       25  1    1    2    0    0 -.15340918E+03 0.11674133E+03 0.44598459E+03 0.50168732E+03 0.12500000E+03 0.0000E+00 0.9000E+01
       24  1    1    2    0    0 0.21244872E+03 -.11698185E+03 0.52050054E+03 0.57983380E+03 0.80419002E+02 0.0000E+00 0.9000E+01
       21  1    1    2  503  501 -.32431708E+02 0.10393833E+01 -.22642356E+02 0.39574420E+02 0.75000000E+00 0.0000E+00 0.9000E+01
       21  1    1    2  502  503 -.26607837E+02 -.79886830E+00 0.34338955E+01 0.26850872E+02 0.75000000E+00 0.0000E+00 0.9000E+01
#aMCatNLO 2  0  0  5  2 0.10728145D+02 0.00000000D+00  -5  6  0 0.00000000D+00 0.00000000D+00 0.00000000D+00 0.00000000D+00 0.00000000D+00
  <mgrwgt>
 0.1005264285D+00    3    2    0
 0.324209767907644D+03 0.000000000000000D+00 0.000000000000000D+00 0.324209767907644D+03
 0.324209767907644D+03 -.000000000000000D+00 -.000000000000000D+00 -.324209767907644D+03
 0.236602575915652D+03 -.153119920132567D+03 0.116740155550424D+03 0.572870410353057D+02
 0.266587546996645D+03 0.212774334865724D+03 -.116983175379732D+03 0.751247187005817D+02
 0.145229412902991D+03 -.596544147331575D+02 0.243019829307362D+00 -.132411759735887D+03
 0.000000000000000D+00 -.000000000000000D+00 0.000000000000000D+00 0.000000000000000D+00
 0.324209767907644D+03 0.000000000000000D+00 0.000000000000000D+00 0.324209767907644D+03
 0.324209767907644D+03 -.000000000000000D+00 -.000000000000000D+00 -.324209767907644D+03
 0.236635912778076D+03 -.153408917184234D+03 0.116741332865037D+03 0.566455695140304D+02
 0.266124606454831D+03 0.212449018465194D+03 -.116981850107554D+03 0.744026310351858D+02
 0.102778873556413D+03 -.322372487491383D+02 0.104274239808596D+01 -.975867272271316D+02
 0.428801430259670D+02 -.268028525318217D+02 -.802225155568896D+00 -.334614733220846D+02
-.352383855890D-02 0.000000000000D+00 0.000000000000D+00 0.496113320153D-05 0.000000000000D+00  6 2 -1 25 24 21 21 4 0.16117101D+00 0.15436135D-01 0.74075783D+05 0.74075783D+05 0.74075783D+05 0.11757368D+01  1  2 13  3  6  5       21 -.579370994832D+00 0.100000000000D+01
-.316184217906D-02 0.000000000000D+00 0.000000000000D+00 0.496113320153D-05 0.000000000000D+00  6 2 -1 25 24 21 21 4 0.16117101D+00 0.15436135D-01 0.74075783D+05 0.74075783D+05 0.74075783D+05 0.11757368D+01  1  2 13  3  6  5       21 -.519853454738D+00 0.100000000000D+01
0.729710055038D-02 0.000000000000D+00 0.000000000000D+00 0.496028615690D-05 0.260624669440D-06  6 2 -1 25 24 21 21 4 0.16117101D+00 0.15436135D-01 0.74075783D+05 0.74075783D+05 0.74075783D+05 0.11757368D+01  1  2  1  3  6  5       21 0.119975087808D+01 0.100000000000D+01
  </mgrwgt>
  </event>
  <event>
  5     66 0.42622971E-03 0.38511826E+02 0.75467711E-02 0.10415693E+00
        2 -1    0    0  502    0 0.00000000E+00 0.00000000E+00 0.16158211E+04 0.16158212E+04 0.32000000E+00 0.0000E+00 0.9000E+01
       -1 -1    0    0    0  501 0.00000000E+00 0.00000000E+00 -.43181299E+02 0.43182485E+02 0.32000000E+00 0.0000E+00 0.9000E+01
       25  1    1    2    0    0 0.38816936E+02 0.18788578E+03 0.65058076E+03 0.68970149E+03 0.12500000E+03 0.0000E+00 0.9000E+01
       24  1    1    2    0    0 -.55483595E+02 -.15316827E+03 0.91140756E+03 0.92933843E+03 0.80419002E+02 0.0000E+00 0.9000E+01
       21  1    1    2  502  501 0.16666658E+02 -.34717506E+02 0.10651508E+02 0.39963731E+02 0.75000000E+00 0.0000E+00 0.9000E+01
#aMCatNLO 1  0  0  1  1 0.88941860D+02 0.00000000D+00  -5  6  0 0.00000000D+00 0.00000000D+00 0.00000000D+00 0.00000000D+00 0.00000000D+00
  <mgrwgt>
 0.5690667890D+00    3    2    0
 0.264148188912606D+03 0.000000000000000D+00 0.000000000000000D+00 0.264148188912606D+03
 0.264148188912606D+03 0.000000000000000D+00 0.000000000000000D+00 -.264148188912606D+03
 0.229205112259820D+03 0.388167050465180D+02 0.187886258263385D+03 -.100995470766264D+02
 0.205301660274414D+03 -.554838016049127D+02 -.153167839504190D+03 0.956175530859555D+02
 0.937896052909774D+02 0.166670965583947D+02 -.347184187591951D+02 -.855180060093291D+02
 0.000000000000000D+00 -.000000000000000D+00 0.000000000000000D+00 -.000000000000000D+00
 0.414354342044797D+03 0.000000000000000D+00 0.000000000000000D+00 0.414354342044797D+03
 0.450949956372577D+03 0.000000000000000D+00 0.000000000000000D+00 -.450949956372577D+03
 0.166980911270114D+03 0.570144179681374D+02 0.943662016889474D+02 -.100995470766264D+02
 0.301843573723302D+03 -.321894832046054D+02 -.272879914534872D+03 0.956175530859555D+02
 0.124324858290942D+03 0.266855832201709D+02 -.862045282189425D+02 -.855180060093291D+02
 0.272154955133016D+03 -.515105179837029D+02 0.264718241064867D+03 -.365956143277803D+02
0.215447537651D-02 0.000000000000D+00 0.000000000000D+00 0.111622343526D-04 0.000000000000D+00  6 2 -1 25 24 21 21 2 0.24858796D+00 0.66433705D-02 0.50438424D+05 0.50438424D+05 0.50438424D+05 0.11919064D+01  1  2  2  1  6  1        2 0.473222684019D+00 0.100000000000D+01
0.282585775737D-03 0.113694789206D-03 -.827375273218D-05 0.111622343526D-04 0.000000000000D+00  6 2 -1 25 24 21 21 4 0.24858796D+00 0.66433705D-02 0.50438424D+05 0.50438424D+05 0.50438424D+05 0.11919064D+01  1  2  3  1  6  1        2 0.881776771630D-01 0.100000000000D+01
0.245688423567D-04 0.000000000000D+00 0.000000000000D+00 0.111622343526D-04 0.000000000000D+00  6 2 -1 25 24 21 21 4 0.24858796D+00 0.66433705D-02 0.50438424D+05 0.50438424D+05 0.50438424D+05 0.11919064D+01  1  2 15  1  6  1        2 0.766642780922D-02 0.100000000000D+01
  </mgrwgt>
  </event>
  <event>
  5     66 -.42622971E-03 0.21572348E+02 0.75467711E-02 0.12037239E+00
        2 -1    0    0  502    0 0.00000000E+00 0.00000000E+00 0.16034988E+04 0.16034988E+04 0.32000000E+00 0.0000E+00 0.9000E+01
       -1 -1    0    0    0  501 0.00000000E+00 0.00000000E+00 -.18569050E+02 0.18571807E+02 0.32000000E+00 0.0000E+00 0.9000E+01
       25  1    1    2    0    0 0.61285658E+02 -.45894610E+02 0.37443243E+03 0.40210308E+03 0.12500000E+03 0.0000E+00 0.9000E+01
       24  1    1    2    0    0 -.75611928E+02 0.62017023E+02 0.92024946E+03 0.92891849E+03 0.80419002E+02 0.0000E+00 0.9000E+01
       21  1    1    2  502  501 0.14326269E+02 -.16122413E+02 0.29024787E+03 0.29104908E+03 0.75000000E+00 0.0000E+00 0.9000E+01
#aMCatNLO 1  0  0  5  1 0.16013842D+01 0.00000000D+00  -5  6  0 0.00000000D+00 0.00000000D+00 0.00000000D+00 0.00000000D+00 0.00000000D+00
  <mgrwgt>
 -.1957830885D+01   20    2    0
 0.172562194140930D+03 0.000000000000000D+00 0.000000000000000D+00 0.172562194140930D+03
 0.172562194140930D+03 -.000000000000000D+00 -.000000000000000D+00 -.172562194140930D+03
 0.170346379193086D+03 0.612840342393011D+02 -.458927826655994D+02 -.867813836646952D+02
 0.139777903766928D+03 -.756132602582136D+02 0.620185227370167D+02 0.592197951511821D+02
 0.350001053218445D+02 0.143292260189125D+02 -.161257400714172D+02 0.275615885135131D+02
 0.000000000000000D+00 0.000000000000000D+00 0.000000000000000D+00 0.000000000000000D+00
 0.172562194140930D+03 0.000000000000000D+00 0.000000000000000D+00 0.172562194140930D+03
 0.172562194140930D+03 -.000000000000000D+00 -.000000000000000D+00 -.172562194140930D+03
 0.170319852282227D+03 0.613681157242749D+02 -.459874057924673D+02 -.866196569051764D+02
 0.139762455620752D+03 -.755442655462176D+02 0.619408778739597D+02 0.593525032164421D+02
 0.314358486547147D+02 0.118484389099997D+02 -.156958399860847D+02 0.245248380865065D+02
 0.360623172416647D+01 0.232771091194300D+01 -.257632095407748D+00 0.274231560222780D+01
0.796614030236D-04 0.000000000000D+00 0.000000000000D+00 0.338949978435D-04 0.000000000000D+00  6 2 -1 25 24 21 21 2 0.24669234D+00 0.28569914D-02 0.21722263D+05 0.21722263D+05 0.21722263D+05 0.12298960D+01  1  2  2  3  6  5       21 0.660555256524D-01 0.100000000000D+01
0.140994288423D-04 0.420384773175D-05 -.305920762940D-06 0.338949978435D-04 0.000000000000D+00  6 2 -1 25 24 21 21 4 0.24669234D+00 0.28569914D-02 0.21722263D+05 0.21722263D+05 0.21722263D+05 0.12298960D+01  1  2  3  3  6  5       21 0.176847721657D-01 0.100000000000D+01
0.249013253871D-05 0.000000000000D+00 0.000000000000D+00 0.338949978435D-04 0.000000000000D+00  6 2 -1 25 24 21 21 4 0.24669234D+00 0.28569914D-02 0.21722263D+05 0.21722263D+05 0.21722263D+05 0.12298960D+01  1  2 15  3  6  5       21 0.312334826481D-02 0.100000000000D+01
0.181326334782D-07 0.000000000000D+00 0.000000000000D+00 0.338875508906D-04 0.000000000000D+00  6 2 -1 25 24 21 21 4 0.24669234D+00 0.28569914D-02 0.21784358D+05 0.21784358D+05 0.21784358D+05 0.12297608D+01  1  2 12  3  6  5       21 0.227343116114D-04 0.100000000000D+01
0.191120769207D-07 0.000000000000D+00 0.000000000000D+00 0.338875508906D-04 0.000000000000D+00  6 2 -1 25 24 21 21 4 0.24669234D+00 0.28569914D-02 0.21784358D+05 0.21784358D+05 0.21784358D+05 0.12297608D+01  1  2 12  3  6  5       21 0.239623170445D-04 0.100000000000D+01
-.195875017670D-02 0.000000000000D+00 0.000000000000D+00 0.338949978435D-04 0.000000000000D+00  6 2 -1 25 24 21 21 4 0.24669234D+00 0.28569914D-02 0.21722263D+05 0.21722263D+05 0.21722263D+05 0.12298960D+01  1  2  4  3  6  5       21 -.245684069844D+01 0.100000000000D+01
-.185483866383D-02 0.000000000000D+00 0.000000000000D+00 0.338949978435D-04 0.000000000000D+00  6 2 -1 25 24 21 21 4 0.24669234D+00 0.28569914D-02 0.21722263D+05 0.21722263D+05 0.21722263D+05 0.12298960D+01  1  2  5  3  6  5       21 -.232650553018D+01 0.100000000000D+01
0.225281048597D-02 0.000000000000D+00 -.000000000000D+00 0.338949978435D-04 0.000000000000D+00  6 2 -1 25 24 21 21 4 0.24669234D+00 0.28569914D-02 0.21722263D+05 0.21722263D+05 0.21722263D+05 0.12298960D+01  1  2  6  3  6  5       21 0.282567759464D+01 0.100000000000D+01
0.213550065007D-08 0.000000000000D+00 0.000000000000D+00 0.338875508906D-04 0.000000000000D+00  6 2 -1 25 24 1 -1 4 0.24669234D+00 0.28569914D-02 0.21784358D+05 0.21784358D+05 0.21784358D+05 0.12297608D+01  1  2 12  6  6  5       21 0.267744546226D-05 0.100000000000D+01
0.217410394132D-08 0.000000000000D+00 0.000000000000D+00 0.338875508906D-04 0.000000000000D+00  6 2 -1 25 24 1 -1 4 0.24669234D+00 0.28569914D-02 0.21784358D+05 0.21784358D+05 0.21784358D+05 0.12297608D+01  1  2 12  6  6  5       21 0.272584545079D-05 0.100000000000D+01
-.173592648414D-04 0.000000000000D+00 0.000000000000D+00 0.338949978435D-04 0.000000000000D+00  6 2 -1 25 24 1 -1 4 0.24669234D+00 0.28569914D-02 0.21722263D+05 0.21722263D+05 0.21722263D+05 0.12298960D+01  1  2  5  6  6  5       21 -.217735517600D-01 0.100000000000D+01
0.213550065007D-08 0.000000000000D+00 0.000000000000D+00 0.338875508906D-04 0.000000000000D+00  6 2 -1 25 24 2 -2 4 0.24669234D+00 0.28569914D-02 0.21784358D+05 0.21784358D+05 0.21784358D+05 0.12297608D+01  1  2 12  7  6  5       21 0.267744546226D-05 0.100000000000D+01
0.217410394132D-08 0.000000000000D+00 0.000000000000D+00 0.338875508906D-04 0.000000000000D+00  6 2 -1 25 24 2 -2 4 0.24669234D+00 0.28569914D-02 0.21784358D+05 0.21784358D+05 0.21784358D+05 0.12297608D+01  1  2 12  7  6  5       21 0.272584545079D-05 0.100000000000D+01
-.173592648414D-04 0.000000000000D+00 0.000000000000D+00 0.338949978435D-04 0.000000000000D+00  6 2 -1 25 24 2 -2 4 0.24669234D+00 0.28569914D-02 0.21722263D+05 0.21722263D+05 0.21722263D+05 0.12298960D+01  1  2  5  7  6  5       21 -.217735517600D-01 0.100000000000D+01
0.213550065007D-08 0.000000000000D+00 0.000000000000D+00 0.338875508906D-04 0.000000000000D+00  6 2 -1 25 24 3 -3 4 0.24669234D+00 0.28569914D-02 0.21784358D+05 0.21784358D+05 0.21784358D+05 0.12297608D+01  1  2 12  8  6  5       21 0.267744546226D-05 0.100000000000D+01
0.213550065007D-08 0.000000000000D+00 0.000000000000D+00 0.338875508906D-04 0.000000000000D+00  6 2 -1 25 24 4 -4 4 0.24669234D+00 0.28569914D-02 0.21784358D+05 0.21784358D+05 0.21784358D+05 0.12297608D+01  1  2 12  8  6  5       21 0.267744546226D-05 0.100000000000D+01
0.217410394132D-08 0.000000000000D+00 0.000000000000D+00 0.338875508906D-04 0.000000000000D+00  6 2 -1 25 24 3 -3 4 0.24669234D+00 0.28569914D-02 0.21784358D+05 0.21784358D+05 0.21784358D+05 0.12297608D+01  1  2 12  8  6  5       21 0.272584545079D-05 0.100000000000D+01
0.217410394132D-08 0.000000000000D+00 0.000000000000D+00 0.338875508906D-04 0.000000000000D+00  6 2 -1 25 24 4 -4 4 0.24669234D+00 0.28569914D-02 0.21784358D+05 0.21784358D+05 0.21784358D+05 0.12297608D+01  1  2 12  8  6  5       21 0.272584545079D-05 0.100000000000D+01
-.173592648414D-04 0.000000000000D+00 0.000000000000D+00 0.338949978435D-04 0.000000000000D+00  6 2 -1 25 24 3 -3 4 0.24669234D+00 0.28569914D-02 0.21722263D+05 0.21722263D+05 0.21722263D+05 0.12298960D+01  1  2  5  8  6  5       21 -.217735517600D-01 0.100000000000D+01
-.173592648414D-04 0.000000000000D+00 0.000000000000D+00 0.338949978435D-04 0.000000000000D+00  6 2 -1 25 24 4 -4 4 0.24669234D+00 0.28569914D-02 0.21722263D+05 0.21722263D+05 0.21722263D+05 0.12298960D+01  1  2  5  8  6  5       21 -.217735517600D-01 0.100000000000D+01
  </mgrwgt>
  </event>
  <event>
  5     66 -.42622971E-03 0.20209167E+02 0.75467711E-02 0.12451745E+00
        2 -1    0    0  502    0 0.00000000E+00 0.00000000E+00 0.82859601E+03 0.82859607E+03 0.32000000E+00 0.0000E+00 0.9000E+01
       -1 -1    0    0    0  501 0.00000000E+00 0.00000000E+00 -.26830848E+02 0.26832756E+02 0.32000000E+00 0.0000E+00 0.9000E+01
       25  1    1    2    0    0 0.22876253E+02 0.27861289E+02 0.30771324E+03 0.33408384E+03 0.12500000E+03 0.0000E+00 0.9000E+01
       24  1    1    2    0    0 -.34768246E+01 -.33521092E+02 0.12883164E+03 0.15556529E+03 0.80419002E+02 0.0000E+00 0.9000E+01
       21  1    1    2  502  501 -.19399429E+02 0.56598024E+01 0.36522028E+03 0.36577969E+03 0.75000000E+00 0.0000E+00 0.9000E+01
#aMCatNLO 1  0  0  5  2 0.36507934D+01 0.00000000D+00  -5  6  0 0.00000000D+00 0.00000000D+00 0.00000000D+00 0.00000000D+00 0.00000000D+00
  <mgrwgt>
 -.1106909153D+01   15    2    0
 0.149106593788747D+03 0.000000000000000D+00 0.000000000000000D+00 0.149106593788747D+03
 0.149106593788747D+03 -.000000000000000D+00 -.000000000000000D+00 -.149106593788747D+03
 0.131017921762944D+03 0.228767821153542D+02 0.278611350758759D+02 -.155275824071641D+02
 0.998698761008839D+02 -.347642147819457D+01 -.335212093730013D+02 -.486931125921596D+02
 0.673253897136659D+02 -.194003606371597D+02 0.566007429712547D+01 0.642206949993237D+02
 0.000000000000000D+00 0.000000000000000D+00 0.000000000000000D+00 0.000000000000000D+00
 0.149106593788747D+03 0.000000000000000D+00 0.000000000000000D+00 0.149106593788747D+03
 0.149106593788747D+03 -.000000000000000D+00 -.000000000000000D+00 -.149106593788747D+03
 0.130905215044401D+03 0.226489192084920D+02 0.279276143030676D+02 -.147732915711869D+02
 0.995802719865489D+02 -.364993532302433D+01 -.334705865381126D+02 -.481187325630776D+02
 0.629380278109868D+02 -.151842507654690D+02 0.336189990892374D+01 0.609863222569641D+02
 0.478967273555641D+01 -.381473311999856D+01 0.218107232612128D+01 0.190570187730042D+01
0.967780542065D-04 0.000000000000D+00 0.000000000000D+00 0.698647085364D-04 0.000000000000D+00  6 2 -1 25 24 21 21 2 0.12747646D+00 0.41279743D-02 0.14101413D+05 0.14101413D+05 0.14101413D+05 0.12508927D+01  1  2  2  3  6  5       21 0.131053472325D+00 0.100000000000D+01
0.142249320681D-04 0.510711823063D-05 -.371653210400D-06 0.698647085364D-04 0.000000000000D+00  6 2 -1 25 24 21 21 4 0.12747646D+00 0.41279743D-02 0.14101413D+05 0.14101413D+05 0.14101413D+05 0.12508927D+01  1  2  3  3  6  5       21 0.301412976220D-01 0.100000000000D+01
0.271915997119D-05 0.000000000000D+00 0.000000000000D+00 0.698647085364D-04 0.000000000000D+00  6 2 -1 25 24 21 21 4 0.12747646D+00 0.41279743D-02 0.14101413D+05 0.14101413D+05 0.14101413D+05 0.12508927D+01  1  2 15  3  6  5       21 0.576164508773D-02 0.100000000000D+01
0.675235989035D-05 0.000000000000D+00 0.000000000000D+00 0.698788428819D-04 0.000000000000D+00  6 2 -1 25 24 21 21 4 0.12747646D+00 0.41279743D-02 0.14065699D+05 0.14065699D+05 0.14065699D+05 0.12510192D+01  1  2 12  3  6  5       21 0.143123579293D-01 0.100000000000D+01
-.667704393083D-03 0.000000000000D+00 0.000000000000D+00 0.698647085364D-04 0.000000000000D+00  6 2 -1 25 24 21 21 4 0.12747646D+00 0.41279743D-02 0.14101413D+05 0.14101413D+05 0.14101413D+05 0.12508927D+01  1  2  4  3  6  5       21 -.141480301903D+01 0.100000000000D+01
-.109248820162D-02 0.000000000000D+00 0.000000000000D+00 0.698647085364D-04 0.000000000000D+00  6 2 -1 25 24 21 21 4 0.12747646D+00 0.41279743D-02 0.14101413D+05 0.14101413D+05 0.14101413D+05 0.12508927D+01  1  2  5  3  6  5       21 -.231488009053D+01 0.100000000000D+01
0.117290507192D-02 0.000000000000D+00 -.000000000000D+00 0.698647085364D-04 0.000000000000D+00  6 2 -1 25 24 21 21 4 0.12747646D+00 0.41279743D-02 0.14101413D+05 0.14101413D+05 0.14101413D+05 0.12508927D+01  1  2  6  3  6  5       21 0.248527590050D+01 0.100000000000D+01
0.178232944562D-06 0.000000000000D+00 0.000000000000D+00 0.698788428819D-04 0.000000000000D+00  6 2 -1 25 24 1 -1 4 0.12747646D+00 0.41279743D-02 0.14065699D+05 0.14065699D+05 0.14065699D+05 0.12510192D+01  1  2 12  6  6  5       21 0.377784024959D-03 0.100000000000D+01
-.534259753841D-05 0.000000000000D+00 0.000000000000D+00 0.698647085364D-04 0.000000000000D+00  6 2 -1 25 24 1 -1 4 0.12747646D+00 0.41279743D-02 0.14101413D+05 0.14101413D+05 0.14101413D+05 0.12508927D+01  1  2  5  6  6  5       21 -.113204633744D-01 0.100000000000D+01
0.178232944562D-06 0.000000000000D+00 0.000000000000D+00 0.698788428819D-04 0.000000000000D+00  6 2 -1 25 24 2 -2 4 0.12747646D+00 0.41279743D-02 0.14065699D+05 0.14065699D+05 0.14065699D+05 0.12510192D+01  1  2 12  7  6  5       21 0.377784024959D-03 0.100000000000D+01
-.534259753841D-05 0.000000000000D+00 0.000000000000D+00 0.698647085364D-04 0.000000000000D+00  6 2 -1 25 24 2 -2 4 0.12747646D+00 0.41279743D-02 0.14101413D+05 0.14101413D+05 0.14101413D+05 0.12508927D+01  1  2  5  7  6  5       21 -.113204633744D-01 0.100000000000D+01
0.178232944562D-06 0.000000000000D+00 0.000000000000D+00 0.698788428819D-04 0.000000000000D+00  6 2 -1 25 24 3 -3 4 0.12747646D+00 0.41279743D-02 0.14065699D+05 0.14065699D+05 0.14065699D+05 0.12510192D+01  1  2 12  8  6  5       21 0.377784024959D-03 0.100000000000D+01
0.178232944562D-06 0.000000000000D+00 0.000000000000D+00 0.698788428819D-04 0.000000000000D+00  6 2 -1 25 24 4 -4 4 0.12747646D+00 0.41279743D-02 0.14065699D+05 0.14065699D+05 0.14065699D+05 0.12510192D+01  1  2 12  8  6  5       21 0.377784024959D-03 0.100000000000D+01
-.534259753841D-05 0.000000000000D+00 0.000000000000D+00 0.698647085364D-04 0.000000000000D+00  6 2 -1 25 24 3 -3 4 0.12747646D+00 0.41279743D-02 0.14101413D+05 0.14101413D+05 0.14101413D+05 0.12508927D+01  1  2  5  8  6  5       21 -.113204633744D-01 0.100000000000D+01
-.534259753841D-05 0.000000000000D+00 0.000000000000D+00 0.698647085364D-04 0.000000000000D+00  6 2 -1 25 24 4 -4 4 0.12747646D+00 0.41279743D-02 0.14101413D+05 0.14101413D+05 0.14101413D+05 0.12508927D+01  1  2  5  8  6  5       21 -.113204633744D-01 0.100000000000D+01
  </mgrwgt>
  </event>
  <event>
  6     66 -.42622971E-03 0.35023908E+02 0.75467711E-02 0.10499735E+00
        2 -1    0    0  502    0 0.00000000E+00 0.00000000E+00 0.46964569E+03 0.46964580E+03 0.32000000E+00 0.0000E+00 0.9000E+01
       -1 -1    0    0    0  501 0.00000000E+00 0.00000000E+00 -.33612969E+03 0.33612984E+03 0.32000000E+00 0.0000E+00 0.9000E+01
       25  1    1    2    0    0 -.12014025E+03 0.31744791E+03 0.97399484E+02 0.37459113E+03 0.12500000E+03 0.0000E+00 0.9000E+01
       24  1    1    2    0    0 0.16007844E+03 -.31592328E+03 -.15342684E+02 0.36350411E+03 0.80419002E+02 0.0000E+00 0.9000E+01
        2  1    1    2  502    0 -.10458650E+02 0.17381556E+01 0.32794796E+01 0.11102339E+02 0.32000000E+00 0.0000E+00 0.9000E+01
       -2  1    1    2    0  501 -.29479545E+02 -.32627908E+01 0.48179721E+02 0.56578064E+02 0.32000000E+00 0.0000E+00 0.9000E+01
#aMCatNLO 2  0  0  5  2 0.64875607D+01 0.00000000D+00  -5  6  0 0.00000000D+00 0.00000000D+00 0.00000000D+00 0.00000000D+00 0.00000000D+00
  <mgrwgt>
 -.9172342696D-02    3    2    0
 0.397318471373197D+03 0.000000000000000D+00 0.000000000000000D+00 0.397318471373197D+03
 0.397318471373197D+03 -.000000000000000D+00 -.000000000000000D+00 -.397318471373197D+03
 0.363114151199357D+03 -.119223582613326D+03 0.317482906485381D+03 0.348887981975279D+02
 0.371750851319220D+03 0.161015720909143D+03 -.315887497283857D+03 -.775919208554881D+02
 0.597719402278178D+02 -.417921382958174D+02 -.159540920152418D+01 0.427031226579601D+02
 0.000000000000000D+00 0.000000000000000D+00 0.000000000000000D+00 0.000000000000000D+00
 0.397318471373197D+03 0.000000000000000D+00 0.000000000000000D+00 0.397318471373197D+03
 0.397318471373197D+03 -.000000000000000D+00 -.000000000000000D+00 -.397318471373197D+03
 0.363461056906443D+03 -.120100897440968D+03 0.317449415111029D+03 0.357852367197514D+02
 0.371201882923257D+03 0.160118630776261D+03 -.315921743577800D+03 -.766752759662378D+02
 0.102484670410581D+02 -.100187195322944D+02 0.167344888032859D+01 0.136231584803333D+01
 0.497255358756365D+02 -.299990138029987D+02 -.320112041355706D+01 0.395277233984531D+02
-.137910294707D-03 0.000000000000D+00 0.000000000000D+00 0.781690968219D-05 0.000000000000D+00  6 2 -1 25 24 2 -2 4 0.72253204D-01 0.51712281D-01 0.14638984D+06 0.14638984D+06 0.14638984D+06 0.11486669D+01  1  2 13  7  6  5       21 -.703461539940D-02 0.100000000000D+01
-.142556230005D-03 0.000000000000D+00 0.000000000000D+00 0.781690968219D-05 0.000000000000D+00  6 2 -1 25 24 2 -2 4 0.72253204D-01 0.51712281D-01 0.14638984D+06 0.14638984D+06 0.14638984D+06 0.11486669D+01  1  2 13  7  6  5       21 -.727159820085D-02 0.100000000000D+01
0.100647101396D-03 0.000000000000D+00 0.000000000000D+00 0.781472841817D-05 0.876425695151D-08  6 2 -1 25 24 2 -2 4 0.72253204D-01 0.51712281D-01 0.14638984D+06 0.14638984D+06 0.14638984D+06 0.11486669D+01  1  2  1  7  6  5       21 0.513387090420D-02 0.100000000000D+01
  </mgrwgt>
  </event>
  <event>
  6     66 0.42622971E-03 0.21343557E+02 0.75467711E-02 0.11868762E+00
        2 -1    0    0  503    0 0.00000000E+00 0.00000000E+00 0.82879252E+03 0.82879258E+03 0.32000000E+00 0.0000E+00 0.9000E+01
       -1 -1    0    0    0  501 0.00000000E+00 0.00000000E+00 -.51258621E+02 0.51259620E+02 0.32000000E+00 0.0000E+00 0.9000E+01
       25  1    1    2    0    0 0.55190580E+02 0.50479472E+02 0.19132698E+03 0.24046869E+03 0.12500000E+03 0.0000E+00 0.9000E+01
       24  1    1    2    0    0 -.92938599E+02 -.62595561E+02 0.16470306E+03 0.21482575E+03 0.80419002E+02 0.0000E+00 0.9000E+01
       21  1    1    2  502  501 0.26222993E+02 0.80931865E+01 0.12400663E+03 0.12700926E+03 0.75000000E+00 0.0000E+00 0.9000E+01
       21  1    1    2  503  502 0.11525026E+02 0.40229026E+01 0.29749722E+03 0.29774850E+03 0.75000000E+00 0.0000E+00 0.9000E+01
#aMCatNLO 2  0  0  1  5 0.12206964D+02 0.00000000D+00  -5  6  0 0.00000000D+00 0.00000000D+00 0.00000000D+00 0.00000000D+00 0.00000000D+00
  <mgrwgt>
 0.1838663646D+00    2    2    0
 0.164691664877668D+03 0.000000000000000D+00 0.000000000000000D+00 0.164691664877668D+03
 0.164691664877668D+03 0.000000000000000D+00 0.000000000000000D+00 -.164691664877668D+03
 0.148825828770693D+03 0.603481235552830D+02 0.522798211130175D+02 -.122086689295259D+02
 0.135732134703296D+03 -.881240925052704D+02 -.609149581110007D+02 -.218976856128823D+02
 0.448253662813484D+02 0.277759689499874D+02 0.863513699798324D+01 0.341063545424081D+02
 0.000000000000000D+00 0.000000000000000D+00 0.000000000000000D+00 0.000000000000000D+00
 0.257145002998539D+03 0.000000000000000D+00 0.000000000000000D+00 0.257145002998539D+03
 0.165208150019200D+03 0.000000000000000D+00 0.000000000000000D+00 -.165208150019200D+03
 0.146177916480089D+03 0.551888471455931D+02 0.504789344199092D+02 -.122086689295259D+02
 0.139652730390725D+03 -.929402572521195D+02 -.625960789340928D+02 -.218976856128823D+02
 0.437788006491625D+02 0.262263839172407D+02 0.809424194919851D+01 0.341063545424081D+02
 0.927437054977626D+02 0.115250261892857D+02 0.402290256498504D+01 0.919368529793392D+02
-.590681195405D-03 0.000000000000D+00 0.000000000000D+00 0.242505506553D-04 0.000000000000D+00  6 2 -1 25 24 21 21 4 0.13204856D+00 0.78612975D-02 0.26122068D+05 0.26122068D+05 0.26122068D+05 0.12212586D+01  1  2 13  1  6  1        2 -.422330173644D+00 0.100000000000D+01
0.814541738984D-03 0.000000000000D+00 0.000000000000D+00 0.243891350269D-04 0.108128979931D-05  6 2 -1 25 24 21 21 4 0.12750546D+00 0.78859511D-02 0.26122068D+05 0.26122068D+05 0.26122068D+05 0.12212586D+01  1  2  1  1  6  1        2 0.606196538289D+00 0.100000000000D+01
  </mgrwgt>
  </event>
  <event>
  5     66 0.42622971E-03 0.47087400E+02 0.75467711E-02 0.10518237E+00
        2 -1    0    0  502    0 0.00000000E+00 0.00000000E+00 0.40013164E+03 0.40013176E+03 0.32000000E+00 0.0000E+00 0.9000E+01
       -1 -1    0    0    0  501 0.00000000E+00 0.00000000E+00 -.30571177E+03 0.30571194E+03 0.32000000E+00 0.0000E+00 0.9000E+01
       25  1    1    2    0    0 -.28092809E+03 -.14672375E+02 -.89881115E+02 0.32068596E+03 0.12500000E+03 0.0000E+00 0.9000E+01
       24  1    1    2    0    0 0.23581927E+03 0.11692326E+01 0.65884648E+02 0.25772097E+03 0.80419002E+02 0.0000E+00 0.9000E+01
       21  1    1    2  502  501 0.45108822E+02 0.13503143E+02 0.11841633E+03 0.12743677E+03 0.75000000E+00 0.0000E+00 0.9000E+01
#aMCatNLO 1  0  0  2  5 0.10423272D+01 0.00000000D+00  -5  6  0 0.00000000D+00 0.00000000D+00 0.00000000D+00 0.00000000D+00 0.00000000D+00
  <mgrwgt>
 0.5579323518D+00    7    4    0
 0.349749989421940D+03 0.000000000000000D+00 0.000000000000000D+00 0.349749989421940D+03
 0.349749989421940D+03 0.000000000000000D+00 0.000000000000000D+00 -.349749989421940D+03
 0.335727412905398D+03 -.280928571322508D+03 -.146725188756676D+02 -.133984143765931D+03
 0.251164546060418D+03 0.235818909899753D+03 0.116912501285898D+01 0.316936606241994D+02
 0.112608019878065D+03 0.451096614227551D+02 0.135033938628087D+02 0.102290483141732D+03
 0.000000000000000D+00 -.000000000000000D+00 0.000000000000000D+00 -.000000000000000D+00
 0.405175513572402D+03 0.000000000000000D+00 0.000000000000000D+00 0.405175513572402D+03
 0.446234287666167D+03 0.000000000000000D+00 0.000000000000000D+00 -.446234287666167D+03
 0.294353398716487D+03 -.226943453843081D+03 -.395454335294356D+02 -.133984143765931D+03
 0.296354575291023D+03 0.282730168810027D+03 -.204446047270222D+02 0.316936606241994D+02
 0.121353976274087D+03 0.651554485900917D+02 0.426756783036972D+01 0.102290483141732D+03
 0.139347850956971D+03 -.120942163557037D+03 0.557224704260881D+02 -.410587740937654D+02
 0.349749989421940D+03 0.000000000000000D+00 0.000000000000000D+00 0.349749989421940D+03
 0.349749989421940D+03 0.000000000000000D+00 0.000000000000000D+00 -.349749989421940D+03
 0.335727412905398D+03 -.280928571322508D+03 -.146725188756676D+02 -.133984143765931D+03
 0.251164546060418D+03 0.235818909899753D+03 0.116912501285898D+01 0.316936606241994D+02
 0.000000000000000D+00 -.000000000000000D+00 0.000000000000000D+00 -.000000000000000D+00
 0.112608019878065D+03 0.451096614227551D+02 0.135033938628087D+02 0.102290483141732D+03
 0.405175513572402D+03 0.000000000000000D+00 0.000000000000000D+00 0.405175513572402D+03
 0.446234287666167D+03 0.000000000000000D+00 0.000000000000000D+00 -.446234287666167D+03
 0.294353398716487D+03 -.226943453843081D+03 -.395454335294356D+02 -.133984143765931D+03
 0.296354575291023D+03 0.282730168810027D+03 -.204446047270222D+02 0.316936606241994D+02
 0.139347850956971D+03 -.120942163557037D+03 0.557224704260881D+02 -.410587740937654D+02
 0.121353976274087D+03 0.651554485900917D+02 0.426756783036972D+01 0.102290483141732D+03
0.522644154367D-02 0.000000000000D+00 0.000000000000D+00 0.647159047528D-05 0.000000000000D+00  6 2 -1 25 24 21 21 2 0.61558736D-01 0.47032603D-01 0.91227329D+05 0.91227329D+05 0.91227329D+05 0.11672525D+01  1  2  2  2  6  2       -1 0.298981454051D+00 0.100000000000D+01
0.792137833958D-03 0.275806897626D-03 -.200709116814D-04 0.647159047528D-05 0.000000000000D+00  6 2 -1 25 24 21 21 4 0.61558736D-01 0.47032603D-01 0.91227329D+05 0.91227329D+05 0.91227329D+05 0.11672525D+01  1  2  3  2  6  2       -1 0.617402751326D-01 0.100000000000D+01
0.896190061221D-04 0.000000000000D+00 0.000000000000D+00 0.647159047528D-05 0.000000000000D+00  6 2 -1 25 24 21 21 4 0.61558736D-01 0.47032603D-01 0.91227329D+05 0.91227329D+05 0.91227329D+05 0.11672525D+01  1  2 15  2  6  2       -1 0.698502439587D-02 0.100000000000D+01
-.181367912128D-02 0.000000000000D+00 0.000000000000D+00 0.647159047528D-05 0.000000000000D+00  6 2 -1 25 24 21 21 4 0.61558736D-01 0.47032603D-01 0.91227329D+05 0.91227329D+05 0.91227329D+05 0.11672525D+01  1  2  4  2  6  2       -1 -.141360560182D+00 0.100000000000D+01
-.883289074577D-02 0.000000000000D+00 -.391114674058D-02 0.647159047528D-05 0.000000000000D+00  6 2 -1 25 24 21 21 4 0.61558736D-01 0.68099968D-01 0.91227329D+05 0.91227329D+05 0.91227329D+05 0.11672525D+01  1  2  5  2  6  2       -1 -.339298779221D+00 0.100000000000D+01
0.985141061561D-02 0.000000000000D+00 0.365771860084D-02 0.647159047528D-05 0.000000000000D+00  6 2 -1 25 24 21 21 4 0.61558736D-01 0.47032603D-01 0.91227329D+05 0.91227329D+05 0.91227329D+05 0.11672525D+01  1  2  6  2  6  2       -1 0.767832030964D+00 0.100000000000D+01
-.277447853640D-03 0.000000000000D+00 -.175930289594D-03 0.647159047528D-05 0.000000000000D+00  6 2 21 25 24 1 21 4 0.61558736D-01 0.68099968D-01 0.91227329D+05 0.91227329D+05 0.91227329D+05 0.11672525D+01  3  4  5  5  5  2       -1 -.969470932940D-01 0.100000000000D+01
  </mgrwgt>
  </event>
  <event>
  6     66 -.42622971E-03 0.32774466E+02 0.75467711E-02 0.11975703E+00
        2 -1    0    0  502    0 0.00000000E+00 0.00000000E+00 0.10703177E+03 0.10703225E+03 0.32000000E+00 0.0000E+00 0.9000E+01
       21 -1    0    0  503  501 0.00000000E+00 0.00000000E+00 -.26325742E+03 0.26325849E+03 0.75000000E+00 0.0000E+00 0.9000E+01
       25  1    1    2    0    0 0.48260627E+02 0.57681543E+02 -.15945335E+02 0.14674979E+03 0.12500000E+03 0.0000E+00 0.9000E+01
       24  1    1    2    0    0 -.29356804E+02 -.88117337E+02 -.63958684E+02 0.13850782E+03 0.80419002E+02 0.0000E+00 0.9000E+01
        1  1    1    2  503    0 -.31349389E+01 0.81407595E+01 -.30118274E+02 0.31357816E+02 0.32000000E+00 0.0000E+00 0.9000E+01
       21  1    1    2  502  501 -.15768884E+02 0.22295034E+02 -.46203358E+02 0.53675312E+02 0.75000000E+00 0.0000E+00 0.9000E+01
#aMCatNLO 2  0  0  2  5 0.87235203D+01 0.00000000D+00  -5  6  0 0.00000000D+00 0.00000000D+00 0.00000000D+00 0.00000000D+00 0.00000000D+00
  <mgrwgt>
 -.9410179685D-01    2    2    0
 0.157238956673077D+03 0.000000000000000D+00 0.000000000000000D+00 0.157238956673077D+03
 0.157238956673077D+03 0.000000000000000D+00 0.000000000000000D+00 -.157238956673077D+03
 0.152779814435770D+03 0.467446162937807D+02 0.616198841367066D+02 0.416485585051201D+02
 0.121643146729474D+03 -.305777658084593D+02 -.849454979438803D+02 -.133828924043742D+02
 0.000000000000000D+00 -.000000000000000D+00 0.000000000000000D+00 -.000000000000000D+00
 0.400549521809103D+02 -.161668504853214D+02 0.233256138071738D+02 -.282656661007459D+02
 0.158214415069086D+03 0.000000000000000D+00 0.000000000000000D+00 0.158214415069086D+03
 0.178092350482106D+03 0.000000000000000D+00 0.000000000000000D+00 -.178092350482106D+03
 0.151709439524140D+03 0.482620068975203D+02 0.576795484153435D+02 0.416485585051201D+02
 0.123584067403708D+03 -.293557014312517D+02 -.881189352298693D+02 -.133828924043742D+02
 0.217078815903495D+02 -.313493894727041D+01 0.814075946416090D+01 -.198779354130200D+02
 0.393053770329948D+02 -.157713665189982D+02 0.222986273503648D+02 -.282656661007459D+02
-.222150130297D-04 0.000000000000D+00 0.000000000000D+00 0.253964803083D-04 0.000000000000D+00  6 2 21 25 24 1 21 4 0.16364901D-01 0.43416482D-01 0.23221767D+05 0.23221767D+05 0.23221767D+05 0.12267482D+01  1  2 13  5  5  2       -1 -.110220353835D+00 0.100000000000D+01
0.284321178097D-05 0.000000000000D+00 0.000000000000D+00 0.255069225460D-04 0.768262847081D-07  6 2 21 25 24 1 21 4 0.16466423D-01 0.40500961D-01 0.23221767D+05 0.23221767D+05 0.23221767D+05 0.12267482D+01  1  2  1  5  5  2       -1 0.161185569877D-01 0.100000000000D+01
  </mgrwgt>
  </event>
  <event>
  5     66 0.42622971E-03 0.29096717E+02 0.75467711E-02 0.10635371E+00
        2 -1    0    0  502    0 0.00000000E+00 0.00000000E+00 0.69065130E+03 0.69065137E+03 0.32000000E+00 0.0000E+00 0.9000E+01
       -1 -1    0    0    0  501 0.00000000E+00 0.00000000E+00 -.62253587E+02 0.62254409E+02 0.32000000E+00 0.0000E+00 0.9000E+01
       25  1    1    2    0    0 -.91661441E+02 0.93631443E+02 0.40528550E+03 0.44390315E+03 0.12500000E+03 0.0000E+00 0.9000E+01
       24  1    1    2    0    0 0.11282754E+03 -.11358463E+03 0.16298301E+03 0.24220281E+03 0.80419002E+02 0.0000E+00 0.9000E+01
       21  1    1    2  502  501 -.21166101E+02 0.19953188E+02 0.60129201E+02 0.66799827E+02 0.75000000E+00 0.0000E+00 0.9000E+01
#aMCatNLO 1  0  0  2  1 0.24031511D+03 0.00000000D+00  -5  6  0 0.00000000D+00 0.00000000D+00 0.00000000D+00 0.00000000D+00 0.00000000D+00
  <mgrwgt>
 0.1696896898D+00    5    4    0
 0.207354426323885D+03 0.000000000000000D+00 0.000000000000000D+00 0.207354426323885D+03
 0.207354426323885D+03 0.000000000000000D+00 0.000000000000000D+00 -.207354426323885D+03
 0.191786192528833D+03 -.916584137794943D+02 0.936285894038044D+02 0.631614286917849D+02
 0.192760192666846D+03 0.112830584664070D+03 -.113587499834658D+03 -.711084732522428D+02
 0.301624674520904D+02 -.211721708845760D+02 0.199589104308532D+02 0.794704456045799D+01
 0.000000000000000D+00 -.000000000000000D+00 0.000000000000000D+00 -.000000000000000D+00
 0.264862553494798D+03 0.000000000000000D+00 0.000000000000000D+00 0.264862553494798D+03
 0.812372722172986D+03 0.000000000000000D+00 0.000000000000000D+00 -.812372722172986D+03
 0.148276076317643D+03 -.466154537696401D+02 0.140864546149395D+02 0.631614286917849D+02
 0.312279426727467D+03 0.179725625554478D+03 -.231718598635611D+03 -.711084732522428D+02
 0.187510654114934D+02 -.146933271357867D+02 0.851780925478814D+01 0.794704456045799D+01
 0.597928707211180D+03 -.118416844649052D+03 0.209114334765884D+03 -.547510168678188D+03
 0.207354426323885D+03 0.000000000000000D+00 0.000000000000000D+00 0.207354426323885D+03
 0.207354426323885D+03 0.000000000000000D+00 0.000000000000000D+00 -.207354426323885D+03
 0.191786192528833D+03 -.916584137794943D+02 0.936285894038044D+02 0.631614286917849D+02
 0.192760192666846D+03 0.112830584664070D+03 -.113587499834658D+03 -.711084732522428D+02
 0.000000000000000D+00 -.000000000000000D+00 0.000000000000000D+00 -.000000000000000D+00
 0.301624674520904D+02 -.211721708845760D+02 0.199589104308532D+02 0.794704456045799D+01
 0.264862553494798D+03 0.000000000000000D+00 0.000000000000000D+00 0.264862553494798D+03
 0.812372722172986D+03 0.000000000000000D+00 0.000000000000000D+00 -.812372722172986D+03
 0.148276076317643D+03 -.466154537696401D+02 0.140864546149395D+02 0.631614286917849D+02
 0.312279426727467D+03 0.179725625554478D+03 -.231718598635611D+03 -.711084732522428D+02
 0.597928707211180D+03 -.118416844649052D+03 0.209114334765884D+03 -.547510168678188D+03
 0.187510654114934D+02 -.146933271357867D+02 0.851780925478814D+01 0.794704456045799D+01
0.389207579821D-03 0.000000000000D+00 0.000000000000D+00 0.177211312970D-04 0.000000000000D+00  6 2 -1 25 24 21 21 2 0.10625411D+00 0.95775439D-02 0.37898136D+05 0.37898136D+05 0.37898136D+05 0.12043881D+01  1  2  2  2  6  2       -1 0.176708374586D+00 0.100000000000D+01
0.937782912082D-04 0.205390482657D-04 -.149465958722D-05 0.177211312970D-04 0.000000000000D+00  6 2 -1 25 24 21 21 4 0.10625411D+00 0.95775439D-02 0.37898136D+05 0.37898136D+05 0.37898136D+05 0.12043881D+01  1  2  3  2  6  2       -1 0.617605382451D-01 0.100000000000D+01
0.288526654743D-05 0.000000000000D+00 0.000000000000D+00 0.177211312970D-04 0.000000000000D+00  6 2 -1 25 24 21 21 4 0.10625411D+00 0.95775439D-02 0.37898136D+05 0.37898136D+05 0.37898136D+05 0.12043881D+01  1  2 15  2  6  2       -1 0.190017980339D-02 0.100000000000D+01
-.463796091325D-03 0.000000000000D+00 -.278839341057D-03 0.177211312970D-04 0.000000000000D+00  6 2 -1 25 24 21 21 4 0.10625411D+00 0.46433031D-01 0.37898136D+05 0.37898136D+05 0.37898136D+05 0.12043881D+01  1  2  5  2  6  2       -1 -.228101451817D-01 0.100000000000D+01
-.953455860254D-04 0.000000000000D+00 -.535421963952D-04 0.177211312970D-04 0.000000000000D+00  6 2 21 25 24 1 21 4 0.10625411D+00 0.46433031D-01 0.37898136D+05 0.37898136D+05 0.37898136D+05 0.12043881D+01  3  4  5  5  5  2       -1 -.478692576631D-01 0.100000000000D+01
  </mgrwgt>
  </event>
  <event>
  5     66 0.42622971E-03 0.25875816E+02 0.75467711E-02 0.11813157E+00
        2 -1    0    0  502    0 0.00000000E+00 0.00000000E+00 0.46751804E+03 0.46751815E+03 0.32000000E+00 0.0000E+00 0.9000E+01
       -1 -1    0    0    0  501 0.00000000E+00 0.00000000E+00 -.11305717E+03 0.11305762E+03 0.32000000E+00 0.0000E+00 0.9000E+01
       25  1    1    2    0    0 -.51924400E+02 -.81752741E+02 0.71083454E+02 0.17337102E+03 0.12500000E+03 0.0000E+00 0.9000E+01
       24  1    1    2    0    0 0.32141719E+02 0.98431745E+02 0.87919003E+01 0.13140172E+03 0.80419002E+02 0.0000E+00 0.9000E+01
       21  1    1    2  502  501 0.19782681E+02 -.16679004E+02 0.27458551E+03 0.27580303E+03 0.75000000E+00 0.0000E+00 0.9000E+01
#aMCatNLO 1  0  0  2  5 0.18432685D+02 0.00000000D+00  -5  6  0 0.00000000D+00 0.00000000D+00 0.00000000D+00 0.00000000D+00 0.00000000D+00
  <mgrwgt>
 0.8979724937D+00    9    4    0
 0.229905262291829D+03 0.000000000000000D+00 0.000000000000000D+00 0.229905262291829D+03
 0.229905262291829D+03 0.000000000000000D+00 0.000000000000000D+00 -.229905262291829D+03
 0.164108457040984D+03 -.519245066875158D+02 -.817526507949526D+02 -.438968719344471D+02
 0.159136130868612D+03 0.321416160444871D+02 0.984318320373442D+02 -.901952501702961D+02
 0.136565936674062D+03 0.197828906430287D+02 -.166791812423916D+02 0.134092122104743D+03
 0.000000000000000D+00 0.000000000000000D+00 0.000000000000000D+00 -.000000000000000D+00
 0.238080495947923D+03 0.000000000000000D+00 0.000000000000000D+00 0.238080495947923D+03
 0.240720059825433D+03 0.000000000000000D+00 0.000000000000000D+00 -.240720059825433D+03
 0.168043739145910D+03 -.565470567554185D+02 -.865401252183572D+02 -.438968719344471D+02
 0.155530326574392D+03 0.277624143685139D+02 0.938963882431864D+02 -.901952501702961D+02
 0.136605771286721D+03 0.159811698906762D+02 -.206165406218374D+02 0.134092122104743D+03
 0.186207187663326D+02 0.128034724962285D+02 0.132602775970083D+02 -.263956387750960D+01
 0.229905262291829D+03 0.000000000000000D+00 0.000000000000000D+00 0.229905262291829D+03
 0.229905262291829D+03 0.000000000000000D+00 0.000000000000000D+00 -.229905262291829D+03
 0.164108457040984D+03 -.519245066875158D+02 -.817526507949526D+02 -.438968719344471D+02
 0.159136130868612D+03 0.321416160444871D+02 0.984318320373442D+02 -.901952501702961D+02
 0.000000000000000D+00 0.000000000000000D+00 0.000000000000000D+00 -.000000000000000D+00
 0.136565936674062D+03 0.197828906430287D+02 -.166791812423916D+02 0.134092122104743D+03
 0.238080495947923D+03 0.000000000000000D+00 0.000000000000000D+00 0.238080495947923D+03
 0.240720059825433D+03 0.000000000000000D+00 0.000000000000000D+00 -.240720059825433D+03
 0.168043739145910D+03 -.565470567554185D+02 -.865401252183572D+02 -.438968719344471D+02
 0.155530326574392D+03 0.277624143685139D+02 0.938963882431864D+02 -.901952501702961D+02
 0.186207187663326D+02 0.128034724962285D+02 0.132602775970083D+02 -.263956387750960D+01
 0.136605771286721D+03 0.159811698906762D+02 -.206165406218374D+02 0.134092122104743D+03
0.918133798312D-03 0.000000000000D+00 0.000000000000D+00 0.400988466618D-04 0.000000000000D+00  6 2 -1 25 24 21 21 2 0.71925895D-01 0.17393454D-01 0.24823847D+05 0.24823847D+05 0.24823847D+05 0.12236270D+01  1  2  2  2  6  2       -1 0.262923917398D+00 0.100000000000D+01
0.181871107001D-03 0.484512516599D-04 -.352587553570D-05 0.400988466618D-04 0.000000000000D+00  6 2 -1 25 24 21 21 4 0.71925895D-01 0.17393454D-01 0.24823847D+05 0.24823847D+05 0.24823847D+05 0.12236270D+01  1  2  3  2  6  2       -1 0.779804877437D-01 0.100000000000D+01
0.317800463024D-04 0.000000000000D+00 0.000000000000D+00 0.400988466618D-04 0.000000000000D+00  6 2 -1 25 24 21 21 4 0.71925895D-01 0.17393454D-01 0.24823847D+05 0.24823847D+05 0.24823847D+05 0.12236270D+01  1  2 15  2  6  2       -1 0.136262628630D-01 0.100000000000D+01
0.297431068799D-02 0.000000000000D+00 0.000000000000D+00 0.397566351248D-04 0.000000000000D+00  6 2 -1 25 24 21 21 4 0.71925895D-01 0.18719678D-01 0.27794438D+05 0.27794438D+05 0.27794438D+05 0.12183945D+01  1  2 12  2  6  2       -1 0.111608668053D+01 0.100000000000D+01
-.162396548614D-02 0.000000000000D+00 0.000000000000D+00 0.400988466618D-04 0.000000000000D+00  6 2 -1 25 24 21 21 4 0.71925895D-01 0.17393454D-01 0.24823847D+05 0.24823847D+05 0.24823847D+05 0.12236270D+01  1  2  4  2  6  2       -1 -.696304227627D+00 0.100000000000D+01
-.127715700180D-01 0.000000000000D+00 -.268173358221D-02 0.400988466618D-04 0.000000000000D+00  6 2 -1 25 24 21 21 4 0.71925895D-01 0.18837796D-01 0.24823847D+05 0.24823847D+05 0.24823847D+05 0.12236270D+01  1  2  5  2  6  2       -1 -.482105756552D+01 0.100000000000D+01
0.129527713397D-01 0.000000000000D+00 0.267322358994D-02 0.400988466618D-04 0.000000000000D+00  6 2 -1 25 24 21 21 4 0.71925895D-01 0.17393454D-01 0.24823847D+05 0.24823847D+05 0.24823847D+05 0.12236270D+01  1  2  6  2  6  2       -1 0.555373221924D+01 0.100000000000D+01
0.398501921594D-04 0.000000000000D+00 0.000000000000D+00 0.397566351248D-04 0.000000000000D+00  6 2 21 25 24 1 21 4 0.71925895D-01 0.18719678D-01 0.27794438D+05 0.27794438D+05 0.27794438D+05 0.12183945D+01  3  4 12  5  5  2       -1 0.193183007751D+00 0.100000000000D+01
-.164375436563D-03 0.000000000000D+00 -.357286447719D-04 0.400988466618D-04 0.000000000000D+00  6 2 21 25 24 1 21 4 0.71925895D-01 0.18837796D-01 0.24823847D+05 0.24823847D+05 0.24823847D+05 0.12236270D+01  3  4  5  5  5  2       -1 -.802198288629D+00 0.100000000000D+01
  </mgrwgt>
  </event>
  <event>
  5     66 0.42622971E-03 0.34123103E+02 0.75467711E-02 0.12192876E+00
        2 -1    0    0  502    0 0.00000000E+00 0.00000000E+00 0.12998089E+04 0.12998089E+04 0.32000000E+00 0.0000E+00 0.9000E+01
       -1 -1    0    0    0  501 0.00000000E+00 0.00000000E+00 -.14687465E+02 0.14690950E+02 0.32000000E+00 0.0000E+00 0.9000E+01
       25  1    1    2    0    0 0.58119729E+02 -.44389949E+02 0.65170836E+03 0.66760554E+03 0.12500000E+03 0.0000E+00 0.9000E+01
       24  1    1    2    0    0 -.39189889E+02 0.16005365E+02 0.35714343E+03 0.36852498E+03 0.80419002E+02 0.0000E+00 0.9000E+01
       21  1    1    2  502  501 -.18929840E+02 0.28384584E+02 0.27626961E+03 0.27836932E+03 0.75000000E+00 0.0000E+00 0.9000E+01
#aMCatNLO 1  0  0  5  2 0.54099194D+01 0.00000000D+00  -5  6  0 0.00000000D+00 0.00000000D+00 0.00000000D+00 0.00000000D+00 0.00000000D+00
  <mgrwgt>
 0.5895048192D+00   14    2    0
 0.138178194630966D+03 0.000000000000000D+00 0.000000000000000D+00 0.138178194630966D+03
 0.138178194630966D+03 -.000000000000000D+00 -.000000000000000D+00 -.138178194630966D+03
 0.144897935192206D+03 0.581215317523492D+02 -.443926525211704D+02 -.464667320349595D+01
 0.921028477802477D+02 -.391887431087788D+02 0.160036468463500D+02 -.149614276067623D+02
 0.393556062894773D+02 -.189327886435704D+02 0.283890056748205D+02 0.196081008102583D+02
 0.000000000000000D+00 0.000000000000000D+00 0.000000000000000D+00 -.000000000000000D+00
 0.138178194630966D+03 0.000000000000000D+00 0.000000000000000D+00 0.138178194630966D+03
 0.138178194630966D+03 -.000000000000000D+00 -.000000000000000D+00 -.138178194630966D+03
 0.143286216526192D+03 0.562710632061513D+02 -.416179444183083D+02 -.273020043854043D+01
 0.927482349618054D+02 -.403756963548374D+02 0.177834386706013D+02 -.137321370176190D+02
 0.556254613835295D+01 0.294051575850451D+01 -.256922063131579D+01 0.396161481758556D+01
 0.347593916355812D+02 -.188358826098183D+02 0.264037263790228D+02 0.125007226385738D+02
0.323394838301D-03 0.000000000000D+00 0.000000000000D+00 0.205899112630D-04 0.000000000000D+00  6 2 -1 25 24 21 21 2 0.19997086D+00 0.22598811D-02 0.18201524D+05 0.18201524D+05 0.18201524D+05 0.12383568D+01  1  2  2  3  6  5       21 0.550242190082D+00 0.100000000000D+01
0.250488958541D-04 0.170660144794D-04 -.124192133089D-05 0.205899112630D-04 0.000000000000D+00  6 2 -1 25 24 21 21 4 0.19997086D+00 0.22598811D-02 0.18201524D+05 0.18201524D+05 0.18201524D+05 0.12383568D+01  1  2  3  3  6  5       21 0.653583372044D-01 0.100000000000D+01
0.124771201770D-04 0.000000000000D+00 0.000000000000D+00 0.205899112630D-04 0.000000000000D+00  6 2 -1 25 24 21 21 4 0.19997086D+00 0.22598811D-02 0.18201524D+05 0.18201524D+05 0.18201524D+05 0.12383568D+01  1  2 15  3  6  5       21 0.325556796044D-01 0.100000000000D+01
0.893795333876D-05 0.000000000000D+00 0.000000000000D+00 0.205721129443D-04 0.000000000000D+00  6 2 -1 25 24 21 21 4 0.19997086D+00 0.22598811D-02 0.18404283D+05 0.18404283D+05 0.18404283D+05 0.12378215D+01  1  2 12  3  6  5       21 0.232872118943D-01 0.100000000000D+01
-.550852641103D-04 0.000000000000D+00 0.000000000000D+00 0.205899112630D-04 0.000000000000D+00  6 2 -1 25 24 21 21 4 0.19997086D+00 0.22598811D-02 0.18201524D+05 0.18201524D+05 0.18201524D+05 0.12383568D+01  1  2  4  3  6  5       21 -.143730138353D+00 0.100000000000D+01
0.321908162542D-05 0.000000000000D+00 0.000000000000D+00 0.205899112630D-04 0.303103017655D-05  6 2 -1 25 24 21 21 4 0.19997086D+00 0.22598811D-02 0.18404283D+05 0.18404283D+05 0.18404283D+05 0.12378215D+01  1  2 11  3  6  5       21 0.838709188501D-02 0.100000000000D+01
0.227081019366D-05 0.000000000000D+00 0.000000000000D+00 0.205721129443D-04 0.000000000000D+00  6 2 -1 25 24 1 -1 4 0.19997086D+00 0.22598811D-02 0.18404283D+05 0.18404283D+05 0.18404283D+05 0.12378215D+01  1  2 12  6  6  5       21 0.591643703511D-02 0.100000000000D+01
0.321851767176D-05 0.000000000000D+00 0.000000000000D+00 0.205721129443D-04 0.549731696098D-07  6 2 -1 25 24 1 -1 4 0.19997086D+00 0.22598811D-02 0.18404283D+05 0.18404283D+05 0.18404283D+05 0.12378215D+01  1  2 11  6  6  5       21 0.838562254323D-02 0.100000000000D+01
0.227081019366D-05 0.000000000000D+00 0.000000000000D+00 0.205721129443D-04 0.000000000000D+00  6 2 -1 25 24 2 -2 4 0.19997086D+00 0.22598811D-02 0.18404283D+05 0.18404283D+05 0.18404283D+05 0.12378215D+01  1  2 12  7  6  5       21 0.591643703511D-02 0.100000000000D+01
0.176682637388D-05 0.000000000000D+00 0.000000000000D+00 0.205721129443D-04 0.696300589469D-07  6 2 -1 25 24 2 -2 4 0.19997086D+00 0.22598811D-02 0.18404283D+05 0.18404283D+05 0.18404283D+05 0.12378215D+01  1  2 11  7  6  5       21 0.460334246437D-02 0.100000000000D+01
0.227081019366D-05 0.000000000000D+00 0.000000000000D+00 0.205721129443D-04 0.000000000000D+00  6 2 -1 25 24 3 -3 4 0.19997086D+00 0.22598811D-02 0.18404283D+05 0.18404283D+05 0.18404283D+05 0.12378215D+01  1  2 12  8  6  5       21 0.591643703511D-02 0.100000000000D+01
0.227081019366D-05 0.000000000000D+00 0.000000000000D+00 0.205721129443D-04 0.000000000000D+00  6 2 -1 25 24 4 -4 4 0.19997086D+00 0.22598811D-02 0.18404283D+05 0.18404283D+05 0.18404283D+05 0.12378215D+01  1  2 12  8  6  5       21 0.591643703511D-02 0.100000000000D+01
0.321438948951D-05 0.000000000000D+00 0.000000000000D+00 0.205721129443D-04 0.544523521358D-07  6 2 -1 25 24 3 -3 4 0.19997086D+00 0.22598811D-02 0.18404283D+05 0.18404283D+05 0.18404283D+05 0.12378215D+01  1  2 11  8  6  5       21 0.837486685330D-02 0.100000000000D+01
0.321438948951D-05 0.000000000000D+00 0.000000000000D+00 0.205721129443D-04 0.544523521358D-07  6 2 -1 25 24 4 -4 4 0.19997086D+00 0.22598811D-02 0.18404283D+05 0.18404283D+05 0.18404283D+05 0.12378215D+01  1  2 11  8  6  5       21 0.837486685330D-02 0.100000000000D+01
  </mgrwgt>
  </event>
  <event>
  6     66 0.42622971E-03 0.28123927E+03 0.75467711E-02 0.10541718E+00
        4 -1    0    0  502    0 0.00000000E+00 0.00000000E+00 0.42045808E+03 0.42046093E+03 0.15500000E+01 0.0000E+00 0.9000E+01
       -3 -1    0    0    0  503 0.00000000E+00 0.00000000E+00 -.49988161E+03 0.49988186E+03 0.50000000E+00 0.0000E+00 0.9000E+01
       25  1    1    2    0    0 0.72706753E+02 -.64564962E+02 0.18164781E+03 0.24098928E+03 0.12500000E+03 0.0000E+00 0.9000E+01
       24  1    1    2    0    0 0.18149774E+03 0.21116583E+03 -.11641133E+03 0.31233195E+03 0.80419002E+02 0.0000E+00 0.9000E+01
       21  1    1    2  502  501 -.24534196E+03 -.14634111E+03 -.73055332E+02 0.29486614E+03 0.75000000E+00 0.0000E+00 0.9000E+01
       21  1    1    2  501  503 -.88625260E+01 -.25976029E+00 -.71604681E+02 0.72155421E+02 0.75000000E+00 0.0000E+00 0.9000E+01
#aMCatNLO 2  0  0  2  5 0.88663320D+01 0.00000000D+00  -5  6  0 0.00000000D+00 0.00000000D+00 0.00000000D+00 0.00000000D+00 0.00000000D+00
  <mgrwgt>
 0.3267055148D-02    2    2    0
 0.424052496501479D+03 0.000000000000000D+00 0.000000000000000D+00 0.424052496501479D+03
 0.424052496501479D+03 0.000000000000000D+00 0.000000000000000D+00 -.424052496501479D+03
 0.241947418552486D+03 0.701749501931625D+02 -.646390426712767D+02 0.183877197803698D+03
 0.309328035788333D+03 0.178255542512641D+03 0.211070964235995D+03 -.113536898805229D+03
 0.296829538662139D+03 -.248430492705804D+03 -.146431921564719D+03 -.703402989984685D+02
 0.000000000000000D+00 -.000000000000000D+00 -.000000000000000D+00 -.000000000000000D+00
 0.424351622965299D+03 0.000000000000000D+00 0.000000000000000D+00 0.424351622965299D+03
 0.495293839122061D+03 0.000000000000000D+00 0.000000000000000D+00 -.495293839122061D+03
 0.242674155877477D+03 0.727069798379579D+02 -.645648289825731D+02 0.183877197803698D+03
 0.311272320810315D+03 0.181498028162040D+03 0.211166001362083D+03 -.113536898805229D+03
 0.294204860633220D+03 -.245342481979352D+03 -.146341412092510D+03 -.703402989984685D+02
 0.714941247663473D+02 -.886252602064615D+01 -.259760286999509D+00 -.709422161567617D+02
-.129095850308D-01 0.000000000000D+00 0.000000000000D+00 0.178785613419D-06 0.000000000000D+00  6 4 -3 25 24 21 21 4 0.64640200D-01 0.76994131D-01 0.13791287D+06 0.13791287D+06 0.13791287D+06 0.11509610D+01  1  2 13  2  6  2       -3 -.178390020755D-01 0.100000000000D+01
0.152582262332D-01 0.000000000000D+00 0.000000000000D+00 0.179090429373D-06 0.955111786435D-08  6 4 -3 25 24 21 21 4 0.64685797D-01 0.76904746D-01 0.13791287D+06 0.13791287D+06 0.13791287D+06 0.11509610D+01  1  2  1  2  6  2       -3 0.211060572239D-01 0.100000000000D+01
  </mgrwgt>
  </event>
  <event>
  5     66 -.42622971E-03 0.26495173E+02 0.75467711E-02 0.12318648E+00
        2 -1    0    0  502    0 0.00000000E+00 0.00000000E+00 0.95329917E+03 0.95329922E+03 0.32000000E+00 0.0000E+00 0.9000E+01
       -1 -1    0    0    0  501 0.00000000E+00 0.00000000E+00 -.19999060E+02 0.20001620E+02 0.32000000E+00 0.0000E+00 0.9000E+01
       25  1    1    2    0    0 -.41160945E+02 -.39113790E+02 0.34888472E+03 0.37492621E+03 0.12500000E+03 0.0000E+00 0.9000E+01
       24  1    1    2    0    0 0.36420568E+02 0.13049322E+02 0.30732542E+03 0.32002011E+03 0.80419002E+02 0.0000E+00 0.9000E+01
       21  1    1    2  502  501 0.47403764E+01 0.26064468E+02 0.27708997E+03 0.27835453E+03 0.75000000E+00 0.0000E+00 0.9000E+01
#aMCatNLO 1  0  0  2  5 0.11656192D+01 0.00000000D+00  -5  6  0 0.00000000D+00 0.00000000D+00 0.00000000D+00 0.00000000D+00 0.00000000D+00
  <mgrwgt>
 -.1468193237D+01   11    4    0
 0.138080987573509D+03 0.000000000000000D+00 0.000000000000000D+00 0.138080987573509D+03
 0.138080987573509D+03 0.000000000000000D+00 0.000000000000000D+00 -.138080987573509D+03
 0.142315779591367D+03 -.411612902967749D+02 -.391156904852841D+02 -.374765534656366D+02
 0.892552867598572D+02 0.364203515269578D+02 0.130481300606693D+02 0.161076279646763D+01
 0.445909087957931D+02 0.474093876981712D+01 0.260675604246148D+02 0.358657906691689D+02
 0.000000000000000D+00 -.000000000000000D+00 0.000000000000000D+00 -.000000000000000D+00
 0.138323107055372D+03 0.000000000000000D+00 0.000000000000000D+00 0.138323107055372D+03
 0.139492270516689D+03 0.000000000000000D+00 0.000000000000000D+00 -.139492270516689D+03
 0.142345536960086D+03 -.408021585856721D+02 -.395972686879068D+02 -.374765534656366D+02
 0.893038300371970D+02 0.366456235868401D+02 0.127460511566202D+02 0.161076279646763D+01
 0.445150680502476D+02 0.485335580744585D+01 0.259168146306575D+02 0.358657906691689D+02
 0.165094252453000D+01 -.696820808613830D+00 0.934402900629049D+00 -.116916346131766D+01
 0.138080987573509D+03 0.000000000000000D+00 0.000000000000000D+00 0.138080987573509D+03
 0.138080987573509D+03 0.000000000000000D+00 0.000000000000000D+00 -.138080987573509D+03
 0.142315779591367D+03 -.411612902967749D+02 -.391156904852841D+02 -.374765534656366D+02
 0.892552867598572D+02 0.364203515269578D+02 0.130481300606693D+02 0.161076279646763D+01
 0.000000000000000D+00 -.000000000000000D+00 0.000000000000000D+00 -.000000000000000D+00
 0.445909087957931D+02 0.474093876981712D+01 0.260675604246148D+02 0.358657906691689D+02
 0.138323107055372D+03 0.000000000000000D+00 0.000000000000000D+00 0.138323107055372D+03
 0.139492270516689D+03 0.000000000000000D+00 0.000000000000000D+00 -.139492270516689D+03
 0.142345536960086D+03 -.408021585856721D+02 -.395972686879068D+02 -.374765534656366D+02
 0.893038300371970D+02 0.366456235868401D+02 0.127460511566202D+02 0.161076279646763D+01
 0.165094252453000D+01 -.696820808613830D+00 0.934402900629049D+00 -.116916346131766D+01
 0.445150680502476D+02 0.485335580744585D+01 0.259168146306575D+02 0.358657906691689D+02
0.985100977819D-04 0.000000000000D+00 0.000000000000D+00 0.358489101585D-04 0.000000000000D+00  6 2 -1 25 24 21 21 2 0.14666161D+00 0.30769795D-02 0.16005873D+05 0.16005873D+05 0.16005873D+05 0.12446218D+01  1  2  2  2  6  2       -1 0.169760073879D+00 0.100000000000D+01
0.950668269029D-05 0.519852068124D-05 -.378304713787D-06 0.358489101585D-04 0.000000000000D+00  6 2 -1 25 24 21 21 4 0.14666161D+00 0.30769795D-02 0.16005873D+05 0.16005873D+05 0.16005873D+05 0.12446218D+01  1  2  3  2  6  2       -1 0.253780715958D-01 0.100000000000D+01
0.444137320896D-05 0.000000000000D+00 0.000000000000D+00 0.358489101585D-04 0.000000000000D+00  6 2 -1 25 24 21 21 4 0.14666161D+00 0.30769795D-02 0.16005873D+05 0.16005873D+05 0.16005873D+05 0.12446218D+01  1  2 15  2  6  2       -1 0.118562374440D-01 0.100000000000D+01
0.330423274910D-08 0.000000000000D+00 0.000000000000D+00 0.358239971463D-04 0.000000000000D+00  6 2 -1 25 24 21 21 4 0.14666161D+00 0.31176797D-02 0.16147524D+05 0.16147524D+05 0.16147524D+05 0.12441893D+01  1  2 12  2  6  2       -1 0.864387443869D-05 0.100000000000D+01
-.562400426925D-02 0.000000000000D+00 0.000000000000D+00 0.358489101585D-04 0.000000000000D+00  6 2 -1 25 24 21 21 4 0.14666161D+00 0.30769795D-02 0.16005873D+05 0.16005873D+05 0.16005873D+05 0.12446218D+01  1  2  4  2  6  2       -1 -.150132688394D+02 0.100000000000D+01
-.214348411801D-01 0.000000000000D+00 -.188164314326D-02 0.358489101585D-04 0.000000000000D+00  6 2 -1 25 24 21 21 4 0.14666161D+00 0.31139054D-02 0.16005873D+05 0.16005873D+05 0.16005873D+05 0.12446218D+01  1  2  5  2  6  2       -1 -.562358216146D+02 0.100000000000D+01
0.214558949769D-01 0.000000000000D+00 0.188150926559D-02 0.358489101585D-04 0.000000000000D+00  6 2 -1 25 24 21 21 4 0.14666161D+00 0.30769795D-02 0.16005873D+05 0.16005873D+05 0.16005873D+05 0.12446218D+01  1  2  6  2  6  2       -1 0.572764713639D+02 0.100000000000D+01
0.542571590584D-02 0.000000000000D+00 0.000000000000D+00 0.358489101585D-04 0.132541672465D-03  6 2 -1 25 24 21 21 4 0.14691878D+00 0.31084283D-02 0.16147524D+05 0.16147524D+05 0.16147524D+05 0.12441893D+01  1  2 11  2  6  2       -1 0.142217813430D+02 0.100000000000D+01
0.449735692488D-09 0.000000000000D+00 0.000000000000D+00 0.358239971463D-04 0.000000000000D+00  6 2 21 25 24 1 21 4 0.14666161D+00 0.31176797D-02 0.16147524D+05 0.16147524D+05 0.16147524D+05 0.12441893D+01  3  4 12  5  5  2       -1 0.226057982762D-04 0.100000000000D+01
-.469985770061D-04 0.000000000000D+00 -.413442245650D-05 0.358489101585D-04 0.000000000000D+00  6 2 21 25 24 1 21 4 0.14666161D+00 0.31139054D-02 0.16005873D+05 0.16005873D+05 0.16005873D+05 0.12446218D+01  3  4  5  5  5  2       -1 -.237003470720D+01 0.100000000000D+01
0.884370826820D-05 0.000000000000D+00 0.000000000000D+00 0.358489101585D-04 0.413729906675D-06  6 2 21 25 24 1 21 4 0.14691878D+00 0.31084283D-02 0.16147524D+05 0.16147524D+05 0.16147524D+05 0.12441893D+01  3  4 11  5  5  2       -1 0.445653585010D+00 0.100000000000D+01
  </mgrwgt>
  </event>
  <event>
  5     66 0.42622971E-03 0.29418549E+02 0.75467711E-02 0.11952760E+00
        2 -1    0    0  502    0 0.00000000E+00 0.00000000E+00 0.45496437E+03 0.45496448E+03 0.32000000E+00 0.0000E+00 0.9000E+01
       -1 -1    0    0    0  501 0.00000000E+00 0.00000000E+00 -.75832644E+02 0.75833319E+02 0.32000000E+00 0.0000E+00 0.9000E+01
       25  1    1    2    0    0 0.77490027E+02 0.19069637E+02 0.22015118E+03 0.26544283E+03 0.12500000E+03 0.0000E+00 0.9000E+01
       24  1    1    2    0    0 -.10350758E+03 -.53407963E+01 0.18451327E+03 0.22639502E+03 0.80419002E+02 0.0000E+00 0.9000E+01
       21  1    1    2  502  501 0.26017554E+02 -.13728841E+02 -.25532730E+02 0.38959941E+02 0.75000000E+00 0.0000E+00 0.9000E+01
#aMCatNLO 1  0  0  5  2 0.42808837D+01 0.00000000D+00  -5  6  0 0.00000000D+00 0.00000000D+00 0.00000000D+00 0.00000000D+00 0.00000000D+00
  <mgrwgt>
 0.4505178301D+00   25    2    0
 0.185745416910077D+03 0.000000000000000D+00 0.000000000000000D+00 0.185745416910077D+03
 0.185745416910077D+03 -.000000000000000D+00 -.000000000000000D+00 -.185745416910077D+03
 0.154593966318638D+03 0.774895713441215D+02 0.190698777135355D+02 0.436577658501115D+02
 0.135172542897169D+03 -.103507979962758D+03 -.534058592125825D+01 0.325879828305385D+02
 0.817243246043469D+02 0.260184086186365D+02 -.137292917922772D+02 -.762457486806500D+02
 0.000000000000000D+00 0.000000000000000D+00 0.000000000000000D+00 -.000000000000000D+00
 0.185745416910077D+03 0.000000000000000D+00 0.000000000000000D+00 0.185745416910077D+03
 0.185745416910077D+03 -.000000000000000D+00 -.000000000000000D+00 -.185745416910077D+03
 0.154541980007584D+03 0.776238353592866D+02 0.189990298047174D+02 0.432643113346113D+02
 0.135002629316455D+03 -.103390637402469D+03 -.540250478314852D+01 0.322441158595609D+02
 0.108156227678919D+02 0.691741599160361D+01 -.304215392663762D+01 -.773772261993739D+01
 0.711306017282237D+02 0.188493860515787D+02 -.105543710949313D+02 -.677707045742348D+02
0.148992528638D-03 0.000000000000D+00 0.000000000000D+00 0.269386472512D-04 0.000000000000D+00  6 2 -1 25 24 21 21 2 0.69994579D-01 0.11666621D-01 0.23855641D+05 0.23855641D+05 0.23855641D+05 0.12254853D+01  1  2  2  3  6  5       21 0.823804569025D-01 0.100000000000D+01
0.177362043120D-04 0.786255174765D-05 -.572170540605D-06 0.269386472512D-04 0.000000000000D+00  6 2 -1 25 24 21 21 4 0.69994579D-01 0.11666621D-01 0.23855641D+05 0.23855641D+05 0.23855641D+05 0.12254853D+01  1  2  3  3  6  5       21 0.147277574511D-01 0.100000000000D+01
0.635069256475D-06 0.000000000000D+00 0.000000000000D+00 0.269386472512D-04 0.000000000000D+00  6 2 -1 25 24 21 21 4 0.69994579D-01 0.11666621D-01 0.23855641D+05 0.23855641D+05 0.23855641D+05 0.12254853D+01  1  2 15  3  6  5       21 0.527347667491D-03 0.100000000000D+01
0.545091236546D-05 0.000000000000D+00 0.000000000000D+00 0.269424818384D-04 0.000000000000D+00  6 2 -1 25 24 21 21 4 0.69994579D-01 0.11666621D-01 0.23811248D+05 0.23811248D+05 0.23811248D+05 0.12255725D+01  1  2 12  3  6  5       21 0.452743396136D-02 0.100000000000D+01
0.398849054268D-05 0.000000000000D+00 0.000000000000D+00 0.269424818384D-04 0.000000000000D+00  6 2 -1 25 24 21 21 4 0.69994579D-01 0.11666621D-01 0.23811248D+05 0.23811248D+05 0.23811248D+05 0.12255725D+01  1  2 12  3  6  5       21 0.331277157415D-02 0.100000000000D+01
-.135342974352D-03 0.000000000000D+00 0.000000000000D+00 0.269386472512D-04 0.000000000000D+00  6 2 -1 25 24 21 21 4 0.69994579D-01 0.11666621D-01 0.23855641D+05 0.23855641D+05 0.23855641D+05 0.12254853D+01  1  2  4  3  6  5       21 -.112385855728D+00 0.100000000000D+01
-.635241388355D-04 0.000000000000D+00 0.000000000000D+00 0.269386472512D-04 0.000000000000D+00  6 2 -1 25 24 21 21 4 0.69994579D-01 0.11666621D-01 0.23855641D+05 0.23855641D+05 0.23855641D+05 0.12254853D+01  1  2  5  3  6  5       21 -.527490602051D-01 0.100000000000D+01
0.604835523322D-03 0.000000000000D+00 -.000000000000D+00 0.269386472512D-04 0.000000000000D+00  6 2 -1 25 24 21 21 4 0.69994579D-01 0.11666621D-01 0.23855641D+05 0.23855641D+05 0.23855641D+05 0.12254853D+01  1  2  6  3  6  5       21 0.502242234508D+00 0.100000000000D+01
0.417802330163D-04 0.000000000000D+00 0.000000000000D+00 0.269386472512D-04 0.846413615994D-05  6 2 -1 25 24 21 21 4 0.69994579D-01 0.11666621D-01 0.23811248D+05 0.23811248D+05 0.23811248D+05 0.12255725D+01  1  2 11  3  6  5       21 0.347019422051D-01 0.100000000000D+01
0.252565668271D-05 0.000000000000D+00 0.000000000000D+00 0.269424818384D-04 0.000000000000D+00  6 2 -1 25 24 1 -1 4 0.69994579D-01 0.11666621D-01 0.23811248D+05 0.23811248D+05 0.23811248D+05 0.12255725D+01  1  2 12  6  6  5       21 0.209776695595D-02 0.100000000000D+01
0.218881418574D-05 0.000000000000D+00 0.000000000000D+00 0.269424818384D-04 0.000000000000D+00  6 2 -1 25 24 1 -1 4 0.69994579D-01 0.11666621D-01 0.23811248D+05 0.23811248D+05 0.23811248D+05 0.12255725D+01  1  2 12  6  6  5       21 0.181799137745D-02 0.100000000000D+01
-.231142783142D-04 0.000000000000D+00 0.000000000000D+00 0.269386472512D-04 0.000000000000D+00  6 2 -1 25 24 1 -1 4 0.69994579D-01 0.11666621D-01 0.23855641D+05 0.23855641D+05 0.23855641D+05 0.12254853D+01  1  2  5  6  6  5       21 -.191935928727D-01 0.100000000000D+01
0.110486991887D-04 0.000000000000D+00 0.000000000000D+00 0.269386472512D-04 0.839921463116D-07  6 2 -1 25 24 1 -1 4 0.69994579D-01 0.11666621D-01 0.23811248D+05 0.23811248D+05 0.23811248D+05 0.12255725D+01  1  2 11  6  6  5       21 0.917685931860D-02 0.100000000000D+01
0.252565668271D-05 0.000000000000D+00 0.000000000000D+00 0.269424818384D-04 0.000000000000D+00  6 2 -1 25 24 2 -2 4 0.69994579D-01 0.11666621D-01 0.23811248D+05 0.23811248D+05 0.23811248D+05 0.12255725D+01  1  2 12  7  6  5       21 0.209776695595D-02 0.100000000000D+01
0.218881418574D-05 0.000000000000D+00 0.000000000000D+00 0.269424818384D-04 0.000000000000D+00  6 2 -1 25 24 2 -2 4 0.69994579D-01 0.11666621D-01 0.23811248D+05 0.23811248D+05 0.23811248D+05 0.12255725D+01  1  2 12  7  6  5       21 0.181799137745D-02 0.100000000000D+01
-.231142783142D-04 0.000000000000D+00 0.000000000000D+00 0.269386472512D-04 0.000000000000D+00  6 2 -1 25 24 2 -2 4 0.69994579D-01 0.11666621D-01 0.23855641D+05 0.23855641D+05 0.23855641D+05 0.12254853D+01  1  2  5  7  6  5       21 -.191935928727D-01 0.100000000000D+01
0.996576104853D-05 0.000000000000D+00 0.000000000000D+00 0.269386472512D-04 0.725568017238D-07  6 2 -1 25 24 2 -2 4 0.69994579D-01 0.11666621D-01 0.23811248D+05 0.23811248D+05 0.23811248D+05 0.12255725D+01  1  2 11  7  6  5       21 0.827738954451D-02 0.100000000000D+01
0.252565668271D-05 0.000000000000D+00 0.000000000000D+00 0.269424818384D-04 0.000000000000D+00  6 2 -1 25 24 3 -3 4 0.69994579D-01 0.11666621D-01 0.23811248D+05 0.23811248D+05 0.23811248D+05 0.12255725D+01  1  2 12  8  6  5       21 0.209776695595D-02 0.100000000000D+01
0.252565668271D-05 0.000000000000D+00 0.000000000000D+00 0.269424818384D-04 0.000000000000D+00  6 2 -1 25 24 4 -4 4 0.69994579D-01 0.11666621D-01 0.23811248D+05 0.23811248D+05 0.23811248D+05 0.12255725D+01  1  2 12  8  6  5       21 0.209776695595D-02 0.100000000000D+01
0.218881418574D-05 0.000000000000D+00 0.000000000000D+00 0.269424818384D-04 0.000000000000D+00  6 2 -1 25 24 3 -3 4 0.69994579D-01 0.11666621D-01 0.23811248D+05 0.23811248D+05 0.23811248D+05 0.12255725D+01  1  2 12  8  6  5       21 0.181799137745D-02 0.100000000000D+01
0.218881418574D-05 0.000000000000D+00 0.000000000000D+00 0.269424818384D-04 0.000000000000D+00  6 2 -1 25 24 4 -4 4 0.69994579D-01 0.11666621D-01 0.23811248D+05 0.23811248D+05 0.23811248D+05 0.12255725D+01  1  2 12  8  6  5       21 0.181799137745D-02 0.100000000000D+01
-.231142783142D-04 0.000000000000D+00 0.000000000000D+00 0.269386472512D-04 0.000000000000D+00  6 2 -1 25 24 3 -3 4 0.69994579D-01 0.11666621D-01 0.23855641D+05 0.23855641D+05 0.23855641D+05 0.12254853D+01  1  2  5  8  6  5       21 -.191935928727D-01 0.100000000000D+01
-.231142783142D-04 0.000000000000D+00 0.000000000000D+00 0.269386472512D-04 0.000000000000D+00  6 2 -1 25 24 4 -4 4 0.69994579D-01 0.11666621D-01 0.23855641D+05 0.23855641D+05 0.23855641D+05 0.12254853D+01  1  2  5  8  6  5       21 -.191935928727D-01 0.100000000000D+01
0.101674940711D-04 0.000000000000D+00 0.000000000000D+00 0.269386472512D-04 0.737526900752D-07  6 2 -1 25 24 3 -3 4 0.69994579D-01 0.11666621D-01 0.23811248D+05 0.23811248D+05 0.23811248D+05 0.12255725D+01  1  2 11  8  6  5       21 0.844494551977D-02 0.100000000000D+01
0.101674940711D-04 0.000000000000D+00 0.000000000000D+00 0.269386472512D-04 0.737526900752D-07  6 2 -1 25 24 4 -4 4 0.69994579D-01 0.11666621D-01 0.23811248D+05 0.23811248D+05 0.23811248D+05 0.12255725D+01  1  2 11  8  6  5       21 0.844494551977D-02 0.100000000000D+01
  </mgrwgt>
  </event>
  <event>
  5     66 0.42622971E-03 0.27901280E+02 0.75467711E-02 0.11778152E+00
        2 -1    0    0  502    0 0.00000000E+00 0.00000000E+00 0.88209258E+03 0.88209264E+03 0.32000000E+00 0.0000E+00 0.9000E+01
       -1 -1    0    0    0  501 0.00000000E+00 0.00000000E+00 -.44034193E+02 0.44035355E+02 0.32000000E+00 0.0000E+00 0.9000E+01
       25  1    1    2    0    0 0.62494118E+02 0.11555070E+03 0.53000643E+03 0.56016899E+03 0.12500000E+03 0.0000E+00 0.9000E+01
       24  1    1    2    0    0 -.44013814E+02 -.94651629E+02 0.12782012E+03 0.18357926E+03 0.80419002E+02 0.0000E+00 0.9000E+01
       21  1    1    2  502  501 -.18480304E+02 -.20899068E+02 0.18023184E+03 0.18237975E+03 0.75000000E+00 0.0000E+00 0.9000E+01
#aMCatNLO 1  0  0  5  1 0.16554471D+01 0.00000000D+00  -5  6  0 0.00000000D+00 0.00000000D+00 0.00000000D+00 0.00000000D+00 0.00000000D+00
  <mgrwgt>
 0.3288502649D+00   13    2    0
 0.197085767761563D+03 0.000000000000000D+00 0.000000000000000D+00 0.197085767761563D+03
 0.197085767761563D+03 -.000000000000000D+00 -.000000000000000D+00 -.197085767761563D+03
 0.189288324172708D+03 0.624953334284475D+02 0.115552071595357D+03 0.542873992543476D+02
 0.159568166185511D+03 -.440127891440737D+02 -.946504696664999D+02 -.899941480825645D+02
 0.453150451649075D+02 -.184825442843739D+02 -.209016019288569D+02 0.357067488282169D+02
 0.000000000000000D+00 0.000000000000000D+00 0.000000000000000D+00 -.000000000000000D+00
 0.197085767761563D+03 0.000000000000000D+00 0.000000000000000D+00 0.197085767761563D+03
 0.197085767761563D+03 -.000000000000000D+00 -.000000000000000D+00 -.197085767761563D+03
 0.189120869083960D+03 0.621319949296113D+02 0.115141178130082D+03 0.549893392209428D+02
 0.159526131793465D+03 -.443191750492815D+02 -.949969563908779D+02 -.894022358223564D+02
 0.438616268870536D+02 -.166885713735250D+02 -.196022173713182D+02 0.355117863929352D+02
 0.166290775864755D+01 -.112424850680480D+01 -.542004367885742D+00 -.109888979152150D+01
0.257502444239D-03 0.000000000000D+00 0.000000000000D+00 0.197228068031D-04 0.000000000000D+00  6 2 -1 25 24 21 21 2 0.13570664D+00 0.67745851D-02 0.29071406D+05 0.29071406D+05 0.29071406D+05 0.12163342D+01  1  2  2  3  6  5       21 0.148153865551D+00 0.100000000000D+01
0.383548853253D-04 0.135887773131D-04 -.988877187829D-06 0.197228068031D-04 0.000000000000D+00  6 2 -1 25 24 21 21 4 0.13570664D+00 0.67745851D-02 0.29071406D+05 0.29071406D+05 0.29071406D+05 0.12163342D+01  1  2  3  3  6  5       21 0.326481173368D-01 0.100000000000D+01
0.181987058599D-05 0.000000000000D+00 0.000000000000D+00 0.197228068031D-04 0.000000000000D+00  6 2 -1 25 24 21 21 4 0.13570664D+00 0.67745851D-02 0.29071406D+05 0.29071406D+05 0.29071406D+05 0.12163342D+01  1  2 15  3  6  5       21 0.154909467009D-02 0.100000000000D+01
-.320275591962D-02 0.000000000000D+00 0.000000000000D+00 0.197228068031D-04 0.000000000000D+00  6 2 -1 25 24 21 21 4 0.13570664D+00 0.67745851D-02 0.29071406D+05 0.29071406D+05 0.29071406D+05 0.12163342D+01  1  2  4  3  6  5       21 -.272622249234D+01 0.100000000000D+01
0.335662288090D-02 0.000000000000D+00 0.000000000000D+00 0.197228068031D-04 0.783501516837D-04  6 2 -1 25 24 21 21 4 0.13570664D+00 0.67745851D-02 0.28910633D+05 0.28910633D+05 0.28910633D+05 0.12165880D+01  1  2 11  3  6  5       21 0.285935625641D+01 0.100000000000D+01
0.118376541719D-08 0.000000000000D+00 0.000000000000D+00 0.197310376908D-04 0.000000000000D+00  6 2 -1 25 24 1 -1 4 0.13570664D+00 0.67745851D-02 0.28910633D+05 0.28910633D+05 0.28910633D+05 0.12165880D+01  1  2 12  6  6  5       21 0.100839658545D-05 0.100000000000D+01
0.254433680953D-05 0.000000000000D+00 0.000000000000D+00 0.197310376908D-04 0.113782523488D-06  6 2 -1 25 24 1 -1 4 0.13570664D+00 0.67745851D-02 0.28910633D+05 0.28910633D+05 0.28910633D+05 0.12165880D+01  1  2 11  6  6  5       21 0.216740623921D-02 0.100000000000D+01
0.118376541719D-08 0.000000000000D+00 0.000000000000D+00 0.197310376908D-04 0.000000000000D+00  6 2 -1 25 24 2 -2 4 0.13570664D+00 0.67745851D-02 0.28910633D+05 0.28910633D+05 0.28910633D+05 0.12165880D+01  1  2 12  7  6  5       21 0.100839658545D-05 0.100000000000D+01
0.442090480998D-05 0.000000000000D+00 0.000000000000D+00 0.197310376908D-04 0.121886788019D-06  6 2 -1 25 24 2 -2 4 0.13570664D+00 0.67745851D-02 0.28910633D+05 0.28910633D+05 0.28910633D+05 0.12165880D+01  1  2 11  7  6  5       21 0.376597022541D-02 0.100000000000D+01
0.118376541719D-08 0.000000000000D+00 0.000000000000D+00 0.197310376908D-04 0.000000000000D+00  6 2 -1 25 24 3 -3 4 0.13570664D+00 0.67745851D-02 0.28910633D+05 0.28910633D+05 0.28910633D+05 0.12165880D+01  1  2 12  8  6  5       21 0.100839658545D-05 0.100000000000D+01
0.118376541719D-08 0.000000000000D+00 0.000000000000D+00 0.197310376908D-04 0.000000000000D+00  6 2 -1 25 24 4 -4 4 0.13570664D+00 0.67745851D-02 0.28910633D+05 0.28910633D+05 0.28910633D+05 0.12165880D+01  1  2 12  8  6  5       21 0.100839658545D-05 0.100000000000D+01
0.435990427942D-05 0.000000000000D+00 0.000000000000D+00 0.197310376908D-04 0.118868869009D-06  6 2 -1 25 24 3 -3 4 0.13570664D+00 0.67745851D-02 0.28910633D+05 0.28910633D+05 0.28910633D+05 0.12165880D+01  1  2 11  8  6  5       21 0.371400661351D-02 0.100000000000D+01
0.435990427942D-05 0.000000000000D+00 0.000000000000D+00 0.197310376908D-04 0.118868869009D-06  6 2 -1 25 24 4 -4 4 0.13570664D+00 0.67745851D-02 0.28910633D+05 0.28910633D+05 0.28910633D+05 0.12165880D+01  1  2 11  8  6  5       21 0.371400661351D-02 0.100000000000D+01
  </mgrwgt>
  </event>
  <event>
  6     66 0.42622971E-03 0.32274611E+02 0.75467711E-02 0.12255215E+00
        2 -1    0    0  503    0 0.00000000E+00 0.00000000E+00 0.72126911E+02 0.72127621E+02 0.32000000E+00 0.0000E+00 0.9000E+01
       -1 -1    0    0    0  501 0.00000000E+00 0.00000000E+00 -.43874850E+03 0.43874862E+03 0.32000000E+00 0.0000E+00 0.9000E+01
       25  1    1    2    0    0 -.17753603E+02 -.49350329E+00 -.32761701E+03 0.35110303E+03 0.12500000E+03 0.0000E+00 0.9000E+01
       24  1    1    2    0    0 -.14884605E+02 -.33776475E+02 -.54739672E+02 0.10404830E+03 0.80419002E+02 0.0000E+00 0.9000E+01
       21  1    1    2  502  501 0.23602799E+02 0.29108317E+02 0.78050593E+00 0.37490772E+02 0.75000000E+00 0.0000E+00 0.9000E+01
       21  1    1    2  503  502 0.90354082E+01 0.51616607E+01 0.14954587E+02 0.18234131E+02 0.75000000E+00 0.0000E+00 0.9000E+01
#aMCatNLO 2  0  0  1  5 0.10405832D+02 0.00000000D+00  -5  6  0 0.00000000D+00 0.00000000D+00 0.00000000D+00 0.00000000D+00 0.00000000D+00
  <mgrwgt>
 0.2556856685D+00    2    2    0
 0.155714150301837D+03 0.000000000000000D+00 0.000000000000000D+00 0.155714150301837D+03
 0.155714150301837D+03 0.000000000000000D+00 0.000000000000000D+00 -.155714150301837D+03
 0.153469235811781D+03 -.132968918438651D+02 0.205190965342486D+01 -.880158433165225D+02
 0.965305361760039D+02 -.120717532676126D+02 -.321699373938873D+02 0.408692593666134D+02
 0.614285286158898D+02 0.253686451114777D+02 0.301180277404624D+02 0.471465839499091D+02
 0.000000000000000D+00 0.000000000000000D+00 0.000000000000000D+00 0.000000000000000D+00
 0.202353667134359D+03 0.000000000000000D+00 0.000000000000000D+00 0.202353667134359D+03
 0.156382548972284D+03 0.000000000000000D+00 0.000000000000000D+00 -.156382548972284D+03
 0.153906653370047D+03 -.177545661876333D+02 -.494627474062165D+00 -.880158433165225D+02
 0.974678315926195D+02 -.148851865171656D+02 -.337771683563081D+02 0.408692593666134D+02
 0.602276134882364D+02 0.236043445189268D+02 0.291101351452441D+02 0.471465839499091D+02
 0.471341176557400D+02 0.903540818587208D+01 0.516166068512617D+01 0.459711181620748D+02
-.141868625450D-02 0.000000000000D+00 0.000000000000D+00 0.128600070692D-04 0.000000000000D+00  6 2 -1 25 24 21 21 4 0.11524862D-01 0.67210053D-01 0.17242896D+05 0.17242896D+05 0.17242896D+05 0.12409818D+01  1  2 13  1  6  1        2 -.469299820630D+00 0.100000000000D+01
0.211104419632D-02 0.000000000000D+00 0.000000000000D+00 0.129394072589D-04 0.106098224254D-05  6 2 -1 25 24 21 21 4 0.11096301D-01 0.67498550D-01 0.17242896D+05 0.17242896D+05 0.17242896D+05 0.12409818D+01  1  2  1  1  6  1        2 0.724985489134D+00 0.100000000000D+01
  </mgrwgt>
  </event>
  <event>
  5     66 0.42622971E-03 0.31124993E+02 0.75467711E-02 0.11739984E+00
        2 -1    0    0  502    0 0.00000000E+00 0.00000000E+00 0.18093691E+04 0.18093691E+04 0.32000000E+00 0.0000E+00 0.9000E+01
       -1 -1    0    0    0  501 0.00000000E+00 0.00000000E+00 -.95813123E+01 0.95866545E+01 0.32000000E+00 0.0000E+00 0.9000E+01
       25  1    1    2    0    0 0.87426644E+01 0.17673090E+01 0.10769614E+04 0.10842280E+04 0.12500000E+03 0.0000E+00 0.9000E+01
       24  1    1    2    0    0 -.59053764E+01 0.29222431E+02 0.34048017E+03 0.35111649E+03 0.80419002E+02 0.0000E+00 0.9000E+01
       21  1    1    2  502  501 -.28372880E+01 -.30989740E+02 0.38234620E+03 0.38361125E+03 0.75000000E+00 0.0000E+00 0.9000E+01
#aMCatNLO 1  0  0  1  2 0.89290417D+02 0.00000000D+00  -5  6  0 0.00000000D+00 0.00000000D+00 0.00000000D+00 0.00000000D+00 0.00000000D+00
  <mgrwgt>
 0.6327759181D+00    6    4    0
 0.131685285238346D+03 0.000000000000000D+00 0.000000000000000D+00 0.131685285238346D+03
 0.131685285238346D+03 0.000000000000000D+00 0.000000000000000D+00 -.131685285238346D+03
 0.128567001203848D+03 0.874295583220647D+01 0.177049253586665D+01 0.287210702803141D+02
 0.982406228457996D+02 -.590515367652113D+01 0.292248634928882D+02 -.479065813499443D+02
 0.365629464270453D+02 -.283780215568534D+01 -.309953560287548D+02 0.191855110696302D+02
 0.000000000000000D+00 0.000000000000000D+00 -.000000000000000D+00 0.000000000000000D+00
 0.206305923433595D+03 0.000000000000000D+00 0.000000000000000D+00 0.206305923433595D+03
 0.168682379175821D+03 0.000000000000000D+00 0.000000000000000D+00 -.168682379175821D+03
 0.133390079471966D+03 -.297077908928694D+02 0.214583453172952D+02 0.287210702803141D+02
 0.110030729031947D+03 -.364757684523476D+02 0.448778693355997D+02 -.479065813499443D+02
 0.346742039981586D+02 -.132941777625179D+02 -.256414006154420D+02 0.191855110696302D+02
 0.968932901073432D+02 0.794777371077349D+02 -.406948140374529D+02 0.376235442577741D+02
 0.131685285238346D+03 0.000000000000000D+00 0.000000000000000D+00 0.131685285238346D+03
 0.131685285238346D+03 0.000000000000000D+00 0.000000000000000D+00 -.131685285238346D+03
 0.128567001203848D+03 0.874295583220647D+01 0.177049253586665D+01 0.287210702803141D+02
 0.982406228457996D+02 -.590515367652113D+01 0.292248634928882D+02 -.479065813499443D+02
 0.000000000000000D+00 0.000000000000000D+00 -.000000000000000D+00 0.000000000000000D+00
 0.365629464270453D+02 -.283780215568534D+01 -.309953560287548D+02 0.191855110696302D+02
 0.206305923433595D+03 0.000000000000000D+00 0.000000000000000D+00 0.206305923433595D+03
 0.168682379175821D+03 0.000000000000000D+00 0.000000000000000D+00 -.168682379175821D+03
 0.133390079471966D+03 -.297077908928694D+02 0.214583453172952D+02 0.287210702803141D+02
 0.110030729031947D+03 -.364757684523476D+02 0.448778693355997D+02 -.479065813499443D+02
 0.968932901073432D+02 0.794777371077349D+02 -.406948140374529D+02 0.376235442577741D+02
 0.346742039981586D+02 -.132941777625179D+02 -.256414006154420D+02 0.191855110696302D+02
0.143368152769D-03 0.000000000000D+00 0.000000000000D+00 0.234875573816D-04 0.000000000000D+00  6 2 -1 25 24 21 21 2 0.27836488D+00 0.14744612D-02 0.14666549D+05 0.14666549D+05 0.14666549D+05 0.12489371D+01  1  2  2  1  6  1        2 0.248271445553D+00 0.100000000000D+01
0.976738296405D-05 0.756574527872D-05 -.550571456333D-06 0.234875573816D-04 0.000000000000D+00  6 2 -1 25 24 21 21 4 0.27836488D+00 0.14744612D-02 0.14666549D+05 0.14666549D+05 0.14666549D+05 0.12489371D+01  1  2  3  1  6  1        2 0.263835622392D-01 0.100000000000D+01
0.529770923264D-05 0.000000000000D+00 0.000000000000D+00 0.234875573816D-04 0.000000000000D+00  6 2 -1 25 24 21 21 4 0.27836488D+00 0.14744612D-02 0.14666549D+05 0.14666549D+05 0.14666549D+05 0.12489371D+01  1  2 15  1  6  1        2 0.143101219415D-01 0.100000000000D+01
-.126172186978D-03 0.000000000000D+00 -.754640273305D-04 0.234875573816D-04 0.000000000000D+00  6 2 -1 25 24 21 21 4 0.47469007D+00 0.14744612D-02 0.14666549D+05 0.14666549D+05 0.14666549D+05 0.12489371D+01  1  2  5  1  6  1        2 -.709400195079D-01 0.100000000000D+01
0.153646037593D-03 0.000000000000D+00 0.658587298876D-04 0.234875573816D-04 0.000000000000D+00  6 2 -1 25 24 21 21 4 0.27836488D+00 0.14744612D-02 0.14666549D+05 0.14666549D+05 0.14666549D+05 0.12489371D+01  1  2  6  1  6  1        2 0.415027219734D+00 0.100000000000D+01
-.384442399589D-05 0.000000000000D+00 -.448464841693D-05 0.234875573816D-04 0.000000000000D+00  6 21 -1 25 24 -2 21 4 0.47469007D+00 0.14744612D-02 0.14666549D+05 0.14666549D+05 0.14666549D+05 0.12489371D+01  3  4  5  4  5  1        2 -.276411840048D-03 0.100000000000D+01
  </mgrwgt>
  </event>
  <event>
  5     66 0.42622971E-03 0.50673146E+02 0.75467711E-02 0.11594749E+00
        2 -1    0    0  502    0 0.00000000E+00 0.00000000E+00 0.36941192E+03 0.36941206E+03 0.32000000E+00 0.0000E+00 0.9000E+01
       -1 -1    0    0    0  501 0.00000000E+00 0.00000000E+00 -.98417777E+02 0.98418298E+02 0.32000000E+00 0.0000E+00 0.9000E+01
       25  1    1    2    0    0 -.99124325E+02 -.65932722E+02 0.14342289E+03 0.22442790E+03 0.12500000E+03 0.0000E+00 0.9000E+01
       24  1    1    2    0    0 0.11591001E+03 0.12984076E+02 0.12308275E+03 0.18767071E+03 0.80419002E+02 0.0000E+00 0.9000E+01
       21  1    1    2  502  501 -.16785686E+02 0.52948646E+02 0.44885017E+01 0.55731746E+02 0.75000000E+00 0.0000E+00 0.9000E+01
#aMCatNLO 1  0  0  5  1 0.19854897D+02 0.00000000D+00  -5  6  0 0.00000000D+00 0.00000000D+00 0.00000000D+00 0.00000000D+00 0.00000000D+00
  <mgrwgt>
 0.3138287872D+00    9    2    0
 0.190674733933548D+03 0.000000000000000D+00 0.000000000000000D+00 0.190674733933548D+03
 0.190674733933548D+03 -.000000000000000D+00 -.000000000000000D+00 -.190674733933548D+03
 0.173404144168782D+03 -.991238192229985D+02 -.659343164758112D+02 0.164660738617772D+02
 0.142765309313035D+03 0.115910426898855D+03 0.129827638856130D+02 0.176334445554927D+02
 0.651800143852804D+02 -.167866076758561D+02 0.529515525901981D+02 -.340995184172699D+02
 0.000000000000000D+00 0.000000000000000D+00 0.000000000000000D+00 0.000000000000000D+00
 0.190674733933548D+03 0.000000000000000D+00 0.000000000000000D+00 0.190674733933548D+03
 0.190674733933548D+03 -.000000000000000D+00 -.000000000000000D+00 -.190674733933548D+03
 0.170512838429376D+03 -.103752431537581D+03 -.513338556127303D+02 0.706373040351543D+01
 0.140557220031654D+03 0.112097326020799D+03 0.250107814323928D+02 0.988769233867131D+01
 0.226474374562858D+02 0.105659613825317D+02 -.169428313551708D+02 -.106867838506012D+02
 0.476319719497803D+02 -.189108558657499D+02 0.432659055355083D+02 -.626463889158556D+01
0.522546715490D-03 0.000000000000D+00 0.000000000000D+00 0.633452406585D-05 0.000000000000D+00  6 2 -1 25 24 21 21 2 0.56832654D-01 0.15141247D-01 0.34195668D+05 0.34195668D+05 0.34195668D+05 0.12089767D+01  1  2  2  3  6  5       21 0.235932787718D+00 0.100000000000D+01
0.193752246905D-04 0.275755477718D-04 -.200671697719D-05 0.633452406585D-05 0.000000000000D+00  6 2 -1 25 24 21 21 4 0.56832654D-01 0.15141247D-01 0.34195668D+05 0.34195668D+05 0.34195668D+05 0.12089767D+01  1  2  3  3  6  5       21 0.127863262876D-01 0.100000000000D+01
0.207234810388D-04 0.000000000000D+00 0.000000000000D+00 0.633452406585D-05 0.000000000000D+00  6 2 -1 25 24 21 21 4 0.56832654D-01 0.15141247D-01 0.34195668D+05 0.34195668D+05 0.34195668D+05 0.12089767D+01  1  2 15  3  6  5       21 0.136760834834D-01 0.100000000000D+01
0.117129366533D-03 0.000000000000D+00 0.000000000000D+00 0.631465071160D-05 0.000000000000D+00  6 2 -1 25 24 21 21 4 0.56832654D-01 0.15141247D-01 0.35675867D+05 0.35675867D+05 0.35675867D+05 0.12070787D+01  1  2 12  3  6  5       21 0.768713416790D-01 0.100000000000D+01
-.664298387154D-04 0.000000000000D+00 0.000000000000D+00 0.633452406585D-05 0.000000000000D+00  6 2 -1 25 24 21 21 4 0.56832654D-01 0.15141247D-01 0.34195668D+05 0.34195668D+05 0.34195668D+05 0.12089767D+01  1  2  4  3  6  5       21 -.438391609191D-01 0.100000000000D+01
0.700958682210D-05 0.000000000000D+00 0.000000000000D+00 0.631465071160D-05 0.000000000000D+00  6 2 -1 25 24 1 -1 4 0.56832654D-01 0.15141247D-01 0.35675867D+05 0.35675867D+05 0.35675867D+05 0.12070787D+01  1  2 12  6  6  5       21 0.460035223940D-02 0.100000000000D+01
0.700958682210D-05 0.000000000000D+00 0.000000000000D+00 0.631465071160D-05 0.000000000000D+00  6 2 -1 25 24 2 -2 4 0.56832654D-01 0.15141247D-01 0.35675867D+05 0.35675867D+05 0.35675867D+05 0.12070787D+01  1  2 12  7  6  5       21 0.460035223940D-02 0.100000000000D+01
0.700958682210D-05 0.000000000000D+00 0.000000000000D+00 0.631465071160D-05 0.000000000000D+00  6 2 -1 25 24 3 -3 4 0.56832654D-01 0.15141247D-01 0.35675867D+05 0.35675867D+05 0.35675867D+05 0.12070787D+01  1  2 12  8  6  5       21 0.460035223940D-02 0.100000000000D+01
0.700958682210D-05 0.000000000000D+00 0.000000000000D+00 0.631465071160D-05 0.000000000000D+00  6 2 -1 25 24 4 -4 4 0.56832654D-01 0.15141247D-01 0.35675867D+05 0.35675867D+05 0.35675867D+05 0.12070787D+01  1  2 12  8  6  5       21 0.460035223940D-02 0.100000000000D+01
  </mgrwgt>
  </event>
  <event>
  5     66 0.42622971E-03 0.10059282E+03 0.75467711E-02 0.11290256E+00
        2 -1    0    0  502    0 0.00000000E+00 0.00000000E+00 0.12862849E+04 0.12862849E+04 0.32000000E+00 0.0000E+00 0.9000E+01
       -1 -1    0    0    0  501 0.00000000E+00 0.00000000E+00 -.99176018E+02 0.99176534E+02 0.32000000E+00 0.0000E+00 0.9000E+01
       25  1    1    2    0    0 -.36774076E+02 0.97229481E+02 0.52308225E+02 0.17078365E+03 0.12500000E+03 0.0000E+00 0.9000E+01
       24  1    1    2    0    0 -.33784820E+02 -.16892403E+03 0.10866459E+04 0.11031515E+04 0.80419002E+02 0.0000E+00 0.9000E+01
       21  1    1    2  502  501 0.70558896E+02 0.71694552E+02 0.48154699E+02 0.11152625E+03 0.75000000E+00 0.0000E+00 0.9000E+01
#aMCatNLO 1  0  0  1  2 0.89290417D+02 0.00000000D+00  -5  6  0 0.00000000D+00 0.00000000D+00 0.00000000D+00 0.00000000D+00 0.00000000D+00
  <mgrwgt>
 0.1773761231D-01    1    2    0
 0.357168020196842D+03 0.000000000000000D+00 0.000000000000000D+00 0.357168020196842D+03
 0.357168020196842D+03 0.000000000000000D+00 0.000000000000000D+00 -.357168020196842D+03
 0.244308382816395D+03 -.367744416037604D+02 0.972291095103581D+02 -.182361527255386D+03
 0.333747027870780D+03 -.337853190041125D+02 -.168924539769374D+03 0.274304419836254D+03
 0.136280629706510D+03 0.705597606078729D+02 0.716954302590157D+02 -.919428925808689D+02
 0.000000000000000D+00 0.000000000000000D+00 0.000000000000000D+00 -.000000000000000D+00
 0.383455172794457D+03 0.000000000000000D+00 0.000000000000000D+00 0.383455172794457D+03
 0.432996644929239D+03 0.000000000000000D+00 0.000000000000000D+00 -.432996644929239D+03
 0.236512799819472D+03 -.455643017703008D+02 0.705795456184993D+02 -.182361527255386D+03
 0.356057168458843D+03 -.463955837906829D+02 -.207157008859406D+03 0.274304419836254D+03
 0.126648953349354D+03 0.657531623294063D+02 0.571225308615831D+02 -.919428925808689D+02
 0.972328960960269D+02 0.262067232315775D+02 0.794549323793237D+02 -.495414721347818D+02
0.137343023690D-03 0.000000000000D+00 0.000000000000D+00 0.603459776140D-06 0.000000000000D+00  6 2 -1 25 24 21 21 4 0.19789002D+00 0.15257892D-01 0.51366756D+05 0.51366756D+05 0.51366756D+05 0.11911236D+01  1  2 14  1  6  1        2 0.177376123055D-01 0.100000000000D+01
  </mgrwgt>
  </event>
  <event>
  5     66 0.42622971E-03 0.32827965E+02 0.75467711E-02 0.12163029E+00
        2 -1    0    0  502    0 0.00000000E+00 0.00000000E+00 0.11141658E+04 0.11141659E+04 0.32000000E+00 0.0000E+00 0.9000E+01
       -1 -1    0    0    0  501 0.00000000E+00 0.00000000E+00 -.20415041E+02 0.20417549E+02 0.32000000E+00 0.0000E+00 0.9000E+01
       25  1    1    2    0    0 0.53309358E+02 -.11721461E+02 0.31427366E+03 0.34259628E+03 0.12500000E+03 0.0000E+00 0.9000E+01
       24  1    1    2    0    0 -.65748774E+02 -.20269208E+02 0.59694665E+03 0.60625593E+03 0.80419002E+02 0.0000E+00 0.9000E+01
       21  1    1    2  502  501 0.12439416E+02 0.31990669E+02 0.18253047E+03 0.18573120E+03 0.75000000E+00 0.0000E+00 0.9000E+01
#aMCatNLO 1  0  0  5  2 0.73151855D+01 0.00000000D+00  -5  6  0 0.00000000D+00 0.00000000D+00 0.00000000D+00 0.00000000D+00 0.00000000D+00
  <mgrwgt>
 0.2300976233D+00   25    2    0
 0.150821715496949D+03 0.000000000000000D+00 0.000000000000000D+00 0.150821715496949D+03
 0.150821715496949D+03 -.000000000000000D+00 -.000000000000000D+00 -.150821715496949D+03
 0.149073710425106D+03 0.533080769405423D+02 -.117247551227584D+02 -.601560486578115D+02
 0.115822992459823D+03 -.657497690467660D+02 -.202717671523315D+02 0.470507487166384D+02
 0.367467281089692D+02 0.124416921062237D+02 0.319965222750899D+02 0.131052999411731D+02
 0.000000000000000D+00 0.000000000000000D+00 0.000000000000000D+00 0.000000000000000D+00
 0.150821715496949D+03 0.000000000000000D+00 0.000000000000000D+00 0.150821715496949D+03
 0.150821715496949D+03 -.000000000000000D+00 -.000000000000000D+00 -.150821715496949D+03
 0.148925933106779D+03 0.538927638837060D+02 -.102211052461043D+02 -.595401760179464D+02
 0.115562658928261D+03 -.652957813587318D+02 -.191042388893925D+02 0.475289509394945D+02
 0.124913470684684D+02 0.948873003967768D+01 0.811279386067445D+01 -.424652320440855D+00
 0.246634918903891D+02 0.191428743534814D+01 0.212125502748223D+02 0.124358773988928D+02
0.165004579562D-03 0.000000000000D+00 0.000000000000D+00 0.158245813684D-04 0.000000000000D+00  6 2 -1 25 24 21 21 2 0.17141032D+00 0.31409720D-02 0.19121819D+05 0.19121819D+05 0.19121819D+05 0.12359787D+01  1  2  2  3  6  5       21 0.219897444664D+00 0.100000000000D+01
0.140464692983D-04 0.870753088941D-05 -.633661032223D-06 0.158245813684D-04 0.000000000000D+00  6 2 -1 25 24 21 21 4 0.17141032D+00 0.31409720D-02 0.19121819D+05 0.19121819D+05 0.19121819D+05 0.12359787D+01  1  2  3  3  6  5       21 0.285965298929D-01 0.100000000000D+01
0.578599687983D-05 0.000000000000D+00 0.000000000000D+00 0.158245813684D-04 0.000000000000D+00  6 2 -1 25 24 21 21 4 0.17141032D+00 0.31409720D-02 0.19121819D+05 0.19121819D+05 0.19121819D+05 0.12359787D+01  1  2 15  3  6  5       21 0.117794321990D-01 0.100000000000D+01
0.413188582474D-04 0.000000000000D+00 0.000000000000D+00 0.158329510623D-04 0.000000000000D+00  6 2 -1 25 24 21 21 4 0.17141032D+00 0.31409720D-02 0.18992310D+05 0.18992310D+05 0.18992310D+05 0.12363055D+01  1  2 12  3  6  5       21 0.841946568306D-01 0.100000000000D+01
0.424741729591D-04 0.000000000000D+00 0.000000000000D+00 0.158329510623D-04 0.000000000000D+00  6 2 -1 25 24 21 21 4 0.17141032D+00 0.31409720D-02 0.18992310D+05 0.18992310D+05 0.18992310D+05 0.12363055D+01  1  2 12  3  6  5       21 0.865488197919D-01 0.100000000000D+01
-.337650549579D-03 0.000000000000D+00 0.000000000000D+00 0.158245813684D-04 0.000000000000D+00  6 2 -1 25 24 21 21 4 0.17141032D+00 0.31409720D-02 0.19121819D+05 0.19121819D+05 0.19121819D+05 0.12359787D+01  1  2  4  3  6  5       21 -.687406481255D+00 0.100000000000D+01
-.715521870790D-04 0.000000000000D+00 0.000000000000D+00 0.158245813684D-04 0.000000000000D+00  6 2 -1 25 24 21 21 4 0.17141032D+00 0.31409720D-02 0.19121819D+05 0.19121819D+05 0.19121819D+05 0.12359787D+01  1  2  5  3  6  5       21 -.145669649309D+00 0.100000000000D+01
0.310736678166D-03 0.000000000000D+00 -.000000000000D+00 0.158245813684D-04 0.000000000000D+00  6 2 -1 25 24 21 21 4 0.17141032D+00 0.31409720D-02 0.19121819D+05 0.19121819D+05 0.19121819D+05 0.12359787D+01  1  2  6  3  6  5       21 0.632613827524D+00 0.100000000000D+01
0.218334374625D-05 0.000000000000D+00 0.000000000000D+00 0.158245813684D-04 0.199077844933D-05  6 2 -1 25 24 21 21 4 0.17141032D+00 0.31409720D-02 0.18992310D+05 0.18992310D+05 0.18992310D+05 0.12363055D+01  1  2 11  3  6  5       21 0.444895830272D-02 0.100000000000D+01
0.349334558527D-05 0.000000000000D+00 0.000000000000D+00 0.158329510623D-04 0.000000000000D+00  6 2 -1 25 24 1 -1 4 0.17141032D+00 0.31409720D-02 0.18992310D+05 0.18992310D+05 0.18992310D+05 0.12363055D+01  1  2 12  6  6  5       21 0.711832430079D-02 0.100000000000D+01
0.357586444677D-05 0.000000000000D+00 0.000000000000D+00 0.158329510623D-04 0.000000000000D+00  6 2 -1 25 24 1 -1 4 0.17141032D+00 0.31409720D-02 0.18992310D+05 0.18992310D+05 0.18992310D+05 0.12363055D+01  1  2 12  6  6  5       21 0.728647142586D-02 0.100000000000D+01
-.785639735673D-05 0.000000000000D+00 0.000000000000D+00 0.158245813684D-04 0.000000000000D+00  6 2 -1 25 24 1 -1 4 0.17141032D+00 0.31409720D-02 0.19121819D+05 0.19121819D+05 0.19121819D+05 0.12359787D+01  1  2  5  6  6  5       21 -.159944607496D-01 0.100000000000D+01
0.177976769228D-06 0.000000000000D+00 0.000000000000D+00 0.158245813684D-04 0.615748750691D-07  6 2 -1 25 24 1 -1 4 0.17141032D+00 0.31409720D-02 0.18992310D+05 0.18992310D+05 0.18992310D+05 0.12363055D+01  1  2 11  6  6  5       21 0.362659900214D-03 0.100000000000D+01
0.349334558527D-05 0.000000000000D+00 0.000000000000D+00 0.158329510623D-04 0.000000000000D+00  6 2 -1 25 24 2 -2 4 0.17141032D+00 0.31409720D-02 0.18992310D+05 0.18992310D+05 0.18992310D+05 0.12363055D+01  1  2 12  7  6  5       21 0.711832430079D-02 0.100000000000D+01
0.357586444677D-05 0.000000000000D+00 0.000000000000D+00 0.158329510623D-04 0.000000000000D+00  6 2 -1 25 24 2 -2 4 0.17141032D+00 0.31409720D-02 0.18992310D+05 0.18992310D+05 0.18992310D+05 0.12363055D+01  1  2 12  7  6  5       21 0.728647142586D-02 0.100000000000D+01
-.785639735673D-05 0.000000000000D+00 0.000000000000D+00 0.158245813684D-04 0.000000000000D+00  6 2 -1 25 24 2 -2 4 0.17141032D+00 0.31409720D-02 0.19121819D+05 0.19121819D+05 0.19121819D+05 0.12359787D+01  1  2  5  7  6  5       21 -.159944607496D-01 0.100000000000D+01
0.178787184968D-06 0.000000000000D+00 0.000000000000D+00 0.158245813684D-04 0.626335065963D-07  6 2 -1 25 24 2 -2 4 0.17141032D+00 0.31409720D-02 0.18992310D+05 0.18992310D+05 0.18992310D+05 0.12363055D+01  1  2 11  7  6  5       21 0.364311269057D-03 0.100000000000D+01
0.349334558527D-05 0.000000000000D+00 0.000000000000D+00 0.158329510623D-04 0.000000000000D+00  6 2 -1 25 24 3 -3 4 0.17141032D+00 0.31409720D-02 0.18992310D+05 0.18992310D+05 0.18992310D+05 0.12363055D+01  1  2 12  8  6  5       21 0.711832430079D-02 0.100000000000D+01
0.349334558527D-05 0.000000000000D+00 0.000000000000D+00 0.158329510623D-04 0.000000000000D+00  6 2 -1 25 24 4 -4 4 0.17141032D+00 0.31409720D-02 0.18992310D+05 0.18992310D+05 0.18992310D+05 0.12363055D+01  1  2 12  8  6  5       21 0.711832430079D-02 0.100000000000D+01
0.357586444677D-05 0.000000000000D+00 0.000000000000D+00 0.158329510623D-04 0.000000000000D+00  6 2 -1 25 24 3 -3 4 0.17141032D+00 0.31409720D-02 0.18992310D+05 0.18992310D+05 0.18992310D+05 0.12363055D+01  1  2 12  8  6  5       21 0.728647142586D-02 0.100000000000D+01
0.357586444677D-05 0.000000000000D+00 0.000000000000D+00 0.158329510623D-04 0.000000000000D+00  6 2 -1 25 24 4 -4 4 0.17141032D+00 0.31409720D-02 0.18992310D+05 0.18992310D+05 0.18992310D+05 0.12363055D+01  1  2 12  8  6  5       21 0.728647142586D-02 0.100000000000D+01
-.785639735673D-05 0.000000000000D+00 0.000000000000D+00 0.158245813684D-04 0.000000000000D+00  6 2 -1 25 24 3 -3 4 0.17141032D+00 0.31409720D-02 0.19121819D+05 0.19121819D+05 0.19121819D+05 0.12359787D+01  1  2  5  8  6  5       21 -.159944607496D-01 0.100000000000D+01
-.785639735673D-05 0.000000000000D+00 0.000000000000D+00 0.158245813684D-04 0.000000000000D+00  6 2 -1 25 24 4 -4 4 0.17141032D+00 0.31409720D-02 0.19121819D+05 0.19121819D+05 0.19121819D+05 0.12359787D+01  1  2  5  8  6  5       21 -.159944607496D-01 0.100000000000D+01
0.178088106224D-06 0.000000000000D+00 0.000000000000D+00 0.158245813684D-04 0.614129830015D-07  6 2 -1 25 24 3 -3 4 0.17141032D+00 0.31409720D-02 0.18992310D+05 0.18992310D+05 0.18992310D+05 0.12363055D+01  1  2 11  8  6  5       21 0.362886769508D-03 0.100000000000D+01
0.178088106224D-06 0.000000000000D+00 0.000000000000D+00 0.158245813684D-04 0.614129830015D-07  6 2 -1 25 24 4 -4 4 0.17141032D+00 0.31409720D-02 0.18992310D+05 0.18992310D+05 0.18992310D+05 0.12363055D+01  1  2 11  8  6  5       21 0.362886769508D-03 0.100000000000D+01
  </mgrwgt>
  </event>
  <event>
  5     66 -.42622971E-03 0.23977419E+02 0.75467711E-02 0.11538157E+00
        4 -1    0    0  502    0 0.00000000E+00 0.00000000E+00 0.98436397E+02 0.98448600E+02 0.15500000E+01 0.0000E+00 0.9000E+01
       -3 -1    0    0    0  501 0.00000000E+00 0.00000000E+00 -.40548824E+03 0.40548855E+03 0.50000000E+00 0.0000E+00 0.9000E+01
       25  1    1    2    0    0 0.61597685E+02 -.13887714E+03 -.21631325E+03 0.29239965E+03 0.12500000E+03 0.0000E+00 0.9000E+01
       24  1    1    2    0    0 -.78587809E+02 0.12196980E+03 -.86825813E+02 0.18723946E+03 0.80419002E+02 0.0000E+00 0.9000E+01
       21  1    1    2  502  501 0.16990124E+02 0.16907340E+02 -.39127835E+01 0.24298042E+02 0.75000000E+00 0.0000E+00 0.9000E+01
#aMCatNLO 1  0  0  2  1 0.38836642D+01 0.00000000D+00  -5  6  0 0.00000000D+00 0.00000000D+00 0.00000000D+00 0.00000000D+00 0.00000000D+00
  <mgrwgt>
 -.1025913289D+00    9    4    0
 0.199794779979825D+03 0.000000000000000D+00 0.000000000000000D+00 0.199794779979825D+03
 0.199794779979825D+03 0.000000000000000D+00 0.000000000000000D+00 -.199794779979825D+03
 0.202538797238444D+03 0.615945117504049D+02 -.138880299744672D+03 -.481180096414517D+02
 0.169414962410942D+03 -.785904625805088D+02 0.121967161056463D+03 0.343767995825483D+02
 0.276358003102640D+02 0.169959508301039D+02 0.169131386882083D+02 0.137412100589034D+02
 0.000000000000000D+00 0.000000000000000D+00 0.000000000000000D+00 -.000000000000000D+00
 0.200720412928452D+03 0.000000000000000D+00 0.000000000000000D+00 0.200720412928452D+03
 0.203919830012460D+03 0.000000000000000D+00 0.000000000000000D+00 -.203919830012460D+03
 0.203230859573856D+03 0.603656126237070D+02 -.140422335274123D+03 -.481180096414517D+02
 0.168971968514069D+03 -.796152888505818D+02 0.120681198290574D+03 0.343767995825483D+02
 0.274056043506313D+02 0.168292544471083D+02 0.167039663162652D+02 0.137412100589034D+02
 0.503181050235543D+01 0.242042177976646D+01 0.303717066728310D+01 -.319941708400790D+01
 0.199794779979825D+03 0.000000000000000D+00 0.000000000000000D+00 0.199794779979825D+03
 0.199794779979825D+03 0.000000000000000D+00 0.000000000000000D+00 -.199794779979825D+03
 0.202538797238444D+03 0.615945117504049D+02 -.138880299744672D+03 -.481180096414517D+02
 0.169414962410942D+03 -.785904625805088D+02 0.121967161056463D+03 0.343767995825483D+02
 0.000000000000000D+00 0.000000000000000D+00 0.000000000000000D+00 -.000000000000000D+00
 0.276358003102640D+02 0.169959508301039D+02 0.169131386882083D+02 0.137412100589034D+02
 0.200720412928452D+03 0.000000000000000D+00 0.000000000000000D+00 0.200720412928452D+03
 0.203919830012460D+03 0.000000000000000D+00 0.000000000000000D+00 -.203919830012460D+03
 0.203230859573856D+03 0.603656126237070D+02 -.140422335274123D+03 -.481180096414517D+02
 0.168971968514069D+03 -.796152888505818D+02 0.120681198290574D+03 0.343767995825483D+02
 0.503181050235543D+01 0.242042177976646D+01 0.303717066728310D+01 -.319941708400790D+01
 0.274056043506313D+02 0.168292544471083D+02 0.167039663162652D+02 0.137412100589034D+02
0.108886157636D-02 0.000000000000D+00 0.000000000000D+00 0.286320970877D-04 0.000000000000D+00  6 4 -3 25 24 21 21 2 0.15145024D-01 0.62383769D-01 0.37366422D+05 0.37366422D+05 0.37366422D+05 0.12050156D+01  1  2  2  2  6  2       -3 0.308994881604D-01 0.100000000000D+01
0.312058899556D-03 0.574608040309D-04 -.418151515705D-05 0.286320970877D-04 0.000000000000D+00  6 4 -3 25 24 21 21 4 0.15145024D-01 0.62383769D-01 0.37366422D+05 0.37366422D+05 0.37366422D+05 0.12050156D+01  1  2  3  2  6  2       -3 0.128588020491D-01 0.100000000000D+01
0.912060977229D-05 0.000000000000D+00 0.000000000000D+00 0.286320970877D-04 0.000000000000D+00  6 4 -3 25 24 21 21 4 0.15145024D-01 0.62383769D-01 0.37366422D+05 0.37366422D+05 0.37366422D+05 0.12050156D+01  1  2 15  2  6  2       -3 0.375826857674D-03 0.100000000000D+01
-.686859946854D-02 0.000000000000D+00 0.000000000000D+00 0.286320970877D-04 0.000000000000D+00  6 4 -3 25 24 21 21 4 0.15145024D-01 0.62383769D-01 0.37366422D+05 0.37366422D+05 0.37366422D+05 0.12050156D+01  1  2  4  2  6  2       -3 -.283029777540D+00 0.100000000000D+01
-.926916747370D-01 0.000000000000D+00 -.983793520711D-02 0.286320970877D-04 0.000000000000D+00  6 4 -3 25 24 21 21 4 0.15145024D-01 0.63890527D-01 0.37366422D+05 0.37366422D+05 0.37366422D+05 0.12050156D+01  1  2  5  2  6  2       -3 -.363335158221D+01 0.100000000000D+01
0.929028084533D-01 0.000000000000D+00 0.983513410396D-02 0.286320970877D-04 0.000000000000D+00  6 4 -3 25 24 21 21 4 0.15145024D-01 0.62383769D-01 0.37366422D+05 0.37366422D+05 0.37366422D+05 0.12050156D+01  1  2  6  2  6  2       -3 0.382818379930D+01 0.100000000000D+01
0.584652359084D-02 0.000000000000D+00 0.000000000000D+00 0.286320970877D-04 0.137205673936D-04  6 4 -3 25 24 21 21 4 0.15215189D-01 0.63671771D-01 0.38119802D+05 0.38119802D+05 0.38119802D+05 0.12041294D+01  1  2 11  2  6  2       -3 0.228560988330D+00 0.100000000000D+01
-.398286749478D-03 0.000000000000D+00 -.424890435517D-04 0.286320970877D-04 0.000000000000D+00  6 4 21 25 24 3 21 4 0.15145024D-01 0.63890527D-01 0.37366422D+05 0.37366422D+05 0.37366422D+05 0.12050156D+01  3  4  5  5  5  2       -3 -.296188405139D+00 0.100000000000D+01
0.122783417958D-04 0.000000000000D+00 0.000000000000D+00 0.286320970877D-04 0.569817948230D-07  6 4 21 25 24 3 21 4 0.15215189D-01 0.63671771D-01 0.38119802D+05 0.38119802D+05 0.38119802D+05 0.12041294D+01  3  4 11  5  5  2       -3 0.909953129541D-02 0.100000000000D+01
  </mgrwgt>
  </event>
  <event>
  5     66 0.42622971E-03 0.30299668E+02 0.75467711E-02 0.11026892E+00
        2 -1    0    0  502    0 0.00000000E+00 0.00000000E+00 0.91043322E+03 0.91043328E+03 0.32000000E+00 0.0000E+00 0.9000E+01
       -1 -1    0    0    0  501 0.00000000E+00 0.00000000E+00 -.15610577E+03 0.15610610E+03 0.32000000E+00 0.0000E+00 0.9000E+01
       25  1    1    2    0    0 0.25200998E+02 -.13399823E+03 -.31401576E+02 0.18762110E+03 0.12500000E+03 0.0000E+00 0.9000E+01
       24  1    1    2    0    0 0.27064325E+01 0.14579828E+03 0.10361660E+03 0.19613281E+03 0.80419002E+02 0.0000E+00 0.9000E+01
       21  1    1    2  502  501 -.27907431E+02 -.11800050E+02 0.68211243E+03 0.68278547E+03 0.75000000E+00 0.0000E+00 0.9000E+01
#aMCatNLO 1  0  0  5  1 0.36110722D+02 0.00000000D+00  -5  6  0 0.00000000D+00 0.00000000D+00 0.00000000D+00 0.00000000D+00 0.00000000D+00
  <mgrwgt>
 0.6155668952D+00    3    2    0
 0.376993478729597D+03 0.000000000000000D+00 0.000000000000000D+00 0.376993478729597D+03
 0.376993478729597D+03 -.000000000000000D+00 -.000000000000000D+00 -.376993478729597D+03
 0.296812272497549D+03 0.252010368571413D+02 -.133998215110333D+03 -.232124775053697D+03
 0.173772999959393D+03 0.270645504626804D+01 0.145798291196561D+03 -.496525220483525D+02
 0.283401685002253D+03 -.279074919034094D+02 -.118000760862275D+02 0.281777297102049D+03
 0.000000000000000D+00 0.000000000000000D+00 0.000000000000000D+00 -.000000000000000D+00
 0.376993478729597D+03 0.000000000000000D+00 0.000000000000000D+00 0.376993478729597D+03
 0.376993478729597D+03 -.000000000000000D+00 -.000000000000000D+00 -.376993478729597D+03
 0.232523028133184D+03 0.159225797039624D+02 -.137921408951946D+03 -.138441738722492D+03
 0.164665086553653D+03 -.322585908614186D+01 0.143289941167396D+03 0.102450655806717D+02
 0.121012252947516D+03 0.697135625430175D+02 0.489990060571167D+02 -.859248623298818D+02
 0.235786589824841D+03 -.824102831608382D+02 -.543675382725665D+02 0.214121535471702D+03
0.568681387677D-02 0.000000000000D+00 0.000000000000D+00 0.352654987712D-04 0.000000000000D+00  6 2 -1 25 24 21 21 2 0.14006668D+00 0.24016302D-01 0.36443311D+05 0.36443311D+05 0.36443311D+05 0.12061289D+01  1  2  2  3  6  5       21 0.425494459122D+00 0.100000000000D+01
0.160240705672D-02 0.300101413098D-03 -.218388626593D-04 0.352654987712D-04 0.000000000000D+00  6 2 -1 25 24 21 21 4 0.14006668D+00 0.24016302D-01 0.36443311D+05 0.36443311D+05 0.36443311D+05 0.12061289D+01  1  2  3  3  6  5       21 0.174415557225D+00 0.100000000000D+01
0.143844354193D-03 0.000000000000D+00 0.000000000000D+00 0.352654987712D-04 0.000000000000D+00  6 2 -1 25 24 21 21 4 0.14006668D+00 0.24016302D-01 0.36443311D+05 0.36443311D+05 0.36443311D+05 0.12061289D+01  1  2 15  3  6  5       21 0.156568788718D-01 0.100000000000D+01
  </mgrwgt>
  </event>
  <event>
  5     66 0.42622971E-03 0.86346201E+02 0.75467711E-02 0.11695916E+00
        2 -1    0    0  502    0 0.00000000E+00 0.00000000E+00 0.25086471E+03 0.25086491E+03 0.32000000E+00 0.0000E+00 0.9000E+01
       -1 -1    0    0    0  501 0.00000000E+00 0.00000000E+00 -.14137144E+03 0.14137180E+03 0.32000000E+00 0.0000E+00 0.9000E+01
       25  1    1    2    0    0 -.71988382E+02 0.11968594E+03 0.81352738E+02 0.20432895E+03 0.12500000E+03 0.0000E+00 0.9000E+01
       24  1    1    2    0    0 0.15726300E+02 -.54189053E+02 0.25613887E+02 0.10152368E+03 0.80419002E+02 0.0000E+00 0.9000E+01
       21  1    1    2  502  501 0.56262082E+02 -.65496889E+02 0.25266438E+01 0.86384089E+02 0.75000000E+00 0.0000E+00 0.9000E+01
#aMCatNLO 1  0  0  5  2 0.40276744D+02 0.00000000D+00  -5  6  0 0.00000000D+00 0.00000000D+00 0.00000000D+00 0.00000000D+00 0.00000000D+00
  <mgrwgt>
 0.6299630434D-01    4    2    0
 0.188322108744128D+03 0.000000000000000D+00 0.000000000000000D+00 0.188322108744128D+03
 0.188322108744128D+03 -.000000000000000D+00 -.000000000000000D+00 -.188322108744128D+03
 0.189139183511712D+03 -.719893805463029D+02 0.119687104509570D+03 0.253210750591614D+02
 0.982800353826243D+02 0.157257815462139D+02 -.541884493840631D+02 -.283921618601492D+01
 0.892249985939199D+02 0.562635990000890D+02 -.654986551255071D+02 -.224818588731465D+02
 0.000000000000000D+00 0.000000000000000D+00 0.000000000000000D+00 0.000000000000000D+00
 0.188322108744128D+03 0.000000000000000D+00 0.000000000000000D+00 0.188322108744128D+03
 0.188322108744128D+03 -.000000000000000D+00 -.000000000000000D+00 -.188322108744128D+03
 0.163249983429395D+03 -.481674741614339D+02 0.919550920101178D+02 0.158022965424674D+02
 0.111499487921907D+03 0.299071146700502D+02 -.706974936685679D+02 -.850580587436140D+01
 0.427554258482377D+02 -.197711893415419D+01 0.287008075523336D+02 -.316288015269038D+02
 0.591393202887157D+02 0.202374784255379D+02 -.499584058938835D+02 0.243323108587978D+02
0.191552249427D-03 0.000000000000D+00 0.000000000000D+00 0.283295696331D-05 0.000000000000D+00  6 2 -1 25 24 21 21 2 0.38594614D-01 0.21749496D-01 0.34600055D+05 0.34600055D+05 0.34600055D+05 0.12084492D+01  1  2  2  3  6  5       21 0.731926139967D-01 0.100000000000D+01
-.762787188906D-05 0.101084899174D-04 -.735611074667D-06 0.283295696331D-05 0.000000000000D+00  6 2 -1 25 24 21 21 4 0.38594614D-01 0.21749496D-01 0.34600055D+05 0.34600055D+05 0.34600055D+05 0.12084492D+01  1  2  3  3  6  5       21 -.425637811369D-02 0.100000000000D+01
0.584625509223D-05 0.000000000000D+00 0.000000000000D+00 0.283295696331D-05 0.000000000000D+00  6 2 -1 25 24 21 21 4 0.38594614D-01 0.21749496D-01 0.34600055D+05 0.34600055D+05 0.34600055D+05 0.12084492D+01  1  2 15  3  6  5       21 0.326222996184D-02 0.100000000000D+01
-.164912296810D-04 0.000000000000D+00 0.000000000000D+00 0.283295696331D-05 0.000000000000D+00  6 2 -1 25 24 21 21 4 0.38594614D-01 0.21749496D-01 0.34600055D+05 0.34600055D+05 0.34600055D+05 0.12084492D+01  1  2  4  3  6  5       21 -.920216150755D-02 0.100000000000D+01
  </mgrwgt>
  </event>
  <event>
  5     66 -.42622971E-03 0.66126271E+02 0.75467711E-02 0.11436469E+00
        2 -1    0    0  502    0 0.00000000E+00 0.00000000E+00 0.67847485E+02 0.67848239E+02 0.32000000E+00 0.0000E+00 0.9000E+01
       -1 -1    0    0    0  501 0.00000000E+00 0.00000000E+00 -.61535454E+03 0.61535462E+03 0.32000000E+00 0.0000E+00 0.9000E+01
       25  1    1    2    0    0 0.54855441E+02 0.14563831E+03 -.30364103E+03 0.36337654E+03 0.12500000E+03 0.0000E+00 0.9000E+01
       24  1    1    2    0    0 -.49582851E+02 -.79725407E+02 -.91716435E+02 0.15392765E+03 0.80419002E+02 0.0000E+00 0.9000E+01
       21  1    1    2  502  501 -.52725894E+01 -.65912899E+02 -.15214959E+03 0.16589867E+03 0.75000000E+00 0.0000E+00 0.9000E+01
#aMCatNLO 1  0  0  2  5 0.25268856D+02 0.00000000D+00  -5  6  0 0.00000000D+00 0.00000000D+00 0.00000000D+00 0.00000000D+00 0.00000000D+00
  <mgrwgt>
 -.9745680697D-01    9    4    0
 0.204329498204806D+03 0.000000000000000D+00 0.000000000000000D+00 0.204329498204806D+03
 0.204329498204806D+03 0.000000000000000D+00 0.000000000000000D+00 -.204329498204806D+03
 0.200692429306590D+03 0.548555755818147D+02 0.145639990558492D+03 -.207920696105669D+02
 0.134459817173378D+03 -.495827610860572D+02 -.797242779614511D+02 0.528943833174760D+02
 0.735067499296439D+02 -.527281449575750D+01 -.659157125970411D+02 -.321023137069091D+02
 0.000000000000000D+00 0.000000000000000D+00 -.000000000000000D+00 -.000000000000000D+00
 0.206836365987217D+03 0.000000000000000D+00 0.000000000000000D+00 0.206836365987217D+03
 0.280136415948230D+03 0.000000000000000D+00 0.000000000000000D+00 -.280136415948230D+03
 0.207721252749821D+03 0.493880966807342D+02 0.157008358349225D+03 -.207920696105669D+02
 0.131602869446146D+03 -.531445715477745D+02 -.723183104099930D+02 0.528943833174760D+02
 0.701153610368295D+02 -.719549949858112D+01 -.619179303187216D+02 -.321023137069091D+02
 0.775332987026517D+02 0.109519743656215D+02 -.227721176205107D+02 -.733000499610131D+02
 0.204329498204806D+03 0.000000000000000D+00 0.000000000000000D+00 0.204329498204806D+03
 0.204329498204806D+03 0.000000000000000D+00 0.000000000000000D+00 -.204329498204806D+03
 0.200692429306590D+03 0.548555755818147D+02 0.145639990558492D+03 -.207920696105669D+02
 0.134459817173378D+03 -.495827610860572D+02 -.797242779614511D+02 0.528943833174760D+02
 0.000000000000000D+00 0.000000000000000D+00 -.000000000000000D+00 -.000000000000000D+00
 0.735067499296439D+02 -.527281449575750D+01 -.659157125970411D+02 -.321023137069091D+02
 0.206836365987217D+03 0.000000000000000D+00 0.000000000000000D+00 0.206836365987217D+03
 0.280136415948230D+03 0.000000000000000D+00 0.000000000000000D+00 -.280136415948230D+03
 0.207721252749821D+03 0.493880966807342D+02 0.157008358349225D+03 -.207920696105669D+02
 0.131602869446146D+03 -.531445715477745D+02 -.723183104099930D+02 0.528943833174760D+02
 0.775332987026517D+02 0.109519743656215D+02 -.227721176205107D+02 -.733000499610131D+02
 0.701153610368295D+02 -.719549949858112D+01 -.619179303187216D+02 -.321023137069091D+02
0.143926407275D-03 0.000000000000D+00 0.000000000000D+00 0.408690050343D-05 0.000000000000D+00  6 2 -1 25 24 21 21 2 0.10438139D-01 0.94669994D-01 0.37899840D+05 0.37899840D+05 0.37899840D+05 0.12043861D+01  1  2  2  2  6  2       -1 0.163783227737D-01 0.100000000000D+01
0.187925269719D-05 0.759520517839D-05 -.552715300630D-06 0.408690050343D-05 0.000000000000D+00  6 2 -1 25 24 21 21 4 0.10438139D-01 0.94669994D-01 0.37899840D+05 0.37899840D+05 0.37899840D+05 0.12043861D+01  1  2  3  2  6  2       -1 0.310202718082D-03 0.100000000000D+01
0.735391353307D-05 0.000000000000D+00 0.000000000000D+00 0.408690050343D-05 0.000000000000D+00  6 2 -1 25 24 21 21 4 0.10438139D-01 0.94669994D-01 0.37899840D+05 0.37899840D+05 0.37899840D+05 0.12043861D+01  1  2 15  2  6  2       -1 0.121388888781D-02 0.100000000000D+01
0.131718464429D-02 0.000000000000D+00 0.000000000000D+00 0.404915521488D-05 0.000000000000D+00  6 2 -1 25 24 21 21 4 0.10438139D-01 0.13587163D+00 0.43012001D+05 0.43012001D+05 0.43012001D+05 0.11988115D+01  1  2 12  2  6  2       -1 0.920942076379D-01 0.100000000000D+01
-.204551704126D-02 0.000000000000D+00 0.000000000000D+00 0.408690050343D-05 0.000000000000D+00  6 2 -1 25 24 21 21 4 0.10438139D-01 0.94669994D-01 0.37899840D+05 0.37899840D+05 0.37899840D+05 0.12043861D+01  1  2  4  2  6  2       -1 -.337647484574D+00 0.100000000000D+01
-.171193589152D-02 0.000000000000D+00 -.113515958170D-03 0.408690050343D-05 0.000000000000D+00  6 2 -1 25 24 21 21 4 0.10438139D-01 0.13045384D+00 0.37899840D+05 0.37899840D+05 0.37899840D+05 0.12043861D+01  1  2  5  2  6  2       -1 -.134903435984D+00 0.100000000000D+01
0.166748218539D-02 0.000000000000D+00 0.107921197710D-03 0.408690050343D-05 0.000000000000D+00  6 2 -1 25 24 21 21 4 0.10438139D-01 0.94669994D-01 0.37899840D+05 0.37899840D+05 0.37899840D+05 0.12043861D+01  1  2  6  2  6  2       -1 0.275246382265D+00 0.100000000000D+01
0.582233398571D-04 0.000000000000D+00 0.000000000000D+00 0.404915521488D-05 0.000000000000D+00  6 2 21 25 24 1 21 4 0.10438139D-01 0.13587163D+00 0.43012001D+05 0.43012001D+05 0.43012001D+05 0.11988115D+01  3  4 12  5  5  2       -1 0.339663072002D-01 0.100000000000D+01
-.666078023790D-04 0.000000000000D+00 -.460353549670D-05 0.408690050343D-05 0.000000000000D+00  6 2 21 25 24 1 21 4 0.10438139D-01 0.13045384D+00 0.37899840D+05 0.37899840D+05 0.37899840D+05 0.12043861D+01  3  4  5  5  5  2       -1 -.441151978918D-01 0.100000000000D+01
  </mgrwgt>
  </event>
  <event>
  5     66 -.42622971E-03 0.24911993E+02 0.75467711E-02 0.12408846E+00
        2 -1    0    0  502    0 0.00000000E+00 0.00000000E+00 0.21657431E+04 0.21657431E+04 0.32000000E+00 0.0000E+00 0.9000E+01
       -1 -1    0    0    0  501 0.00000000E+00 0.00000000E+00 -.14108867E+02 0.14112495E+02 0.32000000E+00 0.0000E+00 0.9000E+01
       25  1    1    2    0    0 -.15096329E+02 -.18478245E+02 0.18123264E+04 0.18167887E+04 0.12500000E+03 0.0000E+00 0.9000E+01
       24  1    1    2    0    0 0.39438338E+02 0.13184984E+02 0.31681003E+03 0.32949209E+03 0.80419002E+02 0.0000E+00 0.9000E+01
       21  1    1    2  502  501 -.24342009E+02 0.52932608E+01 0.22497766E+02 0.33574752E+02 0.75000000E+00 0.0000E+00 0.9000E+01
#aMCatNLO 1  0  0  5  1 0.59552835D+00 0.00000000D+00  -5  6  0 0.00000000D+00 0.00000000D+00 0.00000000D+00 0.00000000D+00 0.00000000D+00
  <mgrwgt>
 -.9655528605D+00   25    2    0
 0.174814646957974D+03 0.000000000000000D+00 0.000000000000000D+00 0.174814646957974D+03
 0.174814646957974D+03 -.000000000000000D+00 -.000000000000000D+00 -.174814646957974D+03
 0.174110252279826D+03 -.150956500449058D+02 -.184783922144844D+02 0.118827817954526D+03
 0.104641494625996D+03 0.394387454650250D+02 0.131848951695981D+02 -.524725674872457D+02
 0.708775470101266D+02 -.243430954201192D+02 0.529349704488626D+01 -.663552504672799D+02
 0.000000000000000D+00 0.000000000000000D+00 0.000000000000000D+00 -.000000000000000D+00
 0.174814646957974D+03 0.000000000000000D+00 0.000000000000000D+00 0.174814646957974D+03
 0.174814646957974D+03 -.000000000000000D+00 -.000000000000000D+00 -.174814646957974D+03
 0.174107113235479D+03 -.150973971668364D+02 -.184780122962933D+02 0.118823055589210D+03
 0.104642562959827D+03 0.394376954175463D+02 0.131851235063453D+02 -.524754297429389D+02
 0.303952275224122D+02 -.109961249722635D+02 0.222826573620115D+01 -.282487154317225D+02
 0.404843901982306D+02 -.133441732784464D+02 0.306462305374684D+01 -.380989104145490D+02
0.787404138879D-05 0.000000000000D+00 0.000000000000D+00 0.270573286449D-04 0.000000000000D+00  6 2 -1 25 24 21 21 2 0.33319152D+00 0.21708758D-02 0.14726224D+05 0.14726224D+05 0.14726224D+05 0.12487356D+01  1  2  2  3  6  5       21 0.514970177111D-02 0.100000000000D+01
0.625268826155D-06 0.415524579980D-06 -.302383922157D-07 0.270573286449D-04 0.000000000000D+00  6 2 -1 25 24 21 21 4 0.33319152D+00 0.21708758D-02 0.14726224D+05 0.14726224D+05 0.14726224D+05 0.12487356D+01  1  2  3  3  6  5       21 0.637664324071D-03 0.100000000000D+01
0.186989303303D-06 0.000000000000D+00 0.000000000000D+00 0.270573286449D-04 0.000000000000D+00  6 2 -1 25 24 21 21 4 0.33319152D+00 0.21708758D-02 0.14726224D+05 0.14726224D+05 0.14726224D+05 0.12487356D+01  1  2 15  3  6  5       21 0.190696229704D-03 0.100000000000D+01
0.218234843526D-10 0.000000000000D+00 0.000000000000D+00 0.270573477908D-04 0.000000000000D+00  6 2 -1 25 24 21 21 4 0.33319152D+00 0.21708758D-02 0.14726093D+05 0.14726093D+05 0.14726093D+05 0.12487360D+01  1  2 12  3  6  5       21 0.222561498361D-07 0.100000000000D+01
0.218029866967D-10 0.000000000000D+00 0.000000000000D+00 0.270573477908D-04 0.000000000000D+00  6 2 -1 25 24 21 21 4 0.33319152D+00 0.21708758D-02 0.14726093D+05 0.14726093D+05 0.14726093D+05 0.12487360D+01  1  2 12  3  6  5       21 0.222352458001D-07 0.100000000000D+01
-.984166253137D-02 0.000000000000D+00 0.000000000000D+00 0.270573286449D-04 0.000000000000D+00  6 2 -1 25 24 21 21 4 0.33319152D+00 0.21708758D-02 0.14726224D+05 0.14726224D+05 0.14726224D+05 0.12487356D+01  1  2  4  3  6  5       21 -.100367663048D+02 0.100000000000D+01
-.409799987122D-02 0.000000000000D+00 0.000000000000D+00 0.270573286449D-04 0.000000000000D+00  6 2 -1 25 24 21 21 4 0.33319152D+00 0.21708758D-02 0.14726224D+05 0.14726224D+05 0.14726224D+05 0.12487356D+01  1  2  5  3  6  5       21 -.417923972636D+01 0.100000000000D+01
0.893805813211D-02 0.000000000000D+00 -.000000000000D+00 0.270573286449D-04 0.000000000000D+00  6 2 -1 25 24 21 21 4 0.33319152D+00 0.21708758D-02 0.14726224D+05 0.14726224D+05 0.14726224D+05 0.12487356D+01  1  2  6  3  6  5       21 0.911524860815D+01 0.100000000000D+01
0.406020377751D-02 0.000000000000D+00 0.000000000000D+00 0.270573286449D-04 0.435227723884D-03  6 2 -1 25 24 21 21 4 0.33319152D+00 0.21708758D-02 0.14726093D+05 0.14726093D+05 0.14726093D+05 0.12487360D+01  1  2 11  3  6  5       21 0.414070009065D+01 0.100000000000D+01
0.281840216453D-12 0.000000000000D+00 0.000000000000D+00 0.270573477908D-04 0.000000000000D+00  6 2 -1 25 24 1 -1 4 0.33319152D+00 0.21708758D-02 0.14726093D+05 0.14726093D+05 0.14726093D+05 0.12487360D+01  1  2 12  6  6  5       21 0.287427891250D-09 0.100000000000D+01
0.281526761176D-12 0.000000000000D+00 0.000000000000D+00 0.270573477908D-04 0.000000000000D+00  6 2 -1 25 24 1 -1 4 0.33319152D+00 0.21708758D-02 0.14726093D+05 0.14726093D+05 0.14726093D+05 0.12487360D+01  1  2 12  6  6  5       21 0.287108221508D-09 0.100000000000D+01
-.533304071796D-04 0.000000000000D+00 0.000000000000D+00 0.270573286449D-04 0.000000000000D+00  6 2 -1 25 24 1 -1 4 0.33319152D+00 0.21708758D-02 0.14726224D+05 0.14726224D+05 0.14726224D+05 0.12487356D+01  1  2  5  6  6  5       21 -.543876435608D-01 0.100000000000D+01
0.509060053052D-04 0.000000000000D+00 0.000000000000D+00 0.270573286449D-04 0.390404413401D-05  6 2 -1 25 24 1 -1 4 0.33319152D+00 0.21708758D-02 0.14726093D+05 0.14726093D+05 0.14726093D+05 0.12487360D+01  1  2 11  6  6  5       21 0.519152516308D-01 0.100000000000D+01
0.281840216453D-12 0.000000000000D+00 0.000000000000D+00 0.270573477908D-04 0.000000000000D+00  6 2 -1 25 24 2 -2 4 0.33319152D+00 0.21708758D-02 0.14726093D+05 0.14726093D+05 0.14726093D+05 0.12487360D+01  1  2 12  7  6  5       21 0.287427891250D-09 0.100000000000D+01
0.281526761176D-12 0.000000000000D+00 0.000000000000D+00 0.270573477908D-04 0.000000000000D+00  6 2 -1 25 24 2 -2 4 0.33319152D+00 0.21708758D-02 0.14726093D+05 0.14726093D+05 0.14726093D+05 0.12487360D+01  1  2 12  7  6  5       21 0.287108221508D-09 0.100000000000D+01
-.533304071796D-04 0.000000000000D+00 0.000000000000D+00 0.270573286449D-04 0.000000000000D+00  6 2 -1 25 24 2 -2 4 0.33319152D+00 0.21708758D-02 0.14726224D+05 0.14726224D+05 0.14726224D+05 0.12487356D+01  1  2  5  7  6  5       21 -.543876435608D-01 0.100000000000D+01
0.503633256101D-04 0.000000000000D+00 0.000000000000D+00 0.270573286449D-04 0.386214827697D-05  6 2 -1 25 24 2 -2 4 0.33319152D+00 0.21708758D-02 0.14726093D+05 0.14726093D+05 0.14726093D+05 0.12487360D+01  1  2 11  7  6  5       21 0.513618129401D-01 0.100000000000D+01
0.281840216453D-12 0.000000000000D+00 0.000000000000D+00 0.270573477908D-04 0.000000000000D+00  6 2 -1 25 24 3 -3 4 0.33319152D+00 0.21708758D-02 0.14726093D+05 0.14726093D+05 0.14726093D+05 0.12487360D+01  1  2 12  8  6  5       21 0.287427891250D-09 0.100000000000D+01
0.281840216453D-12 0.000000000000D+00 0.000000000000D+00 0.270573477908D-04 0.000000000000D+00  6 2 -1 25 24 4 -4 4 0.33319152D+00 0.21708758D-02 0.14726093D+05 0.14726093D+05 0.14726093D+05 0.12487360D+01  1  2 12  8  6  5       21 0.287427891250D-09 0.100000000000D+01
0.281526761176D-12 0.000000000000D+00 0.000000000000D+00 0.270573477908D-04 0.000000000000D+00  6 2 -1 25 24 3 -3 4 0.33319152D+00 0.21708758D-02 0.14726093D+05 0.14726093D+05 0.14726093D+05 0.12487360D+01  1  2 12  8  6  5       21 0.287108221508D-09 0.100000000000D+01
0.281526761176D-12 0.000000000000D+00 0.000000000000D+00 0.270573477908D-04 0.000000000000D+00  6 2 -1 25 24 4 -4 4 0.33319152D+00 0.21708758D-02 0.14726093D+05 0.14726093D+05 0.14726093D+05 0.12487360D+01  1  2 12  8  6  5       21 0.287108221508D-09 0.100000000000D+01
-.533304071796D-04 0.000000000000D+00 0.000000000000D+00 0.270573286449D-04 0.000000000000D+00  6 2 -1 25 24 3 -3 4 0.33319152D+00 0.21708758D-02 0.14726224D+05 0.14726224D+05 0.14726224D+05 0.12487356D+01  1  2  5  8  6  5       21 -.543876435608D-01 0.100000000000D+01
-.533304071796D-04 0.000000000000D+00 0.000000000000D+00 0.270573286449D-04 0.000000000000D+00  6 2 -1 25 24 4 -4 4 0.33319152D+00 0.21708758D-02 0.14726224D+05 0.14726224D+05 0.14726224D+05 0.12487356D+01  1  2  5  8  6  5       21 -.543876435608D-01 0.100000000000D+01
0.504007077460D-04 0.000000000000D+00 0.000000000000D+00 0.270573286449D-04 0.386501265955D-05  6 2 -1 25 24 3 -3 4 0.33319152D+00 0.21708758D-02 0.14726093D+05 0.14726093D+05 0.14726093D+05 0.12487360D+01  1  2 11  8  6  5       21 0.513999362024D-01 0.100000000000D+01
0.504007077460D-04 0.000000000000D+00 0.000000000000D+00 0.270573286449D-04 0.386501265955D-05  6 2 -1 25 24 4 -4 4 0.33319152D+00 0.21708758D-02 0.14726093D+05 0.14726093D+05 0.14726093D+05 0.12487360D+01  1  2 11  8  6  5       21 0.513999362024D-01 0.100000000000D+01
  </mgrwgt>
  </event>
  <event>
  5     66 0.42622971E-03 0.24804459E+02 0.75467711E-02 0.11065060E+00
        2 -1    0    0  502    0 0.00000000E+00 0.00000000E+00 0.28301827E+04 0.28301827E+04 0.32000000E+00 0.0000E+00 0.9000E+01
       -1 -1    0    0    0  501 0.00000000E+00 0.00000000E+00 -.16832964E+02 0.16836005E+02 0.32000000E+00 0.0000E+00 0.9000E+01
       25  1    1    2    0    0 -.15846030E+03 -.60229320E+02 0.13951309E+04 0.14109403E+04 0.12500000E+03 0.0000E+00 0.9000E+01
       24  1    1    2    0    0 0.16089706E+03 0.84904697E+02 0.13126170E+04 0.13276021E+04 0.80419002E+02 0.0000E+00 0.9000E+01
       21  1    1    2  502  501 -.24367627E+01 -.24675377E+02 0.10560181E+03 0.10847634E+03 0.75000000E+00 0.0000E+00 0.9000E+01
#aMCatNLO 1  0  0  1  1 0.80708647D+02 0.00000000D+00  -5  6  0 0.00000000D+00 0.00000000D+00 0.00000000D+00 0.00000000D+00 0.00000000D+00
  <mgrwgt>
 0.2172386790D+01    7    4    0
 0.218276697401223D+03 0.000000000000000D+00 0.000000000000000D+00 0.218276697401223D+03
 0.218276697401223D+03 0.000000000000000D+00 0.000000000000000D+00 -.218276697401223D+03
 0.210699378551426D+03 -.158459838618430D+03 -.602246853835272D+02 0.571794870852953D+01
 0.198963670908703D+03 0.160897491166950D+03 0.849090735326663D+02 0.466614992276114D+01
 0.268903453423164D+02 -.243765254851933D+01 -.246843881491392D+02 -.103840986312907D+02
 0.000000000000000D+00 0.000000000000000D+00 -.000000000000000D+00 0.000000000000000D+00
 0.290298878772495D+03 0.000000000000000D+00 0.000000000000000D+00 0.290298878772495D+03
 0.245810460222983D+03 0.000000000000000D+00 0.000000000000000D+00 -.245810460222983D+03
 0.219337259121716D+03 -.178237203402685D+03 -.261273348197513D+02 0.571794870852953D+01
 0.200989475947217D+03 0.142503664713511D+03 0.116621121908872D+03 0.466614992276114D+01
 0.236245598092618D+02 -.476083066569210D+01 -.206790912075367D+02 -.103840986312907D+02
 0.921580441172828D+02 0.404943693548667D+02 -.698146958815842D+02 0.444884185495123D+02
 0.218276697401223D+03 0.000000000000000D+00 0.000000000000000D+00 0.218276697401223D+03
 0.218276697401223D+03 0.000000000000000D+00 0.000000000000000D+00 -.218276697401223D+03
 0.210699378551426D+03 -.158459838618430D+03 -.602246853835272D+02 0.571794870852953D+01
 0.198963670908703D+03 0.160897491166950D+03 0.849090735326663D+02 0.466614992276114D+01
 0.000000000000000D+00 0.000000000000000D+00 -.000000000000000D+00 0.000000000000000D+00
 0.268903453423164D+02 -.243765254851933D+01 -.246843881491392D+02 -.103840986312907D+02
 0.290298878772495D+03 0.000000000000000D+00 0.000000000000000D+00 0.290298878772495D+03
 0.245810460222983D+03 0.000000000000000D+00 0.000000000000000D+00 -.245810460222983D+03
 0.219337259121716D+03 -.178237203402685D+03 -.261273348197513D+02 0.571794870852953D+01
 0.200989475947217D+03 0.142503664713511D+03 0.116621121908872D+03 0.466614992276114D+01
 0.921580441172828D+02 0.404943693548667D+02 -.698146958815842D+02 0.444884185495123D+02
 0.236245598092618D+02 -.476083066569210D+01 -.206790912075367D+02 -.103840986312907D+02
0.297884400671D-02 0.000000000000D+00 0.000000000000D+00 0.267383039169D-04 0.000000000000D+00  6 2 -1 25 24 21 21 2 0.43541295D+00 0.25899220D-02 0.47161763D+05 0.47161763D+05 0.47161763D+05 0.11948035D+01  1  2  2  1  6  1        2 0.598865634614D+00 0.100000000000D+01
0.983887872500D-03 0.157197917003D-03 -.114395453334D-04 0.267383039169D-04 0.000000000000D+00  6 2 -1 25 24 21 21 4 0.43541295D+00 0.25899220D-02 0.47161763D+05 0.47161763D+05 0.47161763D+05 0.11948035D+01  1  2  3  1  6  1        2 0.282371074210D+00 0.100000000000D+01
0.388571347211D-04 0.000000000000D+00 0.000000000000D+00 0.267383039169D-04 0.000000000000D+00  6 2 -1 25 24 21 21 4 0.43541295D+00 0.25899220D-02 0.47161763D+05 0.47161763D+05 0.47161763D+05 0.11948035D+01  1  2 15  1  6  1        2 0.111518102607D-01 0.100000000000D+01
-.321897163083D-03 0.000000000000D+00 0.000000000000D+00 0.267383039169D-04 0.000000000000D+00  6 2 -1 25 24 21 21 4 0.43541295D+00 0.25899220D-02 0.47161763D+05 0.47161763D+05 0.47161763D+05 0.11948035D+01  1  2  4  1  6  1        2 -.923829333256D-01 0.100000000000D+01
-.570092076567D-02 0.000000000000D+00 -.173439938024D-02 0.267383039169D-04 0.000000000000D+00  6 2 -1 25 24 21 21 4 0.59465968D+00 0.25899220D-02 0.47161763D+05 0.47161763D+05 0.47161763D+05 0.11948035D+01  1  2  5  1  6  1        2 -.356868966797D+00 0.100000000000D+01
0.602732799324D-02 0.000000000000D+00 0.165342889573D-02 0.267383039169D-04 0.000000000000D+00  6 2 -1 25 24 21 21 4 0.43541295D+00 0.25899220D-02 0.47161763D+05 0.47161763D+05 0.47161763D+05 0.11948035D+01  1  2  6  1  6  1        2 0.172981406483D+01 0.100000000000D+01
-.185289775697D-03 0.000000000000D+00 -.689198355385D-04 0.267383039169D-04 0.000000000000D+00  6 21 -1 25 24 -2 21 4 0.59465968D+00 0.25899220D-02 0.47161763D+05 0.47161763D+05 0.47161763D+05 0.11948035D+01  3  4  5  4  5  1        2 -.563894061866D-03 0.100000000000D+01
  </mgrwgt>
  </event>
  <event>
  5     66 -.42622971E-03 0.19491212E+03 0.75467711E-02 0.97097079E-01
        2 -1    0    0  502    0 0.00000000E+00 0.00000000E+00 0.49022354E+03 0.49022365E+03 0.32000000E+00 0.0000E+00 0.9000E+01
       -1 -1    0    0    0  501 0.00000000E+00 0.00000000E+00 -.10448016E+04 0.10448017E+04 0.32000000E+00 0.0000E+00 0.9000E+01
       25  1    1    2    0    0 0.21954184E+03 0.28400969E+03 -.61676737E+03 0.72449093E+03 0.12500000E+03 0.0000E+00 0.9000E+01
       24  1    1    2    0    0 -.53917805E+02 -.38676842E+03 -.22925801E+03 0.45991672E+03 0.80419002E+02 0.0000E+00 0.9000E+01
       21  1    1    2  502  501 -.16562403E+03 0.10275873E+03 0.29144728E+03 0.35061768E+03 0.75000000E+00 0.0000E+00 0.9000E+01
#aMCatNLO 1  0  0  1  5 0.92455705D+01 0.00000000D+00  -5  6  0 0.00000000D+00 0.00000000D+00 0.00000000D+00 0.00000000D+00 0.00000000D+00
  <mgrwgt>
 -.3055416720D-01    5    4    0
 0.715672048210129D+03 0.000000000000000D+00 0.000000000000000D+00 0.715672048210129D+03
 0.715672048210129D+03 0.000000000000000D+00 0.000000000000000D+00 -.715672048210129D+03
 0.538002340814727D+03 0.219541908812060D+03 0.284009643453920D+03 -.380737956372175D+03
 0.404404801501110D+03 -.539177502453553D+02 -.386768456160372D+03 -.676687893388348D+02
 0.488936954104419D+03 -.165624158566704D+03 0.102758812706452D+03 0.448406745711010D+03
 0.000000000000000D+00 0.000000000000000D+00 -.000000000000000D+00 0.000000000000000D+00
 0.230086505712672D+04 0.000000000000000D+00 0.000000000000000D+00 0.230086505712672D+04
 0.753297013132314D+03 0.000000000000000D+00 0.000000000000000D+00 -.753297013132314D+03
 0.534953880694297D+03 0.107265526861825D+03 0.337762297769427D+03 -.380737956372175D+03
 0.387596642314073D+03 -.136794436943595D+03 -.347090994048353D+03 -.676687893388348D+02
 0.547850329394926D+03 -.274115747235254D+03 0.154699485896523D+03 0.448406745711010D+03
 0.158376121785574D+04 0.303644657317023D+03 -.145370789617597D+03 0.154756804399441D+04
 0.715672048210129D+03 0.000000000000000D+00 0.000000000000000D+00 0.715672048210129D+03
 0.715672048210129D+03 0.000000000000000D+00 0.000000000000000D+00 -.715672048210129D+03
 0.538002340814727D+03 0.219541908812060D+03 0.284009643453920D+03 -.380737956372175D+03
 0.404404801501110D+03 -.539177502453553D+02 -.386768456160372D+03 -.676687893388348D+02
 0.000000000000000D+00 0.000000000000000D+00 -.000000000000000D+00 0.000000000000000D+00
 0.488936954104419D+03 -.165624158566704D+03 0.102758812706452D+03 0.448406745711010D+03
 0.230086505712672D+04 0.000000000000000D+00 0.000000000000000D+00 0.230086505712672D+04
 0.753297013132314D+03 0.000000000000000D+00 0.000000000000000D+00 -.753297013132314D+03
 0.534953880694297D+03 0.107265526861825D+03 0.337762297769427D+03 -.380737956372175D+03
 0.387596642314073D+03 -.136794436943595D+03 -.347090994048353D+03 -.676687893388348D+02
 0.158376121785574D+04 0.303644657317023D+03 -.145370789617597D+03 0.154756804399441D+04
 0.547850329394926D+03 -.274115747235254D+03 0.154699485896523D+03 0.448406745711010D+03
0.119704030097D-01 0.000000000000D+00 0.000000000000D+00 0.531559208508D-06 0.000000000000D+00  6 2 -1 25 24 21 21 2 0.75419019D-01 0.16073873D+00 0.23703618D+06 0.23703618D+06 0.23703618D+06 0.11306342D+01  1  2  2  1  6  1        2 0.336669602739D-01 0.100000000000D+01
-.110060620157D-04 0.631695521679D-03 -.459694994369D-04 0.531559208508D-06 0.000000000000D+00  6 2 -1 25 24 21 21 4 0.75419019D-01 0.16073873D+00 0.23703618D+06 0.23703618D+06 0.23703618D+06 0.11306342D+01  1  2  3  1  6  1        2 -.395704836648D-04 0.100000000000D+01
0.136475842576D-03 0.000000000000D+00 0.000000000000D+00 0.531559208508D-06 0.000000000000D+00  6 2 -1 25 24 21 21 4 0.75419019D-01 0.16073873D+00 0.23703618D+06 0.23703618D+06 0.23703618D+06 0.11306342D+01  1  2 15  1  6  1        2 0.490676419195D-03 0.100000000000D+01
-.922553516833D-01 0.000000000000D+00 -.749195052312D-02 0.531559208508D-06 0.000000000000D+00  6 2 -1 25 24 21 21 4 0.24554357D+00 0.16073873D+00 0.23703618D+06 0.23703618D+06 0.23703618D+06 0.11306342D+01  1  2  5  1  6  1        2 -.613773539267D-01 0.100000000000D+01
-.122719060552D-01 0.000000000000D+00 -.102167279349D-02 0.531559208508D-06 0.000000000000D+00  6 21 -1 25 24 -2 21 4 0.24554357D+00 0.16073873D+00 0.23703618D+06 0.23703618D+06 0.23703618D+06 0.11306342D+01  3  4  5  4  5  1        2 -.329487948542D-02 0.100000000000D+01
  </mgrwgt>
  </event>
  <event>
  6     66 0.42622971E-03 0.18481431E+03 0.75467711E-02 0.10055264E+00
        2 -1    0    0  502    0 0.00000000E+00 0.00000000E+00 0.16004954E+04 0.16004954E+04 0.32000000E+00 0.0000E+00 0.9000E+01
       -1 -1    0    0    0  501 0.00000000E+00 0.00000000E+00 -.20264856E+03 0.20264882E+03 0.32000000E+00 0.0000E+00 0.9000E+01
       25  1    1    2    0    0 -.13263780E+03 -.67799051E+02 0.10110267E+03 0.21917173E+03 0.12500000E+03 0.0000E+00 0.9000E+01
       24  1    1    2    0    0 0.10702755E+03 0.39900271E+03 0.85312662E+03 0.95128876E+03 0.80419002E+02 0.0000E+00 0.9000E+01
        3  1    1    2  502    0 -.13750691E+03 -.11234282E+03 0.19057468E+03 0.26047652E+03 0.50000000E+00 0.0000E+00 0.9000E+01
       -3  1    1    2    0  501 0.16311716E+03 -.21886084E+03 0.25304283E+03 0.37220720E+03 0.50000000E+00 0.0000E+00 0.9000E+01
#aMCatNLO 2  0  0  5  1 0.14562815D+03 0.00000000D+00  -5  6  0 0.00000000D+00 0.00000000D+00 0.00000000D+00 0.00000000D+00 0.00000000D+00
  <mgrwgt>
 0.1940952152D-02    2    2    0
 0.569507106304308D+03 0.000000000000000D+00 0.000000000000000D+00 0.569507106304308D+03
 0.569507106304308D+03 -.000000000000000D+00 -.000000000000000D+00 -.569507106304308D+03
 0.215551181883572D+03 -.134420397051191D+03 -.447456414014953D+02 -.103760765434599D+03
 0.507190390939093D+03 0.103099351190651D+03 0.449803948118291D+03 0.194478298912356D+03
 0.416272639785951D+03 0.313210458605396D+02 -.405058306716796D+03 -.907175334777569D+02
 0.000000000000000D+00 0.000000000000000D+00 0.000000000000000D+00 -.000000000000000D+00
 0.569507106304308D+03 0.000000000000000D+00 0.000000000000000D+00 0.569507106304308D+03
 0.569507106304308D+03 -.000000000000000D+00 -.000000000000000D+00 -.569507106304308D+03
 0.222876797227409D+03 -.132640078470876D+03 -.677695478434964D+02 -.108917237894998D+03
 0.459024656027389D+03 0.107022847597477D+03 0.399063470995186D+03 0.183114377087365D+03
 0.178002711691495D+03 -.137345660263797D+03 -.111812220633298D+03 -.178651138613147D+02
 0.279110047662322D+03 0.162962891137196D+03 -.219481702518391D+03 -.563320253310529D+02
-.266751533760D-04 0.000000000000D+00 0.000000000000D+00 0.818940483939D-07 0.000000000000D+00  6 2 -1 25 24 3 -3 4 0.24623008D+00 0.31176724D-01 0.28400369D+06 0.28400369D+06 0.28400369D+06 0.11240915D+01  1  2 13  8  6  5       21 -.538800404961D-03 0.100000000000D+01
0.122768615557D-03 0.000000000000D+00 0.000000000000D+00 0.819158046336D-07 0.129119614721D-11  6 2 -1 25 24 3 -3 4 0.24623008D+00 0.31176724D-01 0.28400369D+06 0.28400369D+06 0.28400369D+06 0.11240915D+01  1  2  1  8  6  5       21 0.247975255647D-02 0.100000000000D+01
  </mgrwgt>
  </event>
  <event>
  5     66 0.42622971E-03 0.71744717E+02 0.75467711E-02 0.11228709E+00
        2 -1    0    0  502    0 0.00000000E+00 0.00000000E+00 0.11983937E+04 0.11983937E+04 0.32000000E+00 0.0000E+00 0.9000E+01
       -1 -1    0    0    0  501 0.00000000E+00 0.00000000E+00 -.27159404E+03 0.27159423E+03 0.32000000E+00 0.0000E+00 0.9000E+01
       25  1    1    2    0    0 0.14503244E+03 0.23505910E+02 0.99185387E+03 0.10104385E+04 0.12500000E+03 0.0000E+00 0.9000E+01
       24  1    1    2    0    0 -.50917537E+02 -.99126546E+02 0.15586143E+03 0.20779478E+03 0.80419002E+02 0.0000E+00 0.9000E+01
       21  1    1    2  502  501 -.94114904E+02 0.75620636E+02 -.22091567E+03 0.25175463E+03 0.75000000E+00 0.0000E+00 0.9000E+01
#aMCatNLO 1  0  0  2  5 0.19618180D+02 0.00000000D+00  -5  6  0 0.00000000D+00 0.00000000D+00 0.00000000D+00 0.00000000D+00 0.00000000D+00
  <mgrwgt>
 0.1524148977D+00    9    4    0
 0.570505695612373D+03 0.000000000000000D+00 0.000000000000000D+00 0.570505695612373D+03
 0.570505695612373D+03 0.000000000000000D+00 0.000000000000000D+00 -.570505695612373D+03
 0.496123816758854D+03 0.145032486212379D+03 0.235058731169092D+02 0.457085214623532D+03
 0.141105970997553D+03 -.509175244472238D+02 -.991265562486048D+02 0.320157874688466D+02
 0.503781603468338D+03 -.941149617651555D+02 0.756206831316955D+02 -.489101002092379D+03
 0.000000000000000D+00 0.000000000000000D+00 0.000000000000000D+00 -.000000000000000D+00
 0.571622288973224D+03 0.000000000000000D+00 0.000000000000000D+00 0.571622288973224D+03
 0.663800148555252D+03 0.000000000000000D+00 0.000000000000000D+00 -.663800148555252D+03
 0.493690251616398D+03 0.136865464109195D+03 0.211190872860778D+02 0.457085214623532D+03
 0.142445228908549D+03 -.532571243690745D+02 -.998102967690462D+02 0.320157874688466D+02
 0.505044552556373D+03 -.102438853875568D+03 0.731880525479291D+02 -.489101002092379D+03
 0.942424044471540D+02 0.188305141354473D+02 0.550315693503932D+01 -.921778595820277D+02
 0.570505695612373D+03 0.000000000000000D+00 0.000000000000000D+00 0.570505695612373D+03
 0.570505695612373D+03 0.000000000000000D+00 0.000000000000000D+00 -.570505695612373D+03
 0.496123816758854D+03 0.145032486212379D+03 0.235058731169092D+02 0.457085214623532D+03
 0.141105970997553D+03 -.509175244472238D+02 -.991265562486048D+02 0.320157874688466D+02
 0.000000000000000D+00 0.000000000000000D+00 0.000000000000000D+00 -.000000000000000D+00
 0.503781603468338D+03 -.941149617651555D+02 0.756206831316955D+02 -.489101002092379D+03
 0.571622288973224D+03 0.000000000000000D+00 0.000000000000000D+00 0.571622288973224D+03
 0.663800148555252D+03 0.000000000000000D+00 0.000000000000000D+00 -.663800148555252D+03
 0.493690251616398D+03 0.136865464109195D+03 0.211190872860778D+02 0.457085214623532D+03
 0.142445228908549D+03 -.532571243690745D+02 -.998102967690462D+02 0.320157874688466D+02
 0.942424044471540D+02 0.188305141354473D+02 0.550315693503932D+01 -.921778595820277D+02
 0.505044552556373D+03 -.102438853875568D+03 0.731880525479291D+02 -.489101002092379D+03
0.629028855832D-03 0.000000000000D+00 0.000000000000D+00 0.298399884360D-05 0.000000000000D+00  6 2 -1 25 24 21 21 2 0.18436827D+00 0.41783717D-01 0.50864116D+05 0.50864116D+05 0.50864116D+05 0.11915455D+01  1  2  2  2  6  2       -1 0.119008038825D-01 0.100000000000D+01
0.174542796742D-04 0.331947646969D-04 -.241563643350D-05 0.298399884360D-05 0.000000000000D+00  6 2 -1 25 24 21 21 4 0.18436827D+00 0.41783717D-01 0.50864116D+05 0.50864116D+05 0.50864116D+05 0.11915455D+01  1  2  3  2  6  2       -1 0.468844592683D-03 0.100000000000D+01
0.901212586225D-05 0.000000000000D+00 0.000000000000D+00 0.298399884360D-05 0.000000000000D+00  6 2 -1 25 24 21 21 4 0.18436827D+00 0.41783717D-01 0.50864116D+05 0.50864116D+05 0.50864116D+05 0.11915455D+01  1  2 15  2  6  2       -1 0.242077390644D-03 0.100000000000D+01
0.253319799762D-01 0.000000000000D+00 0.000000000000D+00 0.296563083581D-05 0.000000000000D+00  6 2 -1 25 24 21 21 4 0.18436827D+00 0.51816321D-01 0.55430244D+05 0.55430244D+05 0.55430244D+05 0.11878725D+01  1  2 12  2  6  2       -1 0.452608070808D+00 0.100000000000D+01
-.190324979403D-01 0.000000000000D+00 0.000000000000D+00 0.298399884360D-05 0.000000000000D+00  6 2 -1 25 24 21 21 4 0.18436827D+00 0.41783717D-01 0.50864116D+05 0.50864116D+05 0.50864116D+05 0.11915455D+01  1  2  4  2  6  2       -1 -.511237582480D+00 0.100000000000D+01
-.397691338305D-01 0.000000000000D+00 -.980055454145D-03 0.298399884360D-05 0.000000000000D+00  6 2 -1 25 24 21 21 4 0.18436827D+00 0.48662119D-01 0.50864116D+05 0.50864116D+05 0.50864116D+05 0.11915455D+01  1  2  5  2  6  2       -1 -.810456374770D+00 0.100000000000D+01
0.394705405541D-01 0.000000000000D+00 0.968784151701D-03 0.298399884360D-05 0.000000000000D+00  6 2 -1 25 24 21 21 4 0.18436827D+00 0.41783717D-01 0.50864116D+05 0.50864116D+05 0.50864116D+05 0.11915455D+01  1  2  6  2  6  2       -1 0.106022991808D+01 0.100000000000D+01
0.766516065192D-03 0.000000000000D+00 0.000000000000D+00 0.296563083581D-05 0.000000000000D+00  6 2 21 25 24 1 21 4 0.18436827D+00 0.51816321D-01 0.55430244D+05 0.55430244D+05 0.55430244D+05 0.11878725D+01  3  4 12  5  5  2       -1 0.134680344505D+00 0.100000000000D+01
-.911860910380D-03 0.000000000000D+00 -.226440143697D-04 0.298399884360D-05 0.000000000000D+00  6 2 21 25 24 1 21 4 0.18436827D+00 0.48662119D-01 0.50864116D+05 0.50864116D+05 0.50864116D+05 0.11915455D+01  3  4  5  5  5  2       -1 -.186021204295D+00 0.100000000000D+01
  </mgrwgt>
  </event>
  <event>
  6     66 -.42622971E-03 0.36632981E+03 0.75467711E-02 0.10408024E+00
        2 -1    0    0  502    0 0.00000000E+00 0.00000000E+00 0.38123724E+04 0.38123724E+04 0.32000000E+00 0.0000E+00 0.9000E+01
       -1 -1    0    0    0  503 0.00000000E+00 0.00000000E+00 -.70102623E+02 0.70103354E+02 0.32000000E+00 0.0000E+00 0.9000E+01
       25  1    1    2    0    0 -.10071940E+03 -.18989728E+03 0.68767783E+03 0.73125315E+03 0.12500000E+03 0.0000E+00 0.9000E+01
       24  1    1    2    0    0 -.18110601E+02 -.14711070E+03 0.19063280E+04 0.19137720E+04 0.80419002E+02 0.0000E+00 0.9000E+01
       21  1    1    2  502  501 0.13510994E+03 0.35260148E+03 0.11539749E+04 0.12141833E+04 0.75000000E+00 0.0000E+00 0.9000E+01
       21  1    1    2  501  503 -.16279944E+02 -.15593502E+02 -.57108879E+01 0.23267373E+02 0.75000000E+00 0.0000E+00 0.9000E+01
#aMCatNLO 2  0  0  2  5 0.22543156D+02 0.00000000D+00  -5  6  0 0.00000000D+00 0.00000000D+00 0.00000000D+00 0.00000000D+00 0.00000000D+00
  <mgrwgt>
 -.1619545761D-01    2    2    0
 0.459788587193835D+03 0.000000000000000D+00 0.000000000000000D+00 0.459788587193835D+03
 0.459788587193835D+03 0.000000000000000D+00 0.000000000000000D+00 -.459788587193835D+03
 0.271055120486555D+03 -.105472444603253D+03 -.194450044519064D+03 -.943960907979195D+02
 0.264636169288601D+03 -.227693995445772D+02 -.151573179467160D+03 0.200180448226019D+03
 0.383885884612514D+03 0.128241844147830D+03 0.346023223986224D+03 -.105784357428100D+03
 0.000000000000000D+00 -.000000000000000D+00 -.000000000000000D+00 -.000000000000000D+00
 0.460987021462122D+03 0.000000000000000D+00 0.000000000000000D+00 0.460987021462122D+03
 0.579750391872925D+03 0.000000000000000D+00 0.000000000000000D+00 -.579750391872925D+03
 0.265971962308814D+03 -.100719467837134D+03 -.189897476484225D+03 -.943960907979195D+02
 0.261742308660021D+03 -.181106686238721D+02 -.147110883412254D+03 0.200180448226019D+03
 0.392139181249863D+03 0.135110080827385D+03 0.352601862237927D+03 -.105784357428100D+03
 0.120883961116349D+03 -.162799443663794D+02 -.155935023414487D+02 -.118763370410804D+03
-.130635743341D-01 0.000000000000D+00 0.000000000000D+00 0.171286416266D-06 0.000000000000D+00  6 2 -1 25 24 21 21 4 0.58499264D+00 0.10822773D-01 0.16704962D+06 0.16704962D+06 0.16704962D+06 0.11436393D+01  1  2 13  2  6  2       -1 -.815746728437D-01 0.100000000000D+01
0.105875835721D-01 0.000000000000D+00 0.000000000000D+00 0.171884991868D-06 0.964759018921D-09  6 2 -1 25 24 21 21 4 0.58651741D+00 0.10785049D-01 0.16704962D+06 0.16704962D+06 0.16704962D+06 0.11436393D+01  1  2  1  2  6  2       -1 0.653792152335D-01 0.100000000000D+01
  </mgrwgt>
  </event>
  <event>
  5     66 0.42622971E-03 0.40470877E+02 0.75467711E-02 0.89764960E-01
        2 -1    0    0  502    0 0.00000000E+00 0.00000000E+00 0.55572386E+03 0.55572395E+03 0.32000000E+00 0.0000E+00 0.9000E+01
       -1 -1    0    0    0  501 0.00000000E+00 0.00000000E+00 -.38850851E+02 0.38852169E+02 0.32000000E+00 0.0000E+00 0.9000E+01
       25  1    1    2    0    0 -.12251153E+02 0.18391331E+02 0.21593140E+03 0.25047895E+03 0.12500000E+03 0.0000E+00 0.9000E+01
       24  1    1    2    0    0 0.25914186E+02 -.56483272E+02 0.11357498E+03 0.15240865E+03 0.80419002E+02 0.0000E+00 0.9000E+01
       21  1    1    2  502  501 -.13663033E+02 0.38091941E+02 0.18736662E+03 0.19168852E+03 0.75000000E+00 0.0000E+00 0.9000E+01
#aMCatNLO 1  0  0  1  5 0.14014806D+02 0.00000000D+00  -5  6  0 0.00000000D+00 0.00000000D+00 0.00000000D+00 0.00000000D+00 0.00000000D+00
  <mgrwgt>
 0.1917641532D+00    3    2    0
 0.146937959454964D+03 0.000000000000000D+00 0.000000000000000D+00 0.146937959454964D+03
 0.146937959454964D+03 0.000000000000000D+00 0.000000000000000D+00 -.146937959454964D+03
 0.126991103122827D+03 -.122506643549646D+02 0.183899682014993D+02 -.367022679985363D+01
 0.108600405064712D+03 0.259146039242222D+02 -.564844377110041D+02 -.382723611209373D+02
 0.582844107223895D+02 -.136639395692576D+02 0.380944695095048D+02 0.419425879207910D+02
 0.000000000000000D+00 -.000000000000000D+00 -.000000000000000D+00 -.000000000000000D+00
 0.744251689784939D+03 0.000000000000000D+00 0.000000000000000D+00 0.744251689784939D+03
 0.975793450127991D+04 0.000000000000000D+00 0.000000000000000D+00 -.975793450127991D+04
 0.575874024880651D+03 0.519305259699322D+03 0.215207967362034D+03 -.367022679985363D+01
 0.534238005141153D+03 0.512074112399476D+03 0.123524734233050D+03 -.382723611209373D+02
 0.277018206064515D+03 0.239915424668459D+03 0.131986722119544D+03 0.419425879207910D+02
 0.911505595497854D+04 -.127129479676726D+04 -.470719423714628D+03 -.901368281149497D+04
0.139340654851D-03 0.000000000000D+00 0.000000000000D+00 0.154169650503D-04 0.000000000000D+00  6 2 -1 25 24 21 21 2 0.85496086D-01 0.59771625D-02 0.18095895D+05 0.18095895D+05 0.18095895D+05 0.12386384D+01  1  2  2  1  6  1        2 0.172698414080D+00 0.100000000000D+01
0.374017665360D-05 0.735320837446D-05 -.535104803864D-06 0.154169650503D-04 0.000000000000D+00  6 2 -1 25 24 21 21 4 0.85496086D-01 0.59771625D-02 0.18095895D+05 0.18095895D+05 0.18095895D+05 0.12386384D+01  1  2  3  1  6  1        2 0.711199885269D-02 0.100000000000D+01
0.628643245492D-05 0.000000000000D+00 0.000000000000D+00 0.154169650503D-04 0.000000000000D+00  6 2 -1 25 24 21 21 4 0.85496086D-01 0.59771625D-02 0.18095895D+05 0.18095895D+05 0.18095895D+05 0.12386384D+01  1  2 15  1  6  1        2 0.119537403036D-01 0.100000000000D+01
  </mgrwgt>
  </event>
  <event>
  6     66 0.42622971E-03 0.50642494E+02 0.75467711E-02 0.11971563E+00
        2 -1    0    0  502    0 0.00000000E+00 0.00000000E+00 0.18086940E+04 0.18086940E+04 0.32000000E+00 0.0000E+00 0.9000E+01
       -1 -1    0    0    0  503 0.00000000E+00 0.00000000E+00 -.22072688E+02 0.22075007E+02 0.32000000E+00 0.0000E+00 0.9000E+01
       25  1    1    2    0    0 0.22864748E+02 0.39975760E+02 0.51614536E+03 0.53305900E+03 0.12500000E+03 0.0000E+00 0.9000E+01
       24  1    1    2    0    0 -.67430887E+00 0.28326523E+02 0.14828543E+03 0.17105154E+03 0.80419002E+02 0.0000E+00 0.9000E+01
       21  1    1    2  502  501 0.13903203E+01 -.62740184E+02 0.10065583E+04 0.10085129E+04 0.75000000E+00 0.0000E+00 0.9000E+01
       21  1    1    2  501  503 -.23580760E+02 -.55620983E+01 0.11563227E+03 0.11814556E+03 0.75000000E+00 0.0000E+00 0.9000E+01
#aMCatNLO 2  0  0  2  1 0.24227859D+02 0.00000000D+00  -5  6  0 0.00000000D+00 0.00000000D+00 0.00000000D+00 0.00000000D+00 0.00000000D+00
  <mgrwgt>
 0.4164166201D-01    1    2    0
 0.187275065477338D+03 0.000000000000000D+00 0.000000000000000D+00 0.187275065477338D+03
 0.187275065477338D+03 0.000000000000000D+00 0.000000000000000D+00 -.187275065477338D+03
 0.132678292888166D+03 0.144653233181232D+02 0.379949744067627D+02 -.180462113710780D+02
 0.120203157400856D+03 -.823801956677523D+01 0.265428216096816D+02 -.849069888135154D+02
 0.121668680665653D+03 -.622730375134797D+01 -.645377960164443D+02 0.102953200184593D+03
 0.000000000000000D+00 -.000000000000000D+00 -.000000000000000D+00 0.000000000000000D+00
 0.200626737356930D+03 0.000000000000000D+00 0.000000000000000D+00 0.200626737356930D+03
 0.198989297242566D+03 0.000000000000000D+00 0.000000000000000D+00 -.198989297242566D+03
 0.134430507605068D+03 0.228648044475659D+02 0.399761972638873D+02 -.180462113710780D+02
 0.120329888008693D+03 -.674237421843355D+00 0.283269244418579D+02 -.849069888135154D+02
 0.120572509630777D+03 0.139019257565958D+01 -.627410233819743D+02 0.102953200184593D+03
 0.242831293549575D+02 -.235807596013821D+02 -.556209832377091D+01 0.163744011436439D+01
0.550727340432D-04 0.000000000000D+00 0.000000000000D+00 0.791231911264D-05 0.586486156713D-07  6 2 -1 25 24 21 21 4 0.27825273D+00 0.33958803D-02 0.23326880D+05 0.23326880D+05 0.23326880D+05 0.12265362D+01  1  2  1  2  6  2       -1 0.416416620146D-01 0.100000000000D+01
  </mgrwgt>
  </event>
  <event>
  6     66 0.42622971E-03 0.31442036E+02 0.75467711E-02 0.12189469E+00
        2 -1    0    0  503    0 0.00000000E+00 0.00000000E+00 0.13780387E+04 0.13780387E+04 0.32000000E+00 0.0000E+00 0.9000E+01
       -1 -1    0    0    0  501 0.00000000E+00 0.00000000E+00 -.15846846E+02 0.15850077E+02 0.32000000E+00 0.0000E+00 0.9000E+01
       25  1    1    2    0    0 0.35568043E+02 0.18944335E+02 0.48919690E+03 0.50652007E+03 0.12500000E+03 0.0000E+00 0.9000E+01
       24  1    1    2    0    0 -.17585295E+02 -.36912988E+02 0.34085422E+03 0.35259130E+03 0.80419002E+02 0.0000E+00 0.9000E+01
       21  1    1    2  502  501 -.28750680E+02 0.24404496E+02 0.46055284E+03 0.46209486E+03 0.75000000E+00 0.0000E+00 0.9000E+01
       21  1    1    2  503  502 0.10767932E+02 -.64358426E+01 0.71587885E+02 0.72682572E+02 0.75000000E+00 0.0000E+00 0.9000E+01
#aMCatNLO 2  0  0  1  1 0.12544657D+02 0.00000000D+00  -5  6  0 0.00000000D+00 0.00000000D+00 0.00000000D+00 0.00000000D+00 0.00000000D+00
  <mgrwgt>
 0.1086664327D+00    2    2    0
 0.141217884118271D+03 0.000000000000000D+00 0.000000000000000D+00 0.141217884118271D+03
 0.141217884118271D+03 0.000000000000000D+00 0.000000000000000D+00 -.141217884118271D+03
 0.134966106567222D+03 0.406921353714721D+02 0.158814207925644D+02 -.261300691624425D+02
 0.920079754063560D+02 -.140833952031050D+02 -.390062399183807D+02 -.166860064421946D+02
 0.554616862629635D+02 -.266087401683671D+02 0.231248191258163D+02 0.428160756046371D+02
 0.000000000000000D+00 0.000000000000000D+00 -.000000000000000D+00 0.000000000000000D+00
 0.149154292473185D+03 0.000000000000000D+00 0.000000000000000D+00 0.149154292473185D+03
 0.146402794385763D+03 0.000000000000000D+00 0.000000000000000D+00 -.146402794385763D+03
 0.133909661334861D+03 0.355691840370836D+02 0.189433373859818D+02 -.261300691624425D+02
 0.917467869148785D+02 -.175845166026975D+02 -.369136684670338D+02 -.166860064421946D+02
 0.570577742482360D+02 -.287525991143337D+02 0.244061737302487D+02 0.428160756046371D+02
 0.128428643609721D+02 0.107679316799476D+02 -.643584264919673D+01 0.275149808742203D+01
-.146532888843D-05 0.000000000000D+00 0.000000000000D+00 0.219703222492D-04 0.000000000000D+00  6 2 -1 25 24 21 21 4 0.20071060D+00 0.23517025D-02 0.16660085D+05 0.16660085D+05 0.16660085D+05 0.12426589D+01  1  2  8  1  6  1        2 -.363021806925D-02 0.100000000000D+01
0.529875612648D-04 0.000000000000D+00 0.000000000000D+00 0.219703222492D-04 0.294419500186D-06  6 2 -1 25 24 21 21 4 0.21199048D+00 0.24380469D-02 0.18470335D+05 0.18470335D+05 0.18470335D+05 0.12376485D+01  1  2  1  1  6  1        2 0.112296650816D+00 0.100000000000D+01
  </mgrwgt>
  </event>
  <event>
  5     66 -.42622971E-03 0.24608951E+02 0.75467711E-02 0.11438544E+00
        2 -1    0    0  502    0 0.00000000E+00 0.00000000E+00 0.36364419E+03 0.36364433E+03 0.32000000E+00 0.0000E+00 0.9000E+01
       -1 -1    0    0    0  501 0.00000000E+00 0.00000000E+00 -.22865216E+03 0.22865238E+03 0.32000000E+00 0.0000E+00 0.9000E+01
       25  1    1    2    0    0 -.80592976E+02 0.12071812E+03 -.15096166E+03 0.24389038E+03 0.12500000E+03 0.0000E+00 0.9000E+01
       24  1    1    2    0    0 0.62948568E+02 -.13786919E+03 0.22721942E+03 0.28472147E+03 0.80419002E+02 0.0000E+00 0.9000E+01
       21  1    1    2  502  501 0.17644408E+02 0.17151068E+02 0.58734271E+02 0.63684859E+02 0.75000000E+00 0.0000E+00 0.9000E+01
#aMCatNLO 1  0  0  1  1 0.12544657D+02 0.00000000D+00  -5  6  0 0.00000000D+00 0.00000000D+00 0.00000000D+00 0.00000000D+00 0.00000000D+00
  <mgrwgt>
 -.3179900635D+01    5    4    0
 0.288354183544523D+03 0.000000000000000D+00 0.000000000000000D+00 0.288354183544523D+03
 0.288354183544523D+03 0.000000000000000D+00 0.000000000000000D+00 -.288354183544523D+03
 0.285820431971859D+03 -.805938975991800D+02 0.120717224426355D+03 -.212132729038095D+03
 0.239230295720100D+03 0.629477967203261D+02 -.137869938893977D+03 0.166713446588401D+03
 0.516576393970883D+02 0.176461008788539D+02 0.171527144676221D+02 0.454192824496948D+02
 0.000000000000000D+00 -.000000000000000D+00 0.000000000000000D+00 0.000000000000000D+00
 0.719395569752022D+03 0.000000000000000D+00 0.000000000000000D+00 0.719395569752022D+03
 0.289058136878526D+03 0.000000000000000D+00 0.000000000000000D+00 -.289058136878526D+03
 0.279846297444935D+03 -.703189556473002D+02 0.112888883160222D+03 -.212132729038095D+03
 0.245585918379769D+03 0.717541454026010D+02 -.144579378530352D+03 0.166713446588401D+03
 0.518779300449027D+02 0.195267523484358D+02 0.157198711897243D+02 0.454192824496948D+02
 0.431143560760940D+03 -.209619421037367D+02 0.159706241804061D+02 0.430337432873496D+03
 0.288354183544523D+03 0.000000000000000D+00 0.000000000000000D+00 0.288354183544523D+03
 0.288354183544523D+03 0.000000000000000D+00 0.000000000000000D+00 -.288354183544523D+03
 0.285820431971859D+03 -.805938975991800D+02 0.120717224426355D+03 -.212132729038095D+03
 0.239230295720100D+03 0.629477967203261D+02 -.137869938893977D+03 0.166713446588401D+03
 0.000000000000000D+00 -.000000000000000D+00 0.000000000000000D+00 0.000000000000000D+00
 0.516576393970883D+02 0.176461008788539D+02 0.171527144676221D+02 0.454192824496948D+02
 0.719395569752022D+03 0.000000000000000D+00 0.000000000000000D+00 0.719395569752022D+03
 0.289058136878526D+03 0.000000000000000D+00 0.000000000000000D+00 -.289058136878526D+03
 0.279846297444935D+03 -.703189556473002D+02 0.112888883160222D+03 -.212132729038095D+03
 0.245585918379769D+03 0.717541454026010D+02 -.144579378530352D+03 0.166713446588401D+03
 0.431143560760940D+03 -.209619421037367D+02 0.159706241804061D+02 0.430337432873496D+03
 0.518779300449027D+02 0.195267523484358D+02 0.157198711897243D+02 0.454192824496948D+02
0.404123471518D-03 0.000000000000D+00 0.000000000000D+00 0.132785417631D-04 0.000000000000D+00  6 2 -1 25 24 21 21 2 0.55945287D-01 0.35177283D-01 0.37585101D+05 0.37585101D+05 0.37585101D+05 0.12047563D+01  1  2  2  1  6  1        2 0.460269697675D-01 0.100000000000D+01
0.674671916516D-04 0.213261814958D-04 -.155194053878D-05 0.132785417631D-04 0.000000000000D+00  6 2 -1 25 24 21 21 4 0.55945287D-01 0.35177283D-01 0.37585101D+05 0.37585101D+05 0.37585101D+05 0.12047563D+01  1  2  3  1  6  1        2 0.111529400700D-01 0.100000000000D+01
0.722655266514D-05 0.000000000000D+00 0.000000000000D+00 0.132785417631D-04 0.000000000000D+00  6 2 -1 25 24 21 21 4 0.55945287D-01 0.35177283D-01 0.37585101D+05 0.37585101D+05 0.37585101D+05 0.12047563D+01  1  2 15  1  6  1        2 0.119461484632D-02 0.100000000000D+01
-.518227794325D-01 0.000000000000D+00 -.242717635946D-03 0.132785417631D-04 0.000000000000D+00  6 2 -1 25 24 21 21 4 0.13966014D+00 0.35177283D-01 0.37585101D+05 0.37585101D+05 0.37585101D+05 0.12047563D+01  1  2  5  1  6  1        2 -.295777070284D+01 0.100000000000D+01
-.520245001270D-02 0.000000000000D+00 -.244365509240D-04 0.132785417631D-04 0.000000000000D+00  6 21 -1 25 24 -2 21 4 0.13966014D+00 0.35177283D-01 0.37585101D+05 0.37585101D+05 0.37585101D+05 0.12047563D+01  3  4  5  4  5  1        2 -.280504456612D+00 0.100000000000D+01
  </mgrwgt>
  </event>
  <event>
  5     66 -.42622971E-03 0.49099092E+02 0.75467711E-02 0.11920730E+00
        2 -1    0    0  502    0 0.00000000E+00 0.00000000E+00 0.19880162E+04 0.19880162E+04 0.32000000E+00 0.0000E+00 0.9000E+01
       -1 -1    0    0    0  501 0.00000000E+00 0.00000000E+00 -.23357487E+02 0.23359679E+02 0.32000000E+00 0.0000E+00 0.9000E+01
       25  1    1    2    0    0 -.38818908E+02 0.28276719E+02 0.58317775E+03 0.59835421E+03 0.12500000E+03 0.0000E+00 0.9000E+01
       24  1    1    2    0    0 0.74990942E+02 -.65737358E+02 0.25532916E+03 0.28566630E+03 0.80419002E+02 0.0000E+00 0.9000E+01
       21  1    1    2  502  501 -.36172034E+02 0.37460639E+02 0.11261518E+04 0.11273554E+04 0.75000000E+00 0.0000E+00 0.9000E+01
#aMCatNLO 1  0  0  5  2 0.61698449D+00 0.00000000D+00  -5  6  0 0.00000000D+00 0.00000000D+00 0.00000000D+00 0.00000000D+00 0.00000000D+00
  <mgrwgt>
 -.6943981137D-01   25    2    0
 0.215493141214199D+03 0.000000000000000D+00 0.000000000000000D+00 0.215493141214199D+03
 0.215493141214199D+03 -.000000000000000D+00 -.000000000000000D+00 -.215493141214199D+03
 0.134041333861564D+03 -.388187136321376D+02 0.282765183057278D+02 -.596868225315426D+01
 0.169258231339133D+03 0.749911871895717D+02 -.657376121161934D+02 -.110616549931917D+03
 0.127686717227701D+03 -.361724735574341D+02 0.374610938104656D+02 0.116585232185072D+03
 0.000000000000000D+00 0.000000000000000D+00 0.000000000000000D+00 0.000000000000000D+00
 0.215493141214199D+03 0.000000000000000D+00 0.000000000000000D+00 0.215493141214199D+03
 0.215493141214199D+03 -.000000000000000D+00 -.000000000000000D+00 -.215493141214199D+03
 0.134041794880909D+03 -.388199780431005D+02 0.282778277604882D+02 -.596460700943467D+01
 0.169253518793928D+03 0.749895906028340D+02 -.657359586521177D+02 -.110611404073279D+03
 0.112651563619743D+03 -.321629928240910D+02 0.335591754426501D+02 0.102614318797037D+03
 0.150394051338176D+02 -.400661973564254D+01 0.389895544897931D+01 0.139616922856770D+02
0.208590370399D-05 0.000000000000D+00 0.000000000000D+00 0.868506046777D-05 0.000000000000D+00  6 2 -1 25 24 21 21 2 0.30584882D+00 0.35936302D-02 0.24663722D+05 0.24663722D+05 0.24663722D+05 0.12239287D+01  1  2  2  3  6  5       21 0.777026484577D-03 0.100000000000D+01
0.389817111834D-07 0.110076162631D-06 -.801041945437D-08 0.868506046777D-05 0.000000000000D+00  6 2 -1 25 24 21 21 4 0.30584882D+00 0.35936302D-02 0.24663722D+05 0.24663722D+05 0.24663722D+05 0.12239287D+01  1  2  3  3  6  5       21 0.217527769461D-04 0.100000000000D+01
0.106022346037D-06 0.000000000000D+00 0.000000000000D+00 0.868506046777D-05 0.000000000000D+00  6 2 -1 25 24 21 21 4 0.30584882D+00 0.35936302D-02 0.24663722D+05 0.24663722D+05 0.24663722D+05 0.12239287D+01  1  2 15  3  6  5       21 0.591631402171D-04 0.100000000000D+01
0.511763991149D-10 0.000000000000D+00 0.000000000000D+00 0.868506985333D-05 0.000000000000D+00  6 2 -1 25 24 21 21 4 0.30584882D+00 0.35936302D-02 0.24663372D+05 0.24663372D+05 0.24663372D+05 0.12239294D+01  1  2 12  3  6  5       21 0.285577832826D-07 0.100000000000D+01
0.513416690491D-10 0.000000000000D+00 0.000000000000D+00 0.868506985333D-05 0.000000000000D+00  6 2 -1 25 24 21 21 4 0.30584882D+00 0.35936302D-02 0.24663372D+05 0.24663372D+05 0.24663372D+05 0.12239294D+01  1  2 12  3  6  5       21 0.286500082739D-07 0.100000000000D+01
-.623123862083D-02 0.000000000000D+00 0.000000000000D+00 0.868506046777D-05 0.000000000000D+00  6 2 -1 25 24 21 21 4 0.30584882D+00 0.35936302D-02 0.24663722D+05 0.24663722D+05 0.24663722D+05 0.12239287D+01  1  2  4  3  6  5       21 -.347718814034D+01 0.100000000000D+01
-.504393614231D-02 0.000000000000D+00 0.000000000000D+00 0.868506046777D-05 0.000000000000D+00  6 2 -1 25 24 21 21 4 0.30584882D+00 0.35936302D-02 0.24663722D+05 0.24663722D+05 0.24663722D+05 0.12239287D+01  1  2  5  3  6  5       21 -.281464344441D+01 0.100000000000D+01
0.557843148145D-02 0.000000000000D+00 -.000000000000D+00 0.868506046777D-05 0.000000000000D+00  6 2 -1 25 24 21 21 4 0.30584882D+00 0.35936302D-02 0.24663722D+05 0.24663722D+05 0.24663722D+05 0.12239287D+01  1  2  6  3  6  5       21 0.311290530974D+01 0.100000000000D+01
0.556700601707D-02 0.000000000000D+00 0.000000000000D+00 0.868506046777D-05 0.183360511667D-03  6 2 -1 25 24 21 21 4 0.30584882D+00 0.35936302D-02 0.24663372D+05 0.24663372D+05 0.24663372D+05 0.12239294D+01  1  2 11  3  6  5       21 0.310653649178D+01 0.100000000000D+01
0.435465129017D-12 0.000000000000D+00 0.000000000000D+00 0.868506985333D-05 0.000000000000D+00  6 2 -1 25 24 1 -1 4 0.30584882D+00 0.35936302D-02 0.24663372D+05 0.24663372D+05 0.24663372D+05 0.12239294D+01  1  2 12  6  6  5       21 0.243001051200D-09 0.100000000000D+01
0.436247295347D-12 0.000000000000D+00 0.000000000000D+00 0.868506985333D-05 0.000000000000D+00  6 2 -1 25 24 1 -1 4 0.30584882D+00 0.35936302D-02 0.24663372D+05 0.24663372D+05 0.24663372D+05 0.12239294D+01  1  2 12  6  6  5       21 0.243437520685D-09 0.100000000000D+01
-.361114885015D-04 0.000000000000D+00 0.000000000000D+00 0.868506046777D-05 0.000000000000D+00  6 2 -1 25 24 1 -1 4 0.30584882D+00 0.35936302D-02 0.24663722D+05 0.24663722D+05 0.24663722D+05 0.12239287D+01  1  2  5  6  6  5       21 -.201511203772D-01 0.100000000000D+01
0.370840760288D-04 0.000000000000D+00 0.000000000000D+00 0.868506046777D-05 0.240439172523D-05  6 2 -1 25 24 1 -1 4 0.30584882D+00 0.35936302D-02 0.24663372D+05 0.24663372D+05 0.24663372D+05 0.12239294D+01  1  2 11  6  6  5       21 0.206938945448D-01 0.100000000000D+01
0.435465129017D-12 0.000000000000D+00 0.000000000000D+00 0.868506985333D-05 0.000000000000D+00  6 2 -1 25 24 2 -2 4 0.30584882D+00 0.35936302D-02 0.24663372D+05 0.24663372D+05 0.24663372D+05 0.12239294D+01  1  2 12  7  6  5       21 0.243001051200D-09 0.100000000000D+01
0.436247295347D-12 0.000000000000D+00 0.000000000000D+00 0.868506985333D-05 0.000000000000D+00  6 2 -1 25 24 2 -2 4 0.30584882D+00 0.35936302D-02 0.24663372D+05 0.24663372D+05 0.24663372D+05 0.12239294D+01  1  2 12  7  6  5       21 0.243437520685D-09 0.100000000000D+01
-.361114885015D-04 0.000000000000D+00 0.000000000000D+00 0.868506046777D-05 0.000000000000D+00  6 2 -1 25 24 2 -2 4 0.30584882D+00 0.35936302D-02 0.24663722D+05 0.24663722D+05 0.24663722D+05 0.12239287D+01  1  2  5  7  6  5       21 -.201511203772D-01 0.100000000000D+01
0.370658581390D-04 0.000000000000D+00 0.000000000000D+00 0.868506046777D-05 0.240325773653D-05  6 2 -1 25 24 2 -2 4 0.30584882D+00 0.35936302D-02 0.24663372D+05 0.24663372D+05 0.24663372D+05 0.12239294D+01  1  2 11  7  6  5       21 0.206837284808D-01 0.100000000000D+01
0.435465129017D-12 0.000000000000D+00 0.000000000000D+00 0.868506985333D-05 0.000000000000D+00  6 2 -1 25 24 3 -3 4 0.30584882D+00 0.35936302D-02 0.24663372D+05 0.24663372D+05 0.24663372D+05 0.12239294D+01  1  2 12  8  6  5       21 0.243001051200D-09 0.100000000000D+01
0.435465129017D-12 0.000000000000D+00 0.000000000000D+00 0.868506985333D-05 0.000000000000D+00  6 2 -1 25 24 4 -4 4 0.30584882D+00 0.35936302D-02 0.24663372D+05 0.24663372D+05 0.24663372D+05 0.12239294D+01  1  2 12  8  6  5       21 0.243001051200D-09 0.100000000000D+01
0.436247295347D-12 0.000000000000D+00 0.000000000000D+00 0.868506985333D-05 0.000000000000D+00  6 2 -1 25 24 3 -3 4 0.30584882D+00 0.35936302D-02 0.24663372D+05 0.24663372D+05 0.24663372D+05 0.12239294D+01  1  2 12  8  6  5       21 0.243437520685D-09 0.100000000000D+01
0.436247295347D-12 0.000000000000D+00 0.000000000000D+00 0.868506985333D-05 0.000000000000D+00  6 2 -1 25 24 4 -4 4 0.30584882D+00 0.35936302D-02 0.24663372D+05 0.24663372D+05 0.24663372D+05 0.12239294D+01  1  2 12  8  6  5       21 0.243437520685D-09 0.100000000000D+01
-.361114885015D-04 0.000000000000D+00 0.000000000000D+00 0.868506046777D-05 0.000000000000D+00  6 2 -1 25 24 3 -3 4 0.30584882D+00 0.35936302D-02 0.24663722D+05 0.24663722D+05 0.24663722D+05 0.12239287D+01  1  2  5  8  6  5       21 -.201511203772D-01 0.100000000000D+01
-.361114885015D-04 0.000000000000D+00 0.000000000000D+00 0.868506046777D-05 0.000000000000D+00  6 2 -1 25 24 4 -4 4 0.30584882D+00 0.35936302D-02 0.24663722D+05 0.24663722D+05 0.24663722D+05 0.12239287D+01  1  2  5  8  6  5       21 -.201511203772D-01 0.100000000000D+01
0.370222865788D-04 0.000000000000D+00 0.000000000000D+00 0.868506046777D-05 0.240037347926D-05  6 2 -1 25 24 3 -3 4 0.30584882D+00 0.35936302D-02 0.24663372D+05 0.24663372D+05 0.24663372D+05 0.12239294D+01  1  2 11  8  6  5       21 0.206594143986D-01 0.100000000000D+01
0.370222865788D-04 0.000000000000D+00 0.000000000000D+00 0.868506046777D-05 0.240037347926D-05  6 2 -1 25 24 4 -4 4 0.30584882D+00 0.35936302D-02 0.24663372D+05 0.24663372D+05 0.24663372D+05 0.12239294D+01  1  2 11  8  6  5       21 0.206594143986D-01 0.100000000000D+01
  </mgrwgt>
  </event>
  <event>
  6     66 -.42622971E-03 0.14993328E+02 0.75467711E-02 0.10198671E+00
        2 -1    0    0  502    0 0.00000000E+00 0.00000000E+00 0.13242335E+04 0.13242336E+04 0.32000000E+00 0.0000E+00 0.9000E+01
       -1 -1    0    0    0  501 0.00000000E+00 0.00000000E+00 -.22995719E+03 0.22995741E+03 0.32000000E+00 0.0000E+00 0.9000E+01
       25  1    1    2    0    0 0.40053247E+03 0.22829209E+03 0.18986437E+03 0.51402044E+03 0.12500000E+03 0.0000E+00 0.9000E+01
       24  1    1    2    0    0 -.39326358E+03 -.20375963E+03 0.69982054E+03 0.83209990E+03 0.80419002E+02 0.0000E+00 0.9000E+01
       21  1    1    2  503  501 -.10496158E+02 -.16431882E+02 0.19040186E+03 0.19139908E+03 0.75000000E+00 0.0000E+00 0.9000E+01
       21  1    1    2  502  503 0.32272654E+01 -.81005715E+01 0.14189576E+02 0.16671565E+02 0.75000000E+00 0.0000E+00 0.9000E+01
#aMCatNLO 2  0  0  5  2 0.78253789D+01 0.00000000D+00  -5  6  0 0.00000000D+00 0.00000000D+00 0.00000000D+00 0.00000000D+00 0.00000000D+00
  <mgrwgt>
 -.4973131689D+01    2    2    0
 0.551830789272047D+03 0.000000000000000D+00 0.000000000000000D+00 0.551830789272047D+03
 0.551830789272047D+03 -.000000000000000D+00 -.000000000000000D+00 -.551830789272047D+03
 0.536937752899498D+03 0.400715838417159D+03 0.228910946646471D+03 -.244343499679880D+03
 0.476921463528447D+03 -.393100336636306D+03 -.203208691179053D+03 0.158635492830150D+03
 0.898023621161488D+02 -.761550178085353D+01 -.257022554674183D+02 0.857080068497296D+02
 0.000000000000000D+00 0.000000000000000D+00 -.000000000000000D+00 0.000000000000000D+00
 0.551830789272047D+03 0.000000000000000D+00 0.000000000000000D+00 0.551830789272047D+03
 0.551830789272047D+03 -.000000000000000D+00 -.000000000000000D+00 -.551830789272047D+03
 0.535586006099526D+03 0.400530460726338D+03 0.228285298474550D+03 -.242257182474275D+03
 0.477915567802349D+03 -.393265373058570D+03 -.203765687737984D+03 0.160492880986170D+03
 0.806542795223118D+02 -.105426845449312D+02 -.163042191044403D+02 0.782824185066077D+02
 0.950572511990713D+01 0.327759687716367D+01 -.821539163212555D+01 0.348188298149752D+01
-.738022002533D-02 0.000000000000D+00 0.000000000000D+00 0.157393244582D-04 0.000000000000D+00  6 2 -1 25 24 21 21 4 0.20372826D+00 0.35378049D-01 0.22852576D+06 0.22852576D+06 0.22852576D+06 0.11319719D+01  1  2 13  3  6  5       21 -.175833869017D+00 0.100000000000D+01
-.201260773564D+00 0.000000000000D+00 0.000000000000D+00 0.157423026995D-04 0.000000000000D+00  6 2 -1 25 24 21 21 4 0.20372826D+00 0.35378049D-01 0.22785908D+06 0.22785908D+06 0.22785908D+06 0.11320790D+01  1  2  8  3  6  5       21 -.479729781980D+01 0.100000000000D+01
  </mgrwgt>
  </event>
  <event>
  5     66 0.42622971E-03 0.31189872E+02 0.75467711E-02 0.12028668E+00
        2 -1    0    0  502    0 0.00000000E+00 0.00000000E+00 0.83578003E+02 0.83578616E+02 0.32000000E+00 0.0000E+00 0.9000E+01
       -1 -1    0    0    0  501 -.00000000E+00 -.00000000E+00 -.77692660E+03 0.77692666E+03 0.32000000E+00 0.0000E+00 0.9000E+01
       25  1    1    2    0    0 0.14189056E+02 -.30053767E+02 0.19387272E+02 0.13078771E+03 0.12500000E+03 0.0000E+00 0.9000E+01
       24  1    1    2    0    0 0.51267891E+01 0.54542256E+02 -.29117139E+03 0.30700022E+03 0.80419002E+02 0.0000E+00 0.9000E+01
       21  1    1    2  502  501 -.19315845E+02 -.24488489E+02 -.42156448E+03 0.42271735E+03 0.75000000E+00 0.0000E+00 0.9000E+01
#aMCatNLO 1  0  0  5  1 0.28906603D+02 0.00000000D+00  -5  6  0 0.00000000D+00 0.00000000D+00 0.00000000D+00 0.00000000D+00 0.00000000D+00
  <mgrwgt>
 0.4404990159D+00    9    2    0
 0.254822027510278D+03 0.000000000000000D+00 0.000000000000000D+00 0.254822027510278D+03
 0.254822027510278D+03 -.000000000000000D+00 -.000000000000000D+00 -.254822027510278D+03
 0.247204014404164D+03 0.141891897571716D+02 -.300535970246694D+02 0.210666259608529D+03
 0.122226311586697D+03 0.512685540484001D+01 0.545423395719153D+02 -.739655584539020D+02
 0.140213729029695D+03 -.193160451620116D+02 -.244887425472459D+02 -.136700701154627D+03
 0.000000000000000D+00 0.000000000000000D+00 0.000000000000000D+00 0.000000000000000D+00
 0.254822027510278D+03 0.000000000000000D+00 0.000000000000000D+00 0.254822027510278D+03
 0.254822027510278D+03 -.000000000000000D+00 -.000000000000000D+00 -.254822027510278D+03
 0.228155984911555D+03 0.109099092605672D+02 -.342110451538280D+02 0.187458613353377D+03
 0.129053815493362D+03 0.339339440453692D+01 0.523446702355648D+02 -.862333561411671D+02
 0.120622618292167D+03 0.472175065078997D+01 -.404599096960963D+02 -.113536411876690D+03
 0.318116363234723D+02 -.190250543158941D+02 0.223262846143595D+02 0.123111546644804D+02
0.368991990071D-02 0.000000000000D+00 0.000000000000D+00 0.126186790167D-04 0.000000000000D+00  6 2 -1 25 24 21 21 2 0.12858207D-01 0.11952722D+00 0.16620131D+05 0.16620131D+05 0.16620131D+05 0.12427763D+01  1  2  2  3  6  5       21 0.204830181587D+00 0.100000000000D+01
0.273931665735D-03 0.194722422857D-03 -.141702639970D-04 0.126186790167D-04 0.000000000000D+00  6 2 -1 25 24 21 21 4 0.12858207D-01 0.11952722D+00 0.16620131D+05 0.16620131D+05 0.16620131D+05 0.12427763D+01  1  2  3  3  6  5       21 0.234857907043D-01 0.100000000000D+01
0.140039357320D-03 0.000000000000D+00 0.000000000000D+00 0.126186790167D-04 0.000000000000D+00  6 2 -1 25 24 21 21 4 0.12858207D-01 0.11952722D+00 0.16620131D+05 0.16620131D+05 0.16620131D+05 0.12427763D+01  1  2 15  3  6  5       21 0.120064068809D-01 0.100000000000D+01
0.394734073121D-02 0.000000000000D+00 0.000000000000D+00 0.123496699118D-04 0.000000000000D+00  6 2 -1 25 24 21 21 4 0.12858207D-01 0.11952722D+00 0.21924256D+05 0.21924256D+05 0.21924256D+05 0.12294580D+01  1  2 12  3  6  5       21 0.323977586439D+00 0.100000000000D+01
-.157561985118D-02 0.000000000000D+00 0.000000000000D+00 0.126186790167D-04 0.000000000000D+00  6 2 -1 25 24 21 21 4 0.12858207D-01 0.11952722D+00 0.16620131D+05 0.16620131D+05 0.16620131D+05 0.12427763D+01  1  2  4  3  6  5       21 -.135087259645D+00 0.100000000000D+01
0.343780809149D-04 0.000000000000D+00 0.000000000000D+00 0.123496699118D-04 0.000000000000D+00  6 2 -1 25 24 1 -1 4 0.12858207D-01 0.11952722D+00 0.21924256D+05 0.21924256D+05 0.21924256D+05 0.12294580D+01  1  2 12  6  6  5       21 0.282157747192D-02 0.100000000000D+01
0.343780809149D-04 0.000000000000D+00 0.000000000000D+00 0.123496699118D-04 0.000000000000D+00  6 2 -1 25 24 2 -2 4 0.12858207D-01 0.11952722D+00 0.21924256D+05 0.21924256D+05 0.21924256D+05 0.12294580D+01  1  2 12  7  6  5       21 0.282157747192D-02 0.100000000000D+01
0.343780809149D-04 0.000000000000D+00 0.000000000000D+00 0.123496699118D-04 0.000000000000D+00  6 2 -1 25 24 3 -3 4 0.12858207D-01 0.11952722D+00 0.21924256D+05 0.21924256D+05 0.21924256D+05 0.12294580D+01  1  2 12  8  6  5       21 0.282157747192D-02 0.100000000000D+01
0.343780809149D-04 0.000000000000D+00 0.000000000000D+00 0.123496699118D-04 0.000000000000D+00  6 2 -1 25 24 4 -4 4 0.12858207D-01 0.11952722D+00 0.21924256D+05 0.21924256D+05 0.21924256D+05 0.12294580D+01  1  2 12  8  6  5       21 0.282157747192D-02 0.100000000000D+01
  </mgrwgt>
  </event>
  <event>
  6     66 0.42622971E-03 0.13729208E+02 0.75467711E-02 0.11863709E+00
        2 -1    0    0  502    0 0.00000000E+00 0.00000000E+00 0.63056873E+02 0.63057685E+02 0.32000000E+00 0.0000E+00 0.9000E+01
       21 -1    0    0  503  501 0.00000000E+00 0.00000000E+00 -.56462143E+03 0.56462193E+03 0.75000000E+00 0.0000E+00 0.9000E+01
       25  1    1    2    0    0 -.77577256E+02 -.30178420E+02 -.19352605E+03 0.24496183E+03 0.12500000E+03 0.0000E+00 0.9000E+01
       24  1    1    2    0    0 0.89458745E+02 0.29576138E+02 -.11196977E+03 0.16697922E+03 0.80419002E+02 0.0000E+00 0.9000E+01
        1  1    1    2  503    0 -.38022678E+01 -.23947993E+02 -.18665213E+03 0.18822084E+03 0.32000000E+00 0.0000E+00 0.9000E+01
       21  1    1    2  502  501 -.80792214E+01 0.24550276E+02 -.94166022E+01 0.27517717E+02 0.75000000E+00 0.0000E+00 0.9000E+01
#aMCatNLO 2  0  0  2  5 0.87006933D+01 0.00000000D+00  -5  6  0 0.00000000D+00 0.00000000D+00 0.00000000D+00 0.00000000D+00 0.00000000D+00
  <mgrwgt>
 0.1398942309D+00    1    2    0
 0.152779427948567D+03 0.000000000000000D+00 0.000000000000000D+00 0.152779427948567D+03
 0.152779427948567D+03 0.000000000000000D+00 0.000000000000000D+00 -.152779427948567D+03
 0.156188516203172D+03 -.794925432419514D+02 -.422553526327612D+02 -.257928931404742D+02
 0.121323352328539D+03 0.879337233101885D+02 0.199603103652338D+02 0.110175396888310D+02
 0.000000000000000D+00 -.000000000000000D+00 -.000000000000000D+00 -.000000000000000D+00
 0.280469873654234D+02 -.844118006823709D+01 0.222950422675274D+02 0.147753534516432D+02
 0.155189768019344D+03 0.000000000000000D+00 0.000000000000000D+00 0.155189768019344D+03
 0.229419277569510D+03 0.000000000000000D+00 0.000000000000000D+00 -.229419277569510D+03
 0.152378618944561D+03 -.775757053795542D+02 -.301824470472551D+02 -.257928931404742D+02
 0.124363357148703D+03 0.894599441333759D+02 0.295729751933021D+02 0.110175396888310D+02
 0.780895877366792D+02 -.380226781437750D+01 -.239479933249965D+02 -.742295095501660D+02
 0.297774817589118D+02 -.808197093944418D+01 0.245574651789495D+02 0.147753534516432D+02
0.681340164608D-04 0.000000000000D+00 0.000000000000D+00 0.356774610890D-04 0.229314340687D-07  6 2 21 25 24 1 21 4 0.97011380D-02 0.86864755D-01 0.26269166D+05 0.26269166D+05 0.26269166D+05 0.12209986D+01  1  2  1  5  5  2       -1 0.139894230894D+00 0.100000000000D+01
  </mgrwgt>
  </event>
  <event>
  5     66 -.42622971E-03 0.21234495E+02 0.75467711E-02 0.12217715E+00
        2 -1    0    0  502    0 0.00000000E+00 0.00000000E+00 0.13527142E+04 0.13527142E+04 0.32000000E+00 0.0000E+00 0.9000E+01
       -1 -1    0    0    0  501 0.00000000E+00 0.00000000E+00 -.14592238E+02 0.14595746E+02 0.32000000E+00 0.0000E+00 0.9000E+01
       25  1    1    2    0    0 0.52850588E+02 -.17816893E+02 0.82315479E+03 0.83445757E+03 0.12500000E+03 0.0000E+00 0.9000E+01
       24  1    1    2    0    0 -.67629904E+02 0.33049702E+02 0.36110953E+03 0.37753595E+03 0.80419002E+02 0.0000E+00 0.9000E+01
       21  1    1    2  502  501 0.14779316E+02 -.15232809E+02 0.15385761E+03 0.15531643E+03 0.75000000E+00 0.0000E+00 0.9000E+01
#aMCatNLO 1  0  0  5  2 0.30853119D+01 0.00000000D+00  -5  6  0 0.00000000D+00 0.00000000D+00 0.00000000D+00 0.00000000D+00 0.00000000D+00
  <mgrwgt>
 -.3865388642D+00   25    2    0
 0.140504629223970D+03 0.000000000000000D+00 0.000000000000000D+00 0.140504629223970D+03
 0.140504629223970D+03 -.000000000000000D+00 -.000000000000000D+00 -.140504629223970D+03
 0.140493429746204D+03 0.528466831503163D+02 -.178128686563402D+02 0.316754414664364D+02
 0.117437668920780D+03 -.676331683674609D+02 0.330530663720194D+02 -.407141187693131D+02
 0.230781597809567D+02 0.147864852171446D+02 -.152401977156792D+02 0.903867730287673D+01
 0.000000000000000D+00 0.000000000000000D+00 0.000000000000000D+00 0.000000000000000D+00
 0.140504629223970D+03 0.000000000000000D+00 0.000000000000000D+00 0.140504629223970D+03
 0.140504629223970D+03 -.000000000000000D+00 -.000000000000000D+00 -.140504629223970D+03
 0.140678294062774D+03 0.531325411538778D+02 -.181074980039444D+02 0.318501806428325D+02
 0.117180863662642D+03 -.673946394556120D+02 0.328072183747369D+02 -.405683109028765D+02
 0.888864360657025D+01 0.460605215483850D+01 -.752857082908185D+01 0.105493600897297D+01
 0.142614571159544D+02 0.965604614689575D+01 -.717114954171073D+01 0.766319425107109D+01
0.128830746959D-03 0.000000000000D+00 0.000000000000D+00 0.448467436424D-04 0.000000000000D+00  6 2 -1 25 24 21 21 2 0.20811014D+00 0.22452324D-02 0.17991513D+05 0.17991513D+05 0.17991513D+05 0.12389184D+01  1  2  2  3  6  5       21 0.207418634506D+00 0.100000000000D+01
0.276383591635D-04 0.679858529762D-05 -.494743990238D-06 0.448467436424D-04 0.000000000000D+00  6 2 -1 25 24 21 21 4 0.20811014D+00 0.22452324D-02 0.17991513D+05 0.17991513D+05 0.17991513D+05 0.12389184D+01  1  2  3  3  6  5       21 0.683008199034D-01 0.100000000000D+01
0.312305231087D-05 0.000000000000D+00 0.000000000000D+00 0.448467436424D-04 0.000000000000D+00  6 2 -1 25 24 21 21 4 0.20811014D+00 0.22452324D-02 0.17991513D+05 0.17991513D+05 0.17991513D+05 0.12389184D+01  1  2 15  3  6  5       21 0.771778932938D-02 0.100000000000D+01
0.186421325740D-05 0.000000000000D+00 0.000000000000D+00 0.448585623046D-04 0.000000000000D+00  6 2 -1 25 24 21 21 4 0.20811014D+00 0.22452324D-02 0.17930979D+05 0.17930979D+05 0.17930979D+05 0.12390817D+01  1  2 12  3  6  5       21 0.460897137408D-02 0.100000000000D+01
0.187732251409D-05 0.000000000000D+00 0.000000000000D+00 0.448585623046D-04 0.000000000000D+00  6 2 -1 25 24 21 21 4 0.20811014D+00 0.22452324D-02 0.17930979D+05 0.17930979D+05 0.17930979D+05 0.12390817D+01  1  2 12  3  6  5       21 0.464138193045D-02 0.100000000000D+01
-.105412296569D-02 0.000000000000D+00 0.000000000000D+00 0.448467436424D-04 0.000000000000D+00  6 2 -1 25 24 21 21 4 0.20811014D+00 0.22452324D-02 0.17991513D+05 0.17991513D+05 0.17991513D+05 0.12389184D+01  1  2  4  3  6  5       21 -.260498325568D+01 0.100000000000D+01
-.189219468431D-03 0.000000000000D+00 0.000000000000D+00 0.448467436424D-04 0.000000000000D+00  6 2 -1 25 24 21 21 4 0.20811014D+00 0.22452324D-02 0.17991513D+05 0.17991513D+05 0.17991513D+05 0.12389184D+01  1  2  5  3  6  5       21 -.467605358157D+00 0.100000000000D+01
0.751717574157D-03 0.000000000000D+00 -.000000000000D+00 0.448467436424D-04 0.000000000000D+00  6 2 -1 25 24 21 21 4 0.20811014D+00 0.22452324D-02 0.17991513D+05 0.17991513D+05 0.17991513D+05 0.12389184D+01  1  2  6  3  6  5       21 0.185766913104D+01 0.100000000000D+01
0.219175969567D-03 0.000000000000D+00 0.000000000000D+00 0.448467436424D-04 0.300886791120D-04  6 2 -1 25 24 21 21 4 0.20811014D+00 0.22452324D-02 0.17930979D+05 0.17930979D+05 0.17930979D+05 0.12390817D+01  1  2 11  3  6  5       21 0.541877795157D+00 0.100000000000D+01
0.120169991587D-06 0.000000000000D+00 0.000000000000D+00 0.448585623046D-04 0.000000000000D+00  6 2 -1 25 24 1 -1 4 0.20811014D+00 0.22452324D-02 0.17930979D+05 0.17930979D+05 0.17930979D+05 0.12390817D+01  1  2 12  6  6  5       21 0.297101229728D-03 0.100000000000D+01
0.120952474646D-06 0.000000000000D+00 0.000000000000D+00 0.448585623046D-04 0.000000000000D+00  6 2 -1 25 24 1 -1 4 0.20811014D+00 0.22452324D-02 0.17930979D+05 0.17930979D+05 0.17930979D+05 0.12390817D+01  1  2 12  6  6  5       21 0.299035794889D-03 0.100000000000D+01
-.973226316145D-05 0.000000000000D+00 0.000000000000D+00 0.448467436424D-04 0.000000000000D+00  6 2 -1 25 24 1 -1 4 0.20811014D+00 0.22452324D-02 0.17991513D+05 0.17991513D+05 0.17991513D+05 0.12389184D+01  1  2  5  6  6  5       21 -.240506880134D-01 0.100000000000D+01
0.885014759325D-05 0.000000000000D+00 0.000000000000D+00 0.448467436424D-04 0.665106774132D-06  6 2 -1 25 24 1 -1 4 0.20811014D+00 0.22452324D-02 0.17930979D+05 0.17930979D+05 0.17930979D+05 0.12390817D+01  1  2 11  6  6  5       21 0.218805851486D-01 0.100000000000D+01
0.120169991587D-06 0.000000000000D+00 0.000000000000D+00 0.448585623046D-04 0.000000000000D+00  6 2 -1 25 24 2 -2 4 0.20811014D+00 0.22452324D-02 0.17930979D+05 0.17930979D+05 0.17930979D+05 0.12390817D+01  1  2 12  7  6  5       21 0.297101229728D-03 0.100000000000D+01
0.120952474646D-06 0.000000000000D+00 0.000000000000D+00 0.448585623046D-04 0.000000000000D+00  6 2 -1 25 24 2 -2 4 0.20811014D+00 0.22452324D-02 0.17930979D+05 0.17930979D+05 0.17930979D+05 0.12390817D+01  1  2 12  7  6  5       21 0.299035794889D-03 0.100000000000D+01
-.973226316145D-05 0.000000000000D+00 0.000000000000D+00 0.448467436424D-04 0.000000000000D+00  6 2 -1 25 24 2 -2 4 0.20811014D+00 0.22452324D-02 0.17991513D+05 0.17991513D+05 0.17991513D+05 0.12389184D+01  1  2  5  7  6  5       21 -.240506880134D-01 0.100000000000D+01
0.889163729011D-05 0.000000000000D+00 0.000000000000D+00 0.448467436424D-04 0.669532205005D-06  6 2 -1 25 24 2 -2 4 0.20811014D+00 0.22452324D-02 0.17930979D+05 0.17930979D+05 0.17930979D+05 0.12390817D+01  1  2 11  7  6  5       21 0.219831618385D-01 0.100000000000D+01
0.120169991587D-06 0.000000000000D+00 0.000000000000D+00 0.448585623046D-04 0.000000000000D+00  6 2 -1 25 24 3 -3 4 0.20811014D+00 0.22452324D-02 0.17930979D+05 0.17930979D+05 0.17930979D+05 0.12390817D+01  1  2 12  8  6  5       21 0.297101229728D-03 0.100000000000D+01
0.120169991587D-06 0.000000000000D+00 0.000000000000D+00 0.448585623046D-04 0.000000000000D+00  6 2 -1 25 24 4 -4 4 0.20811014D+00 0.22452324D-02 0.17930979D+05 0.17930979D+05 0.17930979D+05 0.12390817D+01  1  2 12  8  6  5       21 0.297101229728D-03 0.100000000000D+01
0.120952474646D-06 0.000000000000D+00 0.000000000000D+00 0.448585623046D-04 0.000000000000D+00  6 2 -1 25 24 3 -3 4 0.20811014D+00 0.22452324D-02 0.17930979D+05 0.17930979D+05 0.17930979D+05 0.12390817D+01  1  2 12  8  6  5       21 0.299035794889D-03 0.100000000000D+01
0.120952474646D-06 0.000000000000D+00 0.000000000000D+00 0.448585623046D-04 0.000000000000D+00  6 2 -1 25 24 4 -4 4 0.20811014D+00 0.22452324D-02 0.17930979D+05 0.17930979D+05 0.17930979D+05 0.12390817D+01  1  2 12  8  6  5       21 0.299035794889D-03 0.100000000000D+01
-.973226316145D-05 0.000000000000D+00 0.000000000000D+00 0.448467436424D-04 0.000000000000D+00  6 2 -1 25 24 3 -3 4 0.20811014D+00 0.22452324D-02 0.17991513D+05 0.17991513D+05 0.17991513D+05 0.12389184D+01  1  2  5  8  6  5       21 -.240506880134D-01 0.100000000000D+01
-.973226316145D-05 0.000000000000D+00 0.000000000000D+00 0.448467436424D-04 0.000000000000D+00  6 2 -1 25 24 4 -4 4 0.20811014D+00 0.22452324D-02 0.17991513D+05 0.17991513D+05 0.17991513D+05 0.12389184D+01  1  2  5  8  6  5       21 -.240506880134D-01 0.100000000000D+01
0.885186924543D-05 0.000000000000D+00 0.000000000000D+00 0.448467436424D-04 0.664882687723D-06  6 2 -1 25 24 3 -3 4 0.20811014D+00 0.22452324D-02 0.17930979D+05 0.17930979D+05 0.17930979D+05 0.12390817D+01  1  2 11  8  6  5       21 0.218848416604D-01 0.100000000000D+01
0.885186924543D-05 0.000000000000D+00 0.000000000000D+00 0.448467436424D-04 0.664882687723D-06  6 2 -1 25 24 4 -4 4 0.20811014D+00 0.22452324D-02 0.17930979D+05 0.17930979D+05 0.17930979D+05 0.12390817D+01  1  2 11  8  6  5       21 0.218848416604D-01 0.100000000000D+01
  </mgrwgt>
  </event>
  <event>
  5     66 -.42622971E-03 0.26830600E+02 0.75467711E-02 0.11569310E+00
        2 -1    0    0  502    0 0.00000000E+00 0.00000000E+00 0.19342305E+04 0.19342306E+04 0.32000000E+00 0.0000E+00 0.9000E+01
       -1 -1    0    0    0  501 0.00000000E+00 0.00000000E+00 -.12454804E+02 0.12458914E+02 0.32000000E+00 0.0000E+00 0.9000E+01
       25  1    1    2    0    0 0.26864056E+02 0.94593826E+01 0.15679132E+04 0.15731459E+04 0.12500000E+03 0.0000E+00 0.9000E+01
       24  1    1    2    0    0 -.64810656E+01 -.26892218E+02 0.19955644E+03 0.21692207E+03 0.80419002E+02 0.0000E+00 0.9000E+01
       21  1    1    2  502  501 -.20382990E+02 0.17432835E+02 0.15430607E+03 0.15662150E+03 0.75000000E+00 0.0000E+00 0.9000E+01
#aMCatNLO 1  0  0  2  2 0.11562240D+03 0.00000000D+00  -5  6  0 0.00000000D+00 0.00000000D+00 0.00000000D+00 0.00000000D+00 0.00000000D+00
  <mgrwgt>
 -.3222272099D+00    5    4    0
 0.155223995745006D+03 0.000000000000000D+00 0.000000000000000D+00 0.155223995745006D+03
 0.155223995745006D+03 0.000000000000000D+00 0.000000000000000D+00 -.155223995745006D+03
 0.158639174266003D+03 0.268681059209317D+02 0.945591877389245D+01 0.934348869328928D+02
 0.124907391823817D+03 -.647787667000027D+01 -.268949454025804D+02 -.914840948116033D+02
 0.269014254001923D+02 -.203902292509314D+02 0.174390266286880D+02 -.195079212128948D+01
 0.000000000000000D+00 -.000000000000000D+00 0.000000000000000D+00 -.000000000000000D+00
 0.170104179749823D+03 0.000000000000000D+00 0.000000000000000D+00 0.170104179749823D+03
 0.914303208116194D+03 0.000000000000000D+00 0.000000000000000D+00 -.914303208116194D+03
 0.179113046089972D+03 0.876538165470550D+02 0.657370734069786D+01 0.934348869328928D+02
 0.131353615881377D+03 0.396417534029248D+02 -.290817508823828D+02 -.914840948116033D+02
 0.208134235835008D+02 -.118029252212641D+02 0.170318515607372D+02 -.195079212128948D+01
 0.753127302311167D+03 -.115492644728716D+03 0.547619198094772D+01 -.744199028366371D+03
 0.155223995745006D+03 0.000000000000000D+00 0.000000000000000D+00 0.155223995745006D+03
 0.155223995745006D+03 0.000000000000000D+00 0.000000000000000D+00 -.155223995745006D+03
 0.158639174266003D+03 0.268681059209317D+02 0.945591877389245D+01 0.934348869328928D+02
 0.124907391823817D+03 -.647787667000027D+01 -.268949454025804D+02 -.914840948116033D+02
 0.000000000000000D+00 -.000000000000000D+00 0.000000000000000D+00 -.000000000000000D+00
 0.269014254001923D+02 -.203902292509314D+02 0.174390266286880D+02 -.195079212128948D+01
 0.170104179749823D+03 0.000000000000000D+00 0.000000000000000D+00 0.170104179749823D+03
 0.914303208116194D+03 0.000000000000000D+00 0.000000000000000D+00 -.914303208116194D+03
 0.179113046089972D+03 0.876538165470550D+02 0.657370734069786D+01 0.934348869328928D+02
 0.131353615881377D+03 0.396417534029248D+02 -.290817508823828D+02 -.914840948116033D+02
 0.753127302311167D+03 -.115492644728716D+03 0.547619198094772D+01 -.744199028366371D+03
 0.208134235835008D+02 -.118029252212641D+02 0.170318515607372D+02 -.195079212128948D+01
0.863129500982D-04 0.000000000000D+00 0.000000000000D+00 0.179386529842D-04 0.000000000000D+00  6 2 -1 25 24 21 21 2 0.29757425D+00 0.19164419D-02 0.14409479D+05 0.14409479D+05 0.14409479D+05 0.12498160D+01  1  2  2  2  6  2       -1 0.888034543490D-01 0.100000000000D+01
0.100357494062D-04 0.455485951438D-05 -.331464455099D-06 0.179386529842D-04 0.000000000000D+00  6 2 -1 25 24 21 21 4 0.29757425D+00 0.19164419D-02 0.14409479D+05 0.14409479D+05 0.14409479D+05 0.12498160D+01  1  2  3  2  6  2       -1 0.161285693279D-01 0.100000000000D+01
0.308675536104D-05 0.000000000000D+00 0.000000000000D+00 0.179386529842D-04 0.000000000000D+00  6 2 -1 25 24 21 21 4 0.29757425D+00 0.19164419D-02 0.14409479D+05 0.14409479D+05 0.14409479D+05 0.12498160D+01  1  2 15  2  6  2       -1 0.496076036015D-02 0.100000000000D+01
-.973695346485D-03 0.000000000000D+00 -.769295178723D-04 0.179386529842D-04 0.000000000000D+00  6 2 -1 25 24 21 21 4 0.29757425D+00 0.12451940D-01 0.14409479D+05 0.14409479D+05 0.14409479D+05 0.12498160D+01  1  2  5  2  6  2       -1 -.983787516482D-01 0.100000000000D+01
-.229313794623D-03 0.000000000000D+00 -.176339152205D-04 0.179386529842D-04 0.000000000000D+00  6 2 21 25 24 1 21 4 0.29757425D+00 0.12451940D-01 0.14409479D+05 0.14409479D+05 0.14409479D+05 0.12498160D+01  3  4  5  5  5  2       -1 -.333741242279D+00 0.100000000000D+01
  </mgrwgt>
  </event>
  <event>
  5     66 0.42622971E-03 0.42316617E+02 0.75467711E-02 0.10892944E+00
        2 -1    0    0  502    0 0.00000000E+00 0.00000000E+00 0.96718701E+03 0.96718706E+03 0.32000000E+00 0.0000E+00 0.9000E+01
       -1 -1    0    0    0  501 0.00000000E+00 0.00000000E+00 -.21068592E+03 0.21068617E+03 0.32000000E+00 0.0000E+00 0.9000E+01
       25  1    1    2    0    0 0.14801570E+02 0.11338225E+03 0.75570077E+03 0.77445677E+03 0.12500000E+03 0.0000E+00 0.9000E+01
       24  1    1    2    0    0 -.35400065E+02 -.15034701E+03 0.16133947E+03 0.23739214E+03 0.80419002E+02 0.0000E+00 0.9000E+01
       21  1    1    2  502  501 0.20598495E+02 0.36964755E+02 -.16053916E+03 0.16602432E+03 0.75000000E+00 0.0000E+00 0.9000E+01
#aMCatNLO 1  0  0  5  2 0.71163981D+01 0.00000000D+00  -5  6  0 0.00000000D+00 0.00000000D+00 0.00000000D+00 0.00000000D+00 0.00000000D+00
  <mgrwgt>
 0.1142025298D+01    4    2    0
 0.451412075470573D+03 0.000000000000000D+00 0.000000000000000D+00 0.451412075470573D+03
 0.451412075470573D+03 -.000000000000000D+00 -.000000000000000D+00 -.451412075470573D+03
 0.377176100204628D+03 0.148015507260342D+02 0.113382215245703D+03 0.336989907753412D+03
 0.174523890462655D+03 -.354000742724714D+02 -.150347021938011D+03 0.115749783466265D+02
 0.351124160273863D+03 0.205985235464372D+02 0.369648066923080D+02 -.348564886100039D+03
 0.000000000000000D+00 0.000000000000000D+00 0.000000000000000D+00 0.000000000000000D+00
 0.451412075470573D+03 0.000000000000000D+00 0.000000000000000D+00 0.451412075470573D+03
 0.451412075470573D+03 -.000000000000000D+00 -.000000000000000D+00 -.451412075470573D+03
 0.326273454549914D+03 0.184113375156949D+02 0.119860110157901D+03 0.275905679150963D+03
 0.172033004530305D+03 -.336217001261576D+02 -.147155664246918D+03 -.185183815175241D+02
 0.270524601600171D+03 -.871325169546638D+02 -.588096562159794D+02 -.249264736567038D+03
 0.133993090260756D+03 0.102342879565127D+03 0.861052103049963D+02 -.812256106640115D+01
0.285933342750D-01 0.000000000000D+00 0.000000000000D+00 0.155667437329D-04 0.000000000000D+00  6 2 -1 25 24 21 21 2 0.14879802D+00 0.32413242D-01 0.37223112D+05 0.37223112D+05 0.37223112D+05 0.12051864D+01  1  2  2  3  6  5       21 0.118929039676D+01 0.100000000000D+01
0.572842962494D-02 0.150891170470D-02 -.109805932414D-03 0.155667437329D-04 0.000000000000D+00  6 2 -1 25 24 21 21 4 0.14879802D+00 0.32413242D-01 0.37223112D+05 0.37223112D+05 0.37223112D+05 0.12051864D+01  1  2  3  3  6  5       21 0.346072540181D+00 0.100000000000D+01
0.919233090883D-03 0.000000000000D+00 0.000000000000D+00 0.155667437329D-04 0.000000000000D+00  6 2 -1 25 24 21 21 4 0.14879802D+00 0.32413242D-01 0.37223112D+05 0.37223112D+05 0.37223112D+05 0.12051864D+01  1  2 15  3  6  5       21 0.555337765511D-01 0.100000000000D+01
-.743002698459D-02 0.000000000000D+00 0.000000000000D+00 0.155667437329D-04 0.000000000000D+00  6 2 -1 25 24 21 21 4 0.14879802D+00 0.32413242D-01 0.37223112D+05 0.37223112D+05 0.37223112D+05 0.12051864D+01  1  2  4  3  6  5       21 -.448871415121D+00 0.100000000000D+01
  </mgrwgt>
  </event>
  <event>
  5     66 -.42622971E-03 0.65683777E+02 0.75467711E-02 0.11957561E+00
        2 -1    0    0  502    0 0.00000000E+00 0.00000000E+00 0.82990568E+03 0.82990574E+03 0.32000000E+00 0.0000E+00 0.9000E+01
       -1 -1    0    0    0  501 0.00000000E+00 0.00000000E+00 -.42403771E+02 0.42404979E+02 0.32000000E+00 0.0000E+00 0.9000E+01
       25  1    1    2    0    0 -.80129753E+02 -.12753106E+01 0.22968565E+03 0.27350119E+03 0.12500000E+03 0.0000E+00 0.9000E+01
       24  1    1    2    0    0 0.18153556E+01 0.92364943E+01 0.77485405E+02 0.11207057E+03 0.80419002E+02 0.0000E+00 0.9000E+01
       21  1    1    2  502  501 0.78314398E+02 -.79611837E+01 0.48033085E+03 0.48673896E+03 0.75000000E+00 0.0000E+00 0.9000E+01
#aMCatNLO 1  0  0  5  1 0.61950291D+01 0.00000000D+00  -5  6  0 0.00000000D+00 0.00000000D+00 0.00000000D+00 0.00000000D+00 0.00000000D+00
  <mgrwgt>
 -.1301598702D+00   25    2    0
 0.187594467960039D+03 0.000000000000000D+00 0.000000000000000D+00 0.187594467960039D+03
 0.187594467960039D+03 -.000000000000000D+00 -.000000000000000D+00 -.187594467960039D+03
 0.153790033846935D+03 -.801303454275645D+02 -.127525040032345D+01 -.400484205520897D+02
 0.979254608229511D+02 0.181497847834564D+01 0.923653260861641D+01 -.550778743372501D+02
 0.123473441250192D+03 0.783153669492189D+02 -.796128220829296D+01 0.951262948893397D+02
 0.000000000000000D+00 0.000000000000000D+00 0.000000000000000D+00 0.000000000000000D+00
 0.187594467960039D+03 0.000000000000000D+00 0.000000000000000D+00 0.187594467960039D+03
 0.187594467960039D+03 -.000000000000000D+00 -.000000000000000D+00 -.187594467960039D+03
 0.153648789066449D+03 -.799612953394971D+02 -.129243547537155D+01 -.398430827090198D+02
 0.978529985246827D+02 0.192263035354083D+01 0.922558907362363D+01 -.549471142524273D+02
 0.491312900660262D+02 0.356045370624682D+02 -.406815022862729D+01 0.336102775626244D+02
 0.745558582629199D+02 0.424341279234880D+02 -.386500336962480D+01 0.611799193988227D+02
0.135814035724D-04 0.000000000000D+00 0.000000000000D+00 0.579885406528D-05 0.000000000000D+00  6 2 -1 25 24 21 21 2 0.12767790D+00 0.65237548D-02 0.23742346D+05 0.23742346D+05 0.23742346D+05 0.12257083D+01  1  2  2  3  6  5       21 0.905483916747D-02 0.100000000000D+01
-.686053931036D-06 0.716710357021D-06 -.521561657838D-07 0.579885406528D-05 0.000000000000D+00  6 2 -1 25 24 21 21 4 0.12767790D+00 0.65237548D-02 0.23742346D+05 0.23742346D+05 0.23742346D+05 0.12257083D+01  1  2  3  3  6  5       21 -.687176949496D-03 0.100000000000D+01
0.446749423425D-06 0.000000000000D+00 0.000000000000D+00 0.579885406528D-05 0.000000000000D+00  6 2 -1 25 24 21 21 4 0.12767790D+00 0.65237548D-02 0.23742346D+05 0.23742346D+05 0.23742346D+05 0.12257083D+01  1  2 15  3  6  5       21 0.447480718484D-03 0.100000000000D+01
0.668740595748D-04 0.000000000000D+00 0.000000000000D+00 0.579989849547D-05 0.000000000000D+00  6 2 -1 25 24 21 21 4 0.12767790D+00 0.65237548D-02 0.23686479D+05 0.23686479D+05 0.23686479D+05 0.12258187D+01  1  2 12  3  6  5       21 0.670048438894D-01 0.100000000000D+01
0.678904943635D-04 0.000000000000D+00 0.000000000000D+00 0.579989849547D-05 0.000000000000D+00  6 2 -1 25 24 21 21 4 0.12767790D+00 0.65237548D-02 0.23686479D+05 0.23686479D+05 0.23686479D+05 0.12258187D+01  1  2 12  3  6  5       21 0.680232665001D-01 0.100000000000D+01
-.490149223506D-03 0.000000000000D+00 0.000000000000D+00 0.579885406528D-05 0.000000000000D+00  6 2 -1 25 24 21 21 4 0.12767790D+00 0.65237548D-02 0.23742346D+05 0.23742346D+05 0.23742346D+05 0.12257083D+01  1  2  4  3  6  5       21 -.490951560759D+00 0.100000000000D+01
-.161716823532D-03 0.000000000000D+00 0.000000000000D+00 0.579885406528D-05 0.000000000000D+00  6 2 -1 25 24 21 21 4 0.12767790D+00 0.65237548D-02 0.23742346D+05 0.23742346D+05 0.23742346D+05 0.12257083D+01  1  2  5  3  6  5       21 -.161981541756D+00 0.100000000000D+01
0.350066554568D-03 0.000000000000D+00 -.000000000000D+00 0.579885406528D-05 0.000000000000D+00  6 2 -1 25 24 21 21 4 0.12767790D+00 0.65237548D-02 0.23742346D+05 0.23742346D+05 0.23742346D+05 0.12257083D+01  1  2  6  3  6  5       21 0.350639587074D+00 0.100000000000D+01
0.271408285631D-04 0.000000000000D+00 0.000000000000D+00 0.579885406528D-05 0.847942307993D-06  6 2 -1 25 24 21 21 4 0.12767790D+00 0.65237548D-02 0.23686479D+05 0.23686479D+05 0.23686479D+05 0.12258187D+01  1  2 11  3  6  5       21 0.271939073606D-01 0.100000000000D+01
0.170299613918D-05 0.000000000000D+00 0.000000000000D+00 0.579989849547D-05 0.000000000000D+00  6 2 -1 25 24 1 -1 4 0.12767790D+00 0.65237548D-02 0.23686479D+05 0.23686479D+05 0.23686479D+05 0.12258187D+01  1  2 12  6  6  5       21 0.170632665604D-02 0.100000000000D+01
0.173250429674D-05 0.000000000000D+00 0.000000000000D+00 0.579989849547D-05 0.000000000000D+00  6 2 -1 25 24 1 -1 4 0.12767790D+00 0.65237548D-02 0.23686479D+05 0.23686479D+05 0.23686479D+05 0.12258187D+01  1  2 12  6  6  5       21 0.173589252213D-02 0.100000000000D+01
-.374155449122D-05 0.000000000000D+00 0.000000000000D+00 0.579885406528D-05 0.000000000000D+00  6 2 -1 25 24 1 -1 4 0.12767790D+00 0.65237548D-02 0.23742346D+05 0.23742346D+05 0.23742346D+05 0.12257083D+01  1  2  5  6  6  5       21 -.374767913328D-02 0.100000000000D+01
0.575451299314D-06 0.000000000000D+00 0.000000000000D+00 0.579885406528D-05 0.106409520035D-07  6 2 -1 25 24 1 -1 4 0.12767790D+00 0.65237548D-02 0.23686479D+05 0.23686479D+05 0.23686479D+05 0.12258187D+01  1  2 11  6  6  5       21 0.576576698373D-03 0.100000000000D+01
0.170299613918D-05 0.000000000000D+00 0.000000000000D+00 0.579989849547D-05 0.000000000000D+00  6 2 -1 25 24 2 -2 4 0.12767790D+00 0.65237548D-02 0.23686479D+05 0.23686479D+05 0.23686479D+05 0.12258187D+01  1  2 12  7  6  5       21 0.170632665604D-02 0.100000000000D+01
0.173250429674D-05 0.000000000000D+00 0.000000000000D+00 0.579989849547D-05 0.000000000000D+00  6 2 -1 25 24 2 -2 4 0.12767790D+00 0.65237548D-02 0.23686479D+05 0.23686479D+05 0.23686479D+05 0.12258187D+01  1  2 12  7  6  5       21 0.173589252213D-02 0.100000000000D+01
-.374155449122D-05 0.000000000000D+00 0.000000000000D+00 0.579885406528D-05 0.000000000000D+00  6 2 -1 25 24 2 -2 4 0.12767790D+00 0.65237548D-02 0.23742346D+05 0.23742346D+05 0.23742346D+05 0.12257083D+01  1  2  5  7  6  5       21 -.374767913328D-02 0.100000000000D+01
0.594456068816D-06 0.000000000000D+00 0.000000000000D+00 0.579885406528D-05 0.110406601659D-07  6 2 -1 25 24 2 -2 4 0.12767790D+00 0.65237548D-02 0.23686479D+05 0.23686479D+05 0.23686479D+05 0.12258187D+01  1  2 11  7  6  5       21 0.595618635138D-03 0.100000000000D+01
0.170299613918D-05 0.000000000000D+00 0.000000000000D+00 0.579989849547D-05 0.000000000000D+00  6 2 -1 25 24 3 -3 4 0.12767790D+00 0.65237548D-02 0.23686479D+05 0.23686479D+05 0.23686479D+05 0.12258187D+01  1  2 12  8  6  5       21 0.170632665604D-02 0.100000000000D+01
0.170299613918D-05 0.000000000000D+00 0.000000000000D+00 0.579989849547D-05 0.000000000000D+00  6 2 -1 25 24 4 -4 4 0.12767790D+00 0.65237548D-02 0.23686479D+05 0.23686479D+05 0.23686479D+05 0.12258187D+01  1  2 12  8  6  5       21 0.170632665604D-02 0.100000000000D+01
0.173250429674D-05 0.000000000000D+00 0.000000000000D+00 0.579989849547D-05 0.000000000000D+00  6 2 -1 25 24 3 -3 4 0.12767790D+00 0.65237548D-02 0.23686479D+05 0.23686479D+05 0.23686479D+05 0.12258187D+01  1  2 12  8  6  5       21 0.173589252213D-02 0.100000000000D+01
0.173250429674D-05 0.000000000000D+00 0.000000000000D+00 0.579989849547D-05 0.000000000000D+00  6 2 -1 25 24 4 -4 4 0.12767790D+00 0.65237548D-02 0.23686479D+05 0.23686479D+05 0.23686479D+05 0.12258187D+01  1  2 12  8  6  5       21 0.173589252213D-02 0.100000000000D+01
-.374155449122D-05 0.000000000000D+00 0.000000000000D+00 0.579885406528D-05 0.000000000000D+00  6 2 -1 25 24 3 -3 4 0.12767790D+00 0.65237548D-02 0.23742346D+05 0.23742346D+05 0.23742346D+05 0.12257083D+01  1  2  5  8  6  5       21 -.374767913328D-02 0.100000000000D+01
-.374155449122D-05 0.000000000000D+00 0.000000000000D+00 0.579885406528D-05 0.000000000000D+00  6 2 -1 25 24 4 -4 4 0.12767790D+00 0.65237548D-02 0.23742346D+05 0.23742346D+05 0.23742346D+05 0.12257083D+01  1  2  5  8  6  5       21 -.374767913328D-02 0.100000000000D+01
0.571945996041D-06 0.000000000000D+00 0.000000000000D+00 0.579885406528D-05 0.105742652703D-07  6 2 -1 25 24 3 -3 4 0.12767790D+00 0.65237548D-02 0.23686479D+05 0.23686479D+05 0.23686479D+05 0.12258187D+01  1  2 11  8  6  5       21 0.573064539847D-03 0.100000000000D+01
0.571945996041D-06 0.000000000000D+00 0.000000000000D+00 0.579885406528D-05 0.105742652703D-07  6 2 -1 25 24 4 -4 4 0.12767790D+00 0.65237548D-02 0.23686479D+05 0.23686479D+05 0.23686479D+05 0.12258187D+01  1  2 11  8  6  5       21 0.573064539847D-03 0.100000000000D+01
  </mgrwgt>
  </event>
  <event>
  6     66 -.42622971E-03 0.40227293E+02 0.75467711E-02 0.11509462E+00
        2 -1    0    0  502    0 0.00000000E+00 0.00000000E+00 0.15968504E+03 0.15968536E+03 0.32000000E+00 0.0000E+00 0.9000E+01
       -1 -1    0    0    0  501 -.00000000E+00 -.00000000E+00 -.78259156E+03 0.78259162E+03 0.32000000E+00 0.0000E+00 0.9000E+01
       25  1    1    2    0    0 0.38030383E+02 -.46631553E+02 -.16114676E+02 0.13966207E+03 0.12500000E+03 0.0000E+00 0.9000E+01
       24  1    1    2    0    0 -.12577298E+03 0.18723965E+02 0.27126679E+02 0.15288068E+03 0.80419002E+02 0.0000E+00 0.9000E+01
       21  1    1    2  502  503 0.62197517E+02 -.91901353E+01 -.55743526E+03 0.56097025E+03 0.75000000E+00 0.0000E+00 0.9000E+01
       21  1    1    2  503  501 0.25545078E+02 0.37097723E+02 -.76483258E+02 0.88763976E+02 0.75000000E+00 0.0000E+00 0.9000E+01
#aMCatNLO 2  0  0  5  1 0.38100613D+02 0.00000000D+00  -5  6  0 0.00000000D+00 0.00000000D+00 0.00000000D+00 0.00000000D+00 0.00000000D+00
  <mgrwgt>
 -.1065972914D+00    2    2    0
 0.353508619062267D+03 0.000000000000000D+00 0.000000000000000D+00 0.353508619062267D+03
 0.353508619062267D+03 -.000000000000000D+00 -.000000000000000D+00 -.353508619062267D+03
 0.174548830391311D+03 0.365233265799614D+02 -.471108902859635D+02 0.106249257987865D+03
 0.233401459916143D+03 -.127778348648778D+03 0.180861326821816D+02 0.177072332558788D+03
 0.299066947817080D+03 0.912550220688165D+02 0.290247576037818D+02 -.283321590546653D+03
 0.000000000000000D+00 0.000000000000000D+00 0.000000000000000D+00 0.000000000000000D+00
 0.353508619062267D+03 0.000000000000000D+00 0.000000000000000D+00 0.353508619062267D+03
 0.353508619062267D+03 -.000000000000000D+00 -.000000000000000D+00 -.353508619062267D+03
 0.171931329817389D+03 0.380337176041229D+02 -.466304922501145D+02 0.101559911827934D+03
 0.227638598862515D+03 -.125768563251141D+03 0.187253691064305D+02 0.170832505066484D+03
 0.256391965086482D+03 0.621176878357363D+02 -.928859010955125D+01 -.248579875920450D+03
 0.510553443581465D+02 0.256171578112821D+02 0.371937132532352D+02 -.238125409739678D+02
-.501684369936D-02 0.000000000000D+00 0.000000000000D+00 0.622313995271D-05 0.000000000000D+00  6 2 -1 25 24 21 21 4 0.24566958D-01 0.12039873D+00 0.39432325D+05 0.39432325D+05 0.39432325D+05 0.12026312D+01  1  2 13  3  6  5       21 -.174557024653D+00 0.100000000000D+01
0.195319185882D-02 0.000000000000D+00 0.000000000000D+00 0.624856704929D-05 0.243879855953D-07  6 2 -1 25 24 21 21 4 0.24566958D-01 0.12039873D+00 0.39432325D+05 0.39432325D+05 0.39432325D+05 0.12026312D+01  1  2  1  3  6  5       21 0.679597332274D-01 0.100000000000D+01
  </mgrwgt>
  </event>
  <event>
  5     66 0.42622971E-03 0.22099996E+02 0.75467711E-02 0.12410040E+00
        2 -1    0    0  502    0 0.00000000E+00 0.00000000E+00 0.14723768E+04 0.14723768E+04 0.32000000E+00 0.0000E+00 0.9000E+01
       -1 -1    0    0    0  501 0.00000000E+00 0.00000000E+00 -.12328609E+02 0.12332762E+02 0.32000000E+00 0.0000E+00 0.9000E+01
       25  1    1    2    0    0 0.29484631E+02 0.11073137E+02 0.88954640E+03 0.89883800E+03 0.12500000E+03 0.0000E+00 0.9000E+01
       24  1    1    2    0    0 -.43312489E+02 0.61590781E+01 0.28121730E+03 0.29574362E+03 0.80419002E+02 0.0000E+00 0.9000E+01
       21  1    1    2  502  501 0.13827858E+02 -.17232216E+02 0.28928449E+03 0.29012797E+03 0.75000000E+00 0.0000E+00 0.9000E+01
#aMCatNLO 1  0  0  5  2 0.16242058D+00 0.00000000D+00  -5  6  0 0.00000000D+00 0.00000000D+00 0.00000000D+00 0.00000000D+00 0.00000000D+00
  <mgrwgt>
 0.1032094756D+01   15    2    0
 0.134742222747124D+03 0.000000000000000D+00 0.000000000000000D+00 0.134742222747124D+03
 0.134742222747124D+03 -.000000000000000D+00 -.000000000000000D+00 -.134742222747124D+03
 0.132595913005833D+03 0.294826547319786D+02 0.110756008939021D+02 0.310609124245312D+02
 0.105769110574074D+03 -.433140658097938D+02 0.616104304568597D+01 -.529700108445736D+02
 0.311194219143407D+02 0.138314110778152D+02 -.172366439395880D+02 0.219090984200423D+02
 0.000000000000000D+00 0.000000000000000D+00 0.000000000000000D+00 0.000000000000000D+00
 0.134742222747124D+03 0.000000000000000D+00 0.000000000000000D+00 0.134742222747124D+03
 0.134742222747124D+03 -.000000000000000D+00 -.000000000000000D+00 -.134742222747124D+03
 0.132596127994211D+03 0.294830940913039D+02 0.110750533662341D+02 0.310616083742536D+02
 0.105768663593428D+03 -.433137153426629D+02 0.616060629508161D+01 -.529694557010080D+02
 0.941314748972403D+01 0.405366627756369D+01 -.519458469105995D+01 0.672245678757747D+01
 0.217065064168848D+02 0.977695497379534D+01 -.120410749702558D+02 0.151853905391768D+02
0.642049096189D-05 0.000000000000D+00 0.000000000000D+00 0.434659257067D-04 0.000000000000D+00  6 2 -1 25 24 21 21 2 0.22651983D+00 0.18970312D-02 0.14708339D+05 0.14708339D+05 0.14708339D+05 0.12487959D+01  1  2  2  3  6  5       21 0.115271868979D-01 0.100000000000D+01
0.876081739965D-06 0.338818616575D-06 -.246563758478D-07 0.434659257067D-04 0.000000000000D+00  6 2 -1 25 24 21 21 4 0.22651983D+00 0.18970312D-02 0.14708339D+05 0.14708339D+05 0.14708339D+05 0.12487959D+01  1  2  3  3  6  5       21 0.245291573132D-02 0.100000000000D+01
0.213139928824D-06 0.000000000000D+00 0.000000000000D+00 0.434659257067D-04 0.000000000000D+00  6 2 -1 25 24 21 21 4 0.22651983D+00 0.18970312D-02 0.14708339D+05 0.14708339D+05 0.14708339D+05 0.12487959D+01  1  2 15  3  6  5       21 0.596764274993D-03 0.100000000000D+01
-.154612787676D-01 0.000000000000D+00 0.000000000000D+00 0.434659257067D-04 0.000000000000D+00  6 2 -1 25 24 21 21 4 0.22651983D+00 0.18970312D-02 0.14708339D+05 0.14708339D+05 0.14708339D+05 0.12487959D+01  1  2  4  3  6  5       21 -.432895838199D+02 0.100000000000D+01
-.331752833046D-02 0.000000000000D+00 0.000000000000D+00 0.434659257067D-04 0.000000000000D+00  6 2 -1 25 24 21 21 4 0.22651983D+00 0.18970312D-02 0.14708339D+05 0.14708339D+05 0.14708339D+05 0.12487959D+01  1  2  5  3  6  5       21 -.928865088685D+01 0.100000000000D+01
0.157703098967D-01 0.000000000000D+00 -.000000000000D+00 0.434659257067D-04 0.000000000000D+00  6 2 -1 25 24 21 21 4 0.22651983D+00 0.18970312D-02 0.14708339D+05 0.14708339D+05 0.14708339D+05 0.12487959D+01  1  2  6  3  6  5       21 0.441548310721D+02 0.100000000000D+01
0.335804971008D-02 0.000000000000D+00 0.000000000000D+00 0.434659257067D-04 0.997024543748D-02  6 2 -1 25 24 21 21 4 0.22651983D+00 0.18970312D-02 0.14708274D+05 0.14708274D+05 0.14708274D+05 0.12487961D+01  1  2 11  3  6  5       21 0.940211113639D+01 0.100000000000D+01
-.251713484207D-03 0.000000000000D+00 0.000000000000D+00 0.434659257067D-04 0.000000000000D+00  6 2 -1 25 24 1 -1 4 0.22651983D+00 0.18970312D-02 0.14708339D+05 0.14708339D+05 0.14708339D+05 0.12487959D+01  1  2  5  6  6  5       21 -.704765248529D+00 0.100000000000D+01
0.255249986012D-03 0.000000000000D+00 0.000000000000D+00 0.434659257067D-04 0.232274871085D-03  6 2 -1 25 24 1 -1 4 0.22651983D+00 0.18970312D-02 0.14708274D+05 0.14708274D+05 0.14708274D+05 0.12487961D+01  1  2 11  6  6  5       21 0.714667424026D+00 0.100000000000D+01
-.251713484207D-03 0.000000000000D+00 0.000000000000D+00 0.434659257067D-04 0.000000000000D+00  6 2 -1 25 24 2 -2 4 0.22651983D+00 0.18970312D-02 0.14708339D+05 0.14708339D+05 0.14708339D+05 0.12487959D+01  1  2  5  7  6  5       21 -.704765248529D+00 0.100000000000D+01
0.255004788746D-03 0.000000000000D+00 0.000000000000D+00 0.434659257067D-04 0.232052259201D-03  6 2 -1 25 24 2 -2 4 0.22651983D+00 0.18970312D-02 0.14708274D+05 0.14708274D+05 0.14708274D+05 0.12487961D+01  1  2 11  7  6  5       21 0.713980902936D+00 0.100000000000D+01
-.251713484207D-03 0.000000000000D+00 0.000000000000D+00 0.434659257067D-04 0.000000000000D+00  6 2 -1 25 24 3 -3 4 0.22651983D+00 0.18970312D-02 0.14708339D+05 0.14708339D+05 0.14708339D+05 0.12487959D+01  1  2  5  8  6  5       21 -.704765248529D+00 0.100000000000D+01
-.251713484207D-03 0.000000000000D+00 0.000000000000D+00 0.434659257067D-04 0.000000000000D+00  6 2 -1 25 24 4 -4 4 0.22651983D+00 0.18970312D-02 0.14708339D+05 0.14708339D+05 0.14708339D+05 0.12487959D+01  1  2  5  8  6  5       21 -.704765248529D+00 0.100000000000D+01
0.255230021927D-03 0.000000000000D+00 0.000000000000D+00 0.434659257067D-04 0.232256693613D-03  6 2 -1 25 24 3 -3 4 0.22651983D+00 0.18970312D-02 0.14708274D+05 0.14708274D+05 0.14708274D+05 0.12487961D+01  1  2 11  8  6  5       21 0.714611527133D+00 0.100000000000D+01
0.255230021927D-03 0.000000000000D+00 0.000000000000D+00 0.434659257067D-04 0.232256693613D-03  6 2 -1 25 24 4 -4 4 0.22651983D+00 0.18970312D-02 0.14708274D+05 0.14708274D+05 0.14708274D+05 0.12487961D+01  1  2 11  8  6  5       21 0.714611527133D+00 0.100000000000D+01
  </mgrwgt>
  </event>
  <event>
  5     66 0.42622971E-03 0.43784998E+02 0.75467711E-02 0.10770967E+00
        2 -1    0    0  502    0 0.00000000E+00 0.00000000E+00 0.76966936E+02 0.76967601E+02 0.32000000E+00 0.0000E+00 0.9000E+01
       -1 -1    0    0    0  501 0.00000000E+00 0.00000000E+00 -.29920766E+03 0.29920783E+03 0.32000000E+00 0.0000E+00 0.9000E+01
       25  1    1    2    0    0 0.32499160E+02 0.46842852E+02 -.20693689E+03 0.24839147E+03 0.12500000E+03 0.0000E+00 0.9000E+01
       24  1    1    2    0    0 -.48904886E+01 -.12865441E+02 -.58729391E+00 0.81590424E+02 0.80419002E+02 0.0000E+00 0.9000E+01
       21  1    1    2  502  501 -.27608672E+02 -.33977411E+02 -.14716537E+02 0.46193530E+02 0.75000000E+00 0.0000E+00 0.9000E+01
#aMCatNLO 1  0  0  2  1 0.26224520D+03 0.00000000D+00  -5  6  0 0.00000000D+00 0.00000000D+00 0.00000000D+00 0.00000000D+00 0.00000000D+00
  <mgrwgt>
 0.1690432832D+00    3    2    0
 0.151753924816378D+03 0.000000000000000D+00 0.000000000000000D+00 0.151753924816378D+03
 0.151753924816378D+03 0.000000000000000D+00 0.000000000000000D+00 -.151753924816378D+03
 0.156336784287921D+03 0.325010123959249D+02 0.468451313737869D+02 -.746016620545441D+02
 0.100694587895164D+03 -.488929578944293D+01 -.128639731342583D+02 0.590152273476153D+02
 0.464764774496725D+02 -.276117166064820D+02 -.339811582395286D+02 0.155864347069288D+02
 0.000000000000000D+00 -.000000000000000D+00 0.000000000000000D+00 0.000000000000000D+00
 0.376094023604586D+03 0.000000000000000D+00 0.000000000000000D+00 0.376094023604586D+03
 0.298500126399663D+03 0.000000000000000D+00 0.000000000000000D+00 -.298500126399663D+03
 0.228108676386735D+03 0.173868706647894D+03 0.247554662690103D+02 -.746016620545441D+02
 0.130618170300348D+03 0.801686763342962D+02 -.261548606220030D+02 0.590152273476153D+02
 0.423835610460689D+02 0.506376025111835D+01 -.390869240564116D+02 0.155864347069288D+02
 0.273483742271097D+03 -.259101143233309D+03 0.404863184094043D+02 0.775938972049231D+02
0.366516866280D-03 0.000000000000D+00 0.000000000000D+00 0.911162946273D-05 0.000000000000D+00  6 2 -1 25 24 21 21 2 0.11841131D-01 0.46032011D-01 0.17260989D+05 0.17260989D+05 0.17260989D+05 0.12409307D+01  1  2  2  2  6  2       -1 0.154511924418D+00 0.100000000000D+01
0.540184731479D-05 0.193416264148D-04 -.140752127262D-05 0.911162946273D-05 0.000000000000D+00  6 2 -1 25 24 21 21 4 0.11841131D-01 0.46032011D-01 0.17260989D+05 0.17260989D+05 0.17260989D+05 0.12409307D+01  1  2  3  2  6  2       -1 0.350675496480D-02 0.100000000000D+01
0.169824315967D-04 0.000000000000D+00 0.000000000000D+00 0.911162946273D-05 0.000000000000D+00  6 2 -1 25 24 21 21 4 0.11841131D-01 0.46032011D-01 0.17260989D+05 0.17260989D+05 0.17260989D+05 0.12409307D+01  1  2 15  2  6  2       -1 0.110246037782D-01 0.100000000000D+01
  </mgrwgt>
  </event>
  <event>
  5     66 0.42622971E-03 0.24572137E+02 0.75467711E-02 0.11776223E+00
        2 -1    0    0  502    0 0.00000000E+00 0.00000000E+00 0.10496361E+03 0.10496409E+03 0.32000000E+00 0.0000E+00 0.9000E+01
       -1 -1    0    0    0  501 -.00000000E+00 -.00000000E+00 -.35575934E+03 0.35575949E+03 0.32000000E+00 0.0000E+00 0.9000E+01
       25  1    1    2    0    0 -.25465618E+02 0.11464218E+03 -.27871049E+02 0.17376168E+03 0.12500000E+03 0.0000E+00 0.9000E+01
       24  1    1    2    0    0 0.43764943E+02 -.98245594E+02 -.11665230E+03 0.17788351E+03 0.80419002E+02 0.0000E+00 0.9000E+01
       21  1    1    2  502  501 -.18299325E+02 -.16396584E+02 -.10627239E+03 0.10907839E+03 0.75000000E+00 0.0000E+00 0.9000E+01
#aMCatNLO 1  0  0  5  1 0.19485344D+02 0.00000000D+00  -5  6  0 0.00000000D+00 0.00000000D+00 0.00000000D+00 0.00000000D+00 0.00000000D+00
  <mgrwgt>
 0.1984313558D+00   15    2    0
 0.193240599827617D+03 0.000000000000000D+00 0.000000000000000D+00 0.193240599827617D+03
 0.193240599827617D+03 -.000000000000000D+00 -.000000000000000D+00 -.193240599827617D+03
 0.189056042672887D+03 -.254649428890772D+02 0.114642782593385D+03 0.795346236178576D+02
 0.136356092955657D+03 0.437654294957096D+02 -.982451576867677D+02 -.236271941609566D+02
 0.610690640266904D+02 -.183004866066324D+02 -.163976249066176D+02 -.559074294569009D+02
 0.000000000000000D+00 0.000000000000000D+00 0.000000000000000D+00 -.000000000000000D+00
 0.193240599827617D+03 0.000000000000000D+00 0.000000000000000D+00 0.193240599827617D+03
 0.193240599827617D+03 -.000000000000000D+00 -.000000000000000D+00 -.193240599827617D+03
 0.185762391828584D+03 -.274618062685897D+02 0.112853550569624D+03 0.734342667844658D+02
 0.137683435733877D+03 0.423054706222704D+02 -.995533118632292D+02 -.280873240734146D+02
 0.308312302002460D+02 -.197419304525725D+02 -.190676771691934D+02 -.140443805501621D+02
 0.322041418925277D+02 0.489826609889176D+01 0.576743846279884D+01 -.313025621608892D+02
0.472555485347D-03 0.000000000000D+00 0.000000000000D+00 0.299423421587D-04 0.000000000000D+00  6 2 -1 25 24 21 21 2 0.16148296D-01 0.54732255D-01 0.27287374D+05 0.27287374D+05 0.27287374D+05 0.12192421D+01  1  2  2  3  6  5       21 0.977849149513D-01 0.100000000000D+01
0.758730371514D-04 0.249374380792D-04 -.181473749045D-05 0.299423421587D-04 0.000000000000D+00  6 2 -1 25 24 21 21 4 0.16148296D-01 0.54732255D-01 0.27287374D+05 0.27287374D+05 0.27287374D+05 0.12192421D+01  1  2  3  3  6  5       21 0.233392251919D-01 0.100000000000D+01
0.101138407151D-04 0.000000000000D+00 0.000000000000D+00 0.299423421587D-04 0.000000000000D+00  6 2 -1 25 24 21 21 4 0.16148296D-01 0.54732255D-01 0.27287374D+05 0.27287374D+05 0.27287374D+05 0.12192421D+01  1  2 15  3  6  5       21 0.311110790958D-02 0.100000000000D+01
0.143903460019D-03 0.000000000000D+00 0.000000000000D+00 0.298072375448D-04 0.000000000000D+00  6 2 -1 25 24 21 21 4 0.16148296D-01 0.54732255D-01 0.28973651D+05 0.28973651D+05 0.28973651D+05 0.12164883D+01  1  2 12  3  6  5       21 0.438991470185D-01 0.100000000000D+01
-.183362700042D-03 0.000000000000D+00 0.000000000000D+00 0.299423421587D-04 0.000000000000D+00  6 2 -1 25 24 21 21 4 0.16148296D-01 0.54732255D-01 0.27287374D+05 0.27287374D+05 0.27287374D+05 0.12192421D+01  1  2  4  3  6  5       21 -.564040073885D-01 0.100000000000D+01
-.233133211730D-03 0.000000000000D+00 0.000000000000D+00 0.299423421587D-04 0.000000000000D+00  6 2 -1 25 24 21 21 4 0.16148296D-01 0.54732255D-01 0.27287374D+05 0.27287374D+05 0.27287374D+05 0.12192421D+01  1  2  5  3  6  5       21 -.717138621645D-01 0.100000000000D+01
0.495366848604D-03 0.000000000000D+00 -.000000000000D+00 0.299423421587D-04 0.000000000000D+00  6 2 -1 25 24 21 21 4 0.16148296D-01 0.54732255D-01 0.27287374D+05 0.27287374D+05 0.27287374D+05 0.12192421D+01  1  2  6  3  6  5       21 0.152379275514D+00 0.100000000000D+01
0.557488575129D-05 0.000000000000D+00 0.000000000000D+00 0.298072375448D-04 0.000000000000D+00  6 2 -1 25 24 1 -1 4 0.16148296D-01 0.54732255D-01 0.28973651D+05 0.28973651D+05 0.28973651D+05 0.12164883D+01  1  2 12  6  6  5       21 0.170067300102D-02 0.100000000000D+01
-.623467900407D-06 0.000000000000D+00 0.000000000000D+00 0.299423421587D-04 0.000000000000D+00  6 2 -1 25 24 1 -1 4 0.16148296D-01 0.54732255D-01 0.27287374D+05 0.27287374D+05 0.27287374D+05 0.12192421D+01  1  2  5  6  6  5       21 -.191784305385D-03 0.100000000000D+01
0.557488575129D-05 0.000000000000D+00 0.000000000000D+00 0.298072375448D-04 0.000000000000D+00  6 2 -1 25 24 2 -2 4 0.16148296D-01 0.54732255D-01 0.28973651D+05 0.28973651D+05 0.28973651D+05 0.12164883D+01  1  2 12  7  6  5       21 0.170067300102D-02 0.100000000000D+01
-.623467900407D-06 0.000000000000D+00 0.000000000000D+00 0.299423421587D-04 0.000000000000D+00  6 2 -1 25 24 2 -2 4 0.16148296D-01 0.54732255D-01 0.27287374D+05 0.27287374D+05 0.27287374D+05 0.12192421D+01  1  2  5  7  6  5       21 -.191784305385D-03 0.100000000000D+01
0.557488575129D-05 0.000000000000D+00 0.000000000000D+00 0.298072375448D-04 0.000000000000D+00  6 2 -1 25 24 3 -3 4 0.16148296D-01 0.54732255D-01 0.28973651D+05 0.28973651D+05 0.28973651D+05 0.12164883D+01  1  2 12  8  6  5       21 0.170067300102D-02 0.100000000000D+01
0.557488575129D-05 0.000000000000D+00 0.000000000000D+00 0.298072375448D-04 0.000000000000D+00  6 2 -1 25 24 4 -4 4 0.16148296D-01 0.54732255D-01 0.28973651D+05 0.28973651D+05 0.28973651D+05 0.12164883D+01  1  2 12  8  6  5       21 0.170067300102D-02 0.100000000000D+01
-.623467900407D-06 0.000000000000D+00 0.000000000000D+00 0.299423421587D-04 0.000000000000D+00  6 2 -1 25 24 3 -3 4 0.16148296D-01 0.54732255D-01 0.27287374D+05 0.27287374D+05 0.27287374D+05 0.12192421D+01  1  2  5  8  6  5       21 -.191784305385D-03 0.100000000000D+01
-.623467900407D-06 0.000000000000D+00 0.000000000000D+00 0.299423421587D-04 0.000000000000D+00  6 2 -1 25 24 4 -4 4 0.16148296D-01 0.54732255D-01 0.27287374D+05 0.27287374D+05 0.27287374D+05 0.12192421D+01  1  2  5  8  6  5       21 -.191784305385D-03 0.100000000000D+01
  </mgrwgt>
  </event>
  <event>
  5     66 0.42622971E-03 0.44945996E+02 0.75467711E-02 0.10758557E+00
        2 -1    0    0  502    0 0.00000000E+00 0.00000000E+00 0.67106046E+02 0.67106809E+02 0.32000000E+00 0.0000E+00 0.9000E+01
       -1 -1    0    0    0  501 0.00000000E+00 0.00000000E+00 -.39833566E+03 0.39833579E+03 0.32000000E+00 0.0000E+00 0.9000E+01
       25  1    1    2    0    0 0.59152549E+02 -.51802633E+02 -.11698613E+03 0.18839663E+03 0.12500000E+03 0.0000E+00 0.9000E+01
       24  1    1    2    0    0 -.97969076E+02 0.29153688E+02 -.14843344E+03 0.19735141E+03 0.80419002E+02 0.0000E+00 0.9000E+01
       21  1    1    2  502  501 0.38816527E+02 0.22648945E+02 -.65810045E+02 0.79694554E+02 0.75000000E+00 0.0000E+00 0.9000E+01
#aMCatNLO 1  0  0  1  1 0.23873083D+03 0.00000000D+00  -5  6  0 0.00000000D+00 0.00000000D+00 0.00000000D+00 0.00000000D+00 0.00000000D+00
  <mgrwgt>
 0.8156832604D-01    5    4    0
 0.163495990346730D+03 0.000000000000000D+00 0.000000000000000D+00 0.163495990346730D+03
 0.163495990346730D+03 0.000000000000000D+00 0.000000000000000D+00 -.163495990346730D+03
 0.149662521248835D+03 0.591502651031998D+02 -.518039659612948D+02 0.243200640513190D+02
 0.130555458109792D+03 -.979710688812675D+02 0.291525257988654D+02 -.113715253900053D+02
 0.467740013348323D+02 0.388208037780677D+02 0.226514401624294D+02 -.129485386613137D+02
 0.000000000000000D+00 0.000000000000000D+00 -.000000000000000D+00 0.000000000000000D+00
 0.555788293771072D+03 0.000000000000000D+00 0.000000000000000D+00 0.555788293771072D+03
 0.242755098377734D+03 0.000000000000000D+00 0.000000000000000D+00 -.242755098377734D+03
 0.128020909583127D+03 -.127213555802884D+02 0.332488905540489D+01 0.243200640513190D+02
 0.231354943948835D+03 -.191642798088282D+03 0.101003071668126D+03 -.113715253900053D+02
 0.454897614875509D+02 0.149405666874563D+02 0.409686857708227D+02 -.129485386613137D+02
 0.393677777129293D+03 0.189423586981114D+03 -.145296646494354D+03 0.313033195393338D+03
 0.163495990346730D+03 0.000000000000000D+00 0.000000000000000D+00 0.163495990346730D+03
 0.163495990346730D+03 0.000000000000000D+00 0.000000000000000D+00 -.163495990346730D+03
 0.149662521248835D+03 0.591502651031998D+02 -.518039659612948D+02 0.243200640513190D+02
 0.130555458109792D+03 -.979710688812675D+02 0.291525257988654D+02 -.113715253900053D+02
 0.000000000000000D+00 0.000000000000000D+00 -.000000000000000D+00 0.000000000000000D+00
 0.467740013348323D+02 0.388208037780677D+02 0.226514401624294D+02 -.129485386613137D+02
 0.555788293771072D+03 0.000000000000000D+00 0.000000000000000D+00 0.555788293771072D+03
 0.242755098377734D+03 0.000000000000000D+00 0.000000000000000D+00 -.242755098377734D+03
 0.128020909583127D+03 -.127213555802884D+02 0.332488905540489D+01 0.243200640513190D+02
 0.231354943948835D+03 -.191642798088282D+03 0.101003071668126D+03 -.113715253900053D+02
 0.393677777129293D+03 0.189423586981114D+03 -.145296646494354D+03 0.313033195393338D+03
 0.454897614875509D+02 0.149405666874563D+02 0.409686857708227D+02 -.129485386613137D+02
0.251183279152D-03 0.000000000000D+00 0.000000000000D+00 0.100737951814D-04 0.000000000000D+00  6 2 -1 25 24 21 21 2 0.10324076D-01 0.61282478D-01 0.26030366D+05 0.26030366D+05 0.26030366D+05 0.12214216D+01  1  2  2  1  6  1        2 0.719259841550D-01 0.100000000000D+01
0.159058901038D-04 0.132553058098D-04 -.964609930020D-06 0.100737951814D-04 0.000000000000D+00  6 2 -1 25 24 21 21 4 0.10324076D-01 0.61282478D-01 0.26030366D+05 0.26030366D+05 0.26030366D+05 0.12214216D+01  1  2  3  1  6  1        2 0.679491818054D-02 0.100000000000D+01
0.733928195330D-05 0.000000000000D+00 0.000000000000D+00 0.100737951814D-04 0.000000000000D+00  6 2 -1 25 24 21 21 4 0.10324076D-01 0.61282478D-01 0.26030366D+05 0.26030366D+05 0.26030366D+05 0.12214216D+01  1  2 15  1  6  1        2 0.313530522663D-02 0.100000000000D+01
0.682562328284D-05 0.000000000000D+00 -.208810791137D-03 0.100737951814D-04 0.000000000000D+00  6 2 -1 25 24 21 21 4 0.50209447D-01 0.61282478D-01 0.26030366D+05 0.26030366D+05 0.26030366D+05 0.12214216D+01  1  2  5  1  6  1        2 0.489232938578D-03 0.100000000000D+01
-.351900494370D-05 0.000000000000D+00 -.401836134829D-04 0.100737951814D-04 0.000000000000D+00  6 21 -1 25 24 -2 21 4 0.50209447D-01 0.61282478D-01 0.26030366D+05 0.26030366D+05 0.26030366D+05 0.12214216D+01  3  4  5  4  5  1        2 -.777114461598D-03 0.100000000000D+01
  </mgrwgt>
  </event>
  <event>
  6     66 0.42622971E-03 0.21473641E+03 0.75467711E-02 0.10966200E+00
        2 -1    0    0  502    0 0.00000000E+00 0.00000000E+00 0.49180977E+03 0.49180987E+03 0.32000000E+00 0.0000E+00 0.9000E+01
       -1 -1    0    0    0  503 0.00000000E+00 0.00000000E+00 -.31780497E+03 0.31780513E+03 0.32000000E+00 0.0000E+00 0.9000E+01
       25  1    1    2    0    0 0.42593471E+01 -.11753470E+03 0.58247097E+02 0.18124644E+03 0.12500000E+03 0.0000E+00 0.9000E+01
       24  1    1    2    0    0 0.63164691E+02 -.10849074E+03 0.28861975E+03 0.32485165E+03 0.80419002E+02 0.0000E+00 0.9000E+01
       21  1    1    2  502  501 -.62779636E+02 0.21271424E+03 -.12709431E+03 0.25562112E+03 0.75000000E+00 0.0000E+00 0.9000E+01
       21  1    1    2  501  503 -.46444024E+01 0.13311199E+02 -.45767737E+02 0.47895790E+02 0.75000000E+00 0.0000E+00 0.9000E+01
#aMCatNLO 2  0  0  2  5 0.14098173D+02 0.00000000D+00  -5  6  0 0.00000000D+00 0.00000000D+00 0.00000000D+00 0.00000000D+00 0.00000000D+00
  <mgrwgt>
 0.2607952163D+00    2    2    0
 0.364594785349245D+03 0.000000000000000D+00 0.000000000000000D+00 0.364594785349245D+03
 0.364594785349245D+03 0.000000000000000D+00 0.000000000000000D+00 -.364594785349245D+03
 0.169604111026976D+03 0.317242283698162D+01 -.114419513074876D+03 0.621813784847636D+01
 0.249973061120926D+03 0.615653244457191D+02 -.103906873245854D+03 0.203549472733188D+03
 0.309612398550588D+03 -.647377472827008D+02 0.218326386320730D+03 -.209767610581665D+03
 0.000000000000000D+00 -.000000000000000D+00 0.000000000000000D+00 -.000000000000000D+00
 0.365451379348856D+03 0.000000000000000D+00 0.000000000000000D+00 0.365451379348856D+03
 0.427684289976111D+03 0.000000000000000D+00 0.000000000000000D+00 -.427684289976111D+03
 0.171744717087789D+03 0.425939201679868D+01 -.117534846700496D+03 0.621813784847636D+01
 0.252308700870272D+03 0.631647580746082D+02 -.108490967678840D+03 0.203549472733188D+03
 0.305272427259889D+03 -.627797477240544D+02 0.212714615557342D+03 -.209767610581665D+03
 0.638098241070170D+02 -.464440236735254D+01 0.133111988219950D+02 -.622329106272549D+02
-.439799785546D-02 0.000000000000D+00 0.000000000000D+00 0.706895583527D-06 0.000000000000D+00  6 2 -1 25 24 21 21 4 0.75485258D-01 0.49266758D-01 0.77451999D+05 0.77451999D+05 0.77451999D+05 0.11739051D+01  1  2 13  2  6  2       -1 -.257202977535D+00 0.100000000000D+01
0.875651131810D-02 0.000000000000D+00 0.000000000000D+00 0.709473796223D-06 0.272579260955D-07  6 2 -1 25 24 21 21 4 0.75662606D-01 0.48892798D-01 0.77451999D+05 0.77451999D+05 0.77451999D+05 0.11739051D+01  1  2  1  2  6  2       -1 0.517998193845D+00 0.100000000000D+01
  </mgrwgt>
  </event>
  <event>
  5     66 -.42622971E-03 0.32944557E+02 0.75467711E-02 0.12099107E+00
        2 -1    0    0  502    0 0.00000000E+00 0.00000000E+00 0.37106618E+04 0.37106618E+04 0.32000000E+00 0.0000E+00 0.9000E+01
       -1 -1    0    0    0  501 0.00000000E+00 0.00000000E+00 -.53833462E+01 0.53928486E+01 0.32000000E+00 0.0000E+00 0.9000E+01
       25  1    1    2    0    0 -.84592938E+01 0.39146352E+02 0.16932631E+04 0.16983430E+04 0.12500000E+03 0.0000E+00 0.9000E+01
       24  1    1    2    0    0 0.23162244E+02 -.96673055E+01 0.66784607E+03 0.67313857E+03 0.80419002E+02 0.0000E+00 0.9000E+01
       21  1    1    2  502  501 -.14702950E+02 -.29479047E+02 0.13441692E+04 0.13445731E+04 0.75000000E+00 0.0000E+00 0.9000E+01
#aMCatNLO 1  0  0  2  5 0.24532466D+02 0.00000000D+00  -5  6  0 0.00000000D+00 0.00000000D+00 0.00000000D+00 0.00000000D+00 0.00000000D+00
  <mgrwgt>
 -.4677078083D+00    7    4    0
 0.141398225204142D+03 0.000000000000000D+00 0.000000000000000D+00 0.141398225204142D+03
 0.141398225204142D+03 0.000000000000000D+00 0.000000000000000D+00 -.141398225204142D+03
 0.131275394274787D+03 -.845869294324706D+01 0.391475567458264D+02 -.203677601246220D+01
 0.949950143722030D+02 0.231626785728371D+02 -.966643378448606D+01 -.438963230854942D+02
 0.565260417612939D+02 -.147039856295901D+02 -.294811229613404D+02 0.459330990979564D+02
 0.000000000000000D+00 0.000000000000000D+00 -.000000000000000D+00 -.000000000000000D+00
 0.146565448185036D+03 0.000000000000000D+00 0.000000000000000D+00 0.146565448185036D+03
 0.215756472476513D+03 0.000000000000000D+00 0.000000000000000D+00 -.215756472476513D+03
 0.135489556096493D+03 -.227342456106616D+02 0.470257953809813D+02 -.203677601246220D+01
 0.926460330610785D+02 0.131213307440670D+02 -.412492262504642D+01 -.438963230854942D+02
 0.567817687763913D+02 -.207674944027962D+02 -.261348588835430D+02 0.459330990979564D+02
 0.774045627275854D+02 0.303804092693908D+02 -.167660138723919D+02 -.691910242914771D+02
 0.141398225204142D+03 0.000000000000000D+00 0.000000000000000D+00 0.141398225204142D+03
 0.141398225204142D+03 0.000000000000000D+00 0.000000000000000D+00 -.141398225204142D+03
 0.131275394274787D+03 -.845869294324706D+01 0.391475567458264D+02 -.203677601246220D+01
 0.949950143722030D+02 0.231626785728371D+02 -.966643378448606D+01 -.438963230854942D+02
 0.000000000000000D+00 0.000000000000000D+00 -.000000000000000D+00 -.000000000000000D+00
 0.565260417612939D+02 -.147039856295901D+02 -.294811229613404D+02 0.459330990979564D+02
 0.146565448185036D+03 0.000000000000000D+00 0.000000000000000D+00 0.146565448185036D+03
 0.215756472476513D+03 0.000000000000000D+00 0.000000000000000D+00 -.215756472476513D+03
 0.135489556096493D+03 -.227342456106616D+02 0.470257953809813D+02 -.203677601246220D+01
 0.926460330610785D+02 0.131213307440670D+02 -.412492262504642D+01 -.438963230854942D+02
 0.774045627275854D+02 0.303804092693908D+02 -.167660138723919D+02 -.691910242914771D+02
 0.567817687763913D+02 -.207674944027962D+02 -.261348588835430D+02 0.459330990979564D+02
0.270604588162D-03 0.000000000000D+00 0.000000000000D+00 0.245863391225D-04 0.000000000000D+00  6 2 -1 25 24 21 21 2 0.57087177D+00 0.82893912D-03 0.15431705D+05 0.15431705D+05 0.15431705D+05 0.12464202D+01  1  2  2  2  6  2       -1 0.889344491620D-01 0.100000000000D+01
0.125149795209D-04 0.142801964435D-04 -.103919287037D-05 0.245863391225D-04 0.000000000000D+00  6 2 -1 25 24 21 21 4 0.57087177D+00 0.82893912D-03 0.15431705D+05 0.15431705D+05 0.15431705D+05 0.12464202D+01  1  2  3  2  6  2       -1 0.638989838553D-02 0.100000000000D+01
0.100843223478D-04 0.000000000000D+00 0.000000000000D+00 0.245863391225D-04 0.000000000000D+00  6 2 -1 25 24 21 21 4 0.57087177D+00 0.82893912D-03 0.15431705D+05 0.15431705D+05 0.15431705D+05 0.12464202D+01  1  2 15  2  6  2       -1 0.514885341855D-02 0.100000000000D+01
-.101598095003D-02 0.000000000000D+00 0.000000000000D+00 0.245863391225D-04 0.000000000000D+00  6 2 -1 25 24 21 21 4 0.57087177D+00 0.82893912D-03 0.15431705D+05 0.15431705D+05 0.15431705D+05 0.12464202D+01  1  2  4  2  6  2       -1 -.518739564975D+00 0.100000000000D+01
-.124684900721D-02 0.000000000000D+00 -.179578886602D-03 0.245863391225D-04 0.000000000000D+00  6 2 -1 25 24 21 21 4 0.57087177D+00 0.13426787D-02 0.15431705D+05 0.15431705D+05 0.15431705D+05 0.12464202D+01  1  2  5  2  6  2       -1 -.320401771876D+00 0.100000000000D+01
0.120912860900D-02 0.000000000000D+00 0.160543798391D-03 0.245863391225D-04 0.000000000000D+00  6 2 -1 25 24 21 21 4 0.57087177D+00 0.82893912D-03 0.15431705D+05 0.15431705D+05 0.15431705D+05 0.12464202D+01  1  2  6  2  6  2       -1 0.617356898879D+00 0.100000000000D+01
-.605640765119D-04 0.000000000000D+00 -.984198679353D-05 0.245863391225D-04 0.000000000000D+00  6 2 21 25 24 1 21 4 0.57087177D+00 0.13426787D-02 0.15431705D+05 0.15431705D+05 0.15431705D+05 0.12464202D+01  3  4  5  5  5  2       -1 -.346396571255D+00 0.100000000000D+01
  </mgrwgt>
  </event>
  <event>
  5     66 0.42622971E-03 0.84835981E+02 0.75467711E-02 0.11068887E+00
        2 -1    0    0  502    0 0.00000000E+00 0.00000000E+00 0.14536821E+04 0.14536822E+04 0.32000000E+00 0.0000E+00 0.9000E+01
       -1 -1    0    0    0  501 0.00000000E+00 0.00000000E+00 -.25832040E+02 0.25834022E+02 0.32000000E+00 0.0000E+00 0.9000E+01
       25  1    1    2    0    0 0.23208927E+02 -.12196895E+03 0.79572897E+03 0.81499980E+03 0.12500000E+03 0.0000E+00 0.9000E+01
       24  1    1    2    0    0 0.19199643E+02 0.48495953E+02 0.17445291E+03 0.19905154E+03 0.80419002E+02 0.0000E+00 0.9000E+01
       21  1    1    2  502  501 -.42408570E+02 0.73472992E+02 0.45766821E+03 0.46546484E+03 0.75000000E+00 0.0000E+00 0.9000E+01
#aMCatNLO 1  0  0  1  5 0.36528663D+01 0.00000000D+00  -5  6  0 0.00000000D+00 0.00000000D+00 0.00000000D+00 0.00000000D+00 0.00000000D+00
  <mgrwgt>
 0.1059086246D+00    3    2    0
 0.193786137683481D+03 0.000000000000000D+00 0.000000000000000D+00 0.193786137683481D+03
 0.193786137683481D+03 0.000000000000000D+00 0.000000000000000D+00 -.193786137683481D+03
 0.179641368719708D+03 0.232095979172096D+02 -.121970108155112D+03 0.350803169404396D+02
 0.117158432947892D+03 0.192000807330501D+02 0.484951951738413D+02 -.673680592070942D+02
 0.907724736993628D+02 -.424096786502598D+02 0.734749129812707D+02 0.322877422666546D+02
 0.000000000000000D+00 -.000000000000000D+00 -.000000000000000D+00 -.000000000000000D+00
 0.247934538680433D+03 0.000000000000000D+00 0.000000000000000D+00 0.247934538680433D+03
 0.313772455544026D+03 0.000000000000000D+00 0.000000000000000D+00 -.313772455544026D+03
 0.158406852908067D+03 0.537016264677193D+02 -.731658234855447D+02 0.350803169404396D+02
 0.142138892703129D+03 0.425887600721995D+02 0.859301517436296D+02 -.673680592070942D+02
 0.110159826369353D+03 -.242855382512574D+02 0.102483665415006D+03 0.322877422666546D+02
 0.151001422243909D+03 -.720048482886614D+02 -.115247993673091D+03 -.658379168635934D+02
0.178491330570D-03 0.000000000000D+00 0.000000000000D+00 0.265387613966D-05 0.000000000000D+00  6 2 -1 25 24 21 21 2 0.22364356D+00 0.39743152D-02 0.31839230D+05 0.31839230D+05 0.31839230D+05 0.12121956D+01  1  2  2  1  6  1        2 0.106481690733D+00 0.100000000000D+01
-.852970623729D-05 0.941924629334D-05 -.685453707234D-06 0.265387613966D-05 0.000000000000D+00  6 2 -1 25 24 21 21 4 0.22364356D+00 0.39743152D-02 0.31839230D+05 0.31839230D+05 0.31839230D+05 0.12121956D+01  1  2  3  1  6  1        2 -.747717039530D-02 0.100000000000D+01
0.787597157117D-05 0.000000000000D+00 0.000000000000D+00 0.265387613966D-05 0.000000000000D+00  6 2 -1 25 24 21 21 4 0.22364356D+00 0.39743152D-02 0.31839230D+05 0.31839230D+05 0.31839230D+05 0.12121956D+01  1  2 15  1  6  1        2 0.690410429479D-02 0.100000000000D+01
  </mgrwgt>
  </event>
  <event>
  6     66 -.42622971E-03 0.15531706E+02 0.75467711E-02 0.12287334E+00
        4 -1    0    0  502    0 0.00000000E+00 0.00000000E+00 0.10374563E+03 0.10375721E+03 0.15500000E+01 0.0000E+00 0.9000E+01
       -3 -1    0    0    0  501 -.00000000E+00 -.00000000E+00 -.21094422E+03 0.21094481E+03 0.50000000E+00 0.0000E+00 0.9000E+01
       25  1    1    2    0    0 0.50230599E+02 -.18291452E+02 -.36199111E+01 0.13599924E+03 0.12500000E+03 0.0000E+00 0.9000E+01
       24  1    1    2    0    0 -.56473206E+02 -.15174355E+01 -.11328723E+03 0.14997579E+03 0.80419002E+02 0.0000E+00 0.9000E+01
       21  1    1    2  503  501 0.84097005E+01 0.15948792E+02 0.13749074E+02 0.22686705E+02 0.75000000E+00 0.0000E+00 0.9000E+01
       21  1    1    2  502  503 -.21670939E+01 0.38600955E+01 -.40405203E+01 0.60402762E+01 0.75000000E+00 0.0000E+00 0.9000E+01
#aMCatNLO 2  0  0  5  2 0.50601466D+01 0.00000000D+00  -5  6  0 0.00000000D+00 0.00000000D+00 0.00000000D+00 0.00000000D+00 0.00000000D+00
  <mgrwgt>
 -.5891372871D-01    3    2    0
 0.147940716288640D+03 0.000000000000000D+00 0.000000000000000D+00 0.147940716288640D+03
 0.147940716288640D+03 -.000000000000000D+00 -.000000000000000D+00 -.147940716288640D+03
 0.142867193684952D+03 0.497406349457416D+02 -.198461953225532D+02 0.437953513266775D+02
 0.119448862899441D+03 -.568805089469292D+02 -.280987936484674D+01 -.675094598815024D+02
 0.335653759928873D+02 0.713987400118766D+01 0.226560746873999D+02 0.237141085548249D+02
 0.000000000000000D+00 0.000000000000000D+00 0.000000000000000D+00 -.000000000000000D+00
 0.147940716288640D+03 0.000000000000000D+00 0.000000000000000D+00 0.147940716288640D+03
 0.147940716288640D+03 -.000000000000000D+00 -.000000000000000D+00 -.147940716288640D+03
 0.143352607223576D+03 0.502447670706390D+02 -.182464955138320D+02 0.454697567761018D+02
 0.118443521943751D+03 -.564614981269677D+02 -.148028441256916D+01 -.661177731278481D+02
 0.289779429900149D+02 0.847077182551666D+01 0.156997516833444D+02 0.228360461046546D+02
 0.510736041993810D+01 -.225404076918792D+01 0.402702824305676D+01 -.218802975290835D+01
-.347639875732D-04 0.000000000000D+00 0.000000000000D+00 0.325910596158D-04 0.000000000000D+00  6 4 -3 25 24 21 21 4 0.15961802D-01 0.32453893D-01 0.16470638D+05 0.16470638D+05 0.16470638D+05 0.12432183D+01  1  2 13  3  6  5       21 -.504483172966D-02 0.100000000000D+01
-.543968137841D-04 0.000000000000D+00 0.000000000000D+00 0.325910596158D-04 0.000000000000D+00  6 4 -3 25 24 21 21 4 0.15961802D-01 0.32453893D-01 0.16470638D+05 0.16470638D+05 0.16470638D+05 0.12432183D+01  1  2 13  3  6  5       21 -.789388074636D-02 0.100000000000D+01
-.317082990597D-03 0.000000000000D+00 0.000000000000D+00 0.325590106229D-04 0.000000000000D+00  6 4 -3 25 24 21 21 4 0.15961802D-01 0.32453893D-01 0.16677831D+05 0.16677831D+05 0.16677831D+05 0.12426069D+01  1  2  8  3  6  5       21 -.459750162360D-01 0.100000000000D+01
  </mgrwgt>
  </event>
  <event>
  5     66 0.42622971E-03 0.27082476E+02 0.75467711E-02 0.10617837E+00
        2 -1    0    0  502    0 0.00000000E+00 0.00000000E+00 0.68088671E+03 0.68088679E+03 0.32000000E+00 0.0000E+00 0.9000E+01
       -1 -1    0    0    0  501 0.00000000E+00 0.00000000E+00 -.22194165E+03 0.22194188E+03 0.32000000E+00 0.0000E+00 0.9000E+01
       25  1    1    2    0    0 -.18789977E+02 0.97586529E+01 -.14639293E+03 0.19365997E+03 0.12500000E+03 0.0000E+00 0.9000E+01
       24  1    1    2    0    0 0.15754996E+02 -.36670501E+02 -.12581360E+02 0.90655679E+02 0.80419002E+02 0.0000E+00 0.9000E+01
       21  1    1    2  502  501 0.30349811E+01 0.26911849E+02 0.61791935E+03 0.61851301E+03 0.75000000E+00 0.0000E+00 0.9000E+01
#aMCatNLO 1  0  0  5  2 0.11844780D+02 0.00000000D+00  -5  6  0 0.00000000D+00 0.00000000D+00 0.00000000D+00 0.00000000D+00 0.00000000D+00
  <mgrwgt>
 0.1886627829D+01    3    2    0
 0.388738032775444D+03 0.000000000000000D+00 0.000000000000000D+00 0.388738032775444D+03
 0.388738032775444D+03 -.000000000000000D+00 -.000000000000000D+00 -.388738032775444D+03
 0.311300018910376D+03 -.187899799636403D+02 0.975862863033089D+01 -.284313924375543D+03
 0.112698974416025D+03 0.157549951811154D+02 -.366705102555715D+02 -.681241270365526D+02
 0.353477072224488D+03 0.303498478252487D+01 0.269118816252402D+02 0.352438051412095D+03
 0.000000000000000D+00 0.000000000000000D+00 0.000000000000000D+00 -.000000000000000D+00
 0.388738032775444D+03 0.000000000000000D+00 0.000000000000000D+00 0.388738032775444D+03
 0.388738032775444D+03 -.000000000000000D+00 -.000000000000000D+00 -.388738032775444D+03
 0.182647908628255D+03 -.174633408126920D+02 0.215222315305168D+02 -.130257759092815D+03
 0.882004757762428D+02 0.162945684056800D+02 -.318859950806542D+02 -.546610747920062D+01
 0.250413305179111D+03 -.165990604465731D+03 -.173084342356246D+03 0.720815723394926D+02
 0.256214375967280D+03 0.167159376872743D+03 0.183448105906383D+03 0.636422942325235D+02
0.191126389481D-01 0.000000000000D+00 0.000000000000D+00 0.157837804996D-03 0.000000000000D+00  6 2 -1 25 24 21 21 2 0.10475183D+00 0.34144893D-01 0.14840280D+05 0.14840280D+05 0.14840280D+05 0.12483529D+01  1  2  2  3  6  5       21 0.123112494724D+01 0.100000000000D+01
0.555400642189D-02 0.100860166705D-02 -.733975660339D-04 0.157837804996D-03 0.000000000000D+00  6 2 -1 25 24 21 21 4 0.10475183D+00 0.34144893D-01 0.14840280D+05 0.14840280D+05 0.14840280D+05 0.12483529D+01  1  2  3  3  6  5       21 0.557522752918D+00 0.100000000000D+01
0.976071848522D-03 0.000000000000D+00 0.000000000000D+00 0.157837804996D-03 0.000000000000D+00  6 2 -1 25 24 21 21 4 0.10475183D+00 0.34144893D-01 0.14840280D+05 0.14840280D+05 0.14840280D+05 0.12483529D+01  1  2 15  3  6  5       21 0.979801287029D-01 0.100000000000D+01
  </mgrwgt>
  </event>
  <event>
  6     66 -.42622971E-03 0.25539655E+02 0.75467711E-02 0.12364419E+00
        2 -1    0    0  502    0 0.00000000E+00 0.00000000E+00 0.16816378E+03 0.16816408E+03 0.32000000E+00 0.0000E+00 0.9000E+01
       -1 -1    0    0    0  503 0.00000000E+00 0.00000000E+00 -.14783638E+03 0.14783673E+03 0.32000000E+00 0.0000E+00 0.9000E+01
       25  1    1    2    0    0 -.19425033E+01 -.86252169E+00 -.60774696E+02 0.13900749E+03 0.12500000E+03 0.0000E+00 0.9000E+01
       24  1    1    2    0    0 -.22053475E+02 0.44695939E+01 0.19044707E+02 0.85651911E+02 0.80419002E+02 0.0000E+00 0.9000E+01
       21  1    1    2  502  501 0.27639901E+02 -.12334122E+02 0.71690259E+02 0.77821272E+02 0.75000000E+00 0.0000E+00 0.9000E+01
       21  1    1    2  501  503 -.36439233E+01 0.87270497E+01 -.96328731E+01 0.13520145E+02 0.75000000E+00 0.0000E+00 0.9000E+01
#aMCatNLO 2  0  0  2  5 0.94572498D+01 0.00000000D+00  -5  6  0 0.00000000D+00 0.00000000D+00 0.00000000D+00 0.00000000D+00 0.00000000D+00
  <mgrwgt>
 -.2874481235D+00    3    2    0
 0.150422319830318D+03 0.000000000000000D+00 0.000000000000000D+00 0.150422319830318D+03
 0.150422319830318D+03 0.000000000000000D+00 0.000000000000000D+00 -.150422319830318D+03
 0.145815246032705D+03 -.370852487725435D+01 0.336554777875052D+01 -.749133226266333D+02
 0.846178631942403D+02 -.230759124960178D+02 0.691743206255030D+01 0.106121728842292D+02
 0.704115304336897D+02 0.267844373732722D+02 -.102829798413008D+02 0.643011497424040D+02
 0.000000000000000D+00 -.000000000000000D+00 0.000000000000000D+00 -.000000000000000D+00
 0.152246809820578D+03 0.000000000000000D+00 0.000000000000000D+00 0.152246809820578D+03
 0.163272359448023D+03 0.000000000000000D+00 0.000000000000000D+00 -.163272359448023D+03
 0.145744727337262D+03 -.194322859746097D+01 -.862265776201377D+00 -.749133226266333D+02
 0.841794957153128D+02 -.220539020112526D+02 0.446975807702579D+01 0.106121728842292D+02
 0.710690273483287D+02 0.276410539363378D+02 -.123345420397716D+02 0.643011497424040D+02
 0.145259188676973D+02 -.364392332762425D+01 0.872704973894719D+01 -.110255496274454D+02
-.848589646032D-03 0.000000000000D+00 0.000000000000D+00 0.331387389791D-04 0.000000000000D+00  6 2 -1 25 24 21 21 4 0.25559754D-01 0.23023176D-01 0.15407203D+05 0.15407203D+05 0.15407203D+05 0.12464986D+01  1  2 13  2  6  2       -1 -.750610547533D+00 0.100000000000D+01
-.949250439379D-05 0.000000000000D+00 0.000000000000D+00 0.333673708974D-04 0.000000000000D+00  6 2 -1 25 24 21 21 4 0.25559754D-01 0.20952757D-01 0.14130145D+05 0.14130145D+05 0.14130145D+05 0.12507911D+01  1  2  8  2  6  2       -1 -.988907189355D-02 0.100000000000D+01
0.531243100003D-03 0.000000000000D+00 0.000000000000D+00 0.333673708974D-04 0.131949409946D-05  6 2 -1 25 24 21 21 4 0.25869771D-01 0.22742676D-01 0.15407203D+05 0.15407203D+05 0.15407203D+05 0.12464986D+01  1  2  1  2  6  2       -1 0.473051495919D+00 0.100000000000D+01
  </mgrwgt>
  </event>
  <event>
  6     66 0.42622971E-03 0.97742228E+02 0.75467711E-02 0.11458339E+00
        2 -1    0    0  502    0 0.00000000E+00 0.00000000E+00 0.39189115E+03 0.39189128E+03 0.32000000E+00 0.0000E+00 0.9000E+01
       21 -1    0    0  503  501 0.00000000E+00 0.00000000E+00 -.14409368E+03 0.14409564E+03 0.75000000E+00 0.0000E+00 0.9000E+01
       25  1    1    2    0    0 0.25405960E+02 0.69046185E+02 0.13845282E+03 0.20051689E+03 0.12500000E+03 0.0000E+00 0.9000E+01
       24  1    1    2    0    0 0.12982785E+02 -.10749670E+02 0.10842936E+03 0.13604503E+03 0.80419002E+02 0.0000E+00 0.9000E+01
        1  1    1    2  503    0 0.25337105E+02 0.50272559E+02 0.38310744E+02 0.68096362E+02 0.32000000E+00 0.0000E+00 0.9000E+01
       21  1    1    2  502  501 -.63725849E+02 -.10856907E+03 -.37395462E+02 0.13132864E+03 0.75000000E+00 0.0000E+00 0.9000E+01
#aMCatNLO 2  0  0  2  5 0.56296528D+02 0.00000000D+00  -5  6  0 0.00000000D+00 0.00000000D+00 0.00000000D+00 0.00000000D+00 0.00000000D+00
  <mgrwgt>
 0.2955892204D-01    1    2    0
 0.207284578716227D+03 0.000000000000000D+00 0.000000000000000D+00 0.207284578716227D+03
 0.207284578716227D+03 0.000000000000000D+00 0.000000000000000D+00 -.207284578716227D+03
 0.166271336452231D+03 0.351765629210052D+02 0.884324153915997D+02 0.544378053808478D+02
 0.982424557408431D+02 0.189479572647743D+02 0.108606056115768D+01 0.531428221265182D+02
 0.000000000000000D+00 0.000000000000000D+00 0.000000000000000D+00 0.000000000000000D+00
 0.150055365239381D+03 -.541245201857795D+02 -.895184759527574D+02 -.107580627507366D+03
 0.242047137225612D+03 0.000000000000000D+00 0.000000000000000D+00 0.242047137225612D+03
 0.233299118657002D+03 0.000000000000000D+00 0.000000000000000D+00 -.233299118657002D+03
 0.154923787998831D+03 0.254062041365608D+02 0.690465801078897D+02 0.544378053808478D+02
 0.978543931580927D+02 0.129829334384755D+02 -.107494279721950D+02 0.531428221265182D+02
 0.569721585538442D+02 0.253371045404520D+02 0.502725586668694D+02 0.874801856861016D+01
 0.165595916171845D+03 -.637262421154883D+02 -.108569710802564D+03 -.107580627507366D+03
0.737653266328D-05 0.000000000000D+00 0.000000000000D+00 0.364327415130D-05 0.146183081544D-08  6 2 21 25 24 1 21 4 0.60290992D-01 0.22168377D-01 0.41901670D+05 0.41901670D+05 0.41901670D+05 0.11999572D+01  1  2  1  5  5  2       -1 0.295589220437D-01 0.100000000000D+01
  </mgrwgt>
  </event>
  <event>
  5     66 0.42622971E-03 0.70938419E+02 0.75467711E-02 0.11108867E+00
        4 -1    0    0  502    0 0.00000000E+00 0.00000000E+00 0.13911416E+03 0.13912280E+03 0.15500000E+01 0.0000E+00 0.9000E+01
       -3 -1    0    0    0  501 0.00000000E+00 0.00000000E+00 -.17763024E+03 0.17763094E+03 0.50000000E+00 0.0000E+00 0.9000E+01
       25  1    1    2    0    0 -.21280973E+02 -.24186415E+02 0.43196741E+02 0.13612061E+03 0.12500000E+03 0.0000E+00 0.9000E+01
       24  1    1    2    0    0 -.23812893E+02 -.30571199E+02 -.54878205E+02 0.10478781E+03 0.80419002E+02 0.0000E+00 0.9000E+01
       21  1    1    2  502  501 0.45093866E+02 0.54757614E+02 -.26834609E+02 0.75845315E+02 0.75000000E+00 0.0000E+00 0.9000E+01
#aMCatNLO 1  0  0  1  5 0.63497358D+02 0.00000000D+00  -5  6  0 0.00000000D+00 0.00000000D+00 0.00000000D+00 0.00000000D+00 0.00000000D+00
  <mgrwgt>
 0.1218830472D-01    5    4    0
 0.157201655834430D+03 0.000000000000000D+00 0.000000000000000D+00 0.157201655834430D+03
 0.157201655834430D+03 0.000000000000000D+00 0.000000000000000D+00 -.157201655834430D+03
 0.142430616890658D+03 -.212820472797238D+02 -.241877198140552D+02 0.601955920448799D+02
 0.988486498998505D+02 -.238136386461006D+02 -.305721046511761D+02 -.424511091054539D+02
 0.731240448783513D+02 0.450956859258244D+02 0.547598244652314D+02 -.177444829394260D+02
 0.000000000000000D+00 -.000000000000000D+00 0.000000000000000D+00 0.000000000000000D+00
 0.285568499199171D+03 0.000000000000000D+00 0.000000000000000D+00 0.285568499199171D+03
 0.249280864281864D+03 0.000000000000000D+00 0.000000000000000D+00 -.249280864281864D+03
 0.151567291810318D+03 0.539341487604452D+02 -.285524472255307D+02 0.601955920448799D+02
 0.100675018692271D+03 0.272323413671202D+02 -.335342564208607D+02 -.424511091054539D+02
 0.106360052843146D+03 0.910147577313450D+02 0.520951825134897D+02 -.177444829394260D+02
 0.176247000135300D+03 -.172181247858910D+03 0.999152113290175D+01 0.362876349173073D+02
 0.157201655834430D+03 0.000000000000000D+00 0.000000000000000D+00 0.157201655834430D+03
 0.157201655834430D+03 0.000000000000000D+00 0.000000000000000D+00 -.157201655834430D+03
 0.142430616890658D+03 -.212820472797238D+02 -.241877198140552D+02 0.601955920448799D+02
 0.988486498998505D+02 -.238136386461006D+02 -.305721046511761D+02 -.424511091054539D+02
 0.000000000000000D+00 -.000000000000000D+00 0.000000000000000D+00 0.000000000000000D+00
 0.731240448783513D+02 0.450956859258244D+02 0.547598244652314D+02 -.177444829394260D+02
 0.285568499199171D+03 0.000000000000000D+00 0.000000000000000D+00 0.285568499199171D+03
 0.249280864281864D+03 0.000000000000000D+00 0.000000000000000D+00 -.249280864281864D+03
 0.151567291810318D+03 0.539341487604452D+02 -.285524472255307D+02 0.601955920448799D+02
 0.100675018692271D+03 0.272323413671202D+02 -.335342564208607D+02 -.424511091054539D+02
 0.176247000135300D+03 -.172181247858910D+03 0.999152113290175D+01 0.362876349173073D+02
 0.106360052843146D+03 0.910147577313450D+02 0.520951825134897D+02 -.177444829394260D+02
0.125662128233D-03 0.000000000000D+00 0.000000000000D+00 0.439772008970D-05 0.000000000000D+00  6 4 -3 25 24 21 21 2 0.21402897D-01 0.27328447D-01 0.20922549D+05 0.20922549D+05 0.20922549D+05 0.12316758D+01  1  2  2  1  6  1        4 0.962072027983D-02 0.100000000000D+01
-.656332422503D-05 0.663137269352D-05 -.482575660012D-06 0.439772008970D-05 0.000000000000D+00  6 4 -3 25 24 21 21 4 0.21402897D-01 0.27328447D-01 0.20922549D+05 0.20922549D+05 0.20922549D+05 0.12316758D+01  1  2  3  1  6  1        4 -.762289304773D-03 0.100000000000D+01
0.631704532299D-05 0.000000000000D+00 0.000000000000D+00 0.439772008970D-05 0.000000000000D+00  6 4 -3 25 24 21 21 4 0.21402897D-01 0.27328447D-01 0.20922549D+05 0.20922549D+05 0.20922549D+05 0.12316758D+01  1  2 15  1  6  1        4 0.733685541409D-03 0.100000000000D+01
0.145327494197D-04 0.000000000000D+00 -.793317032849D-04 0.439772008970D-05 0.000000000000D+00  6 4 -3 25 24 21 21 4 0.59331665D-01 0.27328447D-01 0.20922549D+05 0.20922549D+05 0.20922549D+05 0.12316758D+01  1  2  5  1  6  1        4 0.232554960856D-03 0.100000000000D+01
0.614356589183D-05 0.000000000000D+00 -.906676592628D-05 0.439772008970D-05 0.000000000000D+00  6 21 -3 25 24 -4 21 4 0.59331665D-01 0.27328447D-01 0.20922549D+05 0.20922549D+05 0.20922549D+05 0.12316758D+01  3  4  5  4  5  1        4 0.236363324699D-02 0.100000000000D+01
  </mgrwgt>
  </event>
  <event>
  5     66 -.42622971E-03 0.31332346E+02 0.75467711E-02 0.11431814E+00
        2 -1    0    0  502    0 0.00000000E+00 0.00000000E+00 0.14061780E+04 0.14061781E+04 0.32000000E+00 0.0000E+00 0.9000E+01
       -1 -1    0    0    0  501 0.00000000E+00 0.00000000E+00 -.26043058E+02 0.26045023E+02 0.32000000E+00 0.0000E+00 0.9000E+01
       25  1    1    2    0    0 0.62742641E+02 -.11462113E+03 0.78380489E+03 0.80439402E+03 0.12500000E+03 0.0000E+00 0.9000E+01
       24  1    1    2    0    0 -.91042168E+02 0.10118889E+03 0.42070356E+03 0.44942916E+03 0.80419002E+02 0.0000E+00 0.9000E+01
       21  1    1    2  502  501 0.28299527E+02 0.13432230E+02 0.17562653E+03 0.17839991E+03 0.75000000E+00 0.0000E+00 0.9000E+01
#aMCatNLO 1  0  0  2  2 0.43313350D+02 0.00000000D+00  -5  6  0 0.00000000D+00 0.00000000D+00 0.00000000D+00 0.00000000D+00 0.00000000D+00
  <mgrwgt>
 -.2786473652D+00    7    4    0
 0.191370345541285D+03 0.000000000000000D+00 0.000000000000000D+00 0.191370345541285D+03
 0.191370345541285D+03 0.000000000000000D+00 0.000000000000000D+00 -.191370345541285D+03
 0.183714437226551D+03 0.627393884561034D+02 -.114622668954321D+03 0.324254120006282D+02
 0.164747495424802D+03 -.910450847376853D+02 0.101187510525799D+03 -.463292731766164D+02
 0.342787584312181D+02 0.283056962815819D+02 0.134351584285224D+02 0.139038611759881D+02
 0.000000000000000D+00 0.000000000000000D+00 0.000000000000000D+00 -.000000000000000D+00
 0.197406286304837D+03 0.000000000000000D+00 0.000000000000000D+00 0.197406286304837D+03
 0.290009605993687D+03 0.000000000000000D+00 0.000000000000000D+00 -.290009605993687D+03
 0.181827325091739D+03 0.429967428895544D+02 -.120565537810338D+03 0.324254120006282D+02
 0.172364359662477D+03 -.109252251626252D+03 0.957068466150969D+02 -.463292731766164D+02
 0.309920154401154D+02 0.247804691058315D+02 0.123740056705229D+02 0.139038611759881D+02
 0.102232192104192D+03 0.414750396308663D+02 0.124846855247183D+02 -.926033196888504D+02
 0.191370345541285D+03 0.000000000000000D+00 0.000000000000000D+00 0.191370345541285D+03
 0.191370345541285D+03 0.000000000000000D+00 0.000000000000000D+00 -.191370345541285D+03
 0.183714437226551D+03 0.627393884561034D+02 -.114622668954321D+03 0.324254120006282D+02
 0.164747495424802D+03 -.910450847376853D+02 0.101187510525799D+03 -.463292731766164D+02
 0.000000000000000D+00 0.000000000000000D+00 0.000000000000000D+00 -.000000000000000D+00
 0.342787584312181D+02 0.283056962815819D+02 0.134351584285224D+02 0.139038611759881D+02
 0.197406286304837D+03 0.000000000000000D+00 0.000000000000000D+00 0.197406286304837D+03
 0.290009605993687D+03 0.000000000000000D+00 0.000000000000000D+00 -.290009605993687D+03
 0.181827325091739D+03 0.429967428895544D+02 -.120565537810338D+03 0.324254120006282D+02
 0.172364359662477D+03 -.109252251626252D+03 0.957068466150969D+02 -.463292731766164D+02
 0.102232192104192D+03 0.414750396308663D+02 0.124846855247183D+02 -.926033196888504D+02
 0.309920154401154D+02 0.247804691058315D+02 0.123740056705229D+02 0.139038611759881D+02
0.970629661755D-04 0.000000000000D+00 0.000000000000D+00 0.172782119205D-04 0.000000000000D+00  6 2 -1 25 24 21 21 2 0.21633523D+00 0.40067783D-02 0.34273441D+05 0.34273441D+05 0.34273441D+05 0.12088747D+01  1  2  2  2  6  2       -1 0.603487642562D-01 0.100000000000D+01
0.187577357278D-04 0.512215344830D-05 -.372747347380D-06 0.172782119205D-04 0.000000000000D+00  6 2 -1 25 24 21 21 4 0.21633523D+00 0.40067783D-02 0.34273441D+05 0.34273441D+05 0.34273441D+05 0.12088747D+01  1  2  3  2  6  2       -1 0.170434621361D-01 0.100000000000D+01
0.923285539275D-07 0.000000000000D+00 0.000000000000D+00 0.172782119205D-04 0.000000000000D+00  6 2 -1 25 24 21 21 4 0.21633523D+00 0.40067783D-02 0.34273441D+05 0.34273441D+05 0.34273441D+05 0.12088747D+01  1  2 15  2  6  2       -1 0.838906270877D-04 0.100000000000D+01
-.422903612740D-03 0.000000000000D+00 0.000000000000D+00 0.172782119205D-04 0.000000000000D+00  6 2 -1 25 24 21 21 4 0.21633523D+00 0.40067783D-02 0.34273441D+05 0.34273441D+05 0.34273441D+05 0.12088747D+01  1  2  4  2  6  2       -1 -.384254358605D+00 0.100000000000D+01
-.546148477129D-03 0.000000000000D+00 -.671665995210D-04 0.172782119205D-04 0.000000000000D+00  6 2 -1 25 24 21 21 4 0.21633523D+00 0.62619653D-02 0.34273441D+05 0.34273441D+05 0.34273441D+05 0.12088747D+01  1  2  5  2  6  2       -1 -.254983366444D+00 0.100000000000D+01
0.528732109686D-03 0.000000000000D+00 0.609856290187D-04 0.172782119205D-04 0.000000000000D+00  6 2 -1 25 24 21 21 4 0.21633523D+00 0.40067783D-02 0.34273441D+05 0.34273441D+05 0.34273441D+05 0.12088747D+01  1  2  6  2  6  2       -1 0.480411165952D+00 0.100000000000D+01
-.255667847463D-04 0.000000000000D+00 -.346978521201D-05 0.172782119205D-04 0.000000000000D+00  6 2 21 25 24 1 21 4 0.21633523D+00 0.62619653D-02 0.34273441D+05 0.34273441D+05 0.34273441D+05 0.12088747D+01  3  4  5  5  5  2       -1 -.197296923141D+00 0.100000000000D+01
  </mgrwgt>
  </event>
  <event>
  5     66 0.42622971E-03 0.38462106E+02 0.75467711E-02 0.10912016E+00
        2 -1    0    0  502    0 0.00000000E+00 0.00000000E+00 0.23316691E+03 0.23316713E+03 0.32000000E+00 0.0000E+00 0.9000E+01
       -1 -1    0    0    0  501 0.00000000E+00 0.00000000E+00 -.30256826E+03 0.30256843E+03 0.32000000E+00 0.0000E+00 0.9000E+01
       25  1    1    2    0    0 0.16969466E+02 -.45497200E+02 -.10288253E+03 0.16902004E+03 0.12500000E+03 0.0000E+00 0.9000E+01
       24  1    1    2    0    0 -.55430691E+02 0.45734548E+02 -.14692180E+03 0.18225653E+03 0.80419002E+02 0.0000E+00 0.9000E+01
       21  1    1    2  502  501 0.38461224E+02 -.23734832E+00 0.18040298E+03 0.18445900E+03 0.75000000E+00 0.0000E+00 0.9000E+01
#aMCatNLO 1  0  0  2  5 0.15231251D+03 0.00000000D+00  -5  6  0 0.00000000D+00 0.00000000D+00 0.00000000D+00 0.00000000D+00 0.00000000D+00
  <mgrwgt>
 0.2614085270D+00    3    2    0
 0.265610639361358D+03 0.000000000000000D+00 0.000000000000000D+00 0.265610639361358D+03
 0.265610639361358D+03 0.000000000000000D+00 0.000000000000000D+00 -.265610639361358D+03
 0.157015477682803D+03 0.169693933615082D+02 -.454971993121398D+02 -.816756069806189D+02
 0.164611083140602D+03 -.554307668543368D+02 0.457345485523089D+02 -.124359856436908D+03
 0.209594717899311D+03 0.384613734928286D+02 -.237349240169029D+00 0.206035463417527D+03
 0.000000000000000D+00 0.000000000000000D+00 -.000000000000000D+00 0.000000000000000D+00
 0.471815764957978D+03 0.000000000000000D+00 0.000000000000000D+00 0.471815764957978D+03
 0.346799282712387D+03 0.000000000000000D+00 0.000000000000000D+00 -.346799282712387D+03
 0.149736616188504D+03 0.361505955279210D+00 0.111811790690975D+02 -.816756069806189D+02
 0.201070081127516D+03 -.752291373433465D+02 0.113301211696180D+03 -.124359856436908D+03
 0.221316625528317D+03 0.151313711336097D+02 0.793818503008286D+02 0.206035463417527D+03
 0.246491724826027D+03 0.597362602544575D+02 -.203864241066106D+03 0.125016482245592D+03
0.176372200879D-02 0.000000000000D+00 0.000000000000D+00 0.350685859170D-04 0.000000000000D+00  6 2 -1 25 24 21 21 2 0.35871862D-01 0.46548994D-01 0.19657691D+05 0.19657691D+05 0.19657691D+05 0.12346523D+01  1  2  2  2  6  2       -1 0.206542602957D+00 0.100000000000D+01
0.223608966227D-03 0.930741674721D-04 -.677315691242D-05 0.350685859170D-04 0.000000000000D+00  6 2 -1 25 24 21 21 4 0.35871862D-01 0.46548994D-01 0.19657691D+05 0.19657691D+05 0.19657691D+05 0.12346523D+01  1  2  3  2  6  2       -1 0.399170161999D-01 0.100000000000D+01
0.837414753117D-04 0.000000000000D+00 0.000000000000D+00 0.350685859170D-04 0.000000000000D+00  6 2 -1 25 24 21 21 4 0.35871862D-01 0.46548994D-01 0.19657691D+05 0.19657691D+05 0.19657691D+05 0.12346523D+01  1  2 15  2  6  2       -1 0.149489078324D-01 0.100000000000D+01
  </mgrwgt>
  </event>
  <event>
  6     66 0.42622971E-03 0.25370955E+02 0.75467711E-02 0.11960692E+00
       21 -1    0    0  502  503 0.00000000E+00 0.00000000E+00 0.85878039E+01 0.86204916E+01 0.75000000E+00 0.0000E+00 0.9000E+01
       -1 -1    0    0    0  501 0.00000000E+00 0.00000000E+00 -.27766753E+04 0.27766753E+04 0.32000000E+00 0.0000E+00 0.9000E+01
       25  1    1    2    0    0 -.54199864E+02 0.19747575E+02 -.12230843E+04 0.12308078E+04 0.12500000E+03 0.0000E+00 0.9000E+01
       24  1    1    2    0    0 0.60078963E+02 -.30940128E+02 -.10632906E+04 0.10684666E+04 0.80419002E+02 0.0000E+00 0.9000E+01
       -2  1    1    2    0  503 0.51628721E+01 -.25617657E+02 -.19346418E+03 0.19522144E+03 0.32000000E+00 0.0000E+00 0.9000E+01
       21  1    1    2  502  501 -.11041971E+02 0.36810210E+02 -.28824839E+03 0.29079996E+03 0.75000000E+00 0.0000E+00 0.9000E+01
#aMCatNLO 2  0  0  1  1 0.26132731D+02 0.00000000D+00  -5  6  0 0.00000000D+00 0.00000000D+00 0.00000000D+00 0.00000000D+00 0.00000000D+00
  <mgrwgt>
 0.7105768187D-02    1    2    0
 0.140638809346897D+03 0.000000000000000D+00 0.000000000000000D+00 0.140638809346897D+03
 0.140638809346897D+03 0.000000000000000D+00 0.000000000000000D+00 -.140638809346897D+03
 0.135511823683006D+03 -.516966200011233D+02 0.732863374129844D+01 0.349356062483045D+01
 0.109992589320066D+03 0.620543374221602D+02 -.407401949962096D+02 -.109840552497513D+02
 0.000000000000000D+00 0.000000000000000D+00 -.000000000000000D+00 0.000000000000000D+00
 0.357732056907219D+02 -.103577174210369D+02 0.334115612549112D+02 0.749049462492080D+01
 0.157307355784462D+03 0.000000000000000D+00 0.000000000000000D+00 0.157307355784462D+03
 0.151873339139384D+03 0.000000000000000D+00 0.000000000000000D+00 -.151873339139384D+03
 0.137711778123975D+03 -.541987521708665D+02 0.197439644283651D+02 0.349356062483045D+01
 0.105616815438478D+03 0.600798256150629D+02 -.309428640130319D+02 -.109840552497513D+02
 0.266917245213280D+02 0.516287212918304D+01 -.256176574339103D+02 0.543401664507822D+01
 0.391603768400647D+02 -.110439455733795D+02 0.368165570185771D+02 0.749049462492080D+01
0.229616868200D-04 0.000000000000D+00 0.000000000000D+00 0.186261863921D-04 0.518877915162D-08  6 21 -1 25 24 -2 21 4 0.13237082D-02 0.42718067D+00 0.23605496D+05 0.23605496D+05 0.23605496D+05 0.12259792D+01  1  2  1  4  5  1        2 0.710576818694D-02 0.100000000000D+01
  </mgrwgt>
  </event>
  <event>
  5     66 0.42622971E-03 0.30142959E+02 0.75467711E-02 0.11503708E+00
        2 -1    0    0  502    0 0.00000000E+00 0.00000000E+00 0.40432527E+04 0.40432527E+04 0.32000000E+00 0.0000E+00 0.9000E+01
       -1 -1    0    0    0  501 0.00000000E+00 0.00000000E+00 -.10550013E+02 0.10554865E+02 0.32000000E+00 0.0000E+00 0.9000E+01
       25  1    1    2    0    0 0.33470578E+02 -.13713730E+03 0.23004986E+04 0.23082126E+04 0.12500000E+03 0.0000E+00 0.9000E+01
       24  1    1    2    0    0 -.13365478E+02 0.15958934E+03 0.15995979E+04 0.16096050E+04 0.80419002E+02 0.0000E+00 0.9000E+01
       21  1    1    2  502  501 -.20105100E+02 -.22452040E+02 0.13260617E+03 0.13598995E+03 0.75000000E+00 0.0000E+00 0.9000E+01
#aMCatNLO 1  0  0  5  1 0.37915517D+01 0.00000000D+00  -5  6  0 0.00000000D+00 0.00000000D+00 0.00000000D+00 0.00000000D+00 0.00000000D+00
  <mgrwgt>
 0.1265010267D+00   25    2    0
 0.206558051682135D+03 0.000000000000000D+00 0.000000000000000D+00 0.206558051682135D+03
 0.206558051682135D+03 -.000000000000000D+00 -.000000000000000D+00 -.206558051682135D+03
 0.193221456791146D+03 0.334722333964424D+02 -.137135449158414D+03 0.422256976267615D+02
 0.179916605468391D+03 -.133639370779638D+02 0.159591058739221D+03 -.159645897275435D+02
 0.399780411047331D+02 -.201082963184785D+02 -.224556095808069D+02 -.262611078992180D+02
 0.000000000000000D+00 0.000000000000000D+00 0.000000000000000D+00 -.000000000000000D+00
 0.206558051682135D+03 0.000000000000000D+00 0.000000000000000D+00 0.206558051682135D+03
 0.206558051682135D+03 -.000000000000000D+00 -.000000000000000D+00 -.206558051682135D+03
 0.193310743888705D+03 0.332069568282349D+02 -.137431692408079D+03 0.418792507438186D+02
 0.179719611008579D+03 -.136107549656905D+02 0.159315428917750D+03 -.162869298740376D+02
 0.316302686921115D+02 -.136866505099824D+02 -.206421226554254D+02 -.196736439845580D+02
 0.845547977487353D+01 -.590955135256201D+01 -.124161385424597D+01 -.591867688522294D+01
0.829307043182D-03 0.000000000000D+00 0.000000000000D+00 0.186605007930D-04 0.000000000000D+00  6 2 -1 25 24 21 21 2 0.62203925D+00 0.16234531D-02 0.39581298D+05 0.39581298D+05 0.39581298D+05 0.12024646D+01  1  2  2  3  6  5       21 0.539544581792D-01 0.100000000000D+01
0.165969438537D-03 0.437637350095D-04 -.318475740738D-05 0.186605007930D-04 0.000000000000D+00  6 2 -1 25 24 21 21 4 0.62203925D+00 0.16234531D-02 0.39581298D+05 0.39581298D+05 0.39581298D+05 0.12024646D+01  1  2  3  3  6  5       21 0.156129409415D-01 0.100000000000D+01
0.857961011061D-06 0.000000000000D+00 0.000000000000D+00 0.186605007930D-04 0.000000000000D+00  6 2 -1 25 24 21 21 4 0.62203925D+00 0.16234531D-02 0.39581298D+05 0.39581298D+05 0.39581298D+05 0.12024646D+01  1  2 15  3  6  5       21 0.807094047789D-04 0.100000000000D+01
0.840637461058D-04 0.000000000000D+00 0.000000000000D+00 0.186563383806D-04 0.000000000000D+00  6 2 -1 25 24 21 21 4 0.62203925D+00 0.16234531D-02 0.39701727D+05 0.39701727D+05 0.39701727D+05 0.12023305D+01  1  2 12  3  6  5       21 0.790349463458D-02 0.100000000000D+01
0.814605768451D-04 0.000000000000D+00 0.000000000000D+00 0.186563383806D-04 0.000000000000D+00  6 2 -1 25 24 21 21 4 0.62203925D+00 0.16234531D-02 0.39701727D+05 0.39701727D+05 0.39701727D+05 0.12023305D+01  1  2 12  3  6  5       21 0.765875019672D-02 0.100000000000D+01
-.895833346806D-02 0.000000000000D+00 0.000000000000D+00 0.186605007930D-04 0.000000000000D+00  6 2 -1 25 24 21 21 4 0.62203925D+00 0.16234531D-02 0.39581298D+05 0.39581298D+05 0.39581298D+05 0.12024646D+01  1  2  4  3  6  5       21 -.842721000951D+00 0.100000000000D+01
-.642487037413D-02 0.000000000000D+00 0.000000000000D+00 0.186605007930D-04 0.000000000000D+00  6 2 -1 25 24 21 21 4 0.62203925D+00 0.16234531D-02 0.39581298D+05 0.39581298D+05 0.39581298D+05 0.12024646D+01  1  2  5  3  6  5       21 -.604395137998D+00 0.100000000000D+01
0.964081658587D-02 0.000000000000D+00 -.000000000000D+00 0.186605007930D-04 0.000000000000D+00  6 2 -1 25 24 21 21 4 0.62203925D+00 0.16234531D-02 0.39581298D+05 0.39581298D+05 0.39581298D+05 0.12024646D+01  1  2  6  3  6  5       21 0.906922993232D+00 0.100000000000D+01
0.618203517001D-02 0.000000000000D+00 0.000000000000D+00 0.186605007930D-04 0.781392539252D-05  6 2 -1 25 24 21 21 4 0.62203925D+00 0.16234531D-02 0.39701727D+05 0.39701727D+05 0.39701727D+05 0.12023305D+01  1  2 11  3  6  5       21 0.581221799651D+00 0.100000000000D+01
0.359318782550D-05 0.000000000000D+00 0.000000000000D+00 0.186563383806D-04 0.000000000000D+00  6 2 -1 25 24 1 -1 4 0.62203925D+00 0.16234531D-02 0.39701727D+05 0.39701727D+05 0.39701727D+05 0.12023305D+01  1  2 12  6  6  5       21 0.337823877895D-03 0.100000000000D+01
0.352473389375D-05 0.000000000000D+00 0.000000000000D+00 0.186563383806D-04 0.000000000000D+00  6 2 -1 25 24 1 -1 4 0.62203925D+00 0.16234531D-02 0.39701727D+05 0.39701727D+05 0.39701727D+05 0.12023305D+01  1  2 12  6  6  5       21 0.331387984810D-03 0.100000000000D+01
-.130030883798D-03 0.000000000000D+00 0.000000000000D+00 0.186605007930D-04 0.000000000000D+00  6 2 -1 25 24 1 -1 4 0.62203925D+00 0.16234531D-02 0.39581298D+05 0.39581298D+05 0.39581298D+05 0.12024646D+01  1  2  5  6  6  5       21 -.122321586866D-01 0.100000000000D+01
0.122876437693D-03 0.000000000000D+00 0.000000000000D+00 0.186605007930D-04 0.289970132306D-06  6 2 -1 25 24 1 -1 4 0.62203925D+00 0.16234531D-02 0.39701727D+05 0.39701727D+05 0.39701727D+05 0.12023305D+01  1  2 11  6  6  5       21 0.115525813566D-01 0.100000000000D+01
0.359318782550D-05 0.000000000000D+00 0.000000000000D+00 0.186563383806D-04 0.000000000000D+00  6 2 -1 25 24 2 -2 4 0.62203925D+00 0.16234531D-02 0.39701727D+05 0.39701727D+05 0.39701727D+05 0.12023305D+01  1  2 12  7  6  5       21 0.337823877895D-03 0.100000000000D+01
0.352473389375D-05 0.000000000000D+00 0.000000000000D+00 0.186563383806D-04 0.000000000000D+00  6 2 -1 25 24 2 -2 4 0.62203925D+00 0.16234531D-02 0.39701727D+05 0.39701727D+05 0.39701727D+05 0.12023305D+01  1  2 12  7  6  5       21 0.331387984810D-03 0.100000000000D+01
-.130030883798D-03 0.000000000000D+00 0.000000000000D+00 0.186605007930D-04 0.000000000000D+00  6 2 -1 25 24 2 -2 4 0.62203925D+00 0.16234531D-02 0.39581298D+05 0.39581298D+05 0.39581298D+05 0.12024646D+01  1  2  5  7  6  5       21 -.122321586866D-01 0.100000000000D+01
0.124009362160D-03 0.000000000000D+00 0.000000000000D+00 0.186605007930D-04 0.285654830366D-06  6 2 -1 25 24 2 -2 4 0.62203925D+00 0.16234531D-02 0.39701727D+05 0.39701727D+05 0.39701727D+05 0.12023305D+01  1  2 11  7  6  5       21 0.116590965056D-01 0.100000000000D+01
0.359318782550D-05 0.000000000000D+00 0.000000000000D+00 0.186563383806D-04 0.000000000000D+00  6 2 -1 25 24 3 -3 4 0.62203925D+00 0.16234531D-02 0.39701727D+05 0.39701727D+05 0.39701727D+05 0.12023305D+01  1  2 12  8  6  5       21 0.337823877895D-03 0.100000000000D+01
0.359318782550D-05 0.000000000000D+00 0.000000000000D+00 0.186563383806D-04 0.000000000000D+00  6 2 -1 25 24 4 -4 4 0.62203925D+00 0.16234531D-02 0.39701727D+05 0.39701727D+05 0.39701727D+05 0.12023305D+01  1  2 12  8  6  5       21 0.337823877895D-03 0.100000000000D+01
0.352473389375D-05 0.000000000000D+00 0.000000000000D+00 0.186563383806D-04 0.000000000000D+00  6 2 -1 25 24 3 -3 4 0.62203925D+00 0.16234531D-02 0.39701727D+05 0.39701727D+05 0.39701727D+05 0.12023305D+01  1  2 12  8  6  5       21 0.331387984810D-03 0.100000000000D+01
0.352473389375D-05 0.000000000000D+00 0.000000000000D+00 0.186563383806D-04 0.000000000000D+00  6 2 -1 25 24 4 -4 4 0.62203925D+00 0.16234531D-02 0.39701727D+05 0.39701727D+05 0.39701727D+05 0.12023305D+01  1  2 12  8  6  5       21 0.331387984810D-03 0.100000000000D+01
-.130030883798D-03 0.000000000000D+00 0.000000000000D+00 0.186605007930D-04 0.000000000000D+00  6 2 -1 25 24 3 -3 4 0.62203925D+00 0.16234531D-02 0.39581298D+05 0.39581298D+05 0.39581298D+05 0.12024646D+01  1  2  5  8  6  5       21 -.122321586866D-01 0.100000000000D+01
-.130030883798D-03 0.000000000000D+00 0.000000000000D+00 0.186605007930D-04 0.000000000000D+00  6 2 -1 25 24 4 -4 4 0.62203925D+00 0.16234531D-02 0.39581298D+05 0.39581298D+05 0.39581298D+05 0.12024646D+01  1  2  5  8  6  5       21 -.122321586866D-01 0.100000000000D+01
0.123923930872D-03 0.000000000000D+00 0.000000000000D+00 0.186605007930D-04 0.285380395260D-06  6 2 -1 25 24 3 -3 4 0.62203925D+00 0.16234531D-02 0.39701727D+05 0.39701727D+05 0.39701727D+05 0.12023305D+01  1  2 11  8  6  5       21 0.116510644375D-01 0.100000000000D+01
0.123923930872D-03 0.000000000000D+00 0.000000000000D+00 0.186605007930D-04 0.285380395260D-06  6 2 -1 25 24 4 -4 4 0.62203925D+00 0.16234531D-02 0.39701727D+05 0.39701727D+05 0.39701727D+05 0.12023305D+01  1  2 11  8  6  5       21 0.116510644375D-01 0.100000000000D+01
  </mgrwgt>
  </event>
  <event>
  5     66 0.42622971E-03 0.20535453E+02 0.75467711E-02 0.12075328E+00
        2 -1    0    0  502    0 0.00000000E+00 0.00000000E+00 0.11027926E+04 0.11027926E+04 0.32000000E+00 0.0000E+00 0.9000E+01
       -1 -1    0    0    0  501 0.00000000E+00 0.00000000E+00 -.29717989E+02 0.29719712E+02 0.32000000E+00 0.0000E+00 0.9000E+01
       25  1    1    2    0    0 0.41542618E+02 0.65913027E+02 0.87221664E+03 0.88456610E+03 0.12500000E+03 0.0000E+00 0.9000E+01
       24  1    1    2    0    0 -.62060947E+02 -.65162290E+02 0.18893841E+03 0.22419327E+03 0.80419002E+02 0.0000E+00 0.9000E+01
       21  1    1    2  502  501 0.20518330E+02 -.75073713E+00 0.11919543E+02 0.23752967E+02 0.75000000E+00 0.0000E+00 0.9000E+01
#aMCatNLO 1  0  0  1  1 0.26817590D+00 0.00000000D+00  -5  6  0 0.00000000D+00 0.00000000D+00 0.00000000D+00 0.00000000D+00 0.00000000D+00
  <mgrwgt>
 0.4474210271D+00    9    4    0
 0.181035299695136D+03 0.000000000000000D+00 0.000000000000000D+00 0.181035299695136D+03
 0.181035299695136D+03 0.000000000000000D+00 0.000000000000000D+00 -.181035299695136D+03
 0.181812641485860D+03 0.415407090678970D+02 0.659130972091420D+02 0.106586442432894D+03
 0.141288516796226D+03 -.620624304905989D+02 -.651622359792311D+02 -.734667730875223D+02
 0.389694411081848D+02 0.205217214227019D+02 -.750861229910944D+00 -.331196693453712D+02
 0.000000000000000D+00 -.000000000000000D+00 -.000000000000000D+00 0.000000000000000D+00
 0.181251260093875D+03 0.000000000000000D+00 0.000000000000000D+00 0.181251260093875D+03
 0.181118622554006D+03 0.000000000000000D+00 0.000000000000000D+00 -.181118622554006D+03
 0.181869905665551D+03 0.416267617641125D+02 0.660167068349361D+02 0.106586442432894D+03
 0.141222057578843D+03 -.619955842896338D+02 -.650817514601825D+02 -.734667730875223D+02
 0.389787354611823D+02 0.205401651198532D+02 -.728654551397119D+00 -.331196693453712D+02
 0.299183942304096D+00 -.171342594331858D+00 -.206300823356508D+00 0.132637539869662D+00
 0.181035299695136D+03 0.000000000000000D+00 0.000000000000000D+00 0.181035299695136D+03
 0.181035299695136D+03 0.000000000000000D+00 0.000000000000000D+00 -.181035299695136D+03
 0.181812641485860D+03 0.415407090678970D+02 0.659130972091420D+02 0.106586442432894D+03
 0.141288516796226D+03 -.620624304905989D+02 -.651622359792311D+02 -.734667730875223D+02
 0.000000000000000D+00 -.000000000000000D+00 -.000000000000000D+00 0.000000000000000D+00
 0.389694411081848D+02 0.205217214227019D+02 -.750861229910944D+00 -.331196693453712D+02
 0.181251260093875D+03 0.000000000000000D+00 0.000000000000000D+00 0.181251260093875D+03
 0.181118622554006D+03 0.000000000000000D+00 0.000000000000000D+00 -.181118622554006D+03
 0.181869905665551D+03 0.416267617641125D+02 0.660167068349361D+02 0.106586442432894D+03
 0.141222057578843D+03 -.619955842896338D+02 -.650817514601825D+02 -.734667730875223D+02
 0.299183942304096D+00 -.171342594331858D+00 -.206300823356508D+00 0.132637539869662D+00
 0.389787354611823D+02 0.205401651198532D+02 -.728654551397119D+00 -.331196693453712D+02
0.787404989369D-04 0.000000000000D+00 0.000000000000D+00 0.332703528623D-04 0.000000000000D+00  6 2 -1 25 24 21 21 2 0.16966053D+00 0.45721344D-02 0.20810098D+05 0.20810098D+05 0.20810098D+05 0.12319321D+01  1  2  2  1  6  1        2 0.610979717930D-01 0.100000000000D+01
0.129606902074D-04 0.415525028795D-05 -.302384248767D-06 0.332703528623D-04 0.000000000000D+00  6 2 -1 25 24 21 21 4 0.16966053D+00 0.45721344D-02 0.20810098D+05 0.20810098D+05 0.20810098D+05 0.12319321D+01  1  2  3  1  6  1        2 0.152626631927D-01 0.100000000000D+01
0.201471670419D-05 0.000000000000D+00 0.000000000000D+00 0.332703528623D-04 0.000000000000D+00  6 2 -1 25 24 21 21 4 0.16966053D+00 0.45721344D-02 0.20810098D+05 0.20810098D+05 0.20810098D+05 0.12319321D+01  1  2 15  1  6  1        2 0.237255439276D-02 0.100000000000D+01
-.740040032503D-02 0.000000000000D+00 0.000000000000D+00 0.332703528623D-04 0.000000000000D+00  6 2 -1 25 24 21 21 4 0.16966053D+00 0.45721344D-02 0.20810098D+05 0.20810098D+05 0.20810098D+05 0.12319321D+01  1  2  4  1  6  1        2 -.871479958587D+01 0.100000000000D+01
-.160726949251D+00 0.000000000000D+00 -.117353196040D-01 0.332703528623D-04 0.000000000000D+00  6 2 -1 25 24 21 21 4 0.16990976D+00 0.45721344D-02 0.20810098D+05 0.20810098D+05 0.20810098D+05 0.12319321D+01  1  2  5  1  6  1        2 -.188869764145D+03 0.100000000000D+01
0.160744014620D+00 0.000000000000D+00 0.117353069614D-01 0.332703528623D-04 0.000000000000D+00  6 2 -1 25 24 21 21 4 0.16966053D+00 0.45721344D-02 0.20810098D+05 0.20810098D+05 0.20810098D+05 0.12319321D+01  1  2  6  1  6  1        2 0.189294066607D+03 0.100000000000D+01
0.740467916004D-02 0.000000000000D+00 0.000000000000D+00 0.332703528623D-04 0.151018992830D-02  6 2 -1 25 24 21 21 4 0.16986292D+00 0.45742388D-02 0.20850319D+05 0.20850319D+05 0.20850319D+05 0.12318403D+01  1  2 11  1  6  1        2 0.869647758159D+01 0.100000000000D+01
-.441294069444D-04 0.000000000000D+00 -.322275615340D-05 0.332703528623D-04 0.000000000000D+00  6 21 -1 25 24 -2 21 4 0.16990976D+00 0.45721344D-02 0.20810098D+05 0.20810098D+05 0.20810098D+05 0.12319321D+01  3  4  5  4  5  1        2 -.393284394042D-01 0.100000000000D+01
0.228499125258D-05 0.000000000000D+00 0.000000000000D+00 0.332703528623D-04 0.861817302818D-06  6 21 -1 25 24 -2 21 4 0.16986292D+00 0.45742388D-02 0.20850319D+05 0.20850319D+05 0.20850319D+05 0.12318403D+01  3  4 11  4  5  1        2 0.203581903284D-02 0.100000000000D+01
  </mgrwgt>
  </event>
  <event>
  5     66 0.42622971E-03 0.43606611E+02 0.75467711E-02 0.11429481E+00
        2 -1    0    0  502    0 0.00000000E+00 0.00000000E+00 0.28547003E+04 0.28547003E+04 0.32000000E+00 0.0000E+00 0.9000E+01
       -1 -1    0    0    0  501 0.00000000E+00 0.00000000E+00 -.14859181E+02 0.14862626E+02 0.32000000E+00 0.0000E+00 0.9000E+01
       25  1    1    2    0    0 0.10354419E+03 -.77750506E+02 0.13751875E+04 0.13869147E+04 0.12500000E+03 0.0000E+00 0.9000E+01
       24  1    1    2    0    0 -.14600858E+03 0.67853528E+02 0.12965128E+04 0.13089443E+04 0.80419002E+02 0.0000E+00 0.9000E+01
       21  1    1    2  502  501 0.42464388E+02 0.98969777E+01 0.16814078E+03 0.17370394E+03 0.75000000E+00 0.0000E+00 0.9000E+01
#aMCatNLO 1  0  0  2  5 0.12667354D+02 0.00000000D+00  -5  6  0 0.00000000D+00 0.00000000D+00 0.00000000D+00 0.00000000D+00 0.00000000D+00
  <mgrwgt>
 0.3590248993D+00    9    4    0
 0.205969604706781D+03 0.000000000000000D+00 0.000000000000000D+00 0.205969604706781D+03
 0.205969604706781D+03 0.000000000000000D+00 0.000000000000000D+00 -.205969604706781D+03
 0.180911378260652D+03 0.103542167959906D+03 -.777509779553335D+02 0.183774771206707D+02
 0.180144089108804D+03 -.146010599949152D+03 0.678530578263667D+02 0.784500685599429D+01
 0.508837420441054D+02 0.424684319892459D+02 0.989792012896684D+01 -.262224839766650D+02
 0.000000000000000D+00 -.000000000000000D+00 -.000000000000000D+00 -.000000000000000D+00
 0.207584429017438D+03 0.000000000000000D+00 0.000000000000000D+00 0.207584429017438D+03
 0.232502799903598D+03 0.000000000000000D+00 0.000000000000000D+00 -.232502799903598D+03
 0.179683821937230D+03 0.105222626529942D+03 -.724689110363182D+02 0.183774771206707D+02
 0.180856350270399D+03 -.144328252869078D+03 0.731410607658080D+02 0.784500685599429D+01
 0.515937551883120D+02 0.429460012646150D+02 0.113990299545491D+02 -.262224839766650D+02
 0.279533015250941D+02 -.384037492547917D+01 -.120711796840389D+02 -.249183708861600D+02
 0.205969604706781D+03 0.000000000000000D+00 0.000000000000000D+00 0.205969604706781D+03
 0.205969604706781D+03 0.000000000000000D+00 0.000000000000000D+00 -.205969604706781D+03
 0.180911378260652D+03 0.103542167959906D+03 -.777509779553335D+02 0.183774771206707D+02
 0.180144089108804D+03 -.146010599949152D+03 0.678530578263667D+02 0.784500685599429D+01
 0.000000000000000D+00 -.000000000000000D+00 -.000000000000000D+00 -.000000000000000D+00
 0.508837420441054D+02 0.424684319892459D+02 0.989792012896684D+01 -.262224839766650D+02
 0.207584429017438D+03 0.000000000000000D+00 0.000000000000000D+00 0.207584429017438D+03
 0.232502799903598D+03 0.000000000000000D+00 0.000000000000000D+00 -.232502799903598D+03
 0.179683821937230D+03 0.105222626529942D+03 -.724689110363182D+02 0.183774771206707D+02
 0.180856350270399D+03 -.144328252869078D+03 0.731410607658080D+02 0.784500685599429D+01
 0.279533015250941D+02 -.384037492547917D+01 -.120711796840389D+02 -.249183708861600D+02
 0.515937551883120D+02 0.429460012646150D+02 0.113990299545491D+02 -.262224839766650D+02
0.454267050126D-03 0.000000000000D+00 0.000000000000D+00 0.924900694709D-05 0.000000000000D+00  6 2 -1 25 24 21 21 2 0.43918493D+00 0.22862943D-02 0.40714228D+05 0.40714228D+05 0.40714228D+05 0.12012205D+01  1  2  2  2  6  2       -1 0.107575826290D+00 0.100000000000D+01
0.527823957910D-04 0.239723308377D-04 -.174450508374D-05 0.924900694709D-05 0.000000000000D+00  6 2 -1 25 24 21 21 4 0.43918493D+00 0.22862943D-02 0.40714228D+05 0.40714228D+05 0.40714228D+05 0.12012205D+01  1  2  3  2  6  2       -1 0.180359088182D-01 0.100000000000D+01
0.493372775775D-05 0.000000000000D+00 0.000000000000D+00 0.924900694709D-05 0.000000000000D+00  6 2 -1 25 24 21 21 4 0.43918493D+00 0.22862943D-02 0.40714228D+05 0.40714228D+05 0.40714228D+05 0.12012205D+01  1  2 15  2  6  2       -1 0.168587012088D-02 0.100000000000D+01
0.471171497826D-02 0.000000000000D+00 0.000000000000D+00 0.920631840504D-05 0.000000000000D+00  6 2 -1 25 24 21 21 4 0.43918493D+00 0.27296704D-02 0.43373914D+05 0.43373914D+05 0.43373914D+05 0.11984452D+01  1  2 12  2  6  2       -1 0.122902395918D+01 0.100000000000D+01
-.331698652689D-02 0.000000000000D+00 0.000000000000D+00 0.924900694709D-05 0.000000000000D+00  6 2 -1 25 24 21 21 4 0.43918493D+00 0.22862943D-02 0.40714228D+05 0.40714228D+05 0.40714228D+05 0.12012205D+01  1  2  4  2  6  2       -1 -.113342461352D+01 0.100000000000D+01
-.982542845260D-02 0.000000000000D+00 -.846961845417D-03 0.924900694709D-05 0.000000000000D+00  6 2 -1 25 24 21 21 4 0.43918493D+00 0.26058087D-02 0.40714228D+05 0.40714228D+05 0.40714228D+05 0.12012205D+01  1  2  5  2  6  2       -1 -.277254516270D+01 0.100000000000D+01
0.985894444224D-02 0.000000000000D+00 0.839766775566D-03 0.924900694709D-05 0.000000000000D+00  6 2 -1 25 24 21 21 4 0.43918493D+00 0.22862943D-02 0.40714228D+05 0.40714228D+05 0.40714228D+05 0.12012205D+01  1  2  6  2  6  2       -1 0.336883198154D+01 0.100000000000D+01
0.122775281221D-03 0.000000000000D+00 0.000000000000D+00 0.920631840504D-05 0.000000000000D+00  6 2 21 25 24 1 21 4 0.43918493D+00 0.27296704D-02 0.43373914D+05 0.43373914D+05 0.43373914D+05 0.11984452D+01  3  4 12  5  5  2       -1 0.620323540710D+00 0.100000000000D+01
-.195760289242D-03 0.000000000000D+00 -.172702173361D-04 0.924900694709D-05 0.000000000000D+00  6 2 21 25 24 1 21 4 0.43918493D+00 0.26058087D-02 0.40714228D+05 0.40714228D+05 0.40714228D+05 0.12012205D+01  3  4  5  5  5  2       -1 -.108048241117D+01 0.100000000000D+01
  </mgrwgt>
  </event>
  <event>
  5     66 0.42622971E-03 0.44288723E+02 0.75467711E-02 0.96326202E-01
        2 -1    0    0  502    0 0.00000000E+00 0.00000000E+00 0.22200959E+03 0.22200982E+03 0.32000000E+00 0.0000E+00 0.9000E+01
       -1 -1    0    0    0  501 0.00000000E+00 0.00000000E+00 -.36638431E+03 0.36638444E+03 0.32000000E+00 0.0000E+00 0.9000E+01
       25  1    1    2    0    0 -.31863633E+02 -.15683538E+03 0.82505759E+02 0.21919130E+03 0.12500000E+03 0.0000E+00 0.9000E+01
       24  1    1    2    0    0 0.55047433E+02 0.19456610E+03 -.23905887E+03 0.32326854E+03 0.80419002E+02 0.0000E+00 0.9000E+01
       21  1    1    2  502  501 -.23183800E+02 -.37730724E+02 0.12178397E+02 0.45934431E+02 0.75000000E+00 0.0000E+00 0.9000E+01
#aMCatNLO 1  0  0  1  1 0.26817590D+00 0.00000000D+00  -5  6  0 0.00000000D+00 0.00000000D+00 0.00000000D+00 0.00000000D+00 0.00000000D+00
  <mgrwgt>
 0.4962602604D+00    3    2    0
 0.285203329179827D+03 0.000000000000000D+00 0.000000000000000D+00 0.285203329179827D+03
 0.285203329179827D+03 0.000000000000000D+00 0.000000000000000D+00 -.285203329179827D+03
 0.246984388099238D+03 -.318625245365880D+02 -.156833571336558D+03 0.140585555434159D+03
 0.272957348895425D+03 0.550486585923756D+02 0.194568094178820D+03 -.164776819596841D+03
 0.504649213649918D+02 -.231861340557876D+02 -.377345228422617D+02 0.241912641626824D+02
 0.000000000000000D+00 0.000000000000000D+00 -.000000000000000D+00 -.000000000000000D+00
 0.661814175921720D+03 0.000000000000000D+00 0.000000000000000D+00 0.661814175921720D+03
 0.974146578359850D+03 0.000000000000000D+00 0.000000000000000D+00 -.974146578359850D+03
 0.367461893930230D+03 -.306576217950555D+03 -.751662669100635D+02 0.140585555434159D+03
 0.427939180395765D+03 -.258316203225405D+03 0.287725676709935D+03 -.164776819596841D+03
 0.922057366066858D+02 -.869729687059167D+02 -.187718756620767D+02 0.241912641626824D+02
 0.748353943348889D+03 0.651865389881876D+03 -.193787534137795D+03 -.312332402438131D+03
0.500351963808D-02 0.000000000000D+00 0.000000000000D+00 0.523767403009D-05 0.000000000000D+00  6 2 -1 25 24 21 21 2 0.34155350D-01 0.56366845D-01 0.54048837D+05 0.54048837D+05 0.54048837D+05 0.11889472D+01  1  2  2  1  6  1        2 0.402749164226D+00 0.100000000000D+01
0.714432216991D-03 0.264042985473D-03 -.192148328672D-04 0.523767403009D-05 0.000000000000D+00  6 2 -1 25 24 21 21 4 0.34155350D-01 0.56366845D-01 0.54048837D+05 0.54048837D+05 0.54048837D+05 0.11889472D+01  1  2  3  1  6  1        2 0.812915098709D-01 0.100000000000D+01
0.107392102375D-03 0.000000000000D+00 0.000000000000D+00 0.523767403009D-05 0.000000000000D+00  6 2 -1 25 24 21 21 4 0.34155350D-01 0.56366845D-01 0.54048837D+05 0.54048837D+05 0.54048837D+05 0.11889472D+01  1  2 15  1  6  1        2 0.122195863270D-01 0.100000000000D+01
  </mgrwgt>
  </event>
  <event>
  5     66 0.42622971E-03 0.45111965E+02 0.75467711E-02 0.12072124E+00
        2 -1    0    0  502    0 0.00000000E+00 0.00000000E+00 0.24153814E+04 0.24153814E+04 0.32000000E+00 0.0000E+00 0.9000E+01
       -1 -1    0    0    0  501 0.00000000E+00 0.00000000E+00 -.15638016E+02 0.15641290E+02 0.32000000E+00 0.0000E+00 0.9000E+01
       25  1    1    2    0    0 -.55846084E+02 -.18917858E+02 0.17198132E+04 0.17253577E+04 0.12500000E+03 0.0000E+00 0.9000E+01
       24  1    1    2    0    0 0.40469482E+02 0.61327481E+02 0.62574307E+03 0.63515387E+03 0.80419002E+02 0.0000E+00 0.9000E+01
       21  1    1    2  502  501 0.15376602E+02 -.42409623E+02 0.54187059E+02 0.70511105E+02 0.75000000E+00 0.0000E+00 0.9000E+01
#aMCatNLO 1  0  0  5  1 0.22242340D+02 0.00000000D+00  -5  6  0 0.00000000D+00 0.00000000D+00 0.00000000D+00 0.00000000D+00 0.00000000D+00
  <mgrwgt>
 0.1508976497D+00   15    2    0
 0.194359917917678D+03 0.000000000000000D+00 0.000000000000000D+00 0.194359917917678D+03
 0.194359917917678D+03 -.000000000000000D+00 -.000000000000000D+00 -.194359917917678D+03
 0.173064489912053D+03 -.558462539827547D+02 -.189173893220335D+02 0.104161633847839D+03
 0.109206498638957D+03 0.404693744678939D+02 0.613277764487530D+02 -.774447910702897D+01
 0.106448847284346D+03 0.153768795148608D+02 -.424103871267196D+02 -.964171547408101D+02
 0.000000000000000D+00 0.000000000000000D+00 0.000000000000000D+00 -.000000000000000D+00
 0.194359917917678D+03 0.000000000000000D+00 0.000000000000000D+00 0.194359917917678D+03
 0.194359917917678D+03 -.000000000000000D+00 -.000000000000000D+00 -.194359917917678D+03
 0.170674159635900D+03 -.552057875173121D+02 -.206838355450693D+02 0.100145737498700D+03
 0.108944241006830D+03 0.408758409311164D+02 0.602067167407262D+02 -.102931327427420D+02
 0.445795302553372D+02 0.101111861561831D+02 -.350498463440725D+02 -.256243381096653D+02
 0.645219049372896D+02 0.421876043001262D+01 -.447303485158449D+01 -.642282666462929D+02
0.145641772967D-03 0.000000000000D+00 0.000000000000D+00 0.120850485852D-04 0.000000000000D+00  6 2 -1 25 24 21 21 2 0.37159739D+00 0.24061021D-02 0.21352853D+05 0.21352853D+05 0.21352853D+05 0.12307088D+01  1  2  2  3  6  5       21 0.590463130504D-01 0.100000000000D+01
0.369535549442D-05 0.768572751290D-05 -.559302756552D-06 0.120850485852D-04 0.000000000000D+00  6 2 -1 25 24 21 21 4 0.37159739D+00 0.24061021D-02 0.21352853D+05 0.21352853D+05 0.21352853D+05 0.12307088D+01  1  2  3  3  6  5       21 0.226920472214D-02 0.100000000000D+01
0.319022763365D-05 0.000000000000D+00 0.000000000000D+00 0.120850485852D-04 0.000000000000D+00  6 2 -1 25 24 21 21 4 0.37159739D+00 0.24061021D-02 0.21352853D+05 0.21352853D+05 0.21352853D+05 0.12307088D+01  1  2 15  3  6  5       21 0.195902116100D-02 0.100000000000D+01
0.587580511522D-04 0.000000000000D+00 0.000000000000D+00 0.121040674154D-04 0.000000000000D+00  6 2 -1 25 24 21 21 4 0.37159739D+00 0.24061021D-02 0.20922069D+05 0.20922069D+05 0.20922069D+05 0.12316769D+01  1  2 12  3  6  5       21 0.361996990041D-01 0.100000000000D+01
-.445511726076D-04 0.000000000000D+00 0.000000000000D+00 0.120850485852D-04 0.000000000000D+00  6 2 -1 25 24 21 21 4 0.37159739D+00 0.24061021D-02 0.21352853D+05 0.21352853D+05 0.21352853D+05 0.12307088D+01  1  2  4  3  6  5       21 -.273575117227D-01 0.100000000000D+01
-.105729226177D-03 0.000000000000D+00 0.000000000000D+00 0.120850485852D-04 0.000000000000D+00  6 2 -1 25 24 21 21 4 0.37159739D+00 0.24061021D-02 0.21352853D+05 0.21352853D+05 0.21352853D+05 0.12307088D+01  1  2  5  3  6  5       21 -.649250822205D-01 0.100000000000D+01
0.228348990515D-03 0.000000000000D+00 -.000000000000D+00 0.120850485852D-04 0.000000000000D+00  6 2 -1 25 24 21 21 4 0.37159739D+00 0.24061021D-02 0.21352853D+05 0.21352853D+05 0.21352853D+05 0.12307088D+01  1  2  6  3  6  5       21 0.140222127034D+00 0.100000000000D+01
0.331286120656D-05 0.000000000000D+00 0.000000000000D+00 0.121040674154D-04 0.000000000000D+00  6 2 -1 25 24 1 -1 4 0.37159739D+00 0.24061021D-02 0.20922069D+05 0.20922069D+05 0.20922069D+05 0.12316769D+01  1  2 12  6  6  5       21 0.204098972257D-02 0.100000000000D+01
-.190535477703D-05 0.000000000000D+00 0.000000000000D+00 0.120850485852D-04 0.000000000000D+00  6 2 -1 25 24 1 -1 4 0.37159739D+00 0.24061021D-02 0.21352853D+05 0.21352853D+05 0.21352853D+05 0.12307088D+01  1  2  5  6  6  5       21 -.117002006002D-02 0.100000000000D+01
0.331286120656D-05 0.000000000000D+00 0.000000000000D+00 0.121040674154D-04 0.000000000000D+00  6 2 -1 25 24 2 -2 4 0.37159739D+00 0.24061021D-02 0.20922069D+05 0.20922069D+05 0.20922069D+05 0.12316769D+01  1  2 12  7  6  5       21 0.204098972257D-02 0.100000000000D+01
-.190535477703D-05 0.000000000000D+00 0.000000000000D+00 0.120850485852D-04 0.000000000000D+00  6 2 -1 25 24 2 -2 4 0.37159739D+00 0.24061021D-02 0.21352853D+05 0.21352853D+05 0.21352853D+05 0.12307088D+01  1  2  5  7  6  5       21 -.117002006002D-02 0.100000000000D+01
0.331286120656D-05 0.000000000000D+00 0.000000000000D+00 0.121040674154D-04 0.000000000000D+00  6 2 -1 25 24 3 -3 4 0.37159739D+00 0.24061021D-02 0.20922069D+05 0.20922069D+05 0.20922069D+05 0.12316769D+01  1  2 12  8  6  5       21 0.204098972257D-02 0.100000000000D+01
0.331286120656D-05 0.000000000000D+00 0.000000000000D+00 0.121040674154D-04 0.000000000000D+00  6 2 -1 25 24 4 -4 4 0.37159739D+00 0.24061021D-02 0.20922069D+05 0.20922069D+05 0.20922069D+05 0.12316769D+01  1  2 12  8  6  5       21 0.204098972257D-02 0.100000000000D+01
-.190535477703D-05 0.000000000000D+00 0.000000000000D+00 0.120850485852D-04 0.000000000000D+00  6 2 -1 25 24 3 -3 4 0.37159739D+00 0.24061021D-02 0.21352853D+05 0.21352853D+05 0.21352853D+05 0.12307088D+01  1  2  5  8  6  5       21 -.117002006002D-02 0.100000000000D+01
-.190535477703D-05 0.000000000000D+00 0.000000000000D+00 0.120850485852D-04 0.000000000000D+00  6 2 -1 25 24 4 -4 4 0.37159739D+00 0.24061021D-02 0.21352853D+05 0.21352853D+05 0.21352853D+05 0.12307088D+01  1  2  5  8  6  5       21 -.117002006002D-02 0.100000000000D+01
  </mgrwgt>
  </event>
  <event>
  5     66 0.42622971E-03 0.89227061E+02 0.75467711E-02 0.11408264E+00
        2 -1    0    0  502    0 0.00000000E+00 0.00000000E+00 0.27244568E+04 0.27244568E+04 0.32000000E+00 0.0000E+00 0.9000E+01
       -1 -1    0    0    0  501 0.00000000E+00 0.00000000E+00 -.12219276E+02 0.12223466E+02 0.32000000E+00 0.0000E+00 0.9000E+01
       25  1    1    2    0    0 0.10610043E+02 0.32899384E+02 0.92405333E+03 0.93311012E+03 0.12500000E+03 0.0000E+00 0.9000E+01
       24  1    1    2    0    0 -.72120622E+00 -.12157439E+03 0.10855132E+04 0.10952565E+04 0.80419002E+02 0.0000E+00 0.9000E+01
       21  1    1    2  502  501 -.98888367E+01 0.88675002E+02 0.70267107E+03 0.70831365E+03 0.75000000E+00 0.0000E+00 0.9000E+01
#aMCatNLO 1  0  0  1  5 0.53335290D+02 0.00000000D+00  -5  6  0 0.00000000D+00 0.00000000D+00 0.00000000D+00 0.00000000D+00 0.00000000D+00
  <mgrwgt>
 0.2240503677D+00    7    4    0
 0.182473694459981D+03 0.000000000000000D+00 0.000000000000000D+00 0.182473694459981D+03
 0.182473694459981D+03 0.000000000000000D+00 0.000000000000000D+00 -.182473694459981D+03
 0.129804627952436D+03 0.106101667550412D+02 0.328982734421913D+02 -.541935455781787D+01
 0.145768500162850D+03 -.721067142540934D+00 -.121575632856118D+03 0.291964324023256D+00
 0.893742608046765D+02 -.988909961250027D+01 0.886773594139269D+02 0.512739023379462D+01
 0.000000000000000D+00 0.000000000000000D+00 0.000000000000000D+00 0.000000000000000D+00
 0.233080096085205D+03 0.000000000000000D+00 0.000000000000000D+00 0.233080096085205D+03
 0.199024609586853D+03 0.000000000000000D+00 0.000000000000000D+00 -.199024609586853D+03
 0.126233076904138D+03 0.854246049347020D+01 0.144030090460396D+02 -.541935455781787D+01
 0.164986359823231D+03 -.323065755683862D+01 -.144023472329805D+03 0.291964324023256D+00
 0.776047082064976D+02 -.112375863909163D+02 0.766153852520022D+02 0.512739023379462D+01
 0.632805607381906D+02 0.592578345428472D+01 0.530050780317635D+02 0.340554864983517D+02
 0.182473694459981D+03 0.000000000000000D+00 0.000000000000000D+00 0.182473694459981D+03
 0.182473694459981D+03 0.000000000000000D+00 0.000000000000000D+00 -.182473694459981D+03
 0.129804627952436D+03 0.106101667550412D+02 0.328982734421913D+02 -.541935455781787D+01
 0.145768500162850D+03 -.721067142540934D+00 -.121575632856118D+03 0.291964324023256D+00
 0.000000000000000D+00 0.000000000000000D+00 0.000000000000000D+00 0.000000000000000D+00
 0.893742608046765D+02 -.988909961250027D+01 0.886773594139269D+02 0.512739023379462D+01
 0.233080096085205D+03 0.000000000000000D+00 0.000000000000000D+00 0.233080096085205D+03
 0.199024609586853D+03 0.000000000000000D+00 0.000000000000000D+00 -.199024609586853D+03
 0.126233076904138D+03 0.854246049347020D+01 0.144030090460396D+02 -.541935455781787D+01
 0.164986359823231D+03 -.323065755683862D+01 -.144023472329805D+03 0.291964324023256D+00
 0.632805607381906D+02 0.592578345428472D+01 0.530050780317635D+02 0.340554864983517D+02
 0.776047082064976D+02 -.112375863909163D+02 0.766153852520022D+02 0.512739023379462D+01
0.200924814581D-03 0.000000000000D+00 0.000000000000D+00 0.277459852343D-05 0.000000000000D+00  6 2 -1 25 24 21 21 2 0.41914753D+00 0.18802124D-02 0.33249101D+05 0.33249101D+05 0.33249101D+05 0.12102391D+01  1  2  2  1  6  1        2 0.762677899063D-01 0.100000000000D+01
-.953626293434D-05 0.106030937690D-04 -.771604192711D-06 0.277459852343D-05 0.000000000000D+00  6 2 -1 25 24 21 21 4 0.41914753D+00 0.18802124D-02 0.33249101D+05 0.33249101D+05 0.33249101D+05 0.12102391D+01  1  2  3  1  6  1        2 -.530185855720D-02 0.100000000000D+01
0.709847486894D-05 0.000000000000D+00 0.000000000000D+00 0.277459852343D-05 0.000000000000D+00  6 2 -1 25 24 21 21 4 0.41914753D+00 0.18802124D-02 0.33249101D+05 0.33249101D+05 0.33249101D+05 0.12102391D+01  1  2 15  1  6  1        2 0.394652601193D-02 0.100000000000D+01
-.110724520256D-03 0.000000000000D+00 0.000000000000D+00 0.277459852343D-05 0.000000000000D+00  6 2 -1 25 24 21 21 4 0.41914753D+00 0.18802124D-02 0.33249101D+05 0.33249101D+05 0.33249101D+05 0.12102391D+01  1  2  4  1  6  1        2 -.615593077972D-01 0.100000000000D+01
-.522045150343D-03 0.000000000000D+00 -.136157142709D-03 0.277459852343D-05 0.000000000000D+00  6 2 -1 25 24 21 21 4 0.54698256D+00 0.18802124D-02 0.33249101D+05 0.33249101D+05 0.33249101D+05 0.12102391D+01  1  2  5  1  6  1        2 -.913305874847D-01 0.100000000000D+01
0.543601336746D-03 0.000000000000D+00 0.131471585183D-03 0.277459852343D-05 0.000000000000D+00  6 2 -1 25 24 21 21 4 0.41914753D+00 0.18802124D-02 0.33249101D+05 0.33249101D+05 0.33249101D+05 0.12102391D+01  1  2  6  1  6  1        2 0.302225034982D+00 0.100000000000D+01
-.159742944038D-04 0.000000000000D+00 -.482536563717D-05 0.277459852343D-05 0.000000000000D+00  6 21 -1 25 24 -2 21 4 0.54698256D+00 0.18802124D-02 0.33249101D+05 0.33249101D+05 0.33249101D+05 0.12102391D+01  3  4  5  4  5  1        2 -.197229371136D-03 0.100000000000D+01
  </mgrwgt>
  </event>
  <event>
  5     66 -.42622971E-03 0.50795233E+02 0.75467711E-02 0.11857127E+00
        2 -1    0    0  502    0 0.00000000E+00 0.00000000E+00 0.56707489E+03 0.56707498E+03 0.32000000E+00 0.0000E+00 0.9000E+01
       -1 -1    0    0    0  501 0.00000000E+00 0.00000000E+00 -.16786371E+03 0.16786402E+03 0.32000000E+00 0.0000E+00 0.9000E+01
       25  1    1    2    0    0 0.14619675E+02 0.10018799E+03 0.28996497E+02 0.16345386E+03 0.12500000E+03 0.0000E+00 0.9000E+01
       24  1    1    2    0    0 0.22374047E+02 -.65379868E+02 -.70838221E+02 0.12751625E+03 0.80419002E+02 0.0000E+00 0.9000E+01
       21  1    1    2  502  501 -.36993723E+02 -.34808121E+02 0.44105290E+03 0.44396888E+03 0.75000000E+00 0.0000E+00 0.9000E+01
#aMCatNLO 1  0  0  1  5 0.10102845D+02 0.00000000D+00  -5  6  0 0.00000000D+00 0.00000000D+00 0.00000000D+00 0.00000000D+00 0.00000000D+00
  <mgrwgt>
 -.1489258971D+01    7    4    0
 0.308531100218226D+03 0.000000000000000D+00 0.000000000000000D+00 0.308531100218226D+03
 0.308531100218226D+03 0.000000000000000D+00 0.000000000000000D+00 -.308531100218226D+03
 0.175919041149415D+03 0.146197253909143D+02 0.100188036769727D+03 -.712118666842241D+02
 0.197704959668266D+03 0.223741035985967D+02 -.653798155456883D+02 -.166867954773920D+03
 0.243438199618771D+03 -.369938289895109D+02 -.348082212240387D+02 0.238079821458145D+03
 0.000000000000000D+00 0.000000000000000D+00 -.000000000000000D+00 0.000000000000000D+00
 0.344487945429892D+03 0.000000000000000D+00 0.000000000000000D+00 0.344487945429892D+03
 0.309282919326228D+03 0.000000000000000D+00 0.000000000000000D+00 -.309282919326228D+03
 0.177530609614172D+03 0.141984413907854D+02 0.103050432582305D+03 -.712118666842241D+02
 0.196619094397073D+03 0.219041005458711D+02 -.621864002495718D+02 -.166867954773920D+03
 0.242995195256712D+03 -.375736190839323D+02 -.308688626489723D+02 0.238079821458145D+03
 0.366259654881625D+02 0.147107714727578D+01 -.999516968376106D+01 0.352050261036640D+02
 0.308531100218226D+03 0.000000000000000D+00 0.000000000000000D+00 0.308531100218226D+03
 0.308531100218226D+03 0.000000000000000D+00 0.000000000000000D+00 -.308531100218226D+03
 0.175919041149415D+03 0.146197253909143D+02 0.100188036769727D+03 -.712118666842241D+02
 0.197704959668266D+03 0.223741035985967D+02 -.653798155456883D+02 -.166867954773920D+03
 0.000000000000000D+00 0.000000000000000D+00 -.000000000000000D+00 0.000000000000000D+00
 0.243438199618771D+03 -.369938289895109D+02 -.348082212240387D+02 0.238079821458145D+03
 0.344487945429892D+03 0.000000000000000D+00 0.000000000000000D+00 0.344487945429892D+03
 0.309282919326228D+03 0.000000000000000D+00 0.000000000000000D+00 -.309282919326228D+03
 0.177530609614172D+03 0.141984413907854D+02 0.103050432582305D+03 -.712118666842241D+02
 0.196619094397073D+03 0.219041005458711D+02 -.621864002495718D+02 -.166867954773920D+03
 0.366259654881625D+02 0.147107714727578D+01 -.999516968376106D+01 0.352050261036640D+02
 0.242995195256712D+03 -.375736190839323D+02 -.308688626489723D+02 0.238079821458145D+03
0.279977745538D-03 0.000000000000D+00 0.000000000000D+00 0.170968202245D-04 0.000000000000D+00  6 2 -1 25 24 21 21 2 0.87242321D-01 0.25825217D-01 0.25231176D+05 0.25231176D+05 0.25231176D+05 0.12228693D+01  1  2  2  1  6  1        2 0.340477333901D-01 0.100000000000D+01
0.247393664139D-04 0.147748315476D-04 -.107518826270D-05 0.170968202245D-04 0.000000000000D+00  6 2 -1 25 24 21 21 4 0.87242321D-01 0.25825217D-01 0.25231176D+05 0.25231176D+05 0.25231176D+05 0.12228693D+01  1  2  3  1  6  1        2 0.449897259551D-02 0.100000000000D+01
0.121178714910D-04 0.000000000000D+00 0.000000000000D+00 0.170968202245D-04 0.000000000000D+00  6 2 -1 25 24 21 21 4 0.87242321D-01 0.25825217D-01 0.25231176D+05 0.25231176D+05 0.25231176D+05 0.12228693D+01  1  2 15  1  6  1        2 0.220369312786D-02 0.100000000000D+01
-.997364760068D-02 0.000000000000D+00 0.000000000000D+00 0.170968202245D-04 0.000000000000D+00  6 2 -1 25 24 21 21 4 0.87242321D-01 0.25825217D-01 0.25231176D+05 0.25231176D+05 0.25231176D+05 0.12228693D+01  1  2  4  1  6  1        2 -.181375571557D+01 0.100000000000D+01
-.164181887394D-01 0.000000000000D+00 -.642468253156D-03 0.170968202245D-04 0.000000000000D+00  6 2 -1 25 24 21 21 4 0.97517924D-01 0.25825217D-01 0.25231176D+05 0.25231176D+05 0.25231176D+05 0.12228693D+01  1  2  5  1  6  1        2 -.262830963653D+01 0.100000000000D+01
0.163919681710D-01 0.000000000000D+00 0.638506038407D-03 0.170968202245D-04 0.000000000000D+00  6 2 -1 25 24 21 21 4 0.87242321D-01 0.25825217D-01 0.25231176D+05 0.25231176D+05 0.25231176D+05 0.12228693D+01  1  2  6  1  6  1        2 0.298095813586D+01 0.100000000000D+01
-.289819807445D-03 0.000000000000D+00 -.114423530097D-04 0.170968202245D-04 0.000000000000D+00  6 21 -1 25 24 -2 21 4 0.97517924D-01 0.25825217D-01 0.25231176D+05 0.25231176D+05 0.25231176D+05 0.12228693D+01  3  4  5  4  5  1        2 -.689021541140D-01 0.100000000000D+01
  </mgrwgt>
  </event>
  <event>
  5     66 0.42622971E-03 0.54768468E+02 0.75467711E-02 0.12054396E+00
        2 -1    0    0  502    0 0.00000000E+00 0.00000000E+00 0.30664955E+02 0.30666625E+02 0.32000000E+00 0.0000E+00 0.9000E+01
       -1 -1    0    0    0  501 -.00000000E+00 -.00000000E+00 -.75924610E+03 0.75924617E+03 0.32000000E+00 0.0000E+00 0.9000E+01
       25  1    1    2    0    0 -.17239889E+02 0.24520447E+02 -.24785279E+03 0.27920328E+03 0.12500000E+03 0.0000E+00 0.9000E+01
       24  1    1    2    0    0 0.71589931E+02 -.17794319E+02 -.38760101E+03 0.40267048E+03 0.80419002E+02 0.0000E+00 0.9000E+01
       21  1    1    2  502  501 -.54350042E+02 -.67261274E+01 -.93127346E+02 0.10803903E+03 0.75000000E+00 0.0000E+00 0.9000E+01
#aMCatNLO 1  0  0  5  1 0.39229131D+01 0.00000000D+00  -5  6  0 0.00000000D+00 0.00000000D+00 0.00000000D+00 0.00000000D+00 0.00000000D+00
  <mgrwgt>
 0.1058640811D+00   25    2    0
 0.152587462950769D+03 0.000000000000000D+00 0.000000000000000D+00 0.152587462950769D+03
 0.152587462950769D+03 -.000000000000000D+00 -.000000000000000D+00 -.152587462950769D+03
 0.130958566566629D+03 -.172378917749660D+02 0.245206940060334D+02 0.250347120974718D+02
 0.116903964763285D+03 0.715917139763418D+02 -.177940987489620D+02 -.419203716902252D+02
 0.573123945716245D+02 -.543538222013758D+02 -.672659525707138D+01 0.168856595927534D+02
 0.000000000000000D+00 0.000000000000000D+00 0.000000000000000D+00 0.000000000000000D+00
 0.152587462950769D+03 0.000000000000000D+00 0.000000000000000D+00 0.152587462950769D+03
 0.152587462950769D+03 -.000000000000000D+00 -.000000000000000D+00 -.152587462950769D+03
 0.131120388911440D+03 -.181801544678257D+02 0.244040836278851D+02 0.253274371797969D+02
 0.116314713720771D+03 0.707532137632564D+02 -.178978679289011D+02 -.416598816530359D+02
 0.530975070772247D+02 -.506134417953277D+02 -.923450718379843D+01 0.131281622674036D+02
 0.464231619210225D+01 -.195961750010294D+01 0.272829148481442D+01 0.320428220583552D+01
0.205241053732D-03 0.000000000000D+00 0.000000000000D+00 0.731585837888D-05 0.000000000000D+00  6 2 -1 25 24 21 21 2 0.47178190D-02 0.11680723D+00 0.21380471D+05 0.21380471D+05 0.21380471D+05 0.12306475D+01  1  2  2  3  6  5       21 0.416312185901D-01 0.100000000000D+01
-.665851652186D-06 0.108308679667D-04 -.788179687541D-06 0.731585837888D-05 0.000000000000D+00  6 2 -1 25 24 21 21 4 0.47178190D-02 0.11680723D+00 0.21380471D+05 0.21380471D+05 0.21380471D+05 0.12306475D+01  1  2  3  3  6  5       21 -.204550112060D-03 0.100000000000D+01
0.921728536103D-05 0.000000000000D+00 0.000000000000D+00 0.731585837888D-05 0.000000000000D+00  6 2 -1 25 24 21 21 4 0.47178190D-02 0.11680723D+00 0.21380471D+05 0.21380471D+05 0.21380471D+05 0.12306475D+01  1  2 15  3  6  5       21 0.283155676989D-02 0.100000000000D+01
0.127596270602D-04 0.000000000000D+00 0.000000000000D+00 0.731734059780D-05 0.000000000000D+00  6 2 -1 25 24 21 21 4 0.47178190D-02 0.11680723D+00 0.21324362D+05 0.21324362D+05 0.21324362D+05 0.12307722D+01  1  2 12  3  6  5       21 0.392118539546D-02 0.100000000000D+01
0.137423817857D-04 0.000000000000D+00 0.000000000000D+00 0.731734059780D-05 0.000000000000D+00  6 2 -1 25 24 21 21 4 0.47178190D-02 0.11680723D+00 0.21324362D+05 0.21324362D+05 0.21324362D+05 0.12307722D+01  1  2 12  3  6  5       21 0.422319762971D-02 0.100000000000D+01
-.140399088455D-02 0.000000000000D+00 0.000000000000D+00 0.731585837888D-05 0.000000000000D+00  6 2 -1 25 24 21 21 4 0.47178190D-02 0.11680723D+00 0.21380471D+05 0.21380471D+05 0.21380471D+05 0.12306475D+01  1  2  4  3  6  5       21 -.431307021351D+00 0.100000000000D+01
-.151041356792D-02 0.000000000000D+00 0.000000000000D+00 0.731585837888D-05 0.000000000000D+00  6 2 -1 25 24 21 21 4 0.47178190D-02 0.11680723D+00 0.21380471D+05 0.21380471D+05 0.21380471D+05 0.12306475D+01  1  2  5  3  6  5       21 -.464000147122D+00 0.100000000000D+01
0.166903805099D-02 0.000000000000D+00 -.000000000000D+00 0.731585837888D-05 0.000000000000D+00  6 2 -1 25 24 21 21 4 0.47178190D-02 0.11680723D+00 0.21380471D+05 0.21380471D+05 0.21380471D+05 0.12306475D+01  1  2  6  3  6  5       21 0.512729703743D+00 0.100000000000D+01
0.141544878442D-02 0.000000000000D+00 0.000000000000D+00 0.731585837888D-05 0.449583393546D-05  6 2 -1 25 24 21 21 4 0.47178190D-02 0.11680723D+00 0.21324362D+05 0.21324362D+05 0.21324362D+05 0.12307722D+01  1  2 11  3  6  5       21 0.434984273074D+00 0.100000000000D+01
0.444620749133D-06 0.000000000000D+00 0.000000000000D+00 0.731734059780D-05 0.000000000000D+00  6 2 -1 25 24 1 -1 4 0.47178190D-02 0.11680723D+00 0.21324362D+05 0.21324362D+05 0.21324362D+05 0.12307722D+01  1  2 12  6  6  5       21 0.136637252781D-03 0.100000000000D+01
0.452880571164D-06 0.000000000000D+00 0.000000000000D+00 0.731734059780D-05 0.000000000000D+00  6 2 -1 25 24 1 -1 4 0.47178190D-02 0.11680723D+00 0.21324362D+05 0.21324362D+05 0.21324362D+05 0.12307722D+01  1  2 12  6  6  5       21 0.139175594487D-03 0.100000000000D+01
-.953184913111D-05 0.000000000000D+00 0.000000000000D+00 0.731585837888D-05 0.000000000000D+00  6 2 -1 25 24 1 -1 4 0.47178190D-02 0.11680723D+00 0.21380471D+05 0.21380471D+05 0.21380471D+05 0.12306475D+01  1  2  5  6  6  5       21 -.292819098895D-02 0.100000000000D+01
0.954421858037D-05 0.000000000000D+00 0.000000000000D+00 0.731585837888D-05 0.416547833704D-07  6 2 -1 25 24 1 -1 4 0.47178190D-02 0.11680723D+00 0.21324362D+05 0.21324362D+05 0.21324362D+05 0.12307722D+01  1  2 11  6  6  5       21 0.293305206584D-02 0.100000000000D+01
0.444620749133D-06 0.000000000000D+00 0.000000000000D+00 0.731734059780D-05 0.000000000000D+00  6 2 -1 25 24 2 -2 4 0.47178190D-02 0.11680723D+00 0.21324362D+05 0.21324362D+05 0.21324362D+05 0.12307722D+01  1  2 12  7  6  5       21 0.136637252781D-03 0.100000000000D+01
0.452880571164D-06 0.000000000000D+00 0.000000000000D+00 0.731734059780D-05 0.000000000000D+00  6 2 -1 25 24 2 -2 4 0.47178190D-02 0.11680723D+00 0.21324362D+05 0.21324362D+05 0.21324362D+05 0.12307722D+01  1  2 12  7  6  5       21 0.139175594487D-03 0.100000000000D+01
-.953184913111D-05 0.000000000000D+00 0.000000000000D+00 0.731585837888D-05 0.000000000000D+00  6 2 -1 25 24 2 -2 4 0.47178190D-02 0.11680723D+00 0.21380471D+05 0.21380471D+05 0.21380471D+05 0.12306475D+01  1  2  5  7  6  5       21 -.292819098895D-02 0.100000000000D+01
0.947335309772D-05 0.000000000000D+00 0.000000000000D+00 0.731585837888D-05 0.400351617412D-07  6 2 -1 25 24 2 -2 4 0.47178190D-02 0.11680723D+00 0.21324362D+05 0.21324362D+05 0.21324362D+05 0.12307722D+01  1  2 11  7  6  5       21 0.291127425884D-02 0.100000000000D+01
0.444620749133D-06 0.000000000000D+00 0.000000000000D+00 0.731734059780D-05 0.000000000000D+00  6 2 -1 25 24 3 -3 4 0.47178190D-02 0.11680723D+00 0.21324362D+05 0.21324362D+05 0.21324362D+05 0.12307722D+01  1  2 12  8  6  5       21 0.136637252781D-03 0.100000000000D+01
0.444620749133D-06 0.000000000000D+00 0.000000000000D+00 0.731734059780D-05 0.000000000000D+00  6 2 -1 25 24 4 -4 4 0.47178190D-02 0.11680723D+00 0.21324362D+05 0.21324362D+05 0.21324362D+05 0.12307722D+01  1  2 12  8  6  5       21 0.136637252781D-03 0.100000000000D+01
0.452880571164D-06 0.000000000000D+00 0.000000000000D+00 0.731734059780D-05 0.000000000000D+00  6 2 -1 25 24 3 -3 4 0.47178190D-02 0.11680723D+00 0.21324362D+05 0.21324362D+05 0.21324362D+05 0.12307722D+01  1  2 12  8  6  5       21 0.139175594487D-03 0.100000000000D+01
0.452880571164D-06 0.000000000000D+00 0.000000000000D+00 0.731734059780D-05 0.000000000000D+00  6 2 -1 25 24 4 -4 4 0.47178190D-02 0.11680723D+00 0.21324362D+05 0.21324362D+05 0.21324362D+05 0.12307722D+01  1  2 12  8  6  5       21 0.139175594487D-03 0.100000000000D+01
-.953184913111D-05 0.000000000000D+00 0.000000000000D+00 0.731585837888D-05 0.000000000000D+00  6 2 -1 25 24 3 -3 4 0.47178190D-02 0.11680723D+00 0.21380471D+05 0.21380471D+05 0.21380471D+05 0.12306475D+01  1  2  5  8  6  5       21 -.292819098895D-02 0.100000000000D+01
-.953184913111D-05 0.000000000000D+00 0.000000000000D+00 0.731585837888D-05 0.000000000000D+00  6 2 -1 25 24 4 -4 4 0.47178190D-02 0.11680723D+00 0.21380471D+05 0.21380471D+05 0.21380471D+05 0.12306475D+01  1  2  5  8  6  5       21 -.292819098895D-02 0.100000000000D+01
0.946896380794D-05 0.000000000000D+00 0.000000000000D+00 0.731585837888D-05 0.398918354047D-07  6 2 -1 25 24 3 -3 4 0.47178190D-02 0.11680723D+00 0.21324362D+05 0.21324362D+05 0.21324362D+05 0.12307722D+01  1  2 11  8  6  5       21 0.290992537780D-02 0.100000000000D+01
0.946896380794D-05 0.000000000000D+00 0.000000000000D+00 0.731585837888D-05 0.398918354047D-07  6 2 -1 25 24 4 -4 4 0.47178190D-02 0.11680723D+00 0.21324362D+05 0.21324362D+05 0.21324362D+05 0.12307722D+01  1  2 11  8  6  5       21 0.290992537780D-02 0.100000000000D+01
  </mgrwgt>
  </event>
  <event>
  6     66 0.42622971E-03 0.18856201E+02 0.75467711E-02 0.12215800E+00
        2 -1    0    0  502    0 0.00000000E+00 0.00000000E+00 0.46728689E+02 0.46729785E+02 0.32000000E+00 0.0000E+00 0.9000E+01
       -1 -1    0    0    0  503 0.00000000E+00 0.00000000E+00 -.10427782E+04 0.10427782E+04 0.32000000E+00 0.0000E+00 0.9000E+01
       25  1    1    2    0    0 -.20728274E+02 0.14045621E+02 -.36719771E+03 0.38869795E+03 0.12500000E+03 0.0000E+00 0.9000E+01
       24  1    1    2    0    0 0.24953608E+02 -.57112200E+01 -.17367794E+02 0.86163547E+02 0.80419002E+02 0.0000E+00 0.9000E+01
       21  1    1    2  502  501 0.71724521E+01 -.30470713E+02 -.20269817E+03 0.20510246E+03 0.75000000E+00 0.0000E+00 0.9000E+01
       21  1    1    2  501  503 -.11397786E+02 0.22136311E+02 -.40878582E+03 0.40954406E+03 0.75000000E+00 0.0000E+00 0.9000E+01
#aMCatNLO 2  0  0  2  2 0.24898309D+02 0.00000000D+00  -5  6  0 0.00000000D+00 0.00000000D+00 0.00000000D+00 0.00000000D+00 0.00000000D+00
  <mgrwgt>
 0.4638823409D-01    1    2    0
 0.170918429400609D+03 0.000000000000000D+00 0.000000000000000D+00 0.170918429400609D+03
 0.170918429400609D+03 0.000000000000000D+00 0.000000000000000D+00 -.170918429400609D+03
 0.143944960656403D+03 -.254887426354126D+02 0.232918002939517D+02 -.624737363722220D+02
 0.140354311378730D+03 0.202660790109442D+02 0.339328230762225D+01 0.113180777718347D+03
 0.575375867660850D+02 0.522266362446845D+01 -.266850826015740D+02 -.507070413461245D+02
 0.000000000000000D+00 -.000000000000000D+00 0.000000000000000D+00 -.000000000000000D+00
 0.172771685334589D+03 0.000000000000000D+00 0.000000000000000D+00 0.172771685334589D+03
 0.282034519826629D+03 0.000000000000000D+00 0.000000000000000D+00 -.282034519826629D+03
 0.141968113113071D+03 -.207284816943266D+02 0.140466170741477D+02 -.624737363722220D+02
 0.141182111387682D+03 0.249534716478706D+02 -.571037908570853D+01 0.113180777718347D+03
 0.595921916636045D+02 0.717279588650859D+01 -.304725493578184D+02 -.507070413461245D+02
 0.112063788996860D+03 -.113977858400526D+02 0.221363113693793D+02 -.109262834492040D+03
0.558912095659D-03 0.000000000000D+00 0.000000000000D+00 0.192971545742D-04 0.810235810223D-07  6 2 -1 25 24 21 21 4 0.71890654D-02 0.16042634D+00 0.17966965D+05 0.17966965D+05 0.17966965D+05 0.12389845D+01  1  2  1  2  6  2       -1 0.463882340856D-01 0.100000000000D+01
  </mgrwgt>
  </event>
  <event>
  5     66 0.42622971E-03 0.35855539E+02 0.75467711E-02 0.11967520E+00
        2 -1    0    0  502    0 0.00000000E+00 0.00000000E+00 0.26241280E+03 0.26241299E+03 0.32000000E+00 0.0000E+00 0.9000E+01
       -1 -1    0    0    0  501 0.00000000E+00 0.00000000E+00 -.73530311E+02 0.73531007E+02 0.32000000E+00 0.0000E+00 0.9000E+01
       25  1    1    2    0    0 0.16932777E+02 0.59209015E+02 0.87225510E+02 0.16439500E+03 0.12500000E+03 0.0000E+00 0.9000E+01
       24  1    1    2    0    0 -.46395807E+02 -.38785821E+02 0.62477266E+02 0.11843790E+03 0.80419002E+02 0.0000E+00 0.9000E+01
       21  1    1    2  502  501 0.29463030E+02 -.20423194E+02 0.39179711E+02 0.53111103E+02 0.75000000E+00 0.0000E+00 0.9000E+01
#aMCatNLO 1  0  0  1  5 0.28988875D+02 0.00000000D+00  -5  6  0 0.00000000D+00 0.00000000D+00 0.00000000D+00 0.00000000D+00 0.00000000D+00
  <mgrwgt>
 0.2025376957D+00    7    4    0
 0.138908042688712D+03 0.000000000000000D+00 0.000000000000000D+00 0.138908042688712D+03
 0.138908042688712D+03 0.000000000000000D+00 0.000000000000000D+00 -.138908042688712D+03
 0.139489037139731D+03 0.169298308663271D+02 0.592110575843817D+02 -.629467781112173D+01
 0.100742061736185D+03 -.463979342994037D+02 -.387843461488524D+02 -.497526230875890D+01
 0.375849865015085D+02 0.294681034330766D+02 -.204267114355293D+02 0.112699401198806D+02
 0.000000000000000D+00 0.000000000000000D+00 -.000000000000000D+00 0.000000000000000D+00
 0.168143324599227D+03 0.000000000000000D+00 0.000000000000000D+00 0.168143324599227D+03
 0.147038632448171D+03 0.000000000000000D+00 0.000000000000000D+00 -.147038632448171D+03
 0.143328720023489D+03 0.645572241738573D+01 0.695472692698680D+02 -.629467781112173D+01
 0.101892407081865D+03 -.539024680429090D+02 -.313786132645814D+02 -.497526230875890D+01
 0.341032938756897D+02 0.268131399303586D+02 -.178067018265867D+02 0.112699401198806D+02
 0.358575360663540D+02 0.206336056951646D+02 -.203619541787000D+02 0.211046921510566D+02
 0.138908042688712D+03 0.000000000000000D+00 0.000000000000000D+00 0.138908042688712D+03
 0.138908042688712D+03 0.000000000000000D+00 0.000000000000000D+00 -.138908042688712D+03
 0.139489037139731D+03 0.169298308663271D+02 0.592110575843817D+02 -.629467781112173D+01
 0.100742061736185D+03 -.463979342994037D+02 -.387843461488524D+02 -.497526230875890D+01
 0.000000000000000D+00 0.000000000000000D+00 -.000000000000000D+00 0.000000000000000D+00
 0.375849865015085D+02 0.294681034330766D+02 -.204267114355293D+02 0.112699401198806D+02
 0.168143324599227D+03 0.000000000000000D+00 0.000000000000000D+00 0.168143324599227D+03
 0.147038632448171D+03 0.000000000000000D+00 0.000000000000000D+00 -.147038632448171D+03
 0.143328720023489D+03 0.645572241738573D+01 0.695472692698680D+02 -.629467781112173D+01
 0.101892407081865D+03 -.539024680429090D+02 -.313786132645814D+02 -.497526230875890D+01
 0.358575360663540D+02 0.206336056951646D+02 -.203619541787000D+02 0.211046921510566D+02
 0.341032938756897D+02 0.268131399303586D+02 -.178067018265867D+02 0.112699401198806D+02
0.878532770460D-04 0.000000000000D+00 0.000000000000D+00 0.183013450348D-04 0.000000000000D+00  6 2 -1 25 24 21 21 2 0.40371268D-01 0.11312424D-01 0.19019390D+05 0.19019390D+05 0.19019390D+05 0.12362370D+01  1  2  2  1  6  1        2 0.927348711432D-01 0.100000000000D+01
0.702731255597D-05 0.463614480060D-05 -.337379716156D-06 0.183013450348D-04 0.000000000000D+00  6 2 -1 25 24 21 21 4 0.40371268D-01 0.11312424D-01 0.19019390D+05 0.19019390D+05 0.19019390D+05 0.12362370D+01  1  2  3  1  6  1        2 0.113364698591D-01 0.100000000000D+01
0.183687663008D-05 0.000000000000D+00 0.000000000000D+00 0.183013450348D-04 0.000000000000D+00  6 2 -1 25 24 21 21 4 0.40371268D-01 0.11312424D-01 0.19019390D+05 0.19019390D+05 0.19019390D+05 0.12362370D+01  1  2 15  1  6  1        2 0.296325179588D-02 0.100000000000D+01
-.276056585547D-04 0.000000000000D+00 0.000000000000D+00 0.183013450348D-04 0.000000000000D+00  6 2 -1 25 24 21 21 4 0.40371268D-01 0.11312424D-01 0.19019390D+05 0.19019390D+05 0.19019390D+05 0.12362370D+01  1  2  4  1  6  1        2 -.445334846933D-01 0.100000000000D+01
-.465402827140D-03 0.000000000000D+00 -.107761064175D-03 0.183013450348D-04 0.000000000000D+00  6 2 -1 25 24 21 21 4 0.51221884D-01 0.11312424D-01 0.19019390D+05 0.19019390D+05 0.19019390D+05 0.12362370D+01  1  2  5  1  6  1        2 -.583272780910D+00 0.100000000000D+01
0.480363187738D-03 0.000000000000D+00 0.104778278287D-03 0.183013450348D-04 0.000000000000D+00  6 2 -1 25 24 21 21 4 0.40371268D-01 0.11312424D-01 0.19019390D+05 0.19019390D+05 0.19019390D+05 0.12362370D+01  1  2  6  1  6  1        2 0.774922526335D+00 0.100000000000D+01
-.135237596689D-04 0.000000000000D+00 -.351705600828D-05 0.183013450348D-04 0.000000000000D+00  6 21 -1 25 24 -2 21 4 0.51221884D-01 0.11312424D-01 0.19019390D+05 0.19019390D+05 0.19019390D+05 0.12362370D+01  3  4  5  4  5  1        2 -.516131578170D-01 0.100000000000D+01
  </mgrwgt>
  </event>
  <event>
  5     66 -.42622971E-03 0.23534779E+02 0.75467711E-02 0.11611671E+00
        2 -1    0    0  502    0 0.00000000E+00 0.00000000E+00 0.35775009E+03 0.35775023E+03 0.32000000E+00 0.0000E+00 0.9000E+01
       -1 -1    0    0    0  501 0.00000000E+00 0.00000000E+00 -.12557092E+03 0.12557132E+03 0.32000000E+00 0.0000E+00 0.9000E+01
       25  1    1    2    0    0 -.22490711E+02 0.59661312E+02 -.26829665E+02 0.14286404E+03 0.12500000E+03 0.0000E+00 0.9000E+01
       24  1    1    2    0    0 0.37838777E+02 -.77500041E+02 0.28315775E+03 0.30673043E+03 0.80419002E+02 0.0000E+00 0.9000E+01
       21  1    1    2  502  501 -.15348066E+02 0.17838728E+02 -.24148912E+02 0.33727079E+02 0.75000000E+00 0.0000E+00 0.9000E+01
#aMCatNLO 1  0  0  1  5 0.82027467D+02 0.00000000D+00  -5  6  0 0.00000000D+00 0.00000000D+00 0.00000000D+00 0.00000000D+00 0.00000000D+00
  <mgrwgt>
 -.3902551514D+00    5    4    0
 0.211950793930845D+03 0.000000000000000D+00 0.000000000000000D+00 0.211950793930845D+03
 0.211950793930845D+03 0.000000000000000D+00 0.000000000000000D+00 -.211950793930845D+03
 0.177583401010067D+03 -.224900338071217D+02 0.596605254386852D+02 -.108837881264000D+03
 0.194637282425214D+03 0.378395195231238D+02 -.775009035332828D+02 0.154849076423742D+03
 0.516809044264103D+02 -.153494857160021D+02 0.178403780945975D+02 -.460111951597414D+02
 0.000000000000000D+00 -.000000000000000D+00 0.000000000000000D+00 0.000000000000000D+00
 0.782368016033830D+03 0.000000000000000D+00 0.000000000000000D+00 0.782368016033830D+03
 0.218851934395775D+03 0.000000000000000D+00 0.000000000000000D+00 -.218851934395775D+03
 0.168863649230056D+03 -.401008233008877D+01 0.320650412904861D+02 -.108837881264000D+03
 0.214782953980768D+03 0.596785454211762D+02 -.110112379474159D+03 0.154849076423742D+03
 0.481184503591933D+02 -.100260539459845D+02 0.989107816239195D+01 -.460111951597414D+02
 0.569454896859588D+03 -.456424091451029D+02 0.681562600212809D+02 0.563516081638055D+03
 0.211950793930845D+03 0.000000000000000D+00 0.000000000000000D+00 0.211950793930845D+03
 0.211950793930845D+03 0.000000000000000D+00 0.000000000000000D+00 -.211950793930845D+03
 0.177583401010067D+03 -.224900338071217D+02 0.596605254386852D+02 -.108837881264000D+03
 0.194637282425214D+03 0.378395195231238D+02 -.775009035332828D+02 0.154849076423742D+03
 0.000000000000000D+00 -.000000000000000D+00 0.000000000000000D+00 0.000000000000000D+00
 0.516809044264103D+02 -.153494857160021D+02 0.178403780945975D+02 -.460111951597414D+02
 0.782368016033830D+03 0.000000000000000D+00 0.000000000000000D+00 0.782368016033830D+03
 0.218851934395775D+03 0.000000000000000D+00 0.000000000000000D+00 -.218851934395775D+03
 0.168863649230056D+03 -.401008233008877D+01 0.320650412904861D+02 -.108837881264000D+03
 0.214782953980768D+03 0.596785454211762D+02 -.110112379474159D+03 0.154849076423742D+03
 0.569454896859588D+03 -.456424091451029D+02 0.681562600212809D+02 0.563516081638055D+03
 0.481184503591933D+02 -.100260539459845D+02 0.989107816239195D+01 -.460111951597414D+02
0.279839673140D-03 0.000000000000D+00 0.000000000000D+00 0.171928059788D-04 0.000000000000D+00  6 2 -1 25 24 21 21 2 0.55038517D-01 0.19318645D-01 0.19849681D+05 0.19849681D+05 0.19849681D+05 0.12341869D+01  1  2  2  1  6  1        2 0.916661498589D-01 0.100000000000D+01
0.280742557895D-04 0.147675452670D-04 -.107465802834D-05 0.171928059788D-04 0.000000000000D+00  6 2 -1 25 24 21 21 4 0.55038517D-01 0.19318645D-01 0.19849681D+05 0.19849681D+05 0.19849681D+05 0.12341869D+01  1  2  3  1  6  1        2 0.140077969116D-01 0.100000000000D+01
0.543980864415D-05 0.000000000000D+00 0.000000000000D+00 0.171928059788D-04 0.000000000000D+00  6 2 -1 25 24 21 21 4 0.55038517D-01 0.19318645D-01 0.19849681D+05 0.19849681D+05 0.19849681D+05 0.12341869D+01  1  2 15  1  6  1        2 0.271422100363D-02 0.100000000000D+01
-.464877054680D-02 0.000000000000D+00 -.189839472181D-03 0.171928059788D-04 0.000000000000D+00  6 2 -1 25 24 21 21 4 0.20461637D+00 0.19318645D-01 0.19849681D+05 0.19849681D+05 0.19849681D+05 0.12341869D+01  1  2  5  1  6  1        2 -.456466672614D+00 0.100000000000D+01
-.716627891218D-03 0.000000000000D+00 -.294447284409D-04 0.171928059788D-04 0.000000000000D+00  6 21 -1 25 24 -2 21 4 0.20461637D+00 0.19318645D-01 0.19849681D+05 0.19849681D+05 0.19849681D+05 0.12341869D+01  3  4  5  4  5  1        2 -.421766465170D-01 0.100000000000D+01
  </mgrwgt>
  </event>
  <event>
  6     66 0.42622971E-03 0.16407685E+02 0.75467711E-02 0.11552676E+00
        2 -1    0    0  502    0 0.00000000E+00 0.00000000E+00 0.39560957E+03 0.39560970E+03 0.32000000E+00 0.0000E+00 0.9000E+01
       -1 -1    0    0    0  503 0.00000000E+00 0.00000000E+00 -.16950089E+03 0.16950119E+03 0.32000000E+00 0.0000E+00 0.9000E+01
       25  1    1    2    0    0 -.12368196E+03 0.34257366E+02 0.29431150E+03 0.34455051E+03 0.12500000E+03 0.0000E+00 0.9000E+01
       24  1    1    2    0    0 0.12795683E+03 -.34925814E+02 -.38933583E+02 0.15992437E+03 0.80419002E+02 0.0000E+00 0.9000E+01
       21  1    1    2  502  501 0.22725546E+02 -.86793842E+01 -.15977449E+02 0.29113975E+02 0.75000000E+00 0.0000E+00 0.9000E+01
       21  1    1    2  501  503 -.27000423E+02 0.93478321E+01 -.13291794E+02 0.31522041E+02 0.75000000E+00 0.0000E+00 0.9000E+01
#aMCatNLO 2  0  0  2  2 0.61454739D+02 0.00000000D+00  -5  6  0 0.00000000D+00 0.00000000D+00 0.00000000D+00 0.00000000D+00 0.00000000D+00
  <mgrwgt>
 0.2743962708D-01    1    2    0
 0.238006341222178D+03 0.000000000000000D+00 0.000000000000000D+00 0.238006341222178D+03
 0.238006341222178D+03 0.000000000000000D+00 0.000000000000000D+00 -.238006341222178D+03
 0.245899323950657D+03 -.137389111288840D+03 0.390030046559384D+02 0.156347290499266D+03
 0.190902455087005D+03 0.116921571108607D+03 -.311052297040009D+02 -.123848061343049D+03
 0.392109034066948D+02 0.204675401802327D+02 -.789777495193748D+01 -.324992291562163D+02
 0.000000000000000D+00 -.000000000000000D+00 0.000000000000000D+00 -.000000000000000D+00
 0.244054696216873D+03 0.000000000000000D+00 0.000000000000000D+00 0.244054696216873D+03
 0.274751875029997D+03 0.000000000000000D+00 0.000000000000000D+00 -.274751875029997D+03
 0.237782990943425D+03 -.123683715340184D+03 0.342580515381078D+02 0.156347290499266D+03
 0.198488930710754D+03 0.127955183372316D+03 -.349251830353565D+02 -.123848061343049D+03
 0.405975349532544D+02 0.227289547783797D+02 -.868070061773974D+01 -.324992291562163D+02
 0.419371146394371D+02 -.270004228105116D+02 0.934783211498845D+01 -.306971788131236D+02
0.109314029511D-03 0.000000000000D+00 0.000000000000D+00 0.211976050700D-04 0.404971041419D-07  6 2 -1 25 24 21 21 4 0.60862222D-01 0.26076741D-01 0.37474891D+05 0.37474891D+05 0.37474891D+05 0.12048868D+01  1  2  1  2  6  2       -1 0.274396270751D-01 0.100000000000D+01
  </mgrwgt>
  </event>
  <event>
  5     66 0.42622971E-03 0.84394730E+02 0.75467711E-02 0.11297702E+00
        2 -1    0    0  502    0 0.00000000E+00 0.00000000E+00 0.56503203E+03 0.56503212E+03 0.32000000E+00 0.0000E+00 0.9000E+01
       -1 -1    0    0    0  501 0.00000000E+00 0.00000000E+00 -.14698356E+03 0.14698391E+03 0.32000000E+00 0.0000E+00 0.9000E+01
       25  1    1    2    0    0 -.74987885E+02 -.95782798E+02 0.13755247E+03 0.22213331E+03 0.12500000E+03 0.0000E+00 0.9000E+01
       24  1    1    2    0    0 -.20559990E+02 0.15085582E+03 -.16594917E+02 0.17298208E+03 0.80419002E+02 0.0000E+00 0.9000E+01
       21  1    1    2  502  501 0.95547874E+02 -.55073024E+02 0.29709092E+03 0.31690063E+03 0.75000000E+00 0.0000E+00 0.9000E+01
#aMCatNLO 1  0  0  5  1 0.31663735D+02 0.00000000D+00  -5  6  0 0.00000000D+00 0.00000000D+00 0.00000000D+00 0.00000000D+00 0.00000000D+00
  <mgrwgt>
 0.7007986611D-01   20    2    0
 0.288184964073276D+03 0.000000000000000D+00 0.000000000000000D+00 0.288184964073276D+03
 0.288184964073276D+03 -.000000000000000D+00 -.000000000000000D+00 -.288184964073276D+03
 0.174642847346018D+03 -.749881475290452D+02 -.957826462334504D+02 0.880832219009154D+01
 0.225729621834530D+03 -.205603294138210D+02 0.150856017556764D+03 -.145967054640758D+03
 0.175997458966005D+03 0.955484769428662D+02 -.550733713233132D+02 0.137158732450667D+03
 0.000000000000000D+00 0.000000000000000D+00 0.000000000000000D+00 0.000000000000000D+00
 0.288184964073276D+03 0.000000000000000D+00 0.000000000000000D+00 0.288184964073276D+03
 0.288184964073276D+03 -.000000000000000D+00 -.000000000000000D+00 -.288184964073276D+03
 0.174599980710414D+03 -.727819923135102D+02 -.970542563027001D+02 0.119752324604996D+02
 0.221784665543522D+03 -.177333966901918D+02 0.149226596339641D+03 -.141909025444457D+03
 0.602146444576252D+02 0.427076096979443D+02 -.367733349231384D+02 0.212034270738706D+02
 0.119770637434992D+03 0.478077793057577D+02 -.153990051138025D+02 0.108730365910086D+03
0.172640035158D-03 0.000000000000D+00 0.000000000000D+00 0.158657718922D-05 0.000000000000D+00  6 2 -1 25 24 21 21 2 0.86928038D-01 0.22612889D-01 0.52186921D+05 0.52186921D+05 0.52186921D+05 0.11904449D+01  1  2  2  3  6  5       21 0.248748303684D-01 0.100000000000D+01
-.817931514821D-05 0.911046495116D-05 -.662983192170D-06 0.158657718922D-05 0.000000000000D+00  6 2 -1 25 24 21 21 4 0.86928038D-01 0.22612889D-01 0.52186921D+05 0.52186921D+05 0.52186921D+05 0.11904449D+01  1  2  3  3  6  5       21 -.167014488154D-02 0.100000000000D+01
0.582536154842D-05 0.000000000000D+00 0.000000000000D+00 0.158657718922D-05 0.000000000000D+00  6 2 -1 25 24 21 21 4 0.86928038D-01 0.22612889D-01 0.52186921D+05 0.52186921D+05 0.52186921D+05 0.11904449D+01  1  2 15  3  6  5       21 0.118948806800D-02 0.100000000000D+01
0.402272104673D-04 0.000000000000D+00 0.000000000000D+00 0.158943436567D-05 0.000000000000D+00  6 2 -1 25 24 21 21 4 0.86928038D-01 0.22612889D-01 0.50898694D+05 0.50898694D+05 0.50898694D+05 0.11915163D+01  1  2 12  3  6  5       21 0.824350053180D-02 0.100000000000D+01
0.553327642114D-04 0.000000000000D+00 0.000000000000D+00 0.158943436567D-05 0.000000000000D+00  6 2 -1 25 24 21 21 4 0.86928038D-01 0.22612889D-01 0.50898694D+05 0.50898694D+05 0.50898694D+05 0.11915163D+01  1  2 12  3  6  5       21 0.113389833872D-01 0.100000000000D+01
-.605763326108D-04 0.000000000000D+00 0.000000000000D+00 0.158657718922D-05 0.000000000000D+00  6 2 -1 25 24 21 21 4 0.86928038D-01 0.22612889D-01 0.52186921D+05 0.52186921D+05 0.52186921D+05 0.11904449D+01  1  2  4  3  6  5       21 -.123691592779D-01 0.100000000000D+01
-.948359810724D-04 0.000000000000D+00 0.000000000000D+00 0.158657718922D-05 0.000000000000D+00  6 2 -1 25 24 21 21 4 0.86928038D-01 0.22612889D-01 0.52186921D+05 0.52186921D+05 0.52186921D+05 0.11904449D+01  1  2  5  3  6  5       21 -.193646809670D-01 0.100000000000D+01
0.271178988516D-03 0.000000000000D+00 -.000000000000D+00 0.158657718922D-05 0.000000000000D+00  6 2 -1 25 24 21 21 4 0.86928038D-01 0.22612889D-01 0.52186921D+05 0.52186921D+05 0.52186921D+05 0.11904449D+01  1  2  6  3  6  5       21 0.553723864950D-01 0.100000000000D+01
0.358013518757D-05 0.000000000000D+00 0.000000000000D+00 0.158943436567D-05 0.000000000000D+00  6 2 -1 25 24 1 -1 4 0.86928038D-01 0.22612889D-01 0.50898694D+05 0.50898694D+05 0.50898694D+05 0.11915163D+01  1  2 12  6  6  5       21 0.733653812427D-03 0.100000000000D+01
0.473737944271D-05 0.000000000000D+00 0.000000000000D+00 0.158943436567D-05 0.000000000000D+00  6 2 -1 25 24 1 -1 4 0.86928038D-01 0.22612889D-01 0.50898694D+05 0.50898694D+05 0.50898694D+05 0.11915163D+01  1  2 12  6  6  5       21 0.970800348858D-03 0.100000000000D+01
-.532975027721D-05 0.000000000000D+00 0.000000000000D+00 0.158657718922D-05 0.000000000000D+00  6 2 -1 25 24 1 -1 4 0.86928038D-01 0.22612889D-01 0.52186921D+05 0.52186921D+05 0.52186921D+05 0.11904449D+01  1  2  5  6  6  5       21 -.108828856500D-02 0.100000000000D+01
0.358013518757D-05 0.000000000000D+00 0.000000000000D+00 0.158943436567D-05 0.000000000000D+00  6 2 -1 25 24 2 -2 4 0.86928038D-01 0.22612889D-01 0.50898694D+05 0.50898694D+05 0.50898694D+05 0.11915163D+01  1  2 12  7  6  5       21 0.733653812427D-03 0.100000000000D+01
0.473737944271D-05 0.000000000000D+00 0.000000000000D+00 0.158943436567D-05 0.000000000000D+00  6 2 -1 25 24 2 -2 4 0.86928038D-01 0.22612889D-01 0.50898694D+05 0.50898694D+05 0.50898694D+05 0.11915163D+01  1  2 12  7  6  5       21 0.970800348858D-03 0.100000000000D+01
-.532975027721D-05 0.000000000000D+00 0.000000000000D+00 0.158657718922D-05 0.000000000000D+00  6 2 -1 25 24 2 -2 4 0.86928038D-01 0.22612889D-01 0.52186921D+05 0.52186921D+05 0.52186921D+05 0.11904449D+01  1  2  5  7  6  5       21 -.108828856500D-02 0.100000000000D+01
0.358013518757D-05 0.000000000000D+00 0.000000000000D+00 0.158943436567D-05 0.000000000000D+00  6 2 -1 25 24 3 -3 4 0.86928038D-01 0.22612889D-01 0.50898694D+05 0.50898694D+05 0.50898694D+05 0.11915163D+01  1  2 12  8  6  5       21 0.733653812427D-03 0.100000000000D+01
0.358013518757D-05 0.000000000000D+00 0.000000000000D+00 0.158943436567D-05 0.000000000000D+00  6 2 -1 25 24 4 -4 4 0.86928038D-01 0.22612889D-01 0.50898694D+05 0.50898694D+05 0.50898694D+05 0.11915163D+01  1  2 12  8  6  5       21 0.733653812427D-03 0.100000000000D+01
0.473737944271D-05 0.000000000000D+00 0.000000000000D+00 0.158943436567D-05 0.000000000000D+00  6 2 -1 25 24 3 -3 4 0.86928038D-01 0.22612889D-01 0.50898694D+05 0.50898694D+05 0.50898694D+05 0.11915163D+01  1  2 12  8  6  5       21 0.970800348858D-03 0.100000000000D+01
0.473737944271D-05 0.000000000000D+00 0.000000000000D+00 0.158943436567D-05 0.000000000000D+00  6 2 -1 25 24 4 -4 4 0.86928038D-01 0.22612889D-01 0.50898694D+05 0.50898694D+05 0.50898694D+05 0.11915163D+01  1  2 12  8  6  5       21 0.970800348858D-03 0.100000000000D+01
-.532975027721D-05 0.000000000000D+00 0.000000000000D+00 0.158657718922D-05 0.000000000000D+00  6 2 -1 25 24 3 -3 4 0.86928038D-01 0.22612889D-01 0.52186921D+05 0.52186921D+05 0.52186921D+05 0.11904449D+01  1  2  5  8  6  5       21 -.108828856500D-02 0.100000000000D+01
-.532975027721D-05 0.000000000000D+00 0.000000000000D+00 0.158657718922D-05 0.000000000000D+00  6 2 -1 25 24 4 -4 4 0.86928038D-01 0.22612889D-01 0.52186921D+05 0.52186921D+05 0.52186921D+05 0.11904449D+01  1  2  5  8  6  5       21 -.108828856500D-02 0.100000000000D+01
  </mgrwgt>
  </event>
  <event>
  5     66 0.42622971E-03 0.27588235E+02 0.75467711E-02 0.12296026E+00
        2 -1    0    0  502    0 0.00000000E+00 0.00000000E+00 0.12362423E+03 0.12362464E+03 0.32000000E+00 0.0000E+00 0.9000E+01
       -1 -1    0    0    0  501 -.00000000E+00 -.00000000E+00 -.17464976E+03 0.17465006E+03 0.32000000E+00 0.0000E+00 0.9000E+01
       25  1    1    2    0    0 0.12400353E+02 -.12812764E+02 -.28461780E+02 0.12943341E+03 0.12500000E+03 0.0000E+00 0.9000E+01
       24  1    1    2    0    0 -.39017029E+02 0.20063865E+02 -.69093442E+02 0.11474322E+03 0.80419002E+02 0.0000E+00 0.9000E+01
       21  1    1    2  502  501 0.26616676E+02 -.72511010E+01 0.46529687E+02 0.54098061E+02 0.75000000E+00 0.0000E+00 0.9000E+01
#aMCatNLO 1  0  0  5  2 0.98311716D+01 0.00000000D+00  -5  6  0 0.00000000D+00 0.00000000D+00 0.00000000D+00 0.00000000D+00 0.00000000D+00
  <mgrwgt>
 0.2454598586D+00   14    2    0
 0.146938923646864D+03 0.000000000000000D+00 0.000000000000000D+00 0.146938923646864D+03
 0.146938923646864D+03 -.000000000000000D+00 -.000000000000000D+00 -.146938923646864D+03
 0.126428142575043D+03 0.123995412769980D+02 -.128125428628646D+02 -.641602341662177D+01
 0.104464339475708D+03 -.390176999401553D+02 0.200640477436440D+02 -.502059294032716D+02
 0.629853652429770D+02 0.266181586631573D+02 -.725150488077943D+01 0.566219528198933D+02
 0.000000000000000D+00 0.000000000000000D+00 0.000000000000000D+00 -.000000000000000D+00
 0.146938923646864D+03 0.000000000000000D+00 0.000000000000000D+00 0.146938923646864D+03
 0.146938923646864D+03 -.000000000000000D+00 -.000000000000000D+00 -.146938923646864D+03
 0.126539644603881D+03 0.142790386806317D+02 -.133245686858501D+02 -.241797025823559D+01
 0.102280263360150D+03 -.374816310652261D+02 0.196455811214888D+02 -.469384149044293D+02
 0.984801336078765D+01 -.725494963602807D+01 -.577810370590716D+01 0.331098029241033D+01
 0.552099259689093D+02 0.304575420206224D+02 -.542908729731531D+00 0.460454048702544D+02
0.449345625661D-03 0.000000000000D+00 0.000000000000D+00 0.353870184741D-04 0.000000000000D+00  6 2 -1 25 24 21 21 2 0.19019166D-01 0.26869249D-01 0.15062925D+05 0.15062925D+05 0.15062925D+05 0.12476153D+01  1  2  2  3  6  5       21 0.276494272141D+00 0.100000000000D+01
0.353613379034D-04 0.237126201336D-04 -.172560551796D-05 0.353870184741D-04 0.000000000000D+00  6 2 -1 25 24 21 21 4 0.19019166D-01 0.26869249D-01 0.15062925D+05 0.15062925D+05 0.15062925D+05 0.12476153D+01  1  2  3  3  6  5       21 0.338684803630D-01 0.100000000000D+01
0.173359642115D-04 0.000000000000D+00 0.000000000000D+00 0.353870184741D-04 0.000000000000D+00  6 2 -1 25 24 21 21 4 0.19019166D-01 0.26869249D-01 0.15062925D+05 0.15062925D+05 0.15062925D+05 0.12476153D+01  1  2 15  3  6  5       21 0.166040879187D-01 0.100000000000D+01
0.239763750202D-04 0.000000000000D+00 0.000000000000D+00 0.351283063130D-04 0.000000000000D+00  6 2 -1 25 24 21 21 4 0.19019166D-01 0.26869249D-01 0.16528626D+05 0.16528626D+05 0.16528626D+05 0.12430463D+01  1  2 12  3  6  5       21 0.226889624933D-01 0.100000000000D+01
-.134579476910D-03 0.000000000000D+00 0.000000000000D+00 0.353870184741D-04 0.000000000000D+00  6 2 -1 25 24 21 21 4 0.19019166D-01 0.26869249D-01 0.15062925D+05 0.15062925D+05 0.15062925D+05 0.12476153D+01  1  2  4  3  6  5       21 -.128897904923D+00 0.100000000000D+01
0.828428203846D-12 0.000000000000D+00 0.000000000000D+00 0.353870184741D-04 0.861794150633D-06  6 2 -1 25 24 21 21 4 0.19019166D-01 0.26869249D-01 0.16528626D+05 0.16528626D+05 0.16528626D+05 0.12430463D+01  1  2 11  3  6  5       21 0.783945714465D-09 0.100000000000D+01
0.652589760680D-05 0.000000000000D+00 0.000000000000D+00 0.351283063130D-04 0.000000000000D+00  6 2 -1 25 24 1 -1 4 0.19019166D-01 0.26869249D-01 0.16528626D+05 0.16528626D+05 0.16528626D+05 0.12430463D+01  1  2 12  6  6  5       21 0.617548924353D-02 0.100000000000D+01
0.797162953435D-12 0.000000000000D+00 0.000000000000D+00 0.351283063130D-04 0.231719525613D-07  6 2 -1 25 24 1 -1 4 0.19019166D-01 0.26869249D-01 0.16528626D+05 0.16528626D+05 0.16528626D+05 0.12430463D+01  1  2 11  6  6  5       21 0.754359253071D-09 0.100000000000D+01
0.652589760680D-05 0.000000000000D+00 0.000000000000D+00 0.351283063130D-04 0.000000000000D+00  6 2 -1 25 24 2 -2 4 0.19019166D-01 0.26869249D-01 0.16528626D+05 0.16528626D+05 0.16528626D+05 0.12430463D+01  1  2 12  7  6  5       21 0.617548924353D-02 0.100000000000D+01
0.644785169268D-12 0.000000000000D+00 0.000000000000D+00 0.351283063130D-04 0.279748071834D-07  6 2 -1 25 24 2 -2 4 0.19019166D-01 0.26869249D-01 0.16528626D+05 0.16528626D+05 0.16528626D+05 0.12430463D+01  1  2 11  7  6  5       21 0.610163400825D-09 0.100000000000D+01
0.652589760680D-05 0.000000000000D+00 0.000000000000D+00 0.351283063130D-04 0.000000000000D+00  6 2 -1 25 24 3 -3 4 0.19019166D-01 0.26869249D-01 0.16528626D+05 0.16528626D+05 0.16528626D+05 0.12430463D+01  1  2 12  8  6  5       21 0.617548924353D-02 0.100000000000D+01
0.652589760680D-05 0.000000000000D+00 0.000000000000D+00 0.351283063130D-04 0.000000000000D+00  6 2 -1 25 24 4 -4 4 0.19019166D-01 0.26869249D-01 0.16528626D+05 0.16528626D+05 0.16528626D+05 0.12430463D+01  1  2 12  8  6  5       21 0.617548924353D-02 0.100000000000D+01
0.799585896043D-12 0.000000000000D+00 0.000000000000D+00 0.351283063130D-04 0.230514495032D-07  6 2 -1 25 24 3 -3 4 0.19019166D-01 0.26869249D-01 0.16528626D+05 0.16528626D+05 0.16528626D+05 0.12430463D+01  1  2 11  8  6  5       21 0.756652095667D-09 0.100000000000D+01
0.799585896043D-12 0.000000000000D+00 0.000000000000D+00 0.351283063130D-04 0.230514495032D-07  6 2 -1 25 24 4 -4 4 0.19019166D-01 0.26869249D-01 0.16528626D+05 0.16528626D+05 0.16528626D+05 0.12430463D+01  1  2 11  8  6  5       21 0.756652095667D-09 0.100000000000D+01
  </mgrwgt>
  </event>
  <event>
  5     66 0.42622971E-03 0.46299533E+02 0.75467711E-02 0.11899187E+00
        4 -1    0    0  502    0 0.00000000E+00 0.00000000E+00 0.11973255E+03 0.11974258E+03 0.15500000E+01 0.0000E+00 0.9000E+01
       -3 -1    0    0    0  501 -.00000000E+00 -.00000000E+00 -.26549142E+03 0.26549189E+03 0.50000000E+00 0.0000E+00 0.9000E+01
       25  1    1    2    0    0 0.55027500E+02 -.54122427E+02 -.12355652E+03 0.19195957E+03 0.12500000E+03 0.0000E+00 0.9000E+01
       24  1    1    2    0    0 -.91656548E+02 0.25806523E+02 -.55305176E+02 0.13635534E+03 0.80419002E+02 0.0000E+00 0.9000E+01
       21  1    1    2  502  501 0.36629049E+02 0.28315904E+02 0.33102825E+02 0.56919567E+02 0.75000000E+00 0.0000E+00 0.9000E+01
#aMCatNLO 1  0  0  5  2 0.98311716D+01 0.00000000D+00  -5  6  0 0.00000000D+00 0.00000000D+00 0.00000000D+00 0.00000000D+00 0.00000000D+00
  <mgrwgt>
 0.6973602993D-03    1    2    0
 0.178297469998078D+03 0.000000000000000D+00 0.000000000000000D+00 0.178297469998078D+03
 0.178297469998078D+03 -.000000000000000D+00 -.000000000000000D+00 -.178297469998078D+03
 0.156873014019673D+03 0.550266942464232D+02 -.541230498602314D+02 -.550172783928293D+02
 0.124700870896034D+03 -.916571883123822D+02 0.258060286338940D+02 -.401247612753483D+01
 0.750210550804477D+02 0.366304940659590D+02 0.283170212263375D+02 0.590297545203642D+02
 0.000000000000000D+00 0.000000000000000D+00 0.000000000000000D+00 -.000000000000000D+00
 0.178297469998078D+03 0.000000000000000D+00 0.000000000000000D+00 0.178297469998078D+03
 0.178297469998078D+03 -.000000000000000D+00 -.000000000000000D+00 -.178297469998078D+03
 0.155342484645067D+03 0.585343310572181D+02 -.514114886717116D+02 -.493647491226814D+02
 0.123075530465416D+03 -.888735032295511D+02 0.279579425402701D+02 0.473410598580180D+00
 0.664149297563200D+02 0.348136529809842D+02 0.142745894146914D+02 0.547283158675517D+02
 0.117619951293526D+02 -.447448080865120D+01 0.917895671675006D+01 -.583697734345048D+01
0.990013462117D-05 0.000000000000D+00 0.000000000000D+00 0.104331688181D-04 0.000000000000D+00  6 4 -3 25 24 21 21 4 0.18421200D-01 0.40845642D-01 0.25256328D+05 0.25256328D+05 0.25256328D+05 0.12228230D+01  1  2 14  3  6  5       21 0.697360299267D-03 0.100000000000D+01
  </mgrwgt>
  </event>
  <event>
  5     66 0.42622971E-03 0.26755281E+02 0.75467711E-02 0.12328127E+00
        2 -1    0    0  502    0 0.00000000E+00 0.00000000E+00 0.21255307E+04 0.21255307E+04 0.32000000E+00 0.0000E+00 0.9000E+01
       -1 -1    0    0    0  501 0.00000000E+00 0.00000000E+00 -.91011967E+01 0.91068206E+01 0.32000000E+00 0.0000E+00 0.9000E+01
       25  1    1    2    0    0 0.42782350E+02 -.21853573E+02 0.76595960E+03 0.77757766E+03 0.12500000E+03 0.0000E+00 0.9000E+01
       24  1    1    2    0    0 -.21535991E+02 0.38110524E+02 0.69005940E+03 0.69610732E+03 0.80419002E+02 0.0000E+00 0.9000E+01
       21  1    1    2  502  501 -.21246359E+02 -.16256951E+02 0.66041045E+03 0.66095251E+03 0.75000000E+00 0.0000E+00 0.9000E+01
#aMCatNLO 1  0  0  5  2 0.86039023D+01 0.00000000D+00  -5  6  0 0.00000000D+00 0.00000000D+00 0.00000000D+00 0.00000000D+00 0.00000000D+00
  <mgrwgt>
 0.6527194852D+00   14    2    0
 0.139107514788169D+03 0.000000000000000D+00 0.000000000000000D+00 0.139107514788169D+03
 0.139107514788169D+03 -.000000000000000D+00 -.000000000000000D+00 -.139107514788169D+03
 0.139270789590065D+03 0.427836825793011D+02 -.218525530961025D+02 -.382540881629097D+02
 0.915650515692421D+02 -.215351147471415D+02 0.381111940523732D+02 -.847605590606662D+00
 0.473791884170318D+02 -.212485678321597D+02 -.162586409562708D+02 0.391016937535164D+02
 0.000000000000000D+00 0.000000000000000D+00 0.000000000000000D+00 -.000000000000000D+00
 0.139107514788169D+03 0.000000000000000D+00 0.000000000000000D+00 0.139107514788169D+03
 0.139107514788169D+03 -.000000000000000D+00 -.000000000000000D+00 -.139107514788169D+03
 0.137319084324062D+03 0.397479624559191D+02 -.241753771056855D+02 -.326677446726809D+02
 0.914730344969428D+02 -.235440545299079D+02 0.365740254822951D+02 0.284925288830219D+01
 0.402478462983525D+02 -.196119572846015D+02 -.543399367008106D+01 0.347236515348875D+02
 0.917506445698167D+01 0.340804935859019D+01 -.696465470652862D+01 -.490515975050864D+01
0.287370987973D-03 0.000000000000D+00 0.000000000000D+00 0.358557512950D-04 0.000000000000D+00  6 2 -1 25 24 21 21 2 0.32700515D+00 0.14006186D-02 0.15905053D+05 0.15905053D+05 0.15905053D+05 0.12449323D+01  1  2  2  3  6  5       21 0.367658712092D+00 0.100000000000D+01
0.264796428691D-04 0.151649836697D-04 -.110358026033D-05 0.358557512950D-04 0.000000000000D+00  6 2 -1 25 24 21 21 4 0.32700515D+00 0.14006186D-02 0.15905053D+05 0.15905053D+05 0.15905053D+05 0.12449323D+01  1  2  3  3  6  5       21 0.525055887883D-01 0.100000000000D+01
0.855316143299D-05 0.000000000000D+00 0.000000000000D+00 0.358557512950D-04 0.000000000000D+00  6 2 -1 25 24 21 21 4 0.32700515D+00 0.14006186D-02 0.15905053D+05 0.15905053D+05 0.15905053D+05 0.12449323D+01  1  2 15  3  6  5       21 0.169597746941D-01 0.100000000000D+01
0.320767248691D-03 0.000000000000D+00 0.000000000000D+00 0.358405217322D-04 0.000000000000D+00  6 2 -1 25 24 21 21 4 0.32700515D+00 0.14006186D-02 0.15990868D+05 0.15990868D+05 0.15990868D+05 0.12446679D+01  1  2 12  3  6  5       21 0.635539587344D+00 0.100000000000D+01
-.223678543065D-03 0.000000000000D+00 0.000000000000D+00 0.358557512950D-04 0.000000000000D+00  6 2 -1 25 24 21 21 4 0.32700515D+00 0.14006186D-02 0.15905053D+05 0.15905053D+05 0.15905053D+05 0.12449323D+01  1  2  4  3  6  5       21 -.443524622330D+00 0.100000000000D+01
0.277196182082D-06 0.000000000000D+00 0.000000000000D+00 0.358557512950D-04 0.395771268513D-05  6 2 -1 25 24 21 21 4 0.32700515D+00 0.14006186D-02 0.15990868D+05 0.15990868D+05 0.15990868D+05 0.12446679D+01  1  2 11  3  6  5       21 0.549211766141D-03 0.100000000000D+01
0.290489032997D-05 0.000000000000D+00 0.000000000000D+00 0.358405217322D-04 0.000000000000D+00  6 2 -1 25 24 1 -1 4 0.32700515D+00 0.14006186D-02 0.15990868D+05 0.15990868D+05 0.15990868D+05 0.12446679D+01  1  2 12  6  6  5       21 0.575549034113D-02 0.100000000000D+01
0.785376048602D-09 0.000000000000D+00 0.000000000000D+00 0.358405217322D-04 0.151172940899D-07  6 2 -1 25 24 1 -1 4 0.32700515D+00 0.14006186D-02 0.15990868D+05 0.15990868D+05 0.15990868D+05 0.12446679D+01  1  2 11  6  6  5       21 0.155607398160D-05 0.100000000000D+01
0.290489032997D-05 0.000000000000D+00 0.000000000000D+00 0.358405217322D-04 0.000000000000D+00  6 2 -1 25 24 2 -2 4 0.32700515D+00 0.14006186D-02 0.15990868D+05 0.15990868D+05 0.15990868D+05 0.12446679D+01  1  2 12  7  6  5       21 0.575549034113D-02 0.100000000000D+01
0.126797873027D-08 0.000000000000D+00 0.000000000000D+00 0.358405217322D-04 0.206241873703D-07  6 2 -1 25 24 2 -2 4 0.32700515D+00 0.14006186D-02 0.15990868D+05 0.15990868D+05 0.15990868D+05 0.12446679D+01  1  2 11  7  6  5       21 0.251225984661D-05 0.100000000000D+01
0.290489032997D-05 0.000000000000D+00 0.000000000000D+00 0.358405217322D-04 0.000000000000D+00  6 2 -1 25 24 3 -3 4 0.32700515D+00 0.14006186D-02 0.15990868D+05 0.15990868D+05 0.15990868D+05 0.12446679D+01  1  2 12  8  6  5       21 0.575549034113D-02 0.100000000000D+01
0.290489032997D-05 0.000000000000D+00 0.000000000000D+00 0.358405217322D-04 0.000000000000D+00  6 2 -1 25 24 4 -4 4 0.32700515D+00 0.14006186D-02 0.15990868D+05 0.15990868D+05 0.15990868D+05 0.12446679D+01  1  2 12  8  6  5       21 0.575549034113D-02 0.100000000000D+01
0.131304999632D-08 0.000000000000D+00 0.000000000000D+00 0.358405217322D-04 0.130508706063D-07  6 2 -1 25 24 3 -3 4 0.32700515D+00 0.14006186D-02 0.15990868D+05 0.15990868D+05 0.15990868D+05 0.12446679D+01  1  2 11  8  6  5       21 0.260156002906D-05 0.100000000000D+01
0.131304999632D-08 0.000000000000D+00 0.000000000000D+00 0.358405217322D-04 0.130508706063D-07  6 2 -1 25 24 4 -4 4 0.32700515D+00 0.14006186D-02 0.15990868D+05 0.15990868D+05 0.15990868D+05 0.12446679D+01  1  2 11  8  6  5       21 0.260156002906D-05 0.100000000000D+01
  </mgrwgt>
  </event>
  <event>
  6     66 0.42622971E-03 0.23818961E+02 0.75467711E-02 0.11112344E+00
        2 -1    0    0  502    0 0.00000000E+00 0.00000000E+00 0.52496936E+03 0.52496945E+03 0.32000000E+00 0.0000E+00 0.9000E+01
       -1 -1    0    0    0  501 0.00000000E+00 0.00000000E+00 -.12694530E+03 0.12694570E+03 0.32000000E+00 0.0000E+00 0.9000E+01
       25  1    1    2    0    0 -.22500336E+03 -.12196387E+02 0.17428403E+03 0.31108710E+03 0.12500000E+03 0.0000E+00 0.9000E+01
       24  1    1    2    0    0 0.18900474E+03 -.10939356E+02 0.20169399E+03 0.28808010E+03 0.80419002E+02 0.0000E+00 0.9000E+01
       21  1    1    2  502  503 0.27361096E+02 0.14205541E+02 0.25294020E+02 0.39884545E+02 0.75000000E+00 0.0000E+00 0.9000E+01
       21  1    1    2  503  501 0.86375213E+01 0.89302018E+01 -.32479861E+01 0.12863405E+02 0.75000000E+00 0.0000E+00 0.9000E+01
#aMCatNLO 2  0  0  5  1 0.10469879D+02 0.00000000D+00  -5  6  0 0.00000000D+00 0.00000000D+00 0.00000000D+00 0.00000000D+00 0.00000000D+00
  <mgrwgt>
 0.2176659604D+00    4    2    0
 0.258152191860348D+03 0.000000000000000D+00 0.000000000000000D+00 0.258152191860348D+03
 0.258152191860348D+03 -.000000000000000D+00 -.000000000000000D+00 -.258152191860348D+03
 0.260197986499430D+03 -.227009780205258D+03 -.134858829926661D+02 -.190442334953599D+02
 0.206949816302751D+03 0.187398445823847D+03 -.119716955552831D+02 0.331588829985330D+02
 0.491565809185141D+02 0.396113343814115D+02 0.254575785479492D+02 -.141146495031730D+02
 0.000000000000000D+00 0.000000000000000D+00 0.000000000000000D+00 -.000000000000000D+00
 0.258152191860348D+03 0.000000000000000D+00 0.000000000000000D+00 0.258152191860348D+03
 0.258152191860348D+03 -.000000000000000D+00 -.000000000000000D+00 -.258152191860348D+03
 0.258431509207771D+03 -.224994847661081D+03 -.121909176926263D+02 -.197622114952866D+02
 0.208264002146202D+03 0.189011597105271D+03 -.109349487226425D+02 0.325840711349975D+02
 0.303262943203582D+02 0.269210509250407D+02 0.138844117017760D+02 0.147114105099986D+01
 0.192825780463638D+02 0.906219963076922D+01 0.924145471349281D+01 -.142930006907108D+02
-.379658545606D-03 0.000000000000D+00 0.000000000000D+00 0.698265010526D-05 0.000000000000D+00  6 2 -1 25 24 21 21 4 0.80764555D-01 0.19530084D-01 0.64162884D+05 0.64162884D+05 0.64162884D+05 0.11817015D+01  1  2 13  3  6  5       21 -.104062625162D+00 0.100000000000D+01
-.374224156659D-03 0.000000000000D+00 0.000000000000D+00 0.698265010526D-05 0.000000000000D+00  6 2 -1 25 24 21 21 4 0.80764555D-01 0.19530084D-01 0.64162884D+05 0.64162884D+05 0.64162884D+05 0.11817015D+01  1  2 13  3  6  5       21 -.102573084662D+00 0.100000000000D+01
-.255461268617D-03 0.000000000000D+00 0.000000000000D+00 0.697438826263D-05 0.000000000000D+00  6 2 -1 25 24 21 21 4 0.80764555D-01 0.19530084D-01 0.65245193D+05 0.65245193D+05 0.65245193D+05 0.11810022D+01  1  2  8  3  6  5       21 -.698597760919D-01 0.100000000000D+01
0.180288182919D-02 0.000000000000D+00 0.000000000000D+00 0.697438826263D-05 0.786388749427D-06  6 2 -1 25 24 21 21 4 0.80764555D-01 0.19530084D-01 0.64162884D+05 0.64162884D+05 0.64162884D+05 0.11817015D+01  1  2  1  3  6  5       21 0.494161446315D+00 0.100000000000D+01
  </mgrwgt>
  </event>
  <event>
  5     66 -.42622971E-03 0.21588768E+02 0.75467711E-02 0.11585348E+00
        2 -1    0    0  502    0 0.00000000E+00 0.00000000E+00 0.39142594E+02 0.39143902E+02 0.32000000E+00 0.0000E+00 0.9000E+01
       -1 -1    0    0    0  501 0.00000000E+00 0.00000000E+00 -.71460890E+03 0.71460897E+03 0.32000000E+00 0.0000E+00 0.9000E+01
       25  1    1    2    0    0 0.52045250E+02 -.91785808E+02 -.38281659E+03 0.41630143E+03 0.12500000E+03 0.0000E+00 0.9000E+01
       24  1    1    2    0    0 -.36116715E+02 0.10634995E+03 -.28050673E+03 0.31267551E+03 0.80419002E+02 0.0000E+00 0.9000E+01
       21  1    1    2  502  501 -.15928535E+02 -.14564142E+02 -.12142987E+02 0.24775938E+02 0.75000000E+00 0.0000E+00 0.9000E+01
#aMCatNLO 1  0  0  1  2 0.52700438D+02 0.00000000D+00  -5  6  0 0.00000000D+00 0.00000000D+00 0.00000000D+00 0.00000000D+00 0.00000000D+00
  <mgrwgt>
 -.7080371041D+00    5    4    0
 0.167248815897339D+03 0.000000000000000D+00 0.000000000000000D+00 0.167248815897339D+03
 0.167248815897339D+03 0.000000000000000D+00 0.000000000000000D+00 -.167248815897339D+03
 0.165049575309640D+03 0.520475058240351D+02 -.917837449414904D+02 -.219809829603939D+02
 0.138139988179403D+03 -.361148266690375D+02 0.106351676512966D+03 -.693236887330313D+00
 0.313080683056336D+02 -.159326791549976D+02 -.145679315714757D+02 0.226742198477242D+02
 0.000000000000000D+00 0.000000000000000D+00 -.000000000000000D+00 0.000000000000000D+00
 0.534377143706302D+03 0.000000000000000D+00 0.000000000000000D+00 0.534377143706302D+03
 0.171213788661133D+03 0.000000000000000D+00 0.000000000000000D+00 -.171213788661133D+03
 0.150462903363073D+03 0.395987540709876D+02 -.704475716584023D+02 -.219809829603939D+02
 0.157183937028075D+03 -.477670258058491D+02 0.126322621780728D+03 -.693236887330313D+00
 0.309768473200813D+02 -.183901713462600D+02 -.103559848418146D+02 0.226742198477242D+02
 0.366967244656206D+03 0.265584430811215D+02 -.455190652805106D+02 0.363163355045169D+03
 0.167248815897339D+03 0.000000000000000D+00 0.000000000000000D+00 0.167248815897339D+03
 0.167248815897339D+03 0.000000000000000D+00 0.000000000000000D+00 -.167248815897339D+03
 0.165049575309640D+03 0.520475058240351D+02 -.917837449414904D+02 -.219809829603939D+02
 0.138139988179403D+03 -.361148266690375D+02 0.106351676512966D+03 -.693236887330313D+00
 0.000000000000000D+00 0.000000000000000D+00 -.000000000000000D+00 0.000000000000000D+00
 0.313080683056336D+02 -.159326791549976D+02 -.145679315714757D+02 0.226742198477242D+02
 0.534377143706302D+03 0.000000000000000D+00 0.000000000000000D+00 0.534377143706302D+03
 0.171213788661133D+03 0.000000000000000D+00 0.000000000000000D+00 -.171213788661133D+03
 0.150462903363073D+03 0.395987540709876D+02 -.704475716584023D+02 -.219809829603939D+02
 0.157183937028075D+03 -.477670258058491D+02 0.126322621780728D+03 -.693236887330313D+00
 0.366967244656206D+03 0.265584430811215D+02 -.455190652805106D+02 0.363163355045169D+03
 0.309768473200813D+02 -.183901713462600D+02 -.103559848418146D+02 0.226742198477242D+02
0.343937258511D-03 0.000000000000D+00 0.000000000000D+00 0.415320131106D-04 0.000000000000D+00  6 2 -1 25 24 21 21 2 0.60220437D-02 0.10993994D+00 0.26131749D+05 0.26131749D+05 0.26131749D+05 0.12212415D+01  1  2  2  1  6  1        2 0.576285608012D-01 0.100000000000D+01
0.783310103292D-04 0.181500677766D-04 -.132080963344D-05 0.415320131106D-04 0.000000000000D+00  6 2 -1 25 24 21 21 4 0.60220437D-02 0.10993994D+00 0.26131749D+05 0.26131749D+05 0.26131749D+05 0.12212415D+01  1  2  3  1  6  1        2 0.195747110946D-01 0.100000000000D+01
0.124524585571D-04 0.000000000000D+00 0.000000000000D+00 0.415320131106D-04 0.000000000000D+00  6 2 -1 25 24 21 21 4 0.60220437D-02 0.10993994D+00 0.26131749D+05 0.26131749D+05 0.26131749D+05 0.12212415D+01  1  2 15  1  6  1        2 0.311183626572D-02 0.100000000000D+01
-.684128896545D-02 0.000000000000D+00 -.231020100414D-03 0.415320131106D-04 0.000000000000D+00  6 2 -1 25 24 21 21 4 0.19518015D-01 0.10993994D+00 0.26131749D+05 0.26131749D+05 0.26131749D+05 0.12212415D+01  1  2  5  1  6  1        2 -.407151404806D+00 0.100000000000D+01
-.918975548916D-03 0.000000000000D+00 -.313582376009D-04 0.415320131106D-04 0.000000000000D+00  6 21 -1 25 24 -2 21 4 0.19518015D-01 0.10993994D+00 0.26131749D+05 0.26131749D+05 0.26131749D+05 0.12212415D+01  3  4  5  4  5  1        2 -.381200807425D+00 0.100000000000D+01
  </mgrwgt>
  </event>
  <event>
  6     66 0.42622971E-03 0.43767202E+02 0.75467711E-02 0.10330733E+00
        2 -1    0    0  502    0 0.00000000E+00 0.00000000E+00 0.19869956E+04 0.19869956E+04 0.32000000E+00 0.0000E+00 0.9000E+01
       21 -1    0    0  503  501 0.00000000E+00 0.00000000E+00 -.23943693E+03 0.23943810E+03 0.75000000E+00 0.0000E+00 0.9000E+01
       25  1    1    2    0    0 -.37333039E+03 0.13520596E+03 0.91317137E+03 0.10035752E+04 0.12500000E+03 0.0000E+00 0.9000E+01
       24  1    1    2    0    0 0.37566198E+03 -.84159050E+02 0.93802663E+03 0.10171361E+04 0.80419002E+02 0.0000E+00 0.9000E+01
        1  1    1    2  503    0 -.88552716E+01 -.46829716E+02 -.15068041E+03 0.15803837E+03 0.32000000E+00 0.0000E+00 0.9000E+01
       21  1    1    2  502  501 0.65236765E+01 -.42171915E+01 0.47041085E+02 0.47684056E+02 0.75000000E+00 0.0000E+00 0.9000E+01
#aMCatNLO 2  0  0  2  5 0.16439453D+02 0.00000000D+00  -5  6  0 0.00000000D+00 0.00000000D+00 0.00000000D+00 0.00000000D+00 0.00000000D+00
  <mgrwgt>
 0.8361340594D+01    1    2    0
 0.410084223747308D+03 0.000000000000000D+00 0.000000000000000D+00 0.410084223747308D+03
 0.410084223747308D+03 0.000000000000000D+00 0.000000000000000D+00 -.410084223747308D+03
 0.413760840057124D+03 -.377816801091468D+03 0.111521560326357D+03 -.197595333993928D+02
 0.394856694460986D+03 0.371403372255286D+03 -.106640626407671D+03 0.114849938209350D+02
 0.000000000000000D+00 -.000000000000000D+00 -.000000000000000D+00 -.000000000000000D+00
 0.115509129765061D+02 0.641342883618240D+01 -.488093391868593D+01 0.827453957845772D+01
 0.411537949711128D+03 0.000000000000000D+00 0.000000000000000D+00 0.411537949711128D+03
 0.115605711548205D+04 0.000000000000000D+00 0.000000000000000D+00 -.115605711548205D+04
 0.416747202752397D+03 -.373337126017682D+03 0.135211619983799D+03 -.197595333993928D+02
 0.393443862806786D+03 0.375655384487579D+03 -.841545260124321D+02 0.114849938209350D+02
 0.746043045901095D+03 -.885527156162096D+01 -.468297160223176D+02 -.744519165770918D+03
 0.113609537328935D+02 0.653701309172410D+01 -.422737794904972D+01 0.827453957845772D+01
0.802563420079D-01 0.000000000000D+00 0.000000000000D+00 0.208397750160D-03 0.126030086592D-06  6 2 21 25 24 1 21 4 0.30569170D+00 0.36836539D-01 0.18705587D+06 0.18705587D+06 0.18705587D+06 0.11393850D+01  1  2  1  5  5  2       -1 0.836134059408D+01 0.100000000000D+01
  </mgrwgt>
  </event>
  <event>
  5     66 0.42622971E-03 0.40195913E+02 0.75467711E-02 0.11439620E+00
        2 -1    0    0  502    0 0.00000000E+00 0.00000000E+00 0.10458390E+04 0.10458391E+04 0.32000000E+00 0.0000E+00 0.9000E+01
       -1 -1    0    0    0  501 0.00000000E+00 0.00000000E+00 -.57988124E+02 0.57989007E+02 0.32000000E+00 0.0000E+00 0.9000E+01
       25  1    1    2    0    0 0.81788083E+02 -.87685573E+02 0.18599258E+03 0.25415800E+03 0.12500000E+03 0.0000E+00 0.9000E+01
       24  1    1    2    0    0 -.46367123E+02 0.68684409E+02 0.11967539E+03 0.16630356E+03 0.80419002E+02 0.0000E+00 0.9000E+01
       21  1    1    2  502  501 -.35420960E+02 0.19001164E+02 0.68218291E+03 0.68336650E+03 0.75000000E+00 0.0000E+00 0.9000E+01
#aMCatNLO 1  0  0  2  2 0.93946072D+02 0.00000000D+00  -5  6  0 0.00000000D+00 0.00000000D+00 0.00000000D+00 0.00000000D+00 0.00000000D+00
  <mgrwgt>
 0.3366912214D+00    3    2    0
 0.246265621525533D+03 0.000000000000000D+00 0.000000000000000D+00 0.246265621525533D+03
 0.246265621525533D+03 0.000000000000000D+00 0.000000000000000D+00 -.246265621525533D+03
 0.196564189809786D+03 0.817882323584136D+02 -.876856529512013D+02 -.929214293356777D+02
 0.132680255204316D+03 -.463670227687176D+02 0.686843546432160D+02 -.653405907038050D+02
 0.163286798036963D+03 -.354212095896959D+02 0.190012983079853D+02 0.158262020039483D+03
 0.000000000000000D+00 -.000000000000000D+00 0.000000000000000D+00 0.000000000000000D+00
 0.484712108777099D+03 0.000000000000000D+00 0.000000000000000D+00 0.484712108777099D+03
 0.260134523603317D+03 0.000000000000000D+00 0.000000000000000D+00 -.260134523603317D+03
 0.222871424392779D+03 0.105886325429593D+03 -.119165288016684D+03 -.929214293356777D+02
 0.119293580009966D+03 -.318902145843669D+02 0.497731222394628D+02 -.653405907038050D+02
 0.159245894778106D+03 -.168905398354532D+02 -.520554327319316D+01 0.158262020039483D+03
 0.243435733199564D+03 -.571055710097732D+02 0.745977090504145D+02 0.224577585173781D+03
0.918656268651D-03 0.000000000000D+00 0.000000000000D+00 0.197013395983D-04 0.000000000000D+00  6 2 -1 25 24 21 21 2 0.16089838D+00 0.89213216D-02 0.27041450D+05 0.27041450D+05 0.27041450D+05 0.12196596D+01  1  2  2  2  6  2       -1 0.277603310221D+00 0.100000000000D+01
0.998086757696D-04 0.484788231772D-04 -.352788195937D-05 0.197013395983D-04 0.000000000000D+00  6 2 -1 25 24 21 21 4 0.16089838D+00 0.89213216D-02 0.27041450D+05 0.27041450D+05 0.27041450D+05 0.12196596D+01  1  2  3  2  6  2       -1 0.448659784957D-01 0.100000000000D+01
0.316380542896D-04 0.000000000000D+00 0.000000000000D+00 0.197013395983D-04 0.000000000000D+00  6 2 -1 25 24 21 21 4 0.16089838D+00 0.89213216D-02 0.27041450D+05 0.27041450D+05 0.27041450D+05 0.12196596D+01  1  2 15  2  6  2       -1 0.142219326372D-01 0.100000000000D+01
  </mgrwgt>
  </event>
  <event>
  6     66 0.42622971E-03 0.44107565E+02 0.75467711E-02 0.11624990E+00
        2 -1    0    0  502    0 0.00000000E+00 0.00000000E+00 0.41862111E+03 0.41862123E+03 0.32000000E+00 0.0000E+00 0.9000E+01
       21 -1    0    0  503  501 0.00000000E+00 0.00000000E+00 -.30294987E+03 0.30295080E+03 0.75000000E+00 0.0000E+00 0.9000E+01
       25  1    1    2    0    0 -.66201654E+02 -.70112582E+02 0.21166453E+03 0.26405550E+03 0.12500000E+03 0.0000E+00 0.9000E+01
       24  1    1    2    0    0 0.59388380E+02 0.10783281E+03 0.13369807E+03 0.19873923E+03 0.80419002E+02 0.0000E+00 0.9000E+01
        1  1    1    2  503    0 -.98614897E+01 0.10998891E+02 0.71405579E+01 0.16410806E+02 0.32000000E+00 0.0000E+00 0.9000E+01
       21  1    1    2  502  501 0.16674764E+02 -.48719116E+02 -.23683191E+03 0.24236649E+03 0.75000000E+00 0.0000E+00 0.9000E+01
#aMCatNLO 2  0  0  2  2 0.14772427D+02 0.00000000D+00  -5  6  0 0.00000000D+00 0.00000000D+00 0.00000000D+00 0.00000000D+00 0.00000000D+00
  <mgrwgt>
 0.2926383955D+00    1    2    0
 0.348301311553630D+03 0.000000000000000D+00 0.000000000000000D+00 0.348301311553630D+03
 0.348301311553630D+03 0.000000000000000D+00 0.000000000000000D+00 -.348301311553630D+03
 0.234152794238962D+03 -.695169181445150D+02 -.664149070733594D+02 0.173086652460667D+03
 0.181212867719549D+03 0.568296966878717D+02 0.110686630526717D+03 0.104353930782596D+03
 0.000000000000000D+00 -.000000000000000D+00 0.000000000000000D+00 0.000000000000000D+00
 0.281236961148748D+03 0.126872214566432D+02 -.442717234533573D+02 -.277440583243263D+03
 0.358461396085099D+03 0.000000000000000D+00 0.000000000000000D+00 0.358461396085099D+03
 0.353790983139970D+03 0.000000000000000D+00 0.000000000000000D+00 -.353790983139970D+03
 0.234269966297206D+03 -.662016657636523D+02 -.701125331090817D+02 0.173086652460667D+03
 0.180310454100828D+03 0.593883705064336D+02 0.107832845100591D+03 0.104353930782596D+03
 0.154931388035142D+02 -.986148971535824D+01 0.109988914669077D+02 0.467041294512871D+01
 0.282178820023520D+03 0.166747849725769D+02 -.487192034584168D+02 -.277440583243263D+03
0.327514820505D-03 0.000000000000D+00 0.000000000000D+00 0.232563164054D-04 0.699351359377D-07  6 2 21 25 24 1 21 4 0.64403029D-01 0.46607536D-01 0.34444088D+05 0.34444088D+05 0.34444088D+05 0.12086518D+01  1  2  1  5  5  2       -1 0.292638395522D+00 0.100000000000D+01
  </mgrwgt>
  </event>
  <event>
  5     66 0.42622971E-03 0.36045092E+02 0.75467711E-02 0.10881058E+00
        2 -1    0    0  502    0 0.00000000E+00 0.00000000E+00 0.64201858E+03 0.64201866E+03 0.32000000E+00 0.0000E+00 0.9000E+01
       -1 -1    0    0    0  501 0.00000000E+00 0.00000000E+00 -.57886216E+02 0.57887100E+02 0.32000000E+00 0.0000E+00 0.9000E+01
       25  1    1    2    0    0 0.95726567E+02 0.12471319E+03 0.29615074E+03 0.35783685E+03 0.12500000E+03 0.0000E+00 0.9000E+01
       24  1    1    2    0    0 -.76515121E+02 -.94221966E+02 0.25260545E+03 0.29156316E+03 0.80419002E+02 0.0000E+00 0.9000E+01
       21  1    1    2  502  501 -.19211447E+02 -.30491228E+02 0.35376180E+02 0.50505755E+02 0.75000000E+00 0.0000E+00 0.9000E+01
#aMCatNLO 1  0  0  1  1 0.77005461D+01 0.00000000D+00  -5  6  0 0.00000000D+00 0.00000000D+00 0.00000000D+00 0.00000000D+00 0.00000000D+00
  <mgrwgt>
 0.1707944279D+00    5    4    0
 0.192780610260687D+03 0.000000000000000D+00 0.000000000000000D+00 0.192780610260687D+03
 0.192780610260687D+03 0.000000000000000D+00 0.000000000000000D+00 -.192780610260687D+03
 0.200906952656758D+03 0.957285087516135D+02 0.124716274695538D+03 -.452847259947352D+01
 0.146567927881021D+03 -.765137043257591D+02 -.942197177970831D+02 0.168297165024874D+02
 0.380863399835945D+02 -.192148044258545D+02 -.304965568984545D+02 -.123012439030138D+02
 0.000000000000000D+00 0.000000000000000D+00 0.000000000000000D+00 0.000000000000000D+00
 0.400213479034878D+03 0.000000000000000D+00 0.000000000000000D+00 0.400213479034878D+03
 0.248583512650161D+03 0.000000000000000D+00 0.000000000000000D+00 -.248583512650161D+03
 0.168923997207941D+03 0.190104606421476D+02 0.111930389773276D+03 -.452847259947352D+01
 0.200161627885517D+03 -.148439579512794D+03 -.106206935743011D+03 0.168297165024874D+02
 0.521581163918671D+02 -.379351915334185D+02 -.336165100405884D+02 -.123012439030138D+02
 0.227553250199714D+03 0.167364310404065D+03 0.278930560103238D+02 0.151629966384717D+03
 0.192780610260687D+03 0.000000000000000D+00 0.000000000000000D+00 0.192780610260687D+03
 0.192780610260687D+03 0.000000000000000D+00 0.000000000000000D+00 -.192780610260687D+03
 0.200906952656758D+03 0.957285087516135D+02 0.124716274695538D+03 -.452847259947352D+01
 0.146567927881021D+03 -.765137043257591D+02 -.942197177970831D+02 0.168297165024874D+02
 0.000000000000000D+00 0.000000000000000D+00 0.000000000000000D+00 0.000000000000000D+00
 0.380863399835945D+02 -.192148044258545D+02 -.304965568984545D+02 -.123012439030138D+02
 0.400213479034878D+03 0.000000000000000D+00 0.000000000000000D+00 0.400213479034878D+03
 0.248583512650161D+03 0.000000000000000D+00 0.000000000000000D+00 -.248583512650161D+03
 0.168923997207941D+03 0.190104606421476D+02 0.111930389773276D+03 -.452847259947352D+01
 0.200161627885517D+03 -.148439579512794D+03 -.106206935743011D+03 0.168297165024874D+02
 0.227553250199714D+03 0.167364310404065D+03 0.278930560103238D+02 0.151629966384717D+03
 0.521581163918671D+02 -.379351915334185D+02 -.336165100405884D+02 -.123012439030138D+02
0.325031623056D-03 0.000000000000D+00 0.000000000000D+00 0.135827115846D-04 0.000000000000D+00  6 2 -1 25 24 21 21 2 0.98772164D-01 0.89056458D-02 0.36576464D+05 0.36576464D+05 0.36576464D+05 0.12059664D+01  1  2  2  1  6  1        2 0.180283970859D+00 0.100000000000D+01
0.543577831373D-04 0.171523899840D-04 -.124820701533D-05 0.135827115846D-04 0.000000000000D+00  6 2 -1 25 24 21 21 4 0.98772164D-01 0.89056458D-02 0.36576464D+05 0.36576464D+05 0.36576464D+05 0.12059664D+01  1  2  3  1  6  1        2 0.438494008803D-01 0.100000000000D+01
0.360277434265D-05 0.000000000000D+00 0.000000000000D+00 0.135827115846D-04 0.000000000000D+00  6 2 -1 25 24 21 21 4 0.98772164D-01 0.89056458D-02 0.36576464D+05 0.36576464D+05 0.36576464D+05 0.12059664D+01  1  2 15  1  6  1        2 0.290629027371D-02 0.100000000000D+01
-.236812681414D-03 0.000000000000D+00 -.186207258155D-03 0.135827115846D-04 0.000000000000D+00  6 2 -1 25 24 21 21 4 0.23566582D+00 0.89056458D-02 0.36576464D+05 0.36576464D+05 0.36576464D+05 0.12059664D+01  1  2  5  1  6  1        2 -.550426317105D-01 0.100000000000D+01
-.107941704418D-04 0.000000000000D+00 -.177019150730D-04 0.135827115846D-04 0.000000000000D+00  6 21 -1 25 24 -2 21 4 0.23566582D+00 0.89056458D-02 0.36576464D+05 0.36576464D+05 0.36576464D+05 0.12059664D+01  3  4  5  4  5  1        2 -.120260237114D-02 0.100000000000D+01
  </mgrwgt>
  </event>
  <event>
  5     66 0.42622971E-03 0.25599069E+02 0.75467711E-02 0.11966889E+00
        2 -1    0    0  502    0 0.00000000E+00 0.00000000E+00 0.62123010E+02 0.62123834E+02 0.32000000E+00 0.0000E+00 0.9000E+01
       -1 -1    0    0    0  501 0.00000000E+00 0.00000000E+00 -.34164290E+03 0.34164305E+03 0.32000000E+00 0.0000E+00 0.9000E+01
       25  1    1    2    0    0 0.19892627E+02 0.23122426E+02 -.13915795E+03 0.18952651E+03 0.12500000E+03 0.0000E+00 0.9000E+01
       24  1    1    2    0    0 0.56856263E+01 -.22123326E+02 -.16096006E+03 0.18137565E+03 0.80419002E+02 0.0000E+00 0.9000E+01
       21  1    1    2  502  501 -.25578253E+02 -.99909937E+00 0.20598120E+02 0.32864727E+02 0.75000000E+00 0.0000E+00 0.9000E+01
#aMCatNLO 1  0  0  1  5 0.61146487D+02 0.00000000D+00  -5  6  0 0.00000000D+00 0.00000000D+00 0.00000000D+00 0.00000000D+00 0.00000000D+00
  <mgrwgt>
 0.1722915091D+00    7    4    0
 0.145684871855469D+03 0.000000000000000D+00 0.000000000000000D+00 0.145684871855469D+03
 0.145684871855469D+03 0.000000000000000D+00 0.000000000000000D+00 -.145684871855469D+03
 0.129138983294205D+03 0.198933748374260D+02 0.231224549531364D+02 -.110219200132680D+02
 0.969288818971478D+02 0.568618757394157D+01 -.221233044524363D+02 -.490532247914392D+02
 0.653018785195850D+02 -.255795624113675D+02 -.999150500700151D+00 0.600751448047072D+02
 0.000000000000000D+00 -.000000000000000D+00 0.000000000000000D+00 0.000000000000000D+00
 0.243575675106170D+03 0.000000000000000D+00 0.000000000000000D+00 0.243575675106170D+03
 0.158726893683859D+03 0.000000000000000D+00 0.000000000000000D+00 -.158726893683859D+03
 0.128673228966793D+03 0.283763711566916D+02 -.225802833007656D+01 -.110219200132680D+02
 0.103821889669568D+03 0.122916468008543D+02 -.418863387833430D+02 -.490532247914392D+02
 0.652215594062875D+02 -.212848479221169D+02 -.138486113749252D+02 0.600751448047072D+02
 0.104585890747381D+03 -.193831700354290D+02 0.579929784883448D+02 0.848487814223111D+02
 0.145684871855469D+03 0.000000000000000D+00 0.000000000000000D+00 0.145684871855469D+03
 0.145684871855469D+03 0.000000000000000D+00 0.000000000000000D+00 -.145684871855469D+03
 0.129138983294205D+03 0.198933748374260D+02 0.231224549531364D+02 -.110219200132680D+02
 0.969288818971478D+02 0.568618757394157D+01 -.221233044524363D+02 -.490532247914392D+02
 0.000000000000000D+00 -.000000000000000D+00 0.000000000000000D+00 0.000000000000000D+00
 0.653018785195850D+02 -.255795624113675D+02 -.999150500700151D+00 0.600751448047072D+02
 0.243575675106170D+03 0.000000000000000D+00 0.000000000000000D+00 0.243575675106170D+03
 0.158726893683859D+03 0.000000000000000D+00 0.000000000000000D+00 -.158726893683859D+03
 0.128673228966793D+03 0.283763711566916D+02 -.225802833007656D+01 -.110219200132680D+02
 0.103821889669568D+03 0.122916468008543D+02 -.418863387833430D+02 -.490532247914392D+02
 0.104585890747381D+03 -.193831700354290D+02 0.579929784883448D+02 0.848487814223111D+02
 0.652215594062875D+02 -.212848479221169D+02 -.138486113749252D+02 0.600751448047072D+02
0.282256226044D-03 0.000000000000D+00 0.000000000000D+00 0.437206978555D-04 0.000000000000D+00  6 2 -1 25 24 21 21 2 0.95574610D-02 0.52560521D-01 0.14145179D+05 0.14145179D+05 0.14145179D+05 0.12507381D+01  1  2  2  1  6  1        2 0.122660982093D+00 0.100000000000D+01
0.254129827906D-04 0.148950702673D-04 -.108393822778D-05 0.437206978555D-04 0.000000000000D+00  6 2 -1 25 24 21 21 4 0.95574610D-02 0.52560521D-01 0.14145179D+05 0.14145179D+05 0.14145179D+05 0.12507381D+01  1  2  3  1  6  1        2 0.172763229516D-01 0.100000000000D+01
0.973485529368D-05 0.000000000000D+00 0.000000000000D+00 0.437206978555D-04 0.000000000000D+00  6 2 -1 25 24 21 21 4 0.95574610D-02 0.52560521D-01 0.14145179D+05 0.14145179D+05 0.14145179D+05 0.12507381D+01  1  2 15  1  6  1        2 0.661797575385D-02 0.100000000000D+01
-.194184720345D-03 0.000000000000D+00 0.000000000000D+00 0.437206978555D-04 0.000000000000D+00  6 2 -1 25 24 21 21 4 0.95574610D-02 0.52560521D-01 0.14145179D+05 0.14145179D+05 0.14145179D+05 0.12507381D+01  1  2  4  1  6  1        2 -.132011183756D+00 0.100000000000D+01
-.659711922423D-03 0.000000000000D+00 -.194406313683D-03 0.437206978555D-04 0.000000000000D+00  6 2 -1 25 24 21 21 4 0.17282274D-01 0.52560521D-01 0.14145179D+05 0.14145179D+05 0.14145179D+05 0.12507381D+01  1  2  5  1  6  1        2 -.221940562650D+00 0.100000000000D+01
0.681509503360D-03 0.000000000000D+00 0.164662468143D-03 0.437206978555D-04 0.000000000000D+00  6 2 -1 25 24 21 21 4 0.95574610D-02 0.52560521D-01 0.14145179D+05 0.14145179D+05 0.14145179D+05 0.12507381D+01  1  2  6  1  6  1        2 0.463305640730D+00 0.100000000000D+01
-.324102488307D-04 0.000000000000D+00 -.126173360116D-04 0.437206978555D-04 0.000000000000D+00  6 21 -1 25 24 -2 21 4 0.17282274D-01 0.52560521D-01 0.14145179D+05 0.14145179D+05 0.14145179D+05 0.12507381D+01  3  4  5  4  5  1        2 -.836176660547D-01 0.100000000000D+01
  </mgrwgt>
  </event>
  <event>
  5     66 -.42622971E-03 0.52385640E+02 0.75467711E-02 0.11849989E+00
        2 -1    0    0  502    0 0.00000000E+00 0.00000000E+00 0.13696224E+04 0.13696224E+04 0.32000000E+00 0.0000E+00 0.9000E+01
       -1 -1    0    0    0  501 0.00000000E+00 0.00000000E+00 -.19593018E+02 0.19595631E+02 0.32000000E+00 0.0000E+00 0.9000E+01
       25  1    1    2    0    0 -.62348410E+02 0.35793498E+02 0.60559612E+03 0.62252724E+03 0.12500000E+03 0.0000E+00 0.9000E+01
       24  1    1    2    0    0 0.44413709E+02 -.85009410E+02 0.60333082E+03 0.61617730E+03 0.80419002E+02 0.0000E+00 0.9000E+01
       21  1    1    2  502  501 0.17934702E+02 0.49215912E+02 0.14110240E+03 0.15051348E+03 0.75000000E+00 0.0000E+00 0.9000E+01
#aMCatNLO 1  0  0  2  5 0.49057342D+01 0.00000000D+00  -5  6  0 0.00000000D+00 0.00000000D+00 0.00000000D+00 0.00000000D+00 0.00000000D+00
  <mgrwgt>
 -.5942958053D+00   11    4    0
 0.163819646548670D+03 0.000000000000000D+00 0.000000000000000D+00 0.163819646548670D+03
 0.163819646548670D+03 0.000000000000000D+00 0.000000000000000D+00 -.163819646548670D+03
 0.144224083572047D+03 -.623490991998157D+02 0.357916077509856D+02 0.267150253002872D+01
 0.126635127371888D+03 0.444131040408573D+02 -.850110693141206D+02 0.192310637680176D+02
 0.567800821534049D+02 0.179359951589585D+02 0.492194615631349D+02 -.219025662980463D+02
 0.000000000000000D+00 0.000000000000000D+00 0.000000000000000D+00 -.000000000000000D+00
 0.164151143417731D+03 0.000000000000000D+00 0.000000000000000D+00 0.164151143417731D+03
 0.183051976453770D+03 0.000000000000000D+00 0.000000000000000D+00 -.183051976453770D+03
 0.144006588538978D+03 -.629915081338462D+02 0.337317435050450D+02 0.267150253002872D+01
 0.127666479980530D+03 0.438463162548628D+02 -.868284567033042D+02 0.192310637680176D+02
 0.560029492314044D+02 0.176846241773832D+02 0.484134483370030D+02 -.219025662980463D+02
 0.195271021205880D+02 0.146056770160016D+01 0.468326486125616D+01 -.189008330360393D+02
 0.163819646548670D+03 0.000000000000000D+00 0.000000000000000D+00 0.163819646548670D+03
 0.163819646548670D+03 0.000000000000000D+00 0.000000000000000D+00 -.163819646548670D+03
 0.144224083572047D+03 -.623490991998157D+02 0.357916077509856D+02 0.267150253002872D+01
 0.126635127371888D+03 0.444131040408573D+02 -.850110693141206D+02 0.192310637680176D+02
 0.000000000000000D+00 0.000000000000000D+00 0.000000000000000D+00 -.000000000000000D+00
 0.567800821534049D+02 0.179359951589585D+02 0.492194615631349D+02 -.219025662980463D+02
 0.164151143417731D+03 0.000000000000000D+00 0.000000000000000D+00 0.164151143417731D+03
 0.183051976453770D+03 0.000000000000000D+00 0.000000000000000D+00 -.183051976453770D+03
 0.144006588538978D+03 -.629915081338462D+02 0.337317435050450D+02 0.267150253002872D+01
 0.127666479980530D+03 0.438463162548628D+02 -.868284567033042D+02 0.192310637680176D+02
 0.195271021205880D+02 0.146056770160016D+01 0.468326486125616D+01 -.189008330360393D+02
 0.560029492314044D+02 0.176846241773832D+02 0.484134483370030D+02 -.219025662980463D+02
0.177811752364D-04 0.000000000000D+00 0.000000000000D+00 0.783924737583D-05 0.000000000000D+00  6 2 -1 25 24 21 21 2 0.21071134D+00 0.30145143D-02 0.25880984D+05 0.25880984D+05 0.25880984D+05 0.12216884D+01  1  2  2  2  6  2       -1 0.178909752025D-01 0.100000000000D+01
0.442568345395D-06 0.938338396617D-06 -.682843947988D-07 0.783924737583D-05 0.000000000000D+00  6 2 -1 25 24 21 21 4 0.21071134D+00 0.30145143D-02 0.25880984D+05 0.25880984D+05 0.25880984D+05 0.12216884D+01  1  2  3  2  6  2       -1 0.664622094308D-03 0.100000000000D+01
0.680120917785D-06 0.000000000000D+00 0.000000000000D+00 0.783924737583D-05 0.000000000000D+00  6 2 -1 25 24 21 21 4 0.21071134D+00 0.30145143D-02 0.25880984D+05 0.25880984D+05 0.25880984D+05 0.12216884D+01  1  2 15  2  6  2       -1 0.102136402990D-02 0.100000000000D+01
0.355643734641D-03 0.000000000000D+00 0.000000000000D+00 0.782134249595D-05 0.000000000000D+00  6 2 -1 25 24 21 21 4 0.21071134D+00 0.33980143D-02 0.26673351D+05 0.26673351D+05 0.26673351D+05 0.12202924D+01  1  2 12  2  6  2       -1 0.446272542366D+00 0.100000000000D+01
-.161854268958D-02 0.000000000000D+00 0.000000000000D+00 0.783924737583D-05 0.000000000000D+00  6 2 -1 25 24 21 21 4 0.21071134D+00 0.30145143D-02 0.25880984D+05 0.25880984D+05 0.25880984D+05 0.12216884D+01  1  2  4  2  6  2       -1 -.243062849674D+01 0.100000000000D+01
-.120258175205D-02 0.000000000000D+00 -.380079090883D-04 0.783924737583D-05 0.000000000000D+00  6 2 -1 25 24 21 21 4 0.21071134D+00 0.33743557D-02 0.25880984D+05 0.25880984D+05 0.25880984D+05 0.12216884D+01  1  2  5  2  6  2       -1 -.153096035504D+01 0.100000000000D+01
0.119947372533D-02 0.000000000000D+00 0.377675267771D-04 0.783924737583D-05 0.000000000000D+00  6 2 -1 25 24 21 21 4 0.21071134D+00 0.30145143D-02 0.25880984D+05 0.25880984D+05 0.25880984D+05 0.12216884D+01  1  2  6  2  6  2       -1 0.180129633692D+01 0.100000000000D+01
0.944563453231D-03 0.000000000000D+00 0.000000000000D+00 0.783924737583D-05 0.202041063715D-05  6 2 -1 25 24 21 21 4 0.21113772D+00 0.33684166D-02 0.26673351D+05 0.26673351D+05 0.26673351D+05 0.12202924D+01  1  2 11  2  6  2       -1 0.119648894530D+01 0.100000000000D+01
0.673619419853D-05 0.000000000000D+00 0.000000000000D+00 0.782134249595D-05 0.000000000000D+00  6 2 21 25 24 1 21 4 0.21071134D+00 0.33980143D-02 0.26673351D+05 0.26673351D+05 0.26673351D+05 0.12202924D+01  3  4 12  5  5  2       -1 0.158619575242D+00 0.100000000000D+01
-.214929623179D-04 0.000000000000D+00 -.684244265496D-06 0.783924737583D-05 0.000000000000D+00  6 2 21 25 24 1 21 4 0.21071134D+00 0.33743557D-02 0.25880984D+05 0.25880984D+05 0.25880984D+05 0.12216884D+01  3  4  5  5  5  2       -1 -.514418681516D+00 0.100000000000D+01
0.108970761351D-04 0.000000000000D+00 0.000000000000D+00 0.783924737583D-05 0.465176877544D-07  6 2 21 25 24 1 21 4 0.21113772D+00 0.33684166D-02 0.26673351D+05 0.26673351D+05 0.26673351D+05 0.12202924D+01  3  4 11  5  5  2       -1 0.259457366882D+00 0.100000000000D+01
  </mgrwgt>
  </event>
  <event>
  5     66 0.42622971E-03 0.38920253E+02 0.75467711E-02 0.12312227E+00
        4 -1    0    0  502    0 0.00000000E+00 0.00000000E+00 0.23660888E+02 0.23711603E+02 0.15500000E+01 0.0000E+00 0.9000E+01
       -3 -1    0    0    0  501 -.00000000E+00 -.00000000E+00 -.70926643E+03 0.70926661E+03 0.50000000E+00 0.0000E+00 0.9000E+01
       25  1    1    2    0    0 -.21500745E+02 -.80772461E+01 -.33734404E+03 0.36049068E+03 0.12500000E+03 0.0000E+00 0.9000E+01
       24  1    1    2    0    0 -.38696151E+01 0.37585308E+02 -.28170668E+03 0.29538703E+03 0.80419002E+02 0.0000E+00 0.9000E+01
       21  1    1    2  502  501 0.25370360E+02 -.29508062E+02 -.66554820E+02 0.77100503E+02 0.75000000E+00 0.0000E+00 0.9000E+01
#aMCatNLO 1  0  0  5  2 0.32438345D+00 0.00000000D+00  -5  6  0 0.00000000D+00 0.00000000D+00 0.00000000D+00 0.00000000D+00 0.00000000D+00
  <mgrwgt>
 0.1245525460D+00    9    2    0
 0.129616835581220D+03 0.000000000000000D+00 0.000000000000000D+00 0.129616835581220D+03
 0.129616835581220D+03 -.000000000000000D+00 -.000000000000000D+00 -.129616835581220D+03
 0.127093500351314D+03 -.215027303094317D+02 -.807493677680924D+01 -.431064774451032D+00
 0.901612356377354D+02 -.387102361853283D+01 0.375869467194693D+02 -.152993159914177D+02
 0.419789351733912D+02 0.253737539279646D+02 -.295120099426601D+02 0.157303807658687D+02
 0.000000000000000D+00 0.000000000000000D+00 0.000000000000000D+00 -.000000000000000D+00
 0.129616835581220D+03 0.000000000000000D+00 0.000000000000000D+00 0.129616835581220D+03
 0.129616835581220D+03 -.000000000000000D+00 -.000000000000000D+00 -.129616835581220D+03
 0.127044725225888D+03 -.209707292255277D+02 -.869370297601866D+01 -.101252337496555D+00
 0.899244483239626D+02 -.349404066429355D+01 0.371484808651339D+02 -.150656065675279D+02
 0.923490191864969D+00 -.777468360910654D+00 0.462531786964225D+00 -.185584019519983D+00
 0.413410074207243D+02 0.252422382507319D+02 -.289173096760794D+02 0.153524429245444D+02
0.134149446679D-02 0.000000000000D+00 0.000000000000D+00 0.175873254483D-04 0.000000000000D+00  6 4 -3 25 24 21 21 2 0.36440513D-02 0.10912183D+00 0.16239261D+05 0.16239261D+05 0.16239261D+05 0.12439114D+01  1  2  2  3  6  5       21 0.118704404667D+00 0.100000000000D+01
0.524746122959D-04 0.707926079296D-04 -.515169197608D-05 0.175873254483D-04 0.000000000000D+00  6 4 -3 25 24 21 21 4 0.36440513D-02 0.10912183D+00 0.16239261D+05 0.16239261D+05 0.16239261D+05 0.12439114D+01  1  2  3  3  6  5       21 0.718465771069D-02 0.100000000000D+01
0.455129924626D-04 0.000000000000D+00 0.000000000000D+00 0.175873254483D-04 0.000000000000D+00  6 4 -3 25 24 21 21 4 0.36440513D-02 0.10912183D+00 0.16239261D+05 0.16239261D+05 0.16239261D+05 0.12439114D+01  1  2 15  3  6  5       21 0.623149477292D-02 0.100000000000D+01
-.165259393520D-03 0.000000000000D+00 0.000000000000D+00 0.175873254483D-04 0.000000000000D+00  6 4 -3 25 24 21 21 4 0.36440513D-02 0.10912183D+00 0.16239261D+05 0.16239261D+05 0.16239261D+05 0.12439114D+01  1  2  4  3  6  5       21 -.226267927283D-01 0.100000000000D+01
0.103263725364D-05 0.000000000000D+00 0.000000000000D+00 0.175873254483D-04 0.457745717772D-04  6 4 -3 25 24 21 21 4 0.36440513D-02 0.10912183D+00 0.16254648D+05 0.16254648D+05 0.16254648D+05 0.12438650D+01  1  2 11  3  6  5       21 0.141376030252D-03 0.100000000000D+01
0.283734783701D-04 0.000000000000D+00 0.000000000000D+00 0.175860124697D-04 0.183573665629D-06  6 4 -3 25 24 3 -3 4 0.36440513D-02 0.10912183D+00 0.16254648D+05 0.16254648D+05 0.16254648D+05 0.12438650D+01  1  2 11  6  6  5       21 0.388454873411D-02 0.100000000000D+01
0.238712704389D-04 0.000000000000D+00 0.000000000000D+00 0.175860124697D-04 0.211303945686D-06  6 4 -3 25 24 4 -4 4 0.36440513D-02 0.10912183D+00 0.16254648D+05 0.16254648D+05 0.16254648D+05 0.12438650D+01  1  2 11  7  6  5       21 0.326816163163D-02 0.100000000000D+01
0.283574007004D-04 0.000000000000D+00 0.000000000000D+00 0.175860124697D-04 0.183284324523D-06  6 4 -3 25 24 1 -1 4 0.36440513D-02 0.10912183D+00 0.16254648D+05 0.16254648D+05 0.16254648D+05 0.12438650D+01  1  2 11  8  6  5       21 0.388234757672D-02 0.100000000000D+01
0.283574007004D-04 0.000000000000D+00 0.000000000000D+00 0.175860124697D-04 0.183284324523D-06  6 4 -3 25 24 2 -2 4 0.36440513D-02 0.10912183D+00 0.16254648D+05 0.16254648D+05 0.16254648D+05 0.12438650D+01  1  2 11  8  6  5       21 0.388234757672D-02 0.100000000000D+01
  </mgrwgt>
  </event>
  <event>
  5     66 0.42622971E-03 0.84726458E+02 0.75467711E-02 0.11464031E+00
        2 -1    0    0  502    0 0.00000000E+00 0.00000000E+00 0.77904972E+03 0.77904979E+03 0.32000000E+00 0.0000E+00 0.9000E+01
       -1 -1    0    0    0  501 0.00000000E+00 0.00000000E+00 -.85642004E+02 0.85642601E+02 0.32000000E+00 0.0000E+00 0.9000E+01
       25  1    1    2    0    0 0.21863257E+02 -.50222632E+02 0.40497692E+03 0.42735421E+03 0.12500000E+03 0.0000E+00 0.9000E+01
       24  1    1    2    0    0 0.60327414E+02 -.72744351E+02 0.25805944E+03 0.28634424E+03 0.80419002E+02 0.0000E+00 0.9000E+01
       21  1    1    2  502  501 -.82190672E+02 0.12296698E+03 0.30371359E+02 0.15099393E+03 0.75000000E+00 0.0000E+00 0.9000E+01
#aMCatNLO 1  0  0  5  1 0.68937582D+01 0.00000000D+00  -5  6  0 0.00000000D+00 0.00000000D+00 0.00000000D+00 0.00000000D+00 0.00000000D+00
  <mgrwgt>
 0.5317591120D-01   14    2    0
 0.258301502112072D+03 0.000000000000000D+00 0.000000000000000D+00 0.258301502112072D+03
 0.258301502112072D+03 -.000000000000000D+00 -.000000000000000D+00 -.258301502112072D+03
 0.171729469779713D+03 0.218634281967937D+02 -.502228883479201D+02 0.104238489936766D+03
 0.132905568436419D+03 0.603275468171873D+02 -.727445492686078D+02 0.475971828343264D+02
 0.211967966008012D+03 -.821909750139810D+02 0.122967437616528D+03 -.151835672771093D+03
 0.000000000000000D+00 0.000000000000000D+00 0.000000000000000D+00 0.000000000000000D+00
 0.258301502112072D+03 0.000000000000000D+00 0.000000000000000D+00 0.258301502112072D+03
 0.258301502112072D+03 -.000000000000000D+00 -.000000000000000D+00 -.258301502112072D+03
 0.169992718472429D+03 0.208262959642978D+02 -.486712156359485D+02 0.102322541497819D+03
 0.131361209721248D+03 0.595254929762967D+02 -.715445816854512D+02 0.461155069628630D+02
 0.208290012463390D+03 -.843991339946410D+02 0.115425390066263D+03 -.151454596500089D+03
 0.695906356707750D+01 0.404734505404654D+01 0.479040725513623D+01 0.301654803940673D+01
0.148377911624D-03 0.000000000000D+00 0.000000000000D+00 0.255236140431D-05 0.000000000000D+00  6 2 -1 25 24 21 21 2 0.11985385D+00 0.13175744D-01 0.41712251D+05 0.41712251D+05 0.41712251D+05 0.12001561D+01  1  2  2  3  6  5       21 0.352161467843D-01 0.100000000000D+01
-.127313538985D-04 0.783011751674D-05 -.569810249438D-06 0.255236140431D-05 0.000000000000D+00  6 2 -1 25 24 21 21 4 0.11985385D+00 0.13175744D-01 0.41712251D+05 0.41712251D+05 0.41712251D+05 0.12001561D+01  1  2  3  3  6  5       21 -.435233807106D-02 0.100000000000D+01
0.900209786600D-05 0.000000000000D+00 0.000000000000D+00 0.255236140431D-05 0.000000000000D+00  6 2 -1 25 24 21 21 4 0.11985385D+00 0.13175744D-01 0.41712251D+05 0.41712251D+05 0.41712251D+05 0.12001561D+01  1  2 15  3  6  5       21 0.307745535738D-02 0.100000000000D+01
0.105982268482D-03 0.000000000000D+00 0.000000000000D+00 0.255278315985D-05 0.000000000000D+00  6 2 -1 25 24 21 21 4 0.11985385D+00 0.13175744D-01 0.41618144D+05 0.41618144D+05 0.41618144D+05 0.12002552D+01  1  2 12  3  6  5       21 0.362427450079D-01 0.100000000000D+01
-.852212384900D-04 0.000000000000D+00 0.000000000000D+00 0.255236140431D-05 0.000000000000D+00  6 2 -1 25 24 21 21 4 0.11985385D+00 0.13175744D-01 0.41712251D+05 0.41712251D+05 0.41712251D+05 0.12001561D+01  1  2  4  3  6  5       21 -.291337153692D-01 0.100000000000D+01
0.280696464724D-04 0.000000000000D+00 0.000000000000D+00 0.255236140431D-05 0.293635088407D-06  6 2 -1 25 24 21 21 4 0.11985385D+00 0.13175744D-01 0.41618144D+05 0.41618144D+05 0.41618144D+05 0.12002552D+01  1  2 11  3  6  5       21 0.959897399941D-02 0.100000000000D+01
0.166233767768D-05 0.000000000000D+00 0.000000000000D+00 0.255278315985D-05 0.000000000000D+00  6 2 -1 25 24 1 -1 4 0.11985385D+00 0.13175744D-01 0.41618144D+05 0.41618144D+05 0.41618144D+05 0.12002552D+01  1  2 12  6  6  5       21 0.568469437687D-03 0.100000000000D+01
0.177996844962D-06 0.000000000000D+00 0.000000000000D+00 0.255278315985D-05 0.153327454968D-08  6 2 -1 25 24 1 -1 4 0.11985385D+00 0.13175744D-01 0.41618144D+05 0.41618144D+05 0.41618144D+05 0.12002552D+01  1  2 11  6  6  5       21 0.608695620178D-04 0.100000000000D+01
0.166233767768D-05 0.000000000000D+00 0.000000000000D+00 0.255278315985D-05 0.000000000000D+00  6 2 -1 25 24 2 -2 4 0.11985385D+00 0.13175744D-01 0.41618144D+05 0.41618144D+05 0.41618144D+05 0.12002552D+01  1  2 12  7  6  5       21 0.568469437687D-03 0.100000000000D+01
0.186964739416D-06 0.000000000000D+00 0.000000000000D+00 0.255278315985D-05 0.105278794886D-08  6 2 -1 25 24 2 -2 4 0.11985385D+00 0.13175744D-01 0.41618144D+05 0.41618144D+05 0.41618144D+05 0.12002552D+01  1  2 11  7  6  5       21 0.639363119242D-04 0.100000000000D+01
0.166233767768D-05 0.000000000000D+00 0.000000000000D+00 0.255278315985D-05 0.000000000000D+00  6 2 -1 25 24 3 -3 4 0.11985385D+00 0.13175744D-01 0.41618144D+05 0.41618144D+05 0.41618144D+05 0.12002552D+01  1  2 12  8  6  5       21 0.568469437687D-03 0.100000000000D+01
0.166233767768D-05 0.000000000000D+00 0.000000000000D+00 0.255278315985D-05 0.000000000000D+00  6 2 -1 25 24 4 -4 4 0.11985385D+00 0.13175744D-01 0.41618144D+05 0.41618144D+05 0.41618144D+05 0.12002552D+01  1  2 12  8  6  5       21 0.568469437687D-03 0.100000000000D+01
0.187092300546D-06 0.000000000000D+00 0.000000000000D+00 0.255278315985D-05 0.105091711230D-08  6 2 -1 25 24 3 -3 4 0.11985385D+00 0.13175744D-01 0.41618144D+05 0.41618144D+05 0.41618144D+05 0.12002552D+01  1  2 11  8  6  5       21 0.639799339901D-04 0.100000000000D+01
0.187092300546D-06 0.000000000000D+00 0.000000000000D+00 0.255278315985D-05 0.105091711230D-08  6 2 -1 25 24 4 -4 4 0.11985385D+00 0.13175744D-01 0.41618144D+05 0.41618144D+05 0.41618144D+05 0.12002552D+01  1  2 11  8  6  5       21 0.639799339901D-04 0.100000000000D+01
  </mgrwgt>
  </event>
  <event>
  5     66 0.42622971E-03 0.67825809E+02 0.75467711E-02 0.11412376E+00
        2 -1    0    0  502    0 0.00000000E+00 0.00000000E+00 0.14140580E+04 0.14140580E+04 0.32000000E+00 0.0000E+00 0.9000E+01
       -1 -1    0    0    0  501 0.00000000E+00 0.00000000E+00 -.30602462E+02 0.30604135E+02 0.32000000E+00 0.0000E+00 0.9000E+01
       25  1    1    2    0    0 0.99204160E+02 -.34674002E+02 0.33955113E+03 0.37678073E+03 0.12500000E+03 0.0000E+00 0.9000E+01
       24  1    1    2    0    0 -.73343409E+02 -.28027172E+02 0.29135619E+03 0.31228260E+03 0.80419002E+02 0.0000E+00 0.9000E+01
       21  1    1    2  502  501 -.25860751E+02 0.62701175E+02 0.75254822E+03 0.75559884E+03 0.75000000E+00 0.0000E+00 0.9000E+01
#aMCatNLO 1  0  0  1  1 0.76903858D+02 0.00000000D+00  -5  6  0 0.00000000D+00 0.00000000D+00 0.00000000D+00 0.00000000D+00 0.00000000D+00
  <mgrwgt>
 0.6579559011D-01    4    2    0
 0.208026177943270D+03 0.000000000000000D+00 0.000000000000000D+00 0.208026177943270D+03
 0.208026177943270D+03 0.000000000000000D+00 0.000000000000000D+00 -.208026177943270D+03
 0.179225556745739D+03 0.992043727925330D+02 -.346745187182007D+02 -.738442303861413D+02
 0.115525306340565D+03 -.733432720757373D+02 -.280275050737165D+02 -.267227216293166D+02
 0.121301492800236D+03 -.258611007167957D+02 0.627020237919172D+02 0.100566952015458D+03
 0.000000000000000D+00 0.000000000000000D+00 0.000000000000000D+00 -.000000000000000D+00
 0.235387152977903D+03 0.000000000000000D+00 0.000000000000000D+00 0.235387152977903D+03
 0.273577490481644D+03 0.000000000000000D+00 0.000000000000000D+00 -.273577490481644D+03
 0.183214832508157D+03 0.897966909669158D+02 -.665301343833214D+02 -.738442303861413D+02
 0.126290512035041D+03 -.796199629389217D+02 -.492811843001884D+02 -.267227216293166D+02
 0.113594840102757D+03 -.319581859961285D+02 0.420565120775420D+02 0.100566952015458D+03
 0.858644588135916D+02 0.217814579681344D+02 0.737548066059679D+02 -.381903375037408D+02
0.229088015711D-03 0.000000000000D+00 0.000000000000D+00 0.580461258665D-05 0.000000000000D+00  6 2 -1 25 24 21 21 2 0.21754752D+00 0.47082025D-02 0.29502165D+05 0.29502165D+05 0.29502165D+05 0.12156619D+01  1  2  2  1  6  1        2 0.112190113700D+00 0.100000000000D+01
-.325991851424D-05 0.120893067240D-04 -.879758300589D-06 0.580461258665D-05 0.000000000000D+00  6 2 -1 25 24 21 21 4 0.21754752D+00 0.47082025D-02 0.29502165D+05 0.29502165D+05 0.29502165D+05 0.12156619D+01  1  2  3  1  6  1        2 -.235930754198D-02 0.100000000000D+01
0.130523432814D-04 0.000000000000D+00 0.000000000000D+00 0.580461258665D-05 0.000000000000D+00  6 2 -1 25 24 21 21 4 0.21754752D+00 0.47082025D-02 0.29502165D+05 0.29502165D+05 0.29502165D+05 0.12156619D+01  1  2 15  1  6  1        2 0.944639929181D-02 0.100000000000D+01
-.738969824430D-04 0.000000000000D+00 0.000000000000D+00 0.580461258665D-05 0.000000000000D+00  6 2 -1 25 24 21 21 4 0.21754752D+00 0.47082025D-02 0.29502165D+05 0.29502165D+05 0.29502165D+05 0.12156619D+01  1  2  4  1  6  1        2 -.534816153367D-01 0.100000000000D+01
  </mgrwgt>
  </event>
  <event>
  5     66 0.42622971E-03 0.68124878E+02 0.75467711E-02 0.11860395E+00
        2 -1    0    0  502    0 0.00000000E+00 0.00000000E+00 0.41017064E+03 0.41017076E+03 0.32000000E+00 0.0000E+00 0.9000E+01
       -1 -1    0    0    0  501 0.00000000E+00 0.00000000E+00 -.59271198E+02 0.59272062E+02 0.32000000E+00 0.0000E+00 0.9000E+01
       25  1    1    2    0    0 -.50565281E+02 -.57142933E+01 0.15235934E+03 0.20353837E+03 0.12500000E+03 0.0000E+00 0.9000E+01
       24  1    1    2    0    0 -.29386577E+02 0.33854148E+02 0.10025573E+03 0.13611797E+03 0.80419002E+02 0.0000E+00 0.9000E+01
       21  1    1    2  502  501 0.79951858E+02 -.28139854E+02 0.98284372E+02 0.12978648E+03 0.75000000E+00 0.0000E+00 0.9000E+01
#aMCatNLO 1  0  0  1  5 0.12700818D+02 0.00000000D+00  -5  6  0 0.00000000D+00 0.00000000D+00 0.00000000D+00 0.00000000D+00 0.00000000D+00
  <mgrwgt>
 0.5000162345D-01    9    4    0
 0.155921573599054D+03 0.000000000000000D+00 0.000000000000000D+00 0.155921573599054D+03
 0.155921573599054D+03 0.000000000000000D+00 0.000000000000000D+00 -.155921573599054D+03
 0.134961995706463D+03 -.505666349519945D+02 -.571381682107402D+01 0.328651849595265D+00
 0.920977553710615D+02 -.293875010907583D+02 0.338544728995249D+02 -.224277380789197D+01
 0.847833961205843D+02 0.799541360427528D+02 -.281406560784508D+02 0.191412195829670D+01
 0.000000000000000D+00 -.000000000000000D+00 0.000000000000000D+00 0.000000000000000D+00
 0.181155268358771D+03 0.000000000000000D+00 0.000000000000000D+00 0.181155268358771D+03
 0.157657238184257D+03 0.000000000000000D+00 0.000000000000000D+00 -.157657238184257D+03
 0.135290318339636D+03 -.505231648406054D+02 -.112148133685254D+02 0.328651849595265D+00
 0.907858616032862D+02 -.293580842429168D+02 0.301318696385230D+02 -.224277380789197D+01
 0.860255009840332D+02 0.799816106707115D+02 -.316174779386559D+02 0.191412195829670D+01
 0.267108256160724D+02 -.100361587189338D+00 0.127004216686582D+02 0.234980301745130D+02
 0.155921573599054D+03 0.000000000000000D+00 0.000000000000000D+00 0.155921573599054D+03
 0.155921573599054D+03 0.000000000000000D+00 0.000000000000000D+00 -.155921573599054D+03
 0.134961995706463D+03 -.505666349519945D+02 -.571381682107402D+01 0.328651849595265D+00
 0.920977553710615D+02 -.293875010907583D+02 0.338544728995249D+02 -.224277380789197D+01
 0.000000000000000D+00 -.000000000000000D+00 0.000000000000000D+00 0.000000000000000D+00
 0.847833961205843D+02 0.799541360427528D+02 -.281406560784508D+02 0.191412195829670D+01
 0.181155268358771D+03 0.000000000000000D+00 0.000000000000000D+00 0.181155268358771D+03
 0.157657238184257D+03 0.000000000000000D+00 0.000000000000000D+00 -.157657238184257D+03
 0.135290318339636D+03 -.505231648406054D+02 -.112148133685254D+02 0.328651849595265D+00
 0.907858616032862D+02 -.293580842429168D+02 0.301318696385230D+02 -.224277380789197D+01
 0.267108256160724D+02 -.100361587189338D+00 0.127004216686582D+02 0.234980301745130D+02
 0.860255009840332D+02 0.799816106707115D+02 -.316174779386559D+02 0.191412195829670D+01
0.123915260972D-04 0.000000000000D+00 0.000000000000D+00 0.407670583507D-05 0.000000000000D+00  6 2 -1 25 24 21 21 2 0.63103251D-01 0.91187219D-02 0.24303847D+05 0.24303847D+05 0.24303847D+05 0.12246148D+01  1  2  2  1  6  1        2 0.111749577577D-01 0.100000000000D+01
-.787930770958D-06 0.653918797556D-06 -.475867229772D-07 0.407670583507D-05 0.000000000000D+00  6 2 -1 25 24 21 21 4 0.63103251D-01 0.91187219D-02 0.24303847D+05 0.24303847D+05 0.24303847D+05 0.12246148D+01  1  2  3  1  6  1        2 -.106563421344D-02 0.100000000000D+01
0.257560116130D-06 0.000000000000D+00 0.000000000000D+00 0.407670583507D-05 0.000000000000D+00  6 2 -1 25 24 21 21 4 0.63103251D-01 0.91187219D-02 0.24303847D+05 0.24303847D+05 0.24303847D+05 0.12246148D+01  1  2 15  1  6  1        2 0.348336277605D-03 0.100000000000D+01
0.144963162091D-03 0.000000000000D+00 0.000000000000D+00 0.405153297351D-05 0.000000000000D+00  6 2 -1 25 24 21 21 4 0.74649536D-01 0.91187219D-02 0.26366143D+05 0.26366143D+05 0.26366143D+05 0.12208281D+01  1  2 12  1  6  1        2 0.161635992010D+00 0.100000000000D+01
-.122872446407D-03 0.000000000000D+00 0.000000000000D+00 0.407670583507D-05 0.000000000000D+00  6 2 -1 25 24 21 21 4 0.63103251D-01 0.91187219D-02 0.24303847D+05 0.24303847D+05 0.24303847D+05 0.12246148D+01  1  2  4  1  6  1        2 -.166178410092D+00 0.100000000000D+01
-.220443686486D-03 0.000000000000D+00 -.213906450749D-04 0.407670583507D-05 0.000000000000D+00  6 2 -1 25 24 21 21 4 0.73773673D-01 0.91187219D-02 0.24303847D+05 0.24303847D+05 0.24303847D+05 0.12246148D+01  1  2  5  1  6  1        2 -.251625088664D+00 0.100000000000D+01
0.221337293044D-03 0.000000000000D+00 0.211322255923D-04 0.407670583507D-05 0.000000000000D+00  6 2 -1 25 24 21 21 4 0.63103251D-01 0.91187219D-02 0.24303847D+05 0.24303847D+05 0.24303847D+05 0.12246148D+01  1  2  6  1  6  1        2 0.299346847302D+00 0.100000000000D+01
0.362158077542D-05 0.000000000000D+00 0.000000000000D+00 0.405153297351D-05 0.000000000000D+00  6 21 -1 25 24 -2 21 4 0.74649536D-01 0.91187219D-02 0.26366143D+05 0.26366143D+05 0.26366143D+05 0.12208281D+01  3  4 12  4  5  1        2 0.814410015780D-02 0.100000000000D+01
-.503661136651D-05 0.000000000000D+00 -.504220588408D-06 0.407670583507D-05 0.000000000000D+00  6 21 -1 25 24 -2 21 4 0.73773673D-01 0.91187219D-02 0.24303847D+05 0.24303847D+05 0.24303847D+05 0.12246148D+01  3  4  5  4  5  1        2 -.117794770830D-01 0.100000000000D+01
  </mgrwgt>
  </event>
  <event>
  5     66 0.42622971E-03 0.52235465E+02 0.75467711E-02 0.10287487E+00
        2 -1    0    0  502    0 0.00000000E+00 0.00000000E+00 0.28150381E+03 0.28150399E+03 0.32000000E+00 0.0000E+00 0.9000E+01
       -1 -1    0    0    0  501 -.00000000E+00 -.00000000E+00 -.72897740E+03 0.72897747E+03 0.32000000E+00 0.0000E+00 0.9000E+01
       25  1    1    2    0    0 -.39449720E+03 -.79946267E+02 -.18536701E+03 0.46044042E+03 0.12500000E+03 0.0000E+00 0.9000E+01
       24  1    1    2    0    0 0.40166579E+03 0.13168249E+03 -.24461739E+03 0.49495511E+03 0.80419002E+02 0.0000E+00 0.9000E+01
       21  1    1    2  502  501 -.71685818E+01 -.51736223E+02 -.17489180E+02 0.55085926E+02 0.75000000E+00 0.0000E+00 0.9000E+01
#aMCatNLO 1  0  0  5  1 0.15668341D+02 0.00000000D+00  -5  6  0 0.00000000D+00 0.00000000D+00 0.00000000D+00 0.00000000D+00 0.00000000D+00
  <mgrwgt>
 0.8499631639D+00   20    2    0
 0.453001151820832D+03 0.000000000000000D+00 0.000000000000000D+00 0.453001151820832D+03
 0.453001151820832D+03 -.000000000000000D+00 -.000000000000000D+00 -.453001151820832D+03
 0.421984519923407D+03 -.394496868002761D+03 -.799438359208026D+02 0.206673483850333D+02
 0.431217609234247D+03 0.401666130931286D+03 0.131684974772726D+03 -.283689485375642D+02
 0.528001744840086D+02 -.716926292852493D+01 -.517411388519229D+02 0.770160015253094D+01
 0.000000000000000D+00 0.000000000000000D+00 0.000000000000000D+00 0.000000000000000D+00
 0.453001151820832D+03 0.000000000000000D+00 0.000000000000000D+00 0.453001151820832D+03
 0.453001151820832D+03 -.000000000000000D+00 -.000000000000000D+00 -.453001151820832D+03
 0.423665722159663D+03 -.395198810270917D+03 -.850098089119954D+02 0.214214117711012D+02
 0.428954596186516D+03 0.400952134530847D+03 0.126532006153332D+03 -.276019359671861D+02
 0.211445229247993D+02 -.311945215317480D+01 -.160520587627151D+02 -.134048975176895D+02
 0.322374623706845D+02 -.263387210675600D+01 -.254701384786217D+02 0.195854217137745D+02
0.369523188235D-01 0.000000000000D+00 0.000000000000D+00 0.492368408002D-05 0.000000000000D+00  6 2 -1 25 24 21 21 2 0.43308298D-01 0.11215039D+00 0.20430264D+06 0.20430264D+06 0.20430264D+06 0.11361016D+01  1  2  2  3  6  5       21 0.486719312440D+00 0.100000000000D+01
0.126144394591D-01 0.195002743830D-02 -.141906634051D-03 0.492368408002D-05 0.000000000000D+00  6 2 -1 25 24 21 21 4 0.43308298D-01 0.11215039D+00 0.20430264D+06 0.20430264D+06 0.20430264D+06 0.11361016D+01  1  2  3  3  6  5       21 0.214456471294D+00 0.100000000000D+01
0.365661945671D-03 0.000000000000D+00 0.000000000000D+00 0.492368408002D-05 0.000000000000D+00  6 2 -1 25 24 21 21 4 0.43308298D-01 0.11215039D+00 0.20430264D+06 0.20430264D+06 0.20430264D+06 0.11361016D+01  1  2 15  3  6  5       21 0.621657195388D-02 0.100000000000D+01
0.651045542143D-02 0.000000000000D+00 0.000000000000D+00 0.493145433427D-05 0.000000000000D+00  6 2 -1 25 24 21 21 4 0.43308298D-01 0.11215039D+00 0.19942823D+06 0.19942823D+06 0.19942823D+06 0.11369977D+01  1  2 12  3  6  5       21 0.111093904592D+00 0.100000000000D+01
0.656556894479D-02 0.000000000000D+00 0.000000000000D+00 0.493145433427D-05 0.000000000000D+00  6 2 -1 25 24 21 21 4 0.43308298D-01 0.11215039D+00 0.19942823D+06 0.19942823D+06 0.19942823D+06 0.11369977D+01  1  2 12  3  6  5       21 0.112034357465D+00 0.100000000000D+01
-.460116116373D-01 0.000000000000D+00 0.000000000000D+00 0.492368408002D-05 0.000000000000D+00  6 2 -1 25 24 21 21 4 0.43308298D-01 0.11215039D+00 0.20430264D+06 0.20430264D+06 0.20430264D+06 0.11361016D+01  1  2  4  3  6  5       21 -.782237522508D+00 0.100000000000D+01
-.124444717336D-01 0.000000000000D+00 0.000000000000D+00 0.492368408002D-05 0.000000000000D+00  6 2 -1 25 24 21 21 4 0.43308298D-01 0.11215039D+00 0.20430264D+06 0.20430264D+06 0.20430264D+06 0.11361016D+01  1  2  5  3  6  5       21 -.211566871739D+00 0.100000000000D+01
0.503691572435D-01 0.000000000000D+00 -.000000000000D+00 0.492368408002D-05 0.000000000000D+00  6 2 -1 25 24 21 21 4 0.43308298D-01 0.11215039D+00 0.20430264D+06 0.20430264D+06 0.20430264D+06 0.11361016D+01  1  2  6  3  6  5       21 0.856319597834D+00 0.100000000000D+01
0.450722938296D-03 0.000000000000D+00 0.000000000000D+00 0.493145433427D-05 0.000000000000D+00  6 2 -1 25 24 1 -1 4 0.43308298D-01 0.11215039D+00 0.19942823D+06 0.19942823D+06 0.19942823D+06 0.11369977D+01  1  2 12  6  6  5       21 0.769110113858D-02 0.100000000000D+01
0.454217756947D-03 0.000000000000D+00 0.000000000000D+00 0.493145433427D-05 0.000000000000D+00  6 2 -1 25 24 1 -1 4 0.43308298D-01 0.11215039D+00 0.19942823D+06 0.19942823D+06 0.19942823D+06 0.11369977D+01  1  2 12  6  6  5       21 0.775073645203D-02 0.100000000000D+01
-.711729336859D-04 0.000000000000D+00 0.000000000000D+00 0.492368408002D-05 0.000000000000D+00  6 2 -1 25 24 1 -1 4 0.43308298D-01 0.11215039D+00 0.20430264D+06 0.20430264D+06 0.20430264D+06 0.11361016D+01  1  2  5  6  6  5       21 -.121000193940D-02 0.100000000000D+01
0.450722938296D-03 0.000000000000D+00 0.000000000000D+00 0.493145433427D-05 0.000000000000D+00  6 2 -1 25 24 2 -2 4 0.43308298D-01 0.11215039D+00 0.19942823D+06 0.19942823D+06 0.19942823D+06 0.11369977D+01  1  2 12  7  6  5       21 0.769110113858D-02 0.100000000000D+01
0.454217756947D-03 0.000000000000D+00 0.000000000000D+00 0.493145433427D-05 0.000000000000D+00  6 2 -1 25 24 2 -2 4 0.43308298D-01 0.11215039D+00 0.19942823D+06 0.19942823D+06 0.19942823D+06 0.11369977D+01  1  2 12  7  6  5       21 0.775073645203D-02 0.100000000000D+01
-.711729336859D-04 0.000000000000D+00 0.000000000000D+00 0.492368408002D-05 0.000000000000D+00  6 2 -1 25 24 2 -2 4 0.43308298D-01 0.11215039D+00 0.20430264D+06 0.20430264D+06 0.20430264D+06 0.11361016D+01  1  2  5  7  6  5       21 -.121000193940D-02 0.100000000000D+01
0.450722938296D-03 0.000000000000D+00 0.000000000000D+00 0.493145433427D-05 0.000000000000D+00  6 2 -1 25 24 3 -3 4 0.43308298D-01 0.11215039D+00 0.19942823D+06 0.19942823D+06 0.19942823D+06 0.11369977D+01  1  2 12  8  6  5       21 0.769110113858D-02 0.100000000000D+01
0.450722938296D-03 0.000000000000D+00 0.000000000000D+00 0.493145433427D-05 0.000000000000D+00  6 2 -1 25 24 4 -4 4 0.43308298D-01 0.11215039D+00 0.19942823D+06 0.19942823D+06 0.19942823D+06 0.11369977D+01  1  2 12  8  6  5       21 0.769110113858D-02 0.100000000000D+01
0.454217756947D-03 0.000000000000D+00 0.000000000000D+00 0.493145433427D-05 0.000000000000D+00  6 2 -1 25 24 3 -3 4 0.43308298D-01 0.11215039D+00 0.19942823D+06 0.19942823D+06 0.19942823D+06 0.11369977D+01  1  2 12  8  6  5       21 0.775073645203D-02 0.100000000000D+01
0.454217756947D-03 0.000000000000D+00 0.000000000000D+00 0.493145433427D-05 0.000000000000D+00  6 2 -1 25 24 4 -4 4 0.43308298D-01 0.11215039D+00 0.19942823D+06 0.19942823D+06 0.19942823D+06 0.11369977D+01  1  2 12  8  6  5       21 0.775073645203D-02 0.100000000000D+01
-.711729336859D-04 0.000000000000D+00 0.000000000000D+00 0.492368408002D-05 0.000000000000D+00  6 2 -1 25 24 3 -3 4 0.43308298D-01 0.11215039D+00 0.20430264D+06 0.20430264D+06 0.20430264D+06 0.11361016D+01  1  2  5  8  6  5       21 -.121000193940D-02 0.100000000000D+01
-.711729336859D-04 0.000000000000D+00 0.000000000000D+00 0.492368408002D-05 0.000000000000D+00  6 2 -1 25 24 4 -4 4 0.43308298D-01 0.11215039D+00 0.20430264D+06 0.20430264D+06 0.20430264D+06 0.11361016D+01  1  2  5  8  6  5       21 -.121000193940D-02 0.100000000000D+01
  </mgrwgt>
  </event>
  <event>
  6     66 -.42622971E-03 0.23454844E+02 0.75467711E-02 0.11064538E+00
        2 -1    0    0  502    0 0.00000000E+00 0.00000000E+00 0.15512576E+04 0.15512576E+04 0.32000000E+00 0.0000E+00 0.9000E+01
       -1 -1    0    0    0  503 0.00000000E+00 0.00000000E+00 -.12881197E+03 0.12881236E+03 0.32000000E+00 0.0000E+00 0.9000E+01
       25  1    1    2    0    0 0.15807915E+03 -.16040056E+03 0.15829386E+03 0.30232318E+03 0.12500000E+03 0.0000E+00 0.9000E+01
       24  1    1    2    0    0 -.16089277E+03 0.13982552E+03 0.12845564E+04 0.13046034E+04 0.80419002E+02 0.0000E+00 0.9000E+01
       21  1    1    2  502  501 0.98436467E+01 0.26140937E+02 0.18302940E+02 0.33403684E+02 0.75000000E+00 0.0000E+00 0.9000E+01
       21  1    1    2  501  503 -.70300296E+01 -.55658932E+01 -.38707620E+02 0.39739688E+02 0.75000000E+00 0.0000E+00 0.9000E+01
#aMCatNLO 2  0  0  2  5 0.89666317D+01 0.00000000D+00  -5  6  0 0.00000000D+00 0.00000000D+00 0.00000000D+00 0.00000000D+00 0.00000000D+00
  <mgrwgt>
 -.3129093414D+00    2    2    0
 0.372704402838234D+03 0.000000000000000D+00 0.000000000000000D+00 0.372704402838234D+03
 0.372704402838234D+03 0.000000000000000D+00 0.000000000000000D+00 -.372704402838234D+03
 0.354703435778021D+03 0.154731844035756D+03 -.163052490662394D+03 -.244256973457908D+03
 0.353363854096053D+03 -.164223801566063D+03 0.137186480125874D+03 0.269460962102323D+03
 0.373415158023930D+02 0.949195753030778D+01 0.258660105365207D+02 -.252039886444149D+02
 0.000000000000000D+00 -.000000000000000D+00 -.000000000000000D+00 -.000000000000000D+00
 0.372854538635730D+03 0.000000000000000D+00 0.000000000000000D+00 0.372854538635730D+03
 0.535919394941442D+03 0.000000000000000D+00 0.000000000000000D+00 -.535919394941442D+03
 0.354970893475904D+03 0.158078229972702D+03 -.160403052779435D+03 -.244256973457908D+03
 0.352864964761541D+03 -.160893662528660D+03 0.139823054832875D+03 0.269460962102323D+03
 0.376268759510474D+02 0.984546217537921D+01 0.261458911647871D+02 -.252039886444149D+02
 0.163311199388680D+03 -.703002961942120D+01 -.556589321822694D+01 -.163064856305712D+03
-.156216729667D+00 0.000000000000D+00 0.000000000000D+00 0.932741311369D-05 0.000000000000D+00  6 2 -1 25 24 21 21 4 0.23855840D+00 0.20014884D-01 0.68199692D+05 0.68199692D+05 0.68199692D+05 0.11791568D+01  1  2 13  2  6  2       -1 -.895619283545D+01 0.100000000000D+01
0.148452507461D+00 0.000000000000D+00 0.000000000000D+00 0.935019926458D-05 0.426728241614D-06  6 2 -1 25 24 21 21 4 0.23865449D+00 0.19817213D-01 0.68199692D+05 0.68199692D+05 0.68199692D+05 0.11791568D+01  1  2  1  2  6  2       -1 0.864328349408D+01 0.100000000000D+01
  </mgrwgt>
  </event>
  <event>
  5     66 0.42622971E-03 0.46680168E+02 0.75467711E-02 0.11809749E+00
        2 -1    0    0  502    0 0.00000000E+00 0.00000000E+00 0.19816848E+03 0.19816874E+03 0.32000000E+00 0.0000E+00 0.9000E+01
       -1 -1    0    0    0  501 0.00000000E+00 0.00000000E+00 -.16679768E+03 0.16679799E+03 0.32000000E+00 0.0000E+00 0.9000E+01
       25  1    1    2    0    0 -.67339305E+02 -.59540668E+02 0.20264237E+02 0.15529106E+03 0.12500000E+03 0.0000E+00 0.9000E+01
       24  1    1    2    0    0 0.11291886E+03 0.69599163E+02 0.32237638E+02 0.15843356E+03 0.80419002E+02 0.0000E+00 0.9000E+01
       21  1    1    2  502  501 -.45579556E+02 -.10058495E+02 -.21131070E+02 0.51242110E+02 0.75000000E+00 0.0000E+00 0.9000E+01
#aMCatNLO 1  0  0  5  1 0.23922261D+02 0.00000000D+00  -5  6  0 0.00000000D+00 0.00000000D+00 0.00000000D+00 0.00000000D+00 0.00000000D+00
  <mgrwgt>
 0.3124739442D+00   14    2    0
 0.181807993511291D+03 0.000000000000000D+00 0.000000000000000D+00 0.181807993511291D+03
 0.181807993511291D+03 -.000000000000000D+00 -.000000000000000D+00 -.181807993511291D+03
 0.154118684364485D+03 -.673373885606854D+02 -.595402448923563D+02 0.694292519226395D+01
 0.156242541136247D+03 0.112920802710324D+03 0.695995911908873D+02 0.186897011120745D+02
 0.532547615218502D+02 -.455834141496390D+02 -.100593462985310D+02 -.256326263043384D+02
 0.000000000000000D+00 0.000000000000000D+00 0.000000000000000D+00 0.000000000000000D+00
 0.181807993511291D+03 0.000000000000000D+00 0.000000000000000D+00 0.181807993511291D+03
 0.181807993511291D+03 -.000000000000000D+00 -.000000000000000D+00 -.181807993511291D+03
 0.159721689845366D+03 -.778370837687820D+02 -.618573172770738D+02 0.103869953037980D+01
 0.147419882163980D+03 0.102761616216771D+03 0.673576622578212D+02 0.129769515121766D+02
 0.260604451356059D+02 -.189935546458492D+02 -.855809986373587D+01 0.156572861410715D+02
 0.304139698776310D+02 -.593097780214013D+01 0.305775488298845D+01 -.296729371836279D+02
0.542844704751D-03 0.000000000000D+00 0.000000000000D+00 0.880336063080D-05 0.000000000000D+00  6 2 -1 25 24 21 21 2 0.30487503D-01 0.25661225D-01 0.31641841D+05 0.31641841D+05 0.31641841D+05 0.12124772D+01  1  2  2  3  6  5       21 0.205009851995D+00 0.100000000000D+01
0.378072678568D-04 0.286467020934D-04 -.208466660054D-05 0.880336063080D-05 0.000000000000D+00  6 2 -1 25 24 21 21 4 0.30487503D-01 0.25661225D-01 0.31641841D+05 0.31641841D+05 0.31641841D+05 0.12124772D+01  1  2  3  3  6  5       21 0.209904418202D-01 0.100000000000D+01
0.200002655646D-04 0.000000000000D+00 0.000000000000D+00 0.880336063080D-05 0.000000000000D+00  6 2 -1 25 24 21 21 4 0.30487503D-01 0.25661225D-01 0.31641841D+05 0.31641841D+05 0.31641841D+05 0.12124772D+01  1  2 15  3  6  5       21 0.111040663481D-01 0.100000000000D+01
0.116831554796D-03 0.000000000000D+00 0.000000000000D+00 0.888693213499D-05 0.000000000000D+00  6 2 -1 25 24 21 21 4 0.30487503D-01 0.25661225D-01 0.27900909D+05 0.27900909D+05 0.27900909D+05 0.12182187D+01  1  2 12  3  6  5       21 0.659528498989D-01 0.100000000000D+01
0.922565390747D-04 0.000000000000D+00 0.000000000000D+00 0.888693213499D-05 0.000000000000D+00  6 2 -1 25 24 21 21 4 0.30487503D-01 0.25661225D-01 0.27900909D+05 0.27900909D+05 0.27900909D+05 0.12182187D+01  1  2 12  3  6  5       21 0.520799512121D-01 0.100000000000D+01
-.113779101774D-03 0.000000000000D+00 0.000000000000D+00 0.880336063080D-05 0.000000000000D+00  6 2 -1 25 24 21 21 4 0.30487503D-01 0.25661225D-01 0.31641841D+05 0.31641841D+05 0.31641841D+05 0.12124772D+01  1  2  4  3  6  5       21 -.631696959744D-01 0.100000000000D+01
0.506391957736D-05 0.000000000000D+00 0.000000000000D+00 0.888693213499D-05 0.000000000000D+00  6 2 -1 25 24 1 -1 4 0.30487503D-01 0.25661225D-01 0.27900909D+05 0.27900909D+05 0.27900909D+05 0.12182187D+01  1  2 12  6  6  5       21 0.285864489581D-02 0.100000000000D+01
0.401758266760D-05 0.000000000000D+00 0.000000000000D+00 0.888693213499D-05 0.000000000000D+00  6 2 -1 25 24 1 -1 4 0.30487503D-01 0.25661225D-01 0.27900909D+05 0.27900909D+05 0.27900909D+05 0.12182187D+01  1  2 12  6  6  5       21 0.226797483862D-02 0.100000000000D+01
0.506391957736D-05 0.000000000000D+00 0.000000000000D+00 0.888693213499D-05 0.000000000000D+00  6 2 -1 25 24 2 -2 4 0.30487503D-01 0.25661225D-01 0.27900909D+05 0.27900909D+05 0.27900909D+05 0.12182187D+01  1  2 12  7  6  5       21 0.285864489581D-02 0.100000000000D+01
0.401758266760D-05 0.000000000000D+00 0.000000000000D+00 0.888693213499D-05 0.000000000000D+00  6 2 -1 25 24 2 -2 4 0.30487503D-01 0.25661225D-01 0.27900909D+05 0.27900909D+05 0.27900909D+05 0.12182187D+01  1  2 12  7  6  5       21 0.226797483862D-02 0.100000000000D+01
0.506391957736D-05 0.000000000000D+00 0.000000000000D+00 0.888693213499D-05 0.000000000000D+00  6 2 -1 25 24 3 -3 4 0.30487503D-01 0.25661225D-01 0.27900909D+05 0.27900909D+05 0.27900909D+05 0.12182187D+01  1  2 12  8  6  5       21 0.285864489581D-02 0.100000000000D+01
0.506391957736D-05 0.000000000000D+00 0.000000000000D+00 0.888693213499D-05 0.000000000000D+00  6 2 -1 25 24 4 -4 4 0.30487503D-01 0.25661225D-01 0.27900909D+05 0.27900909D+05 0.27900909D+05 0.12182187D+01  1  2 12  8  6  5       21 0.285864489581D-02 0.100000000000D+01
0.401758266760D-05 0.000000000000D+00 0.000000000000D+00 0.888693213499D-05 0.000000000000D+00  6 2 -1 25 24 3 -3 4 0.30487503D-01 0.25661225D-01 0.27900909D+05 0.27900909D+05 0.27900909D+05 0.12182187D+01  1  2 12  8  6  5       21 0.226797483862D-02 0.100000000000D+01
0.401758266760D-05 0.000000000000D+00 0.000000000000D+00 0.888693213499D-05 0.000000000000D+00  6 2 -1 25 24 4 -4 4 0.30487503D-01 0.25661225D-01 0.27900909D+05 0.27900909D+05 0.27900909D+05 0.12182187D+01  1  2 12  8  6  5       21 0.226797483862D-02 0.100000000000D+01
  </mgrwgt>
  </event>
  <event>
  6     66 -.42622971E-03 0.13060206E+02 0.75467711E-02 0.12398966E+00
        2 -1    0    0  502    0 0.00000000E+00 0.00000000E+00 0.17053427E+03 0.17053457E+03 0.32000000E+00 0.0000E+00 0.9000E+01
       -1 -1    0    0    0  501 0.00000000E+00 0.00000000E+00 -.95718840E+02 0.95719375E+02 0.32000000E+00 0.0000E+00 0.9000E+01
       25  1    1    2    0    0 -.28310481E+02 0.14204733E+02 0.33705416E+02 0.13328283E+03 0.12500000E+03 0.0000E+00 0.9000E+01
       24  1    1    2    0    0 0.43924612E+02 -.20533153E+02 0.12634046E+02 0.94751343E+02 0.80419002E+02 0.0000E+00 0.9000E+01
       21  1    1    2  503  501 -.11544164E+02 0.12502940E+02 0.24355018E+02 0.29720711E+02 0.75000000E+00 0.0000E+00 0.9000E+01
       21  1    1    2  502  503 -.40699668E+01 -.61745203E+01 0.41209500E+01 0.84990623E+01 0.75000000E+00 0.0000E+00 0.9000E+01
#aMCatNLO 2  0  0  5  1 0.75378950D+01 0.00000000D+00  -5  6  0 0.00000000D+00 0.00000000D+00 0.00000000D+00 0.00000000D+00 0.00000000D+00
  <mgrwgt>
 -.5264705290D+00    3    2    0
 0.127763272490128D+03 0.000000000000000D+00 0.000000000000000D+00 0.127763272490128D+03
 0.127763272490128D+03 -.000000000000000D+00 -.000000000000000D+00 -.127763272490128D+03
 0.128579974505980D+03 -.262453944056433D+02 0.133677519161444D+02 -.634762358360429D+01
 0.961759378714483D+02 0.454575027669594D+02 -.211544344665797D+02 -.163920839332043D+02
 0.307706326028277D+02 -.192121083613161D+02 0.778668255043529D+01 0.227397075168086D+02
 0.000000000000000D+00 0.000000000000000D+00 -.000000000000000D+00 0.000000000000000D+00
 0.127763272490128D+03 0.000000000000000D+00 0.000000000000000D+00 0.127763272490128D+03
 0.127763272490128D+03 -.000000000000000D+00 -.000000000000000D+00 -.127763272490128D+03
 0.129022576868528D+03 -.283669063248752D+02 0.142276023568845D+02 -.383657380033870D+01
 0.949996649035311D+02 0.438830567151273D+02 -.205163102499222D+02 -.145285486019262D+02
 0.235499296922044D+02 -.112010313735715D+02 0.126716943292501D+02 0.163879299334019D+02
 0.795437351599213D+01 -.431511901668053D+01 -.638298643621232D+01 0.197719246886301D+01
-.940184729510D-04 0.000000000000D+00 0.000000000000D+00 0.588409757749D-04 0.000000000000D+00  6 2 -1 25 24 21 21 4 0.26236106D-01 0.14726040D-01 0.15309727D+05 0.15309727D+05 0.15309727D+05 0.12468119D+01  1  2 13  3  6  5       21 -.164652925555D+00 0.100000000000D+01
-.147612924387D-03 0.000000000000D+00 0.000000000000D+00 0.588409757749D-04 0.000000000000D+00  6 2 -1 25 24 21 21 4 0.26236106D-01 0.14726040D-01 0.15309727D+05 0.15309727D+05 0.15309727D+05 0.12468119D+01  1  2 13  3  6  5       21 -.258511961397D+00 0.100000000000D+01
-.587792556772D-04 0.000000000000D+00 0.000000000000D+00 0.589757281076D-04 0.000000000000D+00  6 2 -1 25 24 21 21 4 0.26236106D-01 0.14726040D-01 0.14874489D+05 0.14874489D+05 0.14874489D+05 0.12482388D+01  1  2  8  3  6  5       21 -.103305642030D+00 0.100000000000D+01
  </mgrwgt>
  </event>
  <event>
  5     66 0.42622971E-03 0.21568382E+02 0.75467711E-02 0.11899143E+00
        2 -1    0    0  502    0 0.00000000E+00 0.00000000E+00 0.94710347E+02 0.94710888E+02 0.32000000E+00 0.0000E+00 0.9000E+01
       -1 -1    0    0    0  501 -.00000000E+00 -.00000000E+00 -.34258239E+03 0.34258254E+03 0.32000000E+00 0.0000E+00 0.9000E+01
       25  1    1    2    0    0 0.39133512E+02 -.91648904E+02 -.16668911E+03 0.23095717E+03 0.12500000E+03 0.0000E+00 0.9000E+01
       24  1    1    2    0    0 -.56612583E+02 0.79014446E+02 -.11201015E+03 0.16870613E+03 0.80419002E+02 0.0000E+00 0.9000E+01
       21  1    1    2  502  501 0.17479071E+02 0.12634458E+02 0.30827216E+02 0.37630137E+02 0.75000000E+00 0.0000E+00 0.9000E+01
#aMCatNLO 1  0  0  5  2 0.97582657D+01 0.00000000D+00  -5  6  0 0.00000000D+00 0.00000000D+00 0.00000000D+00 0.00000000D+00 0.00000000D+00
  <mgrwgt>
 0.5873919866D+00   20    2    0
 0.180128421000730D+03 0.000000000000000D+00 0.000000000000000D+00 0.180128421000730D+03
 0.180128421000730D+03 -.000000000000000D+00 -.000000000000000D+00 -.180128421000730D+03
 0.165655932913712D+03 0.391330065006860D+02 -.916492690072855D+02 -.434270353830399D+02
 0.127714364989669D+03 -.566129723470163D+02 0.790141640189051D+02 -.198865863529496D+02
 0.668865440980787D+02 0.174799658463303D+02 0.126351049883804D+02 0.633136217359895D+02
 0.000000000000000D+00 0.000000000000000D+00 0.000000000000000D+00 0.000000000000000D+00
 0.180128421000730D+03 0.000000000000000D+00 0.000000000000000D+00 0.180128421000730D+03
 0.180128421000730D+03 -.000000000000000D+00 -.000000000000000D+00 -.180128421000730D+03
 0.165018956209635D+03 0.397176753022844D+02 -.912266508078812D+02 -.413093253331084D+02
 0.127473102262163D+03 -.561617734336165D+02 0.793403057111468D+02 -.182523132896140D+02
 0.140326502236088D+02 -.626191347086262D+01 0.551740421772870D+01 0.112810443966756D+02
 0.537321333060531D+02 0.227060116021948D+02 0.636894087900566D+01 0.482805942260468D+02
0.125434357719D-02 0.000000000000D+00 0.000000000000D+00 0.468904564240D-04 0.000000000000D+00  6 2 -1 25 24 21 21 2 0.14570876D-01 0.52705036D-01 0.23652493D+05 0.23652493D+05 0.23652493D+05 0.12258859D+01  1  2  2  3  6  5       21 0.316898694470D+00 0.100000000000D+01
0.231407279969D-03 0.661935291330D-04 -.481700961267D-05 0.468904564240D-04 0.000000000000D+00  6 2 -1 25 24 21 21 4 0.14570876D-01 0.52705036D-01 0.23652493D+05 0.23652493D+05 0.23652493D+05 0.12258859D+01  1  2  3  3  6  5       21 0.878579544779D-01 0.100000000000D+01
0.440302749510D-04 0.000000000000D+00 0.000000000000D+00 0.468904564240D-04 0.000000000000D+00  6 2 -1 25 24 21 21 4 0.14570876D-01 0.52705036D-01 0.23652493D+05 0.23652493D+05 0.23652493D+05 0.12258859D+01  1  2 15  3  6  5       21 0.167168893425D-01 0.100000000000D+01
0.158899270130D-03 0.000000000000D+00 0.000000000000D+00 0.466562545964D-04 0.000000000000D+00  6 2 -1 25 24 21 21 4 0.14570876D-01 0.52705036D-01 0.25257569D+05 0.25257569D+05 0.25257569D+05 0.12228207D+01  1  2 12  3  6  5       21 0.597904860406D-01 0.100000000000D+01
-.915011977818D-03 0.000000000000D+00 0.000000000000D+00 0.468904564240D-04 0.000000000000D+00  6 2 -1 25 24 21 21 4 0.14570876D-01 0.52705036D-01 0.23652493D+05 0.23652493D+05 0.23652493D+05 0.12258859D+01  1  2  4  3  6  5       21 -.347400828119D+00 0.100000000000D+01
-.236774137739D-03 0.000000000000D+00 0.000000000000D+00 0.468904564240D-04 0.000000000000D+00  6 2 -1 25 24 21 21 4 0.14570876D-01 0.52705036D-01 0.23652493D+05 0.23652493D+05 0.23652493D+05 0.12258859D+01  1  2  5  3  6  5       21 -.898955789890D-01 0.100000000000D+01
0.157068221107D-02 0.000000000000D+00 -.000000000000D+00 0.468904564240D-04 0.000000000000D+00  6 2 -1 25 24 21 21 4 0.14570876D-01 0.52705036D-01 0.23652493D+05 0.23652493D+05 0.23652493D+05 0.12258859D+01  1  2  6  3  6  5       21 0.596337877607D+00 0.100000000000D+01
0.342232122888D-10 0.000000000000D+00 0.000000000000D+00 0.468904564240D-04 0.128928578459D-05  6 2 -1 25 24 21 21 4 0.14570876D-01 0.52705036D-01 0.25257569D+05 0.25257569D+05 0.25257569D+05 0.12228207D+01  1  2 11  3  6  5       21 0.128774820360D-07 0.100000000000D+01
0.329233643472D-04 0.000000000000D+00 0.000000000000D+00 0.466562545964D-04 0.000000000000D+00  6 2 -1 25 24 1 -1 4 0.14570876D-01 0.52705036D-01 0.25257569D+05 0.25257569D+05 0.25257569D+05 0.12228207D+01  1  2 12  6  6  5       21 0.123883763267D-01 0.100000000000D+01
-.674714757114D-04 0.000000000000D+00 0.000000000000D+00 0.468904564240D-04 0.000000000000D+00  6 2 -1 25 24 1 -1 4 0.14570876D-01 0.52705036D-01 0.23652493D+05 0.23652493D+05 0.23652493D+05 0.12258859D+01  1  2  5  6  6  5       21 -.256167647034D-01 0.100000000000D+01
0.226594178664D-10 0.000000000000D+00 0.000000000000D+00 0.468904564240D-04 0.595085394520D-07  6 2 -1 25 24 1 -1 4 0.14570876D-01 0.52705036D-01 0.25257569D+05 0.25257569D+05 0.25257569D+05 0.12228207D+01  1  2 11  6  6  5       21 0.852626702768D-08 0.100000000000D+01
0.329233643472D-04 0.000000000000D+00 0.000000000000D+00 0.466562545964D-04 0.000000000000D+00  6 2 -1 25 24 2 -2 4 0.14570876D-01 0.52705036D-01 0.25257569D+05 0.25257569D+05 0.25257569D+05 0.12228207D+01  1  2 12  7  6  5       21 0.123883763267D-01 0.100000000000D+01
-.674714757114D-04 0.000000000000D+00 0.000000000000D+00 0.468904564240D-04 0.000000000000D+00  6 2 -1 25 24 2 -2 4 0.14570876D-01 0.52705036D-01 0.23652493D+05 0.23652493D+05 0.23652493D+05 0.12258859D+01  1  2  5  7  6  5       21 -.256167647034D-01 0.100000000000D+01
0.181173487638D-10 0.000000000000D+00 0.000000000000D+00 0.468904564240D-04 0.716847949739D-07  6 2 -1 25 24 2 -2 4 0.14570876D-01 0.52705036D-01 0.25257569D+05 0.25257569D+05 0.25257569D+05 0.12228207D+01  1  2 11  7  6  5       21 0.681718101960D-08 0.100000000000D+01
0.329233643472D-04 0.000000000000D+00 0.000000000000D+00 0.466562545964D-04 0.000000000000D+00  6 2 -1 25 24 3 -3 4 0.14570876D-01 0.52705036D-01 0.25257569D+05 0.25257569D+05 0.25257569D+05 0.12228207D+01  1  2 12  8  6  5       21 0.123883763267D-01 0.100000000000D+01
0.329233643472D-04 0.000000000000D+00 0.000000000000D+00 0.466562545964D-04 0.000000000000D+00  6 2 -1 25 24 4 -4 4 0.14570876D-01 0.52705036D-01 0.25257569D+05 0.25257569D+05 0.25257569D+05 0.12228207D+01  1  2 12  8  6  5       21 0.123883763267D-01 0.100000000000D+01
-.674714757114D-04 0.000000000000D+00 0.000000000000D+00 0.468904564240D-04 0.000000000000D+00  6 2 -1 25 24 3 -3 4 0.14570876D-01 0.52705036D-01 0.23652493D+05 0.23652493D+05 0.23652493D+05 0.12258859D+01  1  2  5  8  6  5       21 -.256167647034D-01 0.100000000000D+01
-.674714757114D-04 0.000000000000D+00 0.000000000000D+00 0.468904564240D-04 0.000000000000D+00  6 2 -1 25 24 4 -4 4 0.14570876D-01 0.52705036D-01 0.23652493D+05 0.23652493D+05 0.23652493D+05 0.12258859D+01  1  2  5  8  6  5       21 -.256167647034D-01 0.100000000000D+01
0.226551951923D-10 0.000000000000D+00 0.000000000000D+00 0.468904564240D-04 0.593633274653D-07  6 2 -1 25 24 3 -3 4 0.14570876D-01 0.52705036D-01 0.25257569D+05 0.25257569D+05 0.25257569D+05 0.12228207D+01  1  2 11  8  6  5       21 0.852467812337D-08 0.100000000000D+01
0.226551951923D-10 0.000000000000D+00 0.000000000000D+00 0.468904564240D-04 0.593633274653D-07  6 2 -1 25 24 4 -4 4 0.14570876D-01 0.52705036D-01 0.25257569D+05 0.25257569D+05 0.25257569D+05 0.12228207D+01  1  2 11  8  6  5       21 0.852467812337D-08 0.100000000000D+01
  </mgrwgt>
  </event>
  <event>
  5     66 -.42622971E-03 0.21895444E+02 0.75467711E-02 0.12518295E+00
        2 -1    0    0  502    0 0.00000000E+00 0.00000000E+00 0.34738655E+03 0.34738670E+03 0.32000000E+00 0.0000E+00 0.9000E+01
       -1 -1    0    0    0  501 0.00000000E+00 0.00000000E+00 -.38367002E+02 0.38368336E+02 0.32000000E+00 0.0000E+00 0.9000E+01
       25  1    1    2    0    0 0.16955592E+02 0.64792699E+00 0.15409391E+03 0.19914277E+03 0.12500000E+03 0.0000E+00 0.9000E+01
       24  1    1    2    0    0 -.90251736E+00 0.14226112E+02 0.11460553E+03 0.14072967E+03 0.80419002E+02 0.0000E+00 0.9000E+01
       21  1    1    2  502  501 -.16053075E+02 -.14874038E+02 0.40320116E+02 0.45882594E+02 0.75000000E+00 0.0000E+00 0.9000E+01
#aMCatNLO 1  0  0  5  2 0.97582657D+01 0.00000000D+00  -5  6  0 0.00000000D+00 0.00000000D+00 0.00000000D+00 0.00000000D+00 0.00000000D+00
  <mgrwgt>
 -.4834216578D-01    1    2    0
 0.115448977531671D+03 0.000000000000000D+00 0.000000000000000D+00 0.115448977531671D+03
 0.115448977531671D+03 -.000000000000000D+00 -.000000000000000D+00 -.115448977531671D+03
 0.126473538968338D+03 0.169603987819384D+02 0.652380359274490D+00 -.908159304308591D+01
 0.817327616985025D+02 -.899411269246989D+00 0.142289894623669D+02 0.312334736176854D+01
 0.226916543965006D+02 -.160609875126914D+02 -.148813698216414D+02 0.595824568131738D+01
 0.000000000000000D+00 0.000000000000000D+00 0.000000000000000D+00 0.000000000000000D+00
 0.115448977531671D+03 0.000000000000000D+00 0.000000000000000D+00 0.115448977531671D+03
 0.115448977531671D+03 -.000000000000000D+00 -.000000000000000D+00 -.115448977531671D+03
 0.126019823974376D+03 0.137251409893989D+02 -.234526020554645D+01 -.788138908581901D+01
 0.815011413196150D+02 -.299096627327221D+01 0.122910511199948D+02 0.389926469313584D+01
 0.108587258245954D+02 -.216333632842258D+01 -.932780214311121D+01 -.512093835569530D+01
 0.125182639447552D+02 -.857083838770415D+01 -.617988771337130D+00 0.910306274837849D+01
-.144609688867D-04 0.000000000000D+00 0.000000000000D+00 0.568660711505D-04 0.000000000000D+00  6 2 -1 25 24 21 21 4 0.53444199D-01 0.59027297D-02 0.13192310D+05 0.13192310D+05 0.13192310D+05 0.12542310D+01  1  2 14  3  6  5       21 -.483421657755D-01 0.100000000000D+01
  </mgrwgt>
  </event>
  <event>
  5     66 0.42622971E-03 0.53180481E+02 0.75467711E-02 0.12121178E+00
        4 -1    0    0  502    0 0.00000000E+00 0.00000000E+00 0.68718198E+03 0.68718373E+03 0.15500000E+01 0.0000E+00 0.9000E+01
       -3 -1    0    0    0  501 0.00000000E+00 0.00000000E+00 -.30462703E+02 0.30466806E+02 0.50000000E+00 0.0000E+00 0.9000E+01
       25  1    1    2    0    0 -.10070742E+02 0.32555275E+02 0.25935780E+03 0.28991849E+03 0.12500000E+03 0.0000E+00 0.9000E+01
       24  1    1    2    0    0 0.53338127E+02 -.16398705E+01 0.18322251E+03 0.20708778E+03 0.80419002E+02 0.0000E+00 0.9000E+01
       21  1    1    2  502  501 -.43267385E+02 -.30915405E+02 0.21413897E+03 0.22064426E+03 0.75000000E+00 0.0000E+00 0.9000E+01
#aMCatNLO 1  0  0  5  2 0.16257186D+02 0.00000000D+00  -5  6  0 0.00000000D+00 0.00000000D+00 0.00000000D+00 0.00000000D+00 0.00000000D+00
  <mgrwgt>
 0.9758168684D-02   20    2    0
 0.144691120725116D+03 0.000000000000000D+00 0.000000000000000D+00 0.144691120725116D+03
 0.144691120725116D+03 -.000000000000000D+00 -.000000000000000D+00 -.144691120725116D+03
 0.130398372076710D+03 -.100692789771179D+02 0.325563208342708D+02 -.147455428816004D+02
 0.977637997253654D+02 0.533392243438016D+02 -.163908665731911D+01 -.155815635833576D+02
 0.612200696481568D+02 -.432699453666838D+02 -.309172341769517D+02 0.303271064649580D+02
 0.000000000000000D+00 0.000000000000000D+00 0.000000000000000D+00 0.000000000000000D+00
 0.144691120725116D+03 0.000000000000000D+00 0.000000000000000D+00 0.144691120725116D+03
 0.144691120725116D+03 -.000000000000000D+00 -.000000000000000D+00 -.144691120725116D+03
 0.129923462945876D+03 -.130829509133699D+02 0.304029924629031D+02 -.126333158176036D+02
 0.963551532167035D+02 0.510919643676057D+02 -.324479848227640D+01 -.140065005234212D+02
 0.362265393049910D+02 -.142646763374907D+02 -.300350226202965D+02 0.143797974673140D+02
 0.268770859826621D+02 -.237443371167452D+02 0.287682863966987D+01 0.122600188737108D+02
0.865467333975D-04 0.000000000000D+00 0.000000000000D+00 0.948527239334D-05 0.000000000000D+00  6 4 -3 25 24 21 21 2 0.10572076D+00 0.46870198D-02 0.19496058D+05 0.19496058D+05 0.19496058D+05 0.12350481D+01  1  2  2  3  6  5       21 0.493138548095D-02 0.100000000000D+01
-.769712904496D-06 0.456719659803D-05 -.332362244524D-06 0.948527239334D-05 0.000000000000D+00  6 4 -3 25 24 21 21 4 0.10572076D+00 0.46870198D-02 0.19496058D+05 0.19496058D+05 0.19496058D+05 0.12350481D+01  1  2  3  3  6  5       21 -.668982513315D-04 0.100000000000D+01
0.240160860932D-05 0.000000000000D+00 0.000000000000D+00 0.948527239334D-05 0.000000000000D+00  6 4 -3 25 24 21 21 4 0.10572076D+00 0.46870198D-02 0.19496058D+05 0.19496058D+05 0.19496058D+05 0.12350481D+01  1  2 15  3  6  5       21 0.208731613317D-03 0.100000000000D+01
0.416309173248D-04 0.000000000000D+00 0.000000000000D+00 0.947189309302D-05 0.000000000000D+00  6 4 -3 25 24 21 21 4 0.10572076D+00 0.46870198D-02 0.19853908D+05 0.19853908D+05 0.19853908D+05 0.12341767D+01  1  2 12  3  6  5       21 0.361331861533D-02 0.100000000000D+01
0.462434384026D-04 0.000000000000D+00 0.000000000000D+00 0.947189309302D-05 0.000000000000D+00  6 4 -3 25 24 21 21 4 0.10572076D+00 0.46870198D-02 0.19853908D+05 0.19853908D+05 0.19853908D+05 0.12341767D+01  1  2 12  3  6  5       21 0.401365829903D-02 0.100000000000D+01
-.874210551192D-04 0.000000000000D+00 0.000000000000D+00 0.948527239334D-05 0.000000000000D+00  6 4 -3 25 24 21 21 4 0.10572076D+00 0.46870198D-02 0.19496058D+05 0.19496058D+05 0.19496058D+05 0.12350481D+01  1  2  4  3  6  5       21 -.759804815908D-02 0.100000000000D+01
-.684317554069D-04 0.000000000000D+00 0.000000000000D+00 0.948527239334D-05 0.000000000000D+00  6 4 -3 25 24 21 21 4 0.10572076D+00 0.46870198D-02 0.19496058D+05 0.19496058D+05 0.19496058D+05 0.12350481D+01  1  2  5  3  6  5       21 -.594762637539D-02 0.100000000000D+01
0.128762228700D-03 0.000000000000D+00 -.000000000000D+00 0.948527239334D-05 0.000000000000D+00  6 4 -3 25 24 21 21 4 0.10572076D+00 0.46870198D-02 0.19496058D+05 0.19496058D+05 0.19496058D+05 0.12350481D+01  1  2  6  3  6  5       21 0.111911439801D-01 0.100000000000D+01
0.117154387717D-05 0.000000000000D+00 0.000000000000D+00 0.947189309302D-05 0.000000000000D+00  6 4 -3 25 24 3 -3 4 0.10572076D+00 0.46870198D-02 0.19853908D+05 0.19853908D+05 0.19853908D+05 0.12341767D+01  1  2 12  6  6  5       21 0.101683113707D-03 0.100000000000D+01
0.129683004121D-05 0.000000000000D+00 0.000000000000D+00 0.947189309302D-05 0.000000000000D+00  6 4 -3 25 24 3 -3 4 0.10572076D+00 0.46870198D-02 0.19853908D+05 0.19853908D+05 0.19853908D+05 0.12341767D+01  1  2 12  6  6  5       21 0.112557215405D-03 0.100000000000D+01
-.415488377371D-05 0.000000000000D+00 0.000000000000D+00 0.948527239334D-05 0.000000000000D+00  6 4 -3 25 24 3 -3 4 0.10572076D+00 0.46870198D-02 0.19496058D+05 0.19496058D+05 0.19496058D+05 0.12350481D+01  1  2  5  6  6  5       21 -.361114458810D-03 0.100000000000D+01
0.117154387717D-05 0.000000000000D+00 0.000000000000D+00 0.947189309302D-05 0.000000000000D+00  6 4 -3 25 24 4 -4 4 0.10572076D+00 0.46870198D-02 0.19853908D+05 0.19853908D+05 0.19853908D+05 0.12341767D+01  1  2 12  7  6  5       21 0.101683113707D-03 0.100000000000D+01
0.129683004121D-05 0.000000000000D+00 0.000000000000D+00 0.947189309302D-05 0.000000000000D+00  6 4 -3 25 24 4 -4 4 0.10572076D+00 0.46870198D-02 0.19853908D+05 0.19853908D+05 0.19853908D+05 0.12341767D+01  1  2 12  7  6  5       21 0.112557215405D-03 0.100000000000D+01
-.415488377371D-05 0.000000000000D+00 0.000000000000D+00 0.948527239334D-05 0.000000000000D+00  6 4 -3 25 24 4 -4 4 0.10572076D+00 0.46870198D-02 0.19496058D+05 0.19496058D+05 0.19496058D+05 0.12350481D+01  1  2  5  7  6  5       21 -.361114458810D-03 0.100000000000D+01
0.117154387717D-05 0.000000000000D+00 0.000000000000D+00 0.947189309302D-05 0.000000000000D+00  6 4 -3 25 24 1 -1 4 0.10572076D+00 0.46870198D-02 0.19853908D+05 0.19853908D+05 0.19853908D+05 0.12341767D+01  1  2 12  8  6  5       21 0.101683113707D-03 0.100000000000D+01
0.117154387717D-05 0.000000000000D+00 0.000000000000D+00 0.947189309302D-05 0.000000000000D+00  6 4 -3 25 24 2 -2 4 0.10572076D+00 0.46870198D-02 0.19853908D+05 0.19853908D+05 0.19853908D+05 0.12341767D+01  1  2 12  8  6  5       21 0.101683113707D-03 0.100000000000D+01
0.129683004121D-05 0.000000000000D+00 0.000000000000D+00 0.947189309302D-05 0.000000000000D+00  6 4 -3 25 24 1 -1 4 0.10572076D+00 0.46870198D-02 0.19853908D+05 0.19853908D+05 0.19853908D+05 0.12341767D+01  1  2 12  8  6  5       21 0.112557215405D-03 0.100000000000D+01
0.129683004121D-05 0.000000000000D+00 0.000000000000D+00 0.947189309302D-05 0.000000000000D+00  6 4 -3 25 24 2 -2 4 0.10572076D+00 0.46870198D-02 0.19853908D+05 0.19853908D+05 0.19853908D+05 0.12341767D+01  1  2 12  8  6  5       21 0.112557215405D-03 0.100000000000D+01
-.415488377371D-05 0.000000000000D+00 0.000000000000D+00 0.948527239334D-05 0.000000000000D+00  6 4 -3 25 24 1 -1 4 0.10572076D+00 0.46870198D-02 0.19496058D+05 0.19496058D+05 0.19496058D+05 0.12350481D+01  1  2  5  8  6  5       21 -.361114458810D-03 0.100000000000D+01
-.415488377371D-05 0.000000000000D+00 0.000000000000D+00 0.948527239334D-05 0.000000000000D+00  6 4 -3 25 24 2 -2 4 0.10572076D+00 0.46870198D-02 0.19496058D+05 0.19496058D+05 0.19496058D+05 0.12350481D+01  1  2  5  8  6  5       21 -.361114458810D-03 0.100000000000D+01
  </mgrwgt>
  </event>
  <event>
  5     66 -.42622971E-03 0.43260100E+02 0.75467711E-02 0.11451357E+00
        4 -1    0    0  502    0 0.00000000E+00 0.00000000E+00 0.19949755E+04 0.19949761E+04 0.15500000E+01 0.0000E+00 0.9000E+01
       -3 -1    0    0    0  501 0.00000000E+00 0.00000000E+00 -.35300934E+02 0.35304475E+02 0.50000000E+00 0.0000E+00 0.9000E+01
       25  1    1    2    0    0 -.33137179E+02 0.12595065E+03 0.13969065E+04 0.14085221E+04 0.12500000E+03 0.0000E+00 0.9000E+01
       24  1    1    2    0    0 0.72057706E+02 -.14483367E+03 0.54641593E+03 0.57550560E+03 0.80419002E+02 0.0000E+00 0.9000E+01
       21  1    1    2  502  501 -.38920528E+02 0.18883015E+02 0.16352106E+02 0.46252888E+02 0.75000000E+00 0.0000E+00 0.9000E+01
#aMCatNLO 1  0  0  2  5 0.58238214D+01 0.00000000D+00  -5  6  0 0.00000000D+00 0.00000000D+00 0.00000000D+00 0.00000000D+00 0.00000000D+00
  <mgrwgt>
 -.1685138891D-01    9    4    0
 0.265384065951976D+03 0.000000000000000D+00 0.000000000000000D+00 0.265384065951976D+03
 0.265384065951976D+03 0.000000000000000D+00 0.000000000000000D+00 -.265384065951976D+03
 0.230257033569095D+03 -.331368291219974D+02 0.125950482497645D+03 0.142939595712278D+03
 0.183960675998905D+03 0.720579857938947D+02 -.144833802468589D+03 -.347149925164915D+02
 0.116550422335952D+03 -.389211566718974D+02 0.188833199709442D+02 -.108224603195786D+03
 0.000000000000000D+00 0.000000000000000D+00 -.000000000000000D+00 -.000000000000000D+00
 0.266870327082340D+03 0.000000000000000D+00 0.000000000000000D+00 0.266870327082340D+03
 0.271167097533121D+03 0.000000000000000D+00 0.000000000000000D+00 -.271167097533121D+03
 0.231691014035836D+03 -.335046200070118D+02 0.128457924631961D+03 0.142939595712278D+03
 0.182284649146772D+03 0.717663908992608D+02 -.142845832253047D+03 -.347149925164915D+02
 0.116824418525062D+03 -.391069635817986D+02 0.201500726114157D+02 -.108224603195786D+03
 0.723734290779139D+01 0.845192689549562D+00 -.576216499032978D+01 -.429677045078139D+01
 0.265384065951976D+03 0.000000000000000D+00 0.000000000000000D+00 0.265384065951976D+03
 0.265384065951976D+03 0.000000000000000D+00 0.000000000000000D+00 -.265384065951976D+03
 0.230257033569095D+03 -.331368291219974D+02 0.125950482497645D+03 0.142939595712278D+03
 0.183960675998905D+03 0.720579857938947D+02 -.144833802468589D+03 -.347149925164915D+02
 0.000000000000000D+00 0.000000000000000D+00 -.000000000000000D+00 -.000000000000000D+00
 0.116550422335952D+03 -.389211566718974D+02 0.188833199709442D+02 -.108224603195786D+03
 0.266870327082340D+03 0.000000000000000D+00 0.000000000000000D+00 0.266870327082340D+03
 0.271167097533121D+03 0.000000000000000D+00 0.000000000000000D+00 -.271167097533121D+03
 0.231691014035836D+03 -.335046200070118D+02 0.128457924631961D+03 0.142939595712278D+03
 0.182284649146772D+03 0.717663908992608D+02 -.142845832253047D+03 -.347149925164915D+02
 0.723734290779139D+01 0.845192689549562D+00 -.576216499032978D+01 -.429677045078139D+01
 0.116824418525062D+03 -.391069635817986D+02 0.201500726114157D+02 -.108224603195786D+03
0.139821340135D-02 0.000000000000D+00 0.000000000000D+00 0.873474189538D-05 0.000000000000D+00  6 4 -3 25 24 21 21 2 0.30691962D+00 0.54312316D-02 0.40891531D+05 0.40891531D+05 0.40891531D+05 0.12010293D+01  1  2  2  2  6  2       -3 0.281900723140D-02 0.100000000000D+01
0.117827479268D-03 0.737857483382D-04 -.536950761923D-05 0.873474189538D-05 0.000000000000D+00  6 4 -3 25 24 21 21 4 0.30691962D+00 0.54312316D-02 0.40891531D+05 0.40891531D+05 0.40891531D+05 0.12010293D+01  1  2  3  2  6  2       -3 0.342670345261D-03 0.100000000000D+01
0.483161990127D-04 0.000000000000D+00 0.000000000000D+00 0.873474189538D-05 0.000000000000D+00  6 4 -3 25 24 21 21 4 0.30691962D+00 0.54312316D-02 0.40891531D+05 0.40891531D+05 0.40891531D+05 0.12010293D+01  1  2 15  2  6  2       -3 0.140515002954D-03 0.100000000000D+01
-.296791437062D-02 0.000000000000D+00 0.000000000000D+00 0.873474189538D-05 0.000000000000D+00  6 4 -3 25 24 21 21 4 0.30691962D+00 0.54312316D-02 0.40891531D+05 0.40891531D+05 0.40891531D+05 0.12010293D+01  1  2  4  2  6  2       -3 -.863140116720D-02 0.100000000000D+01
-.965886177037D-01 0.000000000000D+00 -.115504910108D-01 0.873474189538D-05 0.000000000000D+00  6 4 -3 25 24 21 21 4 0.30691962D+00 0.55840276D-02 0.40891531D+05 0.40891531D+05 0.40891531D+05 0.12010293D+01  1  2  5  2  6  2       -3 -.268679945044D+00 0.100000000000D+01
0.968762353819D-01 0.000000000000D+00 0.115460469354D-01 0.873474189538D-05 0.000000000000D+00  6 4 -3 25 24 21 21 4 0.30691962D+00 0.54312316D-02 0.40891531D+05 0.40891531D+05 0.40891531D+05 0.12010293D+01  1  2  6  2  6  2       -3 0.281739142958D+00 0.100000000000D+01
0.204971055588D-02 0.000000000000D+00 0.000000000000D+00 0.873474189538D-05 0.662447040576D-06  6 4 -3 25 24 21 21 4 0.30863850D+00 0.55495845D-02 0.42252518D+05 0.42252518D+05 0.42252518D+05 0.11995916D+01  1  2 11  2  6  2       -3 0.560114761475D-02 0.100000000000D+01
-.478971089950D-03 0.000000000000D+00 -.576624880873D-04 0.873474189538D-05 0.000000000000D+00  6 4 21 25 24 3 21 4 0.30691962D+00 0.55840276D-02 0.40891531D+05 0.40891531D+05 0.40891531D+05 0.12010293D+01  3  4  5  5  5  2       -3 -.314618793313D-01 0.100000000000D+01
0.198401258248D-04 0.000000000000D+00 0.000000000000D+00 0.873474189538D-05 0.122926602956D-07  6 4 21 25 24 3 21 4 0.30863850D+00 0.55495845D-02 0.42252518D+05 0.42252518D+05 0.42252518D+05 0.11995916D+01  3  4 11  5  5  2       -3 0.127935347620D-02 0.100000000000D+01
  </mgrwgt>
  </event>
  <event>
  5     66 0.42622971E-03 0.25644432E+02 0.75467711E-02 0.11698375E+00
        2 -1    0    0  502    0 0.00000000E+00 0.00000000E+00 0.60825787E+03 0.60825796E+03 0.32000000E+00 0.0000E+00 0.9000E+01
       -1 -1    0    0    0  501 0.00000000E+00 0.00000000E+00 -.69105855E+02 0.69106596E+02 0.32000000E+00 0.0000E+00 0.9000E+01
       25  1    1    2    0    0 0.46331395E+02 0.98269959E+02 0.90548020E+02 0.18875255E+03 0.12500000E+03 0.0000E+00 0.9000E+01
       24  1    1    2    0    0 -.37483198E+02 -.74200904E+02 0.15251010E+03 0.19140875E+03 0.80419002E+02 0.0000E+00 0.9000E+01
       21  1    1    2  502  501 -.88481968E+01 -.24069054E+02 0.29609390E+03 0.29720325E+03 0.75000000E+00 0.0000E+00 0.9000E+01
#aMCatNLO 1  0  0  5  1 0.11369565D+02 0.00000000D+00  -5  6  0 0.00000000D+00 0.00000000D+00 0.00000000D+00 0.00000000D+00 0.00000000D+00
  <mgrwgt>
 0.3452851730D+00    4    2    0
 0.205023071918257D+03 0.000000000000000D+00 0.000000000000000D+00 0.205023071918257D+03
 0.205023071918257D+03 -.000000000000000D+00 -.000000000000000D+00 -.205023071918257D+03
 0.192747774788824D+03 0.463315083774697D+02 0.982702665632634D+02 -.986055309153433D+02
 0.115663368758689D+03 -.374831304197834D+02 -.742007194122150D+02 0.259019074776035D+00
 0.101635000289002D+03 -.884837795768629D+01 -.240695471510485D+02 0.983465118405673D+02
 0.000000000000000D+00 0.000000000000000D+00 0.000000000000000D+00 0.000000000000000D+00
 0.205023071918257D+03 0.000000000000000D+00 0.000000000000000D+00 0.205023071918257D+03
 0.205023071918257D+03 -.000000000000000D+00 -.000000000000000D+00 -.205023071918257D+03
 0.182117865935282D+03 0.448096944764891D+02 0.941305958100542D+02 -.816911213424651D+02
 0.118138255416937D+03 -.384322773222710D+02 -.767826091361787D+02 0.108084426561738D+02
 0.489602153259183D+02 0.369173456888622D+01 -.454320924899847D+02 0.178717305433653D+02
 0.608298071583767D+02 -.100691517231042D+02 0.280841058161091D+02 0.530109481429260D+02
0.770399327235D-03 0.000000000000D+00 0.000000000000D+00 0.337662597250D-04 0.000000000000D+00  6 2 -1 25 24 21 21 2 0.93578198D-01 0.10631734D-01 0.23550508D+05 0.23550508D+05 0.23550508D+05 0.12260885D+01  1  2  2  3  6  5       21 0.355890769257D+00 0.100000000000D+01
0.124057074463D-03 0.406550894337D-04 -.295853626738D-05 0.337662597250D-04 0.000000000000D+00  6 2 -1 25 24 21 21 4 0.93578198D-01 0.10631734D-01 0.23550508D+05 0.23550508D+05 0.23550508D+05 0.12260885D+01  1  2  3  3  6  5       21 0.861521286722D-01 0.100000000000D+01
0.275392090298D-04 0.000000000000D+00 0.000000000000D+00 0.337662597250D-04 0.000000000000D+00  6 2 -1 25 24 21 21 4 0.93578198D-01 0.10631734D-01 0.23550508D+05 0.23550508D+05 0.23550508D+05 0.12260885D+01  1  2 15  3  6  5       21 0.191247576177D-01 0.100000000000D+01
-.166868096965D-03 0.000000000000D+00 0.000000000000D+00 0.337662597250D-04 0.000000000000D+00  6 2 -1 25 24 21 21 4 0.93578198D-01 0.10631734D-01 0.23550508D+05 0.23550508D+05 0.23550508D+05 0.12260885D+01  1  2  4  3  6  5       21 -.115882482504D+00 0.100000000000D+01
  </mgrwgt>
  </event>
  <event>
  5     66 0.42622971E-03 0.33485719E+02 0.75467711E-02 0.11871657E+00
        2 -1    0    0  502    0 0.00000000E+00 0.00000000E+00 0.53666874E+02 0.53667828E+02 0.32000000E+00 0.0000E+00 0.9000E+01
       -1 -1    0    0    0  501 0.00000000E+00 0.00000000E+00 -.37208812E+03 0.37208825E+03 0.32000000E+00 0.0000E+00 0.9000E+01
       25  1    1    2    0    0 0.34954258E+02 -.21536976E+02 -.22648213E+03 0.26192517E+03 0.12500000E+03 0.0000E+00 0.9000E+01
       24  1    1    2    0    0 -.61538365E+02 0.11877040E+01 -.60898521E+02 0.11817033E+03 0.80419002E+02 0.0000E+00 0.9000E+01
       21  1    1    2  502  501 0.26584108E+02 0.20349272E+02 -.31040594E+02 0.45660581E+02 0.75000000E+00 0.0000E+00 0.9000E+01
#aMCatNLO 1  0  0  1  5 0.51371812D+02 0.00000000D+00  -5  6  0 0.00000000D+00 0.00000000D+00 0.00000000D+00 0.00000000D+00 0.00000000D+00
  <mgrwgt>
 0.1980864299D+00    4    2    0
 0.141311848230009D+03 0.000000000000000D+00 0.000000000000000D+00 0.141311848230009D+03
 0.141311848230009D+03 0.000000000000000D+00 0.000000000000000D+00 -.141311848230009D+03
 0.139406027329432D+03 0.349510306956929D+02 -.215394462230303D+02 -.460816467315172D+02
 0.109405910675847D+03 -.615408976914883D+02 0.118576541127796D+01 0.413974541265055D+02
 0.338117584547393D+02 0.265898669957955D+02 0.203536808117524D+02 0.468419260501170D+01
 0.000000000000000D+00 -.000000000000000D+00 0.000000000000000D+00 -.000000000000000D+00
 0.161272726088288D+03 0.000000000000000D+00 0.000000000000000D+00 0.161272726088288D+03
 0.181017518142094D+03 0.000000000000000D+00 0.000000000000000D+00 -.181017518142094D+03
 0.146175310304968D+03 0.373280910912550D+02 -.471732635371807D+02 -.460816467315172D+02
 0.109951090696366D+03 -.597150611547932D+02 -.185037470279194D+02 0.413974541265055D+02
 0.311282193062412D+02 0.271304003881487D+02 0.145246601197874D+02 0.468419260501170D+01
 0.550356239228063D+02 -.474343032461049D+01 0.511523504453128D+02 -.197447920538063D+02
0.429769124199D-03 0.000000000000D+00 0.000000000000D+00 0.181288970348D-04 0.000000000000D+00  6 2 -1 25 24 21 21 2 0.82565261D-02 0.57244410D-01 0.17732466D+05 0.17732466D+05 0.17732466D+05 0.12396213D+01  1  2  2  1  6  1        2 0.188781300702D+00 0.100000000000D+01
0.385707358951D-04 0.226795397691D-04 -.165042659773D-05 0.181288970348D-04 0.000000000000D+00  6 2 -1 25 24 21 21 4 0.82565261D-02 0.57244410D-01 0.17732466D+05 0.17732466D+05 0.17732466D+05 0.12396213D+01  1  2  3  1  6  1        2 0.260351312554D-01 0.100000000000D+01
0.202174050174D-04 0.000000000000D+00 0.000000000000D+00 0.181288970348D-04 0.000000000000D+00  6 2 -1 25 24 21 21 4 0.82565261D-02 0.57244410D-01 0.17732466D+05 0.17732466D+05 0.17732466D+05 0.12396213D+01  1  2 15  1  6  1        2 0.136466878595D-01 0.100000000000D+01
-.450027032517D-04 0.000000000000D+00 0.000000000000D+00 0.181288970348D-04 0.000000000000D+00  6 2 -1 25 24 21 21 4 0.82565261D-02 0.57244410D-01 0.17732466D+05 0.17732466D+05 0.17732466D+05 0.12396213D+01  1  2  4  1  6  1        2 -.303766899649D-01 0.100000000000D+01
  </mgrwgt>
  </event>
  <event>
  5     66 -.42622971E-03 0.20673665E+02 0.75467711E-02 0.11539461E+00
        2 -1    0    0  502    0 0.00000000E+00 0.00000000E+00 0.10749262E+04 0.10749262E+04 0.32000000E+00 0.0000E+00 0.9000E+01
       -1 -1    0    0    0  501 0.00000000E+00 0.00000000E+00 -.54381913E+02 0.54382855E+02 0.32000000E+00 0.0000E+00 0.9000E+01
       25  1    1    2    0    0 -.10944048E+03 -.12056906E+03 0.20330966E+03 0.28891856E+03 0.12500000E+03 0.0000E+00 0.9000E+01
       24  1    1    2    0    0 0.10065020E+03 0.10185939E+03 0.59674185E+03 0.61892960E+03 0.80419002E+02 0.0000E+00 0.9000E+01
       21  1    1    2  502  501 0.87902820E+01 0.18709665E+02 0.22049277E+03 0.22146093E+03 0.75000000E+00 0.0000E+00 0.9000E+01
#aMCatNLO 1  0  0  5  1 0.30381975D+01 0.00000000D+00  -5  6  0 0.00000000D+00 0.00000000D+00 0.00000000D+00 0.00000000D+00 0.00000000D+00
  <mgrwgt>
 -.7721613649D+00   20    2    0
 0.241779034263108D+03 0.000000000000000D+00 0.000000000000000D+00 0.241779034263108D+03
 0.241779034263108D+03 -.000000000000000D+00 -.000000000000000D+00 -.241779034263108D+03
 0.245664098524995D+03 -.109440951792134D+03 -.120570052316324D+03 -.134949582657261D+03
 0.186038916707636D+03 0.100649848866344D+03 0.101858640010378D+03 0.873938667973806D+02
 0.518550532935860D+02 0.879110292578968D+01 0.187114123059455D+02 0.475557158598808D+02
 0.000000000000000D+00 0.000000000000000D+00 0.000000000000000D+00 0.000000000000000D+00
 0.241779034263108D+03 0.000000000000000D+00 0.000000000000000D+00 0.241779034263108D+03
 0.241779034263108D+03 -.000000000000000D+00 -.000000000000000D+00 -.241779034263108D+03
 0.245484645058841D+03 -.109400719999010D+03 -.120484421005293D+03 -.134731947653045D+03
 0.186168461644355D+03 0.100680337736448D+03 0.101923534008785D+03 0.875587971884591D+02
 0.134836895768236D+02 0.253084006636101D+00 0.699044088887684D+01 0.115273400777822D+02
 0.384212722461966D+02 0.846729825592579D+01 0.115704461076308D+02 0.356458103868037D+02
0.543500351494D-03 0.000000000000D+00 0.000000000000D+00 0.295119248573D-04 0.000000000000D+00  6 2 -1 25 24 21 21 2 0.16537334D+00 0.83665243D-02 0.38061395D+05 0.38061395D+05 0.38061395D+05 0.12041974D+01  1  2  2  3  6  5       21 0.169980373441D+00 0.100000000000D+01
0.124291665744D-03 0.286813015226D-04 -.208718445667D-05 0.295119248573D-04 0.000000000000D+00  6 2 -1 25 24 21 21 4 0.16537334D+00 0.83665243D-02 0.38061395D+05 0.38061395D+05 0.38061395D+05 0.12041974D+01  1  2  3  3  6  5       21 0.563684812643D-01 0.100000000000D+01
0.710695541550D-05 0.000000000000D+00 0.000000000000D+00 0.295119248573D-04 0.000000000000D+00  6 2 -1 25 24 21 21 4 0.16537334D+00 0.83665243D-02 0.38061395D+05 0.38061395D+05 0.38061395D+05 0.12041974D+01  1  2 15  3  6  5       21 0.322313069654D-02 0.100000000000D+01
0.117131554543D-04 0.000000000000D+00 0.000000000000D+00 0.295047311237D-04 0.000000000000D+00  6 2 -1 25 24 21 21 4 0.16537334D+00 0.83665243D-02 0.38187585D+05 0.38187585D+05 0.38187585D+05 0.12040506D+01  1  2 12  3  6  5       21 0.530959502960D-02 0.100000000000D+01
0.122337237572D-04 0.000000000000D+00 0.000000000000D+00 0.295047311237D-04 0.000000000000D+00  6 2 -1 25 24 21 21 4 0.16537334D+00 0.83665243D-02 0.38187585D+05 0.38187585D+05 0.38187585D+05 0.12040506D+01  1  2 12  3  6  5       21 0.554556960402D-02 0.100000000000D+01
-.849433323582D-02 0.000000000000D+00 0.000000000000D+00 0.295119248573D-04 0.000000000000D+00  6 2 -1 25 24 21 21 4 0.16537334D+00 0.83665243D-02 0.38061395D+05 0.38061395D+05 0.38061395D+05 0.12041974D+01  1  2  4  3  6  5       21 -.385233121616D+01 0.100000000000D+01
-.135815974135D-02 0.000000000000D+00 0.000000000000D+00 0.295119248573D-04 0.000000000000D+00  6 2 -1 25 24 21 21 4 0.16537334D+00 0.83665243D-02 0.38061395D+05 0.38061395D+05 0.38061395D+05 0.12041974D+01  1  2  5  3  6  5       21 -.615949601092D+00 0.100000000000D+01
0.872862969621D-02 0.000000000000D+00 -.000000000000D+00 0.295119248573D-04 0.000000000000D+00  6 2 -1 25 24 21 21 4 0.16537334D+00 0.83665243D-02 0.38061395D+05 0.38061395D+05 0.38061395D+05 0.12041974D+01  1  2  6  3  6  5       21 0.395858882852D+01 0.100000000000D+01
0.213399221784D-05 0.000000000000D+00 0.000000000000D+00 0.295047311237D-04 0.000000000000D+00  6 2 -1 25 24 1 -1 4 0.16537334D+00 0.83665243D-02 0.38187585D+05 0.38187585D+05 0.38187585D+05 0.12040506D+01  1  2 12  6  6  5       21 0.967342618926D-03 0.100000000000D+01
0.219287229407D-05 0.000000000000D+00 0.000000000000D+00 0.295047311237D-04 0.000000000000D+00  6 2 -1 25 24 1 -1 4 0.16537334D+00 0.83665243D-02 0.38187585D+05 0.38187585D+05 0.38187585D+05 0.12040506D+01  1  2 12  6  6  5       21 0.994033066372D-03 0.100000000000D+01
-.281544650992D-03 0.000000000000D+00 0.000000000000D+00 0.295119248573D-04 0.000000000000D+00  6 2 -1 25 24 1 -1 4 0.16537334D+00 0.83665243D-02 0.38061395D+05 0.38061395D+05 0.38061395D+05 0.12041974D+01  1  2  5  6  6  5       21 -.127685507226D+00 0.100000000000D+01
0.213399221784D-05 0.000000000000D+00 0.000000000000D+00 0.295047311237D-04 0.000000000000D+00  6 2 -1 25 24 2 -2 4 0.16537334D+00 0.83665243D-02 0.38187585D+05 0.38187585D+05 0.38187585D+05 0.12040506D+01  1  2 12  7  6  5       21 0.967342618926D-03 0.100000000000D+01
0.219287229407D-05 0.000000000000D+00 0.000000000000D+00 0.295047311237D-04 0.000000000000D+00  6 2 -1 25 24 2 -2 4 0.16537334D+00 0.83665243D-02 0.38187585D+05 0.38187585D+05 0.38187585D+05 0.12040506D+01  1  2 12  7  6  5       21 0.994033066372D-03 0.100000000000D+01
-.281544650992D-03 0.000000000000D+00 0.000000000000D+00 0.295119248573D-04 0.000000000000D+00  6 2 -1 25 24 2 -2 4 0.16537334D+00 0.83665243D-02 0.38061395D+05 0.38061395D+05 0.38061395D+05 0.12041974D+01  1  2  5  7  6  5       21 -.127685507226D+00 0.100000000000D+01
0.213399221784D-05 0.000000000000D+00 0.000000000000D+00 0.295047311237D-04 0.000000000000D+00  6 2 -1 25 24 3 -3 4 0.16537334D+00 0.83665243D-02 0.38187585D+05 0.38187585D+05 0.38187585D+05 0.12040506D+01  1  2 12  8  6  5       21 0.967342618926D-03 0.100000000000D+01
0.213399221784D-05 0.000000000000D+00 0.000000000000D+00 0.295047311237D-04 0.000000000000D+00  6 2 -1 25 24 4 -4 4 0.16537334D+00 0.83665243D-02 0.38187585D+05 0.38187585D+05 0.38187585D+05 0.12040506D+01  1  2 12  8  6  5       21 0.967342618926D-03 0.100000000000D+01
0.219287229407D-05 0.000000000000D+00 0.000000000000D+00 0.295047311237D-04 0.000000000000D+00  6 2 -1 25 24 3 -3 4 0.16537334D+00 0.83665243D-02 0.38187585D+05 0.38187585D+05 0.38187585D+05 0.12040506D+01  1  2 12  8  6  5       21 0.994033066372D-03 0.100000000000D+01
0.219287229407D-05 0.000000000000D+00 0.000000000000D+00 0.295047311237D-04 0.000000000000D+00  6 2 -1 25 24 4 -4 4 0.16537334D+00 0.83665243D-02 0.38187585D+05 0.38187585D+05 0.38187585D+05 0.12040506D+01  1  2 12  8  6  5       21 0.994033066372D-03 0.100000000000D+01
-.281544650992D-03 0.000000000000D+00 0.000000000000D+00 0.295119248573D-04 0.000000000000D+00  6 2 -1 25 24 3 -3 4 0.16537334D+00 0.83665243D-02 0.38061395D+05 0.38061395D+05 0.38061395D+05 0.12041974D+01  1  2  5  8  6  5       21 -.127685507226D+00 0.100000000000D+01
-.281544650992D-03 0.000000000000D+00 0.000000000000D+00 0.295119248573D-04 0.000000000000D+00  6 2 -1 25 24 4 -4 4 0.16537334D+00 0.83665243D-02 0.38061395D+05 0.38061395D+05 0.38061395D+05 0.12041974D+01  1  2  5  8  6  5       21 -.127685507226D+00 0.100000000000D+01
  </mgrwgt>
  </event>
  <event>
  6     66 0.42622971E-03 0.79604172E+02 0.75467711E-02 0.11796186E+00
        2 -1    0    0  502    0 0.00000000E+00 0.00000000E+00 0.11420038E+04 0.11420038E+04 0.32000000E+00 0.0000E+00 0.9000E+01
       21 -1    0    0  503  501 0.00000000E+00 0.00000000E+00 -.28461696E+02 0.28471576E+02 0.75000000E+00 0.0000E+00 0.9000E+01
       25  1    1    2    0    0 -.78758267E+01 -.13978134E+02 0.56565487E+03 0.57952381E+03 0.12500000E+03 0.0000E+00 0.9000E+01
       24  1    1    2    0    0 0.71252255E+02 -.21116278E+02 0.37320105E+03 0.38893318E+03 0.80419002E+02 0.0000E+00 0.9000E+01
        1  1    1    2  503    0 0.12282260E+02 -.73847646E+01 0.31198708E+02 0.34334391E+02 0.32000000E+00 0.0000E+00 0.9000E+01
       21  1    1    2  502  501 -.75658688E+02 0.42479177E+02 0.14348748E+03 0.16768404E+03 0.75000000E+00 0.0000E+00 0.9000E+01
#aMCatNLO 2  0  0  2  5 0.14331387D+02 0.00000000D+00  -5  6  0 0.00000000D+00 0.00000000D+00 0.00000000D+00 0.00000000D+00 0.00000000D+00
  <mgrwgt>
 0.4412506917D-01    1    2    0
 0.172586083035579D+03 0.000000000000000D+00 0.000000000000000D+00 0.172586083035579D+03
 0.172586083035579D+03 0.000000000000000D+00 0.000000000000000D+00 -.172586083035579D+03
 0.133830438991827D+03 -.311736880823268D+01 -.168391445216296D+02 0.446353181263244D+02
 0.112936485091815D+03 0.752150016467777D+02 -.234988688464071D+02 0.882838607774479D+01
 0.000000000000000D+00 0.000000000000000D+00 -.000000000000000D+00 -.000000000000000D+00
 0.984052419875169D+02 -.720976328385450D+02 0.403380133680367D+02 -.534637042040692D+02
 0.177835617964944D+03 0.000000000000000D+00 0.000000000000000D+00 0.177835617964944D+03
 0.182801188813171D+03 0.000000000000000D+00 0.000000000000000D+00 -.182801188813171D+03
 0.133696403850944D+03 -.787502261355712D+01 -.139785835216768D+02 0.446353181263244D+02
 0.109854666955215D+03 0.712529200811827D+02 -.211166492758094D+02 0.882838607774479D+01
 0.151672525669849D+02 0.122822598797982D+02 -.738476464263034D+01 -.496557084822735D+01
 0.101918483404971D+03 -.756601573474238D+02 0.424799974401165D+02 -.534637042040692D+02
0.216409365132D-05 0.000000000000D+00 0.000000000000D+00 0.418610133169D-05 0.252413125950D-08  6 2 21 25 24 1 21 4 0.17569200D+00 0.43794448D-02 0.28329277D+05 0.28329277D+05 0.28329277D+05 0.12175190D+01  1  2  1  5  5  2       -1 0.441250691673D-01 0.100000000000D+01
  </mgrwgt>
  </event>
  <event>
  5     66 -.42622971E-03 0.26233720E+02 0.75467711E-02 0.12093517E+00
        2 -1    0    0  502    0 0.00000000E+00 0.00000000E+00 0.89297061E+03 0.89297067E+03 0.32000000E+00 0.0000E+00 0.9000E+01
       -1 -1    0    0    0  501 0.00000000E+00 0.00000000E+00 -.32536673E+02 0.32538246E+02 0.32000000E+00 0.0000E+00 0.9000E+01
       25  1    1    2    0    0 -.58852632E+02 -.24331436E+02 0.50333513E+03 0.52251976E+03 0.12500000E+03 0.0000E+00 0.9000E+01
       24  1    1    2    0    0 0.85078223E+02 0.23814146E+02 0.13886495E+03 0.18318327E+03 0.80419002E+02 0.0000E+00 0.9000E+01
       21  1    1    2  502  501 -.26225591E+02 0.51729011E+00 0.21823386E+03 0.21980589E+03 0.75000000E+00 0.0000E+00 0.9000E+01
#aMCatNLO 1  0  0  2  2 0.47788097D-02 0.00000000D+00  -5  6  0 0.00000000D+00 0.00000000D+00 0.00000000D+00 0.00000000D+00 0.00000000D+00
  <mgrwgt>
 -.7563739177D-01    9    4    0
 0.170455411707515D+03 0.000000000000000D+00 0.000000000000000D+00 0.170455411707515D+03
 0.170455411707515D+03 0.000000000000000D+00 0.000000000000000D+00 -.170455411707515D+03
 0.148160823003744D+03 -.588511114164494D+02 -.243314663465461D+02 0.476566459543938D+02
 0.146825351650073D+03 0.850797294140864D+02 0.238141165379273D+02 -.853510130528103D+02
 0.459246487612113D+02 -.262286179976370D+02 0.517349808618794D+00 0.376943670984165D+02
 0.000000000000000D+00 -.000000000000000D+00 0.000000000000000D+00 -.000000000000000D+00
 0.170455788650683D+03 0.000000000000000D+00 0.000000000000000D+00 0.170455788650683D+03
 0.170470558594238D+03 0.000000000000000D+00 0.000000000000000D+00 -.170470558594238D+03
 0.148160044785097D+03 -.588490494531814D+02 -.243317148092079D+02 0.476566459543938D+02
 0.146826495791535D+03 0.850817728048457D+02 0.238138703132175D+02 -.853510130528103D+02
 0.459242828718908D+02 -.262279788623488D+02 0.517272794029142D+00 0.376943670984165D+02
 0.155237963976515D-01 -.474448931548684D-02 0.571701961204386D-03 -.147699435543446D-01
 0.170455411707515D+03 0.000000000000000D+00 0.000000000000000D+00 0.170455411707515D+03
 0.170455411707515D+03 0.000000000000000D+00 0.000000000000000D+00 -.170455411707515D+03
 0.148160823003744D+03 -.588511114164494D+02 -.243314663465461D+02 0.476566459543938D+02
 0.146825351650073D+03 0.850797294140864D+02 0.238141165379273D+02 -.853510130528103D+02
 0.000000000000000D+00 -.000000000000000D+00 0.000000000000000D+00 -.000000000000000D+00
 0.459246487612113D+02 -.262286179976370D+02 0.517349808618794D+00 0.376943670984165D+02
 0.170455788650683D+03 0.000000000000000D+00 0.000000000000000D+00 0.170455788650683D+03
 0.170470558594238D+03 0.000000000000000D+00 0.000000000000000D+00 -.170470558594238D+03
 0.148160044785097D+03 -.588490494531814D+02 -.243317148092079D+02 0.476566459543938D+02
 0.146826495791535D+03 0.850817728048457D+02 0.238138703132175D+02 -.853510130528103D+02
 0.155237963976515D-01 -.474448931548684D-02 0.571701961204386D-03 -.147699435543446D-01
 0.459242828718908D+02 -.262279788623488D+02 0.517272794029142D+00 0.376943670984165D+02
0.306323317671D-05 0.000000000000D+00 0.000000000000D+00 0.239252962172D-04 0.000000000000D+00  6 2 -1 25 24 21 21 2 0.13738022D+00 0.50057674D-02 0.20447574D+05 0.20447574D+05 0.20447574D+05 0.12327693D+01  1  2  2  2  6  2       -1 0.278187362456D-02 0.100000000000D+01
0.349422680714D-06 0.161651255853D-06 -.117636219664D-07 0.239252962172D-04 0.000000000000D+00  6 2 -1 25 24 21 21 4 0.13738022D+00 0.50057674D-02 0.20447574D+05 0.20447574D+05 0.20447574D+05 0.12327693D+01  1  2  3  2  6  2       -1 0.482249774769D-03 0.100000000000D+01
0.735142400332D-07 0.000000000000D+00 0.000000000000D+00 0.239252962172D-04 0.000000000000D+00  6 2 -1 25 24 21 21 4 0.13738022D+00 0.50057674D-02 0.20447574D+05 0.20447574D+05 0.20447574D+05 0.12327693D+01  1  2 15  2  6  2       -1 0.101459429096D-03 0.100000000000D+01
-.173656765703D+00 0.000000000000D+00 0.000000000000D+00 0.239252962172D-04 0.000000000000D+00  6 2 -1 25 24 21 21 4 0.13738022D+00 0.50057674D-02 0.20447574D+05 0.20447574D+05 0.20447574D+05 0.12327693D+01  1  2  4  2  6  2       -1 -.239669434097D+03 0.100000000000D+01
-.291362266392D+00 0.000000000000D+00 -.763482285400D-02 0.239252962172D-04 0.000000000000D+00  6 2 -1 25 24 21 21 4 0.13738022D+00 0.50062215D-02 0.20447574D+05 0.20447574D+05 0.20447574D+05 0.12327693D+01  1  2  5  2  6  2       -1 -.402064654899D+03 0.100000000000D+01
0.291362957709D+00 0.000000000000D+00 0.763482282260D-02 0.239252962172D-04 0.000000000000D+00  6 2 -1 25 24 21 21 4 0.13738022D+00 0.50057674D-02 0.20447574D+05 0.20447574D+05 0.20447574D+05 0.12327693D+01  1  2  6  2  6  2       -1 0.402119634719D+03 0.100000000000D+01
0.173625415843D+00 0.000000000000D+00 0.000000000000D+00 0.239252962172D-04 0.476523112489D+01  6 2 -1 25 24 21 21 4 0.13738052D+00 0.50062123D-02 0.20448249D+05 0.20448249D+05 0.20448249D+05 0.12327677D+01  1  2 11  2  6  2       -1 0.239592878390D+03 0.100000000000D+01
-.495432229059D-05 0.000000000000D+00 -.129823100718D-06 0.239252962172D-04 0.000000000000D+00  6 2 21 25 24 1 21 4 0.13738022D+00 0.50062215D-02 0.20447574D+05 0.20447574D+05 0.20447574D+05 0.12327693D+01  3  4  5  5  5  2       -1 -.119381710499D+00 0.100000000000D+01
0.257111921201D-05 0.000000000000D+00 0.000000000000D+00 0.239252962172D-04 0.140599154855D-03  6 2 21 25 24 1 21 4 0.13738052D+00 0.50062123D-02 0.20448249D+05 0.20448249D+05 0.20448249D+05 0.12327677D+01  3  4 11  5  5  2       -1 0.619546232663D-01 0.100000000000D+01
  </mgrwgt>
  </event>
</LesHouchesEvents>
