<event>
 5    0  0.1480317E+000  0.2351752E+03  0.7546771E-02  0.1123049E+00
         21   -1    0    0  504  501  0.00000000000E+00  0.00000000000E+00  0.11782063425E+03  0.11782063425E+03  0.00000000000E+00 0. -1.
         21   -1    0    0  501  502 -0.00000000000E+00 -0.00000000000E+00 -0.84533318305E+03  0.84533318305E+03  0.00000000000E+00 0. -1.
         25    1    1    2    0    0  0.14529207298E+03  0.14001920056E+03 -0.69751433141E+03  0.73679468342E+03  0.12500000000E+03 0.  0.
         21    1    1    2  503  502 -0.20122849736E+02  0.31900988260E+01  0.21184885274E+02  0.29392263882E+02  0.00000000000E+00 0.  1.
         21    1    1    2  504  503 -0.12516922324E+03 -0.14320929939E+03 -0.51183102671E+02  0.19696687000E+03  0.00000000000E+00 0. -1.
<mgrwt>
<rscale>  4 0.23517516E+03</rscale>
<asrwt>0</asrwt>
<pdfrwt beam="1">  1       21 0.18126251E-01 0.23517516E+03</pdfrwt>
<pdfrwt beam="2">  1       21 0.13005126E+00 0.23517516E+03</pdfrwt>
<totfact> 0.11632540E+04</totfact>
</mgrwt>
</event>
<event>
 5    0  0.1480317E+000  0.3362838E+03  0.7546771E-02  0.1068390E+00
         21   -1    0    0  504  501  0.00000000000E+00  0.00000000000E+00  0.74116045544E+03  0.74116045544E+03  0.00000000000E+00 0.  1.
         21   -1    0    0  501  502 -0.00000000000E+00 -0.00000000000E+00 -0.17213783634E+03  0.17213783634E+03  0.00000000000E+00 0.  1.
         25    1    1    2    0    0  0.20537485401E+02 -0.31151242788E+03  0.11286150633E+03  0.35471749413E+03  0.12500000000E+03 0.  0.
         21    1    1    2  503  502 -0.36829669230E+02  0.29680269333E+03  0.41026968532E+03  0.50771003338E+03  0.00000000000E+00 0.  1.
         21    1    1    2  504  503  0.16292183829E+02  0.14709734548E+02  0.45891427441E+02  0.50870764266E+02  0.00000000000E+00 0. -1.
<mgrwt>
<rscale>  4 0.33628378E+03</rscale>
<asrwt>0</asrwt>
<pdfrwt beam="1">  1       21 0.11402468E+00 0.33628378E+03</pdfrwt>
<pdfrwt beam="2">  1       21 0.26482745E-01 0.33628378E+03</pdfrwt>
<totfact> 0.74766478E+03</totfact>
</mgrwt>
</event>
<event>
 5    0  0.1480317E+000  0.2668038E+03  0.7546771E-02  0.1103123E+00
         21   -1    0    0  504  501  0.00000000000E+00  0.00000000000E+00  0.44549821270E+02  0.44549821270E+02  0.00000000000E+00 0.  1.
         21   -1    0    0  501  502 -0.00000000000E+00 -0.00000000000E+00 -0.18165119865E+04  0.18165119865E+04  0.00000000000E+00 0.  1.
         25    1    1    2    0    0  0.77090915976E+02  0.21749153193E+03 -0.11081717566E+04  0.11388218552E+04  0.12500000000E+03 0.  0.
         21    1    1    2  503  502 -0.40890866817E+02 -0.23563958018E+03 -0.51138304939E+03  0.56454468197E+03  0.00000000000E+00 0.  1.
         21    1    1    2  504  503 -0.36200049159E+02  0.18148048250E+02 -0.15240735924E+03  0.15769527058E+03  0.00000000000E+00 0.  1.
<mgrwt>
<rscale>  4 0.26680379E+03</rscale>
<asrwt>0</asrwt>
<pdfrwt beam="1">  1       21 0.68538190E-02 0.26680379E+03</pdfrwt>
<pdfrwt beam="2">  1       21 0.27946337E+00 0.26680379E+03</pdfrwt>
<totfact> 0.65679214E+03</totfact>
</mgrwt>
</event>
<event>
 5    0  0.1480317E+000  0.2175813E+03  0.7546771E-02  0.1135699E+00
         21   -1    0    0  504  501  0.00000000000E+00  0.00000000000E+00  0.85934338581E+03  0.85934338581E+03  0.00000000000E+00 0.  1.
         21   -1    0    0  501  502 -0.00000000000E+00 -0.00000000000E+00 -0.97166514821E+02  0.97166514821E+02  0.00000000000E+00 0. -1.
         25    1    1    2    0    0  0.21075536019E+03 -0.42572862252E+02  0.12873817174E+03  0.28005140120E+03  0.12500000000E+03 0.  0.
         21    1    1    2  503  502 -0.17100228780E+03  0.19781505744E+02  0.58490553814E+03  0.60971106186E+03  0.00000000000E+00 0.  1.
         21    1    1    2  504  503 -0.39753072390E+02  0.22791356508E+02  0.48533161102E+02  0.66747437573E+02  0.00000000000E+00 0.  1.
<mgrwt>
<rscale>  4 0.21758134E+03</rscale>
<asrwt>0</asrwt>
<pdfrwt beam="1">  1       21 0.13220667E+00 0.21758134E+03</pdfrwt>
<pdfrwt beam="2">  1       21 0.14948695E-01 0.21758134E+03</pdfrwt>
<totfact> 0.16085470E+04</totfact>
</mgrwt>
</event>
<event>
 5    0  0.1629689E+000  0.3316878E+03  0.7546771E-02  0.1070392E+00
         21   -1    0    0  504  501  0.00000000000E+00  0.00000000000E+00  0.57286560874E+03  0.57286560874E+03  0.00000000000E+00 0.  1.
         21   -1    0    0  501  502 -0.00000000000E+00 -0.00000000000E+00 -0.24270052490E+03  0.24270052490E+03  0.00000000000E+00 0.  1.
         25    1    1    2    0    0  0.30909815223E+03  0.35100239368E+01 -0.20599215690E+02  0.33407082433E+03  0.12500000000E+03 0.  0.
         21    1    1    2  503  502 -0.32256215011E+01  0.19957848310E+02  0.86669045671E+01  0.21996262819E+02  0.00000000000E+00 0. -1.
         21    1    1    2  504  503 -0.30587253073E+03 -0.23467872247E+02  0.34209739496E+03  0.45949904649E+03  0.00000000000E+00 0.  1.
<mgrwt>
<rscale>  4 0.33168781E+03</rscale>
<asrwt>0</asrwt>
<pdfrwt beam="1">  1       21 0.88133170E-01 0.33168781E+03</pdfrwt>
<pdfrwt beam="2">  1       21 0.37338543E-01 0.33168781E+03</pdfrwt>
<totfact> 0.70469159E+03</totfact>
</mgrwt>
</event>
<event>
 5    0  0.1480317E+000  0.2035407E+03  0.7546771E-02  0.1146786E+00
         21   -1    0    0  504  501  0.00000000000E+00  0.00000000000E+00  0.18288118637E+03  0.18288118637E+03  0.00000000000E+00 0.  1.
         21   -1    0    0  501  502 -0.00000000000E+00 -0.00000000000E+00 -0.44861929325E+03  0.44861929325E+03  0.00000000000E+00 0.  1.
         25    1    1    2    0    0  0.19032404493E+03  0.81827037477E+02 -0.31570900605E+03  0.39776385286E+03  0.12500000000E+03 0.  0.
         21    1    1    2  503  502 -0.14559018471E+03 -0.51650790030E+02  0.77862666594E+02  0.17299393297E+03  0.00000000000E+00 0.  1.
         21    1    1    2  504  503 -0.44733860219E+02 -0.30176247447E+02 -0.27891767425E+02  0.60742693801E+02  0.00000000000E+00 0. -1.
<mgrwt>
<rscale>  4 0.20354065E+03</rscale>
<asrwt>0</asrwt>
<pdfrwt beam="1">  1       21 0.28135567E-01 0.20354065E+03</pdfrwt>
<pdfrwt beam="2">  1       21 0.69018353E-01 0.20354065E+03</pdfrwt>
<totfact> 0.22924240E+04</totfact>
</mgrwt>
</event>
<event>
 5    0  0.1480317E+000  0.2471998E+03  0.7546771E-02  0.1115087E+00
         21   -1    0    0  504  501  0.00000000000E+00  0.00000000000E+00  0.15711199758E+03  0.15711199758E+03  0.00000000000E+00 0. -1.
         21   -1    0    0  501  502 -0.00000000000E+00 -0.00000000000E+00 -0.35394225959E+03  0.35394225959E+03  0.00000000000E+00 0. -1.
         25    1    1    2    0    0 -0.12260363790E+03 -0.17450240539E+03 -0.80705958167E+02  0.26004075295E+03  0.12500000000E+03 0.  0.
         21    1    1    2  503  502  0.38441509515E+02  0.51935202752E+02 -0.38973207576E+01  0.64731785451E+02  0.00000000000E+00 0. -1.
         21    1    1    2  504  503  0.84162128383E+02  0.12256720264E+03 -0.11222698308E+03  0.18628171877E+03  0.00000000000E+00 0. -1.
<mgrwt>
<rscale>  4 0.24719980E+03</rscale>
<asrwt>0</asrwt>
<pdfrwt beam="1">  1       21 0.24171077E-01 0.24719980E+03</pdfrwt>
<pdfrwt beam="2">  1       21 0.54452655E-01 0.24719980E+03</pdfrwt>
<totfact> 0.50215266E+04</totfact>
</mgrwt>
</event>
<event>
 5    0  0.1480317E+000  0.3368892E+03  0.7546771E-02  0.1068129E+00
         21   -1    0    0  504  501  0.00000000000E+00  0.00000000000E+00  0.39826154283E+03  0.39826154283E+03  0.00000000000E+00 0. -1.
         21   -1    0    0  501  502 -0.00000000000E+00 -0.00000000000E+00 -0.10063239577E+04  0.10063239577E+04  0.00000000000E+00 0. -1.
         25    1    1    2    0    0 -0.20925811017E+03  0.23255181661E+03 -0.90385800872E+03  0.96460023015E+03  0.12500000000E+03 0.  0.
         21    1    1    2  503  502  0.16576051681E+02 -0.73286895321E+02  0.79876654242E+02  0.10966318620E+03  0.00000000000E+00 0. -1.
         21    1    1    2  504  503  0.19268205848E+03 -0.15926492129E+03  0.21591893961E+03  0.33032208418E+03  0.00000000000E+00 0. -1.
<mgrwt>
<rscale>  4 0.33688916E+03</rscale>
<asrwt>0</asrwt>
<pdfrwt beam="1">  1       21 0.61271008E-01 0.33688916E+03</pdfrwt>
<pdfrwt beam="2">  1       21 0.15481907E+00 0.33688916E+03</pdfrwt>
<totfact> 0.60359212E+02</totfact>
</mgrwt>
</event>
<event>
 5    0  0.1480317E+000  0.2951706E+03  0.7546771E-02  0.1087680E+00
         21   -1    0    0  504  501  0.00000000000E+00  0.00000000000E+00  0.13102836410E+03  0.13102836410E+03  0.00000000000E+00 0. -1.
         21   -1    0    0  501  502 -0.00000000000E+00 -0.00000000000E+00 -0.11564356602E+04  0.11564356602E+04  0.00000000000E+00 0. -1.
         25    1    1    2    0    0  0.14286878277E+03 -0.22602912613E+03 -0.95834816142E+03  0.10027745776E+04  0.12500000000E+03 0.  0.
         21    1    1    2  503  502 -0.14284568739E+03  0.18849354055E+03 -0.71038094429E+02  0.24694354840E+03  0.00000000000E+00 0. -1.
         21    1    1    2  504  503 -0.23095379739E-01  0.37535585579E+02  0.39789597498E+01  0.37745898305E+02  0.00000000000E+00 0. -1.
<mgrwt>
<rscale>  4 0.29517055E+03</rscale>
<asrwt>0</asrwt>
<pdfrwt beam="1">  1       21 0.20158209E-01 0.29517055E+03</pdfrwt>
<pdfrwt beam="2">  1       21 0.17791319E+00 0.29517055E+03</pdfrwt>
<totfact> 0.39623525E+03</totfact>
</mgrwt>
</event>
<event>
 5    0  0.1480317E+000  0.2577149E+03  0.7546771E-02  0.1108524E+00
         21   -1    0    0  504  501  0.00000000000E+00  0.00000000000E+00  0.13699066610E+03  0.13699066610E+03  0.00000000000E+00 0. -1.
         21   -1    0    0  501  502 -0.00000000000E+00 -0.00000000000E+00 -0.51384316653E+03  0.51384316653E+03  0.00000000000E+00 0. -1.
         25    1    1    2    0    0  0.22377470014E+03 -0.26774071402E+02 -0.31799082624E+03  0.40931055801E+03  0.12500000000E+03 0.  0.
         21    1    1    2  503  502 -0.16795610828E+03  0.41128676904E+02 -0.25107826301E+02  0.17473186692E+03  0.00000000000E+00 0. -1.
         21    1    1    2  504  503 -0.55818591854E+02 -0.14354605502E+02 -0.33753847884E+02  0.66791407700E+02  0.00000000000E+00 0. -1.
<mgrwt>
<rscale>  4 0.25771490E+03</rscale>
<asrwt>0</asrwt>
<pdfrwt beam="1">  1       21 0.21075487E-01 0.25771490E+03</pdfrwt>
<pdfrwt beam="2">  1       21 0.79052794E-01 0.25771490E+03</pdfrwt>
<totfact> 0.28609234E+04</totfact>
</mgrwt>
</event>
<event>
 5    0  0.1480317E+000  0.2856212E+03  0.7546771E-02  0.1092658E+00
         21   -1    0    0  504  501  0.00000000000E+00  0.00000000000E+00  0.20766032359E+03  0.20766032359E+03  0.00000000000E+00 0. -1.
         21   -1    0    0  501  502 -0.00000000000E+00 -0.00000000000E+00 -0.54649014051E+03  0.54649014051E+03  0.00000000000E+00 0.  1.
         25    1    1    2    0    0  0.27801600262E+03  0.12376682179E+02 -0.29533756218E+03  0.42461200596E+03  0.12500000000E+03 0.  0.
         21    1    1    2  503  502 -0.22022824760E+03  0.63797691826E+02 -0.15014102723E+02  0.22977391019E+03  0.00000000000E+00 0. -1.
         21    1    1    2  504  503 -0.57787755022E+02 -0.76174374005E+02 -0.28478152014E+02  0.99764547950E+02  0.00000000000E+00 0. -1.
<mgrwt>
<rscale>  4 0.28562124E+03</rscale>
<asrwt>0</asrwt>
<pdfrwt beam="1">  1       21 0.31947743E-01 0.28562124E+03</pdfrwt>
<pdfrwt beam="2">  1       21 0.84075405E-01 0.28562124E+03</pdfrwt>
<totfact> 0.10973256E+04</totfact>
</mgrwt>
</event>
<event>
 5    0  0.1480317E+000  0.2819251E+03  0.7546771E-02  0.1094642E+00
         21   -1    0    0  504  501  0.00000000000E+00  0.00000000000E+00  0.21276100781E+04  0.21276100781E+04  0.00000000000E+00 0.  1.
         21   -1    0    0  501  502 -0.00000000000E+00 -0.00000000000E+00 -0.88478609713E+02  0.88478609713E+02  0.00000000000E+00 0.  1.
         25    1    1    2    0    0 -0.24278344617E+03  0.89834900206E+02  0.18908264116E+03  0.34408045021E+03  0.12500000000E+03 0.  0.
         21    1    1    2  503  502  0.20478726838E+03 -0.59392801254E+02  0.17196097543E+04  0.17327789926E+04  0.00000000000E+00 0.  1.
         21    1    1    2  504  503  0.37996177795E+02 -0.30442098952E+02  0.13043907293E+03  0.13922924500E+03  0.00000000000E+00 0.  1.
<mgrwt>
<rscale>  4 0.28192510E+03</rscale>
<asrwt>0</asrwt>
<pdfrwt beam="1">  1       21 0.32732459E+00 0.28192510E+03</pdfrwt>
<pdfrwt beam="2">  1       21 0.13612095E-01 0.28192510E+03</pdfrwt>
<totfact> 0.10012199E+03</totfact>
</mgrwt>
</event>
<event>
 5    0  0.1480317E+000  0.2180727E+03  0.7546771E-02  0.1135328E+00
         21   -1    0    0  504  501  0.00000000000E+00  0.00000000000E+00  0.22436281997E+03  0.22436281997E+03  0.00000000000E+00 0.  1.
         21   -1    0    0  501  502 -0.00000000000E+00 -0.00000000000E+00 -0.85999738101E+03  0.85999738101E+03  0.00000000000E+00 0. -1.
         25    1    1    2    0    0 -0.17004052629E+03 -0.11218888013E+03 -0.77150099397E+03  0.80767500215E+03  0.12500000000E+03 0.  0.
         21    1    1    2  503  502  0.18171242344E+02  0.20398684832E+02 -0.25102784045E+02  0.37100541209E+02  0.00000000000E+00 0.  1.
         21    1    1    2  504  503  0.15186928394E+03  0.91790195296E+02  0.16096921697E+03  0.23958465763E+03  0.00000000000E+00 0.  1.
<mgrwt>
<rscale>  4 0.21807274E+03</rscale>
<asrwt>0</asrwt>
<pdfrwt beam="1">  1       21 0.34517357E-01 0.21807274E+03</pdfrwt>
<pdfrwt beam="2">  1       21 0.13230729E+00 0.21807274E+03</pdfrwt>
<totfact> 0.32735231E+03</totfact>
</mgrwt>
</event>
<event>
 5    0  0.1480317E+000  0.2848699E+03  0.7546771E-02  0.1093058E+00
         21   -1    0    0  504  501  0.00000000000E+00  0.00000000000E+00  0.61399970097E+03  0.61399970097E+03  0.00000000000E+00 0. -1.
         21   -1    0    0  501  502 -0.00000000000E+00 -0.00000000000E+00 -0.18363573258E+03  0.18363573258E+03  0.00000000000E+00 0. -1.
         25    1    1    2    0    0  0.56661472391E+02  0.27894785494E+03  0.14856235625E+03  0.34455507821E+03  0.12500000000E+03 0.  0.
         21    1    1    2  503  502 -0.78177483871E+02 -0.23137127803E+03  0.30927723286E+03  0.39407714225E+03  0.00000000000E+00 0. -1.
         21    1    1    2  504  503  0.21516011480E+02 -0.47576576904E+02 -0.27475620722E+02  0.59003213081E+02  0.00000000000E+00 0. -1.
<mgrwt>
<rscale>  4 0.28486991E+03</rscale>
<asrwt>0</asrwt>
<pdfrwt beam="1">  1       21 0.94461491E-01 0.28486991E+03</pdfrwt>
<pdfrwt beam="2">  1       21 0.28251652E-01 0.28486991E+03</pdfrwt>
<totfact> 0.10651310E+04</totfact>
</mgrwt>
</event>
<event>
 5    0  0.1480317E+000  0.2684208E+03  0.7546771E-02  0.1102187E+00
         21   -1    0    0  504  501  0.00000000000E+00  0.00000000000E+00  0.34918045055E+03  0.34918045055E+03  0.00000000000E+00 0.  1.
         21   -1    0    0  501  502 -0.00000000000E+00 -0.00000000000E+00 -0.36635178639E+03  0.36635178639E+03  0.00000000000E+00 0.  1.
         25    1    1    2    0    0  0.20598271337E+03  0.45842092680E+01 -0.12152341786E+03  0.26989411678E+03  0.12500000000E+03 0.  0.
         21    1    1    2  503  502  0.10259980696E+03 -0.34461108123E+02  0.80132326269E+02  0.13466802915E+03  0.00000000000E+00 0.  1.
         21    1    1    2  504  503 -0.30858252033E+03  0.29876898855E+02  0.24219755750E+02  0.31097009102E+03  0.00000000000E+00 0.  1.
<mgrwt>
<rscale>  4 0.26842080E+03</rscale>
<asrwt>0</asrwt>
<pdfrwt beam="1">  1       21 0.53720070E-01 0.26842080E+03</pdfrwt>
<pdfrwt beam="2">  1       21 0.56361813E-01 0.26842080E+03</pdfrwt>
<totfact> 0.92724428E+03</totfact>
</mgrwt>
</event>
<event>
 5    0  0.1480317E+000  0.2935827E+03  0.7546771E-02  0.1088493E+00
         21   -1    0    0  504  501  0.00000000000E+00  0.00000000000E+00  0.46208268257E+03  0.46208268257E+03  0.00000000000E+00 0.  1.
         21   -1    0    0  501  502 -0.00000000000E+00 -0.00000000000E+00 -0.24891710562E+04  0.24891710562E+04  0.00000000000E+00 0.  1.
         25    1    1    2    0    0  0.22732221221E+03 -0.13795662878E+03 -0.23648450440E+04  0.23830284308E+04  0.12500000000E+03 0.  0.
         21    1    1    2  503  502 -0.44870668241E+02 -0.48331393676E+02 -0.62280562527E+02  0.90709255050E+02  0.00000000000E+00 0. -1.
         21    1    1    2  504  503 -0.18245154397E+03  0.18628802246E+03  0.40003723286E+03  0.47751605301E+03  0.00000000000E+00 0.  1.
<mgrwt>
<rscale>  4 0.29358269E+03</rscale>
<asrwt>0</asrwt>
<pdfrwt beam="1">  1       21 0.71089643E-01 0.29358269E+03</pdfrwt>
<pdfrwt beam="2">  1       21 0.38294939E+00 0.29358269E+03</pdfrwt>
<totfact> 0.16891492E+01</totfact>
</mgrwt>
</event>
<event>
 5    0  0.1480317E+000  0.2477083E+03  0.7546771E-02  0.1114762E+00
         21   -1    0    0  504  501  0.00000000000E+00  0.00000000000E+00  0.16857208192E+03  0.16857208192E+03  0.00000000000E+00 0. -1.
         21   -1    0    0  501  502 -0.00000000000E+00 -0.00000000000E+00 -0.10076786618E+04  0.10076786618E+04  0.00000000000E+00 0.  1.
         25    1    1    2    0    0  0.13785460568E+03 -0.16349470088E+03 -0.91064462872E+03  0.94373356905E+03  0.12500000000E+03 0.  0.
         21    1    1    2  503  502 -0.10008138630E+03  0.14921683490E+03  0.48831066476E+02  0.18618920687E+03  0.00000000000E+00 0. -1.
         21    1    1    2  504  503 -0.37773219378E+02  0.14277865978E+02  0.22706982318E+02  0.46327967849E+02  0.00000000000E+00 0.  1.
<mgrwt>
<rscale>  4 0.24770832E+03</rscale>
<asrwt>0</asrwt>
<pdfrwt beam="1">  1       21 0.25934167E-01 0.24770832E+03</pdfrwt>
<pdfrwt beam="2">  1       21 0.15502748E+00 0.24770832E+03</pdfrwt>
<totfact> 0.37016717E+03</totfact>
</mgrwt>
</event>
<event>
 5    0  0.1480317E+000  0.2825771E+03  0.7546771E-02  0.1094290E+00
         21   -1    0    0  504  501  0.00000000000E+00  0.00000000000E+00  0.56854759267E+03  0.56854759267E+03  0.00000000000E+00 0.  1.
         21   -1    0    0  501  502 -0.00000000000E+00 -0.00000000000E+00 -0.42817946762E+03  0.42817946762E+03  0.00000000000E+00 0. -1.
         25    1    1    2    0    0  0.12512036566E+03 -0.22038533298E+03 -0.33939207905E+03  0.44162969128E+03  0.12500000000E+03 0.  0.
         21    1    1    2  503  502 -0.60431243391E+02  0.20360435397E+03  0.36639812901E+03  0.42350236962E+03  0.00000000000E+00 0.  1.
         21    1    1    2  504  503 -0.64689122269E+02  0.16780979013E+02  0.11336207509E+03  0.13159499940E+03  0.00000000000E+00 0.  1.
<mgrwt>
<rscale>  4 0.28257707E+03</rscale>
<asrwt>0</asrwt>
<pdfrwt beam="1">  1       21 0.87468861E-01 0.28257707E+03</pdfrwt>
<pdfrwt beam="2">  1       21 0.65873764E-01 0.28257707E+03</pdfrwt>
<totfact> 0.22212319E+03</totfact>
</mgrwt>
</event>
<event>
 5    0  0.1480317E+000  0.2503583E+03  0.7546771E-02  0.1113079E+00
         21   -1    0    0  504  501  0.00000000000E+00  0.00000000000E+00  0.44821660870E+02  0.44821660870E+02  0.00000000000E+00 0. -1.
         21   -1    0    0  501  502 -0.00000000000E+00 -0.00000000000E+00 -0.12649141893E+04  0.12649141893E+04  0.00000000000E+00 0. -1.
         25    1    1    2    0    0  0.21689427618E+03  0.33389235178E+01 -0.72828431294E+03  0.77011513160E+03  0.12500000000E+03 0.  0.
         21    1    1    2  503  502 -0.19044792631E+03  0.21855738143E+01 -0.38619071030E+03  0.43060243159E+03  0.00000000000E+00 0. -1.
         21    1    1    2  504  503 -0.26446349873E+02 -0.55244973321E+01 -0.10561750518E+03  0.10901828697E+03  0.00000000000E+00 0. -1.
<mgrwt>
<rscale>  4 0.25035829E+03</rscale>
<asrwt>0</asrwt>
<pdfrwt beam="1">  1       21 0.68956403E-02 0.25035829E+03</pdfrwt>
<pdfrwt beam="2">  1       21 0.19460218E+00 0.25035829E+03</pdfrwt>
<totfact> 0.21734476E+04</totfact>
</mgrwt>
</event>
<event>
 5    0  0.1480317E+000  0.2590544E+03  0.7546771E-02  0.1107713E+00
         21   -1    0    0  504  501  0.00000000000E+00  0.00000000000E+00  0.72891543179E+03  0.72891543179E+03  0.00000000000E+00 0. -1.
         21   -1    0    0  501  502 -0.00000000000E+00 -0.00000000000E+00 -0.82809830609E+02  0.82809830609E+02  0.00000000000E+00 0. -1.
         25    1    1    2    0    0 -0.19120072787E+03  0.12217395402E+03  0.36511624518E+03  0.44768188022E+03  0.12500000000E+03 0.  0.
         21    1    1    2  503  502  0.18030680813E+02 -0.12198792657E+02  0.53285919468E+02  0.57561316928E+02  0.00000000000E+00 0. -1.
         21    1    1    2  504  503  0.17317004706E+03 -0.10997516136E+03  0.22770343653E+03  0.30648206525E+03  0.00000000000E+00 0. -1.
<mgrwt>
<rscale>  4 0.25905442E+03</rscale>
<asrwt>0</asrwt>
<pdfrwt beam="1">  1       21 0.11214083E+00 0.25905442E+03</pdfrwt>
<pdfrwt beam="2">  1       21 0.12739974E-01 0.25905442E+03</pdfrwt>
<totfact> 0.31751629E+04</totfact>
</mgrwt>
</event>
<event>
 5    0  0.1480317E+000  0.2657541E+03  0.7546771E-02  0.1103735E+00
         21   -1    0    0  504  501  0.00000000000E+00  0.00000000000E+00  0.30679979467E+03  0.30679979467E+03  0.00000000000E+00 0.  1.
         21   -1    0    0  501  502 -0.00000000000E+00 -0.00000000000E+00 -0.21203472343E+03  0.21203472343E+03  0.00000000000E+00 0.  1.
         25    1    1    2    0    0 -0.23293393009E+03 -0.27239809942E+02  0.93443086241E+02  0.28170344940E+03  0.12500000000E+03 0.  0.
         21    1    1    2  503  502  0.20764161416E+03  0.12958653848E+02  0.25166890178E+01  0.20806080929E+03  0.00000000000E+00 0.  1.
         21    1    1    2  504  503  0.25292315936E+02  0.14281156095E+02 -0.11947040180E+01  0.29070259415E+02  0.00000000000E+00 0.  1.
<mgrwt>
<rscale>  4 0.26575406E+03</rscale>
<asrwt>0</asrwt>
<pdfrwt beam="1">  1       21 0.47199968E-01 0.26575406E+03</pdfrwt>
<pdfrwt beam="2">  1       21 0.32620727E-01 0.26575406E+03</pdfrwt>
<totfact> 0.37557319E+04</totfact>
</mgrwt>
</event>
<event>
 5    0  0.1480317E+000  0.2679024E+03  0.7546771E-02  0.1102486E+00
         21   -1    0    0  504  501  0.00000000000E+00  0.00000000000E+00  0.52388408619E+03  0.52388408619E+03  0.00000000000E+00 0.  1.
         21   -1    0    0  501  502 -0.00000000000E+00 -0.00000000000E+00 -0.50419529562E+03  0.50419529562E+03  0.00000000000E+00 0. -1.
         25    1    1    2    0    0 -0.20363113224E+03  0.12672282030E+03 -0.42876946026E+03  0.50694433743E+03  0.12500000000E+03 0.  0.
         21    1    1    2  503  502  0.40924588776E+02 -0.32194458919E+01  0.18312524915E+02  0.44950365594E+02  0.00000000000E+00 0.  1.
         21    1    1    2  504  503  0.16270654346E+03 -0.12350337440E+03  0.43014572593E+03  0.47618467878E+03  0.00000000000E+00 0.  1.
<mgrwt>
<rscale>  4 0.26790240E+03</rscale>
<asrwt>0</asrwt>
<pdfrwt beam="1">  1       21 0.80597552E-01 0.26790240E+03</pdfrwt>
<pdfrwt beam="2">  1       21 0.77568507E-01 0.26790240E+03</pdfrwt>
<totfact> 0.18793881E+03</totfact>
</mgrwt>
</event>
<event>
 5    0  0.1480317E+000  0.2577333E+03  0.7546771E-02  0.1108513E+00
         21   -1    0    0  504  501  0.00000000000E+00  0.00000000000E+00  0.84405063076E+02  0.84405063076E+02  0.00000000000E+00 0. -1.
         21   -1    0    0  501  502 -0.00000000000E+00 -0.00000000000E+00 -0.81283577322E+03  0.81283577322E+03  0.00000000000E+00 0. -1.
         25    1    1    2    0    0 -0.10104648327E+03  0.20147220003E+03 -0.26811419091E+03  0.37190275414E+03  0.12500000000E+03 0.  0.
         21    1    1    2  503  502  0.31339231069E+02 -0.14163377987E+03 -0.36588796564E+03  0.39359405281E+03  0.00000000000E+00 0. -1.
         21    1    1    2  504  503  0.69707252204E+02 -0.59838420155E+02 -0.94428553595E+02  0.13174402935E+03  0.00000000000E+00 0. -1.
<mgrwt>
<rscale>  4 0.25773327E+03</rscale>
<asrwt>0</asrwt>
<pdfrwt beam="1">  1       21 0.12985395E-01 0.25773327E+03</pdfrwt>
<pdfrwt beam="2">  1       21 0.12505165E+00 0.25773327E+03</pdfrwt>
<totfact> 0.23405880E+04</totfact>
</mgrwt>
</event>
<event>
 5    0  0.1480317E+000  0.3026580E+03  0.7546771E-02  0.1083919E+00
         21   -1    0    0  504  501  0.00000000000E+00  0.00000000000E+00  0.12080484793E+04  0.12080484793E+04  0.00000000000E+00 0.  1.
         21   -1    0    0  501  502 -0.00000000000E+00 -0.00000000000E+00 -0.99257980853E+02  0.99257980853E+02  0.00000000000E+00 0.  1.
         25    1    1    2    0    0  0.12415720001E+03 -0.28926142264E+03  0.55025737855E+03  0.64613881140E+03  0.12500000000E+03 0.  0.
         21    1    1    2  503  502  0.33955895365E+02  0.92531586277E+02  0.12109074803E+03  0.15613477046E+03  0.00000000000E+00 0. -1.
         21    1    1    2  504  503 -0.15811309538E+03  0.19672983637E+03  0.43744237183E+03  0.50503287826E+03  0.00000000000E+00 0.  1.
<mgrwt>
<rscale>  4 0.30265798E+03</rscale>
<asrwt>0</asrwt>
<pdfrwt beam="1">  1       21 0.18585360E+00 0.30265798E+03</pdfrwt>
<pdfrwt beam="2">  1       21 0.15270459E-01 0.30265798E+03</pdfrwt>
<totfact> 0.58363564E+03</totfact>
</mgrwt>
</event>
<event>
 5    0  0.1480317E+000  0.2717300E+03  0.7546771E-02  0.1100294E+00
         21   -1    0    0  504  501  0.00000000000E+00  0.00000000000E+00  0.54713172794E+03  0.54713172794E+03  0.00000000000E+00 0.  1.
         21   -1    0    0  501  502 -0.00000000000E+00 -0.00000000000E+00 -0.13389604713E+03  0.13389604713E+03  0.00000000000E+00 0.  1.
         25    1    1    2    0    0 -0.97839837589E+02  0.22054377925E+03  0.13302966255E+03  0.30254600229E+03  0.12500000000E+03 0.  0.
         21    1    1    2  503  502  0.10201575166E+03 -0.15454479403E+03  0.17875686395E+03  0.25738166866E+03  0.00000000000E+00 0.  1.
         21    1    1    2  504  503 -0.41759140748E+01 -0.65998985216E+02  0.10144915431E+03  0.12110010412E+03  0.00000000000E+00 0.  1.
<mgrwt>
<rscale>  4 0.27173000E+03</rscale>
<asrwt>0</asrwt>
<pdfrwt beam="1">  1       21 0.84174111E-01 0.27173000E+03</pdfrwt>
<pdfrwt beam="2">  1       21 0.20599392E-01 0.27173000E+03</pdfrwt>
<totfact> 0.25716790E+04</totfact>
</mgrwt>
</event>
<event>
 5    0  0.1480317E+000  0.3056069E+03  0.7546771E-02  0.1082471E+00
         21   -1    0    0  504  501  0.00000000000E+00  0.00000000000E+00  0.15097363546E+04  0.15097363546E+04  0.00000000000E+00 0. -1.
         21   -1    0    0  501  502 -0.00000000000E+00 -0.00000000000E+00 -0.58820479697E+02  0.58820479697E+02  0.00000000000E+00 0. -1.
         25    1    1    2    0    0  0.27571980183E+03 -0.41822995703E+02  0.67539081194E+03  0.74131526421E+03  0.12500000000E+03 0.  0.
         21    1    1    2  503  502 -0.11018127930E+02  0.18465370330E+02  0.44635402431E+02  0.49544809967E+02  0.00000000000E+00 0. -1.
         21    1    1    2  504  503 -0.26470167390E+03  0.23357625373E+02  0.73088966050E+03  0.77769676009E+03  0.00000000000E+00 0. -1.
<mgrwt>
<rscale>  4 0.30560689E+03</rscale>
<asrwt>0</asrwt>
<pdfrwt beam="1">  1       21 0.23226710E+00 0.30560689E+03</pdfrwt>
<pdfrwt beam="2">  1       21 0.90493057E-02 0.30560689E+03</pdfrwt>
<totfact> 0.75305684E+03</totfact>
</mgrwt>
</event>
<event>
 5    0  0.1480317E+000  0.2420470E+03  0.7546771E-02  0.1118437E+00
         21   -1    0    0  504  501  0.00000000000E+00  0.00000000000E+00  0.28285364036E+03  0.28285364036E+03  0.00000000000E+00 0. -1.
         21   -1    0    0  501  502 -0.00000000000E+00 -0.00000000000E+00 -0.27232396085E+03  0.27232396085E+03  0.00000000000E+00 0. -1.
         25    1    1    2    0    0 -0.17025649523E+03  0.11821378910E+03 -0.15514628593E+03  0.28750155502E+03  0.12500000000E+03 0.  0.
         21    1    1    2  503  502  0.15942557543E+03 -0.98594988144E+02  0.14274711079E+03  0.23561456540E+03  0.00000000000E+00 0. -1.
         21    1    1    2  504  503  0.10830919798E+02 -0.19618800961E+02  0.22928854655E+02  0.32061480793E+02  0.00000000000E+00 0. -1.
<mgrwt>
<rscale>  4 0.24204705E+03</rscale>
<asrwt>0</asrwt>
<pdfrwt beam="1">  1       21 0.43515944E-01 0.24204705E+03</pdfrwt>
<pdfrwt beam="2">  1       21 0.41895994E-01 0.24204705E+03</pdfrwt>
<totfact> 0.27128427E+04</totfact>
</mgrwt>
</event>
<event>
 5    0  0.1480317E+000  0.2971908E+03  0.7546771E-02  0.1086653E+00
         21   -1    0    0  504  501  0.00000000000E+00  0.00000000000E+00  0.15372298272E+03  0.15372298272E+03  0.00000000000E+00 0. -1.
         21   -1    0    0  501  502 -0.00000000000E+00 -0.00000000000E+00 -0.96305605814E+03  0.96305605814E+03  0.00000000000E+00 0. -1.
         25    1    1    2    0    0 -0.19481678818E+03 -0.18639679194E+03 -0.78860208094E+03  0.84274289500E+03  0.12500000000E+03 0.  0.
         21    1    1    2  503  502  0.16023828504E+03  0.17374041653E+03 -0.15704494799E+02  0.23687269046E+03  0.00000000000E+00 0. -1.
         21    1    1    2  504  503  0.34578503146E+02  0.12656375405E+02 -0.50264996785E+01  0.37163455399E+02  0.00000000000E+00 0. -1.
<mgrwt>
<rscale>  4 0.29719076E+03</rscale>
<asrwt>0</asrwt>
<pdfrwt beam="1">  1       21 0.23649689E-01 0.29719076E+03</pdfrwt>
<pdfrwt beam="2">  1       21 0.14816247E+00 0.29719076E+03</pdfrwt>
<totfact> 0.48372203E+03</totfact>
</mgrwt>
</event>
<event>
 5    0  0.1480317E+000  0.3108005E+03  0.7546771E-02  0.1079963E+00
         21   -1    0    0  504  501  0.00000000000E+00  0.00000000000E+00  0.82126268827E+03  0.82126268827E+03  0.00000000000E+00 0. -1.
         21   -1    0    0  501  502 -0.00000000000E+00 -0.00000000000E+00 -0.11066714454E+03  0.11066714454E+03  0.00000000000E+00 0. -1.
         25    1    1    2    0    0 -0.16412540791E+03 -0.23245381518E+03  0.36359587220E+03  0.47832926315E+03  0.12500000000E+03 0.  0.
         21    1    1    2  503  502  0.11942240204E+03  0.19090413930E+03  0.30661068132E+03  0.38041583880E+03  0.00000000000E+00 0. -1.
         21    1    1    2  504  503  0.44703005872E+02  0.41549675875E+02  0.40388990218E+02  0.73184730854E+02  0.00000000000E+00 0. -1.
<mgrwt>
<rscale>  4 0.31080046E+03</rscale>
<asrwt>0</asrwt>
<pdfrwt beam="1">  1       21 0.12634810E+00 0.31080046E+03</pdfrwt>
<pdfrwt beam="2">  1       21 0.17025715E-01 0.31080046E+03</pdfrwt>
<totfact> 0.13530819E+04</totfact>
</mgrwt>
</event>
<event>
 5    0  0.1480317E+000  0.2552673E+03  0.7546771E-02  0.1110021E+00
         21   -1    0    0  504  501  0.00000000000E+00  0.00000000000E+00  0.10912648167E+04  0.10912648167E+04  0.00000000000E+00 0. -1.
         21   -1    0    0  501  502 -0.00000000000E+00 -0.00000000000E+00 -0.99233400462E+03  0.99233400462E+03  0.00000000000E+00 0. -1.
         25    1    1    2    0    0  0.67536850406E+02 -0.21367124570E+03 -0.93343223015E+03  0.96805854971E+03  0.12500000000E+03 0.  0.
         21    1    1    2  503  502  0.61046280140E+02  0.21803026466E+03  0.32208275584E+03  0.39370184942E+03  0.00000000000E+00 0. -1.
         21    1    1    2  504  503 -0.12858313055E+03 -0.43590189677E+01  0.71028028643E+03  0.72183842222E+03  0.00000000000E+00 0. -1.
<mgrwt>
<rscale>  4 0.25526732E+03</rscale>
<asrwt>0</asrwt>
<pdfrwt beam="1">  1       21 0.16788690E+00 0.25526732E+03</pdfrwt>
<pdfrwt beam="2">  1       21 0.15266677E+00 0.25526732E+03</pdfrwt>
<totfact> 0.58037581E+01</totfact>
</mgrwt>
</event>
<event>
 5    0  0.1480317E+000  0.2304752E+03  0.7546771E-02  0.1126306E+00
         21   -1    0    0  504  501  0.00000000000E+00  0.00000000000E+00  0.12884054937E+03  0.12884054937E+03  0.00000000000E+00 0.  1.
         21   -1    0    0  501  502 -0.00000000000E+00 -0.00000000000E+00 -0.94679845979E+03  0.94679845979E+03  0.00000000000E+00 0.  1.
         25    1    1    2    0    0 -0.79915739617E+01  0.21436535998E+03 -0.78481277178E+03  0.82314789653E+03  0.12500000000E+03 0.  0.
         21    1    1    2  503  502  0.41322550991E+02 -0.14106045331E+03 -0.71316013469E+02  0.16337557493E+03  0.00000000000E+00 0.  1.
         21    1    1    2  504  503 -0.33330977030E+02 -0.73304906676E+02  0.38170874834E+02  0.89115537692E+02  0.00000000000E+00 0.  1.
<mgrwt>
<rscale>  4 0.23047524E+03</rscale>
<asrwt>0</asrwt>
<pdfrwt beam="1">  1       21 0.19821622E-01 0.23047524E+03</pdfrwt>
<pdfrwt beam="2">  1       21 0.14566131E+00 0.23047524E+03</pdfrwt>
<totfact> 0.73667837E+03</totfact>
</mgrwt>
</event>
<event>
 5    0  0.1480317E+000  0.2738134E+03  0.7546771E-02  0.1099117E+00
         21   -1    0    0  504  501  0.00000000000E+00  0.00000000000E+00  0.43590929195E+03  0.43590929195E+03  0.00000000000E+00 0. -1.
         21   -1    0    0  501  502 -0.00000000000E+00 -0.00000000000E+00 -0.16322161728E+03  0.16322161728E+03  0.00000000000E+00 0. -1.
         25    1    1    2    0    0 -0.10325911449E+03  0.22064984896E+03  0.18972687400E+03  0.33312173044E+03  0.12500000000E+03 0.  0.
         21    1    1    2  503  502  0.91994496783E+01 -0.51842254655E+02  0.44581297006E+02  0.68990878272E+02  0.00000000000E+00 0. -1.
         21    1    1    2  504  503  0.94059664808E+02 -0.16880759431E+03  0.38379503659E+02  0.19701830052E+03  0.00000000000E+00 0. -1.
<mgrwt>
<rscale>  4 0.27381344E+03</rscale>
<asrwt>0</asrwt>
<pdfrwt beam="1">  1       21 0.67062968E-01 0.27381344E+03</pdfrwt>
<pdfrwt beam="2">  1       21 0.25111018E-01 0.27381344E+03</pdfrwt>
<totfact> 0.29402621E+04</totfact>
</mgrwt>
</event>
<event>
 5    0  0.1480317E+000  0.2377700E+03  0.7546771E-02  0.1121287E+00
         21   -1    0    0  504  501  0.00000000000E+00  0.00000000000E+00  0.14136147800E+04  0.14136147800E+04  0.00000000000E+00 0. -1.
         21   -1    0    0  501  502 -0.00000000000E+00 -0.00000000000E+00 -0.35795126358E+03  0.35795126358E+03  0.00000000000E+00 0. -1.
         25    1    1    2    0    0 -0.20209932510E+03 -0.80899959732E+01 -0.30988816069E+03  0.39059602837E+03  0.12500000000E+03 0.  0.
         21    1    1    2  503  502  0.16511715688E+03 -0.55426148376E+01  0.11557066397E+04  0.11674554523E+04  0.00000000000E+00 0. -1.
         21    1    1    2  504  503  0.36982168224E+02  0.13632610811E+02  0.20984503741E+03  0.21351456290E+03  0.00000000000E+00 0.  1.
<mgrwt>
<rscale>  4 0.23777003E+03</rscale>
<asrwt>0</asrwt>
<pdfrwt beam="1">  1       21 0.21747919E+00 0.23777003E+03</pdfrwt>
<pdfrwt beam="2">  1       21 0.55069426E-01 0.23777003E+03</pdfrwt>
<totfact> 0.30726943E+02</totfact>
</mgrwt>
</event>
<event>
 5    0  0.1480317E+000  0.2505073E+03  0.7546771E-02  0.1112985E+00
         21   -1    0    0  504  501  0.00000000000E+00  0.00000000000E+00  0.81472413077E+03  0.81472413077E+03  0.00000000000E+00 0.  1.
         21   -1    0    0  501  502 -0.00000000000E+00 -0.00000000000E+00 -0.41849420452E+03  0.41849420452E+03  0.00000000000E+00 0.  1.
         25    1    1    2    0    0 -0.14558551238E+03  0.18243533169E+03 -0.31376431569E+03  0.41054943365E+03  0.12500000000E+03 0.  0.
         21    1    1    2  503  502  0.57956627241E+02  0.15757751572E+02 -0.18325878754E+02  0.62794229097E+02  0.00000000000E+00 0. -1.
         21    1    1    2  504  503  0.87628885142E+02 -0.19819308326E+03  0.72832012070E+03  0.75987467255E+03  0.00000000000E+00 0.  1.
<mgrwt>
<rscale>  4 0.25050725E+03</rscale>
<asrwt>0</asrwt>
<pdfrwt beam="1">  1       21 0.12534217E+00 0.25050725E+03</pdfrwt>
<pdfrwt beam="2">  1       21 0.64383724E-01 0.25050725E+03</pdfrwt>
<totfact> 0.10001492E+03</totfact>
</mgrwt>
</event>
<event>
 5    0  0.1480317E+000  0.2363958E+03  0.7546771E-02  0.1122217E+00
         21   -1    0    0  504  501  0.00000000000E+00  0.00000000000E+00  0.34006131530E+03  0.34006131530E+03  0.00000000000E+00 0.  1.
         21   -1    0    0  501  502 -0.00000000000E+00 -0.00000000000E+00 -0.18485225176E+03  0.18485225176E+03  0.00000000000E+00 0.  1.
         25    1    1    2    0    0  0.18638065961E+03 -0.74298055967E+02 -0.33270263636E+02  0.23872549474E+03  0.12500000000E+03 0.  0.
         21    1    1    2  503  502 -0.10649645681E+03  0.53652394284E+02  0.15861447921E+03  0.19844048917E+03  0.00000000000E+00 0.  1.
         21    1    1    2  504  503 -0.79884202800E+02  0.20645661683E+02  0.29864847975E+02  0.87747583145E+02  0.00000000000E+00 0.  1.
<mgrwt>
<rscale>  4 0.23639575E+03</rscale>
<asrwt>0</asrwt>
<pdfrwt beam="1">  1       21 0.52317125E-01 0.23639575E+03</pdfrwt>
<pdfrwt beam="2">  1       21 0.28438808E-01 0.23639575E+03</pdfrwt>
<totfact> 0.40117205E+04</totfact>
</mgrwt>
</event>
<event>
 5    0  0.1480317E+000  0.2936635E+03  0.7546771E-02  0.1088452E+00
         21   -1    0    0  504  501  0.00000000000E+00  0.00000000000E+00  0.55012617345E+03  0.55012617345E+03  0.00000000000E+00 0. -1.
         21   -1    0    0  501  502 -0.00000000000E+00 -0.00000000000E+00 -0.24292886390E+03  0.24292886390E+03  0.00000000000E+00 0.  1.
         25    1    1    2    0    0  0.10026808871E+03  0.24608850471E+03 -0.95532904603E+02  0.30881188064E+03  0.12500000000E+03 0.  0.
         21    1    1    2  503  502 -0.93553415550E+02 -0.22368922680E+03  0.38461872154E+03  0.45466545141E+03  0.00000000000E+00 0. -1.
         21    1    1    2  504  503 -0.67146731594E+01 -0.22399277909E+02  0.18111492618E+02  0.29577705308E+02  0.00000000000E+00 0. -1.
<mgrwt>
<rscale>  4 0.29366348E+03</rscale>
<asrwt>0</asrwt>
<pdfrwt beam="1">  1       21 0.84634796E-01 0.29366348E+03</pdfrwt>
<pdfrwt beam="2">  1       21 0.37373672E-01 0.29366348E+03</pdfrwt>
<totfact> 0.78647408E+03</totfact>
</mgrwt>
</event>
<event>
 5    0  0.1480317E+000  0.2539132E+03  0.7546771E-02  0.1110856E+00
         21   -1    0    0  504  501  0.00000000000E+00  0.00000000000E+00  0.12601422230E+04  0.12601422230E+04  0.00000000000E+00 0. -1.
         21   -1    0    0  501  502 -0.00000000000E+00 -0.00000000000E+00 -0.20123486157E+03  0.20123486157E+03  0.00000000000E+00 0.  1.
         25    1    1    2    0    0 -0.13142161283E+03 -0.17769432495E+03 -0.10568978620E+03  0.27503135157E+03  0.12500000000E+03 0.  0.
         21    1    1    2  503  502  0.51544504831E+02  0.10766768076E+03  0.57584131373E+03  0.58808365396E+03  0.00000000000E+00 0. -1.
         21    1    1    2  504  503  0.79877107994E+02  0.70026644189E+02  0.58875583389E+03  0.59826207904E+03  0.00000000000E+00 0. -1.
<mgrwt>
<rscale>  4 0.25391320E+03</rscale>
<asrwt>0</asrwt>
<pdfrwt beam="1">  1       21 0.19386803E+00 0.25391320E+03</pdfrwt>
<pdfrwt beam="2">  1       21 0.30959210E-01 0.25391320E+03</pdfrwt>
<totfact> 0.13912482E+03</totfact>
</mgrwt>
</event>
<event>
 5    0  0.1480317E+000  0.3027237E+03  0.7546771E-02  0.1083887E+00
         21   -1    0    0  504  501  0.00000000000E+00  0.00000000000E+00  0.51117523359E+03  0.51117523359E+03  0.00000000000E+00 0. -1.
         21   -1    0    0  501  502 -0.00000000000E+00 -0.00000000000E+00 -0.27234047911E+03  0.27234047911E+03  0.00000000000E+00 0. -1.
         25    1    1    2    0    0 -0.18115820998E+03  0.20784209883E+03 -0.12252609905E+03  0.32657966874E+03  0.12500000000E+03 0.  0.
         21    1    1    2  503  502  0.13075154946E+03 -0.17463001416E+03  0.29921660368E+03  0.37030012888E+03  0.00000000000E+00 0. -1.
         21    1    1    2  504  503  0.50406660520E+02 -0.33212084667E+02  0.62144249842E+02  0.86635915077E+02  0.00000000000E+00 0. -1.
<mgrwt>
<rscale>  4 0.30272369E+03</rscale>
<asrwt>0</asrwt>
<pdfrwt beam="1">  1       21 0.78642343E-01 0.30272369E+03</pdfrwt>
<pdfrwt beam="2">  1       21 0.41898535E-01 0.30272369E+03</pdfrwt>
<totfact> 0.73426718E+03</totfact>
</mgrwt>
</event>
<event>
 5    0  0.1480317E+000  0.3763633E+03  0.7546771E-02  0.1052286E+00
         21   -1    0    0  504  501  0.00000000000E+00  0.00000000000E+00  0.20041670769E+04  0.20041670769E+04  0.00000000000E+00 0.  1.
         21   -1    0    0  501  502 -0.00000000000E+00 -0.00000000000E+00 -0.72487352845E+02  0.72487352845E+02  0.00000000000E+00 0.  1.
         25    1    1    2    0    0 -0.24791456692E+03  0.25409192192E+03  0.74999499354E+03  0.83913159136E+03  0.12500000000E+03 0.  0.
         21    1    1    2  503  502  0.49214649068E+02 -0.36946162006E+02  0.34813772287E+03  0.35353496949E+03  0.00000000000E+00 0.  1.
         21    1    1    2  504  503  0.19869991785E+03 -0.21714575991E+03  0.83354700763E+03  0.88398786888E+03  0.00000000000E+00 0.  1.
<mgrwt>
<rscale>  4 0.37636330E+03</rscale>
<asrwt>0</asrwt>
<pdfrwt beam="1">  1       21 0.30833335E+00 0.37636330E+03</pdfrwt>
<pdfrwt beam="2">  1       21 0.11151902E-01 0.37636330E+03</pdfrwt>
<totfact> 0.17334827E+03</totfact>
</mgrwt>
</event>
<event>
 5    0  0.1480317E+000  0.2410557E+03  0.7546771E-02  0.1119092E+00
         21   -1    0    0  504  501  0.00000000000E+00  0.00000000000E+00  0.11121911941E+03  0.11121911941E+03  0.00000000000E+00 0. -1.
         21   -1    0    0  501  502 -0.00000000000E+00 -0.00000000000E+00 -0.46431688868E+03  0.46431688868E+03  0.00000000000E+00 0. -1.
         25    1    1    2    0    0  0.92866965235E+02  0.18400700902E+03 -0.18049811524E+03  0.30114352427E+03  0.12500000000E+03 0.  0.
         21    1    1    2  503  502 -0.98329709864E+02 -0.15531347378E+03 -0.14396157013E+03  0.23348648923E+03  0.00000000000E+00 0. -1.
         21    1    1    2  504  503  0.54627446292E+01 -0.28693535248E+02 -0.28638083903E+02  0.40905994592E+02  0.00000000000E+00 0. -1.
<mgrwt>
<rscale>  4 0.24105570E+03</rscale>
<asrwt>0</asrwt>
<pdfrwt beam="1">  1       21 0.17110634E-01 0.24105570E+03</pdfrwt>
<pdfrwt beam="2">  1       21 0.71433368E-01 0.24105570E+03</pdfrwt>
<totfact> 0.53433749E+04</totfact>
</mgrwt>
</event>
<event>
 5    0  0.1480317E+000  0.3433416E+03  0.7546771E-02  0.1065382E+00
         21   -1    0    0  504  501  0.00000000000E+00  0.00000000000E+00  0.39782731613E+03  0.39782731613E+03  0.00000000000E+00 0. -1.
         21   -1    0    0  501  502 -0.00000000000E+00 -0.00000000000E+00 -0.61563681520E+03  0.61563681520E+03  0.00000000000E+00 0.  1.
         25    1    1    2    0    0 -0.99703081766E+02 -0.32145565730E+03 -0.25921702795E+03  0.44282379306E+03  0.12500000000E+03 0.  0.
         21    1    1    2  503  502 -0.17932853645E+03  0.13576132879E+03 -0.32937909869E+02  0.22732084878E+03  0.00000000000E+00 0. -1.
         21    1    1    2  504  503  0.27903161822E+03  0.18569432851E+03  0.74345438748E+02  0.34331948949E+03  0.00000000000E+00 0. -1.
<mgrwt>
<rscale>  4 0.34334159E+03</rscale>
<asrwt>0</asrwt>
<pdfrwt beam="1">  1       21 0.61204203E-01 0.34334159E+03</pdfrwt>
<pdfrwt beam="2">  1       21 0.94713355E-01 0.34334159E+03</pdfrwt>
<totfact> 0.20929995E+03</totfact>
</mgrwt>
</event>
<event>
 5    0  0.1480317E+000  0.2573610E+03  0.7546771E-02  0.1108739E+00
         21   -1    0    0  504  501  0.00000000000E+00  0.00000000000E+00  0.67230637352E+02  0.67230637352E+02  0.00000000000E+00 0. -1.
         21   -1    0    0  501  502 -0.00000000000E+00 -0.00000000000E+00 -0.15133881462E+04  0.15133881462E+04  0.00000000000E+00 0.  1.
         25    1    1    2    0    0  0.21713987791E+03 -0.58821415622E+02 -0.12615225663E+04  0.12875068430E+04  0.12500000000E+03 0.  0.
         21    1    1    2  503  502 -0.19777257455E+03  0.42467935909E+02 -0.16280511315E+03  0.25965943405E+03  0.00000000000E+00 0. -1.
         21    1    1    2  504  503 -0.19367303357E+02  0.16353479712E+02 -0.21829829359E+02  0.33452506451E+02  0.00000000000E+00 0. -1.
<mgrwt>
<rscale>  4 0.25736100E+03</rscale>
<asrwt>0</asrwt>
<pdfrwt beam="1">  1       21 0.10343176E-01 0.25736100E+03</pdfrwt>
<pdfrwt beam="2">  1       21 0.23282893E+00 0.25736100E+03</pdfrwt>
<totfact> 0.60828339E+03</totfact>
</mgrwt>
</event>
<event>
 5    0  0.1480317E+000  0.2477093E+03  0.7546771E-02  0.1114761E+00
         21   -1    0    0  504  501  0.00000000000E+00  0.00000000000E+00  0.37753580430E+03  0.37753580430E+03  0.00000000000E+00 0. -1.
         21   -1    0    0  501  502 -0.00000000000E+00 -0.00000000000E+00 -0.19906406452E+03  0.19906406452E+03  0.00000000000E+00 0. -1.
         25    1    1    2    0    0 -0.21297510529E+03  0.19403141684E+02  0.24594547525E+03  0.34906883873E+03  0.12500000000E+03 0.  0.
         21    1    1    2  503  502  0.17803961596E+03 -0.22124999554E+01 -0.50661696315E+02  0.18512052150E+03  0.00000000000E+00 0. -1.
         21    1    1    2  504  503  0.34935489324E+02 -0.17190641728E+02 -0.16812039155E+02  0.42410508579E+02  0.00000000000E+00 0. -1.
<mgrwt>
<rscale>  4 0.24770926E+03</rscale>
<asrwt>0</asrwt>
<pdfrwt beam="1">  1       21 0.58082431E-01 0.24770926E+03</pdfrwt>
<pdfrwt beam="2">  1       21 0.30625241E-01 0.24770926E+03</pdfrwt>
<totfact> 0.27641583E+04</totfact>
</mgrwt>
</event>
<event>
 5    0  0.1480317E+000  0.2728135E+03  0.7546771E-02  0.1099680E+00
         21   -1    0    0  504  501  0.00000000000E+00  0.00000000000E+00  0.76846291396E+03  0.76846291396E+03  0.00000000000E+00 0. -1.
         21   -1    0    0  501  502 -0.00000000000E+00 -0.00000000000E+00 -0.10012592720E+03  0.10012592720E+03  0.00000000000E+00 0.  1.
         25    1    1    2    0    0  0.23068379595E+03  0.63431597302E+02  0.38820860196E+03  0.47283136517E+03  0.12500000000E+03 0.  0.
         21    1    1    2  503  502 -0.24497549932E+03 -0.34843232257E+02  0.25215199716E+03  0.35328129836E+03  0.00000000000E+00 0. -1.
         21    1    1    2  504  503  0.14291703371E+02 -0.28588365045E+02  0.27976387632E+02  0.42476177631E+02  0.00000000000E+00 0. -1.
<mgrwt>
<rscale>  4 0.27281354E+03</rscale>
<asrwt>0</asrwt>
<pdfrwt beam="1">  1       21 0.11822506E+00 0.27281354E+03</pdfrwt>
<pdfrwt beam="2">  1       21 0.15403989E-01 0.27281354E+03</pdfrwt>
<totfact> 0.19589962E+04</totfact>
</mgrwt>
</event>
<event>
 5    0  0.1480317E+000  0.3098659E+03  0.7546771E-02  0.1080410E+00
         21   -1    0    0  504  501  0.00000000000E+00  0.00000000000E+00  0.24908461671E+03  0.24908461671E+03  0.00000000000E+00 0. -1.
         21   -1    0    0  501  502 -0.00000000000E+00 -0.00000000000E+00 -0.69327962756E+03  0.69327962756E+03  0.00000000000E+00 0.  1.
         25    1    1    2    0    0  0.23283349897E+03  0.16180368440E+03 -0.55297256373E+03  0.63387343119E+03  0.12500000000E+03 0.  0.
         21    1    1    2  503  502 -0.33869805127E+02 -0.31873493673E+01  0.91332291772E+01  0.35224121998E+02  0.00000000000E+00 0.  1.
         21    1    1    2  504  503 -0.19896369385E+03 -0.15861633504E+03  0.99644323700E+02  0.27326669108E+03  0.00000000000E+00 0. -1.
<mgrwt>
<rscale>  4 0.30986589E+03</rscale>
<asrwt>0</asrwt>
<pdfrwt beam="1">  1       21 0.38320710E-01 0.30986589E+03</pdfrwt>
<pdfrwt beam="2">  1       21 0.10665840E+00 0.30986589E+03</pdfrwt>
<totfact> 0.42816145E+03</totfact>
</mgrwt>
</event>
<event>
 5    0  0.1480317E+000  0.3085805E+03  0.7546771E-02  0.1081028E+00
         21   -1    0    0  504  501  0.00000000000E+00  0.00000000000E+00  0.37647532232E+03  0.37647532232E+03  0.00000000000E+00 0.  1.
         21   -1    0    0  501  502 -0.00000000000E+00 -0.00000000000E+00 -0.56649745754E+03  0.56649745754E+03  0.00000000000E+00 0.  1.
         25    1    1    2    0    0 -0.47853461096E+02 -0.27804126483E+03 -0.44829010261E+03  0.54422965262E+03  0.12500000000E+03 0.  0.
         21    1    1    2  503  502  0.49130579498E+02  0.15921507532E+03  0.80843124768E+02  0.18519952719E+03  0.00000000000E+00 0.  1.
         21    1    1    2  504  503 -0.12771184030E+01  0.11882618951E+03  0.17742484262E+03  0.21354360005E+03  0.00000000000E+00 0.  1.
<mgrwt>
<rscale>  4 0.30858046E+03</rscale>
<asrwt>0</asrwt>
<pdfrwt beam="1">  1       21 0.57919281E-01 0.30858046E+03</pdfrwt>
<pdfrwt beam="2">  1       21 0.87153454E-01 0.30858046E+03</pdfrwt>
<totfact> 0.29222466E+03</totfact>
</mgrwt>
</event>
