<event>
 5    0  0.1911311E+001  0.4630805E+03  0.7546771E-02  0.1023892E+00
         21   -1    0    0  504  501  0.00000000000E+00  0.00000000000E+00  0.22925022337E+04  0.22925022337E+04  0.00000000000E+00 0.  1.
         21   -1    0    0  503  502 -0.00000000000E+00 -0.00000000000E+00 -0.10898075341E+03  0.10898075341E+03  0.00000000000E+00 0.  1.
         25    1    1    2    0    0  0.41270885605E+03 -0.20725775675E+03  0.90111560589E+03  0.10202542393E+04  0.12500000000E+03 0.  0.
         21    1    1    2  503  501 -0.32620079732E+02 -0.71065461380E+01  0.82062248842E+01  0.34378986701E+02  0.00000000000E+00 0.  1.
         21    1    1    2  504  502 -0.38008877632E+03  0.21436430289E+03  0.12741996495E+04  0.13468497611E+04  0.00000000000E+00 0.  1.
<mgrwt>
<rscale>  4 0.46308048E+03</rscale>
<asrwt>0</asrwt>
<pdfrwt beam="1">  1       21 0.35269262E+00 0.46308048E+03</pdfrwt>
<pdfrwt beam="2">  1       21 0.16766271E-01 0.46308048E+03</pdfrwt>
<totfact> 0.41847892E+02</totfact>
</mgrwt>
</event>
<event>
 5    0  0.1911311E+001  0.3121434E+03  0.7546771E-02  0.1079323E+00
         21   -1    0    0  502  501  0.00000000000E+00  0.00000000000E+00  0.10123797591E+04  0.10123797591E+04  0.00000000000E+00 0. -1.
         21   -1    0    0  504  502 -0.00000000000E+00 -0.00000000000E+00 -0.23763642530E+03  0.23763642530E+03  0.00000000000E+00 0. -1.
         25    1    1    2    0    0  0.21150844548E+03  0.16177036579E+03  0.62477119880E+03  0.69055740139E+03  0.12500000000E+03 0.  0.
         21    1    1    2  503  501  0.44519685847E+02 -0.26332482085E+02  0.24826091834E+03  0.25359196678E+03  0.00000000000E+00 0. -1.
         21    1    1    2  504  503 -0.25602813132E+03 -0.13543788370E+03 -0.98288783312E+02  0.30586681627E+03  0.00000000000E+00 0. -1.
<mgrwt>
<rscale>  4 0.31214340E+03</rscale>
<asrwt>0</asrwt>
<pdfrwt beam="1">  1       21 0.15575073E+00 0.31214340E+03</pdfrwt>
<pdfrwt beam="2">  1       21 0.36559450E-01 0.31214340E+03</pdfrwt>
<totfact> 0.17806031E+03</totfact>
</mgrwt>
</event>
<event>
 5    0  0.1911311E+001  0.1936958E+03  0.7546771E-02  0.1155170E+00
         21   -1    0    0  502  501  0.00000000000E+00  0.00000000000E+00  0.92017366566E+02  0.92017366566E+02  0.00000000000E+00 0.  1.
         21   -1    0    0  504  502 -0.00000000000E+00 -0.00000000000E+00 -0.84422575261E+03  0.84422575261E+03  0.00000000000E+00 0.  1.
         25    1    1    2    0    0  0.10783100758E+03 -0.19168149919E+03 -0.46709782548E+03  0.53120118777E+03  0.12500000000E+03 0.  0.
         21    1    1    2  503  501 -0.30739179373E+02  0.99048961681E+02 -0.93896445971E+01  0.10413337306E+03  0.00000000000E+00 0.  1.
         21    1    1    2  504  503 -0.77091828212E+02  0.92632537507E+02 -0.27572091597E+03  0.30090855835E+03  0.00000000000E+00 0.  1.
<mgrwt>
<rscale>  4 0.19369580E+03</rscale>
<asrwt>0</asrwt>
<pdfrwt beam="1">  1       21 0.14156518E-01 0.19369580E+03</pdfrwt>
<pdfrwt beam="2">  1       21 0.12988088E+00 0.19369580E+03</pdfrwt>
<totfact> 0.18868095E+04</totfact>
</mgrwt>
</event>
