<event>
 5    0  0.2349231E+000  0.4507096E+03  0.7546771E-02  0.1027511E+00
         21   -1    0    0  502  501  0.00000000000E+00  0.00000000000E+00  0.11009971428E+04  0.11009971428E+04  0.00000000000E+00 0. -1.
         21   -1    0    0  504  502 -0.00000000000E+00 -0.00000000000E+00 -0.41633822569E+03  0.41633822569E+03  0.00000000000E+00 0.  1.
         25    1    1    2    0    0 -0.13931523895E+03 -0.16599855253E+03 -0.33746762936E+03  0.42008767669E+03  0.12500000000E+03 0.  0.
         21    1    1    2  503  501  0.87634795777E+02  0.73791591534E+02  0.97467155985E+03  0.98138152927E+03  0.00000000000E+00 0. -1.
         21    1    1    2  504  503  0.51680443171E+02  0.92206961001E+02  0.47454986598E+02  0.11586616252E+03  0.00000000000E+00 0. -1.
<mgrwt>
<rscale>  4 0.45070965E+03</rscale>
<asrwt>0</asrwt>
<pdfrwt beam="1">  1       21 0.16938417E+00 0.45070965E+03</pdfrwt>
<pdfrwt beam="2">  1       21 0.64052035E-01 0.45070965E+03</pdfrwt>
<totfact> 0.40042266E+02</totfact>
</mgrwt>
</event>
<event>
 5    0  0.2349231E+000  0.4387332E+03  0.7546771E-02  0.1031136E+00
         21   -1    0    0  502  501  0.00000000000E+00  0.00000000000E+00  0.15533819886E+03  0.15533819886E+03  0.00000000000E+00 0.  1.
         21   -1    0    0  504  502 -0.00000000000E+00 -0.00000000000E+00 -0.42273297931E+03  0.42273297931E+03  0.00000000000E+00 0.  1.
         25    1    1    2    0    0  0.13211919310E+03 -0.17443804714E+03 -0.16791778986E+03  0.30282915584E+03  0.12500000000E+03 0.  0.
         21    1    1    2  503  501 -0.34263927592E+02  0.15441597852E+02  0.29961486384E+02  0.48064023391E+02  0.00000000000E+00 0. -1.
         21    1    1    2  504  503 -0.97855265512E+02  0.15899644929E+03 -0.12943847698E+03  0.22717799893E+03  0.00000000000E+00 0.  1.
<mgrwt>
<rscale>  4 0.43873322E+03</rscale>
<asrwt>0</asrwt>
<pdfrwt beam="1">  1       21 0.23898185E-01 0.43873322E+03</pdfrwt>
<pdfrwt beam="2">  1       21 0.65035842E-01 0.43873322E+03</pdfrwt>
<totfact> 0.32887765E+04</totfact>
</mgrwt>
</event>
<event>
 5    0  0.2349231E+000  0.6138069E+03  0.7546771E-02  0.9877168E-01
         21   -1    0    0  502  501  0.00000000000E+00  0.00000000000E+00  0.18387137646E+04  0.18387137646E+04  0.00000000000E+00 0.  1.
         21   -1    0    0  504  502 -0.00000000000E+00 -0.00000000000E+00 -0.34507073871E+03  0.34507073871E+03  0.00000000000E+00 0.  1.
         25    1    1    2    0    0 -0.12571245707E+03 -0.18132727032E+03 -0.66392252483E+02  0.26213762037E+03  0.12500000000E+03 0.  0.
         21    1    1    2  503  501 -0.22725516726E+03  0.18191808129E+03  0.15409052597E+04  0.15681607439E+04  0.00000000000E+00 0.  1.
         21    1    1    2  504  503  0.35296762433E+03 -0.59081096568E+00  0.19130018679E+02  0.35348613904E+03  0.00000000000E+00 0.  1.
<mgrwt>
<rscale>  4 0.61380689E+03</rscale>
<asrwt>0</asrwt>
<pdfrwt beam="1">  1       21 0.28287904E+00 0.61380689E+03</pdfrwt>
<pdfrwt beam="2">  1       21 0.53087807E-01 0.61380689E+03</pdfrwt>
<totfact> 0.10283841E+02</totfact>
</mgrwt>
</event>
<event>
 5    0  0.2349231E+000  0.5006166E+03  0.7546771E-02  0.1013618E+00
         21   -1    0    0  502  501  0.00000000000E+00  0.00000000000E+00  0.62804970021E+03  0.62804970021E+03  0.00000000000E+00 0.  1.
         21   -1    0    0  504  502 -0.00000000000E+00 -0.00000000000E+00 -0.18195361473E+03  0.18195361473E+03  0.00000000000E+00 0.  1.
         25    1    1    2    0    0 -0.22313532340E+03  0.28766730467E+02  0.14408280783E+03  0.29496059541E+03  0.12500000000E+03 0.  0.
         21    1    1    2  503  501 -0.81024853519E+01 -0.45884966012E+02  0.27806141282E+03  0.28193834375E+03  0.00000000000E+00 0.  1.
         21    1    1    2  504  503  0.23123780875E+03  0.17118235545E+02  0.23951864834E+02  0.23310437579E+03  0.00000000000E+00 0.  1.
<mgrwt>
<rscale>  4 0.50061658E+03</rscale>
<asrwt>0</asrwt>
<pdfrwt beam="1">  1       21 0.96623030E-01 0.50061658E+03</pdfrwt>
<pdfrwt beam="2">  1       21 0.27992864E-01 0.50061658E+03</pdfrwt>
<totfact> 0.95155340E+03</totfact>
</mgrwt>
</event>
