<event>
 5    0  0.1856407E+000  0.3442813E+03  0.7546771E-02  0.1064987E+00
         21   -1    0    0  502  501  0.00000000000E+00  0.00000000000E+00  0.42181884846E+03  0.42181884846E+03  0.00000000000E+00 0. -1.
         21   -1    0    0  503  502 -0.00000000000E+00 -0.00000000000E+00 -0.28464356470E+03  0.28464356470E+03  0.00000000000E+00 0. -1.
         25    1    1    2    0    0 -0.20393392724E+03 -0.24761983350E+03  0.15357950907E+03  0.37698314847E+03  0.12500000000E+03 0.  0.
         21    1    1    2  503  504  0.50662523179E+02  0.11577527352E+03 -0.15323016115E+02  0.12730043219E+03  0.00000000000E+00 0. -1.
         21    1    1    2  504  501  0.15327140406E+03  0.13184455997E+03 -0.10812092048E+01  0.20217883250E+03  0.00000000000E+00 0. -1.
<mgrwt>
<rscale>  4 0.34428132E+03</rscale>
<asrwt>0</asrwt>
<pdfrwt beam="1">  1       21 0.64895208E-01 0.34428132E+03</pdfrwt>
<pdfrwt beam="2">  1       21 0.43791318E-01 0.34428132E+03</pdfrwt>
<totfact> 0.10130141E+04</totfact>
</mgrwt>
</event>
<event>
 5    0  0.2131981E+000  0.2504029E+03  0.7546771E-02  0.1113050E+00
         21   -1    0    0  502  501  0.00000000000E+00  0.00000000000E+00  0.34061088368E+03  0.34061088368E+03  0.00000000000E+00 0.  1.
         21   -1    0    0  503  502 -0.00000000000E+00 -0.00000000000E+00 -0.21538291723E+03  0.21538291723E+03  0.00000000000E+00 0.  1.
         25    1    1    2    0    0 -0.14004972505E+03 -0.16571866184E+03  0.20297031950E+03  0.32233298150E+03  0.12500000000E+03 0.  0.
         21    1    1    2  503  504  0.12122156200E+03  0.14363415013E+03 -0.80590986250E+02  0.20450022798E+03  0.00000000000E+00 0.  1.
         21    1    1    2  504  501  0.18828163048E+02  0.22084511709E+02  0.28486332061E+01  0.29160591426E+02  0.00000000000E+00 0.  1.
<mgrwt>
<rscale>  4 0.25040288E+03</rscale>
<asrwt>0</asrwt>
<pdfrwt beam="1">  1       21 0.52401675E-01 0.25040288E+03</pdfrwt>
<pdfrwt beam="2">  1       21 0.33135833E-01 0.25040288E+03</pdfrwt>
<totfact> 0.29424133E+04</totfact>
</mgrwt>
</event>
<event>
 5    0  0.1856407E+000  0.3279226E+03  0.7546771E-02  0.1072444E+00
         21   -1    0    0  502  501  0.00000000000E+00  0.00000000000E+00  0.51819753152E+03  0.51819753152E+03  0.00000000000E+00 0. -1.
         21   -1    0    0  503  502 -0.00000000000E+00 -0.00000000000E+00 -0.33930789884E+03  0.33930789884E+03  0.00000000000E+00 0. -1.
         25    1    1    2    0    0  0.52823636257E+02 -0.29476023726E+03  0.35855373056E+03  0.48359043799E+03  0.12500000000E+03 0.  0.
         21    1    1    2  503  504 -0.40995087528E+02  0.97079473244E+02 -0.13437524459E+03  0.17076805229E+03  0.00000000000E+00 0. -1.
         21    1    1    2  504  501 -0.11828548730E+02  0.19768076402E+03 -0.45288853300E+02  0.20314694007E+03  0.00000000000E+00 0. -1.
<mgrwt>
<rscale>  4 0.32706307E+03</rscale>
<asrwt>0</asrwt>
<pdfrwt beam="1">  1       21 0.79722697E-01 0.32792260E+03</pdfrwt>
<pdfrwt beam="2">  1       21 0.52201215E-01 0.32792260E+03</pdfrwt>
<totfact> 0.44419268E+03</totfact>
</mgrwt>
</event>
<event>
 5    0  0.1856407E+000  0.4200337E+03  0.7546771E-02  0.1037055E+00
         21   -1    0    0  502  501  0.00000000000E+00  0.00000000000E+00  0.11596851717E+04  0.11596851717E+04  0.00000000000E+00 0.  1.
         21   -1    0    0  503  502 -0.00000000000E+00 -0.00000000000E+00 -0.34148965849E+03  0.34148965849E+03  0.00000000000E+00 0. -1.
         25    1    1    2    0    0 -0.39934996368E+03 -0.36371446729E+02  0.97714295847E+03  0.10635960873E+04  0.12500000000E+03 0.  0.
         21    1    1    2  503  504  0.37302645348E+03  0.48582620491E+02 -0.13406215530E+03  0.39935155878E+03  0.00000000000E+00 0. -1.
         21    1    1    2  504  501  0.26323510192E+02 -0.12211173763E+02 -0.24885289923E+02  0.38227184150E+02  0.00000000000E+00 0. -1.
<mgrwt>
<rscale>  4 0.42003366E+03</rscale>
<asrwt>0</asrwt>
<pdfrwt beam="1">  1       21 0.17841310E+00 0.42003366E+03</pdfrwt>
<pdfrwt beam="2">  1       21 0.52536871E-01 0.42003366E+03</pdfrwt>
<totfact> 0.53915511E+02</totfact>
</mgrwt>
</event>
<event>
 5    0  0.1908940E+000  0.2504704E+03  0.7546771E-02  0.1113008E+00
         21   -1    0    0  502  501  0.00000000000E+00  0.00000000000E+00  0.60404153459E+03  0.60404153459E+03  0.00000000000E+00 0. -1.
         21   -1    0    0  503  502 -0.00000000000E+00 -0.00000000000E+00 -0.19487649277E+03  0.19487649277E+03  0.00000000000E+00 0. -1.
         25    1    1    2    0    0 -0.23014298759E+03  0.19155285880E+02  0.46043728836E+03  0.53005680472E+03  0.12500000000E+03 0.  0.
         21    1    1    2  503  504  0.46803806524E+02 -0.37169886231E+02 -0.59659989524E+02  0.84448274687E+02  0.00000000000E+00 0. -1.
         21    1    1    2  504  501  0.18333918107E+03  0.18014600352E+02  0.83877429888E+01  0.18441294795E+03  0.00000000000E+00 0. -1.
<mgrwt>
<rscale>  4 0.25047038E+03</rscale>
<asrwt>0</asrwt>
<pdfrwt beam="1">  1       21 0.92929466E-01 0.25047038E+03</pdfrwt>
<pdfrwt beam="2">  1       21 0.29980999E-01 0.25047038E+03</pdfrwt>
<totfact> 0.10031738E+04</totfact>
</mgrwt>
</event>
<event>
 5    0  0.1856407E+000  0.2604631E+03  0.7546771E-02  0.1106865E+00
         21   -1    0    0  502  501  0.00000000000E+00  0.00000000000E+00  0.11953765080E+04  0.11953765080E+04  0.00000000000E+00 0.  1.
         21   -1    0    0  503  502 -0.00000000000E+00 -0.00000000000E+00 -0.43895893884E+03  0.43895893884E+03  0.00000000000E+00 0. -1.
         25    1    1    2    0    0 -0.22894807462E+03  0.15346859932E+02  0.11450610315E+04  0.11744967062E+04  0.12500000000E+03 0.  0.
         21    1    1    2  503  504  0.20681126826E+03 -0.24577310883E+02 -0.28222174939E+03  0.35074785918E+03  0.00000000000E+00 0. -1.
         21    1    1    2  504  501  0.22136806355E+02  0.92304509514E+01 -0.10642171298E+03  0.10909088145E+03  0.00000000000E+00 0. -1.
<mgrwt>
<rscale>  4 0.26046312E+03</rscale>
<asrwt>0</asrwt>
<pdfrwt beam="1">  1       21 0.18390408E+00 0.26046312E+03</pdfrwt>
<pdfrwt beam="2">  1       21 0.67532145E-01 0.26046312E+03</pdfrwt>
<totfact> 0.31908620E+02</totfact>
</mgrwt>
</event>
<event>
 5    0  0.1989439E+000  0.2475889E+03  0.7546771E-02  0.1114838E+00
         21   -1    0    0  502  501  0.00000000000E+00  0.00000000000E+00  0.79404011566E+02  0.79404011566E+02  0.00000000000E+00 0. -1.
         21   -1    0    0  503  502 -0.00000000000E+00 -0.00000000000E+00 -0.10761142871E+04  0.10761142871E+04  0.00000000000E+00 0. -1.
         25    1    1    2    0    0 -0.10329641272E+03 -0.18709660008E+03 -0.17176261445E+03  0.30133483430E+03  0.12500000000E+03 0.  0.
         21    1    1    2  503  504  0.68685015786E+02  0.16552735028E+03 -0.70798541478E+03  0.73031519403E+03  0.00000000000E+00 0. -1.
         21    1    1    2  504  501  0.34611396935E+02  0.21569249800E+02 -0.11696224630E+03  0.12386827033E+03  0.00000000000E+00 0. -1.
<mgrwt>
<rscale>  4 0.24758895E+03</rscale>
<asrwt>0</asrwt>
<pdfrwt beam="1">  1       21 0.12216003E-01 0.24758895E+03</pdfrwt>
<pdfrwt beam="2">  1       21 0.16555603E+00 0.24758895E+03</pdfrwt>
<totfact> 0.12560063E+04</totfact>
</mgrwt>
</event>
<event>
 5    0  0.3933951E+000  0.2473073E+03  0.7546771E-02  0.1115018E+00
         21   -1    0    0  502  501  0.00000000000E+00  0.00000000000E+00  0.14180707651E+03  0.14180707651E+03  0.00000000000E+00 0.  1.
         21   -1    0    0  503  502 -0.00000000000E+00 -0.00000000000E+00 -0.38792462525E+03  0.38792462525E+03  0.00000000000E+00 0.  1.
         25    1    1    2    0    0 -0.10181170201E+03  0.18753736540E+03 -0.97337955935E+02  0.26577351966E+03  0.12500000000E+03 0.  0.
         21    1    1    2  503  504  0.46600441391E+01 -0.20248144909E+02 -0.31487131004E+02  0.37724564974E+02  0.00000000000E+00 0.  1.
         21    1    1    2  504  501  0.97151657874E+02 -0.16728922049E+03 -0.11729246180E+03  0.22623361712E+03  0.00000000000E+00 0.  1.
<mgrwt>
<rscale>  4 0.24730727E+03</rscale>
<asrwt>0</asrwt>
<pdfrwt beam="1">  1       21 0.21816473E-01 0.24730727E+03</pdfrwt>
<pdfrwt beam="2">  1       21 0.59680711E-01 0.24730727E+03</pdfrwt>
<totfact> 0.50151875E+04</totfact>
</mgrwt>
</event>
