<event>
 5    0  0.1856407E+000  0.2688408E+03  0.7546771E-02  0.1101945E+00
         21   -1    0    0  502  501  0.00000000000E+00  0.00000000000E+00  0.67198261813E+03  0.67198261813E+03  0.00000000000E+00 0. -1.
         21   -1    0    0  503  502 -0.00000000000E+00 -0.00000000000E+00 -0.10198883148E+03  0.10198883148E+03  0.00000000000E+00 0.  1.
         25    1    1    2    0    0  0.10434004901E+02  0.23778458484E+03  0.25810147378E+03  0.37268183215E+03  0.12500000000E+03 0.  0.
         21    1    1    2  503  504  0.23573054855E+02 -0.17067348438E+03  0.17813487717E+03  0.24782486084E+03  0.00000000000E+00 0.  1.
         21    1    1    2  504  501 -0.34007059756E+02 -0.67111100458E+02  0.13375743571E+03  0.15346475663E+03  0.00000000000E+00 0.  1.
<mgrwt>
<rscale>  4 0.26884080E+03</rscale>
<asrwt>0</asrwt>
<pdfrwt beam="1">  1       21 0.10338194E+00 0.26884080E+03</pdfrwt>
<pdfrwt beam="2">  1       21 0.15690590E-01 0.26884080E+03</pdfrwt>
<totfact> 0.26345195E+04</totfact>
</mgrwt>
</event>
<event>
 5    0  0.2015430E+000  0.2205422E+03  0.7546771E-02  0.1133479E+00
         21   -1    0    0  502  501  0.00000000000E+00  0.00000000000E+00  0.22074863003E+03  0.22074863003E+03  0.00000000000E+00 0.  1.
         21   -1    0    0  503  502 -0.00000000000E+00 -0.00000000000E+00 -0.39013231112E+03  0.39013231112E+03  0.00000000000E+00 0.  1.
         25    1    1    2    0    0 -0.17390003085E+03  0.12682388216E+03  0.70726823039E+02  0.25875239383E+03  0.12500000000E+03 0.  0.
         21    1    1    2  503  504  0.50415620422E+02 -0.11046311290E+03 -0.66461844640E+02  0.13842330326E+03  0.00000000000E+00 0.  1.
         21    1    1    2  504  501  0.12348441043E+03 -0.16360769267E+02 -0.17364865950E+03  0.21370524405E+03  0.00000000000E+00 0.  1.
<mgrwt>
<rscale>  4 0.22054217E+03</rscale>
<asrwt>0</asrwt>
<pdfrwt beam="1">  1       21 0.33961328E-01 0.22054217E+03</pdfrwt>
<pdfrwt beam="2">  1       21 0.60020355E-01 0.22054217E+03</pdfrwt>
<totfact> 0.21284964E+04</totfact>
</mgrwt>
</event>
<event>
 5    0  0.1856407E+000  0.2719295E+03  0.7546771E-02  0.1100180E+00
         21   -1    0    0  502  501  0.00000000000E+00  0.00000000000E+00  0.51184349891E+03  0.51184349891E+03  0.00000000000E+00 0. -1.
         21   -1    0    0  503  502 -0.00000000000E+00 -0.00000000000E+00 -0.14924655376E+03  0.14924655376E+03  0.00000000000E+00 0.  1.
         25    1    1    2    0    0 -0.15095931010E+03 -0.18849920270E+03  0.30858966650E+03  0.41130675292E+03  0.12500000000E+03 0.  0.
         21    1    1    2  503  504  0.12869398595E+03  0.17573303964E+03  0.52606082704E+02  0.22407954654E+03  0.00000000000E+00 0.  1.
         21    1    1    2  504  501  0.22265324152E+02  0.12766163066E+02  0.14011959492E+01  0.25703753210E+02  0.00000000000E+00 0.  1.
<mgrwt>
<rscale>  4 0.27192952E+03</rscale>
<asrwt>0</asrwt>
<pdfrwt beam="1">  1       21 0.78745153E-01 0.27192952E+03</pdfrwt>
<pdfrwt beam="2">  1       21 0.22961008E-01 0.27192952E+03</pdfrwt>
<totfact> 0.24377848E+04</totfact>
</mgrwt>
</event>
<event>
 5    0  0.4075719E+000  0.2505685E+03  0.7546771E-02  0.1112946E+00
         21   -1    0    0  502  501  0.00000000000E+00  0.00000000000E+00  0.34426030247E+02  0.34426030247E+02  0.00000000000E+00 0. -1.
         21   -1    0    0  503  502 -0.00000000000E+00 -0.00000000000E+00 -0.22045594972E+04  0.22045594972E+04  0.00000000000E+00 0. -1.
         25    1    1    2    0    0 -0.21208371637E+03 -0.46691336763E+02 -0.16967597208E+04  0.17151612559E+04  0.12500000000E+03 0.  0.
         21    1    1    2  503  504  0.48692473057E+02 -0.11481545679E+02 -0.12575186960E+03  0.13533778309E+03  0.00000000000E+00 0.  1.
         21    1    1    2  504  501  0.16339124332E+03  0.58172882442E+02 -0.34762187660E+03  0.38848648849E+03  0.00000000000E+00 0. -1.
<mgrwt>
<rscale>  4 0.25056852E+03</rscale>
<asrwt>0</asrwt>
<pdfrwt beam="1">  1       21 0.52963100E-02 0.25056852E+03</pdfrwt>
<pdfrwt beam="2">  1       21 0.33916315E+00 0.25056852E+03</pdfrwt>
<totfact> 0.46336584E+03</totfact>
</mgrwt>
</event>
<event>
 5    0  0.1856407E+000  0.3478471E+03  0.7546771E-02  0.1064058E+00
         21   -1    0    0  502  501  0.00000000000E+00  0.00000000000E+00  0.87409440811E+03  0.87409440811E+03  0.00000000000E+00 0.  1.
         21   -1    0    0  503  502 -0.00000000000E+00 -0.00000000000E+00 -0.23730791680E+03  0.23730791680E+03  0.00000000000E+00 0.  1.
         25    1    1    2    0    0  0.10851768371E+03 -0.29985823192E+03  0.67949822963E+03  0.76094276460E+03  0.12500000000E+03 0.  0.
         21    1    1    2  503  504 -0.22337349221E+02  0.78583167168E+02 -0.74885554452E+02  0.11082471565E+03  0.00000000000E+00 0.  1.
         21    1    1    2  504  501 -0.86180334486E+02  0.22127506476E+03  0.32173816132E+02  0.23963484467E+03  0.00000000000E+00 0.  1.
<mgrwt>
<rscale>  4 0.34650617E+03</rscale>
<asrwt>0</asrwt>
<pdfrwt beam="1">  1       21 0.13447606E+00 0.34784711E+03</pdfrwt>
<pdfrwt beam="2">  1       21 0.36508911E-01 0.34784711E+03</pdfrwt>
<totfact> 0.25869346E+03</totfact>
</mgrwt>
</event>
<event>
 5    0  0.1856407E+000  0.2614003E+03  0.7546771E-02  0.1106305E+00
         21   -1    0    0  502  501  0.00000000000E+00  0.00000000000E+00  0.45220705570E+03  0.45220705570E+03  0.00000000000E+00 0.  1.
         21   -1    0    0  503  502 -0.00000000000E+00 -0.00000000000E+00 -0.16015351833E+03  0.16015351833E+03  0.00000000000E+00 0.  1.
         25    1    1    2    0    0 -0.22470666278E+03  0.47032247104E+02  0.27321841781E+03  0.37812487408E+03  0.12500000000E+03 0.  0.
         21    1    1    2  503  504  0.18248425080E+03 -0.39918199860E+02 -0.15670931255E+01  0.18680583570E+03  0.00000000000E+00 0.  1.
         21    1    1    2  504  501  0.42222411976E+02 -0.71140472443E+01  0.20402212680E+02  0.47429864258E+02  0.00000000000E+00 0.  1.
<mgrwt>
<rscale>  4 0.26140030E+03</rscale>
<asrwt>0</asrwt>
<pdfrwt beam="1">  1       21 0.69570316E-01 0.26140030E+03</pdfrwt>
<pdfrwt beam="2">  1       21 0.24639003E-01 0.26140030E+03</pdfrwt>
<totfact> 0.28262260E+04</totfact>
</mgrwt>
</event>
<event>
 5    0  0.3189483E+000  0.2519926E+03  0.7546771E-02  0.1112052E+00
         21   -1    0    0  502  501  0.00000000000E+00  0.00000000000E+00  0.18418982150E+03  0.18418982150E+03  0.00000000000E+00 0. -1.
         21   -1    0    0  503  502 -0.00000000000E+00 -0.00000000000E+00 -0.49837774466E+03  0.49837774466E+03  0.00000000000E+00 0. -1.
         25    1    1    2    0    0  0.24548605098E+03 -0.29578825656E+01 -0.25120167312E+02  0.27663725906E+03  0.12500000000E+03 0.  0.
         21    1    1    2  503  504 -0.33968749352E+02  0.13364618035E+02  0.11480354535E+02  0.38266009565E+02  0.00000000000E+00 0. -1.
         21    1    1    2  504  501 -0.21151730163E+03 -0.10406735469E+02 -0.30054811038E+03  0.36766429754E+03  0.00000000000E+00 0. -1.
<mgrwt>
<rscale>  4 0.25199256E+03</rscale>
<asrwt>0</asrwt>
<pdfrwt beam="1">  1       21 0.28336896E-01 0.25199256E+03</pdfrwt>
<pdfrwt beam="2">  1       21 0.76673497E-01 0.25199256E+03</pdfrwt>
<totfact> 0.17423278E+04</totfact>
</mgrwt>
</event>
<event>
 5    0  0.1856407E+000  0.2572006E+03  0.7546771E-02  0.1108837E+00
         21   -1    0    0  502  501  0.00000000000E+00  0.00000000000E+00  0.22062646382E+03  0.22062646382E+03  0.00000000000E+00 0.  1.
         21   -1    0    0  503  502 -0.00000000000E+00 -0.00000000000E+00 -0.41478960382E+03  0.41478960382E+03  0.00000000000E+00 0. -1.
         25    1    1    2    0    0 -0.17769048780E+03 -0.13767076440E+03  0.87563769925E+02  0.27169755727E+03  0.12500000000E+03 0.  0.
         21    1    1    2  503  504  0.12345973477E+03  0.11900326341E+03 -0.19416065796E+03  0.25904139420E+03  0.00000000000E+00 0. -1.
         21    1    1    2  504  501  0.54230753029E+02  0.18667500984E+02 -0.87566251963E+02  0.10467711617E+03  0.00000000000E+00 0. -1.
<mgrwt>
<rscale>  4 0.25720060E+03</rscale>
<asrwt>0</asrwt>
<pdfrwt beam="1">  1       21 0.33942533E-01 0.25720060E+03</pdfrwt>
<pdfrwt beam="2">  1       21 0.63813785E-01 0.25720060E+03</pdfrwt>
<totfact> 0.18310792E+04</totfact>
</mgrwt>
</event>
<event>
 5    0  0.3630469E+000  0.2337050E+03  0.7546771E-02  0.1124059E+00
         21   -1    0    0  502  501  0.00000000000E+00  0.00000000000E+00  0.17587441284E+03  0.17587441284E+03  0.00000000000E+00 0.  1.
         21   -1    0    0  503  502 -0.00000000000E+00 -0.00000000000E+00 -0.40622716482E+03  0.40622716482E+03  0.00000000000E+00 0.  1.
         25    1    1    2    0    0  0.12535690217E+01 -0.22528094783E+03 -0.34006298952E+02  0.25987401806E+03  0.12500000000E+03 0.  0.
         21    1    1    2  503  504  0.10375900018E+02  0.17264574362E+03 -0.73218198037E+02  0.18781671016E+03  0.00000000000E+00 0.  1.
         21    1    1    2  504  501 -0.11629469040E+02  0.52635204217E+02 -0.12312825499E+03  0.13441084945E+03  0.00000000000E+00 0.  1.
<mgrwt>
<rscale>  4 0.23370502E+03</rscale>
<asrwt>0</asrwt>
<pdfrwt beam="1">  1       21 0.27057602E-01 0.23370502E+03</pdfrwt>
<pdfrwt beam="2">  1       21 0.62496487E-01 0.23370502E+03</pdfrwt>
<totfact> 0.30237301E+04</totfact>
</mgrwt>
</event>
<event>
 5    0  0.1856407E+000  0.3053987E+03  0.7546771E-02  0.1082573E+00
         21   -1    0    0  502  501  0.00000000000E+00  0.00000000000E+00  0.17867289108E+04  0.17867289108E+04  0.00000000000E+00 0.  1.
         21   -1    0    0  503  502 -0.00000000000E+00 -0.00000000000E+00 -0.58337701380E+02  0.58337701380E+02  0.00000000000E+00 0. -1.
         25    1    1    2    0    0  0.10944760804E+03 -0.25625103811E+03  0.12084597488E+04  0.12464523007E+04  0.12500000000E+03 0.  0.
         21    1    1    2  503  504 -0.11245416914E+03  0.13641670354E+03  0.30899378284E+03  0.35599524575E+03  0.00000000000E+00 0. -1.
         21    1    1    2  504  501  0.30065611047E+01  0.11983433457E+03  0.21093767775E+03  0.24261906571E+03  0.00000000000E+00 0. -1.
<mgrwt>
<rscale>  4 0.30539871E+03</rscale>
<asrwt>0</asrwt>
<pdfrwt beam="1">  1       21 0.27488133E+00 0.30539871E+03</pdfrwt>
<pdfrwt beam="2">  1       21 0.89750323E-02 0.30539871E+03</pdfrwt>
<totfact> 0.42339991E+03</totfact>
</mgrwt>
</event>
<event>
 5    0  0.2069111E+000  0.2377522E+03  0.7546771E-02  0.1121299E+00
         21   -1    0    0  502  501  0.00000000000E+00  0.00000000000E+00  0.12793562948E+03  0.12793562948E+03  0.00000000000E+00 0.  1.
         21   -1    0    0  503  502 -0.00000000000E+00 -0.00000000000E+00 -0.41434515378E+03  0.41434515378E+03  0.00000000000E+00 0.  1.
         25    1    1    2    0    0 -0.17857715846E+03  0.94927839683E+02 -0.87388582129E+02  0.25330388974E+03  0.12500000000E+03 0.  0.
         21    1    1    2  503  504  0.23026161551E+02 -0.33509840960E+02 -0.25552260966E+02  0.48021157810E+02  0.00000000000E+00 0.  1.
         21    1    1    2  504  501  0.15555099691E+03 -0.61417998724E+02 -0.17346868121E+03  0.24095573570E+03  0.00000000000E+00 0.  1.
<mgrwt>
<rscale>  4 0.23775217E+03</rscale>
<asrwt>0</asrwt>
<pdfrwt beam="1">  1       21 0.19682404E-01 0.23775217E+03</pdfrwt>
<pdfrwt beam="2">  1       21 0.63745409E-01 0.23775217E+03</pdfrwt>
<totfact> 0.52981003E+04</totfact>
</mgrwt>
</event>
<event>
 5    0  0.1856407E+000  0.3683262E+03  0.7546771E-02  0.1055335E+00
         21   -1    0    0  502  501  0.00000000000E+00  0.00000000000E+00  0.15764542898E+03  0.15764542898E+03  0.00000000000E+00 0.  1.
         21   -1    0    0  503  502 -0.00000000000E+00 -0.00000000000E+00 -0.21292836195E+04  0.21292836195E+04  0.00000000000E+00 0.  1.
         25    1    1    2    0    0 -0.22716422376E+02  0.37534697466E+03 -0.31395340518E+03  0.50556218990E+03  0.12500000000E+03 0.  0.
         21    1    1    2  503  504  0.26718647338E+03 -0.22450663400E+03 -0.11002135995E+04  0.11542364597E+04  0.00000000000E+00 0.  1.
         21    1    1    2  504  501 -0.24447005101E+03 -0.15084034067E+03 -0.55747118587E+03  0.62713039895E+03  0.00000000000E+00 0.  1.
<mgrwt>
<rscale>  4 0.36832619E+03</rscale>
<asrwt>0</asrwt>
<pdfrwt beam="1">  1       21 0.24253143E-01 0.36832619E+03</pdfrwt>
<pdfrwt beam="2">  1       21 0.32758209E+00 0.36832619E+03</pdfrwt>
<totfact> 0.31413588E+02</totfact>
</mgrwt>
</event>
<event>
 5    0  0.1856407E+000  0.2582337E+03  0.7546771E-02  0.1108209E+00
         21   -1    0    0  502  501  0.00000000000E+00  0.00000000000E+00  0.15926020934E+03  0.15926020934E+03  0.00000000000E+00 0.  1.
         21   -1    0    0  503  502 -0.00000000000E+00 -0.00000000000E+00 -0.51163929543E+03  0.51163929543E+03  0.00000000000E+00 0.  1.
         25    1    1    2    0    0 -0.14976129034E+03  0.16920763076E+03 -0.16136254135E+02  0.25873740566E+03  0.12500000000E+03 0.  0.
         21    1    1    2  503  504  0.11482907182E+03 -0.77349511596E+02 -0.22004285845E+03  0.25997600318E+03  0.00000000000E+00 0.  1.
         21    1    1    2  504  501  0.34932218520E+02 -0.91858119165E+02 -0.11619997351E+03  0.15218609592E+03  0.00000000000E+00 0.  1.
<mgrwt>
<rscale>  4 0.25823374E+03</rscale>
<asrwt>0</asrwt>
<pdfrwt beam="1">  1       21 0.24501570E-01 0.25823374E+03</pdfrwt>
<pdfrwt beam="2">  1       21 0.78713738E-01 0.25823374E+03</pdfrwt>
<totfact> 0.21681684E+04</totfact>
</mgrwt>
</event>
<event>
 5    0  0.1856407E+000  0.4199736E+03  0.7546771E-02  0.1037075E+00
         21   -1    0    0  502  501  0.00000000000E+00  0.00000000000E+00  0.13831101399E+04  0.13831101399E+04  0.00000000000E+00 0. -1.
         21   -1    0    0  503  502 -0.00000000000E+00 -0.00000000000E+00 -0.15748632985E+03  0.15748632985E+03  0.00000000000E+00 0. -1.
         25    1    1    2    0    0  0.27259665754E+03  0.29401344944E+03  0.95055467158E+03  0.10391977819E+04  0.12500000000E+03 0.  0.
         21    1    1    2  503  504 -0.17579486407E+03 -0.10455308449E+03  0.15879011684E+03  0.25893914906E+03  0.00000000000E+00 0. -1.
         21    1    1    2  504  501 -0.96801793476E+02 -0.18946036495E+03  0.11627902165E+03  0.24245953886E+03  0.00000000000E+00 0. -1.
<mgrwt>
<rscale>  4 0.41997363E+03</rscale>
<asrwt>0</asrwt>
<pdfrwt beam="1">  1       21 0.21278617E+00 0.41997363E+03</pdfrwt>
<pdfrwt beam="2">  1       21 0.24228667E-01 0.41997363E+03</pdfrwt>
<totfact> 0.15227823E+03</totfact>
</mgrwt>
</event>
<event>
 5    0  0.1856407E+000  0.2149195E+03  0.7546771E-02  0.1137728E+00
         21   -1    0    0  502  501  0.00000000000E+00  0.00000000000E+00  0.41761629529E+03  0.41761629529E+03  0.00000000000E+00 0.  1.
         21   -1    0    0  503  502 -0.00000000000E+00 -0.00000000000E+00 -0.18629995155E+03  0.18629995155E+03  0.00000000000E+00 0. -1.
         25    1    1    2    0    0  0.11846652152E+03 -0.17166640840E+03  0.25802654001E+03  0.35455093829E+03  0.12500000000E+03 0.  0.
         21    1    1    2  503  504 -0.57273478656E+02  0.15931536675E+03 -0.58743327719E+02  0.17919937497E+03  0.00000000000E+00 0. -1.
         21    1    1    2  504  501 -0.61193042862E+02  0.12351041650E+02  0.32033131450E+02  0.70165933579E+02  0.00000000000E+00 0. -1.
<mgrwt>
<rscale>  4 0.21491951E+03</rscale>
<asrwt>0</asrwt>
<pdfrwt beam="1">  1       21 0.64248660E-01 0.21491951E+03</pdfrwt>
<pdfrwt beam="2">  1       21 0.28661531E-01 0.21491951E+03</pdfrwt>
<totfact> 0.25706403E+04</totfact>
</mgrwt>
</event>
