<event>
 5    0  0.1041609E-002  0.3871278E+03  0.7546771E-02  0.1048330E+00
          2   -1    0    0  502    0 -0.00000000000E+00  0.00000000000E+00  0.28461321127E+03  0.28461321127E+03  0.00000000000E+00 0.  1.
         21   -1    0    0  503  502  0.00000000000E+00 -0.00000000000E+00 -0.57840951923E+03  0.57840951923E+03  0.00000000000E+00 0.  1.
         25    1    1    2    0    0  0.25145645720E+03 -0.80018662749E+02 -0.65086973018E+02  0.29915656489E+03  0.12500000000E+03 0.  0.
         21    1    1    2  503  501 -0.11847906305E+03 -0.17631681188E+03 -0.16287748970E+03  0.26768261651E+03  0.00000000000E+00 0.  1.
          2    1    1    2  501    0 -0.13297739415E+03  0.25633547463E+03 -0.65831845234E+02  0.29618354909E+03  0.00000000000E+00 0.  1.
<mgrwt>
<rscale>  4 0.38712781E+03</rscale>
<asrwt>0</asrwt>
<pdfrwt beam="1">  1       21 0.88986080E-01 0.38712781E+03</pdfrwt>
<pdfrwt beam="2">  1        2 0.43786648E-01 0.38712781E+03</pdfrwt>
<totfact> 0.14500794E+03</totfact>
</mgrwt>
</event>
<event>
 5    0  0.1041609E-002  0.3976716E+03  0.7546771E-02  0.1044589E+00
         21   -1    0    0  503  502  0.00000000000E+00  0.00000000000E+00  0.23725039465E+02  0.23725039465E+02  0.00000000000E+00 0. -1.
          2   -1    0    0  502    0 -0.00000000000E+00 -0.00000000000E+00 -0.41021981079E+04  0.41021981079E+04  0.00000000000E+00 0. -1.
         25    1    1    2    0    0 -0.23922270470E+03 -0.21185158796E+02 -0.23909126840E+04  0.24061930047E+04  0.12500000000E+03 0.  0.
         21    1    1    2  503  501  0.12247413763E+03  0.16438124725E+02 -0.14472801240E+04  0.14525460006E+04  0.00000000000E+00 0.  1.
          2    1    1    2  501    0  0.11674856706E+03  0.47470340703E+01 -0.24028026033E+03  0.26718414202E+03  0.00000000000E+00 0. -1.
<mgrwt>
<rscale>  4 0.39767157E+03</rscale>
<asrwt>0</asrwt>
<pdfrwt beam="1">  1       21 0.36500089E-02 0.39767157E+03</pdfrwt>
<pdfrwt beam="2">  1        2 0.63110692E+00 0.39767157E+03</pdfrwt>
<totfact> 0.20437319E+03</totfact>
</mgrwt>
</event>
<event>
 5    0  0.1041609E-002  0.2723244E+03  0.7546771E-02  0.1099957E+00
         21   -1    0    0  503  502  0.00000000000E+00  0.00000000000E+00  0.57248042290E+02  0.57248042290E+02  0.00000000000E+00 0.  1.
          1   -1    0    0  502    0 -0.00000000000E+00 -0.00000000000E+00 -0.13729974289E+04  0.13729974289E+04  0.00000000000E+00 0.  1.
         25    1    1    2    0    0 -0.21313173460E+03  0.91374091763E+02 -0.51998051272E+03  0.58290573384E+03  0.12500000000E+03 0.  0.
         21    1    1    2  503  501  0.47679906676E+02  0.53150280106E+02 -0.19784411775E+03  0.21033454472E+03  0.00000000000E+00 0. -1.
          1    1    1    2  501    0  0.16545182792E+03 -0.14452437187E+03 -0.59792475617E+03  0.63700519265E+03  0.00000000000E+00 0.  1.
<mgrwt>
<rscale>  4 0.27232441E+03</rscale>
<asrwt>0</asrwt>
<pdfrwt beam="1">  1       21 0.88073907E-02 0.27232441E+03</pdfrwt>
<pdfrwt beam="2">  1        1 0.21123038E+00 0.27232441E+03</pdfrwt>
<totfact> 0.97759540E+03</totfact>
</mgrwt>
</event>
<event>
 5    0  0.1041609E-002  0.4966552E+03  0.7546771E-02  0.1014656E+00
         21   -1    0    0  503  502  0.00000000000E+00  0.00000000000E+00  0.19396184855E+03  0.19396184855E+03  0.00000000000E+00 0.  1.
          1   -1    0    0  502    0 -0.00000000000E+00 -0.00000000000E+00 -0.14065990191E+04  0.14065990191E+04  0.00000000000E+00 0.  1.
         25    1    1    2    0    0  0.16712813712E+03  0.40551432624E+03 -0.69401711236E+03  0.83045676302E+03  0.12500000000E+03 0.  0.
         21    1    1    2  503  501 -0.19206299031E+03 -0.45588198927E+02 -0.11384258648E+03  0.22787411135E+03  0.00000000000E+00 0.  1.
          1    1    1    2  501    0  0.24934853189E+02 -0.35992612731E+03 -0.40477747175E+03  0.54222999333E+03  0.00000000000E+00 0.  1.
<mgrwt>
<rscale>  4 0.49665517E+03</rscale>
<asrwt>0</asrwt>
<pdfrwt beam="1">  1       21 0.29840285E-01 0.49665517E+03</pdfrwt>
<pdfrwt beam="2">  1        1 0.21639984E+00 0.49665517E+03</pdfrwt>
<totfact> 0.90023326E+02</totfact>
</mgrwt>
</event>
<event>
 5    0  0.1041609E-002  0.2407694E+03  0.7546771E-02  0.1119281E+00
         21   -1    0    0  503  502  0.00000000000E+00  0.00000000000E+00  0.45714144287E+03  0.45714144287E+03  0.00000000000E+00 0. -1.
          4   -1    0    0  502    0 -0.00000000000E+00 -0.00000000000E+00 -0.25922045309E+03  0.25922045309E+03  0.00000000000E+00 0. -1.
         25    1    1    2    0    0  0.87898113756E+02  0.18159361422E+03  0.61273821394E+02  0.24511589160E+03  0.12500000000E+03 0.  0.
         21    1    1    2  503  501 -0.19983131698E+03 -0.16180654264E+03  0.21335397020E+03  0.33411649029E+03  0.00000000000E+00 0. -1.
          4    1    1    2  501    0  0.11193320322E+03 -0.19787071575E+02 -0.76706801814E+02  0.13712951407E+03  0.00000000000E+00 0. -1.
<mgrwt>
<rscale>  4 0.24076936E+03</rscale>
<asrwt>0</asrwt>
<pdfrwt beam="1">  1       21 0.70329453E-01 0.24076936E+03</pdfrwt>
<pdfrwt beam="2">  1        4 0.39880070E-01 0.24076936E+03</pdfrwt>
<totfact> 0.46952593E+02</totfact>
</mgrwt>
</event>
<event>
 5    0  0.1041609E-002  0.2417304E+03  0.7546771E-02  0.1118645E+00
          2   -1    0    0  502    0 -0.00000000000E+00  0.00000000000E+00  0.34215869433E+04  0.34215869433E+04  0.00000000000E+00 0. -1.
         21   -1    0    0  503  502  0.00000000000E+00 -0.00000000000E+00 -0.22784670420E+02  0.22784670420E+02  0.00000000000E+00 0. -1.
         25    1    1    2    0    0  0.37339914540E+02 -0.21143798335E+03  0.16100053993E+04  0.16290619005E+04  0.12500000000E+03 0.  0.
         21    1    1    2  503  501  0.60024468210E+02  0.94406831238E+02  0.32701262681E+03  0.34561950851E+03  0.00000000000E+00 0. -1.
          2    1    1    2  501    0 -0.97364382749E+02  0.11703115212E+03  0.14617842468E+04  0.14696902047E+04  0.00000000000E+00 0. -1.
<mgrwt>
<rscale>  4 0.24173045E+03</rscale>
<asrwt>0</asrwt>
<pdfrwt beam="1">  1       21 0.35053366E-02 0.24173045E+03</pdfrwt>
<pdfrwt beam="2">  1        2 0.52639758E+00 0.24173045E+03</pdfrwt>
<totfact> 0.72094288E+03</totfact>
</mgrwt>
</event>
<event>
 5    0  0.1041609E-002  0.3913586E+03  0.7546771E-02  0.1046814E+00
         21   -1    0    0  503  502  0.00000000000E+00  0.00000000000E+00  0.23690718655E+03  0.23690718655E+03  0.00000000000E+00 0. -1.
          2   -1    0    0  502    0 -0.00000000000E+00 -0.00000000000E+00 -0.83810169852E+03  0.83810169852E+03  0.00000000000E+00 0. -1.
         25    1    1    2    0    0 -0.24517506440E+03  0.11368051625E+03  0.43483444269E+02  0.30091507424E+03  0.12500000000E+03 0.  0.
         21    1    1    2  503  501  0.85067045706E+02  0.11874767229E+03 -0.23086516505E+03  0.27319614999E+03  0.00000000000E+00 0.  1.
          2    1    1    2  501    0  0.16010801870E+03 -0.23242818854E+03 -0.41381279119E+03  0.50089766083E+03  0.00000000000E+00 0. -1.
<mgrwt>
<rscale>  4 0.39135860E+03</rscale>
<asrwt>0</asrwt>
<pdfrwt beam="1">  1       21 0.36447260E-01 0.39135860E+03</pdfrwt>
<pdfrwt beam="2">  1        2 0.12893872E+00 0.39135860E+03</pdfrwt>
<totfact> 0.28864034E+03</totfact>
</mgrwt>
</event>
<event>
 5    0  0.1041609E-002  0.6001745E+03  0.7546771E-02  0.9905044E-01
         21   -1    0    0  503  502  0.00000000000E+00  0.00000000000E+00  0.17956450985E+03  0.17956450985E+03  0.00000000000E+00 0. -1.
          2   -1    0    0  502    0 -0.00000000000E+00 -0.00000000000E+00 -0.21385591099E+04  0.21385591099E+04  0.00000000000E+00 0. -1.
         25    1    1    2    0    0  0.46253995017E+03 -0.26146572055E+03 -0.10276804874E+04  0.11636407146E+04  0.12500000000E+03 0.  0.
         21    1    1    2  503  501  0.39443142488E+02  0.14847815628E+03 -0.32347367382E+03  0.35810158061E+03  0.00000000000E+00 0.  1.
          2    1    1    2  501    0 -0.50198309266E+03  0.11298756427E+03 -0.60784043888E+03  0.79638132458E+03  0.00000000000E+00 0. -1.
<mgrwt>
<rscale>  4 0.60017446E+03</rscale>
<asrwt>0</asrwt>
<pdfrwt beam="1">  1       21 0.27625309E-01 0.60017446E+03</pdfrwt>
<pdfrwt beam="2">  1        2 0.32900909E+00 0.60017446E+03</pdfrwt>
<totfact> 0.87158276E+02</totfact>
</mgrwt>
</event>
<event>
 5    0  0.1041609E-002  0.3688116E+03  0.7546771E-02  0.1055148E+00
         21   -1    0    0  503  502  0.00000000000E+00  0.00000000000E+00  0.17522800548E+03  0.17522800548E+03  0.00000000000E+00 0. -1.
          2   -1    0    0  502    0 -0.00000000000E+00 -0.00000000000E+00 -0.83968991345E+03  0.83968991345E+03  0.00000000000E+00 0. -1.
         25    1    1    2    0    0  0.17018482662E+03 -0.16340386654E+03 -0.27078754130E+03  0.38028225220E+03  0.12500000000E+03 0.  0.
         21    1    1    2  503  501  0.12353337904E+03  0.15156627191E+03 -0.21509413739E+03  0.29068594472E+03  0.00000000000E+00 0. -1.
          2    1    1    2  501    0 -0.29371820566E+03  0.11837594630E+02 -0.17858022928E+03  0.34394972201E+03  0.00000000000E+00 0. -1.
<mgrwt>
<rscale>  4 0.36881162E+03</rscale>
<asrwt>0</asrwt>
<pdfrwt beam="1">  1       21 0.26958154E-01 0.36881162E+03</pdfrwt>
<pdfrwt beam="2">  1        2 0.12918307E+00 0.36881162E+03</pdfrwt>
<totfact> 0.52726489E+03</totfact>
</mgrwt>
</event>
<event>
 5    0  0.1041609E-002  0.4059121E+03  0.7546771E-02  0.1041752E+00
         21   -1    0    0  501  502  0.00000000000E+00  0.00000000000E+00  0.11157834370E+03  0.11157834370E+03  0.00000000000E+00 0. -1.
         -1   -1    0    0    0  501 -0.00000000000E+00 -0.00000000000E+00 -0.18684477306E+04  0.18684477306E+04  0.00000000000E+00 0. -1.
         25    1    1    2    0    0  0.28503256598E+03 -0.10768734685E+03 -0.94356843346E+03  0.99939307430E+03  0.12500000000E+03 0.  0.
         21    1    1    2  503  502 -0.64728152962E+02 -0.14659552469E+03 -0.48405906700E+03  0.50989524610E+03  0.00000000000E+00 0.  1.
         -1    1    1    2    0  503 -0.22030441302E+03  0.25428287155E+03 -0.32924188644E+03  0.47073775390E+03  0.00000000000E+00 0. -1.
<mgrwt>
<rscale>  4 0.40591208E+03</rscale>
<asrwt>0</asrwt>
<pdfrwt beam="1">  1       21 0.17165900E-01 0.40591208E+03</pdfrwt>
<pdfrwt beam="2">  1       -1 0.28745349E+00 0.40591208E+03</pdfrwt>
<totfact> 0.12414564E+02</totfact>
</mgrwt>
</event>
<event>
 5    0  0.1041609E-002  0.3228435E+03  0.7546771E-02  0.1074348E+00
          2   -1    0    0  502    0 -0.00000000000E+00  0.00000000000E+00  0.14760724264E+04  0.14760724264E+04  0.00000000000E+00 0.  1.
         21   -1    0    0  503  502  0.00000000000E+00 -0.00000000000E+00 -0.84993841949E+02  0.84993841949E+02  0.00000000000E+00 0.  1.
         25    1    1    2    0    0  0.22614625634E+03 -0.17524022900E+02  0.21115852196E+03  0.33415885748E+03  0.12500000000E+03 0.  0.
         21    1    1    2  503  501 -0.17056490472E+02  0.21406703634E+02  0.73266418548E+03  0.73317527203E+03  0.00000000000E+00 0. -1.
          2    1    1    2  501    0 -0.20908976587E+03 -0.38826807336E+01  0.44725587700E+03  0.49373213883E+03  0.00000000000E+00 0.  1.
<mgrwt>
<rscale>  4 0.32284353E+03</rscale>
<asrwt>0</asrwt>
<pdfrwt beam="1">  1       21 0.13075977E-01 0.32284353E+03</pdfrwt>
<pdfrwt beam="2">  1        2 0.22708805E+00 0.32284353E+03</pdfrwt>
<totfact> 0.87353093E+03</totfact>
</mgrwt>
</event>
<event>
 5    0  0.1041609E-002  0.5836726E+03  0.7546771E-02  0.9939871E-01
         21   -1    0    0  501  502  0.00000000000E+00  0.00000000000E+00  0.17407473744E+03  0.17407473744E+03  0.00000000000E+00 0. -1.
         -3   -1    0    0    0  501 -0.00000000000E+00 -0.00000000000E+00 -0.10259126487E+04  0.10259126487E+04  0.00000000000E+00 0. -1.
         25    1    1    2    0    0 -0.17085039798E+03  0.17587335858E+03 -0.41095683915E+03  0.49460268943E+03  0.12500000000E+03 0.  0.
         21    1    1    2  503  502  0.19854523917E+03 -0.23504110828E+03 -0.51912551041E+03  0.60345325431E+03  0.00000000000E+00 0. -1.
         -3    1    1    2    0  503 -0.27694841196E+02  0.59167749693E+02  0.78244438272E+02  0.10193144242E+03  0.00000000000E+00 0. -1.
<mgrwt>
<rscale>  4 0.58367258E+03</rscale>
<asrwt>0</asrwt>
<pdfrwt beam="1">  1       21 0.26780729E-01 0.58367258E+03</pdfrwt>
<pdfrwt beam="2">  1       -3 0.15783272E+00 0.58367258E+03</pdfrwt>
<totfact> 0.18462089E+02</totfact>
</mgrwt>
</event>
<event>
 5    0  0.1041609E-002  0.3001677E+03  0.7546771E-02  0.1085157E+00
         21   -1    0    0  503  502  0.00000000000E+00  0.00000000000E+00  0.17648114010E+03  0.17648114010E+03  0.00000000000E+00 0.  1.
          2   -1    0    0  502    0 -0.00000000000E+00 -0.00000000000E+00 -0.78410938399E+03  0.78410938399E+03  0.00000000000E+00 0.  1.
         25    1    1    2    0    0 -0.26378387908E+03 -0.17874392619E+02 -0.45227613775E+03  0.53859087771E+03  0.12500000000E+03 0.  0.
         21    1    1    2  503  501  0.14391199988E+02 -0.45470073041E+02 -0.15762057003E+03  0.16467810503E+03  0.00000000000E+00 0.  1.
          2    1    1    2  501    0  0.24939267909E+03  0.63344465660E+02  0.22684638946E+01  0.25732154135E+03  0.00000000000E+00 0.  1.
<mgrwt>
<rscale>  4 0.30016773E+03</rscale>
<asrwt>0</asrwt>
<pdfrwt beam="1">  1       21 0.27150944E-01 0.30016773E+03</pdfrwt>
<pdfrwt beam="2">  1        2 0.12063222E+00 0.30016773E+03</pdfrwt>
<totfact> 0.57679234E+03</totfact>
</mgrwt>
</event>
<event>
 5    0  0.1041609E-002  0.3523654E+03  0.7546771E-02  0.1061648E+00
          3   -1    0    0  502    0 -0.00000000000E+00  0.00000000000E+00  0.10624890808E+03  0.10624890808E+03  0.00000000000E+00 0.  1.
         21   -1    0    0  503  502  0.00000000000E+00 -0.00000000000E+00 -0.17766689205E+04  0.17766689205E+04  0.00000000000E+00 0.  1.
         25    1    1    2    0    0  0.18503891198E+03 -0.13708229854E+03 -0.12235645037E+04  0.12513057381E+04  0.12500000000E+03 0.  0.
         21    1    1    2  503  501 -0.44679162932E+02 -0.12059221805E+03 -0.24104543658E+03  0.27320617333E+03  0.00000000000E+00 0. -1.
          3    1    1    2  501    0 -0.14035974905E+03  0.25767451659E+03 -0.20581007216E+03  0.35840591716E+03  0.00000000000E+00 0.  1.
<mgrwt>
<rscale>  4 0.35236536E+03</rscale>
<asrwt>0</asrwt>
<pdfrwt beam="1">  1       21 0.27333369E+00 0.35236536E+03</pdfrwt>
<pdfrwt beam="2">  1        3 0.16345985E-01 0.35236536E+03</pdfrwt>
<totfact> 0.69851943E+01</totfact>
</mgrwt>
</event>
<event>
 5    0  0.1041609E-002  0.4631074E+03  0.7546771E-02  0.1023884E+00
         21   -1    0    0  503  502  0.00000000000E+00  0.00000000000E+00  0.53757172530E+03  0.53757172530E+03  0.00000000000E+00 0.  1.
          2   -1    0    0  502    0 -0.00000000000E+00 -0.00000000000E+00 -0.48562843517E+03  0.48562843517E+03  0.00000000000E+00 0.  1.
         25    1    1    2    0    0 -0.32010288574E+02 -0.33246772000E+03 -0.20738182481E+03  0.41254292465E+03  0.12500000000E+03 0.  0.
         21    1    1    2  503  501  0.16346774324E+03 -0.26961929841E+02  0.43544521045E+02  0.17130316416E+03  0.00000000000E+00 0.  1.
          2    1    1    2  501    0 -0.13145745466E+03  0.35942964984E+03  0.21578059390E+03  0.43935407165E+03  0.00000000000E+00 0.  1.
<mgrwt>
<rscale>  4 0.46310742E+03</rscale>
<asrwt>0</asrwt>
<pdfrwt beam="1">  1       21 0.82703343E-01 0.46310742E+03</pdfrwt>
<pdfrwt beam="2">  1        2 0.74712067E-01 0.46310742E+03</pdfrwt>
<totfact> 0.93573068E+02</totfact>
</mgrwt>
</event>
<event>
 5    0  0.1041609E-002  0.2382390E+03  0.7546771E-02  0.1120972E+00
         21   -1    0    0  503  502  0.00000000000E+00  0.00000000000E+00  0.19504200777E+03  0.19504200777E+03  0.00000000000E+00 0.  1.
          1   -1    0    0  502    0 -0.00000000000E+00 -0.00000000000E+00 -0.12721782551E+04  0.12721782551E+04  0.00000000000E+00 0.  1.
         25    1    1    2    0    0  0.24616301242E+03  0.55784197153E+02 -0.67386400162E+03  0.73036004684E+03  0.12500000000E+03 0.  0.
         21    1    1    2  503  501 -0.11097830019E+03 -0.32398807890E+02 -0.53459069132E+03  0.54694887614E+03  0.00000000000E+00 0. -1.
          1    1    1    2  501    0 -0.13518471223E+03 -0.23385389264E+02  0.13131844563E+03  0.18991133988E+03  0.00000000000E+00 0.  1.
<mgrwt>
<rscale>  4 0.23823897E+03</rscale>
<asrwt>0</asrwt>
<pdfrwt beam="1">  1       21 0.30006463E-01 0.23823897E+03</pdfrwt>
<pdfrwt beam="2">  1        1 0.19571973E+00 0.23823897E+03</pdfrwt>
<totfact> 0.11991671E+03</totfact>
</mgrwt>
</event>
<event>
 5    0  0.1041609E-002  0.4178766E+03  0.7546771E-02  0.1037760E+00
         21   -1    0    0  503  502  0.00000000000E+00  0.00000000000E+00  0.28540689152E+03  0.28540689152E+03  0.00000000000E+00 0.  1.
          2   -1    0    0  502    0 -0.00000000000E+00 -0.00000000000E+00 -0.10379166165E+04  0.10379166165E+04  0.00000000000E+00 0.  1.
         25    1    1    2    0    0 -0.25000172230E+03 -0.14648807895E+03  0.40721087418E+02  0.31818677752E+03  0.12500000000E+03 0.  0.
         21    1    1    2  503  501  0.68786859929E+01 -0.14282561578E+03 -0.19847416018E+02  0.14436201982E+03  0.00000000000E+00 0.  1.
          2    1    1    2  501    0  0.24312303631E+03  0.28931369473E+03 -0.77338339639E+03  0.86077471069E+03  0.00000000000E+00 0.  1.
<mgrwt>
<rscale>  4 0.41787658E+03</rscale>
<asrwt>0</asrwt>
<pdfrwt beam="1">  1       21 0.43908752E-01 0.41787658E+03</pdfrwt>
<pdfrwt beam="2">  1        2 0.15967948E+00 0.41787658E+03</pdfrwt>
<totfact> 0.14528801E+03</totfact>
</mgrwt>
</event>
<event>
 5    0  0.1041609E-002  0.3172231E+03  0.7546771E-02  0.1076934E+00
         -2   -1    0    0    0  501 -0.00000000000E+00  0.00000000000E+00  0.15091643590E+03  0.15091643590E+03  0.00000000000E+00 0. -1.
         21   -1    0    0  501  502  0.00000000000E+00 -0.00000000000E+00 -0.14531083268E+04  0.14531083268E+04  0.00000000000E+00 0. -1.
         25    1    1    2    0    0  0.20621515141E+03  0.12298272969E+03 -0.42718031919E+03  0.50572469346E+03  0.12500000000E+03 0.  0.
         21    1    1    2  503  502 -0.18726057292E+02 -0.10844751528E+02 -0.87952204491E+03  0.87978821391E+03  0.00000000000E+00 0. -1.
         -2    1    1    2    0  503 -0.18748909412E+03 -0.11213797817E+03  0.45104731770E+01  0.21851185535E+03  0.00000000000E+00 0. -1.
<mgrwt>
<rscale>  4 0.31722307E+03</rscale>
<asrwt>0</asrwt>
<pdfrwt beam="1">  1       21 0.22355512E+00 0.31722307E+03</pdfrwt>
<pdfrwt beam="2">  1       -2 0.23217914E-01 0.31722307E+03</pdfrwt>
<totfact> 0.11384584E+02</totfact>
</mgrwt>
</event>
<event>
 5    0  0.1041609E-002  0.3180610E+03  0.7546771E-02  0.1076545E+00
          2   -1    0    0  502    0 -0.00000000000E+00  0.00000000000E+00  0.48768050139E+04  0.48768050139E+04  0.00000000000E+00 0.  1.
         21   -1    0    0  503  502  0.00000000000E+00 -0.00000000000E+00 -0.62243375879E+02  0.62243375879E+02  0.00000000000E+00 0.  1.
         25    1    1    2    0    0  0.11765225589E+03 -0.17179791623E+03  0.26561081781E+04  0.26671880757E+04  0.12500000000E+03 0.  0.
         21    1    1    2  503  501  0.12371026975E+03  0.94409544172E+02  0.19120227353E+04  0.19183452070E+04  0.00000000000E+00 0. -1.
          2    1    1    2  501    0 -0.24136252564E+03  0.77388372056E+02  0.24643072463E+03  0.35351510711E+03  0.00000000000E+00 0.  1.
<mgrwt>
<rscale>  4 0.31806097E+03</rscale>
<asrwt>0</asrwt>
<pdfrwt beam="1">  1       21 0.95759078E-02 0.31806097E+03</pdfrwt>
<pdfrwt beam="2">  1        2 0.75027740E+00 0.31806097E+03</pdfrwt>
<totfact> 0.74712867E+01</totfact>
</mgrwt>
</event>
<event>
 5    0  0.1041609E-002  0.3959290E+03  0.7546771E-02  0.1045199E+00
          2   -1    0    0  502    0 -0.00000000000E+00  0.00000000000E+00  0.21687717926E+04  0.21687717926E+04  0.00000000000E+00 0. -1.
         21   -1    0    0  503  502  0.00000000000E+00 -0.00000000000E+00 -0.89586297702E+02  0.89586297702E+02  0.00000000000E+00 0. -1.
         25    1    1    2    0    0  0.15422323097E+03  0.27861748231E+03  0.34510148118E+03  0.48593470624E+03  0.12500000000E+03 0.  0.
         21    1    1    2  503  501  0.11465112575E+02 -0.43293489305E+02  0.62511817013E+03  0.62672043341E+03  0.00000000000E+00 0.  1.
          2    1    1    2  501    0 -0.16568834355E+03 -0.23532399301E+03  0.11089658436E+04  0.11457029506E+04  0.00000000000E+00 0. -1.
<mgrwt>
<rscale>  4 0.39592896E+03</rscale>
<asrwt>0</asrwt>
<pdfrwt beam="1">  1       21 0.13782509E-01 0.39592896E+03</pdfrwt>
<pdfrwt beam="2">  1        2 0.33365716E+00 0.39592896E+03</pdfrwt>
<totfact> 0.33197789E+03</totfact>
</mgrwt>
</event>
<event>
 5    0  0.1041609E-002  0.3615407E+03  0.7546771E-02  0.1057975E+00
          2   -1    0    0  502    0 -0.00000000000E+00  0.00000000000E+00  0.45446073188E+03  0.45446073188E+03  0.00000000000E+00 0. -1.
         21   -1    0    0  503  502  0.00000000000E+00 -0.00000000000E+00 -0.59336683778E+03  0.59336683778E+03  0.00000000000E+00 0. -1.
         25    1    1    2    0    0  0.11930249901E+03 -0.21211076710E+03  0.22402816522E+03  0.35360667782E+03  0.12500000000E+03 0.  0.
         21    1    1    2  503  501  0.10324092566E+03 -0.43302059935E+02  0.79264864213E+02  0.13717388900E+03  0.00000000000E+00 0.  1.
          2    1    1    2  501    0 -0.22254342466E+03  0.25541282704E+03 -0.44219913533E+03  0.55704700283E+03  0.00000000000E+00 0. -1.
<mgrwt>
<rscale>  4 0.36154066E+03</rscale>
<asrwt>0</asrwt>
<pdfrwt beam="1">  1       21 0.91287206E-01 0.36154066E+03</pdfrwt>
<pdfrwt beam="2">  1        2 0.69917036E-01 0.36154066E+03</pdfrwt>
<totfact> 0.82143489E+02</totfact>
</mgrwt>
</event>
<event>
 5    0  0.1041609E-002  0.5222936E+03  0.7546771E-02  0.1008118E+00
          2   -1    0    0  502    0 -0.00000000000E+00  0.00000000000E+00  0.18747082223E+04  0.18747082223E+04  0.00000000000E+00 0. -1.
         21   -1    0    0  503  502  0.00000000000E+00 -0.00000000000E+00 -0.15183051274E+03  0.15183051274E+03  0.00000000000E+00 0. -1.
         25    1    1    2    0    0  0.97101873312E+02  0.37150142322E+03  0.98747952954E+03  0.10668565520E+04  0.12500000000E+03 0.  0.
         21    1    1    2  503  501  0.12690446316E+03  0.50805685786E+02  0.13381593880E+03  0.19129209590E+03  0.00000000000E+00 0.  1.
          2    1    1    2  501    0 -0.22400633647E+03 -0.42230710900E+03  0.60158224124E+03  0.76839008717E+03  0.00000000000E+00 0. -1.
<mgrwt>
<rscale>  4 0.52229356E+03</rscale>
<asrwt>0</asrwt>
<pdfrwt beam="1">  1       21 0.23358542E-01 0.52229356E+03</pdfrwt>
<pdfrwt beam="2">  1        2 0.28841663E+00 0.52229356E+03</pdfrwt>
<totfact> 0.17114365E+03</totfact>
</mgrwt>
</event>
<event>
 5    0  0.1041609E-002  0.4861067E+03  0.7546771E-02  0.1017470E+00
         21   -1    0    0  503  502  0.00000000000E+00  0.00000000000E+00  0.13594763241E+03  0.13594763241E+03  0.00000000000E+00 0. -1.
          3   -1    0    0  502    0 -0.00000000000E+00 -0.00000000000E+00 -0.18410952873E+04  0.18410952873E+04  0.00000000000E+00 0. -1.
         25    1    1    2    0    0 -0.37193529773E+03  0.18732169801E+03 -0.53499464023E+03  0.68939796150E+03  0.12500000000E+03 0.  0.
         21    1    1    2  503  501 -0.56081694016E+02 -0.75716514938E+02 -0.17952565591E+03  0.20275011262E+03  0.00000000000E+00 0.  1.
          3    1    1    2  501    0  0.42801699174E+03 -0.11160518307E+03 -0.99062735872E+03  0.10848948456E+04  0.00000000000E+00 0. -1.
<mgrwt>
<rscale>  4 0.48610670E+03</rscale>
<asrwt>0</asrwt>
<pdfrwt beam="1">  1       21 0.20915019E-01 0.48610670E+03</pdfrwt>
<pdfrwt beam="2">  1        3 0.28324544E+00 0.48610670E+03</pdfrwt>
<totfact> 0.52980908E+01</totfact>
</mgrwt>
</event>
<event>
 5    0  0.1041609E-002  0.5319527E+03  0.7546771E-02  0.1005760E+00
         21   -1    0    0  503  502  0.00000000000E+00  0.00000000000E+00  0.59110791280E+03  0.59110791280E+03  0.00000000000E+00 0. -1.
          2   -1    0    0  502    0 -0.00000000000E+00 -0.00000000000E+00 -0.64181303081E+03  0.64181303081E+03  0.00000000000E+00 0. -1.
         25    1    1    2    0    0  0.27769337991E+03  0.21788879691E+03  0.34293932969E+02  0.37601890232E+03  0.12500000000E+03 0.  0.
         21    1    1    2  503  501  0.31286373444E+01  0.15758240615E+03  0.23948778595E+03  0.28669915019E+03  0.00000000000E+00 0. -1.
          2    1    1    2  501    0 -0.28082201725E+03 -0.37547120305E+03 -0.32448683693E+03  0.57020289111E+03  0.00000000000E+00 0. -1.
<mgrwt>
<rscale>  4 0.53195273E+03</rscale>
<asrwt>0</asrwt>
<pdfrwt beam="1">  1       21 0.90939679E-01 0.53195273E+03</pdfrwt>
<pdfrwt beam="2">  1        2 0.98740466E-01 0.53195273E+03</pdfrwt>
<totfact> 0.53102523E+02</totfact>
</mgrwt>
</event>
<event>
 5    0  0.1041609E-002  0.6664549E+03  0.7546771E-02  0.9776383E-01
         21   -1    0    0  503  502  0.00000000000E+00  0.00000000000E+00  0.70858565354E+03  0.70858565354E+03  0.00000000000E+00 0.  1.
          1   -1    0    0  502    0 -0.00000000000E+00 -0.00000000000E+00 -0.68927074335E+03  0.68927074335E+03  0.00000000000E+00 0.  1.
         25    1    1    2    0    0  0.22408053352E+03 -0.52386146425E+03 -0.10560125396E+03  0.59280649800E+03  0.12500000000E+03 0.  0.
         21    1    1    2  503  501 -0.32839076016E+02 -0.85545758916E+02 -0.92642420636E+02  0.13030387517E+03  0.00000000000E+00 0. -1.
          1    1    1    2  501    0 -0.19124145750E+03  0.60940722317E+03  0.21755858478E+03  0.67474602372E+03  0.00000000000E+00 0.  1.
<mgrwt>
<rscale>  4 0.66645487E+03</rscale>
<asrwt>0</asrwt>
<pdfrwt beam="1">  1       21 0.10901318E+00 0.66645487E+03</pdfrwt>
<pdfrwt beam="2">  1        1 0.10604165E+00 0.66645487E+03</pdfrwt>
<totfact> 0.17875785E+02</totfact>
</mgrwt>
</event>
