<event>
 5    0  0.1257040E+001  0.2914714E+03  0.7546771E-02  0.1089583E+00
         21   -1    0    0  502  501  0.00000000000E+00  0.00000000000E+00  0.12967443215E+03  0.12967443215E+03  0.00000000000E+00 0. -1.
         21   -1    0    0  504  502 -0.00000000000E+00 -0.00000000000E+00 -0.15556873927E+04  0.15556873927E+04  0.00000000000E+00 0. -1.
         25    1    1    2    0    0  0.19120028710E+03 -0.24335132724E+03 -0.96093525204E+03  0.10172506952E+04  0.12500000000E+03 0.  0.
         21    1    1    2  503  501 -0.98263211220E+02  0.23740902082E+03 -0.75857491727E+02  0.26790494750E+03  0.00000000000E+00 0. -1.
         21    1    1    2  504  503 -0.92937075875E+02  0.59423064225E+01 -0.38922021678E+03  0.40020618214E+03  0.00000000000E+00 0.  1.
<mgrwt>
<rscale>  4 0.29147139E+03</rscale>
<asrwt>0</asrwt>
<pdfrwt beam="1">  1       21 0.19949913E-01 0.29147139E+03</pdfrwt>
<pdfrwt beam="2">  1       21 0.23933652E+00 0.29147139E+03</pdfrwt>
<totfact> 0.16260622E+03</totfact>
</mgrwt>
</event>
<event>
 5    0  0.1257040E+001  0.3361357E+03  0.7546771E-02  0.1068454E+00
         21   -1    0    0  504  501  0.00000000000E+00  0.00000000000E+00  0.92568057780E+03  0.92568057780E+03  0.00000000000E+00 0. -1.
         21   -1    0    0  503  502 -0.00000000000E+00 -0.00000000000E+00 -0.22898000293E+03  0.22898000293E+03  0.00000000000E+00 0. -1.
         25    1    1    2    0    0 -0.18494210959E+03 -0.22081283024E+03 -0.56437355977E+02  0.31901734286E+03  0.12500000000E+03 0.  0.
         21    1    1    2  503  501 -0.23019564515E+02 -0.17354399726E+02  0.14697596152E+02  0.32358845359E+02  0.00000000000E+00 0.  1.
         21    1    1    2  504  502  0.20796167411E+03  0.23816722996E+03  0.73844033470E+03  0.80328439250E+03  0.00000000000E+00 0. -1.
<mgrwt>
<rscale>  4 0.33613574E+03</rscale>
<asrwt>0</asrwt>
<pdfrwt beam="1">  1       21 0.14241239E+00 0.33613574E+03</pdfrwt>
<pdfrwt beam="2">  1       21 0.35227693E-01 0.33613574E+03</pdfrwt>
<totfact> 0.24061426E+03</totfact>
</mgrwt>
</event>
<event>
 5    0  0.1257040E+001  0.2653043E+03  0.7546771E-02  0.1103998E+00
         21   -1    0    0  503  501  0.00000000000E+00  0.00000000000E+00  0.10766514859E+03  0.10766514859E+03  0.00000000000E+00 0.  1.
         21   -1    0    0  504  502 -0.00000000000E+00 -0.00000000000E+00 -0.78972133735E+03  0.78972133735E+03  0.00000000000E+00 0.  1.
         25    1    1    2    0    0  0.16868889953E+03  0.13935316882E+03 -0.17005345374E+03  0.30400399276E+03  0.12500000000E+03 0.  0.
         21    1    1    2  503  502 -0.18458086442E+03 -0.15341673151E+03 -0.51835949670E+03  0.57122968834E+03  0.00000000000E+00 0.  1.
         21    1    1    2  504  501  0.15891964884E+02  0.14063562696E+02  0.63567616848E+01  0.22152804849E+02  0.00000000000E+00 0.  1.
<mgrwt>
<rscale>  4 0.26530433E+03</rscale>
<asrwt>0</asrwt>
<pdfrwt beam="1">  1       21 0.16563869E-01 0.26530433E+03</pdfrwt>
<pdfrwt beam="2">  1       21 0.12149559E+00 0.26530433E+03</pdfrwt>
<totfact> 0.16060952E+04</totfact>
</mgrwt>
</event>
<event>
 5    0  0.1257040E+001  0.3497645E+03  0.7546771E-02  0.1062712E+00
         21   -1    0    0  504  501  0.00000000000E+00  0.00000000000E+00  0.16307327305E+03  0.16307327305E+03  0.00000000000E+00 0.  1.
         21   -1    0    0  503  502 -0.00000000000E+00 -0.00000000000E+00 -0.89714696462E+03  0.89714696462E+03  0.00000000000E+00 0.  1.
         25    1    1    2    0    0  0.32640646967E+03 -0.12524653208E+03 -0.41827610738E+03  0.55929221275E+03  0.12500000000E+03 0.  0.
         21    1    1    2  503  501 -0.29173014633E+03  0.96489133152E+02 -0.33263185514E+03  0.45283615375E+03  0.00000000000E+00 0.  1.
         21    1    1    2  504  502 -0.34676323341E+02  0.28757398930E+02  0.16834270949E+02  0.48091871164E+02  0.00000000000E+00 0.  1.
<mgrwt>
<rscale>  4 0.34976454E+03</rscale>
<asrwt>0</asrwt>
<pdfrwt beam="1">  1       21 0.25088196E-01 0.34976454E+03</pdfrwt>
<pdfrwt beam="2">  1       21 0.13802261E+00 0.34976454E+03</pdfrwt>
<totfact> 0.50728860E+03</totfact>
</mgrwt>
</event>
<event>
 5    0  0.1257040E+001  0.2752334E+03  0.7546771E-02  0.1098321E+00
         21   -1    0    0  504  501  0.00000000000E+00  0.00000000000E+00  0.10340286590E+04  0.10340286590E+04  0.00000000000E+00 0. -1.
         21   -1    0    0  503  502 -0.00000000000E+00 -0.00000000000E+00 -0.10136497635E+03  0.10136497635E+03  0.00000000000E+00 0. -1.
         25    1    1    2    0    0 -0.37471406651E+02  0.21702042205E+03  0.28419530420E+03  0.38064936731E+03  0.12500000000E+03 0.  0.
         21    1    1    2  503  501  0.57426976207E+02 -0.26658555507E+03  0.31336321003E+03  0.41540608706E+03  0.00000000000E+00 0. -1.
         21    1    1    2  504  502 -0.19955569556E+02  0.49565133014E+02  0.33510516842E+03  0.33933818098E+03  0.00000000000E+00 0.  1.
<mgrwt>
<rscale>  4 0.27523341E+03</rscale>
<asrwt>0</asrwt>
<pdfrwt beam="1">  1       21 0.15908133E+00 0.27523341E+03</pdfrwt>
<pdfrwt beam="2">  1       21 0.15594612E-01 0.27523341E+03</pdfrwt>
<totfact> 0.88374744E+03</totfact>
</mgrwt>
</event>
<event>
 5    0  0.1257040E+001  0.2777312E+03  0.7546771E-02  0.1096935E+00
         21   -1    0    0  504  501  0.00000000000E+00  0.00000000000E+00  0.93752047158E+02  0.93752047158E+02  0.00000000000E+00 0. -1.
         21   -1    0    0  501  502 -0.00000000000E+00 -0.00000000000E+00 -0.11118408958E+04  0.11118408958E+04  0.00000000000E+00 0. -1.
         25    1    1    2    0    0 -0.23970046850E+03  0.79681898323E+01 -0.61123912433E+03  0.66839963627E+03  0.12500000000E+03 0.  0.
         21    1    1    2  503  502 -0.60697262714E+01 -0.76341047797E+02 -0.18078659680E+03  0.19633795033E+03  0.00000000000E+00 0.  1.
         21    1    1    2  504  503  0.24577019477E+03  0.68372857965E+02 -0.22606312751E+03  0.34085535637E+03  0.00000000000E+00 0. -1.
<mgrwt>
<rscale>  4 0.27773125E+03</rscale>
<asrwt>0</asrwt>
<pdfrwt beam="1">  1       21 0.14423392E-01 0.27773125E+03</pdfrwt>
<pdfrwt beam="2">  1       21 0.17105244E+00 0.27773125E+03</pdfrwt>
<totfact> 0.83336139E+03</totfact>
</mgrwt>
</event>
<event>
 5    0  0.1257040E+001  0.2134770E+03  0.7546771E-02  0.1138842E+00
         21   -1    0    0  502  501  0.00000000000E+00  0.00000000000E+00  0.15982627434E+04  0.15982627434E+04  0.00000000000E+00 0. -1.
         21   -1    0    0  504  502 -0.00000000000E+00 -0.00000000000E+00 -0.47097235290E+03  0.47097235290E+03  0.00000000000E+00 0. -1.
         25    1    1    2    0    0 -0.25819167281E+03 -0.12914506847E+03  0.37138285686E+03  0.48671512714E+03  0.12500000000E+03 0.  0.
         21    1    1    2  503  501  0.12540352764E+03  0.25259311630E+02  0.11483194594E+04  0.11554227185E+04  0.00000000000E+00 0. -1.
         21    1    1    2  504  503  0.13278814517E+03  0.10388575684E+03 -0.39241192581E+03  0.42709725062E+03  0.00000000000E+00 0. -1.
<mgrwt>
<rscale>  4 0.21347700E+03</rscale>
<asrwt>0</asrwt>
<pdfrwt beam="1">  1       21 0.24588657E+00 0.21347700E+03</pdfrwt>
<pdfrwt beam="2">  1       21 0.72457286E-01 0.21347700E+03</pdfrwt>
<totfact> 0.11714448E+02</totfact>
</mgrwt>
</event>
<event>
 5    0  0.1257040E+001  0.2675048E+03  0.7546771E-02  0.1102716E+00
         21   -1    0    0  503  501  0.00000000000E+00  0.00000000000E+00  0.21270842079E+03  0.21270842079E+03  0.00000000000E+00 0. -1.
         21   -1    0    0  504  502 -0.00000000000E+00 -0.00000000000E+00 -0.17440921962E+04  0.17440921962E+04  0.00000000000E+00 0. -1.
         25    1    1    2    0    0  0.22158371378E+03  0.45614962869E+01 -0.15763172716E+04  0.15967220454E+04  0.12500000000E+03 0.  0.
         21    1    1    2  503  502  0.15197204800E+02 -0.18472816825E+02 -0.85920634054E+02  0.89188313984E+02  0.00000000000E+00 0. -1.
         21    1    1    2  504  501 -0.23678091858E+03  0.13911320538E+02  0.13085413029E+03  0.27089025759E+03  0.00000000000E+00 0. -1.
<mgrwt>
<rscale>  4 0.26750483E+03</rscale>
<asrwt>0</asrwt>
<pdfrwt beam="1">  1       21 0.32724373E-01 0.26750483E+03</pdfrwt>
<pdfrwt beam="2">  1       21 0.26832188E+00 0.26750483E+03</pdfrwt>
<totfact> 0.42801887E+02</totfact>
</mgrwt>
</event>
<event>
 5    0  0.1257040E+001  0.3017048E+03  0.7546771E-02  0.1084392E+00
         21   -1    0    0  503  501  0.00000000000E+00  0.00000000000E+00  0.42676573348E+03  0.42676573348E+03  0.00000000000E+00 0. -1.
         21   -1    0    0  504  502 -0.00000000000E+00 -0.00000000000E+00 -0.23385440830E+03  0.23385440830E+03  0.00000000000E+00 0. -1.
         25    1    1    2    0    0  0.12569949085E+03  0.25800769099E+03  0.13214213747E+03  0.33978651402E+03  0.12500000000E+03 0.  0.
         21    1    1    2  503  502  0.91621378403E+01 -0.31391849506E+02 -0.27517108189E+02  0.42738556694E+02  0.00000000000E+00 0.  1.
         21    1    1    2  504  501 -0.13486162870E+03 -0.22661584149E+03  0.88286295902E+02  0.27809507107E+03  0.00000000000E+00 0. -1.
<mgrwt>
<rscale>  4 0.30170478E+03</rscale>
<asrwt>0</asrwt>
<pdfrwt beam="1">  1       21 0.65656266E-01 0.30170478E+03</pdfrwt>
<pdfrwt beam="2">  1       21 0.35977601E-01 0.30170478E+03</pdfrwt>
<totfact> 0.15007675E+04</totfact>
</mgrwt>
</event>
<event>
 5    0  0.1257040E+001  0.3765399E+03  0.7546771E-02  0.1052220E+00
         21   -1    0    0  502  501  0.00000000000E+00  0.00000000000E+00  0.38270655370E+03  0.38270655370E+03  0.00000000000E+00 0.  1.
         21   -1    0    0  504  502 -0.00000000000E+00 -0.00000000000E+00 -0.52680150780E+03  0.52680150780E+03  0.00000000000E+00 0. -1.
         25    1    1    2    0    0  0.14459606805E+03 -0.30763951792E+03 -0.26710278681E+03  0.45002110462E+03  0.12500000000E+03 0.  0.
         21    1    1    2  503  501 -0.11577264806E+03  0.34153744019E+03  0.16655292125E+03  0.39722915889E+03  0.00000000000E+00 0.  1.
         21    1    1    2  504  503 -0.28823419990E+02 -0.33897922275E+02 -0.43545088538E+02  0.62257797987E+02  0.00000000000E+00 0. -1.
<mgrwt>
<rscale>  4 0.37653987E+03</rscale>
<asrwt>0</asrwt>
<pdfrwt beam="1">  1       21 0.58877931E-01 0.37653987E+03</pdfrwt>
<pdfrwt beam="2">  1       21 0.81046386E-01 0.37653987E+03</pdfrwt>
<totfact> 0.32308980E+03</totfact>
</mgrwt>
</event>
<event>
 5    0  0.1257040E+001  0.3258754E+03  0.7546771E-02  0.1072977E+00
         21   -1    0    0  504  501  0.00000000000E+00  0.00000000000E+00  0.44363085497E+03  0.44363085497E+03  0.00000000000E+00 0.  1.
         21   -1    0    0  503  502 -0.00000000000E+00 -0.00000000000E+00 -0.42545307184E+03  0.42545307184E+03  0.00000000000E+00 0.  1.
         25    1    1    2    0    0 -0.30158753534E+03 -0.12752782106E+03 -0.21617934342E+03  0.41179715290E+03  0.12500000000E+03 0.  0.
         21    1    1    2  503  501  0.40486467399E+02 -0.11226993684E+02 -0.36983806690E+02  0.55973220265E+02  0.00000000000E+00 0.  1.
         21    1    1    2  504  502  0.26110106794E+03  0.13875481474E+03  0.27134093324E+03  0.40131355365E+03  0.00000000000E+00 0.  1.
<mgrwt>
<rscale>  4 0.32587536E+03</rscale>
<asrwt>0</asrwt>
<pdfrwt beam="1">  1       21 0.68250901E-01 0.32587536E+03</pdfrwt>
<pdfrwt beam="2">  1       21 0.65454319E-01 0.32587536E+03</pdfrwt>
<totfact> 0.38676350E+03</totfact>
</mgrwt>
</event>
<event>
 5    0  0.1257040E+001  0.3922210E+03  0.7546771E-02  0.1046507E+00
         21   -1    0    0  504  501  0.00000000000E+00  0.00000000000E+00  0.96640219532E+03  0.96640219532E+03  0.00000000000E+00 0.  1.
         21   -1    0    0  501  502 -0.00000000000E+00 -0.00000000000E+00 -0.46653087463E+03  0.46653087463E+03  0.00000000000E+00 0. -1.
         25    1    1    2    0    0 -0.52339043503E+02 -0.20083928299E+03  0.57320291552E+03  0.62230408598E+03  0.12500000000E+03 0.  0.
         21    1    1    2  503  502  0.10443918490E+03 -0.19809225886E+03  0.21907299405E+03  0.31327474058E+03  0.00000000000E+00 0.  1.
         21    1    1    2  504  503 -0.52100141398E+02  0.39893154186E+03 -0.29240458888E+03  0.49735424339E+03  0.00000000000E+00 0. -1.
<mgrwt>
<rscale>  4 0.39222101E+03</rscale>
<asrwt>0</asrwt>
<pdfrwt beam="1">  1       21 0.14867726E+00 0.39222101E+03</pdfrwt>
<pdfrwt beam="2">  1       21 0.71773981E-01 0.39222101E+03</pdfrwt>
<totfact> 0.45898138E+02</totfact>
</mgrwt>
</event>
<event>
 5    0  0.1257040E+001  0.4109307E+03  0.7546771E-02  0.1040059E+00
         21   -1    0    0  502  501  0.00000000000E+00  0.00000000000E+00  0.23046682339E+04  0.23046682339E+04  0.00000000000E+00 0.  1.
         21   -1    0    0  504  502 -0.00000000000E+00 -0.00000000000E+00 -0.14436947301E+03  0.14436947301E+03  0.00000000000E+00 0. -1.
         25    1    1    2    0    0  0.18905407231E+02 -0.39953815193E+03  0.31455044704E+03  0.52398008836E+03  0.12500000000E+03 0.  0.
         21    1    1    2  503  501  0.70942343309E+02  0.38500670696E+03  0.17487889403E+04  0.17920730281E+04  0.00000000000E+00 0.  1.
         21    1    1    2  504  503 -0.89847750540E+02  0.14531444965E+02  0.96959373577E+02  0.13298459044E+03  0.00000000000E+00 0.  1.
<mgrwt>
<rscale>  4 0.41093070E+03</rscale>
<asrwt>0</asrwt>
<pdfrwt beam="1">  1       21 0.35456432E+00 0.41093070E+03</pdfrwt>
<pdfrwt beam="2">  1       21 0.22210690E-01 0.41093070E+03</pdfrwt>
<totfact> 0.24729759E+02</totfact>
</mgrwt>
</event>
<event>
 5    0  0.1257040E+001  0.2223496E+03  0.7546771E-02  0.1132143E+00
         21   -1    0    0  503  501  0.00000000000E+00  0.00000000000E+00  0.17105934233E+04  0.17105934233E+04  0.00000000000E+00 0. -1.
         21   -1    0    0  504  502 -0.00000000000E+00 -0.00000000000E+00 -0.21578787628E+03  0.21578787628E+03  0.00000000000E+00 0. -1.
         25    1    1    2    0    0 -0.21944125994E+03  0.46000278364E+02 -0.89311782902E+02  0.27179419924E+03  0.12500000000E+03 0.  0.
         21    1    1    2  503  502  0.38301790298E+02 -0.21860804299E+02 -0.13834384862E+02  0.46220256481E+02  0.00000000000E+00 0.  1.
         21    1    1    2  504  501  0.18113946965E+03 -0.24139474065E+02  0.15979517148E+04  0.16083668439E+04  0.00000000000E+00 0. -1.
<mgrwt>
<rscale>  4 0.22234957E+03</rscale>
<asrwt>0</asrwt>
<pdfrwt beam="1">  1       21 0.26316821E+00 0.22234957E+03</pdfrwt>
<pdfrwt beam="2">  1       21 0.33198136E-01 0.22234957E+03</pdfrwt>
<totfact> 0.46843788E+02</totfact>
</mgrwt>
</event>
<event>
 5    0  0.1257040E+001  0.3243546E+03  0.7546771E-02  0.1073662E+00
         21   -1    0    0  502  501  0.00000000000E+00  0.00000000000E+00  0.25501625638E+03  0.25501625638E+03  0.00000000000E+00 0. -1.
         21   -1    0    0  504  502 -0.00000000000E+00 -0.00000000000E+00 -0.95611208729E+03  0.95611208729E+03  0.00000000000E+00 0.  1.
         25    1    1    2    0    0 -0.25127674441E+03 -0.34366265701E+02 -0.62786495529E+03  0.68859309072E+03  0.12500000000E+03 0.  0.
         21    1    1    2  503  501  0.30718212840E+03 -0.95536189169E+01  0.10966275610E+03  0.32630974812E+03  0.00000000000E+00 0. -1.
         21    1    1    2  504  503 -0.55905383995E+02  0.43919884617E+02 -0.18289363171E+03  0.19622550483E+03  0.00000000000E+00 0. -1.
<mgrwt>
<rscale>  4 0.32435462E+03</rscale>
<asrwt>0</asrwt>
<pdfrwt beam="1">  1       21 0.39233270E-01 0.32435462E+03</pdfrwt>
<pdfrwt beam="2">  1       21 0.14709417E+00 0.32435462E+03</pdfrwt>
<totfact> 0.17867801E+03</totfact>
</mgrwt>
</event>
<event>
 5    0  0.1257040E+001  0.2705161E+03  0.7546771E-02  0.1100985E+00
         21   -1    0    0  504  501  0.00000000000E+00  0.00000000000E+00  0.35433367581E+03  0.35433367581E+03  0.00000000000E+00 0. -1.
         21   -1    0    0  503  502 -0.00000000000E+00 -0.00000000000E+00 -0.31504887962E+03  0.31504887962E+03  0.00000000000E+00 0. -1.
         25    1    1    2    0    0  0.69021089943E+02  0.22376783761E+03  0.49482489170E+02  0.27001754154E+03  0.12500000000E+03 0.  0.
         21    1    1    2  503  501 -0.12261791916E+03 -0.21158632645E+03 -0.12310801635E+03  0.27378734691E+03  0.00000000000E+00 0. -1.
         21    1    1    2  504  502  0.53596829215E+02 -0.12181511166E+02  0.11291032338E+03  0.12557766697E+03  0.00000000000E+00 0. -1.
<mgrwt>
<rscale>  4 0.27051608E+03</rscale>
<asrwt>0</asrwt>
<pdfrwt beam="1">  1       21 0.54512873E-01 0.27051608E+03</pdfrwt>
<pdfrwt beam="2">  1       21 0.48469058E-01 0.27051608E+03</pdfrwt>
<totfact> 0.12356303E+04</totfact>
</mgrwt>
</event>
<event>
 5    0  0.1257040E+001  0.1933859E+03  0.7546771E-02  0.1155442E+00
         21   -1    0    0  503  501  0.00000000000E+00  0.00000000000E+00  0.11172261762E+04  0.11172261762E+04  0.00000000000E+00 0.  1.
         21   -1    0    0  504  502 -0.00000000000E+00 -0.00000000000E+00 -0.20744042439E+03  0.20744042439E+03  0.00000000000E+00 0.  1.
         25    1    1    2    0    0 -0.14433913304E+03 -0.16740695123E+03  0.21986681610E+02  0.25488681177E+03  0.12500000000E+03 0.  0.
         21    1    1    2  503  502  0.45677173285E+02  0.62303950530E+02 -0.68153084089E+02  0.10301955776E+03  0.00000000000E+00 0.  1.
         21    1    1    2  504  501  0.98661959752E+02  0.10510300070E+03  0.95595215430E+03  0.96676023107E+03  0.00000000000E+00 0.  1.
<mgrwt>
<rscale>  4 0.19338588E+03</rscale>
<asrwt>0</asrwt>
<pdfrwt beam="1">  1       21 0.17188095E+00 0.19338588E+03</pdfrwt>
<pdfrwt beam="2">  1       21 0.31913912E-01 0.19338588E+03</pdfrwt>
<totfact> 0.19532159E+03</totfact>
</mgrwt>
</event>
<event>
 5    0  0.1257040E+001  0.2242353E+03  0.7546771E-02  0.1130764E+00
         21   -1    0    0  503  501  0.00000000000E+00  0.00000000000E+00  0.26943437919E+03  0.26943437919E+03  0.00000000000E+00 0.  1.
         21   -1    0    0  504  502 -0.00000000000E+00 -0.00000000000E+00 -0.27144924962E+03  0.27144924962E+03  0.00000000000E+00 0.  1.
         25    1    1    2    0    0  0.12023149522E+03  0.20802505142E+03 -0.26637016834E+02  0.27214805736E+03  0.12500000000E+03 0.  0.
         21    1    1    2  503  502 -0.23340351758E+02 -0.72803362777E+02 -0.44650784436E+02  0.88536965176E+02  0.00000000000E+00 0.  1.
         21    1    1    2  504  501 -0.96891143458E+02 -0.13522168864E+03  0.69272930838E+02  0.18019860628E+03  0.00000000000E+00 0.  1.
<mgrwt>
<rscale>  4 0.22423532E+03</rscale>
<asrwt>0</asrwt>
<pdfrwt beam="1">  1       21 0.41451443E-01 0.22423532E+03</pdfrwt>
<pdfrwt beam="2">  1       21 0.41761423E-01 0.22423532E+03</pdfrwt>
<totfact> 0.30422062E+04</totfact>
</mgrwt>
</event>
<event>
 5    0  0.1257040E+001  0.2583119E+03  0.7546771E-02  0.1108162E+00
         21   -1    0    0  503  501  0.00000000000E+00  0.00000000000E+00  0.61729945801E+03  0.61729945801E+03  0.00000000000E+00 0.  1.
         21   -1    0    0  504  502 -0.00000000000E+00 -0.00000000000E+00 -0.14059163870E+03  0.14059163870E+03  0.00000000000E+00 0.  1.
         25    1    1    2    0    0 -0.18482981085E+02 -0.20726682386E+03  0.32589769732E+03  0.40636863311E+03  0.12500000000E+03 0.  0.
         21    1    1    2  503  502  0.25710878444E+02  0.25801171797E+03  0.15141360561E+03  0.30026184547E+03  0.00000000000E+00 0.  1.
         21    1    1    2  504  501 -0.72278973595E+01 -0.50744894112E+02 -0.60348361824E+00  0.51260618131E+02  0.00000000000E+00 0.  1.
<mgrwt>
<rscale>  4 0.25831191E+03</rscale>
<asrwt>0</asrwt>
<pdfrwt beam="1">  1       21 0.94969146E-01 0.25831191E+03</pdfrwt>
<pdfrwt beam="2">  1       21 0.21629483E-01 0.25831191E+03</pdfrwt>
<totfact> 0.17806336E+04</totfact>
</mgrwt>
</event>
<event>
 5    0  0.1257040E+001  0.4604737E+03  0.7546771E-02  0.1024644E+00
         21   -1    0    0  502  501  0.00000000000E+00  0.00000000000E+00  0.91911534759E+03  0.91911534759E+03  0.00000000000E+00 0.  1.
         21   -1    0    0  504  502 -0.00000000000E+00 -0.00000000000E+00 -0.35198470294E+03  0.35198470294E+03  0.00000000000E+00 0.  1.
         25    1    1    2    0    0 -0.42329522067E+03  0.10244360721E+03  0.23811472324E+03  0.51185657945E+03  0.12500000000E+03 0.  0.
         21    1    1    2  503  501  0.43149727861E+03 -0.12233208499E+03  0.45060419957E+03  0.63576661216E+03  0.00000000000E+00 0.  1.
         21    1    1    2  504  503 -0.82020579383E+01  0.19888477776E+02 -0.12158827816E+03  0.12347685892E+03  0.00000000000E+00 0. -1.
<mgrwt>
<rscale>  4 0.46047366E+03</rscale>
<asrwt>0</asrwt>
<pdfrwt beam="1">  1       21 0.14140236E+00 0.46047366E+03</pdfrwt>
<pdfrwt beam="2">  1       21 0.54151493E-01 0.46047366E+03</pdfrwt>
<totfact> 0.94578533E+02</totfact>
</mgrwt>
</event>
<event>
 5    0  0.1257040E+001  0.2473864E+03  0.7546771E-02  0.1114968E+00
         21   -1    0    0  504  501  0.00000000000E+00  0.00000000000E+00  0.38655528551E+03  0.38655528551E+03  0.00000000000E+00 0.  1.
         21   -1    0    0  503  502 -0.00000000000E+00 -0.00000000000E+00 -0.23038427063E+03  0.23038427063E+03  0.00000000000E+00 0.  1.
         25    1    1    2    0    0 -0.22215201206E+03 -0.18198229332E+01  0.16673295583E+03  0.30459761453E+03  0.12500000000E+03 0.  0.
         21    1    1    2  503  501  0.21003098424E+03 -0.22527240127E+02 -0.89077396368E+02  0.22924936953E+03  0.00000000000E+00 0.  1.
         21    1    1    2  504  502  0.12121027822E+02  0.24347063060E+02  0.78515455424E+02  0.83092572084E+02  0.00000000000E+00 0.  1.
<mgrwt>
<rscale>  4 0.24738640E+03</rscale>
<asrwt>0</asrwt>
<pdfrwt beam="1">  1       21 0.59470044E-01 0.24738640E+03</pdfrwt>
<pdfrwt beam="2">  1       21 0.35443734E-01 0.24738640E+03</pdfrwt>
<totfact> 0.19667127E+04</totfact>
</mgrwt>
</event>
<event>
 5    0  0.1257040E+001  0.2083029E+03  0.7546771E-02  0.1142917E+00
         21   -1    0    0  503  501  0.00000000000E+00  0.00000000000E+00  0.25363405177E+02  0.25363405177E+02  0.00000000000E+00 0.  1.
         21   -1    0    0  501  502 -0.00000000000E+00 -0.00000000000E+00 -0.27762559210E+04  0.27762559210E+04  0.00000000000E+00 0.  1.
         25    1    1    2    0    0  0.15278652171E+03  0.14180975838E+03 -0.79940304058E+03  0.83553812006E+03  0.12500000000E+03 0.  0.
         21    1    1    2  503  504 -0.71449214849E+02 -0.39418281169E+02 -0.12394794076E+04  0.12421626275E+04  0.00000000000E+00 0.  1.
         21    1    1    2  504  502 -0.81337306866E+02 -0.10239147721E+03 -0.71201006762E+03  0.72391857863E+03  0.00000000000E+00 0.  1.
<mgrwt>
<rscale>  4 0.20830288E+03</rscale>
<asrwt>0</asrwt>
<pdfrwt beam="1">  1       21 0.39020650E-02 0.20830288E+03</pdfrwt>
<pdfrwt beam="2">  1       21 0.42711601E+00 0.20830288E+03</pdfrwt>
<totfact> 0.23449447E+03</totfact>
</mgrwt>
</event>
<event>
 5    0  0.1257040E+001  0.2012306E+03  0.7546771E-02  0.1148705E+00
         21   -1    0    0  504  501  0.00000000000E+00  0.00000000000E+00  0.39213798055E+02  0.39213798055E+02  0.00000000000E+00 0. -1.
         21   -1    0    0  503  502 -0.00000000000E+00 -0.00000000000E+00 -0.16553648563E+04  0.16553648563E+04  0.00000000000E+00 0. -1.
         25    1    1    2    0    0  0.12251645809E+02  0.20304893487E+03 -0.79366422630E+03  0.82879845372E+03  0.12500000000E+03 0.  0.
         21    1    1    2  503  501  0.48502089220E+01 -0.60722990423E+02 -0.58657987680E+03  0.58973448090E+03  0.00000000000E+00 0. -1.
         21    1    1    2  504  502 -0.17101854731E+02 -0.14232594445E+03 -0.23590695513E+03  0.27604571972E+03  0.00000000000E+00 0. -1.
<mgrwt>
<rscale>  4 0.20123056E+03</rscale>
<asrwt>0</asrwt>
<pdfrwt beam="1">  1       21 0.60328916E-02 0.20123056E+03</pdfrwt>
<pdfrwt beam="2">  1       21 0.25467154E+00 0.20123056E+03</pdfrwt>
<totfact> 0.12097106E+04</totfact>
</mgrwt>
</event>
<event>
 5    0  0.1257040E+001  0.3975525E+03  0.7546771E-02  0.1044630E+00
         21   -1    0    0  503  501  0.00000000000E+00  0.00000000000E+00  0.43237334374E+03  0.43237334374E+03  0.00000000000E+00 0.  1.
         21   -1    0    0  504  502 -0.00000000000E+00 -0.00000000000E+00 -0.12585949301E+04  0.12585949301E+04  0.00000000000E+00 0.  1.
         25    1    1    2    0    0 -0.24488313881E+03 -0.88829928172E+02 -0.54087716772E+03  0.61321417007E+03  0.12500000000E+03 0.  0.
         21    1    1    2  503  502 -0.15548156213E+03  0.74196098763E+02 -0.56401169115E+03  0.58973618253E+03  0.00000000000E+00 0.  1.
         21    1    1    2  504  501  0.40036470094E+03  0.14633829409E+02  0.27866727249E+03  0.48801792126E+03  0.00000000000E+00 0.  1.
<mgrwt>
<rscale>  4 0.39755248E+03</rscale>
<asrwt>0</asrwt>
<pdfrwt beam="1">  1       21 0.66518976E-01 0.39755248E+03</pdfrwt>
<pdfrwt beam="2">  1       21 0.19362999E+00 0.39755248E+03</pdfrwt>
<totfact> 0.25622840E+02</totfact>
</mgrwt>
</event>
<event>
 5    0  0.1257040E+001  0.3360681E+03  0.7546771E-02  0.1068483E+00
         21   -1    0    0  503  501  0.00000000000E+00  0.00000000000E+00  0.76757028273E+03  0.76757028273E+03  0.00000000000E+00 0. -1.
         21   -1    0    0  504  502 -0.00000000000E+00 -0.00000000000E+00 -0.17007348531E+03  0.17007348531E+03  0.00000000000E+00 0. -1.
         25    1    1    2    0    0 -0.31549898012E+02  0.32169141549E+03  0.22893145183E+03  0.41534969905E+03  0.12500000000E+03 0.  0.
         21    1    1    2  503  502  0.80058773739E+01 -0.30163517033E+03  0.22754360405E+03  0.37792057605E+03  0.00000000000E+00 0. -1.
         21    1    1    2  504  501  0.23544020638E+02 -0.20056245156E+02  0.14102174153E+03  0.14437349294E+03  0.00000000000E+00 0. -1.
<mgrwt>
<rscale>  4 0.33606814E+03</rscale>
<asrwt>0</asrwt>
<pdfrwt beam="1">  1       21 0.11808773E+00 0.33606814E+03</pdfrwt>
<pdfrwt beam="2">  1       21 0.26165152E-01 0.33606814E+03</pdfrwt>
<totfact> 0.70171191E+03</totfact>
</mgrwt>
</event>
<event>
 5    0  0.1257040E+001  0.3145861E+03  0.7546771E-02  0.1078168E+00
         21   -1    0    0  503  501  0.00000000000E+00  0.00000000000E+00  0.23345056553E+03  0.23345056553E+03  0.00000000000E+00 0.  1.
         21   -1    0    0  504  502 -0.00000000000E+00 -0.00000000000E+00 -0.57534915661E+03  0.57534915661E+03  0.00000000000E+00 0.  1.
         25    1    1    2    0    0  0.25420411081E+03  0.77480857978E+02 -0.22156800215E+01  0.29368847874E+03  0.12500000000E+03 0.  0.
         21    1    1    2  503  502 -0.28300889543E+03 -0.89892373045E+02 -0.36799478411E+03  0.47285815501E+03  0.00000000000E+00 0.  1.
         21    1    1    2  504  501  0.28804784616E+02  0.12411515067E+02  0.28311873059E+02  0.42253088397E+02  0.00000000000E+00 0. -1.
<mgrwt>
<rscale>  4 0.31458608E+03</rscale>
<asrwt>0</asrwt>
<pdfrwt beam="1">  1       21 0.35915472E-01 0.31458608E+03</pdfrwt>
<pdfrwt beam="2">  1       21 0.88515255E-01 0.31458608E+03</pdfrwt>
<totfact> 0.76037562E+03</totfact>
</mgrwt>
</event>
<event>
 5    0  0.1257040E+001  0.2507339E+03  0.7546771E-02  0.1112842E+00
         21   -1    0    0  503  501  0.00000000000E+00  0.00000000000E+00  0.10935821463E+04  0.10935821463E+04  0.00000000000E+00 0.  1.
         21   -1    0    0  504  502 -0.00000000000E+00 -0.00000000000E+00 -0.62686654590E+02  0.62686654590E+02  0.00000000000E+00 0.  1.
         25    1    1    2    0    0  0.18693394070E+03  0.11089710574E+03  0.31063926572E+03  0.39920448351E+03  0.12500000000E+03 0.  0.
         21    1    1    2  503  502 -0.26731743420E+02 -0.29565283903E+02  0.54681539327E+02  0.67666556449E+02  0.00000000000E+00 0.  1.
         21    1    1    2  504  501 -0.16020219728E+03 -0.81331821835E+02  0.66557468669E+03  0.68939776096E+03  0.00000000000E+00 0.  1.
<mgrwt>
<rscale>  4 0.25073386E+03</rscale>
<asrwt>0</asrwt>
<pdfrwt beam="1">  1       21 0.16824339E+00 0.25073386E+03</pdfrwt>
<pdfrwt beam="2">  1       21 0.96441015E-02 0.25073386E+03</pdfrwt>
<totfact> 0.18295155E+04</totfact>
</mgrwt>
</event>
<event>
 5    0  0.1257040E+001  0.1991503E+03  0.7546771E-02  0.1150458E+00
         21   -1    0    0  502  501  0.00000000000E+00  0.00000000000E+00  0.17605876832E+03  0.17605876832E+03  0.00000000000E+00 0.  1.
         21   -1    0    0  504  502 -0.00000000000E+00 -0.00000000000E+00 -0.77362265672E+03  0.77362265672E+03  0.00000000000E+00 0. -1.
         25    1    1    2    0    0 -0.21451886584E+03 -0.35627247907E+02 -0.62748477315E+03  0.67575867374E+03  0.12500000000E+03 0.  0.
         21    1    1    2  503  501  0.14523951090E+03  0.41758272721E+02  0.95139931790E+02  0.17857736555E+03  0.00000000000E+00 0.  1.
         21    1    1    2  504  503  0.69279354944E+02 -0.61310248139E+01 -0.65219047044E+02  0.95345385752E+02  0.00000000000E+00 0. -1.
<mgrwt>
<rscale>  4 0.19915034E+03</rscale>
<asrwt>0</asrwt>
<pdfrwt beam="1">  1       21 0.27085964E-01 0.19915034E+03</pdfrwt>
<pdfrwt beam="2">  1       21 0.11901887E+00 0.19915034E+03</pdfrwt>
<totfact> 0.69659884E+03</totfact>
</mgrwt>
</event>
<event>
 5    0  0.1257040E+001  0.4326810E+03  0.7546771E-02  0.1049222E+00
         21   -1    0    0  502  501  0.00000000000E+00  0.00000000000E+00  0.46933883326E+03  0.46933883326E+03  0.00000000000E+00 0. -1.
         21   -1    0    0  504  502 -0.00000000000E+00 -0.00000000000E+00 -0.94081755859E+03  0.94081755859E+03  0.00000000000E+00 0. -1.
         25    1    1    2    0    0 -0.19817556207E+03 -0.13476034236E+03 -0.40513604540E+03  0.48702578839E+03  0.12500000000E+03 0.  0.
         21    1    1    2  503  501  0.38104142904E+03  0.35918607217E+03  0.16878779616E+03  0.55017863028E+03  0.00000000000E+00 0. -1.
         21    1    1    2  504  503 -0.18286586697E+03 -0.22442572982E+03 -0.23513047610E+03  0.37295197317E+03  0.00000000000E+00 0. -1.
<mgrwt>
<rscale>  4 0.38466709E+03</rscale>
<asrwt>0</asrwt>
<pdfrwt beam="1">  1       21 0.72205975E-01 0.43268103E+03</pdfrwt>
<pdfrwt beam="2">  1       21 0.14474116E+00 0.43268103E+03</pdfrwt>
<totfact> 0.47668539E+02</totfact>
</mgrwt>
</event>
<event>
 5    0  0.1257040E+001  0.3297410E+03  0.7546771E-02  0.1071252E+00
         21   -1    0    0  502  501  0.00000000000E+00  0.00000000000E+00  0.12007540145E+03  0.12007540145E+03  0.00000000000E+00 0.  1.
         21   -1    0    0  504  502 -0.00000000000E+00 -0.00000000000E+00 -0.11883757234E+04  0.11883757234E+04  0.00000000000E+00 0.  1.
         25    1    1    2    0    0  0.30978810580E+02  0.32865258042E+03 -0.50843450573E+03  0.61895302886E+03  0.12500000000E+03 0.  0.
         21    1    1    2  503  501 -0.20485425480E+02 -0.28970459870E+03 -0.26905373746E+03  0.39590190806E+03  0.00000000000E+00 0.  1.
         21    1    1    2  504  503 -0.10493385100E+02 -0.38947981726E+02 -0.29081207877E+03  0.29359618793E+03  0.00000000000E+00 0.  1.
<mgrwt>
<rscale>  4 0.32974096E+03</rscale>
<asrwt>0</asrwt>
<pdfrwt beam="1">  1       21 0.18473138E-01 0.32974096E+03</pdfrwt>
<pdfrwt beam="2">  1       21 0.18282704E+00 0.32974096E+03</pdfrwt>
<totfact> 0.42334686E+03</totfact>
</mgrwt>
</event>
<event>
 5    0  0.1257040E+001  0.2312557E+03  0.7546771E-02  0.1125759E+00
         21   -1    0    0  503  501  0.00000000000E+00  0.00000000000E+00  0.25437901141E+03  0.25437901141E+03  0.00000000000E+00 0. -1.
         21   -1    0    0  504  502 -0.00000000000E+00 -0.00000000000E+00 -0.21712751224E+03  0.21712751224E+03  0.00000000000E+00 0. -1.
         25    1    1    2    0    0  0.18135970350E+03  0.94631039127E+02 -0.55244347579E+01  0.23979552748E+03  0.12500000000E+03 0.  0.
         21    1    1    2  503  502 -0.29182333738E+02  0.18388167547E+02 -0.81326150913E+01  0.35438294772E+02  0.00000000000E+00 0. -1.
         21    1    1    2  504  501 -0.15217736977E+03 -0.11301920667E+03  0.50908549021E+02  0.19627270139E+03  0.00000000000E+00 0. -1.
<mgrwt>
<rscale>  4 0.23125568E+03</rscale>
<asrwt>0</asrwt>
<pdfrwt beam="1">  1       21 0.39135232E-01 0.23125568E+03</pdfrwt>
<pdfrwt beam="2">  1       21 0.33404233E-01 0.23125568E+03</pdfrwt>
<totfact> 0.53386662E+04</totfact>
</mgrwt>
</event>
<event>
 5    0  0.1257040E+001  0.2952494E+03  0.7546771E-02  0.1087640E+00
         21   -1    0    0  502  501  0.00000000000E+00  0.00000000000E+00  0.12505906744E+04  0.12505906744E+04  0.00000000000E+00 0.  1.
         21   -1    0    0  504  502 -0.00000000000E+00 -0.00000000000E+00 -0.57169720533E+03  0.57169720533E+03  0.00000000000E+00 0.  1.
         25    1    1    2    0    0 -0.21470380531E+03  0.10501531908E+03  0.10144849259E+04  0.10497288251E+04  0.12500000000E+03 0.  0.
         21    1    1    2  503  501 -0.33983820927E+02 -0.40550515894E+01  0.18431184049E+03  0.18746252445E+03  0.00000000000E+00 0.  1.
         21    1    1    2  504  503  0.24868762624E+03 -0.10096026749E+03 -0.51990329735E+03  0.58509653020E+03  0.00000000000E+00 0.  1.
<mgrwt>
<rscale>  4 0.29524937E+03</rscale>
<asrwt>0</asrwt>
<pdfrwt beam="1">  1       21 0.19239856E+00 0.29524937E+03</pdfrwt>
<pdfrwt beam="2">  1       21 0.87953416E-01 0.29524937E+03</pdfrwt>
<totfact> 0.14890764E+02</totfact>
</mgrwt>
</event>
<event>
 5    0  0.1257040E+001  0.4023677E+03  0.7546771E-02  0.1042963E+00
         21   -1    0    0  503  501  0.00000000000E+00  0.00000000000E+00  0.47675216285E+03  0.47675216285E+03  0.00000000000E+00 0.  1.
         21   -1    0    0  501  502 -0.00000000000E+00 -0.00000000000E+00 -0.58807173752E+03  0.58807173752E+03  0.00000000000E+00 0.  1.
         25    1    1    2    0    0  0.33609468478E+03 -0.46892117172E+02  0.24852773709E+03  0.43880467624E+03  0.12500000000E+03 0.  0.
         21    1    1    2  503  504 -0.39272629162E+03  0.15626571855E+02 -0.39084182406E+03  0.55428824749E+03  0.00000000000E+00 0.  1.
         21    1    1    2  504  502  0.56631606842E+02  0.31265545317E+02  0.30994512297E+02  0.71730976642E+02  0.00000000000E+00 0. -1.
<mgrwt>
<rscale>  4 0.40236774E+03</rscale>
<asrwt>0</asrwt>
<pdfrwt beam="1">  1       21 0.73346487E-01 0.40236774E+03</pdfrwt>
<pdfrwt beam="2">  1       21 0.90472575E-01 0.40236774E+03</pdfrwt>
<totfact> 0.15172020E+03</totfact>
</mgrwt>
</event>
<event>
 5    0  0.1257040E+001  0.3866363E+03  0.7546771E-02  0.1048508E+00
         21   -1    0    0  502  501  0.00000000000E+00  0.00000000000E+00  0.76240853806E+03  0.76240853806E+03  0.00000000000E+00 0.  1.
         21   -1    0    0  504  502 -0.00000000000E+00 -0.00000000000E+00 -0.28704043311E+03  0.28704043311E+03  0.00000000000E+00 0. -1.
         25    1    1    2    0    0 -0.34582465562E+03 -0.48208633959E+02  0.41428444795E+03  0.55603540232E+03  0.12500000000E+03 0.  0.
         21    1    1    2  503  501 -0.22639794536E+02  0.16041796302E+01  0.11580116027E+03  0.11800441691E+03  0.00000000000E+00 0. -1.
         21    1    1    2  504  503  0.36846445016E+03  0.46604454329E+02 -0.54717503274E+02  0.37540915194E+03  0.00000000000E+00 0. -1.
<mgrwt>
<rscale>  4 0.38663628E+03</rscale>
<asrwt>0</asrwt>
<pdfrwt beam="1">  1       21 0.11729362E+00 0.38663628E+03</pdfrwt>
<pdfrwt beam="2">  1       21 0.44160067E-01 0.38663628E+03</pdfrwt>
<totfact> 0.24386293E+03</totfact>
</mgrwt>
</event>
<event>
 5    0  0.1257040E+001  0.1760089E+03  0.7546771E-02  0.1171722E+00
         21   -1    0    0  502  501  0.00000000000E+00  0.00000000000E+00  0.20257143353E+04  0.20257143353E+04  0.00000000000E+00 0.  1.
         21   -1    0    0  504  502 -0.00000000000E+00 -0.00000000000E+00 -0.12481717732E+04  0.12481717732E+04  0.00000000000E+00 0.  1.
         25    1    1    2    0    0 -0.21394261095E+03 -0.26603454900E+02  0.54505423599E+03  0.59932320559E+03  0.12500000000E+03 0.  0.
         21    1    1    2  503  501  0.11024860102E+03  0.37203698469E+02  0.14489646509E+04  0.14536290548E+04  0.00000000000E+00 0.  1.
         21    1    1    2  504  503  0.10369400993E+03 -0.10600243569E+02 -0.12164763247E+04  0.12209338481E+04  0.00000000000E+00 0.  1.
<mgrwt>
<rscale>  4 0.17600892E+03</rscale>
<asrwt>0</asrwt>
<pdfrwt beam="1">  1       21 0.31164836E+00 0.17600892E+03</pdfrwt>
<pdfrwt beam="2">  1       21 0.19202643E+00 0.17600892E+03</pdfrwt>
<totfact> 0.45992343E+00</totfact>
</mgrwt>
</event>
<event>
 5    0  0.1257040E+001  0.2195901E+03  0.7546771E-02  0.1134189E+00
         21   -1    0    0  504  501  0.00000000000E+00  0.00000000000E+00  0.25863829432E+03  0.25863829432E+03  0.00000000000E+00 0.  1.
         21   -1    0    0  503  502 -0.00000000000E+00 -0.00000000000E+00 -0.67176800514E+03  0.67176800514E+03  0.00000000000E+00 0. -1.
         25    1    1    2    0    0  0.78334697856E+02  0.21708701794E+03 -0.46595057585E+03  0.53478784334E+03  0.12500000000E+03 0.  0.
         21    1    1    2  503  501 -0.85454050341E+02 -0.39333383488E+02 -0.11669422967E+03  0.14989013648E+03  0.00000000000E+00 0. -1.
         21    1    1    2  504  502  0.71193524845E+01 -0.17775363445E+03  0.16951509470E+03  0.24572831964E+03  0.00000000000E+00 0.  1.
<mgrwt>
<rscale>  4 0.21959011E+03</rscale>
<asrwt>0</asrwt>
<pdfrwt beam="1">  1       21 0.39790507E-01 0.21959011E+03</pdfrwt>
<pdfrwt beam="2">  1       21 0.10334892E+00 0.21959011E+03</pdfrwt>
<totfact> 0.45241704E+03</totfact>
</mgrwt>
</event>
<event>
 5    0  0.1257040E+001  0.2366078E+03  0.7546771E-02  0.1122073E+00
         21   -1    0    0  502  501  0.00000000000E+00  0.00000000000E+00  0.35713359659E+03  0.35713359659E+03  0.00000000000E+00 0. -1.
         21   -1    0    0  504  502 -0.00000000000E+00 -0.00000000000E+00 -0.25690831139E+03  0.25690831139E+03  0.00000000000E+00 0.  1.
         25    1    1    2    0    0 -0.14464242220E+03 -0.15771295623E+03  0.22882733373E+03  0.33731551331E+03  0.12500000000E+03 0.  0.
         21    1    1    2  503  501  0.12460324681E+01  0.20227532963E+02  0.20127539720E+02  0.28562624912E+02  0.00000000000E+00 0.  1.
         21    1    1    2  504  503  0.14339638973E+03  0.13748542326E+03 -0.14872958824E+03  0.24816376975E+03  0.00000000000E+00 0.  1.
<mgrwt>
<rscale>  4 0.23660781E+03</rscale>
<asrwt>0</asrwt>
<pdfrwt beam="1">  1       21 0.54943630E-01 0.23660781E+03</pdfrwt>
<pdfrwt beam="2">  1       21 0.39524356E-01 0.23660781E+03</pdfrwt>
<totfact> 0.18813051E+04</totfact>
</mgrwt>
</event>
<event>
 5    0  0.1257040E+001  0.2902736E+03  0.7546771E-02  0.1090206E+00
         21   -1    0    0  502  501  0.00000000000E+00  0.00000000000E+00  0.38898884272E+03  0.38898884272E+03  0.00000000000E+00 0. -1.
         21   -1    0    0  504  502 -0.00000000000E+00 -0.00000000000E+00 -0.62382149438E+03  0.62382149438E+03  0.00000000000E+00 0. -1.
         25    1    1    2    0    0 -0.27881837230E+03  0.14543427298E+03  0.91721587354E+02  0.35061183962E+03  0.12500000000E+03 0.  0.
         21    1    1    2  503  501  0.29025937703E+02 -0.92373753767E+02  0.11609284088E+03  0.15117196548E+03  0.00000000000E+00 0. -1.
         21    1    1    2  504  503  0.24979243460E+03 -0.53060519214E+02 -0.44264707989E+03  0.51102653201E+03  0.00000000000E+00 0. -1.
<mgrwt>
<rscale>  4 0.29027363E+03</rscale>
<asrwt>0</asrwt>
<pdfrwt beam="1">  1       21 0.59844438E-01 0.29027363E+03</pdfrwt>
<pdfrwt beam="2">  1       21 0.95972537E-01 0.29027363E+03</pdfrwt>
<totfact> 0.21929568E+03</totfact>
</mgrwt>
</event>
<event>
 5    0  0.1257040E+001  0.2535464E+03  0.7546771E-02  0.1111084E+00
         21   -1    0    0  503  501  0.00000000000E+00  0.00000000000E+00  0.11072086072E+04  0.11072086072E+04  0.00000000000E+00 0. -1.
         21   -1    0    0  504  502 -0.00000000000E+00 -0.00000000000E+00 -0.11726910778E+04  0.11726910778E+04  0.00000000000E+00 0.  1.
         25    1    1    2    0    0 -0.94409511080E+02 -0.22828216054E+03 -0.81993330790E+03  0.86541408008E+03  0.12500000000E+03 0.  0.
         21    1    1    2  503  502  0.61069724413E+02  0.10486388907E+02 -0.31578397268E+03  0.32180583120E+03  0.00000000000E+00 0. -1.
         21    1    1    2  504  501  0.33339786668E+02  0.21779577163E+03  0.10702348100E+04  0.10926797737E+04  0.00000000000E+00 0. -1.
<mgrwt>
<rscale>  4 0.25354635E+03</rscale>
<asrwt>0</asrwt>
<pdfrwt beam="1">  1       21 0.17033979E+00 0.25354635E+03</pdfrwt>
<pdfrwt beam="2">  1       21 0.18041401E+00 0.25354635E+03</pdfrwt>
<totfact> 0.35205795E+01</totfact>
</mgrwt>
</event>
<event>
 5    0  0.1257040E+001  0.2589856E+03  0.7546771E-02  0.1107754E+00
         21   -1    0    0  502  501  0.00000000000E+00  0.00000000000E+00  0.14845116134E+04  0.14845116134E+04  0.00000000000E+00 0. -1.
         21   -1    0    0  504  502 -0.00000000000E+00 -0.00000000000E+00 -0.29973162034E+03  0.29973162034E+03  0.00000000000E+00 0. -1.
         25    1    1    2    0    0 -0.31365479232E+03  0.13305371864E+03  0.31575283407E+03  0.48104830632E+03  0.12500000000E+03 0.  0.
         21    1    1    2  503  501  0.15455418172E+03 -0.14841108101E+03  0.10442576305E+04  0.10660144666E+04  0.00000000000E+00 0. -1.
         21    1    1    2  504  503  0.15910061060E+03  0.15357362370E+02 -0.17523047150E+03  0.23718046087E+03  0.00000000000E+00 0. -1.
<mgrwt>
<rscale>  4 0.25898560E+03</rscale>
<asrwt>0</asrwt>
<pdfrwt beam="1">  1       21 0.22838640E+00 0.25898560E+03</pdfrwt>
<pdfrwt beam="2">  1       21 0.46112558E-01 0.25898560E+03</pdfrwt>
<totfact> 0.37385239E+02</totfact>
</mgrwt>
</event>
<event>
 5    0  0.1257040E+001  0.3607605E+03  0.7546771E-02  0.1058283E+00
         21   -1    0    0  504  501  0.00000000000E+00  0.00000000000E+00  0.77072122074E+03  0.77072122074E+03  0.00000000000E+00 0. -1.
         21   -1    0    0  503  502 -0.00000000000E+00 -0.00000000000E+00 -0.21225716455E+04  0.21225716455E+04  0.00000000000E+00 0. -1.
         25    1    1    2    0    0 -0.30801681222E+03  0.66453002048E+02  0.68977987430E+03  0.76857766887E+03  0.12500000000E+03 0.  0.
         21    1    1    2  503  501  0.32890221117E+03 -0.81532282695E+02 -0.20633689786E+04  0.20910083021E+04  0.00000000000E+00 0. -1.
         21    1    1    2  504  502 -0.20885398952E+02  0.15079280647E+02  0.21738679592E+02  0.33706895209E+02  0.00000000000E+00 0. -1.
<mgrwt>
<rscale>  4 0.36076050E+03</rscale>
<asrwt>0</asrwt>
<pdfrwt beam="1">  1       21 0.11857250E+00 0.36076050E+03</pdfrwt>
<pdfrwt beam="2">  1       21 0.32654948E+00 0.36076050E+03</pdfrwt>
<totfact> 0.10291586E+01</totfact>
</mgrwt>
</event>
<event>
 5    0  0.1257040E+001  0.2876519E+03  0.7546771E-02  0.1091581E+00
         21   -1    0    0  502  501  0.00000000000E+00  0.00000000000E+00  0.14065137171E+03  0.14065137171E+03  0.00000000000E+00 0. -1.
         21   -1    0    0  504  502 -0.00000000000E+00 -0.00000000000E+00 -0.21728846186E+04  0.21728846186E+04  0.00000000000E+00 0. -1.
         25    1    1    2    0    0  0.23058956926E+03 -0.14262117827E+02 -0.37691496942E+02  0.26536881203E+03  0.12500000000E+03 0.  0.
         21    1    1    2  503  501  0.30276210506E+02  0.29196242751E+02 -0.59460102322E+01  0.42478518702E+02  0.00000000000E+00 0. -1.
         21    1    1    2  504  503 -0.26086577977E+03 -0.14934124924E+02 -0.19885957397E+04  0.20056886595E+04  0.00000000000E+00 0. -1.
<mgrwt>
<rscale>  4 0.28765193E+03</rscale>
<asrwt>0</asrwt>
<pdfrwt beam="1">  1       21 0.21638673E-01 0.28765193E+03</pdfrwt>
<pdfrwt beam="2">  1       21 0.33428993E+00 0.28765193E+03</pdfrwt>
<totfact> 0.38241376E+02</totfact>
</mgrwt>
</event>
<event>
 5    0  0.1257040E+001  0.2345791E+03  0.7546771E-02  0.1123458E+00
         21   -1    0    0  504  501  0.00000000000E+00  0.00000000000E+00  0.12038499798E+04  0.12038499798E+04  0.00000000000E+00 0. -1.
         21   -1    0    0  503  502 -0.00000000000E+00 -0.00000000000E+00 -0.99270236156E+02  0.99270236156E+02  0.00000000000E+00 0. -1.
         25    1    1    2    0    0 -0.20524015600E+03  0.74294184790E+02  0.98150659594E+03  0.10132242325E+04  0.12500000000E+03 0.  0.
         21    1    1    2  503  501  0.19151089546E+03 -0.43088391919E+02  0.40321622566E+02  0.20039677104E+03  0.00000000000E+00 0. -1.
         21    1    1    2  504  502  0.13729260537E+02 -0.31205792871E+02  0.82751525160E+02  0.89499212399E+02  0.00000000000E+00 0. -1.
<mgrwt>
<rscale>  4 0.23457909E+03</rscale>
<asrwt>0</asrwt>
<pdfrwt beam="1">  1       21 0.18520768E+00 0.23457909E+03</pdfrwt>
<pdfrwt beam="2">  1       21 0.15272345E-01 0.23457909E+03</pdfrwt>
<totfact> 0.61573627E+03</totfact>
</mgrwt>
</event>
