<event>
 5    0  0.2159162E+000  0.4182409E+03  0.7546771E-02  0.1037640E+00
         21   -1    0    0  502  501  0.00000000000E+00  0.00000000000E+00  0.13116623589E+04  0.13116623589E+04  0.00000000000E+00 0.  1.
         21   -1    0    0  503  502 -0.00000000000E+00 -0.00000000000E+00 -0.18102465419E+03  0.18102465419E+03  0.00000000000E+00 0.  1.
         25    1    1    2    0    0  0.27204911896E+03 -0.29204398209E+03  0.96589541609E+03  0.10525584855E+04  0.12500000000E+03 0.  0.
         21    1    1    2  503  504 -0.26080642229E+03  0.26953063199E+03  0.17382039664E+03  0.41337668267E+03  0.00000000000E+00 0.  1.
         21    1    1    2  504  501 -0.11242696677E+02  0.22513350096E+02 -0.90781080062E+01  0.26751844910E+02  0.00000000000E+00 0.  1.
<mgrwt>
<rscale>  4 0.41824085E+03</rscale>
<asrwt>0</asrwt>
<pdfrwt beam="1">  1       21 0.20179420E+00 0.41824085E+03</pdfrwt>
<pdfrwt beam="2">  1       21 0.27849948E-01 0.41824085E+03</pdfrwt>
<totfact> 0.13703201E+03</totfact>
</mgrwt>
</event>
<event>
 5    0  0.2159162E+000  0.2500462E+03  0.7546771E-02  0.1113276E+00
         21   -1    0    0  502  501  0.00000000000E+00  0.00000000000E+00  0.91506556419E+02  0.91506556419E+02  0.00000000000E+00 0. -1.
         21   -1    0    0  503  502 -0.00000000000E+00 -0.00000000000E+00 -0.79056690586E+03  0.79056690586E+03  0.00000000000E+00 0. -1.
         25    1    1    2    0    0 -0.12942960441E+03 -0.17362622514E+03 -0.15707941960E+03  0.29529143675E+03  0.12500000000E+03 0.  0.
         21    1    1    2  503  504  0.51545991906E+02  0.89584151958E+02 -0.18564148226E+03  0.21247369131E+03  0.00000000000E+00 0. -1.
         21    1    1    2  504  501  0.77883612505E+02  0.84042073186E+02 -0.35633944759E+03  0.37430833422E+03  0.00000000000E+00 0. -1.
<mgrwt>
<rscale>  4 0.25004617E+03</rscale>
<asrwt>0</asrwt>
<pdfrwt beam="1">  1       21 0.14077932E-01 0.25004617E+03</pdfrwt>
<pdfrwt beam="2">  1       21 0.12162568E+00 0.25004617E+03</pdfrwt>
<totfact> 0.21756578E+04</totfact>
</mgrwt>
</event>
<event>
 5    0  0.2159162E+000  0.2715873E+03  0.7546771E-02  0.1100375E+00
         21   -1    0    0  502  501  0.00000000000E+00  0.00000000000E+00  0.61557265789E+03  0.61557265789E+03  0.00000000000E+00 0. -1.
         21   -1    0    0  503  502 -0.00000000000E+00 -0.00000000000E+00 -0.12413973378E+04  0.12413973378E+04  0.00000000000E+00 0.  1.
         25    1    1    2    0    0 -0.22156225892E+03  0.74072937768E+02  0.48501513367E+03  0.55266745388E+03  0.12500000000E+03 0.  0.
         21    1    1    2  503  504 -0.21894247614E+03 -0.10292861688E+03 -0.40728324083E+03  0.47371905840E+03  0.00000000000E+00 0.  1.
         21    1    1    2  504  501  0.44050473506E+03  0.28855679111E+02 -0.70355657271E+03  0.83058348336E+03  0.00000000000E+00 0.  1.
<mgrwt>
<rscale>  4 0.27158727E+03</rscale>
<asrwt>0</asrwt>
<pdfrwt beam="1">  1       21 0.94703487E-01 0.27158727E+03</pdfrwt>
<pdfrwt beam="2">  1       21 0.19098420E+00 0.27158727E+03</pdfrwt>
<totfact> 0.13076433E+02</totfact>
</mgrwt>
</event>
<event>
 5    0  0.2159162E+000  0.8351310E+03  0.7546771E-02  0.9510518E-01
         21   -1    0    0  502  501  0.00000000000E+00  0.00000000000E+00  0.56443323862E+03  0.56443323862E+03  0.00000000000E+00 0. -1.
         21   -1    0    0  503  502 -0.00000000000E+00 -0.00000000000E+00 -0.13211942748E+04  0.13211942748E+04  0.00000000000E+00 0. -1.
         25    1    1    2    0    0  0.75118712904E+03  0.34280684833E+03 -0.61830266274E+03  0.10390966369E+04  0.12500000000E+03 0.  0.
         21    1    1    2  503  504 -0.68867244456E+03 -0.34931123972E+03 -0.12489610865E+03  0.78223213693E+03  0.00000000000E+00 0. -1.
         21    1    1    2  504  501 -0.62514684478E+02  0.65043913879E+01 -0.13562264781E+02  0.64298739558E+02  0.00000000000E+00 0.  1.
<mgrwt>
<rscale>  4 0.83512799E+03</rscale>
<asrwt>0</asrwt>
<pdfrwt beam="1">  1       21 0.86835884E-01 0.83513101E+03</pdfrwt>
<pdfrwt beam="2">  1       21 0.20326065E+00 0.83513101E+03</pdfrwt>
<totfact> 0.99905154E+01</totfact>
</mgrwt>
</event>
<event>
 5    0  0.2159162E+000  0.2374604E+03  0.7546771E-02  0.1121496E+00
         21   -1    0    0  502  501  0.00000000000E+00  0.00000000000E+00  0.13001610829E+04  0.13001610829E+04  0.00000000000E+00 0. -1.
         21   -1    0    0  503  502 -0.00000000000E+00 -0.00000000000E+00 -0.43065976177E+02  0.43065976177E+02  0.00000000000E+00 0. -1.
         25    1    1    2    0    0  0.92346077364E+02 -0.17954014857E+03  0.87838974543E+03  0.90992087998E+03  0.12500000000E+03 0.  0.
         21    1    1    2  503  504 -0.46708148337E+02  0.10381774305E+03  0.27113845195E+03  0.29406773882E+03  0.00000000000E+00 0. -1.
         21    1    1    2  504  501 -0.45637929027E+02  0.75722405519E+02  0.10756690937E+03  0.13923844029E+03  0.00000000000E+00 0. -1.
<mgrwt>
<rscale>  4 0.23746045E+03</rscale>
<asrwt>0</asrwt>
<pdfrwt beam="1">  1       21 0.20002475E+00 0.23746045E+03</pdfrwt>
<pdfrwt beam="2">  1       21 0.66255358E-02 0.23746045E+03</pdfrwt>
<totfact> 0.21633734E+04</totfact>
</mgrwt>
</event>
<event>
 5    0  0.2159162E+000  0.2288557E+03  0.7546771E-02  0.1127448E+00
         21   -1    0    0  502  501  0.00000000000E+00  0.00000000000E+00  0.12297358529E+04  0.12297358529E+04  0.00000000000E+00 0.  1.
         21   -1    0    0  503  502 -0.00000000000E+00 -0.00000000000E+00 -0.69590045582E+02  0.69590045582E+02  0.00000000000E+00 0.  1.
         25    1    1    2    0    0 -0.66388952699E+02  0.22393202452E+03  0.60289159660E+03  0.65852587034E+03  0.12500000000E+03 0.  0.
         21    1    1    2  503  504  0.76316852455E+02 -0.15474452985E+03  0.54261584158E+03  0.56938746300E+03  0.00000000000E+00 0.  1.
         21    1    1    2  504  501 -0.99278997564E+01 -0.69187494669E+02  0.14638369156E+02  0.71412565167E+02  0.00000000000E+00 0.  1.
<mgrwt>
<rscale>  4 0.22885573E+03</rscale>
<asrwt>0</asrwt>
<pdfrwt beam="1">  1       21 0.18919012E+00 0.22885573E+03</pdfrwt>
<pdfrwt beam="2">  1       21 0.10706162E-01 0.22885573E+03</pdfrwt>
<totfact> 0.11044077E+04</totfact>
</mgrwt>
</event>
<event>
 5    0  0.2159162E+000  0.2462278E+03  0.7546771E-02  0.1115712E+00
         21   -1    0    0  502  501  0.00000000000E+00  0.00000000000E+00  0.27219783430E+03  0.27219783430E+03  0.00000000000E+00 0. -1.
         21   -1    0    0  503  502 -0.00000000000E+00 -0.00000000000E+00 -0.47532799223E+03  0.47532799223E+03  0.00000000000E+00 0.  1.
         25    1    1    2    0    0 -0.21166310639E+03 -0.14207572401E+02  0.18164742043E+03  0.30598024620E+03  0.12500000000E+03 0.  0.
         21    1    1    2  503  504  0.56353607035E+02  0.17739844326E+02 -0.79897979000E+02  0.99368597407E+02  0.00000000000E+00 0.  1.
         21    1    1    2  504  501  0.15530949935E+03 -0.35322719249E+01 -0.30487959935E+03  0.34217698292E+03  0.00000000000E+00 0.  1.
<mgrwt>
<rscale>  4 0.24622779E+03</rscale>
<asrwt>0</asrwt>
<pdfrwt beam="1">  1       21 0.41876590E-01 0.24622779E+03</pdfrwt>
<pdfrwt beam="2">  1       21 0.73127383E-01 0.24622779E+03</pdfrwt>
<totfact> 0.89198413E+03</totfact>
</mgrwt>
</event>
<event>
 5    0  0.2159162E+000  0.3294829E+03  0.7546771E-02  0.1071366E+00
         21   -1    0    0  502  501  0.00000000000E+00  0.00000000000E+00  0.12644000566E+03  0.12644000566E+03  0.00000000000E+00 0. -1.
         21   -1    0    0  503  502 -0.00000000000E+00 -0.00000000000E+00 -0.94234136864E+03  0.94234136864E+03  0.00000000000E+00 0. -1.
         25    1    1    2    0    0 -0.10832941962E+03  0.28495383358E+03 -0.23991798655E+03  0.40757771123E+03  0.12500000000E+03 0.  0.
         21    1    1    2  503  504  0.64894555632E+00 -0.12720010277E+03 -0.16799135174E+03  0.21071635327E+03  0.00000000000E+00 0. -1.
         21    1    1    2  504  501  0.10768047407E+03 -0.15775373080E+03 -0.40799202469E+03  0.45048730979E+03  0.00000000000E+00 0. -1.
<mgrwt>
<rscale>  4 0.32948285E+03</rscale>
<asrwt>0</asrwt>
<pdfrwt beam="1">  1       21 0.19452308E-01 0.32948285E+03</pdfrwt>
<pdfrwt beam="2">  1       21 0.14497560E+00 0.32948285E+03</pdfrwt>
<totfact> 0.73109119E+03</totfact>
</mgrwt>
</event>
<event>
 5    0  0.2159162E+000  0.2940722E+03  0.7546771E-02  0.1088242E+00
         21   -1    0    0  502  501  0.00000000000E+00  0.00000000000E+00  0.33107532145E+02  0.33107532145E+02  0.00000000000E+00 0. -1.
         21   -1    0    0  503  502 -0.00000000000E+00 -0.00000000000E+00 -0.25005700934E+04  0.25005700934E+04  0.00000000000E+00 0.  1.
         25    1    1    2    0    0 -0.19884911437E+03 -0.17695338169E+03 -0.10437320174E+04  0.10843684769E+04  0.12500000000E+03 0.  0.
         21    1    1    2  503  504  0.18503238795E+03  0.14130055592E+03 -0.12145450044E+04  0.12366577535E+04  0.00000000000E+00 0.  1.
         21    1    1    2  504  501  0.13816726426E+02  0.35652825773E+02 -0.20918553946E+03  0.21265139509E+03  0.00000000000E+00 0. -1.
<mgrwt>
<rscale>  4 0.29407222E+03</rscale>
<asrwt>0</asrwt>
<pdfrwt beam="1">  1       21 0.50934674E-02 0.29407222E+03</pdfrwt>
<pdfrwt beam="2">  1       21 0.38470302E+00 0.29407222E+03</pdfrwt>
<totfact> 0.25172963E+03</totfact>
</mgrwt>
</event>
<event>
 5    0  0.2159162E+000  0.3488506E+03  0.7546771E-02  0.1063092E+00
         21   -1    0    0  502  501  0.00000000000E+00  0.00000000000E+00  0.82437092649E+02  0.82437092649E+02  0.00000000000E+00 0. -1.
         21   -1    0    0  503  502 -0.00000000000E+00 -0.00000000000E+00 -0.33160643269E+04  0.33160643269E+04  0.00000000000E+00 0. -1.
         25    1    1    2    0    0 -0.97816343672E+02  0.31059972827E+03 -0.35099059505E+03  0.49483292747E+03  0.12500000000E+03 0.  0.
         21    1    1    2  503  504  0.13456675740E+02 -0.82923973192E+02 -0.12788927533E+04  0.12816489933E+04  0.00000000000E+00 0. -1.
         21    1    1    2  504  501  0.84359667932E+02 -0.22767575508E+03 -0.16037438858E+04  0.16220194988E+04  0.00000000000E+00 0. -1.
<mgrwt>
<rscale>  4 0.34883928E+03</rscale>
<asrwt>0</asrwt>
<pdfrwt beam="1">  1       21 0.12682630E-01 0.34885057E+03</pdfrwt>
<pdfrwt beam="2">  1       21 0.51016372E+00 0.34885057E+03</pdfrwt>
<totfact> 0.69070960E+01</totfact>
</mgrwt>
</event>
<event>
 5    0  0.2159162E+000  0.2607442E+03  0.7546771E-02  0.1106697E+00
         21   -1    0    0  502  501  0.00000000000E+00  0.00000000000E+00  0.95237127243E+03  0.95237127243E+03  0.00000000000E+00 0.  1.
         21   -1    0    0  503  502 -0.00000000000E+00 -0.00000000000E+00 -0.36250962370E+03  0.36250962370E+03  0.00000000000E+00 0. -1.
         25    1    1    2    0    0  0.68007116983E+02  0.23762788157E+03  0.69963745834E+03  0.75246897024E+03  0.12500000000E+03 0.  0.
         21    1    1    2  503  504  0.15384598432E+03 -0.19634879458E+03  0.85808130015E+02  0.26378868664E+03  0.00000000000E+00 0. -1.
         21    1    1    2  504  501 -0.22185310130E+03 -0.41279086994E+02 -0.19558393963E+03  0.29862323925E+03  0.00000000000E+00 0. -1.
<mgrwt>
<rscale>  4 0.26074424E+03</rscale>
<asrwt>0</asrwt>
<pdfrwt beam="1">  1       21 0.14651866E+00 0.26074424E+03</pdfrwt>
<pdfrwt beam="2">  1       21 0.55770712E-01 0.26074424E+03</pdfrwt>
<totfact> 0.90441701E+02</totfact>
</mgrwt>
</event>
