<event>
 5    0  0.1856407E+000  0.2723275E+03  0.7546771E-02  0.1099955E+00
         21   -1    0    0  502  501  0.00000000000E+00  0.00000000000E+00  0.17042072825E+04  0.17042072825E+04  0.00000000000E+00 0.  1.
         21   -1    0    0  503  502 -0.00000000000E+00 -0.00000000000E+00 -0.18054122996E+03  0.18054122996E+03  0.00000000000E+00 0.  1.
         25    1    1    2    0    0  0.21678686561E+03  0.11629423332E+03  0.15780937571E+04  0.16020380145E+04  0.12500000000E+03 0.  0.
         21    1    1    2  503  504 -0.25207354757E+02 -0.34346676385E+02 -0.60802149835E+02  0.74242887451E+02  0.00000000000E+00 0.  1.
         21    1    1    2  504  501 -0.19157951086E+03 -0.81947556938E+02  0.63744452816E+01  0.20846761048E+03  0.00000000000E+00 0.  1.
<mgrwt>
<rscale>  4 0.27232752E+03</rscale>
<asrwt>0</asrwt>
<pdfrwt beam="1">  1       21 0.26218573E+00 0.27232752E+03</pdfrwt>
<pdfrwt beam="2">  1       21 0.27775575E-01 0.27232752E+03</pdfrwt>
<totfact> 0.63933575E+02</totfact>
</mgrwt>
</event>
<event>
 5    0  0.1856407E+000  0.4943261E+03  0.7546771E-02  0.1015271E+00
         21   -1    0    0  502  501  0.00000000000E+00  0.00000000000E+00  0.16417516396E+03  0.16417516396E+03  0.00000000000E+00 0.  1.
         21   -1    0    0  503  502 -0.00000000000E+00 -0.00000000000E+00 -0.16500722788E+04  0.16500722788E+04  0.00000000000E+00 0.  1.
         25    1    1    2    0    0  0.47808694955E+03  0.12890647017E+02 -0.44675711590E+03  0.66629589576E+03  0.12500000000E+03 0.  0.
         21    1    1    2  503  504 -0.53111269055E+02 -0.32735179598E+02 -0.13118193092E+03  0.14526216949E+03  0.00000000000E+00 0.  1.
         21    1    1    2  504  501 -0.42497568049E+03  0.19844532581E+02 -0.90795806806E+03  0.10026893775E+04  0.00000000000E+00 0.  1.
<mgrwt>
<rscale>  4 0.49432611E+03</rscale>
<asrwt>0</asrwt>
<pdfrwt beam="1">  1       21 0.25257719E-01 0.49432611E+03</pdfrwt>
<pdfrwt beam="2">  1       21 0.25385726E+00 0.49432611E+03</pdfrwt>
<totfact> 0.74855767E+02</totfact>
</mgrwt>
</event>
<event>
 5    0  0.1856407E+000  0.3011154E+03  0.7546771E-02  0.1085047E+00
         21   -1    0    0  502  501  0.00000000000E+00  0.00000000000E+00  0.69373094703E+03  0.69373094703E+03  0.00000000000E+00 0.  1.
         21   -1    0    0  503  502 -0.00000000000E+00 -0.00000000000E+00 -0.19014567556E+03  0.19014567556E+03  0.00000000000E+00 0.  1.
         25    1    1    2    0    0  0.27006558861E+03  0.19314513524E+02  0.50066013180E+03  0.58274697782E+03  0.12500000000E+03 0.  0.
         21    1    1    2  503  504 -0.12387856567E+03 -0.20492425083E+02 -0.63325188212E+02  0.14062687503E+03  0.00000000000E+00 0.  1.
         21    1    1    2  504  501 -0.14618702293E+03  0.11779115589E+01  0.66250327876E+02  0.16050276974E+03  0.00000000000E+00 0.  1.
<mgrwt>
<rscale>  4 0.30038824E+03</rscale>
<asrwt>0</asrwt>
<pdfrwt beam="1">  1       21 0.10672784E+00 0.30111544E+03</pdfrwt>
<pdfrwt beam="2">  1       21 0.29253181E-01 0.30111544E+03</pdfrwt>
<totfact> 0.73603440E+03</totfact>
</mgrwt>
</event>
<event>
 5    0  0.3167803E+000  0.2993757E+03  0.7546771E-02  0.1085553E+00
         21   -1    0    0  502  501  0.00000000000E+00  0.00000000000E+00  0.38518628347E+03  0.38518628347E+03  0.00000000000E+00 0.  1.
         21   -1    0    0  503  502 -0.00000000000E+00 -0.00000000000E+00 -0.24130318843E+03  0.24130318843E+03  0.00000000000E+00 0.  1.
         25    1    1    2    0    0 -0.26216106945E+03  0.72611034198E+02  0.16591037111E+03  0.34227480168E+03  0.12500000000E+03 0.  0.
         21    1    1    2  503  504  0.45337726930E+02 -0.32958741364E+02 -0.30149568461E+02  0.63645774360E+02  0.00000000000E+00 0.  1.
         21    1    1    2  504  501  0.21682334252E+03 -0.39652292833E+02  0.81222923906E+01  0.22056889586E+03  0.00000000000E+00 0.  1.
<mgrwt>
<rscale>  4 0.29937566E+03</rscale>
<asrwt>0</asrwt>
<pdfrwt beam="1">  1       21 0.59259428E-01 0.29937566E+03</pdfrwt>
<pdfrwt beam="2">  1       21 0.37123567E-01 0.29937566E+03</pdfrwt>
<totfact> 0.17642970E+04</totfact>
</mgrwt>
</event>
<event>
 5    0  0.1856407E+000  0.2602459E+03  0.7546771E-02  0.1106996E+00
         21   -1    0    0  502  501  0.00000000000E+00  0.00000000000E+00  0.14236164207E+03  0.14236164207E+03  0.00000000000E+00 0.  1.
         21   -1    0    0  503  502 -0.00000000000E+00 -0.00000000000E+00 -0.13123576492E+04  0.13123576492E+04  0.00000000000E+00 0.  1.
         25    1    1    2    0    0 -0.18177786900E+03 -0.11732463199E+03 -0.71192149768E+02  0.25981067168E+03  0.12500000000E+03 0.  0.
         21    1    1    2  503  504 -0.51335408434E+02  0.10517720437E+03 -0.62578494837E+02  0.13271637614E+03  0.00000000000E+00 0.  1.
         21    1    1    2  504  501  0.23311327743E+03  0.12147427623E+02 -0.10362253625E+04  0.10621922435E+04  0.00000000000E+00 0.  1.
<mgrwt>
<rscale>  4 0.26024587E+03</rscale>
<asrwt>0</asrwt>
<pdfrwt beam="1">  1       21 0.21901792E-01 0.26024587E+03</pdfrwt>
<pdfrwt beam="2">  1       21 0.20190117E+00 0.26024587E+03</pdfrwt>
<totfact> 0.23932631E+03</totfact>
</mgrwt>
</event>
<event>
 5    0  0.1985564E+000  0.2554348E+03  0.7546771E-02  0.1109918E+00
         21   -1    0    0  502  501  0.00000000000E+00  0.00000000000E+00  0.79283436206E+02  0.79283436206E+02  0.00000000000E+00 0.  1.
         21   -1    0    0  503  502 -0.00000000000E+00 -0.00000000000E+00 -0.16179275098E+04  0.16179275098E+04  0.00000000000E+00 0.  1.
         25    1    1    2    0    0 -0.25659588045E+03  0.15997134219E+02 -0.25634074609E+03  0.38396996272E+03  0.12500000000E+03 0.  0.
         21    1    1    2  503  504  0.39933676793E+02  0.40962048692E+01 -0.63199426197E+02  0.74870854865E+02  0.00000000000E+00 0.  1.
         21    1    1    2  504  501  0.21666220366E+03 -0.20093339088E+02 -0.12191039013E+04  0.12383701284E+04  0.00000000000E+00 0.  1.
<mgrwt>
<rscale>  4 0.25543480E+03</rscale>
<asrwt>0</asrwt>
<pdfrwt beam="1">  1       21 0.12197450E-01 0.25543480E+03</pdfrwt>
<pdfrwt beam="2">  1       21 0.24891195E+00 0.25543480E+03</pdfrwt>
<totfact> 0.36253584E+03</totfact>
</mgrwt>
</event>
