<event>
 5    0  0.1911311E+001  0.3899450E+03  0.7546771E-02  0.1047318E+00
         21   -1    0    0  503  501  0.00000000000E+00  0.00000000000E+00  0.30072151306E+04  0.30072151306E+04  0.00000000000E+00 0. -1.
         21   -1    0    0  501  502 -0.00000000000E+00 -0.00000000000E+00 -0.84221645769E+02  0.84221645769E+02  0.00000000000E+00 0. -1.
         25    1    1    2    0    0  0.10176263020E+03 -0.38658889872E+03  0.21195864121E+04  0.21605735739E+04  0.12500000000E+03 0.  0.
         21    1    1    2  503  504 -0.13644393683E+03  0.33568645693E+03  0.47877622731E+03  0.60044068908E+03  0.00000000000E+00 0. -1.
         21    1    1    2  504  502  0.34681306631E+02  0.50902441787E+02  0.32463084539E+03  0.33042251344E+03  0.00000000000E+00 0. -1.
<mgrwt>
<rscale>  4 0.38994502E+03</rscale>
<asrwt>0</asrwt>
<pdfrwt beam="1">  1       21 0.46264840E+00 0.38994502E+03</pdfrwt>
<pdfrwt beam="2">  1       21 0.12957179E-01 0.38994502E+03</pdfrwt>
<totfact> 0.13798585E+02</totfact>
</mgrwt>
</event>
<event>
 5    0  0.1911311E+001  0.2303287E+03  0.7546771E-02  0.1126409E+00
         21   -1    0    0  502  501  0.00000000000E+00  0.00000000000E+00  0.11806803016E+03  0.11806803016E+03  0.00000000000E+00 0.  1.
         21   -1    0    0  504  502 -0.00000000000E+00 -0.00000000000E+00 -0.15629349897E+04  0.15629349897E+04  0.00000000000E+00 0.  1.
         25    1    1    2    0    0  0.18226942521E+03 -0.12627658378E+03 -0.99896465879E+02  0.27344510029E+03  0.12500000000E+03 0.  0.
         21    1    1    2  503  501 -0.27359620840E+02  0.14065331137E+02  0.14983145468E+02  0.34218080610E+02  0.00000000000E+00 0.  1.
         21    1    1    2  504  503 -0.15490980437E+03  0.11221125264E+03 -0.13599536391E+04  0.13733398390E+04  0.00000000000E+00 0.  1.
<mgrwt>
<rscale>  4 0.23032868E+03</rscale>
<asrwt>0</asrwt>
<pdfrwt beam="1">  1       21 0.18164312E-01 0.23032868E+03</pdfrwt>
<pdfrwt beam="2">  1       21 0.24045154E+00 0.23032868E+03</pdfrwt>
<totfact> 0.20094338E+03</totfact>
</mgrwt>
</event>
<event>
 5    0  0.1911311E+001  0.3117772E+03  0.7546771E-02  0.1079497E+00
         21   -1    0    0  504  501  0.00000000000E+00  0.00000000000E+00  0.19690422388E+03  0.19690422388E+03  0.00000000000E+00 0. -1.
         21   -1    0    0  503  502 -0.00000000000E+00 -0.00000000000E+00 -0.94117728362E+03  0.94117728362E+03  0.00000000000E+00 0.  1.
         25    1    1    2    0    0 -0.10292401726E+03 -0.24218015440E+03 -0.66585329330E+03  0.72679446111E+03  0.12500000000E+03 0.  0.
         21    1    1    2  503  501  0.59995163626E+02 -0.46182064528E+02 -0.92345139497E+02  0.11941451977E+03  0.00000000000E+00 0. -1.
         21    1    1    2  504  502  0.42928853632E+02  0.28836221893E+03  0.13925373056E+02  0.29187252662E+03  0.00000000000E+00 0. -1.
<mgrwt>
<rscale>  4 0.31177720E+03</rscale>
<asrwt>0</asrwt>
<pdfrwt beam="1">  1       21 0.30292958E-01 0.31177720E+03</pdfrwt>
<pdfrwt beam="2">  1       21 0.14479650E+00 0.31177720E+03</pdfrwt>
<totfact> 0.31518668E+03</totfact>
</mgrwt>
</event>
<event>
 5    0  0.2230071E+001  0.3396564E+03  0.7546771E-02  0.1066942E+00
         21   -1    0    0  502  501  0.00000000000E+00  0.00000000000E+00  0.11084249332E+03  0.11084249332E+03  0.00000000000E+00 0.  1.
         21   -1    0    0  504  502 -0.00000000000E+00 -0.00000000000E+00 -0.17131155437E+04  0.17131155437E+04  0.00000000000E+00 0.  1.
         25    1    1    2    0    0  0.12952152904E+03 -0.31103296570E+03 -0.11987548626E+04  0.12514613669E+04  0.12500000000E+03 0.  0.
         21    1    1    2  503  501 -0.12421674869E+03  0.28495203273E+03 -0.20535966991E+03  0.37255879487E+03  0.00000000000E+00 0.  1.
         21    1    1    2  504  503 -0.53047803446E+01  0.26080932970E+02 -0.19815851779E+03  0.19993787518E+03  0.00000000000E+00 0. -1.
<mgrwt>
<rscale>  4 0.33965644E+03</rscale>
<asrwt>0</asrwt>
<pdfrwt beam="1">  1       21 0.17052695E-01 0.33965644E+03</pdfrwt>
<pdfrwt beam="2">  1       21 0.26355618E+00 0.33965644E+03</pdfrwt>
<totfact> 0.15061885E+03</totfact>
</mgrwt>
</event>
<event>
 5    0  0.1911311E+001  0.2546943E+03  0.7546771E-02  0.1110374E+00
         21   -1    0    0  504  501  0.00000000000E+00  0.00000000000E+00  0.50772142068E+02  0.50772142068E+02  0.00000000000E+00 0.  1.
         21   -1    0    0  503  502 -0.00000000000E+00 -0.00000000000E+00 -0.13962103191E+04  0.13962103191E+04  0.00000000000E+00 0.  1.
         25    1    1    2    0    0 -0.17917276618E+03 -0.13416046237E+03 -0.49746002701E+03  0.55963683606E+03  0.12500000000E+03 0.  0.
         21    1    1    2  503  501  0.18703492754E+02 -0.16847363384E+02 -0.22777974856E+03  0.22916646384E+03  0.00000000000E+00 0.  1.
         21    1    1    2  504  502  0.16046927342E+03  0.15100782576E+03 -0.62019840145E+03  0.65817916126E+03  0.00000000000E+00 0.  1.
<mgrwt>
<rscale>  4 0.25469429E+03</rscale>
<asrwt>0</asrwt>
<pdfrwt beam="1">  1       21 0.78110989E-02 0.25469429E+03</pdfrwt>
<pdfrwt beam="2">  1       21 0.21480158E+00 0.25469429E+03</pdfrwt>
<totfact> 0.12934039E+04</totfact>
</mgrwt>
</event>
