<event>
 5    0  0.2159162E+000  0.5147727E+03  0.7546771E-02  0.1009993E+00
         21   -1    0    0  502  501  0.00000000000E+00  0.00000000000E+00  0.10891462453E+04  0.10891462453E+04  0.00000000000E+00 0.  1.
         21   -1    0    0  503  502 -0.00000000000E+00 -0.00000000000E+00 -0.25750988607E+03  0.25750988607E+03  0.00000000000E+00 0.  1.
         25    1    1    2    0    0  0.10197347363E+03  0.48884286880E+03  0.60376588321E+03  0.79342559918E+03  0.12500000000E+03 0.  0.
         21    1    1    2  503  504 -0.11026274889E+03 -0.44046237721E+03  0.19500163370E+03  0.49415646983E+03  0.00000000000E+00 0.  1.
         21    1    1    2  504  501  0.82892752641E+01 -0.48380491589E+02  0.32868842353E+02  0.59074062400E+02  0.00000000000E+00 0. -1.
<mgrwt>
<rscale>  4 0.51477271E+03</rscale>
<asrwt>0</asrwt>
<pdfrwt beam="1">  1       21 0.16756096E+00 0.51477271E+03</pdfrwt>
<pdfrwt beam="2">  1       21 0.39616906E-01 0.51477271E+03</pdfrwt>
<totfact> 0.11209535E+03</totfact>
</mgrwt>
</event>
<event>
 5    0  0.2159162E+000  0.2418329E+03  0.7546771E-02  0.1118578E+00
         21   -1    0    0  502  501  0.00000000000E+00  0.00000000000E+00  0.14969284926E+03  0.14969284926E+03  0.00000000000E+00 0. -1.
         21   -1    0    0  503  502 -0.00000000000E+00 -0.00000000000E+00 -0.44265167815E+03  0.44265167815E+03  0.00000000000E+00 0. -1.
         25    1    1    2    0    0  0.20483420101E+03  0.30018011006E+02 -0.13915289387E+02  0.24223287590E+03  0.12500000000E+03 0.  0.
         21    1    1    2  503  504 -0.12658802327E+03 -0.96609974683E+01 -0.13782453929E+03  0.18738587497E+03  0.00000000000E+00 0. -1.
         21    1    1    2  504  501 -0.78246177738E+02 -0.20357013538E+02 -0.14121900021E+03  0.16272577655E+03  0.00000000000E+00 0. -1.
<mgrwt>
<rscale>  4 0.24183286E+03</rscale>
<asrwt>0</asrwt>
<pdfrwt beam="1">  1       21 0.23029670E-01 0.24183286E+03</pdfrwt>
<pdfrwt beam="2">  1       21 0.68100257E-01 0.24183286E+03</pdfrwt>
<totfact> 0.34006153E+04</totfact>
</mgrwt>
</event>
<event>
 5    0  0.2159162E+000  0.3716235E+03  0.7546771E-02  0.1054074E+00
         21   -1    0    0  502  501  0.00000000000E+00  0.00000000000E+00  0.30027626239E+03  0.30027626239E+03  0.00000000000E+00 0.  1.
         21   -1    0    0  503  502 -0.00000000000E+00 -0.00000000000E+00 -0.58933305868E+03  0.58933305868E+03  0.00000000000E+00 0.  1.
         25    1    1    2    0    0  0.44294729461E+02 -0.34715561171E+03  0.75148932569E+02  0.37914562356E+03  0.12500000000E+03 0.  0.
         21    1    1    2  503  504  0.14829107325E+02  0.21469117952E+02 -0.34614770111E+02  0.43347523107E+02  0.00000000000E+00 0. -1.
         21    1    1    2  504  501 -0.59123836785E+02  0.32568649376E+03 -0.32959095875E+03  0.46711617440E+03  0.00000000000E+00 0.  1.
<mgrwt>
<rscale>  4 0.37162352E+03</rscale>
<asrwt>0</asrwt>
<pdfrwt beam="1">  1       21 0.46196348E-01 0.37162352E+03</pdfrwt>
<pdfrwt beam="2">  1       21 0.90666624E-01 0.37162352E+03</pdfrwt>
<totfact> 0.41807637E+03</totfact>
</mgrwt>
</event>
<event>
 5    0  0.2159162E+000  0.4123828E+03  0.7546771E-02  0.1039574E+00
         21   -1    0    0  502  501  0.00000000000E+00  0.00000000000E+00  0.10071252342E+04  0.10071252342E+04  0.00000000000E+00 0. -1.
         21   -1    0    0  503  502 -0.00000000000E+00 -0.00000000000E+00 -0.27813038506E+03  0.27813038506E+03  0.00000000000E+00 0.  1.
         25    1    1    2    0    0 -0.12062613926E+03 -0.37178460566E+03  0.68630305840E+03  0.79963200689E+03  0.12500000000E+03 0.  0.
         21    1    1    2  503  504  0.18678407468E+03  0.35923589985E+03 -0.18317359307E+01  0.40489761366E+03  0.00000000000E+00 0.  1.
         21    1    1    2  504  501 -0.66157935412E+02  0.12548705813E+02  0.44523526639E+02  0.80725998662E+02  0.00000000000E+00 0.  1.
<mgrwt>
<rscale>  4 0.41238277E+03</rscale>
<asrwt>0</asrwt>
<pdfrwt beam="1">  1       21 0.15494234E+00 0.41238277E+03</pdfrwt>
<pdfrwt beam="2">  1       21 0.42789290E-01 0.41238277E+03</pdfrwt>
<totfact> 0.12412514E+03</totfact>
</mgrwt>
</event>
<event>
 5    0  0.2159162E+000  0.2619532E+03  0.7546771E-02  0.1105975E+00
         21   -1    0    0  502  501  0.00000000000E+00  0.00000000000E+00  0.15031582278E+04  0.15031582278E+04  0.00000000000E+00 0. -1.
         21   -1    0    0  503  502 -0.00000000000E+00 -0.00000000000E+00 -0.65216909876E+02  0.65216909876E+02  0.00000000000E+00 0. -1.
         25    1    1    2    0    0  0.24582467901E+03  0.21281755994E+02  0.10505219567E+04  0.10863259490E+04  0.12500000000E+03 0.  0.
         21    1    1    2  503  504 -0.20405258986E+03  0.37812097673E+02  0.32928011423E+03  0.38922051306E+03  0.00000000000E+00 0. -1.
         21    1    1    2  504  501 -0.41772089153E+02 -0.59093853667E+02  0.58139246938E+02  0.92828675569E+02  0.00000000000E+00 0. -1.
<mgrwt>
<rscale>  4 0.26195319E+03</rscale>
<asrwt>0</asrwt>
<pdfrwt beam="1">  1       21 0.23125508E+00 0.26195319E+03</pdfrwt>
<pdfrwt beam="2">  1       21 0.10033372E-01 0.26195319E+03</pdfrwt>
<totfact> 0.65432109E+03</totfact>
</mgrwt>
</event>
<event>
 5    0  0.2159162E+000  0.5003296E+03  0.7546771E-02  0.1013693E+00
         21   -1    0    0  502  501  0.00000000000E+00  0.00000000000E+00  0.15640579861E+03  0.15640579861E+03  0.00000000000E+00 0.  1.
         21   -1    0    0  503  502 -0.00000000000E+00 -0.00000000000E+00 -0.16989534284E+04  0.16989534284E+04  0.00000000000E+00 0.  1.
         25    1    1    2    0    0  0.42638253479E+03 -0.23969243050E+03 -0.59272640123E+03  0.77859110830E+03  0.12500000000E+03 0.  0.
         21    1    1    2  503  504 -0.40816162748E+03  0.25580058885E+03 -0.91815247318E+03  0.10368383767E+04  0.00000000000E+00 0.  1.
         21    1    1    2  504  501 -0.18220907306E+02 -0.16108158348E+02 -0.31668755369E+02  0.39929741986E+02  0.00000000000E+00 0.  1.
<mgrwt>
<rscale>  4 0.50032959E+03</rscale>
<asrwt>0</asrwt>
<pdfrwt beam="1">  1       21 0.24062430E-01 0.50032959E+03</pdfrwt>
<pdfrwt beam="2">  1       21 0.26137746E+00 0.50032959E+03</pdfrwt>
<totfact> 0.73779909E+02</totfact>
</mgrwt>
</event>
<event>
 5    0  0.2159162E+000  0.2430273E+03  0.7546771E-02  0.1117792E+00
         21   -1    0    0  502  501  0.00000000000E+00  0.00000000000E+00  0.33023487643E+03  0.33023487643E+03  0.00000000000E+00 0. -1.
         21   -1    0    0  503  502 -0.00000000000E+00 -0.00000000000E+00 -0.66282601870E+03  0.66282601870E+03  0.00000000000E+00 0.  1.
         25    1    1    2    0    0  0.25580793019E+02  0.20684030973E+03  0.26424400245E+03  0.35900861206E+03  0.12500000000E+03 0.  0.
         21    1    1    2  503  504 -0.56386961207E+01 -0.17264700107E+03 -0.51390139712E+03  0.54215627622E+03  0.00000000000E+00 0.  1.
         21    1    1    2  504  501 -0.19942096898E+02 -0.34193308655E+02 -0.82933747603E+02  0.91896006861E+02  0.00000000000E+00 0. -1.
<mgrwt>
<rscale>  4 0.24302735E+03</rscale>
<asrwt>0</asrwt>
<pdfrwt beam="1">  1       21 0.50805365E-01 0.24302735E+03</pdfrwt>
<pdfrwt beam="2">  1       21 0.10197323E+00 0.24302735E+03</pdfrwt>
<totfact> 0.27748918E+03</totfact>
</mgrwt>
</event>
<event>
 5    0  0.2159162E+000  0.3539684E+03  0.7546771E-02  0.1060998E+00
         21   -1    0    0  502  501  0.00000000000E+00  0.00000000000E+00  0.34665703604E+03  0.34665703604E+03  0.00000000000E+00 0.  1.
         21   -1    0    0  503  502 -0.00000000000E+00 -0.00000000000E+00 -0.69645607430E+03  0.69645607430E+03  0.00000000000E+00 0.  1.
         25    1    1    2    0    0  0.34784012076E+03 -0.22646142788E+03 -0.23459535919E+03  0.49288691450E+03  0.12500000000E+03 0.  0.
         21    1    1    2  503  504 -0.62221352882E+02  0.24362522994E+03 -0.65133697262E+02  0.25974438962E+03  0.00000000000E+00 0.  1.
         21    1    1    2  504  501 -0.28561876788E+03 -0.17163802061E+02 -0.50069981812E+02  0.29048180622E+03  0.00000000000E+00 0.  1.
<mgrwt>
<rscale>  4 0.35396838E+03</rscale>
<asrwt>0</asrwt>
<pdfrwt beam="1">  1       21 0.53331852E-01 0.35396838E+03</pdfrwt>
<pdfrwt beam="2">  1       21 0.10714709E+00 0.35396838E+03</pdfrwt>
<totfact> 0.20805370E+03</totfact>
</mgrwt>
</event>
