<LesHouchesEvents version="3.0">
  <!--
  <scalesfunctionalform>
    muR  H_T/2 := sum_i mT(i)/2, i=final state
    muF1 H_T/2 := sum_i mT(i)/2, i=final state
    muF2 H_T/2 := sum_i mT(i)/2, i=final state
    QES  H_T/2 := sum_i mT(i)/2, i=final state
  </scalesfunctionalform>
HERWIG6   
  -->
  <header>
       17
  </header>
  <init>
   2212   2212 0.65000000D+04 0.65000000D+04 -1 -1   247000   247000 -3   1
 0.39951577D-02 0.77138774D-04 0.53732839D-03     66
  </init>
  <event>
  5     66 0.53732839E-03 0.36898742E+02 0.75467711E-02 0.12190638E+00
       21 -1    0    0  501  502 0.00000000E+00 0.00000000E+00 0.38910470E+03 0.38910542E+03 0.75000000E+00 0.0000E+00 0.9000E+01
       -1 -1    0    0    0  501 0.00000000E+00 0.00000000E+00 -.50493653E+02 0.50494667E+02 0.32000000E+00 0.0000E+00 0.9000E+01
       25  1    1    2    0    0 0.67023318E+01 -.18452940E+02 0.13917833E+03 0.18809848E+03 0.12500000E+03 0.0000E+00 0.9000E+01
       23  1    1    2    0    0 -.11477065E+01 0.55525891E+02 0.10434222E+03 0.14928828E+03 0.91188000E+02 0.0000E+00 0.9000E+01
       -1  1    1    2    0  502 -.55546253E+01 -.37072951E+02 0.95090499E+02 0.10221332E+03 0.32000000E+00 0.0000E+00 0.9000E+01
#aMCatNLO 1  0  0  1  2 0.83941047D+00 0.00000000D+00  -5  6  0 0.00000000D+00 0.00000000D+00 0.00000000D+00 0.00000000D+00 0.00000000D+00
  <mgrwgt>
 0.9948329975D-02   31    4    0
 0.140170250815233D+03 0.000000000000000D+00 0.000000000000000D+00 0.140170250815233D+03
 0.140170250815233D+03 0.000000000000000D+00 0.000000000000000D+00 -.140170250815233D+03
 0.126848528126527D+03 0.670239416048967D+01 -.184525239090189D+02 -.895161224421838D+01
 0.108067783166462D+03 -.114765337271144D+01 0.555262456311419D+02 -.167006991578084D+02
 0.454241903374773D+02 -.555474078777823D+01 -.370737217221230D+02 0.256523114020267D+02
 0.000000000000000D+00 0.000000000000000D+00 0.000000000000000D+00 0.000000000000000D+00
 0.140980442469231D+03 0.000000000000000D+00 0.000000000000000D+00 0.140980442469231D+03
 0.140388468677828D+03 0.000000000000000D+00 0.000000000000000D+00 -.140388468677828D+03
 0.126860254226530D+03 0.637648517147389D+01 -.186476051413324D+02 -.895161224421838D+01
 0.107985825675330D+03 -.142519131435373D+01 0.553601181369821D+02 -.167006991578084D+02
 0.454956784295706D+02 -.567153454728665D+01 -.371436316396132D+02 0.256523114020267D+02
 0.102715281562806D+01 0.720240690166492D+00 0.431118643963471D+00 0.591973791403163D+00
 0.140170250815233D+03 0.000000000000000D+00 0.000000000000000D+00 0.140170250815233D+03
 0.140170250815233D+03 0.000000000000000D+00 0.000000000000000D+00 -.140170250815233D+03
 0.126848528126527D+03 0.670239416048967D+01 -.184525239090189D+02 -.895161224421838D+01
 0.108067783166462D+03 -.114765337271144D+01 0.555262456311419D+02 -.167006991578084D+02
 0.000000000000000D+00 0.000000000000000D+00 0.000000000000000D+00 0.000000000000000D+00
 0.454241903374773D+02 -.555474078777823D+01 -.370737217221230D+02 0.256523114020267D+02
 0.140980442469231D+03 0.000000000000000D+00 0.000000000000000D+00 0.140980442469231D+03
 0.140388468677828D+03 0.000000000000000D+00 0.000000000000000D+00 -.140388468677828D+03
 0.126860254226530D+03 0.637648517147389D+01 -.186476051413324D+02 -.895161224421838D+01
 0.107985825675330D+03 -.142519131435373D+01 0.553601181369821D+02 -.167006991578084D+02
 0.102715281562806D+01 0.720240690166492D+00 0.431118643963471D+00 0.591973791403163D+00
 0.454956784295706D+02 -.567153454728665D+01 -.371436316396132D+02 0.256523114020267D+02
0.273661119914D-06 0.000000000000D+00 0.000000000000D+00 0.605004584447D-06 0.000000000000D+00  6 21 -1 25 23 -1 21 2 0.59862395D-01 0.77683879D-02 0.18331718D+05 0.18331718D+05 0.18331718D+05 0.12380123D+01  1  2  2  1  6  1       21 0.875185704396D-03 0.100000000000D+01
0.346779502198D-08 0.144414940555D-07 -.552442955843D-09 0.605004584447D-06 0.000000000000D+00  6 21 -1 25 23 -1 21 4 0.59862395D-01 0.77683879D-02 0.18331718D+05 0.18331718D+05 0.18331718D+05 0.12380123D+01  1  2  3  1  6  1       21 0.169977117434D-04 0.100000000000D+01
0.222253197452D-07 0.000000000000D+00 0.000000000000D+00 0.605004584447D-06 0.000000000000D+00  6 21 -1 25 23 -1 21 4 0.59862395D-01 0.77683879D-02 0.18331718D+05 0.18331718D+05 0.18331718D+05 0.12380123D+01  1  2 15  1  6  1       21 0.108939420018D-03 0.100000000000D+01
-.940200864453D-05 0.000000000000D+00 0.000000000000D+00 0.605004584447D-06 0.000000000000D+00  6 21 -1 25 23 -1 21 4 0.59862395D-01 0.77683879D-02 0.18331718D+05 0.18331718D+05 0.18331718D+05 0.12380123D+01  1  2  4  1  6  1       21 -.460847979006D-01 0.100000000000D+01
-.138319822190D-03 0.000000000000D+00 -.120040320029D-04 0.605004584447D-06 0.000000000000D+00  6 21 -1 25 23 -1 21 4 0.60280992D-01 0.77683879D-02 0.18331718D+05 0.18331718D+05 0.18331718D+05 0.12380123D+01  1  2  5  1  6  1       21 -.668011260084D+00 0.100000000000D+01
0.138389905279D-03 0.000000000000D+00 0.120028663097D-04 0.605004584447D-06 0.000000000000D+00  6 21 -1 25 23 -1 21 4 0.59862395D-01 0.77683879D-02 0.18331718D+05 0.18331718D+05 0.18331718D+05 0.12380123D+01  1  2  6  1  6  1       21 0.678330669262D+00 0.100000000000D+01
0.937029205921D-05 0.000000000000D+00 0.000000000000D+00 0.605004584447D-06 0.100524415101D-04  6 21 -1 25 23 -1 21 4 0.60208402D-01 0.77804818D-02 0.18447637D+05 0.18447637D+05 0.18447637D+05 0.12377079D+01  1  2 11  1  6  1       21 0.452198767505D-01 0.100000000000D+01
0.436175333006D-13 0.000000000000D+00 0.000000000000D+00 0.604707067620D-06 0.000000000000D+00  6 -1 -1 25 23 -1 -1 4 0.60254828D-01 0.77683879D-02 0.18447637D+05 0.18447637D+05 0.18447637D+05 0.12377079D+01  1  2 12  4  6  1       21 0.215810854803D-10 0.100000000000D+01
-.197964252228D-06 0.000000000000D+00 -.187828818880D-07 0.605004584447D-06 0.000000000000D+00  6 -1 -1 25 23 -1 -1 4 0.60280992D-01 0.77683879D-02 0.18331718D+05 0.18331718D+05 0.18331718D+05 0.12380123D+01  1  2  5  4  6  1       21 -.979482505988D-04 0.100000000000D+01
0.448618655488D-07 0.000000000000D+00 0.000000000000D+00 0.605004584447D-06 0.112897866963D-07  6 -1 -1 25 23 -1 -1 4 0.60208402D-01 0.77804818D-02 0.18447637D+05 0.18447637D+05 0.18447637D+05 0.12377079D+01  1  2 11  4  6  1       21 0.221772796755D-04 0.100000000000D+01
0.436175333006D-13 0.000000000000D+00 0.000000000000D+00 0.604707067620D-06 0.000000000000D+00  6 1 -1 25 23 1 -1 4 0.60254828D-01 0.77683879D-02 0.18447637D+05 0.18447637D+05 0.18447637D+05 0.12377079D+01  3  4 12  5  5  1       21 0.551166506876D-10 0.100000000000D+01
-.197964252228D-06 0.000000000000D+00 -.187828818880D-07 0.605004584447D-06 0.000000000000D+00  6 1 -1 25 23 1 -1 4 0.60280992D-01 0.77683879D-02 0.18331718D+05 0.18331718D+05 0.18331718D+05 0.12380123D+01  3  4  5  5  5  1       21 -.250220208230D-03 0.100000000000D+01
0.238562377015D-06 0.000000000000D+00 0.000000000000D+00 0.605004584447D-06 0.240920981432D-06  6 1 -1 25 23 1 -1 4 0.60208402D-01 0.77804818D-02 0.18447637D+05 0.18447637D+05 0.18447637D+05 0.12377079D+01  3  4 11  5  5  1       21 0.301041920685D-03 0.100000000000D+01
0.436175333006D-13 0.000000000000D+00 0.000000000000D+00 0.604707067620D-06 0.000000000000D+00  6 -2 -1 25 23 -1 -2 4 0.60254828D-01 0.77683879D-02 0.18447637D+05 0.18447637D+05 0.18447637D+05 0.12377079D+01  1  2 12  6  6  1       21 0.171552386475D-10 0.100000000000D+01
0.436175333006D-13 0.000000000000D+00 0.000000000000D+00 0.604707067620D-06 0.000000000000D+00  6 -4 -1 25 23 -1 -4 4 0.60254828D-01 0.77683879D-02 0.18447637D+05 0.18447637D+05 0.18447637D+05 0.12377079D+01  1  2 12  6  6  1       21 0.869981860148D-11 0.100000000000D+01
-.197964252228D-06 0.000000000000D+00 -.187828818880D-07 0.605004584447D-06 0.000000000000D+00  6 -2 -1 25 23 -1 -2 4 0.60280992D-01 0.77683879D-02 0.18331718D+05 0.18331718D+05 0.18331718D+05 0.12380123D+01  1  2  5  6  6  1       21 -.778539079359D-04 0.100000000000D+01
-.197964252228D-06 0.000000000000D+00 -.187828818880D-07 0.605004584447D-06 0.000000000000D+00  6 -4 -1 25 23 -1 -4 4 0.60280992D-01 0.77683879D-02 0.18331718D+05 0.18331718D+05 0.18331718D+05 0.12380123D+01  1  2  5  6  6  1       21 -.394726845355D-04 0.100000000000D+01
0.452984865693D-07 0.000000000000D+00 0.000000000000D+00 0.605004584447D-06 0.199398986021D-07  6 -2 -1 25 23 -1 -2 4 0.60208402D-01 0.77804818D-02 0.18447637D+05 0.18447637D+05 0.18447637D+05 0.12377079D+01  1  2 11  6  6  1       21 0.178028530399D-04 0.100000000000D+01
0.452984865693D-07 0.000000000000D+00 0.000000000000D+00 0.605004584447D-06 0.199398986021D-07  6 -4 -1 25 23 -1 -4 4 0.60208402D-01 0.77804818D-02 0.18447637D+05 0.18447637D+05 0.18447637D+05 0.12377079D+01  1  2 11  6  6  1       21 0.902855891315D-05 0.100000000000D+01
0.436175333006D-13 0.000000000000D+00 0.000000000000D+00 0.604707067620D-06 0.000000000000D+00  6 2 -1 25 23 2 -1 4 0.60254828D-01 0.77683879D-02 0.18447637D+05 0.18447637D+05 0.18447637D+05 0.12377079D+01  3  4 12  7  5  1       21 0.817850053300D-10 0.100000000000D+01
0.436175333006D-13 0.000000000000D+00 0.000000000000D+00 0.604707067620D-06 0.000000000000D+00  6 4 -1 25 23 4 -1 4 0.60254828D-01 0.77683879D-02 0.18447637D+05 0.18447637D+05 0.18447637D+05 0.12377079D+01  3  4 12  7  5  1       21 0.869981860148D-11 0.100000000000D+01
-.197964252228D-06 0.000000000000D+00 -.187828818880D-07 0.605004584447D-06 0.000000000000D+00  6 2 -1 25 23 2 -1 4 0.60280992D-01 0.77683879D-02 0.18331718D+05 0.18331718D+05 0.18331718D+05 0.12380123D+01  3  4  5  7  5  1       21 -.371311951785D-03 0.100000000000D+01
-.197964252228D-06 0.000000000000D+00 -.187828818880D-07 0.605004584447D-06 0.000000000000D+00  6 4 -1 25 23 4 -1 4 0.60280992D-01 0.77683879D-02 0.18331718D+05 0.18331718D+05 0.18331718D+05 0.12380123D+01  3  4  5  7  5  1       21 -.394726845355D-04 0.100000000000D+01
0.451299664283D-07 0.000000000000D+00 0.000000000000D+00 0.605004584447D-06 0.198657178782D-07  6 2 -1 25 23 2 -1 4 0.60208402D-01 0.77804818D-02 0.18447637D+05 0.18447637D+05 0.18447637D+05 0.12377079D+01  3  4 11  7  5  1       21 0.844922779684D-04 0.100000000000D+01
0.451299664283D-07 0.000000000000D+00 0.000000000000D+00 0.605004584447D-06 0.198657178782D-07  6 4 -1 25 23 4 -1 4 0.60208402D-01 0.77804818D-02 0.18447637D+05 0.18447637D+05 0.18447637D+05 0.12377079D+01  3  4 11  7  5  1       21 0.899497072652D-05 0.100000000000D+01
0.436175333006D-13 0.000000000000D+00 0.000000000000D+00 0.604707067620D-06 0.000000000000D+00  6 -3 -1 25 23 -1 -3 4 0.60254828D-01 0.77683879D-02 0.18447637D+05 0.18447637D+05 0.18447637D+05 0.12377079D+01  1  2 12  8  6  1       21 0.106819348066D-10 0.100000000000D+01
-.197964252228D-06 0.000000000000D+00 -.187828818880D-07 0.605004584447D-06 0.000000000000D+00  6 -3 -1 25 23 -1 -3 4 0.60280992D-01 0.77683879D-02 0.18331718D+05 0.18331718D+05 0.18331718D+05 0.12380123D+01  1  2  5  8  6  1       21 -.484702394231D-04 0.100000000000D+01
0.456759993331D-07 0.000000000000D+00 0.000000000000D+00 0.605004584447D-06 0.201060755939D-07  6 -3 -1 25 23 -1 -3 4 0.60208402D-01 0.77804818D-02 0.18447637D+05 0.18447637D+05 0.18447637D+05 0.12377079D+01  1  2 11  8  6  1       21 0.111776080030D-04 0.100000000000D+01
0.436175333006D-13 0.000000000000D+00 0.000000000000D+00 0.604707067620D-06 0.000000000000D+00  6 3 -1 25 23 3 -1 4 0.60254828D-01 0.77683879D-02 0.18447637D+05 0.18447637D+05 0.18447637D+05 0.12377079D+01  3  4 12  9  5  1       21 0.106891696009D-10 0.100000000000D+01
-.197964252228D-06 0.000000000000D+00 -.187828818880D-07 0.605004584447D-06 0.000000000000D+00  6 3 -1 25 23 3 -1 4 0.60280992D-01 0.77683879D-02 0.18331718D+05 0.18331718D+05 0.18331718D+05 0.12380123D+01  3  4  5  9  5  1       21 -.485030975312D-04 0.100000000000D+01
0.459671124282D-07 0.000000000000D+00 0.000000000000D+00 0.605004584447D-06 0.202342203960D-07  6 3 -1 25 23 3 -1 4 0.60208402D-01 0.77804818D-02 0.18447637D+05 0.18447637D+05 0.18447637D+05 0.12377079D+01  3  4 11  9  5  1       21 0.112564521054D-04 0.100000000000D+01
  </mgrwgt>
  </event>
  <event>
  5     66 -.53732839E-03 0.14522537E+03 0.75467711E-02 0.10839230E+00
       21 -1    0    0  501  502 0.00000000E+00 0.00000000E+00 0.33537916E+03 0.33538000E+03 0.75000000E+00 0.0000E+00 0.9000E+01
       -1 -1    0    0    0  501 0.00000000E+00 0.00000000E+00 -.35102533E+03 0.35102548E+03 0.32000000E+00 0.0000E+00 0.9000E+01
       25  1    1    2    0    0 0.16023360E+03 -.46000457E+02 -.11306416E+02 0.20867123E+03 0.12500000E+03 0.0000E+00 0.9000E+01
       23  1    1    2    0    0 -.85813716E+02 0.18059942E+03 -.14986379E+03 0.26599727E+03 0.91188000E+02 0.0000E+00 0.9000E+01
       -1  1    1    2    0  502 -.74419879E+02 -.13459896E+03 0.14552404E+03 0.21173698E+03 0.32000000E+00 0.0000E+00 0.9000E+01
#aMCatNLO 1  0  0  1  2 0.24688402D+02 0.00000000D+00  -5  6  0 0.00000000D+00 0.00000000D+00 0.00000000D+00 0.00000000D+00 0.00000000D+00
  <mgrwgt>
 -.6638184567D-02   32    4    0
 0.343113567532948D+03 0.000000000000000D+00 0.000000000000000D+00 0.343113567532948D+03
 0.343113567532948D+03 0.000000000000000D+00 0.000000000000000D+00 -.343113567532948D+03
 0.208467683665306D+03 0.160233620813839D+03 -.460004114904155D+02 -.655164379200009D+01
 0.262649533820276D+03 -.858136849758012D+02 0.180599475590936D+03 -.143837989276691D+03
 0.215109917580313D+03 -.744199358380380D+02 -.134599064100520D+03 0.150389633068691D+03
 0.000000000000000D+00 -.000000000000000D+00 -.000000000000000D+00 0.000000000000000D+00
 0.641619048239501D+03 0.000000000000000D+00 0.000000000000000D+00 0.641619048239501D+03
 0.343846403384022D+03 0.000000000000000D+00 0.000000000000000D+00 -.343846403384022D+03
 0.213363891346981D+03 0.167294711119579D+03 -.432285290724279D+02 -.655164379200009D+01
 0.262319866920720D+03 -.770261579959296D+02 0.184049083297170D+03 -.143837989276691D+03
 0.210987340648259D+03 -.672874417394339D+02 -.131799151603685D+03 0.150389633068691D+03
 0.298794352707564D+03 -.229811113842152D+02 -.902140262105724D+01 0.297772644855479D+03
 0.343113567532948D+03 0.000000000000000D+00 0.000000000000000D+00 0.343113567532948D+03
 0.343113567532948D+03 0.000000000000000D+00 0.000000000000000D+00 -.343113567532948D+03
 0.208467683665306D+03 0.160233620813839D+03 -.460004114904155D+02 -.655164379200009D+01
 0.262649533820276D+03 -.858136849758012D+02 0.180599475590936D+03 -.143837989276691D+03
 0.000000000000000D+00 -.000000000000000D+00 -.000000000000000D+00 0.000000000000000D+00
 0.215109917580313D+03 -.744199358380380D+02 -.134599064100520D+03 0.150389633068691D+03
 0.641619048239501D+03 0.000000000000000D+00 0.000000000000000D+00 0.641619048239501D+03
 0.343846403384022D+03 0.000000000000000D+00 0.000000000000000D+00 -.343846403384022D+03
 0.213363891346981D+03 0.167294711119579D+03 -.432285290724279D+02 -.655164379200009D+01
 0.262319866920720D+03 -.770261579959296D+02 0.184049083297170D+03 -.143837989276691D+03
 0.298794352707564D+03 -.229811113842152D+02 -.902140262105724D+01 0.297772644855479D+03
 0.210987340648259D+03 -.672874417394339D+02 -.131799151603685D+03 0.150389633068691D+03
0.270443451379D-05 0.000000000000D+00 0.000000000000D+00 0.662724026183D-07 0.000000000000D+00  6 21 -1 25 23 -1 21 2 0.51596870D-01 0.54003973D-01 0.84660474D+05 0.84660474D+05 0.84660474D+05 0.11702741D+01  1  2  2  1  6  1       21 0.421189516886D-03 0.100000000000D+01
-.812408747632D-07 0.142716930219D-06 -.545947410122D-08 0.662724026183D-07 0.000000000000D+00  6 21 -1 25 23 -1 21 4 0.51596870D-01 0.54003973D-01 0.84660474D+05 0.84660474D+05 0.84660474D+05 0.11702741D+01  1  2  3  1  6  1       21 -.173280971489D-04 0.100000000000D+01
0.167643233239D-06 0.000000000000D+00 0.000000000000D+00 0.662724026183D-07 0.000000000000D+00  6 21 -1 25 23 -1 21 4 0.51596870D-01 0.54003973D-01 0.84660474D+05 0.84660474D+05 0.84660474D+05 0.11702741D+01  1  2 15  1  6  1       21 0.357571018332D-04 0.100000000000D+01
0.231707355803D-03 0.000000000000D+00 0.000000000000D+00 0.659121979331D-07 0.000000000000D+00  6 21 -1 25 23 -1 21 4 0.96495040D-01 0.54003973D-01 0.91597492D+05 0.91597492D+05 0.91597492D+05 0.11670894D+01  1  2 12  1  6  1       21 0.119980700524D-01 0.100000000000D+01
0.228957591345D-03 0.000000000000D+00 0.000000000000D+00 0.659121979331D-07 0.000000000000D+00  6 21 -1 25 23 -1 21 4 0.97178929D-01 0.54003973D-01 0.91597492D+05 0.91597492D+05 0.91597492D+05 0.11670894D+01  1  2 12  1  6  1       21 0.116579379903D-01 0.100000000000D+01
-.310664299644D-03 0.000000000000D+00 0.000000000000D+00 0.662724026183D-07 0.000000000000D+00  6 21 -1 25 23 -1 21 4 0.51596870D-01 0.54003973D-01 0.84660474D+05 0.84660474D+05 0.84660474D+05 0.11702741D+01  1  2  4  1  6  1       21 -.662624717006D-01 0.100000000000D+01
-.462991838063D-03 0.000000000000D+00 -.352627871249D-05 0.662724026183D-07 0.000000000000D+00  6 21 -1 25 23 -1 21 4 0.96552349D-01 0.54003973D-01 0.84660474D+05 0.84660474D+05 0.84660474D+05 0.11702741D+01  1  2  5  1  6  1       21 -.243125325852D-01 0.100000000000D+01
0.281008533924D-03 0.000000000000D+00 0.178462235959D-05 0.662724026183D-07 0.000000000000D+00  6 21 -1 25 23 -1 21 4 0.51596870D-01 0.54003973D-01 0.84660474D+05 0.84660474D+05 0.84660474D+05 0.11702741D+01  1  2  6  1  6  1       21 0.599371091178D-01 0.100000000000D+01
0.416887336660D-04 0.000000000000D+00 0.000000000000D+00 0.659121979331D-07 0.000000000000D+00  6 -1 -1 25 23 -1 -1 4 0.96495040D-01 0.54003973D-01 0.91597492D+05 0.91597492D+05 0.91597492D+05 0.11670894D+01  1  2 12  4  6  1       21 0.254453683887D-03 0.100000000000D+01
0.417078967700D-04 0.000000000000D+00 0.000000000000D+00 0.659121979331D-07 0.000000000000D+00  6 -1 -1 25 23 -1 -1 4 0.97178929D-01 0.54003973D-01 0.91597492D+05 0.91597492D+05 0.91597492D+05 0.11670894D+01  1  2 12  4  6  1       21 0.250623545843D-03 0.100000000000D+01
-.831858424147D-04 0.000000000000D+00 -.786770839190D-06 0.662724026183D-07 0.000000000000D+00  6 -1 -1 25 23 -1 -1 4 0.96552349D-01 0.54003973D-01 0.84660474D+05 0.84660474D+05 0.84660474D+05 0.11702741D+01  1  2  5  4  6  1       21 -.513729606650D-03 0.100000000000D+01
0.416887336660D-04 0.000000000000D+00 0.000000000000D+00 0.659121979331D-07 0.000000000000D+00  6 1 -1 25 23 1 -1 4 0.96495040D-01 0.54003973D-01 0.91597492D+05 0.91597492D+05 0.91597492D+05 0.11670894D+01  3  4 12  5  5  1       21 0.914857633578D-03 0.100000000000D+01
0.417078967700D-04 0.000000000000D+00 0.000000000000D+00 0.659121979331D-07 0.000000000000D+00  6 1 -1 25 23 1 -1 4 0.97178929D-01 0.54003973D-01 0.91597492D+05 0.91597492D+05 0.91597492D+05 0.11670894D+01  3  4 12  5  5  1       21 0.906148802583D-03 0.100000000000D+01
-.831858424147D-04 0.000000000000D+00 -.786770839190D-06 0.662724026183D-07 0.000000000000D+00  6 1 -1 25 23 1 -1 4 0.96552349D-01 0.54003973D-01 0.84660474D+05 0.84660474D+05 0.84660474D+05 0.11702741D+01  3  4  5  5  5  1       21 -.184751169461D-02 0.100000000000D+01
0.416887336660D-04 0.000000000000D+00 0.000000000000D+00 0.659121979331D-07 0.000000000000D+00  6 -2 -1 25 23 -1 -2 4 0.96495040D-01 0.54003973D-01 0.91597492D+05 0.91597492D+05 0.91597492D+05 0.11670894D+01  1  2 12  6  6  1       21 0.191079964191D-03 0.100000000000D+01
0.416887336660D-04 0.000000000000D+00 0.000000000000D+00 0.659121979331D-07 0.000000000000D+00  6 -4 -1 25 23 -1 -4 4 0.96495040D-01 0.54003973D-01 0.91597492D+05 0.91597492D+05 0.91597492D+05 0.11670894D+01  1  2 12  6  6  1       21 0.998132794036D-04 0.100000000000D+01
0.417078967700D-04 0.000000000000D+00 0.000000000000D+00 0.659121979331D-07 0.000000000000D+00  6 -2 -1 25 23 -1 -2 4 0.97178929D-01 0.54003973D-01 0.91597492D+05 0.91597492D+05 0.91597492D+05 0.11670894D+01  1  2 12  6  6  1       21 0.188067994033D-03 0.100000000000D+01
0.417078967700D-04 0.000000000000D+00 0.000000000000D+00 0.659121979331D-07 0.000000000000D+00  6 -4 -1 25 23 -1 -4 4 0.97178929D-01 0.54003973D-01 0.91597492D+05 0.91597492D+05 0.91597492D+05 0.11670894D+01  1  2 12  6  6  1       21 0.982256928752D-04 0.100000000000D+01
-.831858424147D-04 0.000000000000D+00 -.786770839190D-06 0.662724026183D-07 0.000000000000D+00  6 -2 -1 25 23 -1 -2 4 0.96552349D-01 0.54003973D-01 0.84660474D+05 0.84660474D+05 0.84660474D+05 0.11702741D+01  1  2  5  6  6  1       21 -.385599100096D-03 0.100000000000D+01
-.831858424147D-04 0.000000000000D+00 -.786770839190D-06 0.662724026183D-07 0.000000000000D+00  6 -4 -1 25 23 -1 -4 4 0.96552349D-01 0.54003973D-01 0.84660474D+05 0.84660474D+05 0.84660474D+05 0.11702741D+01  1  2  5  6  6  1       21 -.201057777246D-03 0.100000000000D+01
0.416887336660D-04 0.000000000000D+00 0.000000000000D+00 0.659121979331D-07 0.000000000000D+00  6 2 -1 25 23 2 -1 4 0.96495040D-01 0.54003973D-01 0.91597492D+05 0.91597492D+05 0.91597492D+05 0.11670894D+01  3  4 12  7  5  1       21 0.150787862722D-02 0.100000000000D+01
0.416887336660D-04 0.000000000000D+00 0.000000000000D+00 0.659121979331D-07 0.000000000000D+00  6 4 -1 25 23 4 -1 4 0.96495040D-01 0.54003973D-01 0.91597492D+05 0.91597492D+05 0.91597492D+05 0.11670894D+01  3  4 12  7  5  1       21 0.998132794036D-04 0.100000000000D+01
0.417078967700D-04 0.000000000000D+00 0.000000000000D+00 0.659121979331D-07 0.000000000000D+00  6 2 -1 25 23 2 -1 4 0.97178929D-01 0.54003973D-01 0.91597492D+05 0.91597492D+05 0.91597492D+05 0.11670894D+01  3  4 12  7  5  1       21 0.149597742547D-02 0.100000000000D+01
0.417078967700D-04 0.000000000000D+00 0.000000000000D+00 0.659121979331D-07 0.000000000000D+00  6 4 -1 25 23 4 -1 4 0.97178929D-01 0.54003973D-01 0.91597492D+05 0.91597492D+05 0.91597492D+05 0.11670894D+01  3  4 12  7  5  1       21 0.982256928752D-04 0.100000000000D+01
-.831858424147D-04 0.000000000000D+00 -.786770839190D-06 0.662724026183D-07 0.000000000000D+00  6 2 -1 25 23 2 -1 4 0.96552349D-01 0.54003973D-01 0.84660474D+05 0.84660474D+05 0.84660474D+05 0.11702741D+01  3  4  5  7  5  1       21 -.304442950303D-02 0.100000000000D+01
-.831858424147D-04 0.000000000000D+00 -.786770839190D-06 0.662724026183D-07 0.000000000000D+00  6 4 -1 25 23 4 -1 4 0.96552349D-01 0.54003973D-01 0.84660474D+05 0.84660474D+05 0.84660474D+05 0.11702741D+01  3  4  5  7  5  1       21 -.201057777246D-03 0.100000000000D+01
0.416887336660D-04 0.000000000000D+00 0.000000000000D+00 0.659121979331D-07 0.000000000000D+00  6 -3 -1 25 23 -1 -3 4 0.96495040D-01 0.54003973D-01 0.91597492D+05 0.91597492D+05 0.91597492D+05 0.11670894D+01  1  2 12  8  6  1       21 0.123017611781D-03 0.100000000000D+01
0.417078967700D-04 0.000000000000D+00 0.000000000000D+00 0.659121979331D-07 0.000000000000D+00  6 -3 -1 25 23 -1 -3 4 0.97178929D-01 0.54003973D-01 0.91597492D+05 0.91597492D+05 0.91597492D+05 0.11670894D+01  1  2 12  8  6  1       21 0.121097835664D-03 0.100000000000D+01
-.831858424147D-04 0.000000000000D+00 -.786770839190D-06 0.662724026183D-07 0.000000000000D+00  6 -3 -1 25 23 -1 -3 4 0.96552349D-01 0.54003973D-01 0.84660474D+05 0.84660474D+05 0.84660474D+05 0.11702741D+01  1  2  5  8  6  1       21 -.247961291766D-03 0.100000000000D+01
0.416887336660D-04 0.000000000000D+00 0.000000000000D+00 0.659121979331D-07 0.000000000000D+00  6 3 -1 25 23 3 -1 4 0.96495040D-01 0.54003973D-01 0.91597492D+05 0.91597492D+05 0.91597492D+05 0.11670894D+01  3  4 12  9  5  1       21 0.123245334829D-03 0.100000000000D+01
0.417078967700D-04 0.000000000000D+00 0.000000000000D+00 0.659121979331D-07 0.000000000000D+00  6 3 -1 25 23 3 -1 4 0.97178929D-01 0.54003973D-01 0.91597492D+05 0.91597492D+05 0.91597492D+05 0.11670894D+01  3  4 12  9  5  1       21 0.121324911226D-03 0.100000000000D+01
-.831858424147D-04 0.000000000000D+00 -.786770839190D-06 0.662724026183D-07 0.000000000000D+00  6 3 -1 25 23 3 -1 4 0.96552349D-01 0.54003973D-01 0.84660474D+05 0.84660474D+05 0.84660474D+05 0.11702741D+01  3  4  5  9  5  1       21 -.248420527700D-03 0.100000000000D+01
  </mgrwgt>
  </event>
  <event>
  5     66 0.53732839E-03 0.21959174E+02 0.75467711E-02 0.12143476E+00
       21 -1    0    0  501  502 0.00000000E+00 0.00000000E+00 0.91915741E+02 0.91918801E+02 0.75000000E+00 0.0000E+00 0.9000E+01
       -1 -1    0    0    0  501 0.00000000E+00 0.00000000E+00 -.26435125E+03 0.26435144E+03 0.32000000E+00 0.0000E+00 0.9000E+01
       25  1    1    2    0    0 0.20955894E+02 -.43040006E+02 -.16171539E+03 0.20992489E+03 0.12500000E+03 0.0000E+00 0.9000E+01
       23  1    1    2    0    0 -.40231312E+02 0.53555875E+02 0.13153464E+02 0.11390810E+03 0.91188000E+02 0.0000E+00 0.9000E+01
       -1  1    1    2    0  502 0.19275418E+02 -.10515869E+02 -.23873583E+02 0.32437256E+02 0.32000000E+00 0.0000E+00 0.9000E+01
#aMCatNLO 1  0  0  1  2 0.93158848D+01 0.00000000D+00  -5  6  0 0.00000000D+00 0.00000000D+00 0.00000000D+00 0.00000000D+00 0.00000000D+00
  <mgrwgt>
 0.9543151914D-02   32    4    0
 0.155880148650309D+03 0.000000000000000D+00 0.000000000000000D+00 0.155880148650309D+03
 0.155880148650309D+03 0.000000000000000D+00 0.000000000000000D+00 -.155880148650309D+03
 0.150450143302241D+03 0.209550575112219D+02 -.430395492419531D+02 -.686930009929377D+02
 0.137446548602570D+03 -.402320762737708D+02 0.535562916403976D+02 0.780346464282942D+02
 0.238636053958076D+02 0.192770187625488D+02 -.105167423984445D+02 -.934164543535654D+01
 0.000000000000000D+00 0.000000000000000D+00 0.000000000000000D+00 0.000000000000000D+00
 0.160983080267247D+03 0.000000000000000D+00 0.000000000000000D+00 0.160983080267247D+03
 0.160260257329330D+03 0.000000000000000D+00 0.000000000000000D+00 -.160260257329330D+03
 0.150459612175006D+03 0.168377175929398D+02 -.448425888714951D+02 -.686930009929377D+02
 0.137967175261824D+03 -.440005546918636D+02 0.519060232472720D+02 0.780346464282942D+02
 0.234726654038288D+02 0.186293178695125D+02 -.108003795042975D+02 -.934164543535654D+01
 0.934388475591847D+01 0.853351922941138D+01 0.373694512852050D+01 0.722822937916836D+00
 0.155880148650309D+03 0.000000000000000D+00 0.000000000000000D+00 0.155880148650309D+03
 0.155880148650309D+03 0.000000000000000D+00 0.000000000000000D+00 -.155880148650309D+03
 0.150450143302241D+03 0.209550575112219D+02 -.430395492419531D+02 -.686930009929377D+02
 0.137446548602570D+03 -.402320762737708D+02 0.535562916403976D+02 0.780346464282942D+02
 0.000000000000000D+00 0.000000000000000D+00 0.000000000000000D+00 0.000000000000000D+00
 0.238636053958076D+02 0.192770187625488D+02 -.105167423984445D+02 -.934164543535654D+01
 0.160983080267247D+03 0.000000000000000D+00 0.000000000000000D+00 0.160983080267247D+03
 0.160260257329330D+03 0.000000000000000D+00 0.000000000000000D+00 -.160260257329330D+03
 0.150459612175006D+03 0.168377175929398D+02 -.448425888714951D+02 -.686930009929377D+02
 0.137967175261824D+03 -.440005546918636D+02 0.519060232472720D+02 0.780346464282942D+02
 0.934388475591847D+01 0.853351922941138D+01 0.373694512852050D+01 0.722822937916836D+00
 0.234726654038288D+02 0.186293178695125D+02 -.108003795042975D+02 -.934164543535654D+01
0.276732761307D-06 0.000000000000D+00 0.000000000000D+00 0.223513161813D-06 0.000000000000D+00  6 21 -1 25 23 -1 21 2 0.14141134D-01 0.40669674D-01 0.18084648D+05 0.18084648D+05 0.18084648D+05 0.12386685D+01  1  2  2  1  6  1       21 0.102029672045D-02 0.100000000000D+01
0.629981449944D-08 0.146035890251D-07 -.558643714837D-09 0.223513161813D-06 0.000000000000D+00  6 21 -1 25 23 -1 21 4 0.14141134D-01 0.40669674D-01 0.18084648D+05 0.18084648D+05 0.18084648D+05 0.12386685D+01  1  2  3  1  6  1       21 0.356372213948D-04 0.100000000000D+01
0.292751146805D-07 0.000000000000D+00 0.000000000000D+00 0.223513161813D-06 0.000000000000D+00  6 21 -1 25 23 -1 21 4 0.14141134D-01 0.40669674D-01 0.18084648D+05 0.18084648D+05 0.18084648D+05 0.12386685D+01  1  2 15  1  6  1       21 0.165605470339D-03 0.100000000000D+01
0.703586983578D-06 0.000000000000D+00 0.000000000000D+00 0.222303260731D-06 0.000000000000D+00  6 21 -1 25 23 -1 21 4 0.14796749D-01 0.40669674D-01 0.19389345D+05 0.19389345D+05 0.19389345D+05 0.12353114D+01  1  2 12  1  6  1       21 0.363004540316D-02 0.100000000000D+01
-.535838616588D-07 0.000000000000D+00 0.000000000000D+00 0.223513161813D-06 0.000000000000D+00  6 21 -1 25 23 -1 21 4 0.14141134D-01 0.40669674D-01 0.18084648D+05 0.18084648D+05 0.18084648D+05 0.12386685D+01  1  2  4  1  6  1       21 -.303116852297D-03 0.100000000000D+01
-.890972334753D-05 0.000000000000D+00 -.154996494927D-05 0.223513161813D-06 0.000000000000D+00  6 21 -1 25 23 -1 21 4 0.15002624D-01 0.40669674D-01 0.18084648D+05 0.18084648D+05 0.18084648D+05 0.12386685D+01  1  2  5  1  6  1       21 -.453103930226D-01 0.100000000000D+01
0.893854334425D-05 0.000000000000D+00 0.153917728802D-05 0.223513161813D-06 0.000000000000D+00  6 21 -1 25 23 -1 21 4 0.14141134D-01 0.40669674D-01 0.18084648D+05 0.18084648D+05 0.18084648D+05 0.12386685D+01  1  2  6  1  6  1       21 0.505641631408D-01 0.100000000000D+01
0.258100043318D-11 0.000000000000D+00 0.000000000000D+00 0.223513161813D-06 0.521356334490D-07  6 21 -1 25 23 -1 21 4 0.14604061D-01 0.41812459D-01 0.19389345D+05 0.19389345D+05 0.19389345D+05 0.12353114D+01  1  2 11  1  6  1       21 0.129845685654D-07 0.100000000000D+01
0.114846315438D-07 0.000000000000D+00 0.000000000000D+00 0.222303260731D-06 0.000000000000D+00  6 -1 -1 25 23 -1 -1 4 0.14796749D-01 0.40669674D-01 0.19389345D+05 0.19389345D+05 0.19389345D+05 0.12353114D+01  1  2 12  4  6  1       21 0.430499914347D-05 0.100000000000D+01
-.107938487408D-06 0.000000000000D+00 -.221796739745D-07 0.223513161813D-06 0.000000000000D+00  6 -1 -1 25 23 -1 -1 4 0.15002624D-01 0.40669674D-01 0.18084648D+05 0.18084648D+05 0.18084648D+05 0.12386685D+01  1  2  5  4  6  1       21 -.399650035057D-04 0.100000000000D+01
0.493583825735D-12 0.000000000000D+00 0.000000000000D+00 0.223513161813D-06 0.248759361904D-09  6 -1 -1 25 23 -1 -1 4 0.14604061D-01 0.41812459D-01 0.19389345D+05 0.19389345D+05 0.19389345D+05 0.12353114D+01  1  2 11  4  6  1       21 0.179849395370D-09 0.100000000000D+01
0.114846315438D-07 0.000000000000D+00 0.000000000000D+00 0.222303260731D-06 0.000000000000D+00  6 1 -1 25 23 1 -1 4 0.14796749D-01 0.40669674D-01 0.19389345D+05 0.19389345D+05 0.19389345D+05 0.12353114D+01  3  4 12  5  5  1       21 0.591322360573D-05 0.100000000000D+01
-.107938487408D-06 0.000000000000D+00 -.221796739745D-07 0.223513161813D-06 0.000000000000D+00  6 1 -1 25 23 1 -1 4 0.15002624D-01 0.40669674D-01 0.18084648D+05 0.18084648D+05 0.18084648D+05 0.12386685D+01  3  4  5  5  5  1       21 -.551056128661D-04 0.100000000000D+01
0.346042162341D-11 0.000000000000D+00 0.000000000000D+00 0.223513161813D-06 0.692450256078D-07  6 1 -1 25 23 1 -1 4 0.14604061D-01 0.41812459D-01 0.19389345D+05 0.19389345D+05 0.19389345D+05 0.12353114D+01  3  4 11  5  5  1       21 0.172583036803D-08 0.100000000000D+01
0.114846315438D-07 0.000000000000D+00 0.000000000000D+00 0.222303260731D-06 0.000000000000D+00  6 -2 -1 25 23 -1 -2 4 0.14796749D-01 0.40669674D-01 0.19389345D+05 0.19389345D+05 0.19389345D+05 0.12353114D+01  1  2 12  6  6  1       21 0.402793246123D-05 0.100000000000D+01
0.114846315438D-07 0.000000000000D+00 0.000000000000D+00 0.222303260731D-06 0.000000000000D+00  6 -4 -1 25 23 -1 -4 4 0.14796749D-01 0.40669674D-01 0.19389345D+05 0.19389345D+05 0.19389345D+05 0.12353114D+01  1  2 12  6  6  1       21 0.231344152522D-05 0.100000000000D+01
-.107938487408D-06 0.000000000000D+00 -.221796739745D-07 0.223513161813D-06 0.000000000000D+00  6 -2 -1 25 23 -1 -2 4 0.15002624D-01 0.40669674D-01 0.18084648D+05 0.18084648D+05 0.18084648D+05 0.12386685D+01  1  2  5  6  6  1       21 -.373565954531D-04 0.100000000000D+01
-.107938487408D-06 0.000000000000D+00 -.221796739745D-07 0.223513161813D-06 0.000000000000D+00  6 -4 -1 25 23 -1 -4 4 0.15002624D-01 0.40669674D-01 0.18084648D+05 0.18084648D+05 0.18084648D+05 0.12386685D+01  1  2  5  6  6  1       21 -.213722903462D-04 0.100000000000D+01
0.661309008383D-12 0.000000000000D+00 0.000000000000D+00 0.223513161813D-06 0.408893050203D-09  6 -2 -1 25 23 -1 -2 4 0.14604061D-01 0.41812459D-01 0.19389345D+05 0.19389345D+05 0.19389345D+05 0.12353114D+01  1  2 11  6  6  1       21 0.225649832129D-09 0.100000000000D+01
0.661309008383D-12 0.000000000000D+00 0.000000000000D+00 0.223513161813D-06 0.408893050203D-09  6 -4 -1 25 23 -1 -4 4 0.14604061D-01 0.41812459D-01 0.19389345D+05 0.19389345D+05 0.19389345D+05 0.12353114D+01  1  2 11  6  6  1       21 0.129792867117D-09 0.100000000000D+01
0.114846315438D-07 0.000000000000D+00 0.000000000000D+00 0.222303260731D-06 0.000000000000D+00  6 2 -1 25 23 2 -1 4 0.14796749D-01 0.40669674D-01 0.19389345D+05 0.19389345D+05 0.19389345D+05 0.12353114D+01  3  4 12  7  5  1       21 0.701982568680D-05 0.100000000000D+01
0.114846315438D-07 0.000000000000D+00 0.000000000000D+00 0.222303260731D-06 0.000000000000D+00  6 4 -1 25 23 4 -1 4 0.14796749D-01 0.40669674D-01 0.19389345D+05 0.19389345D+05 0.19389345D+05 0.12353114D+01  3  4 12  7  5  1       21 0.231344152522D-05 0.100000000000D+01
-.107938487408D-06 0.000000000000D+00 -.221796739745D-07 0.223513161813D-06 0.000000000000D+00  6 2 -1 25 23 2 -1 4 0.15002624D-01 0.40669674D-01 0.18084648D+05 0.18084648D+05 0.18084648D+05 0.12386685D+01  3  4  5  7  5  1       21 -.655264897481D-04 0.100000000000D+01
-.107938487408D-06 0.000000000000D+00 -.221796739745D-07 0.223513161813D-06 0.000000000000D+00  6 4 -1 25 23 4 -1 4 0.15002624D-01 0.40669674D-01 0.18084648D+05 0.18084648D+05 0.18084648D+05 0.12386685D+01  3  4  5  7  5  1       21 -.213722903462D-04 0.100000000000D+01
0.752181364359D-12 0.000000000000D+00 0.000000000000D+00 0.223513161813D-06 0.465080209827D-09  6 2 -1 25 23 2 -1 4 0.14604061D-01 0.41812459D-01 0.19389345D+05 0.19389345D+05 0.19389345D+05 0.12353114D+01  3  4 11  7  5  1       21 0.444626968872D-09 0.100000000000D+01
0.752181364359D-12 0.000000000000D+00 0.000000000000D+00 0.223513161813D-06 0.465080209827D-09  6 4 -1 25 23 4 -1 4 0.14604061D-01 0.41812459D-01 0.19389345D+05 0.19389345D+05 0.19389345D+05 0.12353114D+01  3  4 11  7  5  1       21 0.147628074977D-09 0.100000000000D+01
0.114846315438D-07 0.000000000000D+00 0.000000000000D+00 0.222303260731D-06 0.000000000000D+00  6 -3 -1 25 23 -1 -3 4 0.14796749D-01 0.40669674D-01 0.19389345D+05 0.19389345D+05 0.19389345D+05 0.12353114D+01  1  2 12  8  6  1       21 0.268487547436D-05 0.100000000000D+01
-.107938487408D-06 0.000000000000D+00 -.221796739745D-07 0.223513161813D-06 0.000000000000D+00  6 -3 -1 25 23 -1 -3 4 0.15002624D-01 0.40669674D-01 0.18084648D+05 0.18084648D+05 0.18084648D+05 0.12386685D+01  1  2  5  8  6  1       21 -.248346239637D-04 0.100000000000D+01
0.459213042197D-12 0.000000000000D+00 0.000000000000D+00 0.223513161813D-06 0.283935375349D-09  6 -3 -1 25 23 -1 -3 4 0.14604061D-01 0.41812459D-01 0.19389345D+05 0.19389345D+05 0.19389345D+05 0.12353114D+01  1  2 11  8  6  1       21 0.104549852697D-09 0.100000000000D+01
0.114846315438D-07 0.000000000000D+00 0.000000000000D+00 0.222303260731D-06 0.000000000000D+00  6 3 -1 25 23 3 -1 4 0.14796749D-01 0.40669674D-01 0.19389345D+05 0.19389345D+05 0.19389345D+05 0.12353114D+01  3  4 12  9  5  1       21 0.268454478215D-05 0.100000000000D+01
-.107938487408D-06 0.000000000000D+00 -.221796739745D-07 0.223513161813D-06 0.000000000000D+00  6 3 -1 25 23 3 -1 4 0.15002624D-01 0.40669674D-01 0.18084648D+05 0.18084648D+05 0.18084648D+05 0.12386685D+01  3  4  5  9  5  1       21 -.248315563464D-04 0.100000000000D+01
0.302233985256D-12 0.000000000000D+00 0.000000000000D+00 0.223513161813D-06 0.186873873696D-09  6 3 -1 25 23 3 -1 4 0.14604061D-01 0.41812459D-01 0.19389345D+05 0.19389345D+05 0.19389345D+05 0.12353114D+01  3  4 11  9  5  1       21 0.688016329302D-10 0.100000000000D+01
  </mgrwgt>
  </event>
  <event>
  6     66 -.53732839E-03 0.48604387E+03 0.75467711E-02 0.10071465E+00
       21 -1    0    0  501  503 0.00000000E+00 0.00000000E+00 0.81807421E+03 0.81807455E+03 0.75000000E+00 0.0000E+00 0.9000E+01
       -3 -1    0    0    0  501 0.00000000E+00 0.00000000E+00 -.38037326E+03 0.38037359E+03 0.50000000E+00 0.0000E+00 0.9000E+01
       25  1    1    2    0    0 -.21111040E+03 0.30563107E+03 -.16545613E+02 0.39227122E+03 0.12500000E+03 0.0000E+00 0.9000E+01
       23  1    1    2    0    0 -.12184880E+03 0.58181693E+02 0.69998001E+02 0.17733361E+03 0.91188000E+02 0.0000E+00 0.9000E+01
       -3  1    1    2    0  502 0.31277447E+03 -.36034787E+03 0.36534092E+03 0.60095981E+03 0.50000000E+00 0.0000E+00 0.9000E+01
       21  1    1    2  502  503 0.20184723E+02 -.34648968E+01 0.18907643E+02 0.27883508E+02 0.75000000E+00 0.0000E+00 0.9000E+01
#aMCatNLO 2  0  0  1  5 0.20479955D+02 0.00000000D+00  -5  6  0 0.00000000D+00 0.00000000D+00 0.00000000D+00 0.00000000D+00 0.00000000D+00
  <mgrwgt>
 -.1243781458D-02    4    2    0
 0.546446317287204D+03 0.000000000000000D+00 0.000000000000000D+00 0.546446317287204D+03
 0.546446317287204D+03 0.000000000000000D+00 0.000000000000000D+00 -.546446317287204D+03
 0.421622312555436D+03 -.203279904639827D+03 0.304286951419135D+03 -.168009243823861D+03
 0.160678832141453D+03 -.118859271399811D+03 0.576685348858282D+02 0.701779458016414D+01
 0.510591489877520D+03 0.322139176039638D+03 -.361955486304963D+03 0.160991449243697D+03
 0.000000000000000D+00 0.000000000000000D+00 -.000000000000000D+00 0.000000000000000D+00
 0.562626317316724D+03 0.000000000000000D+00 0.000000000000000D+00 0.562626317316724D+03
 0.553061572333381D+03 0.000000000000000D+00 0.000000000000000D+00 -.553061572333381D+03
 0.426415435876899D+03 -.211110456463521D+03 0.305631138982244D+03 -.168009243823861D+03
 0.163085094904606D+03 -.121848820171742D+03 0.581817189332641D+02 0.701779458016414D+01
 0.503583976139705D+03 0.312774553344897D+03 -.360347961108412D+03 0.160991449243697D+03
 0.226033827288942D+02 0.201847232903663D+02 -.346489680709676D+01 0.956474498334301D+01
-.955290762938D-04 0.000000000000D+00 0.000000000000D+00 0.835848233912D-07 0.000000000000D+00  6 21 -3 25 23 -3 21 4 0.12658045D+00 0.57818413D-01 0.27693536D+06 0.27693536D+06 0.27693536D+06 0.11249967D+01  1  2 13  1  6  1       21 -.940171550559D-03 0.100000000000D+01
-.696093521211D-04 0.000000000000D+00 0.000000000000D+00 0.835848233912D-07 0.000000000000D+00  6 21 -3 25 23 -3 21 4 0.12813887D+00 0.57818413D-01 0.27693536D+06 0.27693536D+06 0.27693536D+06 0.11249967D+01  1  2 13  1  6  1       21 -.663667017944D-03 0.100000000000D+01
-.117571742799D-03 0.000000000000D+00 0.000000000000D+00 0.837978549753D-07 0.000000000000D+00  6 21 -3 25 23 -3 21 4 0.12223684D+00 0.57818413D-01 0.26613935D+06 0.26613935D+06 0.26613935D+06 0.11264294D+01  1  2  8  1  6  1       21 -.127515415287D-02 0.100000000000D+01
0.167893928776D-03 0.000000000000D+00 0.000000000000D+00 0.837978549753D-07 0.485802010075D-08  6 21 -3 25 23 -3 21 4 0.12585621D+00 0.58518360D-01 0.27693536D+06 0.27693536D+06 0.27693536D+06 0.11249967D+01  1  2  1  1  6  1       21 0.163521126334D-02 0.100000000000D+01
  </mgrwgt>
  </event>
  <event>
  6     66 0.53732839E-03 0.13969625E+02 0.75467711E-02 0.11374487E+00
       21 -1    0    0  501  502 0.00000000E+00 0.00000000E+00 0.66713783E+03 0.66713825E+03 0.75000000E+00 0.0000E+00 0.9000E+01
       -1 -1    0    0    0  501 0.00000000E+00 0.00000000E+00 -.11419696E+03 0.11419741E+03 0.32000000E+00 0.0000E+00 0.9000E+01
       25  1    1    2    0    0 -.60325601E+02 0.16001521E+03 0.23952525E+03 0.31975207E+03 0.12500000E+03 0.0000E+00 0.9000E+01
       23  1    1    2    0    0 0.81972282E+02 -.13797648E+03 0.44123684E+02 0.18978703E+03 0.91188000E+02 0.0000E+00 0.9000E+01
       -1  1    1    2    0  503 -.18796785E+02 -.89879017E+01 0.11090767E+03 0.11284820E+03 0.32000000E+00 0.0000E+00 0.9000E+01
       21  1    1    2  503  502 -.28498958E+01 -.13050821E+02 0.15838426E+03 0.15894836E+03 0.75000000E+00 0.0000E+00 0.9000E+01
#aMCatNLO 2  0  0  5  1 0.98316270D+01 0.00000000D+00  -5  6  0 0.00000000D+00 0.00000000D+00 0.00000000D+00 0.00000000D+00 0.00000000D+00
  <mgrwgt>
 0.2746232761D-01    2    2    0
 0.276017126734218D+03 0.000000000000000D+00 0.000000000000000D+00 0.276017126734218D+03
 0.276017126734218D+03 -.000000000000000D+00 -.000000000000000D+00 -.276017126734218D+03
 0.212656715320517D+03 -.601959519527475D+02 0.160147203672389D+03 0.180886454807512D+02
 0.224780734669247D+03 0.821092156262908D+02 -.137837069452750D+03 -.128336067916855D+03
 0.114596803478671D+03 -.219132636735432D+02 -.223101342196388D+02 0.110247422436104D+03
 0.000000000000000D+00 0.000000000000000D+00 0.000000000000000D+00 0.000000000000000D+00
 0.276017126734218D+03 0.000000000000000D+00 0.000000000000000D+00 0.276017126734218D+03
 0.276017126734218D+03 -.000000000000000D+00 -.000000000000000D+00 -.276017126734218D+03
 0.212650621293173D+03 -.603243882891638D+02 0.160016441228838D+03 0.187348191976372D+02
 0.224427056099216D+03 0.819735617168253D+02 -.137975180186627D+03 -.127653581999433D+03
 0.482440082156559D+02 -.186814223246608D+02 -.891372378828509D+01 0.435779108823048D+02
 0.667125678603921D+02 -.296775110300073D+01 -.131275372539259D+02 0.653408519194909D+02
-.216024816242D-04 0.000000000000D+00 0.000000000000D+00 0.681965084528D-06 0.000000000000D+00  6 21 -1 25 23 -1 21 4 0.10263666D+00 0.17568831D-01 0.46347155D+05 0.46347155D+05 0.46347155D+05 0.11955585D+01  1  2 13  3  6  5       -1 -.760293402378D-02 0.100000000000D+01
0.996321509282D-04 0.000000000000D+00 0.000000000000D+00 0.682626852343D-06 0.754643877642D-07  6 21 -1 25 23 -1 21 4 0.10263666D+00 0.17568831D-01 0.46347155D+05 0.46347155D+05 0.46347155D+05 0.11955585D+01  1  2  1  3  6  5       -1 0.350652616367D-01 0.100000000000D+01
  </mgrwgt>
  </event>
  <event>
  6     66 0.53732839E-03 0.86700796E+02 0.75467711E-02 0.11739411E+00
       21 -1    0    0  501  502 0.00000000E+00 0.00000000E+00 0.29219204E+02 0.29228828E+02 0.75000000E+00 0.0000E+00 0.9000E+01
       -1 -1    0    0    0  501 -.00000000E+00 -.00000000E+00 -.13532310E+04 0.13532310E+04 0.32000000E+00 0.0000E+00 0.9000E+01
       25  1    1    2    0    0 -.12739068E+02 -.14273952E+02 -.73471669E+03 0.74551971E+03 0.12500000E+03 0.0000E+00 0.9000E+01
       23  1    1    2    0    0 -.21489272E+02 -.54993970E+02 -.36715312E+03 0.38288744E+03 0.91188000E+02 0.0000E+00 0.9000E+01
       -1  1    1    2    0  503 -.67451257E+01 -.16644722E+02 -.86496605E+02 0.88341998E+02 0.32000000E+00 0.0000E+00 0.9000E+01
       21  1    1    2  503  502 0.40973465E+02 0.85912645E+02 -.13564535E+03 0.16571069E+03 0.75000000E+00 0.0000E+00 0.9000E+01
#aMCatNLO 2  0  0  5  1 0.72481622D+01 0.00000000D+00  -5  6  0 0.00000000D+00 0.00000000D+00 0.00000000D+00 0.00000000D+00 0.00000000D+00
  <mgrwgt>
 0.6007454582D-02    1    2    0
 0.198864300040220D+03 0.000000000000000D+00 0.000000000000000D+00 0.198864300040220D+03
 0.198864300040220D+03 -.000000000000000D+00 -.000000000000000D+00 -.198864300040220D+03
 0.152348314626267D+03 -.173829157144737D+02 -.236717121577983D+02 -.819908120111396D+02
 0.113415875355429D+03 -.249512689389785D+02 -.620000171102036D+02 -.901895200716246D+01
 0.131964410098744D+03 0.423341846534523D+02 0.856717292680019D+02 0.910097640183020D+02
 0.000000000000000D+00 0.000000000000000D+00 0.000000000000000D+00 -.000000000000000D+00
 0.198864300040220D+03 0.000000000000000D+00 0.000000000000000D+00 0.198864300040220D+03
 0.198864300040220D+03 -.000000000000000D+00 -.000000000000000D+00 -.198864300040220D+03
 0.145855352393252D+03 -.129861862232692D+02 -.147740465544902D+02 -.725387505926329D+02
 0.108878073223949D+03 -.216737560592617D+02 -.553673112153804D+02 -.197297542365815D+01
 0.181272874347114D+02 -.639361621412843D+01 -.157536595551623D+02 -.628827735290994D+01
 0.124867887028528D+03 0.410535584966593D+02 0.858950173250329D+02 0.808000033692010D+02
0.607706803428D-05 0.000000000000D+00 0.000000000000D+00 0.374862205807D-06 0.114911183533D-08  6 21 -1 25 23 -1 21 4 0.44960053D-02 0.20819012D+00 0.30206728D+05 0.30206728D+05 0.30206728D+05 0.12145855D+01  1  2  1  3  6  5       -1 0.600745458160D-02 0.100000000000D+01
  </mgrwgt>
  </event>
  <event>
  5     66 0.53732839E-03 0.52667458E+02 0.75467711E-02 0.11538967E+00
       21 -1    0    0  501  502 0.00000000E+00 0.00000000E+00 0.18176138E+04 0.18176140E+04 0.75000000E+00 0.0000E+00 0.9000E+01
       -1 -1    0    0    0  501 0.00000000E+00 0.00000000E+00 -.21009424E+02 0.21011861E+02 0.32000000E+00 0.0000E+00 0.9000E+01
       25  1    1    2    0    0 0.46953439E+02 -.73871524E+02 0.56082564E+03 0.58121599E+03 0.12500000E+03 0.0000E+00 0.9000E+01
       23  1    1    2    0    0 0.11090775E+02 0.89143064E+02 0.41150422E+03 0.43095298E+03 0.91188000E+02 0.0000E+00 0.9000E+01
       -1  1    1    2    0  502 -.58044215E+02 -.15271540E+02 0.82427453E+03 0.82645686E+03 0.32000000E+00 0.0000E+00 0.9000E+01
#aMCatNLO 1  0  0  1  2 0.44265717D+02 0.00000000D+00  -5  6  0 0.00000000D+00 0.00000000D+00 0.00000000D+00 0.00000000D+00 0.00000000D+00
  <mgrwgt>
 0.1100944385D-01   23    4    0
 0.195421089991156D+03 0.000000000000000D+00 0.000000000000000D+00 0.195421089991156D+03
 0.195421089991156D+03 0.000000000000000D+00 0.000000000000000D+00 -.195421089991156D+03
 0.156218926673056D+03 0.469535606968800D+02 -.738714921738927D+02 -.334323022355414D+02
 0.135735119340767D+03 0.110908808731442D+02 0.891430918152596D+02 -.451583084440293D+02
 0.988881339684899D+02 -.580444415700242D+02 -.152715996413669D+02 0.785906106795707D+02
 0.000000000000000D+00 0.000000000000000D+00 0.000000000000000D+00 0.000000000000000D+00
 0.306617749942233D+03 0.000000000000000D+00 0.000000000000000D+00 0.306617749942233D+03
 0.201125888137028D+03 0.000000000000000D+00 0.000000000000000D+00 -.201125888137028D+03
 0.161107359903001D+03 0.368186833639544D+02 -.886411142613375D+02 -.334323022355414D+02
 0.127567512523226D+03 0.268142981829609D+01 0.768879445684882D+02 -.451583084440293D+02
 0.104666027193088D+03 -.645456251821316D+02 -.247458164392330D+02 0.785906106795707D+02
 0.114402738459945D+03 0.250455119998812D+02 0.364989861320823D+02 0.105491861805205D+03
 0.195421089991156D+03 0.000000000000000D+00 0.000000000000000D+00 0.195421089991156D+03
 0.195421089991156D+03 0.000000000000000D+00 0.000000000000000D+00 -.195421089991156D+03
 0.156218926673056D+03 0.469535606968800D+02 -.738714921738927D+02 -.334323022355414D+02
 0.135735119340767D+03 0.110908808731442D+02 0.891430918152596D+02 -.451583084440293D+02
 0.000000000000000D+00 0.000000000000000D+00 0.000000000000000D+00 0.000000000000000D+00
 0.988881339684899D+02 -.580444415700242D+02 -.152715996413669D+02 0.785906106795707D+02
 0.306617749942233D+03 0.000000000000000D+00 0.000000000000000D+00 0.306617749942233D+03
 0.201125888137028D+03 0.000000000000000D+00 0.000000000000000D+00 -.201125888137028D+03
 0.161107359903001D+03 0.368186833639544D+02 -.886411142613375D+02 -.334323022355414D+02
 0.127567512523226D+03 0.268142981829609D+01 0.768879445684882D+02 -.451583084440293D+02
 0.114402738459945D+03 0.250455119998812D+02 0.364989861320823D+02 0.105491861805205D+03
 0.104666027193088D+03 -.645456251821316D+02 -.247458164392330D+02 0.785906106795707D+02
0.133588624573D-04 0.000000000000D+00 0.000000000000D+00 0.387746705946D-06 0.000000000000D+00  6 21 -1 25 23 -1 21 2 0.27963309D+00 0.32324185D-02 0.29005894D+05 0.29005894D+05 0.29005894D+05 0.12164374D+01  1  2  2  1  6  1       21 0.266988073657D-02 0.100000000000D+01
0.221628719726D-06 0.704966539733D-06 -.269676944424D-07 0.387746705946D-06 0.000000000000D+00  6 21 -1 25 23 -1 21 4 0.27963309D+00 0.32324185D-02 0.29005894D+05 0.29005894D+05 0.29005894D+05 0.12164374D+01  1  2  3  1  6  1       21 0.655432466583D-04 0.100000000000D+01
0.123971955856D-05 0.000000000000D+00 0.000000000000D+00 0.387746705946D-06 0.000000000000D+00  6 21 -1 25 23 -1 21 4 0.27963309D+00 0.32324185D-02 0.29005894D+05 0.29005894D+05 0.29005894D+05 0.12164374D+01  1  2 15  1  6  1       21 0.366627776916D-03 0.100000000000D+01
0.520517681471D-04 0.000000000000D+00 0.000000000000D+00 0.379966577092D-06 0.000000000000D+00  6 21 -1 25 23 -1 21 4 0.44090554D+00 0.32324185D-02 0.38083492D+05 0.38083492D+05 0.38083492D+05 0.12041717D+01  1  2 12  1  6  1       21 0.154695681175D-02 0.100000000000D+01
-.398986047378D-04 0.000000000000D+00 0.000000000000D+00 0.387746705946D-06 0.000000000000D+00  6 21 -1 25 23 -1 21 4 0.27963309D+00 0.32324185D-02 0.29005894D+05 0.29005894D+05 0.29005894D+05 0.12164374D+01  1  2  4  1  6  1       21 -.117993917706D-01 0.100000000000D+01
-.112270308968D-03 0.000000000000D+00 -.124945598033D-04 0.387746705946D-06 0.000000000000D+00  6 21 -1 25 23 -1 21 4 0.44173412D+00 0.32324185D-02 0.29005894D+05 0.29005894D+05 0.29005894D+05 0.12164374D+01  1  2  5  1  6  1       21 -.355067437977D-02 0.100000000000D+01
0.818148747076D-04 0.000000000000D+00 0.849562003953D-05 0.387746705946D-06 0.000000000000D+00  6 21 -1 25 23 -1 21 4 0.27963309D+00 0.32324185D-02 0.29005894D+05 0.29005894D+05 0.29005894D+05 0.12164374D+01  1  2  6  1  6  1       21 0.241954766508D-01 0.100000000000D+01
0.813261282964D-05 0.000000000000D+00 0.000000000000D+00 0.379966577092D-06 0.000000000000D+00  6 -1 -1 25 23 -1 -1 4 0.44090554D+00 0.32324185D-02 0.38083492D+05 0.38083492D+05 0.38083492D+05 0.12041717D+01  1  2 12  4  6  1       21 0.230211450531D-04 0.100000000000D+01
-.162602596029D-04 0.000000000000D+00 -.196163944746D-05 0.387746705946D-06 0.000000000000D+00  6 -1 -1 25 23 -1 -1 4 0.44173412D+00 0.32324185D-02 0.29005894D+05 0.29005894D+05 0.29005894D+05 0.12164374D+01  1  2  5  4  6  1       21 -.477502830879D-04 0.100000000000D+01
0.813261282964D-05 0.000000000000D+00 0.000000000000D+00 0.379966577092D-06 0.000000000000D+00  6 1 -1 25 23 1 -1 4 0.44090554D+00 0.32324185D-02 0.38083492D+05 0.38083492D+05 0.38083492D+05 0.12041717D+01  3  4 12  5  5  1       21 0.527588577562D-03 0.100000000000D+01
-.162602596029D-04 0.000000000000D+00 -.196163944746D-05 0.387746705946D-06 0.000000000000D+00  6 1 -1 25 23 1 -1 4 0.44173412D+00 0.32324185D-02 0.29005894D+05 0.29005894D+05 0.29005894D+05 0.12164374D+01  3  4  5  5  5  1       21 -.109782840052D-02 0.100000000000D+01
0.813261282964D-05 0.000000000000D+00 0.000000000000D+00 0.379966577092D-06 0.000000000000D+00  6 -2 -1 25 23 -1 -2 4 0.44090554D+00 0.32324185D-02 0.38083492D+05 0.38083492D+05 0.38083492D+05 0.12041717D+01  1  2 12  6  6  1       21 0.212582131162D-04 0.100000000000D+01
0.813261282964D-05 0.000000000000D+00 0.000000000000D+00 0.379966577092D-06 0.000000000000D+00  6 -4 -1 25 23 -1 -4 4 0.44090554D+00 0.32324185D-02 0.38083492D+05 0.38083492D+05 0.38083492D+05 0.12041717D+01  1  2 12  6  6  1       21 0.994921948879D-05 0.100000000000D+01
-.162602596029D-04 0.000000000000D+00 -.196163944746D-05 0.387746705946D-06 0.000000000000D+00  6 -2 -1 25 23 -1 -2 4 0.44173412D+00 0.32324185D-02 0.29005894D+05 0.29005894D+05 0.29005894D+05 0.12164374D+01  1  2  5  6  6  1       21 -.440827715226D-04 0.100000000000D+01
-.162602596029D-04 0.000000000000D+00 -.196163944746D-05 0.387746705946D-06 0.000000000000D+00  6 -4 -1 25 23 -1 -4 4 0.44173412D+00 0.32324185D-02 0.29005894D+05 0.29005894D+05 0.29005894D+05 0.12164374D+01  1  2  5  6  6  1       21 -.205801898208D-04 0.100000000000D+01
0.813261282964D-05 0.000000000000D+00 0.000000000000D+00 0.379966577092D-06 0.000000000000D+00  6 2 -1 25 23 2 -1 4 0.44090554D+00 0.32324185D-02 0.38083492D+05 0.38083492D+05 0.38083492D+05 0.12041717D+01  3  4 12  7  5  1       21 0.166639528788D-02 0.100000000000D+01
0.813261282964D-05 0.000000000000D+00 0.000000000000D+00 0.379966577092D-06 0.000000000000D+00  6 4 -1 25 23 4 -1 4 0.44090554D+00 0.32324185D-02 0.38083492D+05 0.38083492D+05 0.38083492D+05 0.12041717D+01  3  4 12  7  5  1       21 0.994921948879D-05 0.100000000000D+01
-.162602596029D-04 0.000000000000D+00 -.196163944746D-05 0.387746705946D-06 0.000000000000D+00  6 2 -1 25 23 2 -1 4 0.44173412D+00 0.32324185D-02 0.29005894D+05 0.29005894D+05 0.29005894D+05 0.12164374D+01  3  4  5  7  5  1       21 -.346754818993D-02 0.100000000000D+01
-.162602596029D-04 0.000000000000D+00 -.196163944746D-05 0.387746705946D-06 0.000000000000D+00  6 4 -1 25 23 4 -1 4 0.44173412D+00 0.32324185D-02 0.29005894D+05 0.29005894D+05 0.29005894D+05 0.12164374D+01  3  4  5  7  5  1       21 -.205801898208D-04 0.100000000000D+01
0.813261282964D-05 0.000000000000D+00 0.000000000000D+00 0.379966577092D-06 0.000000000000D+00  6 -3 -1 25 23 -1 -3 4 0.44090554D+00 0.32324185D-02 0.38083492D+05 0.38083492D+05 0.38083492D+05 0.12041717D+01  1  2 12  8  6  1       21 0.201636888323D-04 0.100000000000D+01
-.162602596029D-04 0.000000000000D+00 -.196163944746D-05 0.387746705946D-06 0.000000000000D+00  6 -3 -1 25 23 -1 -3 4 0.44173412D+00 0.32324185D-02 0.29005894D+05 0.29005894D+05 0.29005894D+05 0.12164374D+01  1  2  5  8  6  1       21 -.418078346645D-04 0.100000000000D+01
0.813261282964D-05 0.000000000000D+00 0.000000000000D+00 0.379966577092D-06 0.000000000000D+00  6 3 -1 25 23 3 -1 4 0.44090554D+00 0.32324185D-02 0.38083492D+05 0.38083492D+05 0.38083492D+05 0.12041717D+01  3  4 12  9  5  1       21 0.215428785371D-04 0.100000000000D+01
-.162602596029D-04 0.000000000000D+00 -.196163944746D-05 0.387746705946D-06 0.000000000000D+00  6 3 -1 25 23 3 -1 4 0.44173412D+00 0.32324185D-02 0.29005894D+05 0.29005894D+05 0.29005894D+05 0.12164374D+01  3  4  5  9  5  1       21 -.446655890602D-04 0.100000000000D+01
  </mgrwgt>
  </event>
  <event>
  5     66 0.53732839E-03 0.45677753E+02 0.75467711E-02 0.11932757E+00
       21 -1    0    0  501  502 0.00000000E+00 0.00000000E+00 0.10103590E+03 0.10103869E+03 0.75000000E+00 0.0000E+00 0.9000E+01
       -1 -1    0    0    0  501 -.00000000E+00 -.00000000E+00 -.25348727E+03 0.25348747E+03 0.32000000E+00 0.0000E+00 0.9000E+01
       25  1    1    2    0    0 -.27538439E+02 0.49922341E+02 -.66721976E+02 0.15273319E+03 0.12500000E+03 0.0000E+00 0.9000E+01
       23  1    1    2    0    0 0.77446585E+01 -.91087812E+02 -.87673850E+02 0.15607346E+03 0.91188000E+02 0.0000E+00 0.9000E+01
       -1  1    1    2    0  502 0.19793780E+02 0.41165470E+02 0.19444606E+01 0.45719504E+02 0.32000000E+00 0.0000E+00 0.9000E+01
#aMCatNLO 1  0  0  5  1 0.28227746D+01 0.00000000D+00  -5  6  0 0.00000000D+00 0.00000000D+00 0.00000000D+00 0.00000000D+00 0.00000000D+00
  <mgrwgt>
 0.5354202221D-02    8    2    0
 0.160037007593543D+03 0.000000000000000D+00 0.000000000000000D+00 0.160037007593543D+03
 0.160037007593543D+03 -.000000000000000D+00 -.000000000000000D+00 -.160037007593543D+03
 0.137393303198422D+03 -.275386024082997D+02 0.499220012121442D+02 -.115712408396258D+01
 0.131114063280508D+03 0.774450237622824D+01 -.910881365670841D+02 -.227732366080439D+02
 0.515666487081565D+02 0.197941000320714D+02 0.411661353549400D+02 0.239303606920065D+02
 0.000000000000000D+00 0.000000000000000D+00 0.000000000000000D+00 0.000000000000000D+00
 0.160037007593543D+03 0.000000000000000D+00 0.000000000000000D+00 0.160037007593543D+03
 0.160037007593543D+03 -.000000000000000D+00 -.000000000000000D+00 -.160037007593543D+03
 0.137444156889780D+03 -.274456753759665D+02 0.501152631833861D+02 -.104477861747678D+01
 0.130972781775313D+03 0.783311821744863D+01 -.909038406552538D+02 -.226661032177916D+02
 0.429546093238498D+02 0.179686179217773D+02 0.325181003461815D+02 0.215592296249523D+02
 0.870246719814289D+01 0.164393923674065D+01 0.827047712568623D+01 0.215165221031615D+01
0.535550526771D-06 0.000000000000D+00 0.000000000000D+00 0.325721296124D-06 0.000000000000D+00  6 21 -1 25 23 -1 21 2 0.15544215D-01 0.38998271D-01 0.24365236D+05 0.24365236D+05 0.24365236D+05 0.12244970D+01  1  2  2  3  6  5       -1 0.175359404229D-02 0.100000000000D+01
0.177146996993D-09 0.282617777462D-07 -.108112221460D-08 0.325721296124D-06 0.000000000000D+00  6 21 -1 25 23 -1 21 4 0.15544215D-01 0.38998271D-01 0.24365236D+05 0.24365236D+05 0.24365236D+05 0.12244970D+01  1  2  3  3  6  5       -1 0.869716727570D-06 0.100000000000D+01
0.622241876825D-07 0.000000000000D+00 0.000000000000D+00 0.325721296124D-06 0.000000000000D+00  6 21 -1 25 23 -1 21 4 0.15544215D-01 0.38998271D-01 0.24365236D+05 0.24365236D+05 0.24365236D+05 0.12244970D+01  1  2 15  3  6  5       -1 0.305494407501D-03 0.100000000000D+01
0.420500070976D-07 0.000000000000D+00 0.000000000000D+00 0.325747720530D-06 0.000000000000D+00  6 21 -1 25 23 -1 21 4 0.15544215D-01 0.38998271D-01 0.24339340D+05 0.24339340D+05 0.24339340D+05 0.12245466D+01  1  2 12  3  6  5       -1 0.206480173881D-03 0.100000000000D+01
-.637503862203D-05 0.000000000000D+00 0.000000000000D+00 0.325721296124D-06 0.000000000000D+00  6 21 -1 25 23 -1 21 4 0.15544215D-01 0.38998271D-01 0.24365236D+05 0.24365236D+05 0.24365236D+05 0.12244970D+01  1  2  4  3  6  5       -1 -.312987395926D-01 0.100000000000D+01
-.649025118825D-05 0.000000000000D+00 0.000000000000D+00 0.325721296124D-06 0.000000000000D+00  6 21 -1 25 23 -1 21 4 0.15544215D-01 0.38998271D-01 0.24365236D+05 0.24365236D+05 0.24365236D+05 0.12244970D+01  1  2  5  3  6  5       -1 -.318643844963D-01 0.100000000000D+01
0.824583564951D-05 0.000000000000D+00 -.000000000000D+00 0.325721296124D-06 0.000000000000D+00  6 21 -1 25 23 -1 21 4 0.15544215D-01 0.38998271D-01 0.24365236D+05 0.24365236D+05 0.24365236D+05 0.12244970D+01  1  2  6  3  6  5       -1 0.404835606525D-01 0.100000000000D+01
0.524755610286D-05 0.000000000000D+00 0.000000000000D+00 0.325721296124D-06 0.185223118925D-06  6 21 -1 25 23 -1 21 4 0.15544215D-01 0.38998271D-01 0.24339340D+05 0.24339340D+05 0.24339340D+05 0.12245466D+01  1  2 11  3  6  5       -1 0.257673273170D-01 0.100000000000D+01
  </mgrwgt>
  </event>
  <event>
  5     66 -.53732839E-03 0.72882394E+02 0.75467711E-02 0.11279081E+00
       21 -1    0    0  501  502 0.00000000E+00 0.00000000E+00 0.19208244E+04 0.19208246E+04 0.75000000E+00 0.0000E+00 0.9000E+01
       -1 -1    0    0    0  501 0.00000000E+00 0.00000000E+00 -.16423317E+03 0.16423348E+03 0.32000000E+00 0.0000E+00 0.9000E+01
       25  1    1    2    0    0 0.12676143E+03 -.14976916E+02 0.34786079E+02 0.18201055E+03 0.12500000E+03 0.0000E+00 0.9000E+01
       23  1    1    2    0    0 -.16855710E+03 -.44730407E+02 0.17923438E+02 0.19760771E+03 0.91188000E+02 0.0000E+00 0.9000E+01
       -1  1    1    2    0  502 0.41795667E+02 0.59707322E+02 0.17038817E+04 0.17054398E+04 0.32000000E+00 0.0000E+00 0.9000E+01
#aMCatNLO 1  0  0  5  1 0.10759528D+02 0.00000000D+00  -5  6  0 0.00000000D+00 0.00000000D+00 0.00000000D+00 0.00000000D+00 0.00000000D+00
  <mgrwgt>
 -.6735577673D-01    6    2    0
 0.561661435054152D+03 0.000000000000000D+00 0.000000000000000D+00 0.561661435054152D+03
 0.561661435054152D+03 -.000000000000000D+00 -.000000000000000D+00 -.561661435054152D+03
 0.283442693393367D+03 0.126761428428457D+03 -.149769186717829D+02 -.220049977523203D+03
 0.338762280440639D+03 -.168557100422218D+03 -.447304104756651D+02 -.275739597412622D+03
 0.501117896274298D+03 0.417956719937615D+02 0.597073291474481D+02 0.495789574935825D+03
 0.000000000000000D+00 0.000000000000000D+00 0.000000000000000D+00 0.000000000000000D+00
 0.561661435054152D+03 0.000000000000000D+00 0.000000000000000D+00 0.561661435054152D+03
 0.561661435054152D+03 -.000000000000000D+00 -.000000000000000D+00 -.561661435054152D+03
 0.283199602734160D+03 0.126788945181151D+03 -.149376095344532D+02 -.219723567670910D+03
 0.338422258031602D+03 -.168524215620641D+03 -.446834327964444D+02 -.275349510568262D+03
 0.452025689636186D+03 0.475060076539946D+02 0.580433788105805D+02 0.445759317910573D+03
 0.496753197063565D+02 -.577073721450493D+01 0.157766352031710D+01 0.493137603285992D+02
0.165178832718D-03 0.000000000000D+00 0.000000000000D+00 0.262645823454D-05 0.000000000000D+00  6 21 -1 25 23 -1 21 2 0.29551149D+00 0.25266677D-01 0.50250176D+05 0.50250176D+05 0.50250176D+05 0.11920671D+01  1  2  2  3  6  5       -1 0.102346842094D-02 0.100000000000D+01
0.320168183298D-04 0.871672648105D-05 -.333448473126D-06 0.262645823454D-05 0.000000000000D+00  6 21 -1 25 23 -1 21 4 0.29551149D+00 0.25266677D-01 0.50250176D+05 0.50250176D+05 0.50250176D+05 0.11920671D+01  1  2  3  3  6  5       -1 0.281902979495D-03 0.100000000000D+01
0.124371555562D-04 0.000000000000D+00 0.000000000000D+00 0.262645823454D-05 0.000000000000D+00  6 21 -1 25 23 -1 21 4 0.29551149D+00 0.25266677D-01 0.50250176D+05 0.50250176D+05 0.50250176D+05 0.11920671D+01  1  2 15  3  6  5       -1 0.109507171251D-03 0.100000000000D+01
-.880442155441D-02 0.000000000000D+00 0.000000000000D+00 0.262645823454D-05 0.000000000000D+00  6 21 -1 25 23 -1 21 4 0.29551149D+00 0.25266677D-01 0.50250176D+05 0.50250176D+05 0.50250176D+05 0.11920671D+01  1  2  4  3  6  5       -1 -.775215276968D-01 0.100000000000D+01
-.955501177765D-02 0.000000000000D+00 0.000000000000D+00 0.262645823454D-05 0.000000000000D+00  6 21 -1 25 23 -1 21 4 0.29551149D+00 0.25266677D-01 0.50250176D+05 0.50250176D+05 0.50250176D+05 0.11920671D+01  1  2  5  3  6  5       -1 -.841303549117D-01 0.100000000000D+01
0.105488824075D-01 0.000000000000D+00 -.000000000000D+00 0.262645823454D-05 0.000000000000D+00  6 21 -1 25 23 -1 21 4 0.29551149D+00 0.25266677D-01 0.50250176D+05 0.50250176D+05 0.50250176D+05 0.11920671D+01  1  2  6  3  6  5       -1 0.928812273092D-01 0.100000000000D+01
  </mgrwgt>
  </event>
  <event>
  5     66 0.53732839E-03 0.70507399E+02 0.75467711E-02 0.11641744E+00
       21 -1    0    0  501  502 0.00000000E+00 0.00000000E+00 0.24428080E+02 0.24439591E+02 0.75000000E+00 0.0000E+00 0.9000E+01
       -1 -1    0    0    0  501 0.00000000E+00 0.00000000E+00 -.25389389E+04 0.25389389E+04 0.32000000E+00 0.0000E+00 0.9000E+01
       25  1    1    2    0    0 -.97763216E+02 -.74154666E+02 -.17283239E+04 0.17371773E+04 0.12500000E+03 0.0000E+00 0.9000E+01
       23  1    1    2    0    0 0.25689989E+02 0.47070411E+02 -.71016134E+03 0.71799720E+03 0.91188000E+02 0.0000E+00 0.9000E+01
       -1  1    1    2    0  502 0.72073226E+02 0.27084254E+02 -.76025515E+02 0.10820392E+03 0.32000000E+00 0.0000E+00 0.9000E+01
#aMCatNLO 1  0  0  1  5 0.84673932D+01 0.00000000D+00  -5  6  0 0.00000000D+00 0.00000000D+00 0.00000000D+00 0.00000000D+00 0.00000000D+00
  <mgrwgt>
 0.8237998800D-02   41    4    0
 0.249070633206579D+03 0.000000000000000D+00 0.000000000000000D+00 0.249070633206579D+03
 0.249070633206579D+03 0.000000000000000D+00 0.000000000000000D+00 -.249070633206579D+03
 0.215107515968983D+03 -.977632687514225D+02 -.741546856378688D+02 -.124858597250379D+03
 0.109989326409779D+03 0.256899620176699D+02 0.470704009177682D+02 -.301131829776949D+02
 0.173044424034395D+03 0.720733067337526D+02 0.270842847201006D+02 0.154971780228074D+03
 0.000000000000000D+00 -.000000000000000D+00 0.000000000000000D+00 0.000000000000000D+00
 0.363458145952279D+03 0.000000000000000D+00 0.000000000000000D+00 0.363458145952279D+03
 0.249263359105184D+03 0.000000000000000D+00 0.000000000000000D+00 -.249263359105184D+03
 0.213640985676180D+03 -.941462074794510D+02 -.745941892548853D+02 -.124858597250379D+03
 0.110342194643639D+03 0.275487501154450D+02 0.468445424014722D+02 -.301131829776949D+02
 0.174230045167734D+03 0.750030266709084D+02 0.267282989038792D+02 0.154971780228074D+03
 0.114508279569909D+03 -.840556930690231D+01 0.102134794953394D+01 0.114194786847094D+03
 0.249070633206579D+03 0.000000000000000D+00 0.000000000000000D+00 0.249070633206579D+03
 0.249070633206579D+03 0.000000000000000D+00 0.000000000000000D+00 -.249070633206579D+03
 0.215107515968983D+03 -.977632687514225D+02 -.741546856378688D+02 -.124858597250379D+03
 0.109989326409779D+03 0.256899620176699D+02 0.470704009177682D+02 -.301131829776949D+02
 0.000000000000000D+00 -.000000000000000D+00 0.000000000000000D+00 0.000000000000000D+00
 0.173044424034395D+03 0.720733067337526D+02 0.270842847201006D+02 0.154971780228074D+03
 0.363458145952279D+03 0.000000000000000D+00 0.000000000000000D+00 0.363458145952279D+03
 0.249263359105184D+03 0.000000000000000D+00 0.000000000000000D+00 -.249263359105184D+03
 0.213640985676180D+03 -.941462074794510D+02 -.745941892548853D+02 -.124858597250379D+03
 0.110342194643639D+03 0.275487501154450D+02 0.468445424014722D+02 -.301131829776949D+02
 0.114508279569909D+03 -.840556930690231D+01 0.102134794953394D+01 0.114194786847094D+03
 0.174230045167734D+03 0.750030266709084D+02 0.267282989038792D+02 0.154971780228074D+03
0.266787057960D-05 0.000000000000D+00 0.000000000000D+00 0.525343254886D-06 0.000000000000D+00  6 21 -1 25 23 -1 21 2 0.37590531D-02 0.39060686D+00 0.32030736D+05 0.32030736D+05 0.32030736D+05 0.12119242D+01  1  2  2  1  6  1       21 0.169559803984D-03 0.100000000000D+01
0.788443327435D-07 0.140787398401D-06 -.538566205262D-08 0.525343254886D-06 0.000000000000D+00  6 21 -1 25 23 -1 21 4 0.37590531D-02 0.39060686D+00 0.32030736D+05 0.32030736D+05 0.32030736D+05 0.12119242D+01  1  2  3  1  6  1       21 0.736002946954D-05 0.100000000000D+01
0.338372778668D-06 0.000000000000D+00 0.000000000000D+00 0.525343254886D-06 0.000000000000D+00  6 21 -1 25 23 -1 21 4 0.37590531D-02 0.39060686D+00 0.32030736D+05 0.32030736D+05 0.32030736D+05 0.12119242D+01  1  2 15  1  6  1       21 0.315867169653D-04 0.100000000000D+01
0.416614365321D-03 0.000000000000D+00 0.000000000000D+00 0.523263156890D-06 0.000000000000D+00  6 21 -1 25 23 -1 21 4 0.54863591D-02 0.39060686D+00 0.33782750D+05 0.33782750D+05 0.33782750D+05 0.12095225D+01  1  2 12  1  6  1       21 0.203473117814D-01 0.100000000000D+01
0.405888268951D-03 0.000000000000D+00 0.000000000000D+00 0.523263156890D-06 0.000000000000D+00  6 21 -1 25 23 -1 21 4 0.55318037D-02 0.39060686D+00 0.33782750D+05 0.33782750D+05 0.33782750D+05 0.12095225D+01  1  2 12  1  6  1       21 0.195470765674D-01 0.100000000000D+01
-.587361369911D-03 0.000000000000D+00 0.000000000000D+00 0.525343254886D-06 0.000000000000D+00  6 21 -1 25 23 -1 21 4 0.37590531D-02 0.39060686D+00 0.32030736D+05 0.32030736D+05 0.32030736D+05 0.12119242D+01  1  2  4  1  6  1       21 -.548295209229D-01 0.100000000000D+01
-.836034645977D-03 0.000000000000D+00 -.358284858112D-05 0.525343254886D-06 0.000000000000D+00  6 21 -1 25 23 -1 21 4 0.54874692D-02 0.39060686D+00 0.32030736D+05 0.32030736D+05 0.32030736D+05 0.12119242D+01  1  2  5  1  6  1       21 -.412647035391D-01 0.100000000000D+01
0.687842774044D-03 0.000000000000D+00 0.273369224709D-05 0.525343254886D-06 0.000000000000D+00  6 21 -1 25 23 -1 21 4 0.37590531D-02 0.39060686D+00 0.32030736D+05 0.32030736D+05 0.32030736D+05 0.12119242D+01  1  2  6  1  6  1       21 0.642093465848D-01 0.100000000000D+01
0.100529972245D-05 0.000000000000D+00 0.000000000000D+00 0.525343254886D-06 0.138591552181D-06  6 21 -1 25 23 -1 21 4 0.54854258D-02 0.39090911D+00 0.33782750D+05 0.33782750D+05 0.33782750D+05 0.12095225D+01  1  2 11  1  6  1       21 0.488883153141D-04 0.100000000000D+01
0.418641592955D-04 0.000000000000D+00 0.000000000000D+00 0.523263156890D-06 0.000000000000D+00  6 -1 -1 25 23 -1 -1 4 0.54863591D-02 0.39060686D+00 0.33782750D+05 0.33782750D+05 0.33782750D+05 0.12095225D+01  1  2 12  4  6  1       21 0.120309568301D-03 0.100000000000D+01
0.417954373614D-04 0.000000000000D+00 0.000000000000D+00 0.523263156890D-06 0.000000000000D+00  6 -1 -1 25 23 -1 -1 4 0.55318037D-02 0.39060686D+00 0.33782750D+05 0.33782750D+05 0.33782750D+05 0.12095225D+01  1  2 12  4  6  1       21 0.118639025482D-03 0.100000000000D+01
-.839206678268D-04 0.000000000000D+00 -.448209380368D-06 0.525343254886D-06 0.000000000000D+00  6 -1 -1 25 23 -1 -1 4 0.54874692D-02 0.39060686D+00 0.32030736D+05 0.32030736D+05 0.32030736D+05 0.12119242D+01  1  2  5  4  6  1       21 -.243503186341D-03 0.100000000000D+01
0.112088841265D-06 0.000000000000D+00 0.000000000000D+00 0.525343254886D-06 0.766581113515D-08  6 -1 -1 25 23 -1 -1 4 0.54854258D-02 0.39090911D+00 0.33782750D+05 0.33782750D+05 0.33782750D+05 0.12095225D+01  1  2 11  4  6  1       21 0.320731538004D-06 0.100000000000D+01
0.418641592955D-04 0.000000000000D+00 0.000000000000D+00 0.523263156890D-06 0.000000000000D+00  6 1 -1 25 23 1 -1 4 0.54863591D-02 0.39060686D+00 0.33782750D+05 0.33782750D+05 0.33782750D+05 0.12095225D+01  3  4 12  5  5  1       21 0.136973554061D-03 0.100000000000D+01
0.417954373614D-04 0.000000000000D+00 0.000000000000D+00 0.523263156890D-06 0.000000000000D+00  6 1 -1 25 23 1 -1 4 0.55318037D-02 0.39060686D+00 0.33782750D+05 0.33782750D+05 0.33782750D+05 0.12095225D+01  3  4 12  5  5  1       21 0.135207908242D-03 0.100000000000D+01
-.839206678268D-04 0.000000000000D+00 -.448209380368D-06 0.525343254886D-06 0.000000000000D+00  6 1 -1 25 23 1 -1 4 0.54874692D-02 0.39060686D+00 0.32030736D+05 0.32030736D+05 0.32030736D+05 0.12119242D+01  3  4  5  5  5  1       21 -.277259023383D-03 0.100000000000D+01
0.120229851316D-06 0.000000000000D+00 0.000000000000D+00 0.525343254886D-06 0.165403022553D-07  6 1 -1 25 23 1 -1 4 0.54854258D-02 0.39090911D+00 0.33782750D+05 0.33782750D+05 0.33782750D+05 0.12095225D+01  3  4 11  5  5  1       21 0.391668959661D-06 0.100000000000D+01
0.418641592955D-04 0.000000000000D+00 0.000000000000D+00 0.523263156890D-06 0.000000000000D+00  6 -2 -1 25 23 -1 -2 4 0.54863591D-02 0.39060686D+00 0.33782750D+05 0.33782750D+05 0.33782750D+05 0.12095225D+01  1  2 12  6  6  1       21 0.117383259164D-03 0.100000000000D+01
0.418641592955D-04 0.000000000000D+00 0.000000000000D+00 0.523263156890D-06 0.000000000000D+00  6 -4 -1 25 23 -1 -4 4 0.54863591D-02 0.39060686D+00 0.33782750D+05 0.33782750D+05 0.33782750D+05 0.12095225D+01  1  2 12  6  6  1       21 0.766449194123D-04 0.100000000000D+01
0.417954373614D-04 0.000000000000D+00 0.000000000000D+00 0.523263156890D-06 0.000000000000D+00  6 -2 -1 25 23 -1 -2 4 0.55318037D-02 0.39060686D+00 0.33782750D+05 0.33782750D+05 0.33782750D+05 0.12095225D+01  1  2 12  6  6  1       21 0.115730143035D-03 0.100000000000D+01
0.417954373614D-04 0.000000000000D+00 0.000000000000D+00 0.523263156890D-06 0.000000000000D+00  6 -4 -1 25 23 -1 -4 4 0.55318037D-02 0.39060686D+00 0.33782750D+05 0.33782750D+05 0.33782750D+05 0.12095225D+01  1  2 12  6  6  1       21 0.754991519231D-04 0.100000000000D+01
-.839206678268D-04 0.000000000000D+00 -.448209380368D-06 0.525343254886D-06 0.000000000000D+00  6 -2 -1 25 23 -1 -2 4 0.54874692D-02 0.39060686D+00 0.32030736D+05 0.32030736D+05 0.32030736D+05 0.12119242D+01  1  2  5  6  6  1       21 -.237574518052D-03 0.100000000000D+01
-.839206678268D-04 0.000000000000D+00 -.448209380368D-06 0.525343254886D-06 0.000000000000D+00  6 -4 -1 25 23 -1 -4 4 0.54874692D-02 0.39060686D+00 0.32030736D+05 0.32030736D+05 0.32030736D+05 0.12119242D+01  1  2  5  6  6  1       21 -.154877607820D-03 0.100000000000D+01
0.114373284867D-06 0.000000000000D+00 0.000000000000D+00 0.525343254886D-06 0.156102766121D-07  6 -2 -1 25 23 -1 -2 4 0.54854258D-02 0.39090911D+00 0.33782750D+05 0.33782750D+05 0.33782750D+05 0.12095225D+01  1  2 11  6  6  1       21 0.319309371521D-06 0.100000000000D+01
0.114373284867D-06 0.000000000000D+00 0.000000000000D+00 0.525343254886D-06 0.156102766121D-07  6 -4 -1 25 23 -1 -4 4 0.54854258D-02 0.39090911D+00 0.33782750D+05 0.33782750D+05 0.33782750D+05 0.12095225D+01  1  2 11  6  6  1       21 0.208495525201D-06 0.100000000000D+01
0.418641592955D-04 0.000000000000D+00 0.000000000000D+00 0.523263156890D-06 0.000000000000D+00  6 2 -1 25 23 2 -1 4 0.54863591D-02 0.39060686D+00 0.33782750D+05 0.33782750D+05 0.33782750D+05 0.12095225D+01  3  4 12  7  5  1       21 0.148186692652D-03 0.100000000000D+01
0.418641592955D-04 0.000000000000D+00 0.000000000000D+00 0.523263156890D-06 0.000000000000D+00  6 4 -1 25 23 4 -1 4 0.54863591D-02 0.39060686D+00 0.33782750D+05 0.33782750D+05 0.33782750D+05 0.12095225D+01  3  4 12  7  5  1       21 0.766449194123D-04 0.100000000000D+01
0.417954373614D-04 0.000000000000D+00 0.000000000000D+00 0.523263156890D-06 0.000000000000D+00  6 2 -1 25 23 2 -1 4 0.55318037D-02 0.39060686D+00 0.33782750D+05 0.33782750D+05 0.33782750D+05 0.12095225D+01  3  4 12  7  5  1       21 0.146356553386D-03 0.100000000000D+01
0.417954373614D-04 0.000000000000D+00 0.000000000000D+00 0.523263156890D-06 0.000000000000D+00  6 4 -1 25 23 4 -1 4 0.55318037D-02 0.39060686D+00 0.33782750D+05 0.33782750D+05 0.33782750D+05 0.12095225D+01  3  4 12  7  5  1       21 0.754991519231D-04 0.100000000000D+01
-.839206678268D-04 0.000000000000D+00 -.448209380368D-06 0.525343254886D-06 0.000000000000D+00  6 2 -1 25 23 2 -1 4 0.54874692D-02 0.39060686D+00 0.32030736D+05 0.32030736D+05 0.32030736D+05 0.12119242D+01  3  4  5  7  5  1       21 -.299967614306D-03 0.100000000000D+01
-.839206678268D-04 0.000000000000D+00 -.448209380368D-06 0.525343254886D-06 0.000000000000D+00  6 4 -1 25 23 4 -1 4 0.54874692D-02 0.39060686D+00 0.32030736D+05 0.32030736D+05 0.32030736D+05 0.12119242D+01  3  4  5  7  5  1       21 -.154877607820D-03 0.100000000000D+01
0.114709136570D-06 0.000000000000D+00 0.000000000000D+00 0.525343254886D-06 0.156561154457D-07  6 2 -1 25 23 2 -1 4 0.54854258D-02 0.39090911D+00 0.33782750D+05 0.33782750D+05 0.33782750D+05 0.12095225D+01  3  4 11  7  5  1       21 0.404270872028D-06 0.100000000000D+01
0.114709136570D-06 0.000000000000D+00 0.000000000000D+00 0.525343254886D-06 0.156561154457D-07  6 4 -1 25 23 4 -1 4 0.54854258D-02 0.39090911D+00 0.33782750D+05 0.33782750D+05 0.33782750D+05 0.12095225D+01  3  4 11  7  5  1       21 0.209107762378D-06 0.100000000000D+01
0.418641592955D-04 0.000000000000D+00 0.000000000000D+00 0.523263156890D-06 0.000000000000D+00  6 -3 -1 25 23 -1 -3 4 0.54863591D-02 0.39060686D+00 0.33782750D+05 0.33782750D+05 0.33782750D+05 0.12095225D+01  1  2 12  8  6  1       21 0.857769241282D-04 0.100000000000D+01
0.417954373614D-04 0.000000000000D+00 0.000000000000D+00 0.523263156890D-06 0.000000000000D+00  6 -3 -1 25 23 -1 -3 4 0.55318037D-02 0.39060686D+00 0.33782750D+05 0.33782750D+05 0.33782750D+05 0.12095225D+01  1  2 12  8  6  1       21 0.845130255085D-04 0.100000000000D+01
-.839206678268D-04 0.000000000000D+00 -.448209380368D-06 0.525343254886D-06 0.000000000000D+00  6 -3 -1 25 23 -1 -3 4 0.54874692D-02 0.39060686D+00 0.32030736D+05 0.32030736D+05 0.32030736D+05 0.12119242D+01  1  2  5  8  6  1       21 -.173415515379D-03 0.100000000000D+01
0.116800369451D-06 0.000000000000D+00 0.000000000000D+00 0.525343254886D-06 0.159415380754D-07  6 -3 -1 25 23 -1 -3 4 0.54854258D-02 0.39090911D+00 0.33782750D+05 0.33782750D+05 0.33782750D+05 0.12095225D+01  1  2 11  8  6  1       21 0.238287637749D-06 0.100000000000D+01
0.418641592955D-04 0.000000000000D+00 0.000000000000D+00 0.523263156890D-06 0.000000000000D+00  6 3 -1 25 23 3 -1 4 0.54863591D-02 0.39060686D+00 0.33782750D+05 0.33782750D+05 0.33782750D+05 0.12095225D+01  3  4 12  9  5  1       21 0.857684396962D-04 0.100000000000D+01
0.417954373614D-04 0.000000000000D+00 0.000000000000D+00 0.523263156890D-06 0.000000000000D+00  6 3 -1 25 23 3 -1 4 0.55318037D-02 0.39060686D+00 0.33782750D+05 0.33782750D+05 0.33782750D+05 0.12095225D+01  3  4 12  9  5  1       21 0.845046338209D-04 0.100000000000D+01
-.839206678268D-04 0.000000000000D+00 -.448209380368D-06 0.525343254886D-06 0.000000000000D+00  6 3 -1 25 23 3 -1 4 0.54874692D-02 0.39060686D+00 0.32030736D+05 0.32030736D+05 0.32030736D+05 0.12119242D+01  3  4  5  9  5  1       21 -.173398286424D-03 0.100000000000D+01
0.116220196494D-06 0.000000000000D+00 0.000000000000D+00 0.525343254886D-06 0.158623529724D-07  6 3 -1 25 23 3 -1 4 0.54854258D-02 0.39090911D+00 0.33782750D+05 0.33782750D+05 0.33782750D+05 0.12095225D+01  3  4 11  9  5  1       21 0.237080560243D-06 0.100000000000D+01
  </mgrwgt>
  </event>
  <event>
  6     66 0.53732839E-03 0.74744413E+02 0.75467711E-02 0.11320803E+00
       21 -1    0    0  501  502 0.00000000E+00 0.00000000E+00 0.97282252E+03 0.97282281E+03 0.75000000E+00 0.0000E+00 0.9000E+01
       -1 -1    0    0    0  501 0.00000000E+00 0.00000000E+00 -.69039037E+02 0.69039778E+02 0.32000000E+00 0.0000E+00 0.9000E+01
       25  1    1    2    0    0 0.11393960E+03 0.19739479E+02 0.20437211E+03 0.26601662E+03 0.12500000E+03 0.0000E+00 0.9000E+01
       23  1    1    2    0    0 -.13601449E+03 -.98936209E+02 0.23457767E+03 0.30270489E+03 0.91188000E+02 0.0000E+00 0.9000E+01
       -1  1    1    2    0  503 0.13323346E+02 0.66662293E+02 0.30037917E+03 0.30797584E+03 0.32000000E+00 0.0000E+00 0.9000E+01
       21  1    1    2  503  502 0.87515449E+01 0.12534436E+02 0.16445453E+03 0.16516524E+03 0.75000000E+00 0.0000E+00 0.9000E+01
#aMCatNLO 2  0  0  5  1 0.14986412D+02 0.00000000D+00  -5  6  0 0.00000000D+00 0.00000000D+00 0.00000000D+00 0.00000000D+00 0.00000000D+00
  <mgrwgt>
 0.1320580495D-01    2    2    0
 0.259158767268986D+03 0.000000000000000D+00 0.000000000000000D+00 0.259158767268986D+03
 0.259158767268986D+03 -.000000000000000D+00 -.000000000000000D+00 -.259158767268986D+03
 0.178450554505408D+03 0.113732045161401D+03 0.189948547294244D+02 -.540723385891594D+02
 0.200333543955875D+03 -.136247031867370D+03 -.997704879882418D+02 -.574532290114357D+02
 0.139533436076690D+03 0.225149867059689D+02 0.807756332588174D+02 0.111525567600595D+03
 0.000000000000000D+00 0.000000000000000D+00 0.000000000000000D+00 0.000000000000000D+00
 0.259158767268986D+03 0.000000000000000D+00 0.000000000000000D+00 0.259158767268986D+03
 0.259158767268986D+03 -.000000000000000D+00 -.000000000000000D+00 -.259158767268986D+03
 0.178355055927588D+03 0.113939888409098D+03 0.197405211679861D+02 -.530428093927141D+02
 0.199431462556155D+03 -.136014164292310D+03 -.989350433092590D+02 -.562997444980565D+02
 0.950486306396098D+02 0.132768946125389D+02 0.665544861330291D+02 0.665467251747293D+02
 0.454823854146200D+02 0.879738127067352D+01 0.126400360082438D+02 0.427958287160413D+02
-.126461273825D-04 0.000000000000D+00 0.000000000000D+00 0.173746050463D-06 0.000000000000D+00  6 21 -1 25 23 -1 21 4 0.14966508D+00 0.10621470D-01 0.49477501D+05 0.49477501D+05 0.49477501D+05 0.11927338D+01  1  2 13  3  6  5       -1 -.377086388404D-02 0.100000000000D+01
0.569336691023D-04 0.000000000000D+00 0.000000000000D+00 0.173691784932D-06 0.196025124803D-07  6 21 -1 25 23 -1 21 4 0.14966508D+00 0.10621470D-01 0.49477501D+05 0.49477501D+05 0.49477501D+05 0.11927338D+01  1  2  1  3  6  5       -1 0.169766688339D-01 0.100000000000D+01
  </mgrwgt>
  </event>
  <event>
  5     66 0.53732839E-03 0.18888131E+03 0.75467711E-02 0.10779919E+00
       21 -1    0    0  501  502 0.00000000E+00 0.00000000E+00 0.36364151E+03 0.36364228E+03 0.75000000E+00 0.0000E+00 0.9000E+01
       -3 -1    0    0    0  501 0.00000000E+00 0.00000000E+00 -.26660650E+03 0.26660697E+03 0.50000000E+00 0.0000E+00 0.9000E+01
       25  1    1    2    0    0 0.24923051E+03 0.84728379E+01 0.25337656E+01 0.27896067E+03 0.12500000E+03 0.0000E+00 0.9000E+01
       23  1    1    2    0    0 -.61988021E+02 0.16351320E+02 0.11637255E+03 0.16114497E+03 0.91188000E+02 0.0000E+00 0.9000E+01
       -3  1    1    2    0  502 -.18724249E+03 -.24824158E+02 -.21871305E+02 0.19014361E+03 0.50000000E+00 0.0000E+00 0.9000E+01
#aMCatNLO 1  0  0  1  5 0.49411361D+02 0.00000000D+00  -5  6  0 0.00000000D+00 0.00000000D+00 0.00000000D+00 0.00000000D+00 0.00000000D+00
  <mgrwgt>
 0.1098938184D-02    4    2    0
 0.311367280408331D+03 0.000000000000000D+00 0.000000000000000D+00 0.311367280408331D+03
 0.311367280408331D+03 0.000000000000000D+00 0.000000000000000D+00 -.311367280408331D+03
 0.281932383870846D+03 0.249230789084947D+03 0.847287457351134D+01 -.409034624897927D+02
 0.144956248727252D+03 -.619878788062736D+02 0.163513391489418D+02 0.926671424519608D+02
 0.195845928218565D+03 -.187242910278674D+03 -.248242137224532D+02 -.517636799621681D+02
 0.000000000000000D+00 -.000000000000000D+00 -.000000000000000D+00 -.000000000000000D+00
 0.324745482948527D+03 0.000000000000000D+00 0.000000000000000D+00 0.324745482948527D+03
 0.361570936198848D+03 0.000000000000000D+00 0.000000000000000D+00 -.361570936198848D+03
 0.295669576299493D+03 0.263490631092649D+03 0.263646056648977D+02 -.409034624897927D+02
 0.143360899051247D+03 -.548699026584432D+02 0.252822175614166D+02 0.926671424519608D+02
 0.185661301282668D+03 -.177824256616420D+03 -.130066901848896D+02 -.517636799621681D+02
 0.616246425139672D+02 -.307964718177860D+02 -.386401330414247D+02 -.368254532503208D+02
0.114104292113D-04 0.000000000000D+00 0.000000000000D+00 0.309469974763D-07 0.000000000000D+00  6 21 -3 25 23 -3 21 2 0.55944943D-01 0.41016481D-01 0.83896753D+05 0.83896753D+05 0.83896753D+05 0.11706423D+01  1  2  2  1  6  1       21 0.135601228139D-02 0.100000000000D+01
-.121674710162D-05 0.602144892478D-06 -.230343690873D-07 0.309469974763D-07 0.000000000000D+00  6 21 -3 25 23 -3 21 4 0.55944943D-01 0.41016481D-01 0.83896753D+05 0.83896753D+05 0.83896753D+05 0.11706423D+01  1  2  3  1  6  1       21 -.198157436409D-03 0.100000000000D+01
0.121302933897D-05 0.000000000000D+00 0.000000000000D+00 0.309469974763D-07 0.000000000000D+00  6 21 -3 25 23 -3 21 4 0.55944943D-01 0.41016481D-01 0.83896753D+05 0.83896753D+05 0.83896753D+05 0.11706423D+01  1  2 15  1  6  1       21 0.197551967684D-03 0.100000000000D+01
-.157479560939D-05 0.000000000000D+00 0.000000000000D+00 0.309469974763D-07 0.000000000000D+00  6 21 -3 25 23 -3 21 4 0.55944943D-01 0.41016481D-01 0.83896753D+05 0.83896753D+05 0.83896753D+05 0.11706423D+01  1  2  4  1  6  1       21 -.256468628863D-03 0.100000000000D+01
  </mgrwgt>
  </event>
  <event>
  6     66 0.53732839E-03 0.48285570E+02 0.75467711E-02 0.11791513E+00
       21 -1    0    0  501  502 0.00000000E+00 0.00000000E+00 0.13589854E+03 0.13590061E+03 0.75000000E+00 0.0000E+00 0.9000E+01
       -3 -1    0    0    0  501 -.00000000E+00 -.00000000E+00 -.32115491E+03 0.32115530E+03 0.50000000E+00 0.0000E+00 0.9000E+01
       25  1    1    2    0    0 -.65705597E+01 0.41792521E+02 -.84119000E+02 0.15649535E+03 0.12500000E+03 0.0000E+00 0.9000E+01
       23  1    1    2    0    0 -.32313129E+02 -.16089222E+02 0.51033300E+02 0.11055610E+03 0.91188000E+02 0.0000E+00 0.9000E+01
       -3  1    1    2    0  503 0.13393789E+02 0.37079415E+02 -.89087485E+02 0.97422311E+02 0.50000000E+00 0.0000E+00 0.9000E+01
       21  1    1    2  503  502 0.25489900E+02 -.62782714E+02 -.63083185E+02 0.92582152E+02 0.75000000E+00 0.0000E+00 0.9000E+01
#aMCatNLO 2  0  0  5  1 0.51718680D+02 0.00000000D+00  -5  6  0 0.00000000D+00 0.00000000D+00 0.00000000D+00 0.00000000D+00 0.00000000D+00
  <mgrwgt>
 0.1063931638D-02    2    2    0
 0.208913963920251D+03 0.000000000000000D+00 0.000000000000000D+00 0.208913963920251D+03
 0.208913963920251D+03 -.000000000000000D+00 -.000000000000000D+00 -.208913963920251D+03
 0.134143012676075D+03 -.129749536222690D+02 0.460260196418782D+02 -.908867120314522D+01
 0.156203047671701D+03 -.394757138365254D+02 -.113545356386085D+02 0.119987013028311D+03
 0.127481867492727D+03 0.524506674587944D+02 -.346714840032697D+02 -.110898341825165D+03
 0.000000000000000D+00 0.000000000000000D+00 0.000000000000000D+00 0.000000000000000D+00
 0.208913963920251D+03 0.000000000000000D+00 0.000000000000000D+00 0.208913963920251D+03
 0.208913963920251D+03 -.000000000000000D+00 -.000000000000000D+00 -.208913963920251D+03
 0.133890566635625D+03 -.657815862693359D+01 0.417975438931720D+02 -.226136460480415D+02
 0.143576644296134D+03 -.323212772983595D+02 -.160838354550561D+02 0.104860129287521D+03
 0.665635623268838D+02 0.131019315005715D+02 0.372178361908370D+02 -.536085803754520D+02
 0.737971545818599D+02 0.257975044247216D+02 -.629315446289529D+02 -.286379028640280D+02
-.793491643424D-06 0.000000000000D+00 0.000000000000D+00 0.802902226436D-07 0.000000000000D+00  6 21 -3 25 23 -3 21 4 0.20907657D-01 0.49408637D-01 0.28478608D+05 0.28478608D+05 0.28478608D+05 0.12172778D+01  1  2 13  3  6  5       -3 -.745388827839D-03 0.100000000000D+01
0.192608289313D-05 0.000000000000D+00 0.000000000000D+00 0.818801913796D-07 0.281553889350D-09  6 21 -3 25 23 -3 21 4 0.20907657D-01 0.49408637D-01 0.28478608D+05 0.28478608D+05 0.28478608D+05 0.12172778D+01  1  2  1  3  6  5       -3 0.180932046598D-02 0.100000000000D+01
  </mgrwgt>
  </event>
  <event>
  5     66 -.53732839E-03 0.42639658E+02 0.75467711E-02 0.11666077E+00
       21 -1    0    0  501  502 0.00000000E+00 0.00000000E+00 0.40255715E+03 0.40255785E+03 0.75000000E+00 0.0000E+00 0.9000E+01
       -3 -1    0    0    0  501 0.00000000E+00 0.00000000E+00 -.82569138E+02 0.82570652E+02 0.50000000E+00 0.0000E+00 0.9000E+01
       25  1    1    2    0    0 -.31235493E+02 0.38575305E+02 0.29919014E+02 0.13778192E+03 0.12500000E+03 0.0000E+00 0.9000E+01
       23  1    1    2    0    0 0.73870138E+02 -.37960655E+02 0.12026188E+03 0.17226718E+03 0.91188000E+02 0.0000E+00 0.9000E+01
       -3  1    1    2    0  502 -.42634645E+02 -.61464998E+00 0.16980712E+03 0.17507941E+03 0.50000000E+00 0.0000E+00 0.9000E+01
#aMCatNLO 1  0  0  2  1 0.57656965D+02 0.00000000D+00  -5  6  0 0.00000000D+00 0.00000000D+00 0.00000000D+00 0.00000000D+00 0.00000000D+00
  <mgrwgt>
 -.6973805658D-02    7    4    0
 0.182316575928826D+03 0.000000000000000D+00 0.000000000000000D+00 0.182316575928826D+03
 0.182316575928826D+03 0.000000000000000D+00 0.000000000000000D+00 -.182316575928826D+03
 0.157057282225079D+03 -.312351670984099D+02 0.385753092830821D+02 -.811067182789254D+02
 0.123656888675335D+03 0.738703951123971D+02 -.379606509055700D+02 0.882771100727253D+01
 0.839189809572386D+02 -.426352280139873D+02 -.614658377512160D+00 0.722790072716529D+02
 0.000000000000000D+00 -.000000000000000D+00 -.000000000000000D+00 -.000000000000000D+00
 0.192148167863496D+03 0.000000000000000D+00 0.000000000000000D+00 0.192148167863496D+03
 0.294419605813670D+03 0.000000000000000D+00 0.000000000000000D+00 -.294419605813670D+03
 0.163256071926111D+03 -.233582968405149D+02 0.624790784141146D+02 -.811067182789254D+02
 0.123148007212920D+03 0.799396086457407D+02 -.195425388435399D+02 0.882771100727253D+01
 0.827593819749801D+02 -.385364172007618D+02 0.118239148353599D+02 0.722790072716529D+02
 0.117404312563155D+03 -.180448946044640D+02 -.547604544059346D+02 -.102271437950174D+03
 0.182316575928826D+03 0.000000000000000D+00 0.000000000000000D+00 0.182316575928826D+03
 0.182316575928826D+03 0.000000000000000D+00 0.000000000000000D+00 -.182316575928826D+03
 0.157057282225079D+03 -.312351670984099D+02 0.385753092830821D+02 -.811067182789254D+02
 0.123656888675335D+03 0.738703951123971D+02 -.379606509055700D+02 0.882771100727253D+01
 0.000000000000000D+00 -.000000000000000D+00 -.000000000000000D+00 -.000000000000000D+00
 0.839189809572386D+02 -.426352280139873D+02 -.614658377512160D+00 0.722790072716529D+02
 0.192148167863496D+03 0.000000000000000D+00 0.000000000000000D+00 0.192148167863496D+03
 0.294419605813670D+03 0.000000000000000D+00 0.000000000000000D+00 -.294419605813670D+03
 0.163256071926111D+03 -.233582968405149D+02 0.624790784141146D+02 -.811067182789254D+02
 0.123148007212920D+03 0.799396086457407D+02 -.195425388435399D+02 0.882771100727253D+01
 0.117404312563155D+03 -.180448946044640D+02 -.547604544059346D+02 -.102271437950174D+03
 0.827593819749801D+02 -.385364172007618D+02 0.118239148353599D+02 0.722790072716529D+02
0.172053016936D-05 0.000000000000D+00 0.000000000000D+00 0.629798594884D-06 0.000000000000D+00  6 21 -3 25 23 -3 21 2 0.61932040D-01 0.12703114D-01 0.22571343D+05 0.22571343D+05 0.22571343D+05 0.12280848D+01  1  2  2  2  6  2       -3 0.151765522815D-02 0.100000000000D+01
0.815296821704D-07 0.907948714852D-07 -.347325470522D-08 0.629798594884D-06 0.000000000000D+00  6 21 -3 25 23 -3 21 4 0.61932040D-01 0.12703114D-01 0.22571343D+05 0.22571343D+05 0.22571343D+05 0.12280848D+01  1  2  3  2  6  2       -3 0.108463421217D-03 0.100000000000D+01
0.198115708008D-06 0.000000000000D+00 0.000000000000D+00 0.629798594884D-06 0.000000000000D+00  6 21 -3 25 23 -3 21 4 0.61932040D-01 0.12703114D-01 0.22571343D+05 0.22571343D+05 0.22571343D+05 0.12280848D+01  1  2 15  2  6  2       -3 0.263564224897D-03 0.100000000000D+01
-.822045227437D-05 0.000000000000D+00 0.000000000000D+00 0.629798594884D-06 0.000000000000D+00  6 21 -3 25 23 -3 21 4 0.61932040D-01 0.12703114D-01 0.22571343D+05 0.22571343D+05 0.22571343D+05 0.12280848D+01  1  2  4  2  6  2       -3 -.109361198755D-01 0.100000000000D+01
-.998934560531D-05 0.000000000000D+00 -.188352131709D-05 0.629798594884D-06 0.000000000000D+00  6 21 -3 25 23 -3 21 4 0.61932040D-01 0.21451419D-01 0.22571343D+05 0.22571343D+05 0.22571343D+05 0.12280848D+01  1  2  5  2  6  2       -3 -.536526670457D-02 0.100000000000D+01
0.982801207528D-05 0.000000000000D+00 0.165159263732D-05 0.629798594884D-06 0.000000000000D+00  6 21 -3 25 23 -3 21 4 0.61932040D-01 0.12703114D-01 0.22571343D+05 0.22571343D+05 0.22571343D+05 0.12280848D+01  1  2  6  2  6  2       -3 0.130747451121D-01 0.100000000000D+01
-.495318866753D-06 0.000000000000D+00 -.110256403607D-06 0.629798594884D-06 0.000000000000D+00  6 21 21 25 23 3 -3 4 0.61932040D-01 0.21451419D-01 0.22571343D+05 0.22571343D+05 0.22571343D+05 0.12280848D+01  3  4  5 10  5  2       -3 -.563684706402D-02 0.100000000000D+01
  </mgrwgt>
  </event>
  <event>
  5     66 0.53732839E-03 0.11126821E+03 0.75467711E-02 0.11215424E+00
       21 -1    0    0  501  502 0.00000000E+00 0.00000000E+00 0.68252839E+02 0.68256959E+02 0.75000000E+00 0.0000E+00 0.9000E+01
       -1 -1    0    0    0  501 0.00000000E+00 0.00000000E+00 -.10196806E+04 0.10196807E+04 0.32000000E+00 0.0000E+00 0.9000E+01
       25  1    1    2    0    0 -.11141350E+03 0.75360733E+01 -.54117845E+03 0.56654115E+03 0.12500000E+03 0.0000E+00 0.9000E+01
       23  1    1    2    0    0 0.11657820E+03 0.10560888E+03 -.14360094E+03 0.23168987E+03 0.91188000E+02 0.0000E+00 0.9000E+01
       -1  1    1    2    0  502 -.51647006E+01 -.11314496E+03 -.26664839E+03 0.28970662E+03 0.32000000E+00 0.0000E+00 0.9000E+01
#aMCatNLO 1  0  0  1  2 0.12058000D+02 0.00000000D+00  -5  6  0 0.00000000D+00 0.00000000D+00 0.00000000D+00 0.00000000D+00 0.00000000D+00
  <mgrwgt>
 0.3891627437D-02   13    4    0
 0.263815022121135D+03 0.000000000000000D+00 0.000000000000000D+00 0.263815022121135D+03
 0.263815022121135D+03 0.000000000000000D+00 0.000000000000000D+00 -.263815022121135D+03
 0.192311291998679D+03 -.111413493394453D+03 0.753622880542059D+01 -.942808133993212D+02
 0.218786365710730D+03 0.116578209206420D+03 0.105609058814291D+03 0.121690058392183D+03
 0.116532386532862D+03 -.516471581196677D+01 -.113145287619712D+03 -.274092449928618D+02
 0.000000000000000D+00 -.000000000000000D+00 0.000000000000000D+00 -.000000000000000D+00
 0.268812505846265D+03 0.000000000000000D+00 0.000000000000000D+00 0.268812505846265D+03
 0.271258984832359D+03 0.000000000000000D+00 0.000000000000000D+00 -.271258984832359D+03
 0.190193588005399D+03 -.107865079377514D+03 0.498535796231752D+01 -.942808133993212D+02
 0.219597946383909D+03 0.120645004479270D+03 0.102685535956794D+03 0.121690058392183D+03
 0.117976273401463D+03 -.298923032274719D+01 -.114709192642506D+03 -.274092449928618D+02
 0.123036828878529D+02 -.979069477900900D+01 0.703829872339406D+01 -.244647898609408D+01
 0.263815022121135D+03 0.000000000000000D+00 0.000000000000000D+00 0.263815022121135D+03
 0.263815022121135D+03 0.000000000000000D+00 0.000000000000000D+00 -.263815022121135D+03
 0.192311291998679D+03 -.111413493394453D+03 0.753622880542059D+01 -.942808133993212D+02
 0.218786365710730D+03 0.116578209206420D+03 0.105609058814291D+03 0.121690058392183D+03
 0.000000000000000D+00 -.000000000000000D+00 0.000000000000000D+00 -.000000000000000D+00
 0.116532386532862D+03 -.516471581196677D+01 -.113145287619712D+03 -.274092449928618D+02
 0.268812505846265D+03 0.000000000000000D+00 0.000000000000000D+00 0.268812505846265D+03
 0.271258984832359D+03 0.000000000000000D+00 0.000000000000000D+00 -.271258984832359D+03
 0.190193588005399D+03 -.107865079377514D+03 0.498535796231752D+01 -.942808133993212D+02
 0.219597946383909D+03 0.120645004479270D+03 0.102685535956794D+03 0.121690058392183D+03
 0.123036828878529D+02 -.979069477900900D+01 0.703829872339406D+01 -.244647898609408D+01
 0.117976273401463D+03 -.298923032274719D+01 -.114709192642506D+03 -.274092449928618D+02
0.532196159018D-05 0.000000000000D+00 0.000000000000D+00 0.312208819221D-07 0.000000000000D+00  6 21 -1 25 23 -1 21 2 0.10500758D-01 0.15687426D+00 0.53522677D+05 0.53522677D+05 0.53522677D+05 0.11893645D+01  1  2  2  1  6  1       21 0.176263690461D-02 0.100000000000D+01
-.455924363014D-06 0.280847628967D-06 -.107435071255D-07 0.312208819221D-07 0.000000000000D+00  6 21 -1 25 23 -1 21 4 0.10500758D-01 0.15687426D+00 0.53522677D+05 0.53522677D+05 0.53522677D+05 0.11893645D+01  1  2  3  1  6  1       21 -.213606219405D-03 0.100000000000D+01
0.529120755140D-06 0.000000000000D+00 0.000000000000D+00 0.312208819221D-07 0.000000000000D+00  6 21 -1 25 23 -1 21 4 0.10500758D-01 0.15687426D+00 0.53522677D+05 0.53522677D+05 0.53522677D+05 0.11893645D+01  1  2 15  1  6  1       21 0.247899637051D-03 0.100000000000D+01
0.880768330647D-05 0.000000000000D+00 0.000000000000D+00 0.311057560384D-07 0.000000000000D+00  6 21 -1 25 23 -1 21 4 0.10844405D-01 0.15687426D+00 0.56354998D+05 0.56354998D+05 0.56354998D+05 0.11871696D+01  1  2 12  1  6  1       21 0.386158276937D-02 0.100000000000D+01
-.384585979950D-05 0.000000000000D+00 0.000000000000D+00 0.312208819221D-07 0.000000000000D+00  6 21 -1 25 23 -1 21 4 0.10500758D-01 0.15687426D+00 0.53522677D+05 0.53522677D+05 0.53522677D+05 0.11893645D+01  1  2  4  1  6  1       21 -.180183302051D-02 0.100000000000D+01
0.160707863560D-06 0.000000000000D+00 0.000000000000D+00 0.311057560384D-07 0.000000000000D+00  6 -1 -1 25 23 -1 -1 4 0.10844405D-01 0.15687426D+00 0.56354998D+05 0.56354998D+05 0.56354998D+05 0.11871696D+01  1  2 12  4  6  1       21 0.486262832090D-05 0.100000000000D+01
0.160707863560D-06 0.000000000000D+00 0.000000000000D+00 0.311057560384D-07 0.000000000000D+00  6 1 -1 25 23 1 -1 4 0.10844405D-01 0.15687426D+00 0.56354998D+05 0.56354998D+05 0.56354998D+05 0.11871696D+01  3  4 12  5  5  1       21 0.618849435113D-05 0.100000000000D+01
0.160707863560D-06 0.000000000000D+00 0.000000000000D+00 0.311057560384D-07 0.000000000000D+00  6 -2 -1 25 23 -1 -2 4 0.10844405D-01 0.15687426D+00 0.56354998D+05 0.56354998D+05 0.56354998D+05 0.11871696D+01  1  2 12  6  6  1       21 0.463365056495D-05 0.100000000000D+01
0.160707863560D-06 0.000000000000D+00 0.000000000000D+00 0.311057560384D-07 0.000000000000D+00  6 -4 -1 25 23 -1 -4 4 0.10844405D-01 0.15687426D+00 0.56354998D+05 0.56354998D+05 0.56354998D+05 0.11871696D+01  1  2 12  6  6  1       21 0.284772021938D-05 0.100000000000D+01
0.160707863560D-06 0.000000000000D+00 0.000000000000D+00 0.311057560384D-07 0.000000000000D+00  6 2 -1 25 23 2 -1 4 0.10844405D-01 0.15687426D+00 0.56354998D+05 0.56354998D+05 0.56354998D+05 0.11871696D+01  3  4 12  7  5  1       21 0.709379024706D-05 0.100000000000D+01
0.160707863560D-06 0.000000000000D+00 0.000000000000D+00 0.311057560384D-07 0.000000000000D+00  6 4 -1 25 23 4 -1 4 0.10844405D-01 0.15687426D+00 0.56354998D+05 0.56354998D+05 0.56354998D+05 0.11871696D+01  3  4 12  7  5  1       21 0.284772021938D-05 0.100000000000D+01
0.160707863560D-06 0.000000000000D+00 0.000000000000D+00 0.311057560384D-07 0.000000000000D+00  6 -3 -1 25 23 -1 -3 4 0.10844405D-01 0.15687426D+00 0.56354998D+05 0.56354998D+05 0.56354998D+05 0.11871696D+01  1  2 12  8  6  1       21 0.323686833633D-05 0.100000000000D+01
0.160707863560D-06 0.000000000000D+00 0.000000000000D+00 0.311057560384D-07 0.000000000000D+00  6 3 -1 25 23 3 -1 4 0.10844405D-01 0.15687426D+00 0.56354998D+05 0.56354998D+05 0.56354998D+05 0.11871696D+01  3  4 12  9  5  1       21 0.323649408204D-05 0.100000000000D+01
  </mgrwgt>
  </event>
  <event>
  5     66 0.53732839E-03 0.43490529E+02 0.75467711E-02 0.10969733E+00
       21 -1    0    0  501  502 0.00000000E+00 0.00000000E+00 0.55987359E+03 0.55987410E+03 0.75000000E+00 0.0000E+00 0.9000E+01
       -3 -1    0    0    0  501 0.00000000E+00 0.00000000E+00 -.35250111E+03 0.35250146E+03 0.50000000E+00 0.0000E+00 0.9000E+01
       25  1    1    2    0    0 0.11119540E+03 0.11432227E+02 -.23019699E+03 0.28479952E+03 0.12500000E+03 0.0000E+00 0.9000E+01
       23  1    1    2    0    0 -.14729307E+03 -.35688816E+02 -.10704561E+02 0.17719700E+03 0.91188000E+02 0.0000E+00 0.9000E+01
       -3  1    1    2    0  502 0.36097670E+02 0.24256589E+02 0.44827403E+03 0.45037904E+03 0.50000000E+00 0.0000E+00 0.9000E+01
#aMCatNLO 1  0  0  2  1 0.24462853D+01 0.00000000D+00  -5  6  0 0.00000000D+00 0.00000000D+00 0.00000000D+00 0.00000000D+00 0.00000000D+00
  <mgrwgt>
 0.5068043471D-02    7    4    0
 0.444248189891697D+03 0.000000000000000D+00 0.000000000000000D+00 0.444248189891697D+03
 0.444248189891697D+03 0.000000000000000D+00 0.000000000000000D+00 -.444248189891697D+03
 0.346181196829622D+03 0.111195382772039D+03 0.114322179816959D+02 -.302855266225616D+03
 0.184457781300185D+03 -.147293073976388D+03 -.356888209966216D+02 -.523495955346766D+02
 0.357857401653587D+03 0.360976912043496D+02 0.242566030149257D+02 0.355204861760292D+03
 0.000000000000000D+00 -.000000000000000D+00 0.000000000000000D+00 -.000000000000000D+00
 0.494376058392339D+03 0.000000000000000D+00 0.000000000000000D+00 0.494376058392339D+03
 0.531264859473323D+03 0.000000000000000D+00 0.000000000000000D+00 -.531264859473323D+03
 0.359077091089283D+03 0.145034523536828D+03 -.235591181286172D+02 -.302855266225616D+03
 0.175579739789370D+03 -.130018040750325D+03 -.535520551174763D+02 -.523495955346766D+02
 0.362345372130337D+03 0.706538863724783D+02 -.114762026206045D+02 0.355204861760292D+03
 0.128638714856672D+03 -.856703691589810D+02 0.885873758666981D+02 -.368888010809840D+02
 0.444248189891697D+03 0.000000000000000D+00 0.000000000000000D+00 0.444248189891697D+03
 0.444248189891697D+03 0.000000000000000D+00 0.000000000000000D+00 -.444248189891697D+03
 0.346181196829622D+03 0.111195382772039D+03 0.114322179816959D+02 -.302855266225616D+03
 0.184457781300185D+03 -.147293073976388D+03 -.356888209966216D+02 -.523495955346766D+02
 0.000000000000000D+00 -.000000000000000D+00 0.000000000000000D+00 -.000000000000000D+00
 0.357857401653587D+03 0.360976912043496D+02 0.242566030149257D+02 0.355204861760292D+03
 0.494376058392339D+03 0.000000000000000D+00 0.000000000000000D+00 0.494376058392339D+03
 0.531264859473323D+03 0.000000000000000D+00 0.000000000000000D+00 -.531264859473323D+03
 0.359077091089283D+03 0.145034523536828D+03 -.235591181286172D+02 -.302855266225616D+03
 0.175579739789370D+03 -.130018040750325D+03 -.535520551174763D+02 -.523495955346766D+02
 0.128638714856672D+03 -.856703691589810D+02 0.885873758666981D+02 -.368888010809840D+02
 0.362345372130337D+03 0.706538863724783D+02 -.114762026206045D+02 0.355204861760292D+03
0.477500655750D-03 0.000000000000D+00 0.000000000000D+00 0.276568479712D-05 0.000000000000D+00  6 21 -3 25 23 -3 21 2 0.86134465D-01 0.54231006D-01 0.37646559D+05 0.37646559D+05 0.37646559D+05 0.12046838D+01  1  2  2  2  6  2       -3 0.134724455156D-01 0.100000000000D+01
0.123302664750D-03 0.251984018909D-04 -.963936249922D-06 0.276568479712D-05 0.000000000000D+00  6 21 -3 25 23 -3 21 4 0.86134465D-01 0.54231006D-01 0.37646559D+05 0.37646559D+05 0.37646559D+05 0.12046838D+01  1  2  3  2  6  2       -3 0.504883337059D-02 0.100000000000D+01
0.485738924063D-04 0.000000000000D+00 0.000000000000D+00 0.276568479712D-05 0.000000000000D+00  6 21 -3 25 23 -3 21 4 0.86134465D-01 0.54231006D-01 0.37646559D+05 0.37646559D+05 0.37646559D+05 0.12046838D+01  1  2 15  2  6  2       -3 0.198893908269D-02 0.100000000000D+01
-.781927631715D-03 0.000000000000D+00 0.000000000000D+00 0.276568479712D-05 0.000000000000D+00  6 21 -3 25 23 -3 21 4 0.86134465D-01 0.54231006D-01 0.37646559D+05 0.37646559D+05 0.37646559D+05 0.12046838D+01  1  2  4  2  6  2       -3 -.320173317292D-01 0.100000000000D+01
-.123373105497D-02 0.000000000000D+00 -.785629389564D-03 0.276568479712D-05 0.000000000000D+00  6 21 -3 25 23 -3 21 4 0.86134465D-01 0.71007113D-01 0.37646559D+05 0.37646559D+05 0.37646559D+05 0.12046838D+01  1  2  5  2  6  2       -3 -.287792281981D-01 0.100000000000D+01
0.142124038782D-02 0.000000000000D+00 0.757932352790D-03 0.276568479712D-05 0.000000000000D+00  6 21 -3 25 23 -3 21 4 0.86134465D-01 0.54231006D-01 0.37646559D+05 0.37646559D+05 0.37646559D+05 0.12046838D+01  1  2  6  2  6  2       -3 0.581950593868D-01 0.100000000000D+01
-.292479278695D-04 0.000000000000D+00 -.280967665340D-04 0.276568479712D-05 0.000000000000D+00  6 21 21 25 23 3 -3 4 0.86134465D-01 0.71007113D-01 0.37646559D+05 0.37646559D+05 0.37646559D+05 0.12046838D+01  3  4  5 10  5  2       -3 -.128406739573D-01 0.100000000000D+01
  </mgrwgt>
  </event>
  <event>
  5     66 0.53732839E-03 0.78334438E+02 0.75467711E-02 0.11654721E+00
       21 -1    0    0  501  502 0.00000000E+00 0.00000000E+00 0.90026152E+02 0.90029276E+02 0.75000000E+00 0.0000E+00 0.9000E+01
       -3 -1    0    0    0  501 0.00000000E+00 0.00000000E+00 -.37949320E+03 0.37949353E+03 0.50000000E+00 0.0000E+00 0.9000E+01
       25  1    1    2    0    0 -.45238390E+02 0.10178944E+03 -.99154548E+02 0.19458733E+03 0.12500000E+03 0.0000E+00 0.9000E+01
       23  1    1    2    0    0 -.26873341E+02 -.71195304E+02 -.98944017E+02 0.15458369E+03 0.91188000E+02 0.0000E+00 0.9000E+01
       -3  1    1    2    0  502 0.72111731E+02 -.30594140E+02 -.91368479E+02 0.12035179E+03 0.50000000E+00 0.0000E+00 0.9000E+01
#aMCatNLO 1  0  0  1  1 0.32650262D+00 0.00000000D+00  -5  6  0 0.00000000D+00 0.00000000D+00 0.00000000D+00 0.00000000D+00 0.00000000D+00
  <mgrwgt>
 0.7507894207D-02   23    4    0
 0.184838099451767D+03 0.000000000000000D+00 0.000000000000000D+00 0.184838099451767D+03
 0.184838099451767D+03 0.000000000000000D+00 0.000000000000000D+00 -.184838099451767D+03
 0.169503322381501D+03 -.452390155037040D+02 0.101789709454331D+03 0.264322307765638D+02
 0.118859503062813D+03 -.268737792375010D+02 -.711951180419462D+02 -.462442221539436D+01
 0.813133734592198D+02 0.721127947412051D+02 -.305945914123845D+02 -.218078085611695D+02
 0.000000000000000D+00 0.000000000000000D+00 -.000000000000000D+00 0.000000000000000D+00
 0.185094090073713D+03 0.000000000000000D+00 0.000000000000000D+00 0.185094090073713D+03
 0.184942310114524D+03 0.000000000000000D+00 0.000000000000000D+00 -.184942310114524D+03
 0.169600023320129D+03 -.453244221198243D+02 0.101912716801519D+03 0.264322307765638D+02
 0.118821435228037D+03 -.269336415918925D+02 -.711089009577828D+02 -.462442221539436D+01
 0.812548845409257D+02 0.720718502769869D+02 -.305356209232780D+02 -.218078085611695D+02
 0.360057099145513D+00 0.186213434729923D+00 -.268194920458622D+00 0.151779959188821D+00
 0.184838099451767D+03 0.000000000000000D+00 0.000000000000000D+00 0.184838099451767D+03
 0.184838099451767D+03 0.000000000000000D+00 0.000000000000000D+00 -.184838099451767D+03
 0.169503322381501D+03 -.452390155037040D+02 0.101789709454331D+03 0.264322307765638D+02
 0.118859503062813D+03 -.268737792375010D+02 -.711951180419462D+02 -.462442221539436D+01
 0.000000000000000D+00 0.000000000000000D+00 -.000000000000000D+00 0.000000000000000D+00
 0.813133734592198D+02 0.721127947412051D+02 -.305945914123845D+02 -.218078085611695D+02
 0.185094090073713D+03 0.000000000000000D+00 0.000000000000000D+00 0.185094090073713D+03
 0.184942310114524D+03 0.000000000000000D+00 0.000000000000000D+00 -.184942310114524D+03
 0.169600023320129D+03 -.453244221198243D+02 0.101912716801519D+03 0.264322307765638D+02
 0.118821435228037D+03 -.269336415918925D+02 -.711089009577828D+02 -.462442221539436D+01
 0.360057099145513D+00 0.186213434729923D+00 -.268194920458622D+00 0.151779959188821D+00
 0.812548845409257D+02 0.720718502769869D+02 -.305356209232780D+02 -.218078085611695D+02
0.672018257808D-06 0.000000000000D+00 0.000000000000D+00 0.110185995022D-06 0.000000000000D+00  6 21 -3 25 23 -3 21 2 0.13850443D-01 0.58383834D-01 0.33221200D+05 0.33221200D+05 0.33221200D+05 0.12102769D+01  1  2  2  1  6  1       21 0.640656712789D-03 0.100000000000D+01
-.531071358705D-07 0.354633777658D-07 -.135661124547D-08 0.110185995022D-06 0.000000000000D+00  6 21 -3 25 23 -3 21 4 0.13850443D-01 0.58383834D-01 0.33221200D+05 0.33221200D+05 0.33221200D+05 0.12102769D+01  1  2  3  1  6  1       21 -.741594778439D-04 0.100000000000D+01
0.105695890191D-06 0.000000000000D+00 0.000000000000D+00 0.110185995022D-06 0.000000000000D+00  6 21 -3 25 23 -3 21 4 0.13850443D-01 0.58383834D-01 0.33221200D+05 0.33221200D+05 0.33221200D+05 0.12102769D+01  1  2 15  1  6  1       21 0.147595081119D-03 0.100000000000D+01
-.578435095130D-04 0.000000000000D+00 0.000000000000D+00 0.110185995022D-06 0.000000000000D+00  6 21 -3 25 23 -3 21 4 0.13850443D-01 0.58383834D-01 0.33221200D+05 0.33221200D+05 0.33221200D+05 0.12102769D+01  1  2  4  1  6  1       21 -.807734100479D-01 0.100000000000D+01
-.151000256216D-02 0.000000000000D+00 -.111736232178D-03 0.110185995022D-06 0.000000000000D+00  6 21 -3 25 23 -3 21 4 0.13877107D-01 0.58383834D-01 0.33221200D+05 0.33221200D+05 0.33221200D+05 0.12102769D+01  1  2  5  1  6  1       21 -.210127060480D+01 0.100000000000D+01
0.151020635138D-02 0.000000000000D+00 0.111735405538D-03 0.110185995022D-06 0.000000000000D+00  6 21 -3 25 23 -3 21 4 0.13850443D-01 0.58383834D-01 0.33221200D+05 0.33221200D+05 0.33221200D+05 0.12102769D+01  1  2  6  1  6  1       21 0.210887129609D+01 0.100000000000D+01
0.577486534924D-04 0.000000000000D+00 0.000000000000D+00 0.110185995022D-06 0.303479555043D-04  6 21 -3 25 23 -3 21 4 0.13869625D-01 0.58416751D-01 0.33280570D+05 0.33280570D+05 0.33280570D+05 0.12101965D+01  1  2 11  1  6  1       21 0.803271379814D-01 0.100000000000D+01
-.599501427903D-06 0.000000000000D+00 -.478938961104D-07 0.110185995022D-06 0.000000000000D+00  6 -3 -3 25 23 -3 -3 4 0.13877107D-01 0.58383834D-01 0.33221200D+05 0.33221200D+05 0.33221200D+05 0.12102769D+01  1  2  5  4  6  1       21 -.384115964869D-04 0.100000000000D+01
0.964751210064D-07 0.000000000000D+00 0.000000000000D+00 0.110185995022D-06 0.406416259286D-08  6 -3 -3 25 23 -3 -3 4 0.13869625D-01 0.58416751D-01 0.33280570D+05 0.33280570D+05 0.33280570D+05 0.12101965D+01  1  2 11  4  6  1       21 0.617892725858D-05 0.100000000000D+01
-.599501427903D-06 0.000000000000D+00 -.478938961104D-07 0.110185995022D-06 0.000000000000D+00  6 3 -3 25 23 3 -3 4 0.13877107D-01 0.58383834D-01 0.33221200D+05 0.33221200D+05 0.33221200D+05 0.12102769D+01  3  4  5  5  5  1       21 -.384070528775D-04 0.100000000000D+01
0.323757622365D-06 0.000000000000D+00 0.000000000000D+00 0.110185995022D-06 0.164517396241D-06  6 3 -3 25 23 3 -3 4 0.13869625D-01 0.58416751D-01 0.33280570D+05 0.33280570D+05 0.33280570D+05 0.12101965D+01  3  4 11  5  5  1       21 0.207332020308D-04 0.100000000000D+01
-.599501427903D-06 0.000000000000D+00 -.478938961104D-07 0.110185995022D-06 0.000000000000D+00  6 -2 -3 25 23 -3 -2 4 0.13877107D-01 0.58383834D-01 0.33221200D+05 0.33221200D+05 0.33221200D+05 0.12102769D+01  1  2  5  6  6  1       21 -.566665288319D-04 0.100000000000D+01
-.599501427903D-06 0.000000000000D+00 -.478938961104D-07 0.110185995022D-06 0.000000000000D+00  6 -4 -3 25 23 -3 -4 4 0.13877107D-01 0.58383834D-01 0.33221200D+05 0.33221200D+05 0.33221200D+05 0.12102769D+01  1  2  5  6  6  1       21 -.333555660134D-04 0.100000000000D+01
0.838320597685D-07 0.000000000000D+00 0.000000000000D+00 0.110185995022D-06 0.560594125203D-08  6 -2 -3 25 23 -3 -2 4 0.13869625D-01 0.58416751D-01 0.33280570D+05 0.33280570D+05 0.33280570D+05 0.12101965D+01  1  2 11  6  6  1       21 0.792022606797D-05 0.100000000000D+01
0.838320597685D-07 0.000000000000D+00 0.000000000000D+00 0.110185995022D-06 0.560594125203D-08  6 -4 -3 25 23 -3 -4 4 0.13869625D-01 0.58416751D-01 0.33280570D+05 0.33280570D+05 0.33280570D+05 0.12101965D+01  1  2 11  6  6  1       21 0.466261447559D-05 0.100000000000D+01
-.599501427903D-06 0.000000000000D+00 -.478938961104D-07 0.110185995022D-06 0.000000000000D+00  6 2 -3 25 23 2 -3 4 0.13877107D-01 0.58383834D-01 0.33221200D+05 0.33221200D+05 0.33221200D+05 0.12102769D+01  3  4  5  7  5  1       21 -.958849137344D-04 0.100000000000D+01
-.599501427903D-06 0.000000000000D+00 -.478938961104D-07 0.110185995022D-06 0.000000000000D+00  6 4 -3 25 23 4 -3 4 0.13877107D-01 0.58383834D-01 0.33221200D+05 0.33221200D+05 0.33221200D+05 0.12102769D+01  3  4  5  7  5  1       21 -.333555660134D-04 0.100000000000D+01
0.840218252505D-07 0.000000000000D+00 0.000000000000D+00 0.110185995022D-06 0.561863107674D-08  6 2 -3 25 23 2 -3 4 0.13869625D-01 0.58416751D-01 0.33280570D+05 0.33280570D+05 0.33280570D+05 0.12101965D+01  3  4 11  7  5  1       21 0.134288616939D-04 0.100000000000D+01
0.840218252505D-07 0.000000000000D+00 0.000000000000D+00 0.110185995022D-06 0.561863107674D-08  6 4 -3 25 23 4 -3 4 0.13869625D-01 0.58416751D-01 0.33280570D+05 0.33280570D+05 0.33280570D+05 0.12101965D+01  3  4 11  7  5  1       21 0.467316894945D-05 0.100000000000D+01
-.599501427903D-06 0.000000000000D+00 -.478938961104D-07 0.110185995022D-06 0.000000000000D+00  6 -1 -3 25 23 -3 -1 4 0.13877107D-01 0.58383834D-01 0.33221200D+05 0.33221200D+05 0.33221200D+05 0.12102769D+01  1  2  5  8  6  1       21 -.602935741622D-04 0.100000000000D+01
0.829027635862D-07 0.000000000000D+00 0.000000000000D+00 0.110185995022D-06 0.554379820295D-08  6 -1 -3 25 23 -3 -1 4 0.13869625D-01 0.58416751D-01 0.33280570D+05 0.33280570D+05 0.33280570D+05 0.12101965D+01  1  2 11  8  6  1       21 0.833346991659D-05 0.100000000000D+01
-.599501427903D-06 0.000000000000D+00 -.478938961104D-07 0.110185995022D-06 0.000000000000D+00  6 1 -3 25 23 1 -3 4 0.13877107D-01 0.58383834D-01 0.33221200D+05 0.33221200D+05 0.33221200D+05 0.12102769D+01  3  4  5  9  5  1       21 -.813740596248D-04 0.100000000000D+01
0.825749498514D-07 0.000000000000D+00 0.000000000000D+00 0.110185995022D-06 0.552187694104D-08  6 1 -3 25 23 1 -3 4 0.13869625D-01 0.58416751D-01 0.33280570D+05 0.33280570D+05 0.33280570D+05 0.12101965D+01  3  4 11  9  5  1       21 0.112010506425D-04 0.100000000000D+01
  </mgrwgt>
  </event>
</LesHouchesEvents>
