<event>
 5    0  0.3275920E+000  0.2392614E+03  0.7546771E-02  0.1120286E+00
         21   -1    0    0  501  502  0.00000000000E+00  0.00000000000E+00  0.14563164733E+03  0.14563164733E+03  0.00000000000E+00 0. -1.
          3   -1    0    0  503    0 -0.00000000000E+00 -0.00000000000E+00 -0.41495918634E+03  0.41495918634E+03  0.00000000000E+00 0. -1.
         25    1    1    2    0    0 -0.14999570621E+03  0.14020628282E+03 -0.54837385914E+02  0.24655354899E+03  0.12500000000E+03 0.  0.
         21    1    1    2  503  502 -0.13448379544E+02 -0.19946315666E+02 -0.38674854361E+02  0.45546226857E+02  0.00000000000E+00 0. -1.
          3    1    1    2  501    0  0.16344408575E+03 -0.12025996715E+03 -0.17581529873E+03  0.26849105783E+03  0.00000000000E+00 0. -1.
<mgrwt>
<rscale>  4 0.23926142E+03</rscale>
<asrwt>0</asrwt>
<pdfrwt beam="1">  1       21 0.22404869E-01 0.23926142E+03</pdfrwt>
<pdfrwt beam="2">  1        3 0.63839875E-01 0.23926142E+03</pdfrwt>
<totfact> 0.22279596E+03</totfact>
</mgrwt>
</event>
<event>
 5    0  0.3275920E+000  0.4507150E+03  0.7546771E-02  0.1027509E+00
          2   -1    0    0  503    0 -0.00000000000E+00  0.00000000000E+00  0.15537983320E+04  0.15537983320E+04  0.00000000000E+00 0.  1.
         21   -1    0    0  501  502  0.00000000000E+00 -0.00000000000E+00 -0.25020854115E+03  0.25020854115E+03  0.00000000000E+00 0.  1.
         25    1    1    2    0    0 -0.18863566590E+03  0.38978915696E+03  0.25432779932E+02  0.45143197453E+03  0.12500000000E+03 0.  0.
         21    1    1    2  503  502 -0.16980480808E+01 -0.28658590360E+02  0.42958619325E+02  0.51668570166E+02  0.00000000000E+00 0.  1.
          2    1    1    2  501    0  0.19033371398E+03 -0.36113056660E+03  0.12351983916E+04  0.13009063285E+04  0.00000000000E+00 0.  1.
<mgrwt>
<rscale>  4 0.45071499E+03</rscale>
<asrwt>0</asrwt>
<pdfrwt beam="1">  1       21 0.38493623E-01 0.45071499E+03</pdfrwt>
<pdfrwt beam="2">  1        2 0.23904589E+00 0.45071499E+03</pdfrwt>
<totfact> 0.96018448E+02</totfact>
</mgrwt>
</event>
<event>
 5    0  0.3275920E+000  0.2554451E+03  0.7546771E-02  0.1109911E+00
         21   -1    0    0  503  502  0.00000000000E+00  0.00000000000E+00  0.24649814291E+03  0.24649814291E+03  0.00000000000E+00 0.  1.
         -3   -1    0    0    0  501 -0.00000000000E+00 -0.00000000000E+00 -0.68797528794E+03  0.68797528794E+03  0.00000000000E+00 0.  1.
         25    1    1    2    0    0 -0.15187443434E+03 -0.17582993593E+03 -0.43738273207E+03  0.51079415080E+03  0.12500000000E+03 0.  0.
         21    1    1    2  503  501  0.93047197097E+02 -0.40535055867E+02 -0.13124996343E+03  0.16591390702E+03  0.00000000000E+00 0.  1.
         -3    1    1    2    0  502  0.58827237238E+02  0.21636499180E+03  0.12715555047E+03  0.25776537303E+03  0.00000000000E+00 0.  1.
<mgrwt>
<rscale>  4 0.25544507E+03</rscale>
<asrwt>0</asrwt>
<pdfrwt beam="1">  1       21 0.37922792E-01 0.25544507E+03</pdfrwt>
<pdfrwt beam="2">  1       -3 0.10584235E+00 0.25544507E+03</pdfrwt>
<totfact> 0.25941727E+02</totfact>
</mgrwt>
</event>
<event>
 5    0  0.3275920E+000  0.2425159E+03  0.7546771E-02  0.1118128E+00
         21   -1    0    0  501  502  0.00000000000E+00  0.00000000000E+00  0.29320913509E+03  0.29320913509E+03  0.00000000000E+00 0.  1.
          1   -1    0    0  503    0 -0.00000000000E+00 -0.00000000000E+00 -0.47723190099E+03  0.47723190099E+03  0.00000000000E+00 0.  1.
         25    1    1    2    0    0  0.10717884977E+03 -0.17895372141E+03  0.20150851155E+03  0.31582023442E+03  0.12500000000E+03 0.  0.
         21    1    1    2  503  502 -0.33023671338E+02 -0.12699507838E+02 -0.53530264515E+02  0.64166421024E+02  0.00000000000E+00 0.  1.
          1    1    1    2  501    0 -0.74155178428E+02  0.19165322925E+03 -0.33200101293E+03  0.39045438063E+03  0.00000000000E+00 0.  1.
<mgrwt>
<rscale>  4 0.24251594E+03</rscale>
<asrwt>0</asrwt>
<pdfrwt beam="1">  1       21 0.45109099E-01 0.24251594E+03</pdfrwt>
<pdfrwt beam="2">  1        1 0.73420291E-01 0.24251594E+03</pdfrwt>
<totfact> 0.24555148E+03</totfact>
</mgrwt>
</event>
<event>
 5    0  0.3275920E+000  0.3677128E+03  0.7546771E-02  0.1055571E+00
         21   -1    0    0  501  502  0.00000000000E+00  0.00000000000E+00  0.40936579366E+03  0.40936579366E+03  0.00000000000E+00 0.  1.
          1   -1    0    0  503    0 -0.00000000000E+00 -0.00000000000E+00 -0.33412726375E+04  0.33412726375E+04  0.00000000000E+00 0. -1.
         25    1    1    2    0    0  0.23599717523E+03  0.25200575862E+03  0.31122146460E+03  0.48133706394E+03  0.12500000000E+03 0.  0.
         21    1    1    2  503  502 -0.16258239609E+02  0.40846221037E+02 -0.48288332821E+03  0.48488045206E+03  0.00000000000E+00 0.  1.
          1    1    1    2  501    0 -0.21973893562E+03 -0.29285197966E+03 -0.27602449802E+04  0.27844209152E+04  0.00000000000E+00 0. -1.
<mgrwt>
<rscale>  4 0.36771276E+03</rscale>
<asrwt>0</asrwt>
<pdfrwt beam="1">  1       21 0.62979351E-01 0.36771276E+03</pdfrwt>
<pdfrwt beam="2">  1        1 0.51404196E+00 0.36771276E+03</pdfrwt>
<totfact> 0.95998712E+00</totfact>
</mgrwt>
</event>
<event>
 5    0  0.3275920E+000  0.2716218E+03  0.7546771E-02  0.1100355E+00
         21   -1    0    0  501  502  0.00000000000E+00  0.00000000000E+00  0.36641425346E+02  0.36641425346E+02  0.00000000000E+00 0. -1.
          2   -1    0    0  503    0 -0.00000000000E+00 -0.00000000000E+00 -0.23703789549E+04  0.23703789549E+04  0.00000000000E+00 0. -1.
         25    1    1    2    0    0 -0.19441344433E+03 -0.11282983511E+03 -0.85733030194E+03  0.89507955270E+03  0.12500000000E+03 0.  0.
         21    1    1    2  503  502 -0.29652673494E+02 -0.17959144518E+02 -0.51427269551E+03  0.51543982894E+03  0.00000000000E+00 0. -1.
          2    1    1    2  501    0  0.22406611783E+03  0.13078897963E+03 -0.96213453208E+03  0.99650099858E+03  0.00000000000E+00 0. -1.
<mgrwt>
<rscale>  4 0.27162178E+03</rscale>
<asrwt>0</asrwt>
<pdfrwt beam="1">  1       21 0.56371432E-02 0.27162178E+03</pdfrwt>
<pdfrwt beam="2">  1        2 0.36467363E+00 0.27162178E+03</pdfrwt>
<totfact> 0.13108831E+04</totfact>
</mgrwt>
</event>
<event>
 5    0  0.3275920E+000  0.2930647E+03  0.7546771E-02  0.1088760E+00
          1   -1    0    0  503    0 -0.00000000000E+00  0.00000000000E+00  0.33596825969E+04  0.33596825969E+04  0.00000000000E+00 0.  1.
         21   -1    0    0  501  502  0.00000000000E+00 -0.00000000000E+00 -0.35515444729E+02  0.35515444729E+02  0.00000000000E+00 0. -1.
         25    1    1    2    0    0 -0.22852770324E+03 -0.14257848398E+03  0.77674418756E+03  0.83157084374E+03  0.12500000000E+03 0.  0.
         21    1    1    2  503  502  0.42202437536E+01  0.22427145872E+02  0.48954863865E+03  0.49008025560E+03  0.00000000000E+00 0.  1.
          1    1    1    2  501    0  0.22430745948E+03  0.12015133811E+03  0.20578743260E+04  0.20735469423E+04  0.00000000000E+00 0.  1.
<mgrwt>
<rscale>  4 0.29306474E+03</rscale>
<asrwt>0</asrwt>
<pdfrwt beam="1">  1       21 0.54639172E-02 0.29306474E+03</pdfrwt>
<pdfrwt beam="2">  1        1 0.51687399E+00 0.29306474E+03</pdfrwt>
<totfact> 0.10179536E+03</totfact>
</mgrwt>
</event>
<event>
 5    0  0.3275920E+000  0.2361560E+03  0.7546771E-02  0.1122380E+00
          1   -1    0    0  503    0 -0.00000000000E+00  0.00000000000E+00  0.11386247421E+03  0.11386247421E+03  0.00000000000E+00 0. -1.
         21   -1    0    0  501  502  0.00000000000E+00 -0.00000000000E+00 -0.55730949345E+03  0.55730949345E+03  0.00000000000E+00 0. -1.
         25    1    1    2    0    0 -0.19106445687E+03 -0.72197810639E+02 -0.31463344124E+03  0.39539518572E+03  0.12500000000E+03 0.  0.
         21    1    1    2  503  502  0.16578288845E+02 -0.17862487038E+02  0.18255307717E+02  0.30449373788E+02  0.00000000000E+00 0.  1.
          1    1    1    2  501    0  0.17448616802E+03  0.90060297676E+02 -0.14706888570E+03  0.24532740815E+03  0.00000000000E+00 0. -1.
<mgrwt>
<rscale>  4 0.23615603E+03</rscale>
<asrwt>0</asrwt>
<pdfrwt beam="1">  1       21 0.85739921E-01 0.23615603E+03</pdfrwt>
<pdfrwt beam="2">  1        1 0.17517304E-01 0.23615603E+03</pdfrwt>
<totfact> 0.37785830E+03</totfact>
</mgrwt>
</event>
<event>
 5    0  0.3275920E+000  0.2285637E+03  0.7546771E-02  0.1127655E+00
          1   -1    0    0  503    0 -0.00000000000E+00  0.00000000000E+00  0.18246305282E+04  0.18246305282E+04  0.00000000000E+00 0.  1.
         21   -1    0    0  501  502  0.00000000000E+00 -0.00000000000E+00 -0.31783276732E+02  0.31783276732E+02  0.00000000000E+00 0.  1.
         25    1    1    2    0    0 -0.13063667430E+03 -0.16334109101E+03  0.71793794437E+03  0.75815970920E+03  0.12500000000E+03 0.  0.
         21    1    1    2  503  502  0.10886374329E+02  0.36386507493E+02  0.37484583917E+03  0.37676503847E+03  0.00000000000E+00 0.  1.
          1    1    1    2  501    0  0.11975029998E+03  0.12695458352E+03  0.70006346795E+03  0.72148905728E+03  0.00000000000E+00 0.  1.
<mgrwt>
<rscale>  4 0.22856369E+03</rscale>
<asrwt>0</asrwt>
<pdfrwt beam="1">  1       21 0.48897363E-02 0.22856369E+03</pdfrwt>
<pdfrwt beam="2">  1        1 0.28071231E+00 0.22856369E+03</pdfrwt>
<totfact> 0.13826475E+04</totfact>
</mgrwt>
</event>
<event>
 5    0  0.3275920E+000  0.2984842E+03  0.7546771E-02  0.1086001E+00
          1   -1    0    0  503    0 -0.00000000000E+00  0.00000000000E+00  0.56556494906E+03  0.56556494906E+03  0.00000000000E+00 0.  1.
         21   -1    0    0  501  502  0.00000000000E+00 -0.00000000000E+00 -0.45961158967E+03  0.45961158967E+03  0.00000000000E+00 0.  1.
         25    1    1    2    0    0  0.24858617600E+03  0.10451058159E+03 -0.34835430454E+03  0.45792277739E+03  0.12500000000E+03 0.  0.
         21    1    1    2  503  502 -0.95644780447E+01  0.51892619001E+02  0.89812247339E+02  0.10416603534E+03  0.00000000000E+00 0.  1.
          1    1    1    2  501    0 -0.23902169795E+03 -0.15640320059E+03  0.36449541659E+03  0.46308772599E+03  0.00000000000E+00 0.  1.
<mgrwt>
<rscale>  4 0.29848417E+03</rscale>
<asrwt>0</asrwt>
<pdfrwt beam="1">  1       21 0.70709475E-01 0.29848417E+03</pdfrwt>
<pdfrwt beam="2">  1        1 0.87009992E-01 0.29848417E+03</pdfrwt>
<totfact> 0.73005870E+02</totfact>
</mgrwt>
</event>
<event>
 5    0  0.3275920E+000  0.3107624E+03  0.7546771E-02  0.1079981E+00
          1   -1    0    0  503    0 -0.00000000000E+00  0.00000000000E+00  0.23278101206E+04  0.23278101206E+04  0.00000000000E+00 0.  1.
         21   -1    0    0  501  502  0.00000000000E+00 -0.00000000000E+00 -0.59807237544E+02  0.59807237544E+02  0.00000000000E+00 0.  1.
         25    1    1    2    0    0 -0.22192053473E+03 -0.14482253733E+03  0.56333814119E+03  0.63497807235E+03  0.12500000000E+03 0.  0.
         21    1    1    2  503  502 -0.42972572927E+02 -0.38294336078E+02  0.57794422159E+03  0.58080342756E+03  0.00000000000E+00 0.  1.
          1    1    1    2  501    0  0.26489310766E+03  0.18311687341E+03  0.11267205203E+04  0.11718358582E+04  0.00000000000E+00 0.  1.
<mgrwt>
<rscale>  4 0.31076242E+03</rscale>
<asrwt>0</asrwt>
<pdfrwt beam="1">  1       21 0.92011152E-02 0.31076242E+03</pdfrwt>
<pdfrwt beam="2">  1        1 0.35812456E+00 0.31076242E+03</pdfrwt>
<totfact> 0.21091377E+03</totfact>
</mgrwt>
</event>
<event>
 5    0  0.3275920E+000  0.2518962E+03  0.7546771E-02  0.1112112E+00
         21   -1    0    0  501  502  0.00000000000E+00  0.00000000000E+00  0.27561529022E+03  0.27561529022E+03  0.00000000000E+00 0. -1.
          1   -1    0    0  503    0 -0.00000000000E+00 -0.00000000000E+00 -0.14024967780E+04  0.14024967780E+04  0.00000000000E+00 0. -1.
         25    1    1    2    0    0 -0.19549959811E+03 -0.93363751840E+02  0.19647277699E+03  0.31806199886E+03  0.12500000000E+03 0.  0.
         21    1    1    2  503  502 -0.43576488178E+02 -0.97161465578E+01 -0.10344885225E+03  0.11267199677E+03  0.00000000000E+00 0.  1.
          1    1    1    2  501    0  0.23907608629E+03  0.10307989840E+03 -0.12199054125E+04  0.12473780725E+04  0.00000000000E+00 0. -1.
<mgrwt>
<rscale>  4 0.25189624E+03</rscale>
<asrwt>0</asrwt>
<pdfrwt beam="1">  1       21 0.42402352E-01 0.25189624E+03</pdfrwt>
<pdfrwt beam="2">  1        1 0.21576874E+00 0.25189624E+03</pdfrwt>
<totfact> 0.48614864E+02</totfact>
</mgrwt>
</event>
<event>
 5    0  0.3275920E+000  0.2871970E+03  0.7546771E-02  0.1091822E+00
         21   -1    0    0  501  502  0.00000000000E+00  0.00000000000E+00  0.18857661118E+03  0.18857661118E+03  0.00000000000E+00 0.  1.
          2   -1    0    0  503    0 -0.00000000000E+00 -0.00000000000E+00 -0.17979823952E+04  0.17979823952E+04  0.00000000000E+00 0. -1.
         25    1    1    2    0    0 -0.20168165401E+03  0.13332152782E+03  0.57010466595E+02  0.27807429339E+03  0.12500000000E+03 0.  0.
         21    1    1    2  503  502  0.47782179750E+01  0.36007296859E+02 -0.19514971910E+02  0.41233371470E+02  0.00000000000E+00 0. -1.
          2    1    1    2  501    0  0.19690343603E+03 -0.16932882468E+03 -0.16469012787E+04  0.16672513415E+04  0.00000000000E+00 0. -1.
<mgrwt>
<rscale>  4 0.28719699E+03</rscale>
<asrwt>0</asrwt>
<pdfrwt beam="1">  1       21 0.29011786E-01 0.28719699E+03</pdfrwt>
<pdfrwt beam="2">  1        2 0.27661268E+00 0.28719699E+03</pdfrwt>
<totfact> 0.13257753E+03</totfact>
</mgrwt>
</event>
<event>
 5    0  0.3275920E+000  0.2772815E+03  0.7546771E-02  0.1097183E+00
         21   -1    0    0  501  502  0.00000000000E+00  0.00000000000E+00  0.10284141837E+03  0.10284141837E+03  0.00000000000E+00 0. -1.
          2   -1    0    0  503    0 -0.00000000000E+00 -0.00000000000E+00 -0.31092140805E+04  0.31092140805E+04  0.00000000000E+00 0. -1.
         25    1    1    2    0    0 -0.22047675546E+03 -0.10981543900E+03 -0.10653767887E+03  0.29604848819E+03  0.12500000000E+03 0.  0.
         21    1    1    2  503  502 -0.28720256668E+02  0.18910547311E+02 -0.17906145967E+03  0.18233339870E+03  0.00000000000E+00 0. -1.
          2    1    1    2  501    0  0.24919701213E+03  0.90904891685E+02 -0.27207735236E+04  0.27336736120E+04  0.00000000000E+00 0. -1.
<mgrwt>
<rscale>  4 0.27728149E+03</rscale>
<asrwt>0</asrwt>
<pdfrwt beam="1">  1       21 0.15821757E-01 0.27728149E+03</pdfrwt>
<pdfrwt beam="2">  1        2 0.47834061E+00 0.27728149E+03</pdfrwt>
<totfact> 0.79411477E+02</totfact>
</mgrwt>
</event>
<event>
 5    0  0.3275920E+000  0.2749673E+03  0.7546771E-02  0.1098470E+00
          2   -1    0    0  503    0 -0.00000000000E+00  0.00000000000E+00  0.14483157897E+04  0.14483157897E+04  0.00000000000E+00 0.  1.
         21   -1    0    0  501  502  0.00000000000E+00 -0.00000000000E+00 -0.63640808676E+02  0.63640808676E+02  0.00000000000E+00 0.  1.
         25    1    1    2    0    0 -0.17101196812E+03 -0.19186099396E+03  0.62597421440E+03  0.68813112946E+03  0.12500000000E+03 0.  0.
         21    1    1    2  503  502  0.25810108450E+02  0.44485255919E+01  0.35271195141E+03  0.35368301025E+03  0.00000000000E+00 0.  1.
          2    1    1    2  501    0  0.14520185967E+03  0.18741246837E+03  0.40598881526E+03  0.47014245870E+03  0.00000000000E+00 0.  1.
<mgrwt>
<rscale>  4 0.27496734E+03</rscale>
<asrwt>0</asrwt>
<pdfrwt beam="1">  1       21 0.97908947E-02 0.27496734E+03</pdfrwt>
<pdfrwt beam="2">  1        2 0.22281779E+00 0.27496734E+03</pdfrwt>
<totfact> 0.15394075E+04</totfact>
</mgrwt>
</event>
<event>
 5    0  0.3275920E+000  0.2779581E+03  0.7546771E-02  0.1096809E+00
          2   -1    0    0  503    0 -0.00000000000E+00  0.00000000000E+00  0.19262830962E+04  0.19262830962E+04  0.00000000000E+00 0.  1.
         21   -1    0    0  501  502  0.00000000000E+00 -0.00000000000E+00 -0.10127778621E+03  0.10127778621E+03  0.00000000000E+00 0.  1.
         25    1    1    2    0    0  0.97160008350E+02 -0.22846368964E+03  0.11923128046E+03  0.30245135633E+03  0.12500000000E+03 0.  0.
         21    1    1    2  503  502 -0.25587165881E+02  0.96925319968E+01  0.18768317731E+03  0.18966713811E+03  0.00000000000E+00 0. -1.
          2    1    1    2  501    0 -0.71572842469E+02  0.21877115765E+03  0.15180908522E+04  0.15354423879E+04  0.00000000000E+00 0.  1.
<mgrwt>
<rscale>  4 0.27795813E+03</rscale>
<asrwt>0</asrwt>
<pdfrwt beam="1">  1       21 0.15581199E-01 0.27795813E+03</pdfrwt>
<pdfrwt beam="2">  1        2 0.29635122E+00 0.27795813E+03</pdfrwt>
<totfact> 0.37045239E+03</totfact>
</mgrwt>
</event>
<event>
 5    0  0.3275920E+000  0.2592486E+03  0.7546771E-02  0.1107596E+00
         21   -1    0    0  501  502  0.00000000000E+00  0.00000000000E+00  0.49063259446E+03  0.49063259446E+03  0.00000000000E+00 0. -1.
          2   -1    0    0  503    0 -0.00000000000E+00 -0.00000000000E+00 -0.75998614018E+03  0.75998614018E+03  0.00000000000E+00 0. -1.
         25    1    1    2    0    0  0.17975299664E+01 -0.20646113660E+03  0.42253000856E+03  0.48660665858E+03  0.12500000000E+03 0.  0.
         21    1    1    2  503  502 -0.35122110262E+02 -0.19148909953E+02 -0.50678779751E+01  0.40322782256E+02  0.00000000000E+00 0. -1.
          2    1    1    2  501    0  0.33324580296E+02  0.22561004655E+03 -0.68681567630E+03  0.72368929381E+03  0.00000000000E+00 0. -1.
<mgrwt>
<rscale>  4 0.25924858E+03</rscale>
<asrwt>0</asrwt>
<pdfrwt beam="1">  1       21 0.75481937E-01 0.25924858E+03</pdfrwt>
<pdfrwt beam="2">  1        2 0.11692095E+00 0.25924858E+03</pdfrwt>
<totfact> 0.72348769E+02</totfact>
</mgrwt>
</event>
