<event>
 5    0  0.1911311E+001  0.2413717E+03  0.7546771E-02  0.1118882E+00
         21   -1    0    0  503  501  0.00000000000E+00  0.00000000000E+00  0.30339118418E+03  0.30339118418E+03  0.00000000000E+00 0. -1.
         21   -1    0    0  501  502 -0.00000000000E+00 -0.00000000000E+00 -0.20312505497E+03  0.20312505497E+03  0.00000000000E+00 0. -1.
         25    1    1    2    0    0  0.10093733835E+03  0.18013039148E+03  0.13200676331E+03  0.27511104988E+03  0.12500000000E+03 0.  0.
         21    1    1    2  503  504 -0.56199596595E+02 -0.29104417411E+02 -0.37905199458E+02  0.73771714879E+02  0.00000000000E+00 0. -1.
         21    1    1    2  504  502 -0.44737741757E+02 -0.15102597407E+03  0.61645653550E+01  0.15763347438E+03  0.00000000000E+00 0. -1.
<mgrwt>
<rscale>  4 0.24137171E+03</rscale>
<asrwt>0</asrwt>
<pdfrwt beam="1">  1       21 0.46675567E-01 0.24137171E+03</pdfrwt>
<pdfrwt beam="2">  1       21 0.31250008E-01 0.24137171E+03</pdfrwt>
<totfact> 0.42262956E+04</totfact>
</mgrwt>
</event>
<event>
 5    0  0.1911311E+001  0.2506610E+03  0.7546771E-02  0.1112888E+00
         21   -1    0    0  504  501  0.00000000000E+00  0.00000000000E+00  0.18349830349E+03  0.18349830349E+03  0.00000000000E+00 0.  1.
         21   -1    0    0  503  502 -0.00000000000E+00 -0.00000000000E+00 -0.75225107931E+03  0.75225107931E+03  0.00000000000E+00 0.  1.
         25    1    1    2    0    0 -0.78169321431E+02 -0.22369079881E+03 -0.42316935498E+03  0.50084460592E+03  0.12500000000E+03 0.  0.
         21    1    1    2  503  501  0.13933770243E+03  0.15216999360E+03 -0.22964404711E+03  0.30871846502E+03  0.00000000000E+00 0.  1.
         21    1    1    2  504  502 -0.61168380996E+02  0.71520805215E+02  0.84060626268E+02  0.12618631186E+03  0.00000000000E+00 0.  1.
<mgrwt>
<rscale>  4 0.25066099E+03</rscale>
<asrwt>0</asrwt>
<pdfrwt beam="1">  1       21 0.28230507E-01 0.25066099E+03</pdfrwt>
<pdfrwt beam="2">  1       21 0.11573094E+00 0.25066099E+03</pdfrwt>
<totfact> 0.66501870E+03</totfact>
</mgrwt>
</event>
<event>
 5    0  0.1911311E+001  0.2227536E+03  0.7546771E-02  0.1131847E+00
         21   -1    0    0  502  501  0.00000000000E+00  0.00000000000E+00  0.96002954717E+02  0.96002954717E+02  0.00000000000E+00 0.  1.
         21   -1    0    0  504  502 -0.00000000000E+00 -0.00000000000E+00 -0.81781539088E+03  0.81781539088E+03  0.00000000000E+00 0.  1.
         25    1    1    2    0    0 -0.20201080321E+03  0.10594115443E+03 -0.53471081699E+03  0.59461966889E+03  0.12500000000E+03 0.  0.
         21    1    1    2  503  501  0.16116531268E+03 -0.67277973602E+02 -0.67871085218E+02  0.18736880197E+03  0.00000000000E+00 0.  1.
         21    1    1    2  504  503  0.40845490529E+02 -0.38663180830E+02 -0.11923053395E+03  0.13182987474E+03  0.00000000000E+00 0. -1.
<mgrwt>
<rscale>  4 0.22275360E+03</rscale>
<asrwt>0</asrwt>
<pdfrwt beam="1">  1       21 0.14769685E-01 0.22275360E+03</pdfrwt>
<pdfrwt beam="2">  1       21 0.12581776E+00 0.22275360E+03</pdfrwt>
<totfact> 0.18580220E+04</totfact>
</mgrwt>
</event>
<event>
 5    0  0.1911311E+001  0.2229973E+03  0.7546771E-02  0.1131668E+00
         21   -1    0    0  503  501  0.00000000000E+00  0.00000000000E+00  0.22642622383E+03  0.22642622383E+03  0.00000000000E+00 0.  1.
         21   -1    0    0  504  502 -0.00000000000E+00 -0.00000000000E+00 -0.81106334730E+03  0.81106334730E+03  0.00000000000E+00 0.  1.
         25    1    1    2    0    0  0.18234857439E+03  0.13503578127E+03 -0.48099161793E+03  0.54631822349E+03  0.12500000000E+03 0.  0.
         21    1    1    2  503  502  0.48016847430E-01 -0.11575838095E+03 -0.23743320889E+03  0.26414869628E+03  0.00000000000E+00 0.  1.
         21    1    1    2  504  501 -0.18239659124E+03 -0.19277400316E+02  0.13378770334E+03  0.22702265135E+03  0.00000000000E+00 0.  1.
<mgrwt>
<rscale>  4 0.22299730E+03</rscale>
<asrwt>0</asrwt>
<pdfrwt beam="1">  1       21 0.34834803E-01 0.22299730E+03</pdfrwt>
<pdfrwt beam="2">  1       21 0.12477898E+00 0.22299730E+03</pdfrwt>
<totfact> 0.37134100E+03</totfact>
</mgrwt>
</event>
<event>
 5    0  0.3917569E+001  0.3783936E+03  0.7546771E-02  0.1051529E+00
         21   -1    0    0  503  501  0.00000000000E+00  0.00000000000E+00  0.12630727087E+04  0.12630727087E+04  0.00000000000E+00 0.  1.
         21   -1    0    0  504  502 -0.00000000000E+00 -0.00000000000E+00 -0.15252535259E+03  0.15252535259E+03  0.00000000000E+00 0.  1.
         25    1    1    2    0    0  0.15644998104E+03  0.33307182372E+03  0.64531771046E+03  0.75330829264E+03  0.12500000000E+03 0.  0.
         21    1    1    2  503  502 -0.16534007093E+03 -0.31118059105E+03  0.21891119432E+03  0.41484070473E+03  0.00000000000E+00 0.  1.
         21    1    1    2  504  501  0.88900898878E+01 -0.21891232670E+02  0.24631845136E+03  0.24744906394E+03  0.00000000000E+00 0. -1.
<mgrwt>
<rscale>  4 0.37839358E+03</rscale>
<asrwt>0</asrwt>
<pdfrwt beam="1">  1       21 0.19431887E+00 0.37839358E+03</pdfrwt>
<pdfrwt beam="2">  1       21 0.23465440E-01 0.37839358E+03</pdfrwt>
<totfact> 0.21880382E+03</totfact>
</mgrwt>
</event>
