<event>
 5    0  0.1911311E+001  0.2752059E+03  0.7546771E-02  0.1098337E+00
         21   -1    0    0  503  501  0.00000000000E+00  0.00000000000E+00  0.73778842480E+02  0.73778842480E+02  0.00000000000E+00 0.  1.
         21   -1    0    0  504  502 -0.00000000000E+00 -0.00000000000E+00 -0.13763092118E+04  0.13763092118E+04  0.00000000000E+00 0.  1.
         25    1    1    2    0    0  0.33960059315E+02  0.26253337307E+03 -0.69187830757E+03  0.75126403487E+03  0.12500000000E+03 0.  0.
         21    1    1    2  503  502 -0.51420144167E+02 -0.25544246809E+02 -0.31164385069E+03  0.31688867043E+03  0.00000000000E+00 0. -1.
         21    1    1    2  504  501  0.17460084851E+02 -0.23698912626E+03 -0.29900821109E+03  0.38193534902E+03  0.00000000000E+00 0.  1.
<mgrwt>
<rscale>  4 0.27520588E+03</rscale>
<asrwt>0</asrwt>
<pdfrwt beam="1">  1       21 0.11350591E-01 0.27520588E+03</pdfrwt>
<pdfrwt beam="2">  1       21 0.21173988E+00 0.27520588E+03</pdfrwt>
<totfact> 0.68805896E+03</totfact>
</mgrwt>
</event>
<event>
 5    0  0.1911311E+001  0.2570382E+03  0.7546771E-02  0.1108936E+00
         21   -1    0    0  504  501  0.00000000000E+00  0.00000000000E+00  0.53851519096E+03  0.53851519096E+03  0.00000000000E+00 0.  1.
         21   -1    0    0  503  502 -0.00000000000E+00 -0.00000000000E+00 -0.43766765958E+03  0.43766765958E+03  0.00000000000E+00 0.  1.
         25    1    1    2    0    0  0.14906265224E+03 -0.31472014301E+03  0.17457445784E+03  0.40910840133E+03  0.12500000000E+03 0.  0.
         21    1    1    2  503  501 -0.10254346385E+03  0.18221904315E+03 -0.26009655422E+03  0.33372018097E+03  0.00000000000E+00 0.  1.
         21    1    1    2  504  502 -0.46519188393E+02  0.13250109985E+03  0.18636962777E+03  0.23335426824E+03  0.00000000000E+00 0.  1.
<mgrwt>
<rscale>  4 0.25703824E+03</rscale>
<asrwt>0</asrwt>
<pdfrwt beam="1">  1       21 0.82848491E-01 0.25703824E+03</pdfrwt>
<pdfrwt beam="2">  1       21 0.67333486E-01 0.25703824E+03</pdfrwt>
<totfact> 0.24389503E+03</totfact>
</mgrwt>
</event>
<event>
 5    0  0.1911311E+001  0.2802832E+03  0.7546771E-02  0.1095534E+00
         21   -1    0    0  504  501  0.00000000000E+00  0.00000000000E+00  0.27863052374E+03  0.27863052374E+03  0.00000000000E+00 0.  1.
         21   -1    0    0  501  502 -0.00000000000E+00 -0.00000000000E+00 -0.31688158614E+03  0.31688158614E+03  0.00000000000E+00 0.  1.
         25    1    1    2    0    0  0.19334729639E+02 -0.24120006839E+03  0.47171642882E+02  0.27640815591E+03  0.12500000000E+03 0.  0.
         21    1    1    2  503  502 -0.97166741587E+01  0.26254616489E+03 -0.37000554072E+02  0.26531856976E+03  0.00000000000E+00 0.  1.
         21    1    1    2  504  503 -0.96180554800E+01 -0.21346096503E+02 -0.48422151209E+02  0.53785384212E+02  0.00000000000E+00 0.  1.
<mgrwt>
<rscale>  4 0.28028317E+03</rscale>
<asrwt>0</asrwt>
<pdfrwt beam="1">  1       21 0.42866235E-01 0.28028317E+03</pdfrwt>
<pdfrwt beam="2">  1       21 0.48751013E-01 0.28028317E+03</pdfrwt>
<totfact> 0.20100322E+04</totfact>
</mgrwt>
</event>
<event>
 5    0  0.1911311E+001  0.2240392E+03  0.7546771E-02  0.1130907E+00
         21   -1    0    0  504  501  0.00000000000E+00  0.00000000000E+00  0.73400501049E+03  0.73400501049E+03  0.00000000000E+00 0. -1.
         21   -1    0    0  503  502 -0.00000000000E+00 -0.00000000000E+00 -0.12893765411E+03  0.12893765411E+03  0.00000000000E+00 0. -1.
         25    1    1    2    0    0  0.23001370195E+03  0.11903484907E+03  0.38265118160E+03  0.47866744736E+03  0.12500000000E+03 0.  0.
         21    1    1    2  503  501 -0.11847367051E+03 -0.94845798171E+02  0.22347826917E+03  0.27013750725E+03  0.00000000000E+00 0. -1.
         21    1    1    2  504  502 -0.11154003144E+03 -0.24189050899E+02 -0.10620943994E+01  0.11413770999E+03  0.00000000000E+00 0. -1.
<mgrwt>
<rscale>  4 0.22403923E+03</rscale>
<asrwt>0</asrwt>
<pdfrwt beam="1">  1       21 0.11292385E+00 0.22403923E+03</pdfrwt>
<pdfrwt beam="2">  1       21 0.19836563E-01 0.22403923E+03</pdfrwt>
<totfact> 0.14075907E+04</totfact>
</mgrwt>
</event>
<event>
 5    0  0.2070934E+001  0.2576181E+03  0.7546771E-02  0.1108583E+00
         21   -1    0    0  502  501  0.00000000000E+00  0.00000000000E+00  0.26696998725E+04  0.26696998725E+04  0.00000000000E+00 0.  1.
         21   -1    0    0  504  502 -0.00000000000E+00 -0.00000000000E+00 -0.66879902877E+02  0.66879902877E+02  0.00000000000E+00 0. -1.
         25    1    1    2    0    0  0.20997068758E+03  0.14254042030E+03  0.20508224830E+04  0.20702423331E+04  0.12500000000E+03 0.  0.
         21    1    1    2  503  501 -0.36028387989E+02 -0.41267070659E+01  0.38900398228E+03  0.39069063552E+03  0.00000000000E+00 0.  1.
         21    1    1    2  504  503 -0.17394229959E+03 -0.13841371323E+03  0.16299350429E+03  0.27564680669E+03  0.00000000000E+00 0. -1.
<mgrwt>
<rscale>  4 0.25761809E+03</rscale>
<asrwt>0</asrwt>
<pdfrwt beam="1">  1       21 0.41072297E+00 0.25761809E+03</pdfrwt>
<pdfrwt beam="2">  1       21 0.10289218E-01 0.25761809E+03</pdfrwt>
<totfact> 0.52581315E+02</totfact>
</mgrwt>
</event>
<event>
 5    0  0.2353379E+001  0.2637066E+03  0.7546771E-02  0.1104936E+00
         21   -1    0    0  503  501  0.00000000000E+00  0.00000000000E+00  0.22066729765E+03  0.22066729765E+03  0.00000000000E+00 0.  1.
         21   -1    0    0  504  502 -0.00000000000E+00 -0.00000000000E+00 -0.51631006271E+03  0.51631006271E+03  0.00000000000E+00 0.  1.
         25    1    1    2    0    0  0.25048003644E+03  0.10570405777E+02 -0.36690345308E+03  0.46162227634E+03  0.12500000000E+03 0.  0.
         21    1    1    2  503  502 -0.21801449197E+02 -0.16331227259E+02 -0.14739436077E+02  0.30971973569E+02  0.00000000000E+00 0. -1.
         21    1    1    2  504  501 -0.22867858724E+03  0.57608214820E+01  0.86000124091E+02  0.24438311045E+03  0.00000000000E+00 0.  1.
<mgrwt>
<rscale>  4 0.26370664E+03</rscale>
<asrwt>0</asrwt>
<pdfrwt beam="1">  1       21 0.33948815E-01 0.26370664E+03</pdfrwt>
<pdfrwt beam="2">  1       21 0.79432317E-01 0.26370664E+03</pdfrwt>
<totfact> 0.11198145E+04</totfact>
</mgrwt>
</event>
<event>
 5    0  0.1926260E+001  0.2807971E+03  0.7546771E-02  0.1095254E+00
         21   -1    0    0  504  501  0.00000000000E+00  0.00000000000E+00  0.46136275458E+03  0.46136275458E+03  0.00000000000E+00 0.  1.
         21   -1    0    0  503  502 -0.00000000000E+00 -0.00000000000E+00 -0.33355113055E+03  0.33355113055E+03  0.00000000000E+00 0.  1.
         25    1    1    2    0    0 -0.96818958865E+02 -0.23205189960E+03  0.35151805556E+03  0.44990214302E+03  0.12500000000E+03 0.  0.
         21    1    1    2  503  501  0.93282164374E+02  0.20280515482E+03 -0.22301665164E+03  0.31554384786E+03  0.00000000000E+00 0.  1.
         21    1    1    2  504  502  0.35367944904E+01  0.29246744784E+02 -0.68977988901E+00  0.29467894259E+02  0.00000000000E+00 0. -1.
<mgrwt>
<rscale>  4 0.28079707E+03</rscale>
<asrwt>0</asrwt>
<pdfrwt beam="1">  1       21 0.70978885E-01 0.28079707E+03</pdfrwt>
<pdfrwt beam="2">  1       21 0.51315559E-01 0.28079707E+03</pdfrwt>
<totfact> 0.61313707E+03</totfact>
</mgrwt>
</event>
<event>
 5    0  0.1911311E+001  0.2883259E+03  0.7546771E-02  0.1091226E+00
         21   -1    0    0  502  501  0.00000000000E+00  0.00000000000E+00  0.59461785878E+03  0.59461785878E+03  0.00000000000E+00 0. -1.
         21   -1    0    0  504  502 -0.00000000000E+00 -0.00000000000E+00 -0.23106025835E+03  0.23106025835E+03  0.00000000000E+00 0. -1.
         25    1    1    2    0    0  0.97164702587E+01  0.29216192386E+03  0.71542096637E+02  0.32587769353E+03  0.12500000000E+03 0.  0.
         21    1    1    2  503  501  0.29033520353E+01 -0.24961423936E+03  0.34805266642E+03  0.42831805536E+03  0.00000000000E+00 0. -1.
         21    1    1    2  504  503 -0.12619822294E+02 -0.42547684502E+02 -0.56037162632E+02  0.71482368225E+02  0.00000000000E+00 0. -1.
<mgrwt>
<rscale>  4 0.28832592E+03</rscale>
<asrwt>0</asrwt>
<pdfrwt beam="1">  1       21 0.91479670E-01 0.28832592E+03</pdfrwt>
<pdfrwt beam="2">  1       21 0.35547732E-01 0.28832592E+03</pdfrwt>
<totfact> 0.72766948E+03</totfact>
</mgrwt>
</event>
<event>
 5    0  0.1911311E+001  0.2496506E+03  0.7546771E-02  0.1113526E+00
         21   -1    0    0  503  501  0.00000000000E+00  0.00000000000E+00  0.12126104650E+03  0.12126104650E+03  0.00000000000E+00 0.  1.
         21   -1    0    0  504  502 -0.00000000000E+00 -0.00000000000E+00 -0.59754147751E+03  0.59754147751E+03  0.00000000000E+00 0.  1.
         25    1    1    2    0    0 -0.40318151806E+02  0.21369254467E+03 -0.39006226411E+03  0.46374953034E+03  0.12500000000E+03 0.  0.
         21    1    1    2  503  502  0.15180936438E+02 -0.21380549870E+03 -0.82354301087E+02  0.22962030183E+03  0.00000000000E+00 0.  1.
         21    1    1    2  504  501  0.25137215368E+02  0.11295402750E+00 -0.38638658163E+01  0.25432691838E+02  0.00000000000E+00 0.  1.
<mgrwt>
<rscale>  4 0.24965065E+03</rscale>
<asrwt>0</asrwt>
<pdfrwt beam="1">  1       21 0.18655546E-01 0.24965065E+03</pdfrwt>
<pdfrwt beam="2">  1       21 0.91929457E-01 0.24965065E+03</pdfrwt>
<totfact> 0.25493091E+04</totfact>
</mgrwt>
</event>
<event>
 5    0  0.1911311E+001  0.2633828E+03  0.7546771E-02  0.1105128E+00
         21   -1    0    0  502  501  0.00000000000E+00  0.00000000000E+00  0.25932472485E+04  0.25932472485E+04  0.00000000000E+00 0. -1.
         21   -1    0    0  504  502 -0.00000000000E+00 -0.00000000000E+00 -0.24450909409E+02  0.24450909409E+02  0.00000000000E+00 0. -1.
         25    1    1    2    0    0 -0.15905478663E+03 -0.16866259367E+03  0.12823804216E+04  0.13091485941E+04  0.12500000000E+03 0.  0.
         21    1    1    2  503  501  0.11126982100E+03  0.15300305692E+03  0.99459174700E+03  0.10124246400E+04  0.00000000000E+00 0. -1.
         21    1    1    2  504  503  0.47784965634E+02  0.15659536750E+02  0.29182417050E+03  0.29612492384E+03  0.00000000000E+00 0. -1.
<mgrwt>
<rscale>  4 0.26338279E+03</rscale>
<asrwt>0</asrwt>
<pdfrwt beam="1">  1       21 0.39896090E+00 0.26338279E+03</pdfrwt>
<pdfrwt beam="2">  1       21 0.37616804E-02 0.26338279E+03</pdfrwt>
<totfact> 0.35311503E+03</totfact>
</mgrwt>
</event>
<event>
 5    0  0.1911311E+001  0.3055581E+03  0.7546771E-02  0.1082495E+00
         21   -1    0    0  502  501  0.00000000000E+00  0.00000000000E+00  0.24021878025E+03  0.24021878025E+03  0.00000000000E+00 0. -1.
         21   -1    0    0  504  502 -0.00000000000E+00 -0.00000000000E+00 -0.65006438990E+03  0.65006438990E+03  0.00000000000E+00 0. -1.
         25    1    1    2    0    0  0.29050221598E+03 -0.62248602435E+02 -0.37468164209E+03  0.49424463468E+03  0.12500000000E+03 0.  0.
         21    1    1    2  503  501 -0.26829400272E+03  0.57579732690E+02  0.74269839368E+02  0.28427646148E+03  0.00000000000E+00 0. -1.
         21    1    1    2  504  503 -0.22208213259E+02  0.46688697453E+01 -0.10943380693E+03  0.11176207398E+03  0.00000000000E+00 0. -1.
<mgrwt>
<rscale>  4 0.30555810E+03</rscale>
<asrwt>0</asrwt>
<pdfrwt beam="1">  1       21 0.36956735E-01 0.30555810E+03</pdfrwt>
<pdfrwt beam="2">  1       21 0.10000991E+00 0.30555810E+03</pdfrwt>
<totfact> 0.53985288E+03</totfact>
</mgrwt>
</event>
