<event>
 5    0  0.1911311E+001  0.2616844E+03  0.7546771E-02  0.1106135E+00
         21   -1    0    0  502  501  0.00000000000E+00  0.00000000000E+00  0.22036658414E+03  0.22036658414E+03  0.00000000000E+00 0.  1.
         21   -1    0    0  504  502 -0.00000000000E+00 -0.00000000000E+00 -0.66512953444E+03  0.66512953444E+03  0.00000000000E+00 0.  1.
         25    1    1    2    0    0  0.14064568345E+03  0.21903822849E+03 -0.39914386230E+03  0.49264569076E+03  0.12500000000E+03 0.  0.
         21    1    1    2  503  501 -0.10829779832E+03 -0.19715337977E+03  0.97012815469E+02  0.24496806861E+03  0.00000000000E+00 0.  1.
         21    1    1    2  504  503 -0.32347885132E+02 -0.21884848721E+02 -0.14263190347E+03  0.14788235920E+03  0.00000000000E+00 0. -1.
<mgrwt>
<rscale>  4 0.26168438E+03</rscale>
<asrwt>0</asrwt>
<pdfrwt beam="1">  1       21 0.33902551E-01 0.26168438E+03</pdfrwt>
<pdfrwt beam="2">  1       21 0.10232762E+00 0.26168438E+03</pdfrwt>
<totfact> 0.62181361E+03</totfact>
</mgrwt>
</event>
<event>
 5    0  0.1911311E+001  0.2049966E+03  0.7546771E-02  0.1145591E+00
         21   -1    0    0  504  501  0.00000000000E+00  0.00000000000E+00  0.62705357218E+03  0.62705357218E+03  0.00000000000E+00 0.  1.
         21   -1    0    0  503  502 -0.00000000000E+00 -0.00000000000E+00 -0.71108479903E+03  0.71108479903E+03  0.00000000000E+00 0.  1.
         25    1    1    2    0    0  0.14884888891E+03 -0.14469505667E+03  0.53387387065E+03  0.58629255574E+03  0.12500000000E+03 0.  0.
         21    1    1    2  503  501 -0.10009741211E+03  0.12702534412E+03 -0.66342090543E+03  0.68284861260E+03  0.00000000000E+00 0.  1.
         21    1    1    2  504  502 -0.48751476807E+02  0.17669712549E+02  0.45515807938E+02  0.68997202876E+02  0.00000000000E+00 0.  1.
<mgrwt>
<rscale>  4 0.20499664E+03</rscale>
<asrwt>0</asrwt>
<pdfrwt beam="1">  1       21 0.96469781E-01 0.20499664E+03</pdfrwt>
<pdfrwt beam="2">  1       21 0.10939766E+00 0.20499664E+03</pdfrwt>
<totfact> 0.58362390E+02</totfact>
</mgrwt>
</event>
<event>
 5    0  0.1911311E+001  0.2263299E+03  0.7546771E-02  0.1129250E+00
         21   -1    0    0  504  501  0.00000000000E+00  0.00000000000E+00  0.23726291503E+04  0.23726291503E+04  0.00000000000E+00 0. -1.
         21   -1    0    0  503  502 -0.00000000000E+00 -0.00000000000E+00 -0.24167951727E+02  0.24167951727E+02  0.00000000000E+00 0. -1.
         25    1    1    2    0    0  0.12571639528E+03  0.15827021984E+03  0.10109146404E+04  0.10384736321E+04  0.12500000000E+03 0.  0.
         21    1    1    2  503  501 -0.10500692016E+03 -0.14425330520E+03  0.77714748055E+03  0.79736671354E+03  0.00000000000E+00 0. -1.
         21    1    1    2  504  502 -0.20709475121E+02 -0.14016914648E+02  0.56039907766E+03  0.56095675635E+03  0.00000000000E+00 0. -1.
<mgrwt>
<rscale>  4 0.22632989E+03</rscale>
<asrwt>0</asrwt>
<pdfrwt beam="1">  1       21 0.36501969E+00 0.22632989E+03</pdfrwt>
<pdfrwt beam="2">  1       21 0.37181483E-02 0.22632989E+03</pdfrwt>
<totfact> 0.60569339E+03</totfact>
</mgrwt>
</event>
<event>
 5    0  0.1911311E+001  0.2220218E+03  0.7546771E-02  0.1132385E+00
         21   -1    0    0  502  501  0.00000000000E+00  0.00000000000E+00  0.39940394487E+03  0.39940394487E+03  0.00000000000E+00 0.  1.
         21   -1    0    0  504  502 -0.00000000000E+00 -0.00000000000E+00 -0.17276467520E+03  0.17276467520E+03  0.00000000000E+00 0.  1.
         25    1    1    2    0    0 -0.20120506973E+01 -0.22045042638E+03  0.20577921727E+03  0.32645447630E+03  0.12500000000E+03 0.  0.
         21    1    1    2  503  501 -0.84338327239E+01  0.15218276038E+03  0.62875080648E+02  0.16487570427E+03  0.00000000000E+00 0.  1.
         21    1    1    2  504  503  0.10445883421E+02  0.68267665995E+02 -0.42015028249E+02  0.80838439493E+02  0.00000000000E+00 0.  1.
<mgrwt>
<rscale>  4 0.22202179E+03</rscale>
<asrwt>0</asrwt>
<pdfrwt beam="1">  1       21 0.61446760E-01 0.22202179E+03</pdfrwt>
<pdfrwt beam="2">  1       21 0.26579181E-01 0.22202179E+03</pdfrwt>
<totfact> 0.32652713E+04</totfact>
</mgrwt>
</event>
