<event>
 5    0  0.2917107E+000  0.2447882E+03  0.7546771E-02  0.1116644E+00
          2   -1    0    0  502    0  0.00000000000E+00  0.00000000000E+00  0.70793119484E+03  0.70793119484E+03  0.00000000000E+00 0.  1.
          1   -1    0    0  501    0 -0.00000000000E+00 -0.00000000000E+00 -0.25902771893E+03  0.25902771893E+03  0.00000000000E+00 0.  1.
         25    1    1    2    0    0 -0.50327965961E+02  0.22328568709E+03 -0.75077081949E+02  0.27138712286E+03  0.12500000000E+03 0.  0.
          2    1    1    2  501    0  0.40771317995E+02 -0.31854550808E+02  0.49969882551E+03  0.50237031062E+03  0.00000000000E+00 0.  1.
          1    1    1    2  502    0  0.95566479656E+01 -0.19143113629E+03  0.24281732339E+02  0.19320148029E+03  0.00000000000E+00 0.  1.
<mgrwt>
<rscale>  4 0.24478818E+03</rscale>
<asrwt>0</asrwt>
<pdfrwt beam="1">  1        2 0.10891249E+00 0.24478818E+03</pdfrwt>
<pdfrwt beam="2">  1        1 0.39850419E-01 0.24478818E+03</pdfrwt>
<totfact> 0.59637977E+02</totfact>
</mgrwt>
</event>
<event>
 5    0  0.2917107E+000  0.2756510E+03  0.7546771E-02  0.1098088E+00
          1   -1    0    0  501    0 -0.00000000000E+00  0.00000000000E+00  0.12319882332E+04  0.12319882332E+04  0.00000000000E+00 0.  1.
          2   -1    0    0  502    0  0.00000000000E+00 -0.00000000000E+00 -0.27741627933E+03  0.27741627933E+03  0.00000000000E+00 0. -1.
         25    1    1    2    0    0 -0.29802768940E+03 -0.10503333836E+03 -0.12254287656E+01  0.33982202326E+03  0.12500000000E+03 0.  0.
          2    1    1    2  501    0  0.10858072006E+03  0.19327332807E+03  0.33862072649E+02  0.22425653185E+03  0.00000000000E+00 0. -1.
          1    1    1    2  502    0  0.18944696934E+03 -0.88239989706E+02  0.92193530995E+03  0.94532595738E+03  0.00000000000E+00 0.  1.
<mgrwt>
<rscale>  4 0.27565099E+03</rscale>
<asrwt>0</asrwt>
<pdfrwt beam="1">  1        2 0.42679428E-01 0.27565099E+03</pdfrwt>
<pdfrwt beam="2">  1        1 0.18953665E+00 0.27565099E+03</pdfrwt>
<totfact> 0.17685599E+02</totfact>
</mgrwt>
</event>
<event>
 5    0  0.2917107E+000  0.2937965E+03  0.7546771E-02  0.1088383E+00
          2   -1    0    0  502    0  0.00000000000E+00  0.00000000000E+00  0.13878122627E+04  0.13878122627E+04  0.00000000000E+00 0. -1.
          2   -1    0    0  501    0 -0.00000000000E+00 -0.00000000000E+00 -0.19365905044E+03  0.19365905044E+03  0.00000000000E+00 0. -1.
         25    1    1    2    0    0  0.32011358495E+03 -0.77902462223E+02  0.15268573987E+03  0.38403051448E+03  0.12500000000E+03 0.  0.
          2    1    1    2  501    0 -0.74612162987E+02 -0.29662716431E+00 -0.40721977322E+02  0.85002013448E+02  0.00000000000E+00 0. -1.
          2    1    1    2  502    0 -0.24550142196E+03  0.78199089388E+02  0.10821894497E+04  0.11124387852E+04  0.00000000000E+00 0. -1.
<mgrwt>
<rscale>  4 0.29379648E+03</rscale>
<asrwt>0</asrwt>
<pdfrwt beam="1">  1        2 0.21350957E+00 0.29379648E+03</pdfrwt>
<pdfrwt beam="2">  1        2 0.29793701E-01 0.29379648E+03</pdfrwt>
<totfact> 0.42845722E+02</totfact>
</mgrwt>
</event>
<event>
 5    0  0.2917107E+000  0.2429881E+03  0.7546771E-02  0.1117818E+00
         -1   -1    0    0    0  501 -0.00000000000E+00  0.00000000000E+00  0.24715599574E+03  0.24715599574E+03  0.00000000000E+00 0. -1.
          2   -1    0    0  501    0  0.00000000000E+00 -0.00000000000E+00 -0.12657394788E+04  0.12657394788E+04  0.00000000000E+00 0. -1.
         25    1    1    2    0    0  0.15271158962E+03 -0.14455812678E+03 -0.10221989061E+03  0.26512598450E+03  0.12500000000E+03 0.  0.
          2    1    1    2  502    0 -0.14358464256E+03 -0.82040017555E+02 -0.99430855600E+03  0.10079665761E+04  0.00000000000E+00 0. -1.
         -1    1    1    2    0  502 -0.91269470565E+01  0.22659814434E+03  0.77944963550E+02  0.23980291392E+03  0.00000000000E+00 0. -1.
<mgrwt>
<rscale>  4 0.24298808E+03</rscale>
<asrwt>0</asrwt>
<pdfrwt beam="1">  1        2 0.19472915E+00 0.24298808E+03</pdfrwt>
<pdfrwt beam="2">  1       -1 0.38024000E-01 0.24298808E+03</pdfrwt>
<totfact> 0.14372883E+02</totfact>
</mgrwt>
</event>
<event>
 5    0  0.2917107E+000  0.2275403E+03  0.7546771E-02  0.1128383E+00
          2   -1    0    0  502    0  0.00000000000E+00  0.00000000000E+00  0.10825965295E+04  0.10825965295E+04  0.00000000000E+00 0. -1.
          1   -1    0    0  501    0 -0.00000000000E+00 -0.00000000000E+00 -0.69384570306E+03  0.69384570306E+03  0.00000000000E+00 0.  1.
         25    1    1    2    0    0 -0.39720136761E+02  0.23237836846E+03 -0.37453313972E+03  0.45986679391E+03  0.12500000000E+03 0.  0.
          2    1    1    2  501    0  0.43544161377E+02 -0.18411790767E+03  0.10291202053E+04  0.10463669982E+04  0.00000000000E+00 0. -1.
          1    1    1    2  502    0 -0.38240246157E+01 -0.48260460789E+02 -0.26583623916E+03  0.27020844045E+03  0.00000000000E+00 0.  1.
<mgrwt>
<rscale>  4 0.22754033E+03</rscale>
<asrwt>0</asrwt>
<pdfrwt beam="1">  1        2 0.16655331E+00 0.22754033E+03</pdfrwt>
<pdfrwt beam="2">  1        1 0.10674549E+00 0.22754033E+03</pdfrwt>
<totfact> 0.93376532E+01</totfact>
</mgrwt>
</event>
<event>
 5    0  0.2917107E+000  0.5380106E+03  0.7546771E-02  0.1004308E+00
          1   -1    0    0  501    0 -0.00000000000E+00  0.00000000000E+00  0.11845714536E+04  0.11845714536E+04  0.00000000000E+00 0. -1.
          2   -1    0    0  502    0  0.00000000000E+00 -0.00000000000E+00 -0.34397476268E+04  0.34397476268E+04  0.00000000000E+00 0.  1.
         25    1    1    2    0    0 -0.38405493466E+03  0.43096273527E+03 -0.15136002776E+04  0.16247577889E+04  0.12500000000E+03 0.  0.
          2    1    1    2  501    0  0.36160889883E+03 -0.33461701475E+03 -0.18358580056E+04  0.19008167084E+04  0.00000000000E+00 0.  1.
          1    1    1    2  502    0  0.22446035835E+02 -0.96345720525E+02  0.10942821101E+04  0.10987445831E+04  0.00000000000E+00 0. -1.
<mgrwt>
<rscale>  4 0.53801062E+03</rscale>
<asrwt>0</asrwt>
<pdfrwt beam="1">  1        2 0.52919193E+00 0.53801062E+03</pdfrwt>
<pdfrwt beam="2">  1        1 0.18224177E+00 0.53801062E+03</pdfrwt>
<totfact> 0.15448967E+00</totfact>
</mgrwt>
</event>
<event>
 5    0  0.2917107E+000  0.2706214E+03  0.7546771E-02  0.1100924E+00
          2   -1    0    0  502    0  0.00000000000E+00  0.00000000000E+00  0.11125811619E+04  0.11125811619E+04  0.00000000000E+00 0.  1.
          2   -1    0    0  501    0 -0.00000000000E+00 -0.00000000000E+00 -0.92184417368E+03  0.92184417368E+03  0.00000000000E+00 0. -1.
         25    1    1    2    0    0  0.13383383261E+03  0.15848629923E+03  0.37473331258E+03  0.44618321052E+03  0.12500000000E+03 0.  0.
          2    1    1    2  501    0  0.47862729707E+02  0.31159766571E+02 -0.86057859157E+03  0.86247161357E+03  0.00000000000E+00 0. -1.
          2    1    1    2  502    0 -0.18169656231E+03 -0.18964606580E+03  0.67658226723E+03  0.72577051150E+03  0.00000000000E+00 0.  1.
<mgrwt>
<rscale>  4 0.27062143E+03</rscale>
<asrwt>0</asrwt>
<pdfrwt beam="1">  1        2 0.17116633E+00 0.27062143E+03</pdfrwt>
<pdfrwt beam="2">  1        2 0.14182218E+00 0.27062143E+03</pdfrwt>
<totfact> 0.10338966E+02</totfact>
</mgrwt>
</event>
<event>
 5    0  0.2917107E+000  0.2156670E+03  0.7546771E-02  0.1137155E+00
          2   -1    0    0  502    0  0.00000000000E+00  0.00000000000E+00  0.14786225468E+03  0.14786225468E+03  0.00000000000E+00 0.  1.
          2   -1    0    0  501    0 -0.00000000000E+00 -0.00000000000E+00 -0.23497144464E+04  0.23497144464E+04  0.00000000000E+00 0.  1.
         25    1    1    2    0    0 -0.14323195562E+03 -0.16506888294E+03 -0.58790725798E+02  0.25854299191E+03  0.12500000000E+03 0.  0.
          2    1    1    2  501    0  0.39947125930E+02  0.24694483055E+02  0.32110146547E+02  0.56891579998E+02  0.00000000000E+00 0.  1.
          2    1    1    2  502    0  0.10328482969E+03  0.14037439989E+03 -0.21751716125E+04  0.21821421292E+04  0.00000000000E+00 0.  1.
<mgrwt>
<rscale>  4 0.21566700E+03</rscale>
<asrwt>0</asrwt>
<pdfrwt beam="1">  1        2 0.22748040E-01 0.21566700E+03</pdfrwt>
<pdfrwt beam="2">  1        2 0.36149451E+00 0.21566700E+03</pdfrwt>
<totfact> 0.18344544E+02</totfact>
</mgrwt>
</event>
<event>
 5    0  0.2917107E+000  0.3081100E+03  0.7546771E-02  0.1081255E+00
          2   -1    0    0  502    0  0.00000000000E+00  0.00000000000E+00  0.21479154031E+04  0.21479154031E+04  0.00000000000E+00 0.  1.
         -2   -1    0    0    0  501 -0.00000000000E+00 -0.00000000000E+00 -0.50599949934E+03  0.50599949934E+03  0.00000000000E+00 0. -1.
         25    1    1    2    0    0  0.12949213155E+03 -0.19131670107E+03  0.18699115779E+04  0.18882702670E+04  0.12500000000E+03 0.  0.
          2    1    1    2  502    0  0.27359250697E+02 -0.43883564405E+02  0.22544197153E+03  0.23129716459E+03  0.00000000000E+00 0.  1.
         -2    1    1    2    0  501 -0.15685138224E+03  0.23520026548E+03 -0.45343764569E+03  0.53434747077E+03  0.00000000000E+00 0. -1.
<mgrwt>
<rscale>  4 0.30811000E+03</rscale>
<asrwt>0</asrwt>
<pdfrwt beam="1">  1        2 0.33044852E+00 0.30811000E+03</pdfrwt>
<pdfrwt beam="2">  1       -2 0.77846078E-01 0.30811000E+03</pdfrwt>
<totfact> 0.94068642E+00</totfact>
</mgrwt>
</event>
<event>
 5    0  0.2917107E+000  0.2874658E+03  0.7546771E-02  0.1091680E+00
          2   -1    0    0  501    0  0.00000000000E+00  0.00000000000E+00  0.90204300361E+03  0.90204300361E+03  0.00000000000E+00 0.  1.
         -3   -1    0    0    0  501 -0.00000000000E+00 -0.00000000000E+00 -0.26359634408E+03  0.26359634408E+03  0.00000000000E+00 0. -1.
         25    1    1    2    0    0  0.27035464335E+03 -0.72415323471E+02 -0.13074637120E+03  0.33324949488E+03  0.12500000000E+03 0.  0.
          2    1    1    2  502    0 -0.25532683796E+03  0.30259317197E+02  0.72603121421E+03  0.77021344085E+03  0.00000000000E+00 0.  1.
         -3    1    1    2    0  502 -0.15027805399E+02  0.42156006274E+02  0.43161816516E+02  0.62176411966E+02  0.00000000000E+00 0. -1.
<mgrwt>
<rscale>  4 0.28746577E+03</rscale>
<asrwt>0</asrwt>
<pdfrwt beam="1">  1        2 0.13877585E+00 0.28746577E+03</pdfrwt>
<pdfrwt beam="2">  1       -3 0.40553284E-01 0.28746577E+03</pdfrwt>
<totfact> 0.11452486E+02</totfact>
</mgrwt>
</event>
<event>
 5    0  0.2917107E+000  0.2777410E+03  0.7546771E-02  0.1096929E+00
          1   -1    0    0  501    0 -0.00000000000E+00  0.00000000000E+00  0.16656810196E+04  0.16656810196E+04  0.00000000000E+00 0.  1.
          2   -1    0    0  502    0  0.00000000000E+00 -0.00000000000E+00 -0.80881432685E+03  0.80881432685E+03  0.00000000000E+00 0. -1.
         25    1    1    2    0    0  0.58355863983E+02  0.19619241938E+03 -0.20778810695E+03  0.31732911886E+03  0.12500000000E+03 0.  0.
          2    1    1    2  501    0  0.35476366128E+02  0.35156908335E+02 -0.53541382701E+03  0.53773836287E+03  0.00000000000E+00 0. -1.
          1    1    1    2  502    0 -0.93832230112E+02 -0.23134932772E+03  0.16000686267E+04  0.16194278647E+04  0.00000000000E+00 0.  1.
<mgrwt>
<rscale>  4 0.27774097E+03</rscale>
<asrwt>0</asrwt>
<pdfrwt beam="1">  1        2 0.12443297E+00 0.27774097E+03</pdfrwt>
<pdfrwt beam="2">  1        1 0.25625862E+00 0.27774097E+03</pdfrwt>
<totfact> 0.26731722E+01</totfact>
</mgrwt>
</event>
<event>
 5    0  0.2917107E+000  0.2142763E+03  0.7546771E-02  0.1138224E+00
          3   -1    0    0  501    0 -0.00000000000E+00  0.00000000000E+00  0.17596677398E+03  0.17596677398E+03  0.00000000000E+00 0.  1.
          2   -1    0    0  502    0  0.00000000000E+00 -0.00000000000E+00 -0.35139626771E+04  0.35139626771E+04  0.00000000000E+00 0.  1.
         25    1    1    2    0    0 -0.11959058556E+03  0.17474191276E+03 -0.45538294872E+03  0.51752804196E+03  0.12500000000E+03 0.  0.
          2    1    1    2  501    0  0.29701761483E+02 -0.30239408363E+02 -0.29773350889E+04  0.29776367891E+04  0.00000000000E+00 0.  1.
          3    1    1    2  502    0  0.89888824077E+02 -0.14450250440E+03  0.94722134436E+02  0.19476462005E+03  0.00000000000E+00 0.  1.
<mgrwt>
<rscale>  4 0.21427629E+03</rscale>
<asrwt>0</asrwt>
<pdfrwt beam="1">  1        2 0.54060959E+00 0.21427629E+03</pdfrwt>
<pdfrwt beam="2">  1        3 0.27071814E-01 0.21427629E+03</pdfrwt>
<totfact> 0.83511354E+00</totfact>
</mgrwt>
</event>
<event>
 5    0  0.2917107E+000  0.2658207E+03  0.7546771E-02  0.1103696E+00
          1   -1    0    0  501    0  0.00000000000E+00  0.00000000000E+00  0.22359414766E+04  0.22359414766E+04  0.00000000000E+00 0. -1.
         -2   -1    0    0    0  501 -0.00000000000E+00 -0.00000000000E+00 -0.55921033980E+03  0.55921033980E+03  0.00000000000E+00 0. -1.
         25    1    1    2    0    0 -0.24946319032E+03 -0.64331072365E+02 -0.19260823523E+01  0.28635481486E+03  0.12500000000E+03 0.  0.
          1    1    1    2  502    0  0.24439838338E+02  0.19098783056E+02  0.20618710667E+04  0.20621043535E+04  0.00000000000E+00 0. -1.
         -2    1    1    2    0  502  0.22502335199E+03  0.45232289309E+02 -0.38321384748E+03  0.44669264806E+03  0.00000000000E+00 0. -1.
<mgrwt>
<rscale>  4 0.26582065E+03</rscale>
<asrwt>0</asrwt>
<pdfrwt beam="1">  1        1 0.34399099E+00 0.26582065E+03</pdfrwt>
<pdfrwt beam="2">  1       -2 0.86032361E-01 0.26582065E+03</pdfrwt>
<totfact> 0.25737130E+00</totfact>
</mgrwt>
</event>
<event>
 5    0  0.4669578E+000  0.1851709E+03  0.7546771E-02  0.1162890E+00
          2   -1    0    0  502    0  0.00000000000E+00  0.00000000000E+00  0.20669262767E+04  0.20669262767E+04  0.00000000000E+00 0. -1.
          2   -1    0    0  501    0 -0.00000000000E+00 -0.00000000000E+00 -0.84314190832E+03  0.84314190832E+03  0.00000000000E+00 0.  1.
         25    1    1    2    0    0 -0.47464988923E+02  0.24514315525E+03  0.91517400042E+02  0.29385119746E+03  0.12500000000E+03 0.  0.
          2    1    1    2  501    0  0.31394471889E+02 -0.12935402631E+03 -0.73416172954E+03  0.74613103548E+03  0.00000000000E+00 0.  1.
          2    1    1    2  502    0  0.16070517034E+02 -0.11578912894E+03  0.18664286978E+04  0.18700859520E+04  0.00000000000E+00 0. -1.
<mgrwt>
<rscale>  4 0.18517086E+03</rscale>
<asrwt>0</asrwt>
<pdfrwt beam="1">  1        2 0.31798866E+00 0.18517086E+03</pdfrwt>
<pdfrwt beam="2">  1        2 0.12971414E+00 0.18517086E+03</pdfrwt>
<totfact> 0.37539112E+01</totfact>
</mgrwt>
</event>
<event>
 5    0  0.2917107E+000  0.2771769E+03  0.7546771E-02  0.1097241E+00
          2   -1    0    0  502    0  0.00000000000E+00  0.00000000000E+00  0.32857561659E+04  0.32857561659E+04  0.00000000000E+00 0. -1.
          2   -1    0    0  501    0 -0.00000000000E+00 -0.00000000000E+00 -0.28413661722E+03  0.28413661722E+03  0.00000000000E+00 0. -1.
         25    1    1    2    0    0 -0.19546642150E+03  0.16991360362E+03  0.18851878116E+03  0.34386346924E+03  0.12500000000E+03 0.  0.
          2    1    1    2  501    0  0.25088630959E+03  0.17280409032E+02  0.29668754580E+04  0.29775144897E+04  0.00000000000E+00 0. -1.
          2    1    1    2  502    0 -0.55419888090E+02 -0.18719401265E+03 -0.15377469054E+03  0.24851482415E+03  0.00000000000E+00 0. -1.
<mgrwt>
<rscale>  4 0.27717691E+03</rscale>
<asrwt>0</asrwt>
<pdfrwt beam="1">  1        2 0.50550092E+00 0.27717691E+03</pdfrwt>
<pdfrwt beam="2">  1        2 0.43713328E-01 0.27717691E+03</pdfrwt>
<totfact> 0.25089725E+01</totfact>
</mgrwt>
</event>
<event>
 5    0  0.2917107E+000  0.3198806E+03  0.7546771E-02  0.1075704E+00
          2   -1    0    0  502    0  0.00000000000E+00  0.00000000000E+00  0.26622938369E+04  0.26622938369E+04  0.00000000000E+00 0. -1.
          1   -1    0    0  501    0 -0.00000000000E+00 -0.00000000000E+00 -0.18934482285E+03  0.18934482285E+03  0.00000000000E+00 0. -1.
         25    1    1    2    0    0  0.22620558635E+03  0.13516101442E+03  0.23232389372E+03  0.37287646574E+03  0.12500000000E+03 0.  0.
          2    1    1    2  501    0 -0.27459776660E+03 -0.11806300277E+03  0.23441942778E+04  0.23631736327E+04  0.00000000000E+00 0. -1.
          1    1    1    2  502    0  0.48392180253E+02 -0.17098011652E+02 -0.10356915752E+03  0.11558856129E+03  0.00000000000E+00 0. -1.
<mgrwt>
<rscale>  4 0.31988059E+03</rscale>
<asrwt>0</asrwt>
<pdfrwt beam="1">  1        2 0.40958364E+00 0.31988059E+03</pdfrwt>
<pdfrwt beam="2">  1        1 0.29129975E-01 0.31988059E+03</pdfrwt>
<totfact> 0.68637396E+01</totfact>
</mgrwt>
</event>
<event>
 5    0  0.2917107E+000  0.2947432E+03  0.7546771E-02  0.1087898E+00
          1   -1    0    0  501    0 -0.00000000000E+00  0.00000000000E+00  0.84497551884E+03  0.84497551884E+03  0.00000000000E+00 0.  1.
          2   -1    0    0  502    0  0.00000000000E+00 -0.00000000000E+00 -0.54599483711E+03  0.54599483711E+03  0.00000000000E+00 0.  1.
         25    1    1    2    0    0  0.27491813926E+03  0.13920545968E+03  0.20196551230E+03  0.38906710406E+03  0.12500000000E+03 0.  0.
          2    1    1    2  501    0 -0.24485712024E+03 -0.92703451349E+02 -0.41294241974E+03  0.48894823985E+03  0.00000000000E+00 0.  1.
          1    1    1    2  502    0 -0.30061019019E+02 -0.46502008330E+02  0.50995758917E+03  0.51295501205E+03  0.00000000000E+00 0.  1.
<mgrwt>
<rscale>  4 0.29474325E+03</rscale>
<asrwt>0</asrwt>
<pdfrwt beam="1">  1        2 0.83999206E-01 0.29474325E+03</pdfrwt>
<pdfrwt beam="2">  1        1 0.12999623E+00 0.29474325E+03</pdfrwt>
<totfact> 0.16231327E+02</totfact>
</mgrwt>
</event>
<event>
 5    0  0.2917107E+000  0.3343923E+03  0.7546771E-02  0.1069210E+00
          2   -1    0    0  502    0  0.00000000000E+00  0.00000000000E+00  0.85459995534E+03  0.85459995534E+03  0.00000000000E+00 0. -1.
          3   -1    0    0  501    0 -0.00000000000E+00 -0.00000000000E+00 -0.65070490050E+03  0.65070490050E+03  0.00000000000E+00 0.  1.
         25    1    1    2    0    0  0.96126777370E+02  0.33624253012E+03 -0.25503843043E+02  0.37225642023E+03  0.12500000000E+03 0.  0.
          2    1    1    2  501    0 -0.90041606533E+02 -0.28976124521E+03  0.64605581857E+03  0.71376269925E+03  0.00000000000E+00 0. -1.
          3    1    1    2  502    0 -0.60851708366E+01 -0.46481284912E+02 -0.41665692070E+03  0.41928573636E+03  0.00000000000E+00 0.  1.
<mgrwt>
<rscale>  4 0.33439231E+03</rscale>
<asrwt>0</asrwt>
<pdfrwt beam="1">  1        2 0.13147692E+00 0.33439231E+03</pdfrwt>
<pdfrwt beam="2">  1        3 0.10010845E+00 0.33439231E+03</pdfrwt>
<totfact> 0.18052873E+01</totfact>
</mgrwt>
</event>
<event>
 5    0  0.2917107E+000  0.2821074E+03  0.7546771E-02  0.1094543E+00
         -1   -1    0    0    0  501 -0.00000000000E+00  0.00000000000E+00  0.45439521866E+03  0.45439521866E+03  0.00000000000E+00 0.  1.
          2   -1    0    0  501    0  0.00000000000E+00 -0.00000000000E+00 -0.22295486139E+04  0.22295486139E+04  0.00000000000E+00 0. -1.
         25    1    1    2    0    0  0.19218066965E+03  0.11064579769E+03  0.24530994113E+03  0.35352209203E+03  0.12500000000E+03 0.  0.
          2    1    1    2  502    0 -0.78264133485E+02 -0.24284276444E+03 -0.21160998127E+04  0.21314258843E+04  0.00000000000E+00 0. -1.
         -1    1    1    2    0  502 -0.11391653617E+03  0.13219696675E+03  0.95636476288E+02  0.19899585631E+03  0.00000000000E+00 0.  1.
<mgrwt>
<rscale>  4 0.28210739E+03</rscale>
<asrwt>0</asrwt>
<pdfrwt beam="1">  1        2 0.34300748E+00 0.28210739E+03</pdfrwt>
<pdfrwt beam="2">  1       -1 0.69906957E-01 0.28210739E+03</pdfrwt>
<totfact> 0.13905817E+01</totfact>
</mgrwt>
</event>
<event>
 5    0  0.2917107E+000  0.2162007E+03  0.7546771E-02  0.1136748E+00
          2   -1    0    0  502    0  0.00000000000E+00  0.00000000000E+00  0.16411907658E+04  0.16411907658E+04  0.00000000000E+00 0. -1.
          2   -1    0    0  501    0 -0.00000000000E+00 -0.00000000000E+00 -0.57750462426E+03  0.57750462426E+03  0.00000000000E+00 0.  1.
         25    1    1    2    0    0 -0.21934685251E+03 -0.18970581707E+02  0.58812362728E+02  0.25991694575E+03  0.12500000000E+03 0.  0.
          2    1    1    2  501    0  0.17273379909E+03  0.22416783052E+02  0.14755459708E+04  0.14857911661E+04  0.00000000000E+00 0. -1.
          2    1    1    2  502    0  0.46613053426E+02 -0.34462013451E+01 -0.47067219195E+03  0.47298727819E+03  0.00000000000E+00 0.  1.
<mgrwt>
<rscale>  4 0.21620067E+03</rscale>
<asrwt>0</asrwt>
<pdfrwt beam="1">  1        2 0.25249089E+00 0.21620067E+03</pdfrwt>
<pdfrwt beam="2">  1        2 0.88846866E-01 0.21620067E+03</pdfrwt>
<totfact> 0.96889367E+01</totfact>
</mgrwt>
</event>
<event>
 5    0  0.2917107E+000  0.2328841E+03  0.7546771E-02  0.1124626E+00
          3   -1    0    0  501    0 -0.00000000000E+00  0.00000000000E+00  0.43150228992E+03  0.43150228992E+03  0.00000000000E+00 0.  1.
          2   -1    0    0  502    0  0.00000000000E+00 -0.00000000000E+00 -0.42911802468E+03  0.42911802468E+03  0.00000000000E+00 0. -1.
         25    1    1    2    0    0 -0.17563160732E+03  0.12236190566E+03 -0.53290938776E+02  0.25354254397E+03  0.12500000000E+03 0.  0.
          2    1    1    2  501    0  0.18570949720E+02 -0.97371624211E+01 -0.24703958138E+03  0.24792790741E+03  0.00000000000E+00 0. -1.
          3    1    1    2  502    0  0.15706065760E+03 -0.11262474324E+03  0.30271478539E+03  0.35914986322E+03  0.00000000000E+00 0.  1.
<mgrwt>
<rscale>  4 0.23288407E+03</rscale>
<asrwt>0</asrwt>
<pdfrwt beam="1">  1        2 0.66018157E-01 0.23288407E+03</pdfrwt>
<pdfrwt beam="2">  1        3 0.66384968E-01 0.23288407E+03</pdfrwt>
<totfact> 0.10176973E+02</totfact>
</mgrwt>
</event>
<event>
 5    0  0.2917107E+000  0.2240532E+03  0.7546771E-02  0.1130897E+00
          2   -1    0    0  502    0  0.00000000000E+00  0.00000000000E+00  0.59140872640E+03  0.59140872640E+03  0.00000000000E+00 0. -1.
          2   -1    0    0  501    0 -0.00000000000E+00 -0.00000000000E+00 -0.11062449369E+04  0.11062449369E+04  0.00000000000E+00 0.  1.
         25    1    1    2    0    0 -0.80426847817E+02 -0.22988567510E+03 -0.70802801292E+02  0.28276127411E+03  0.12500000000E+03 0.  0.
          2    1    1    2  501    0  0.69364099043E+02  0.16735772602E+03 -0.91849995944E+03  0.93619557902E+03  0.00000000000E+00 0.  1.
          2    1    1    2  502    0  0.11062748774E+02  0.62527949079E+02  0.47446655020E+03  0.47869681019E+03  0.00000000000E+00 0. -1.
<mgrwt>
<rscale>  4 0.22405320E+03</rscale>
<asrwt>0</asrwt>
<pdfrwt beam="1">  1        2 0.90985960E-01 0.22405320E+03</pdfrwt>
<pdfrwt beam="2">  1        2 0.17019153E+00 0.22405320E+03</pdfrwt>
<totfact> 0.18411940E+02</totfact>
</mgrwt>
</event>
<event>
 5    0  0.2917107E+000  0.4023824E+03  0.7546771E-02  0.1042958E+00
          2   -1    0    0  502    0  0.00000000000E+00  0.00000000000E+00  0.95513627152E+03  0.95513627152E+03  0.00000000000E+00 0.  1.
          2   -1    0    0  501    0 -0.00000000000E+00 -0.00000000000E+00 -0.25873532447E+04  0.25873532447E+04  0.00000000000E+00 0.  1.
         25    1    1    2    0    0  0.63491081080E+02  0.32418552666E+03  0.48617112796E+03  0.60092823093E+03  0.12500000000E+03 0.  0.
          2    1    1    2  501    0 -0.66592147236E+02 -0.37805333617E+03 -0.25135695578E+04  0.25427132676E+04  0.00000000000E+00 0.  1.
          2    1    1    2  502    0  0.31010661562E+01  0.53867809512E+02  0.39518145669E+03  0.39884801770E+03  0.00000000000E+00 0.  1.
<mgrwt>
<rscale>  4 0.40238245E+03</rscale>
<asrwt>0</asrwt>
<pdfrwt beam="1">  1        2 0.14694404E+00 0.40238245E+03</pdfrwt>
<pdfrwt beam="2">  1        2 0.39805434E+00 0.40238245E+03</pdfrwt>
<totfact> 0.14758742E+01</totfact>
</mgrwt>
</event>
<event>
 5    0  0.2917107E+000  0.4749258E+03  0.7546771E-02  0.1020539E+00
          2   -1    0    0  502    0  0.00000000000E+00  0.00000000000E+00  0.46971917337E+03  0.46971917337E+03  0.00000000000E+00 0. -1.
          2   -1    0    0  501    0 -0.00000000000E+00 -0.00000000000E+00 -0.21954918176E+04  0.21954918176E+04  0.00000000000E+00 0. -1.
         25    1    1    2    0    0  0.78816190710E+02 -0.41510617707E+03 -0.74038739890E+03  0.86158205100E+03  0.12500000000E+03 0.  0.
          2    1    1    2  501    0  0.22546672665E+02 -0.57010610394E+02  0.36468510678E+03  0.36980236512E+03  0.00000000000E+00 0. -1.
          2    1    1    2  502    0 -0.10136286338E+03  0.47211678746E+03 -0.13500703521E+04  0.14338265749E+04  0.00000000000E+00 0. -1.
<mgrwt>
<rscale>  4 0.47492578E+03</rscale>
<asrwt>0</asrwt>
<pdfrwt beam="1">  1        2 0.72264487E-01 0.47492578E+03</pdfrwt>
<pdfrwt beam="2">  1        2 0.33776798E+00 0.47492578E+03</pdfrwt>
<totfact> 0.57124510E+01</totfact>
</mgrwt>
</event>
<event>
 5    0  0.2917107E+000  0.2396926E+03  0.7546771E-02  0.1119998E+00
          2   -1    0    0  502    0  0.00000000000E+00  0.00000000000E+00  0.73243793627E+03  0.73243793627E+03  0.00000000000E+00 0. -1.
         -2   -1    0    0    0  501 -0.00000000000E+00 -0.00000000000E+00 -0.34577450717E+03  0.34577450717E+03  0.00000000000E+00 0. -1.
         25    1    1    2    0    0  0.10733365408E+02  0.20347730242E+03 -0.19094125241E+03  0.30594407921E+03  0.12500000000E+03 0.  0.
          2    1    1    2  502    0  0.97652373928E+01 -0.20439252286E+03  0.65811053104E+03  0.68918875088E+03  0.00000000000E+00 0. -1.
         -2    1    1    2    0  501 -0.20498602801E+02  0.91522043729E+00 -0.80505849536E+02  0.83079613352E+02  0.00000000000E+00 0. -1.
<mgrwt>
<rscale>  4 0.23969258E+03</rscale>
<asrwt>0</asrwt>
<pdfrwt beam="1">  1        2 0.11268276E+00 0.23969258E+03</pdfrwt>
<pdfrwt beam="2">  1       -2 0.53196078E-01 0.23969258E+03</pdfrwt>
<totfact> 0.13660334E+02</totfact>
</mgrwt>
</event>
<event>
 5    0  0.2917107E+000  0.2195709E+03  0.7546771E-02  0.1134203E+00
          2   -1    0    0  502    0  0.00000000000E+00  0.00000000000E+00  0.42525389747E+04  0.42525389747E+04  0.00000000000E+00 0. -1.
          1   -1    0    0  501    0 -0.00000000000E+00 -0.00000000000E+00 -0.11625330905E+04  0.11625330905E+04  0.00000000000E+00 0. -1.
         25    1    1    2    0    0 -0.11043606727E+03 -0.22526220361E+03  0.19416127934E+01  0.28029975952E+03  0.12500000000E+03 0.  0.
          2    1    1    2  501    0  0.67675073934E+02  0.53522880047E+02  0.41033093531E+04  0.41042164005E+04  0.00000000000E+00 0. -1.
          1    1    1    2  502    0  0.42760993335E+02  0.17173932356E+03 -0.10152450817E+04  0.10305559052E+04  0.00000000000E+00 0. -1.
<mgrwt>
<rscale>  4 0.21957091E+03</rscale>
<asrwt>0</asrwt>
<pdfrwt beam="1">  1        2 0.65423676E+00 0.21957091E+03</pdfrwt>
<pdfrwt beam="2">  1        1 0.17885125E+00 0.21957091E+03</pdfrwt>
<totfact> 0.50080390E-01</totfact>
</mgrwt>
</event>
<event>
 5    0  0.2917107E+000  0.1766923E+03  0.7546771E-02  0.1171043E+00
          2   -1    0    0  501    0  0.00000000000E+00  0.00000000000E+00  0.85672229119E+03  0.85672229119E+03  0.00000000000E+00 0. -1.
         -1   -1    0    0    0  501 -0.00000000000E+00 -0.00000000000E+00 -0.49411868232E+03  0.49411868232E+03  0.00000000000E+00 0.  1.
         25    1    1    2    0    0 -0.21468777806E+03 -0.76260714297E+02 -0.10998501145E+03  0.28218476453E+03  0.12500000000E+03 0.  0.
          2    1    1    2  502    0  0.11925994497E+03  0.27259745846E+02  0.75588974729E+03  0.76572536740E+03  0.00000000000E+00 0. -1.
         -1    1    1    2    0  502  0.95427833082E+02  0.49000968451E+02 -0.28330112697E+03  0.30293084158E+03  0.00000000000E+00 0.  1.
<mgrwt>
<rscale>  4 0.17669230E+03</rscale>
<asrwt>0</asrwt>
<pdfrwt beam="1">  1        2 0.13180343E+00 0.17669230E+03</pdfrwt>
<pdfrwt beam="2">  1       -1 0.76018259E-01 0.17669230E+03</pdfrwt>
<totfact> 0.69966098E+01</totfact>
</mgrwt>
</event>
<event>
 5    0  0.2917107E+000  0.2073489E+03  0.7546771E-02  0.1143683E+00
          3   -1    0    0  502    0  0.00000000000E+00  0.00000000000E+00  0.10282903596E+03  0.10282903596E+03  0.00000000000E+00 0. -1.
         -3   -1    0    0    0  501 -0.00000000000E+00 -0.00000000000E+00 -0.16302195045E+04  0.16302195045E+04  0.00000000000E+00 0.  1.
         25    1    1    2    0    0  0.11814528229E+03  0.21028266124E+03 -0.97545332242E+03  0.10125765599E+04  0.12500000000E+03 0.  0.
          3    1    1    2  502    0 -0.71705094760E+02 -0.14245756141E+03  0.29659268402E+01  0.15951355472E+03  0.00000000000E+00 0. -1.
         -3    1    1    2    0  501 -0.46440187529E+02 -0.67825099825E+02 -0.55490307297E+03  0.56095842589E+03  0.00000000000E+00 0.  1.
<mgrwt>
<rscale>  4 0.20734889E+03</rscale>
<asrwt>0</asrwt>
<pdfrwt beam="1">  1        3 0.15819851E-01 0.20734889E+03</pdfrwt>
<pdfrwt beam="2">  1       -3 0.25080301E+00 0.20734889E+03</pdfrwt>
<totfact> 0.67667553E+00</totfact>
</mgrwt>
</event>
<event>
 5    0  0.2917107E+000  0.2310269E+03  0.7546771E-02  0.1125919E+00
          1   -1    0    0  502    0  0.00000000000E+00  0.00000000000E+00  0.41880646377E+03  0.41880646377E+03  0.00000000000E+00 0.  1.
          3   -1    0    0  501    0 -0.00000000000E+00 -0.00000000000E+00 -0.22132077748E+03  0.22132077748E+03  0.00000000000E+00 0.  1.
         25    1    1    2    0    0 -0.21151780079E+03 -0.67177009915E+02 -0.78027802724E+01  0.25483016716E+03  0.12500000000E+03 0.  0.
          1    1    1    2  501    0  0.18826189595E+03  0.13700552349E+02  0.24897038665E+03  0.31243639357E+03  0.00000000000E+00 0.  1.
          3    1    1    2  502    0  0.23255904843E+02  0.53476457566E+02 -0.43681920088E+02  0.72860680524E+02  0.00000000000E+00 0.  1.
<mgrwt>
<rscale>  4 0.23102689E+03</rscale>
<asrwt>0</asrwt>
<pdfrwt beam="1">  1        1 0.64431764E-01 0.23102689E+03</pdfrwt>
<pdfrwt beam="2">  1        3 0.34049350E-01 0.23102689E+03</pdfrwt>
<totfact> 0.26380426E+02</totfact>
</mgrwt>
</event>
<event>
 5    0  0.2917107E+000  0.2895620E+03  0.7546771E-02  0.1090578E+00
          2   -1    0    0  502    0  0.00000000000E+00  0.00000000000E+00  0.29152810501E+04  0.29152810501E+04  0.00000000000E+00 0.  1.
          1   -1    0    0  501    0 -0.00000000000E+00 -0.00000000000E+00 -0.40446957305E+03  0.40446957305E+03  0.00000000000E+00 0. -1.
         25    1    1    2    0    0  0.30134117880E+03 -0.17169044241E+03  0.26915415723E+04  0.27166717044E+04  0.12500000000E+03 0.  0.
          2    1    1    2  501    0 -0.11448837665E+03 -0.90048088452E+01  0.14587971357E+03  0.18565981202E+03  0.00000000000E+00 0.  1.
          1    1    1    2  502    0 -0.18685280215E+03  0.18069525125E+03 -0.32660980879E+03  0.41741910677E+03  0.00000000000E+00 0. -1.
<mgrwt>
<rscale>  4 0.28956198E+03</rscale>
<asrwt>0</asrwt>
<pdfrwt beam="1">  1        2 0.44850476E+00 0.28956198E+03</pdfrwt>
<pdfrwt beam="2">  1        1 0.62226090E-01 0.28956198E+03</pdfrwt>
<totfact> 0.18962122E+01</totfact>
</mgrwt>
</event>
<event>
 5    0  0.2917107E+000  0.2019563E+03  0.7546771E-02  0.1148099E+00
          2   -1    0    0  502    0  0.00000000000E+00  0.00000000000E+00  0.10036197275E+03  0.10036197275E+03  0.00000000000E+00 0. -1.
          2   -1    0    0  501    0 -0.00000000000E+00 -0.00000000000E+00 -0.18692944270E+04  0.18692944270E+04  0.00000000000E+00 0. -1.
         25    1    1    2    0    0 -0.19134034909E+03  0.80664404101E+02 -0.24006752419E+03  0.34113822924E+03  0.12500000000E+03 0.  0.
          2    1    1    2  501    0  0.62574650202E+02 -0.22121866822E+02 -0.14760333526E+04  0.14775247619E+04  0.00000000000E+00 0. -1.
          2    1    1    2  502    0  0.12876569889E+03 -0.58542537280E+02 -0.52831577439E+02  0.15099340865E+03  0.00000000000E+00 0. -1.
<mgrwt>
<rscale>  4 0.20195633E+03</rscale>
<asrwt>0</asrwt>
<pdfrwt beam="1">  1        2 0.15440304E-01 0.20195633E+03</pdfrwt>
<pdfrwt beam="2">  1        2 0.28758376E+00 0.20195633E+03</pdfrwt>
<totfact> 0.51512038E+02</totfact>
</mgrwt>
</event>
<event>
 5    0  0.2917107E+000  0.5063502E+03  0.7546771E-02  0.1012135E+00
          2   -1    0    0  502    0  0.00000000000E+00  0.00000000000E+00  0.16879648206E+04  0.16879648206E+04  0.00000000000E+00 0. -1.
          2   -1    0    0  501    0 -0.00000000000E+00 -0.00000000000E+00 -0.21120104211E+03  0.21120104211E+03  0.00000000000E+00 0. -1.
         25    1    1    2    0    0 -0.90375432223E+02  0.44957715391E+03  0.62106321119E+03  0.78206895371E+03  0.12500000000E+03 0.  0.
          2    1    1    2  501    0  0.64401448732E+02 -0.51509838349E+03  0.89628845533E+03  0.10357639144E+04  0.00000000000E+00 0. -1.
          2    1    1    2  502    0  0.25973983492E+02  0.65521229582E+02 -0.40587888061E+02  0.81332994545E+02  0.00000000000E+00 0. -1.
<mgrwt>
<rscale>  4 0.50635018E+03</rscale>
<asrwt>0</asrwt>
<pdfrwt beam="1">  1        2 0.25968689E+00 0.50635018E+03</pdfrwt>
<pdfrwt beam="2">  1        2 0.32492469E-01 0.50635018E+03</pdfrwt>
<totfact> 0.25857730E+02</totfact>
</mgrwt>
</event>
<event>
 5    0  0.2917107E+000  0.2288103E+03  0.7546771E-02  0.1127480E+00
         -4   -1    0    0    0  501 -0.00000000000E+00  0.00000000000E+00  0.55484197868E+03  0.55484197868E+03  0.00000000000E+00 0. -1.
          1   -1    0    0  501    0  0.00000000000E+00 -0.00000000000E+00 -0.50320651241E+03  0.50320651241E+03  0.00000000000E+00 0. -1.
         25    1    1    2    0    0 -0.20248765686E+03 -0.44039303343E+02 -0.91463794876E+02  0.25871091433E+03  0.12500000000E+03 0.  0.
          1    1    1    2  502    0  0.18340254262E+03  0.35008857213E+02 -0.30128611984E+03  0.35445089749E+03  0.00000000000E+00 0. -1.
         -4    1    1    2    0  502  0.19085114235E+02  0.90304461303E+01  0.44438538100E+03  0.44488667927E+03  0.00000000000E+00 0. -1.
<mgrwt>
<rscale>  4 0.22881025E+03</rscale>
<asrwt>0</asrwt>
<pdfrwt beam="1">  1        1 0.77416386E-01 0.22881025E+03</pdfrwt>
<pdfrwt beam="2">  1       -4 0.85360305E-01 0.22881025E+03</pdfrwt>
<totfact> 0.25593191E+01</totfact>
</mgrwt>
</event>
<event>
 5    0  0.2917107E+000  0.2616017E+03  0.7546771E-02  0.1106185E+00
          2   -1    0    0  501    0  0.00000000000E+00  0.00000000000E+00  0.12386003359E+04  0.12386003359E+04  0.00000000000E+00 0. -1.
         -1   -1    0    0    0  501 -0.00000000000E+00 -0.00000000000E+00 -0.17258295249E+03  0.17258295249E+03  0.00000000000E+00 0.  1.
         25    1    1    2    0    0 -0.15651912750E+03 -0.20803520064E+03  0.14870285483E+03  0.32482983393E+03  0.12500000000E+03 0.  0.
          2    1    1    2  502    0  0.15752653542E+03  0.16153911060E+03  0.98149409256E+03  0.10070949048E+04  0.00000000000E+00 0. -1.
         -1    1    1    2    0  502 -0.10074079204E+01  0.46496090040E+02 -0.64179563970E+02  0.79258549641E+02  0.00000000000E+00 0.  1.
<mgrwt>
<rscale>  4 0.26160168E+03</rscale>
<asrwt>0</asrwt>
<pdfrwt beam="1">  1        2 0.19055389E+00 0.26160168E+03</pdfrwt>
<pdfrwt beam="2">  1       -1 0.26551224E-01 0.26160168E+03</pdfrwt>
<totfact> 0.27488117E+02</totfact>
</mgrwt>
</event>
<event>
 5    0  0.2917107E+000  0.1882723E+03  0.7546771E-02  0.1160029E+00
          1   -1    0    0  501    0 -0.00000000000E+00  0.00000000000E+00  0.16102796950E+04  0.16102796950E+04  0.00000000000E+00 0. -1.
          2   -1    0    0  502    0  0.00000000000E+00 -0.00000000000E+00 -0.55898661262E+03  0.55898661262E+03  0.00000000000E+00 0.  1.
         25    1    1    2    0    0  0.10614447513E+03  0.22883957897E+03 -0.36075277169E+03  0.45760437584E+03  0.12500000000E+03 0.  0.
          2    1    1    2  501    0 -0.33276738513E+02 -0.10937390327E+03 -0.12434406825E+03  0.16891251982E+03  0.00000000000E+00 0.  1.
          1    1    1    2  502    0 -0.72867736615E+02 -0.11946567571E+03  0.15363899223E+04  0.15427494119E+04  0.00000000000E+00 0. -1.
<mgrwt>
<rscale>  4 0.18827225E+03</rscale>
<asrwt>0</asrwt>
<pdfrwt beam="1">  1        2 0.85997941E-01 0.18827225E+03</pdfrwt>
<pdfrwt beam="2">  1        1 0.24773534E+00 0.18827225E+03</pdfrwt>
<totfact> 0.47492676E+01</totfact>
</mgrwt>
</event>
<event>
 5    0  0.2917107E+000  0.2675629E+03  0.7546771E-02  0.1102683E+00
         -1   -1    0    0    0  502 -0.00000000000E+00  0.00000000000E+00  0.12725379922E+03  0.12725379922E+03  0.00000000000E+00 0.  1.
         -2   -1    0    0    0  501  0.00000000000E+00 -0.00000000000E+00 -0.55720468667E+03  0.55720468667E+03  0.00000000000E+00 0.  1.
         25    1    1    2    0    0 -0.22872611886E+03  0.18606640004E+02 -0.24750906351E+03  0.35992718850E+03  0.12500000000E+03 0.  0.
         -2    1    1    2    0  502  0.24206641545E+03 -0.36153864261E+02 -0.17633816326E+03  0.30165940928E+03  0.00000000000E+00 0.  1.
         -1    1    1    2    0  501 -0.13340296588E+02  0.17547224257E+02 -0.61036606770E+01  0.22871888113E+02  0.00000000000E+00 0.  1.
<mgrwt>
<rscale>  4 0.26756294E+03</rscale>
<asrwt>0</asrwt>
<pdfrwt beam="1">  1       -2 0.85723797E-01 0.26756294E+03</pdfrwt>
<pdfrwt beam="2">  1       -1 0.19577508E-01 0.26756294E+03</pdfrwt>
<totfact> 0.18927178E+02</totfact>
</mgrwt>
</event>
<event>
 5    0  0.2917107E+000  0.1985286E+03  0.7546771E-02  0.1150986E+00
         -1   -1    0    0    0  501 -0.00000000000E+00  0.00000000000E+00  0.28296572550E+03  0.28296572550E+03  0.00000000000E+00 0.  1.
          2   -1    0    0  501    0  0.00000000000E+00 -0.00000000000E+00 -0.30719392092E+04  0.30719392092E+04  0.00000000000E+00 0.  1.
         25    1    1    2    0    0 -0.21399333178E+03 -0.85495822101E+02 -0.58797393755E+03  0.64377094753E+03  0.12500000000E+03 0.  0.
          2    1    1    2  502    0  0.70799618172E+02  0.36155890647E+02 -0.24328769856E+04  0.24341754788E+04  0.00000000000E+00 0.  1.
         -1    1    1    2    0  502  0.14319371361E+03  0.49339931454E+02  0.23187743945E+03  0.27695850841E+03  0.00000000000E+00 0.  1.
<mgrwt>
<rscale>  4 0.19852861E+03</rscale>
<asrwt>0</asrwt>
<pdfrwt beam="1">  1        2 0.47260600E+00 0.19852861E+03</pdfrwt>
<pdfrwt beam="2">  1       -1 0.43533192E-01 0.19852861E+03</pdfrwt>
<totfact> 0.12116464E+01</totfact>
</mgrwt>
</event>
<event>
 5    0  0.2917107E+000  0.2650253E+03  0.7546771E-02  0.1104161E+00
          1   -1    0    0  501    0 -0.00000000000E+00  0.00000000000E+00  0.37138322325E+03  0.37138322325E+03  0.00000000000E+00 0.  1.
          2   -1    0    0  502    0  0.00000000000E+00 -0.00000000000E+00 -0.95851874578E+03  0.95851874578E+03  0.00000000000E+00 0. -1.
         25    1    1    2    0    0  0.91741184970E+01 -0.23454299183E+03 -0.26388470379E+03  0.37463944849E+03  0.12500000000E+03 0.  0.
          2    1    1    2  501    0 -0.62824161850E+02  0.61801669519E+01 -0.59381801398E+03  0.59716405074E+03  0.00000000000E+00 0. -1.
          1    1    1    2  502    0  0.53650043353E+02  0.22836282488E+03  0.27056719523E+03  0.35809846980E+03  0.00000000000E+00 0.  1.
<mgrwt>
<rscale>  4 0.26502535E+03</rscale>
<asrwt>0</asrwt>
<pdfrwt beam="1">  1        2 0.14746442E+00 0.26502535E+03</pdfrwt>
<pdfrwt beam="2">  1        1 0.57135881E-01 0.26502535E+03</pdfrwt>
<totfact> 0.25451243E+02</totfact>
</mgrwt>
</event>
<event>
 5    0  0.2917107E+000  0.2343481E+03  0.7546771E-02  0.1123616E+00
          2   -1    0    0  501    0  0.00000000000E+00  0.00000000000E+00  0.23281276215E+04  0.23281276215E+04  0.00000000000E+00 0.  1.
         -1   -1    0    0    0  501 -0.00000000000E+00 -0.00000000000E+00 -0.75168686570E+02  0.75168686570E+02  0.00000000000E+00 0. -1.
         25    1    1    2    0    0 -0.23010149421E+03  0.58237557438E+02  0.86403252835E+03  0.90471847598E+03  0.12500000000E+03 0.  0.
          2    1    1    2  502    0  0.16923573487E+03 -0.80373384480E+02  0.14160292972E+04  0.14283695549E+04  0.00000000000E+00 0.  1.
         -1    1    1    2    0  502  0.60865759339E+02  0.22135827042E+02 -0.27102890643E+02  0.70208277147E+02  0.00000000000E+00 0. -1.
<mgrwt>
<rscale>  4 0.23434814E+03</rscale>
<asrwt>0</asrwt>
<pdfrwt beam="1">  1        2 0.35817343E+00 0.23434814E+03</pdfrwt>
<pdfrwt beam="2">  1       -1 0.11564415E-01 0.23434814E+03</pdfrwt>
<totfact> 0.27833722E+02</totfact>
</mgrwt>
</event>
<event>
 5    0  0.2917107E+000  0.2011756E+03  0.7546771E-02  0.1148751E+00
         -2   -1    0    0    0  501 -0.00000000000E+00  0.00000000000E+00  0.45795389258E+03  0.45795389258E+03  0.00000000000E+00 0.  1.
          1   -1    0    0  501    0  0.00000000000E+00 -0.00000000000E+00 -0.19946020063E+03  0.19946020063E+03  0.00000000000E+00 0.  1.
         25    1    1    2    0    0 -0.17147842406E+03 -0.10305843578E+03  0.19013151546E+03  0.30298660742E+03  0.12500000000E+03 0.  0.
          1    1    1    2  502    0  0.13118450352E+03  0.74037728273E+02 -0.98733798760E+02  0.18010919518E+03  0.00000000000E+00 0.  1.
         -2    1    1    2    0  502  0.40293920544E+02  0.29020707509E+02  0.16709597525E+03  0.17431829061E+03  0.00000000000E+00 0.  1.
<mgrwt>
<rscale>  4 0.20117555E+03</rscale>
<asrwt>0</asrwt>
<pdfrwt beam="1">  1        1 0.30686185E-01 0.20117555E+03</pdfrwt>
<pdfrwt beam="2">  1       -2 0.70454445E-01 0.20117555E+03</pdfrwt>
<totfact> 0.24497654E+02</totfact>
</mgrwt>
</event>
<event>
 5    0  0.2917107E+000  0.2962384E+03  0.7546771E-02  0.1087136E+00
          2   -1    0    0  502    0  0.00000000000E+00  0.00000000000E+00  0.71083124401E+03  0.71083124401E+03  0.00000000000E+00 0.  1.
          2   -1    0    0  501    0 -0.00000000000E+00 -0.00000000000E+00 -0.24459590485E+03  0.24459590485E+03  0.00000000000E+00 0.  1.
         25    1    1    2    0    0  0.11913449247E+03 -0.22060523328E+03 -0.31088431135E+02  0.28187086901E+03  0.12500000000E+03 0.  0.
          2    1    1    2  501    0  0.65248929503E+02  0.18357872109E+02 -0.34042891546E+02  0.75850858495E+02  0.00000000000E+00 0.  1.
          2    1    1    2  502    0 -0.18438342198E+03  0.20224736117E+03  0.53136666185E+03  0.59770542136E+03  0.00000000000E+00 0.  1.
<mgrwt>
<rscale>  4 0.29623837E+03</rscale>
<asrwt>0</asrwt>
<pdfrwt beam="1">  1        2 0.10935865E+00 0.29623837E+03</pdfrwt>
<pdfrwt beam="2">  1        2 0.37630140E-01 0.29623837E+03</pdfrwt>
<totfact> 0.86836613E+02</totfact>
</mgrwt>
</event>
