<event>
 5    0  0.1911311E+001  0.2220083E+03  0.7546771E-02  0.1132395E+00
         21   -1    0    0  502  501  0.00000000000E+00  0.00000000000E+00  0.11325317422E+03  0.11325317422E+03  0.00000000000E+00 0.  1.
         21   -1    0    0  504  502 -0.00000000000E+00 -0.00000000000E+00 -0.62380977374E+03  0.62380977374E+03  0.00000000000E+00 0.  1.
         25    1    1    2    0    0 -0.44497580837E+02  0.21392942835E+03 -0.23446358979E+03  0.34401164217E+03  0.12500000000E+03 0.  0.
         21    1    1    2  503  501  0.46298963340E+02 -0.44159026376E+02  0.55192625282E+01  0.64218968193E+02  0.00000000000E+00 0.  1.
         21    1    1    2  504  503 -0.18013825035E+01 -0.16977040197E+03 -0.28161227226E+03  0.32883233760E+03  0.00000000000E+00 0.  1.
<mgrwt>
<rscale>  4 0.22200826E+03</rscale>
<asrwt>0</asrwt>
<pdfrwt beam="1">  1       21 0.17423565E-01 0.22200826E+03</pdfrwt>
<pdfrwt beam="2">  1       21 0.95970735E-01 0.22200826E+03</pdfrwt>
<totfact> 0.26524807E+04</totfact>
</mgrwt>
</event>
<event>
 5    0  0.1911311E+001  0.2760500E+03  0.7546771E-02  0.1097866E+00
         21   -1    0    0  503  501  0.00000000000E+00  0.00000000000E+00  0.32121144314E+03  0.32121144314E+03  0.00000000000E+00 0. -1.
         21   -1    0    0  504  502 -0.00000000000E+00 -0.00000000000E+00 -0.22083773156E+03  0.22083773156E+03  0.00000000000E+00 0. -1.
         25    1    1    2    0    0  0.24611695967E+03 -0.22510388077E+01  0.44970354813E+02  0.27968903773E+03  0.12500000000E+03 0.  0.
         21    1    1    2  503  502 -0.19940641415E+03 -0.54516316836E+01  0.14865263005E+02  0.20003403295E+03  0.00000000000E+00 0. -1.
         21    1    1    2  504  501 -0.46710545525E+02  0.77026704913E+01  0.40538093766E+02  0.62326104018E+02  0.00000000000E+00 0. -1.
<mgrwt>
<rscale>  4 0.27605004E+03</rscale>
<asrwt>0</asrwt>
<pdfrwt beam="1">  1       21 0.49417145E-01 0.27605004E+03</pdfrwt>
<pdfrwt beam="2">  1       21 0.33975036E-01 0.27605004E+03</pdfrwt>
<totfact> 0.31338425E+04</totfact>
</mgrwt>
</event>
<event>
 5    0  0.1911311E+001  0.2784297E+03  0.7546771E-02  0.1096550E+00
         21   -1    0    0  502  501  0.00000000000E+00  0.00000000000E+00  0.31617858055E+03  0.31617858055E+03  0.00000000000E+00 0. -1.
         21   -1    0    0  504  502 -0.00000000000E+00 -0.00000000000E+00 -0.64717005024E+03  0.64717005024E+03  0.00000000000E+00 0.  1.
         25    1    1    2    0    0  0.15450935218E+03 -0.21663172595E+03  0.24179857302E+02  0.29497815190E+03  0.12500000000E+03 0.  0.
         21    1    1    2  503  501  0.22007455044E+02  0.44972506122E+02  0.12174856719E+03  0.13164181705E+03  0.00000000000E+00 0. -1.
         21    1    1    2  504  503 -0.17651680722E+03  0.17165921982E+03 -0.47691989418E+03  0.53672866184E+03  0.00000000000E+00 0.  1.
<mgrwt>
<rscale>  4 0.27842966E+03</rscale>
<asrwt>0</asrwt>
<pdfrwt beam="1">  1       21 0.48642859E-01 0.27842966E+03</pdfrwt>
<pdfrwt beam="2">  1       21 0.99564622E-01 0.27842966E+03</pdfrwt>
<totfact> 0.31465026E+03</totfact>
</mgrwt>
</event>
<event>
 5    0  0.1911311E+001  0.2283886E+03  0.7546771E-02  0.1127779E+00
         21   -1    0    0  502  501  0.00000000000E+00  0.00000000000E+00  0.52105809946E+03  0.52105809946E+03  0.00000000000E+00 0.  1.
         21   -1    0    0  504  502 -0.00000000000E+00 -0.00000000000E+00 -0.10907828886E+03  0.10907828886E+03  0.00000000000E+00 0.  1.
         25    1    1    2    0    0  0.59115073798E+02 -0.19704495864E+03  0.18789753864E+03  0.30537156499E+03  0.12500000000E+03 0.  0.
         21    1    1    2  503  501 -0.38382200577E+02  0.17941281441E+03  0.23259542485E+03  0.29624784043E+03  0.00000000000E+00 0.  1.
         21    1    1    2  504  503 -0.20732873221E+02  0.17632144228E+02 -0.85131528855E+01  0.28516982907E+02  0.00000000000E+00 0.  1.
<mgrwt>
<rscale>  4 0.22838862E+03</rscale>
<asrwt>0</asrwt>
<pdfrwt beam="1">  1       21 0.80162783E-01 0.22838862E+03</pdfrwt>
<pdfrwt beam="2">  1       21 0.16781276E-01 0.22838862E+03</pdfrwt>
<totfact> 0.42973997E+04</totfact>
</mgrwt>
</event>
<event>
 5    0  0.1911311E+001  0.3210021E+03  0.7546771E-02  0.1075189E+00
         21   -1    0    0  502  501  0.00000000000E+00  0.00000000000E+00  0.13953811806E+04  0.13953811806E+04  0.00000000000E+00 0. -1.
         21   -1    0    0  504  502 -0.00000000000E+00 -0.00000000000E+00 -0.15303500160E+03  0.15303500160E+03  0.00000000000E+00 0. -1.
         25    1    1    2    0    0 -0.16747850377E+03 -0.19039164914E+03  0.10408833225E+04  0.10785921937E+04  0.12500000000E+03 0.  0.
         21    1    1    2  503  501 -0.65092577773E+02 -0.42559948905E+01  0.14817884440E+03  0.16190159697E+03  0.00000000000E+00 0. -1.
         21    1    1    2  504  503  0.23257108155E+03  0.19464764403E+03  0.53284012186E+02  0.30792239161E+03  0.00000000000E+00 0. -1.
<mgrwt>
<rscale>  4 0.32100214E+03</rscale>
<asrwt>0</asrwt>
<pdfrwt beam="1">  1       21 0.21467402E+00 0.32100214E+03</pdfrwt>
<pdfrwt beam="2">  1       21 0.23543847E-01 0.32100214E+03</pdfrwt>
<totfact> 0.16541426E+03</totfact>
</mgrwt>
</event>
