<event>
 5    0  0.1911311E+001  0.3439363E+03  0.7546771E-02  0.1065132E+00
         21   -1    0    0  504  501  0.00000000000E+00  0.00000000000E+00  0.51109308004E+03  0.51109308004E+03  0.00000000000E+00 0. -1.
         21   -1    0    0  503  502 -0.00000000000E+00 -0.00000000000E+00 -0.53063912568E+03  0.53063912568E+03  0.00000000000E+00 0. -1.
         25    1    1    2    0    0  0.26874769339E+03  0.19555062303E+03  0.29476155166E+03  0.46149186473E+03  0.12500000000E+03 0.  0.
         21    1    1    2  503  501 -0.31754714317E+02 -0.17306836181E+02 -0.27930977884E+03  0.28164133400E+03  0.00000000000E+00 0. -1.
         21    1    1    2  504  502 -0.23699297908E+03 -0.17824378685E+03 -0.34997818461E+02  0.29859900700E+03  0.00000000000E+00 0. -1.
<mgrwt>
<rscale>  4 0.34393632E+03</rscale>
<asrwt>0</asrwt>
<pdfrwt beam="1">  1       21 0.78629704E-01 0.34393632E+03</pdfrwt>
<pdfrwt beam="2">  1       21 0.81636789E-01 0.34393632E+03</pdfrwt>
<totfact> 0.16924812E+03</totfact>
</mgrwt>
</event>
<event>
 5    0  0.1911311E+001  0.2061146E+03  0.7546771E-02  0.1144680E+00
         21   -1    0    0  504  501  0.00000000000E+00  0.00000000000E+00  0.42352555352E+03  0.42352555352E+03  0.00000000000E+00 0. -1.
         21   -1    0    0  503  502 -0.00000000000E+00 -0.00000000000E+00 -0.10506465189E+04  0.10506465189E+04  0.00000000000E+00 0. -1.
         25    1    1    2    0    0  0.45859256788E+02 -0.20112022930E+03 -0.75837016193E+03  0.79580319211E+03  0.12500000000E+03 0.  0.
         21    1    1    2  503  501 -0.11455872138E+03  0.83638941780E+02 -0.24232031097E+03  0.28078159900E+03  0.00000000000E+00 0. -1.
         21    1    1    2  504  502  0.68699464592E+02  0.11748128752E+03  0.37356950750E+03  0.39758728134E+03  0.00000000000E+00 0. -1.
<mgrwt>
<rscale>  4 0.20611465E+03</rscale>
<asrwt>0</asrwt>
<pdfrwt beam="1">  1       21 0.65157778E-01 0.20611465E+03</pdfrwt>
<pdfrwt beam="2">  1       21 0.16163793E+00 0.20611465E+03</pdfrwt>
<totfact> 0.52287658E+02</totfact>
</mgrwt>
</event>
<event>
 5    0  0.1911311E+001  0.2646142E+03  0.7546771E-02  0.1104402E+00
         21   -1    0    0  504  501  0.00000000000E+00  0.00000000000E+00  0.10542572687E+03  0.10542572687E+03  0.00000000000E+00 0.  1.
         21   -1    0    0  501  502 -0.00000000000E+00 -0.00000000000E+00 -0.10000844282E+04  0.10000844282E+04  0.00000000000E+00 0.  1.
         25    1    1    2    0    0  0.14701492641E+03 -0.19461651994E+03 -0.18305213015E+03  0.32957861091E+03  0.12500000000E+03 0.  0.
         21    1    1    2  503  502  0.39746598578E+02  0.78079305727E+02 -0.16876770526E+03  0.19015443308E+03  0.00000000000E+00 0. -1.
         21    1    1    2  504  503 -0.18676152499E+03  0.11653721421E+03 -0.54283886593E+03  0.58577711109E+03  0.00000000000E+00 0.  1.
<mgrwt>
<rscale>  4 0.26461422E+03</rscale>
<asrwt>0</asrwt>
<pdfrwt beam="1">  1       21 0.16219342E-01 0.26461422E+03</pdfrwt>
<pdfrwt beam="2">  1       21 0.15385915E+00 0.26461422E+03</pdfrwt>
<totfact> 0.90536365E+03</totfact>
</mgrwt>
</event>
<event>
 5    0  0.1911311E+001  0.2036842E+03  0.7546771E-02  0.1146667E+00
         21   -1    0    0  503  501  0.00000000000E+00  0.00000000000E+00  0.23053604981E+03  0.23053604981E+03  0.00000000000E+00 0.  1.
         21   -1    0    0  504  502 -0.00000000000E+00 -0.00000000000E+00 -0.34496619045E+03  0.34496619045E+03  0.00000000000E+00 0.  1.
         25    1    1    2    0    0 -0.21265669765E+03  0.79462262099E+02 -0.54559306689E+02  0.26483738425E+03  0.12500000000E+03 0.  0.
         21    1    1    2  503  502  0.78743828304E+02 -0.31611183051E+02 -0.12753427326E+03  0.15318240188E+03  0.00000000000E+00 0.  1.
         21    1    1    2  504  501  0.13391286934E+03 -0.47851079048E+02  0.67663439303E+02  0.15748245413E+03  0.00000000000E+00 0.  1.
<mgrwt>
<rscale>  4 0.20368415E+03</rscale>
<asrwt>0</asrwt>
<pdfrwt beam="1">  1       21 0.35467085E-01 0.20368415E+03</pdfrwt>
<pdfrwt beam="2">  1       21 0.53071721E-01 0.20368415E+03</pdfrwt>
<totfact> 0.25615996E+04</totfact>
</mgrwt>
</event>
<event>
 5    0  0.1911311E+001  0.2417960E+03  0.7546771E-02  0.1118602E+00
         21   -1    0    0  504  501  0.00000000000E+00  0.00000000000E+00  0.13692071646E+04  0.13692071646E+04  0.00000000000E+00 0. -1.
         21   -1    0    0  503  502 -0.00000000000E+00 -0.00000000000E+00 -0.19901654561E+03  0.19901654561E+03  0.00000000000E+00 0.  1.
         25    1    1    2    0    0  0.35329174472E+02  0.25090048558E+03  0.11187144892E+04  0.11538398123E+04  0.12500000000E+03 0.  0.
         21    1    1    2  503  501  0.15869685388E+02 -0.20420561781E+03 -0.11440809962E+03  0.23460817232E+03  0.00000000000E+00 0.  1.
         21    1    1    2  504  502 -0.51198859860E+02 -0.46694867774E+02  0.16588422943E+03  0.17977572556E+03  0.00000000000E+00 0. -1.
<mgrwt>
<rscale>  4 0.24179595E+03</rscale>
<asrwt>0</asrwt>
<pdfrwt beam="1">  1       21 0.21064725E+00 0.24179595E+03</pdfrwt>
<pdfrwt beam="2">  1       21 0.30617931E-01 0.24179595E+03</pdfrwt>
<totfact> 0.11193777E+03</totfact>
</mgrwt>
</event>
<event>
 5    0  0.1911311E+001  0.2386825E+03  0.7546771E-02  0.1120674E+00
         21   -1    0    0  503  501  0.00000000000E+00  0.00000000000E+00  0.14381834703E+03  0.14381834703E+03  0.00000000000E+00 0. -1.
         21   -1    0    0  504  502 -0.00000000000E+00 -0.00000000000E+00 -0.80445619077E+03  0.80445619077E+03  0.00000000000E+00 0. -1.
         25    1    1    2    0    0 -0.21151039547E+02  0.24072198570E+03 -0.61081280921E+03  0.66866413750E+03  0.12500000000E+03 0.  0.
         21    1    1    2  503  502 -0.35135233484E+01 -0.44331406953E+02 -0.67561811845E+02  0.80883971889E+02  0.00000000000E+00 0. -1.
         21    1    1    2  504  501  0.24664562896E+02 -0.19639057875E+03  0.17736777315E+02  0.19872642842E+03  0.00000000000E+00 0. -1.
<mgrwt>
<rscale>  4 0.23868255E+03</rscale>
<asrwt>0</asrwt>
<pdfrwt beam="1">  1       21 0.22125899E-01 0.23868255E+03</pdfrwt>
<pdfrwt beam="2">  1       21 0.12376249E+00 0.23868255E+03</pdfrwt>
<totfact> 0.90493946E+03</totfact>
</mgrwt>
</event>
<event>
 5    0  0.1911311E+001  0.2609442E+03  0.7546771E-02  0.1106577E+00
         21   -1    0    0  502  501  0.00000000000E+00  0.00000000000E+00  0.17436387985E+03  0.17436387985E+03  0.00000000000E+00 0. -1.
         21   -1    0    0  504  502 -0.00000000000E+00 -0.00000000000E+00 -0.10974049537E+04  0.10974049537E+04  0.00000000000E+00 0. -1.
         25    1    1    2    0    0  0.15326292584E+03 -0.15696232853E+03  0.23392310366E+01  0.25250181983E+03  0.12500000000E+03 0.  0.
         21    1    1    2  503  501 -0.53277715744E+02 -0.51648280835E+02 -0.97204343454E+01  0.74836800786E+02  0.00000000000E+00 0. -1.
         21    1    1    2  504  503 -0.99985210093E+02  0.20861060936E+03 -0.91565987057E+03  0.94443021296E+03  0.00000000000E+00 0. -1.
<mgrwt>
<rscale>  4 0.26094423E+03</rscale>
<asrwt>0</asrwt>
<pdfrwt beam="1">  1       21 0.26825213E-01 0.26094423E+03</pdfrwt>
<pdfrwt beam="2">  1       21 0.16883153E+00 0.26094423E+03</pdfrwt>
<totfact> 0.27199947E+03</totfact>
</mgrwt>
</event>
<event>
 5    0  0.1911311E+001  0.2373077E+03  0.7546771E-02  0.1121599E+00
         21   -1    0    0  502  501  0.00000000000E+00  0.00000000000E+00  0.19003243704E+03  0.19003243704E+03  0.00000000000E+00 0. -1.
         21   -1    0    0  504  502 -0.00000000000E+00 -0.00000000000E+00 -0.27328209280E+03  0.27328209280E+03  0.00000000000E+00 0. -1.
         25    1    1    2    0    0  0.19423075446E+03 -0.54445783217E+02 -0.66973504755E+02  0.24657732991E+03  0.12500000000E+03 0.  0.
         21    1    1    2  503  501 -0.57071278441E+02  0.70372377509E+01  0.29418182844E+02  0.64591663703E+02  0.00000000000E+00 0. -1.
         21    1    1    2  504  503 -0.13715947602E+03  0.47408545466E+02 -0.45694333851E+02  0.15214553622E+03  0.00000000000E+00 0. -1.
<mgrwt>
<rscale>  4 0.23730767E+03</rscale>
<asrwt>0</asrwt>
<pdfrwt beam="1">  1       21 0.29235760E-01 0.23730767E+03</pdfrwt>
<pdfrwt beam="2">  1       21 0.42043399E-01 0.23730767E+03</pdfrwt>
<totfact> 0.59832757E+04</totfact>
</mgrwt>
</event>
<event>
 5    0  0.1911311E+001  0.2933648E+03  0.7546771E-02  0.1088605E+00
         21   -1    0    0  503  501  0.00000000000E+00  0.00000000000E+00  0.11960307924E+04  0.11960307924E+04  0.00000000000E+00 0.  1.
         21   -1    0    0  504  502 -0.00000000000E+00 -0.00000000000E+00 -0.75807011549E+02  0.75807011549E+02  0.00000000000E+00 0.  1.
         25    1    1    2    0    0 -0.25913263350E+03 -0.78971246259E+02  0.71865622737E+03  0.77812463823E+03  0.12500000000E+03 0.  0.
         21    1    1    2  503  502  0.19246985806E+02 -0.17680658901E+02  0.20716696045E+02  0.33350167268E+02  0.00000000000E+00 0.  1.
         21    1    1    2  504  501  0.23988564769E+03  0.96651905160E+02  0.38085085746E+03  0.46036299848E+03  0.00000000000E+00 0.  1.
<mgrwt>
<rscale>  4 0.29336481E+03</rscale>
<asrwt>0</asrwt>
<pdfrwt beam="1">  1       21 0.18400472E+00 0.29336481E+03</pdfrwt>
<pdfrwt beam="2">  1       21 0.11662618E-01 0.29336481E+03</pdfrwt>
<totfact> 0.98687014E+03</totfact>
</mgrwt>
</event>
<event>
 5    0  0.1911311E+001  0.2477684E+03  0.7546771E-02  0.1114723E+00
         21   -1    0    0  503  501  0.00000000000E+00  0.00000000000E+00  0.45545805265E+02  0.45545805265E+02  0.00000000000E+00 0.  1.
         21   -1    0    0  501  502 -0.00000000000E+00 -0.00000000000E+00 -0.22239573100E+04  0.22239573100E+04  0.00000000000E+00 0.  1.
         25    1    1    2    0    0  0.21456219273E+03  0.69757165414E+02 -0.47327131296E+03  0.53899325816E+03  0.12500000000E+03 0.  0.
         21    1    1    2  503  504 -0.54105101991E+02  0.49680811346E+02 -0.80842644462E+03  0.81175665161E+03  0.00000000000E+00 0.  1.
         21    1    1    2  504  502 -0.16045709073E+03 -0.11943797676E+03 -0.89671374719E+03  0.91875320553E+03  0.00000000000E+00 0.  1.
<mgrwt>
<rscale>  4 0.24776839E+03</rscale>
<asrwt>0</asrwt>
<pdfrwt beam="1">  1       21 0.70070486E-02 0.24776839E+03</pdfrwt>
<pdfrwt beam="2">  1       21 0.34214720E+00 0.24776839E+03</pdfrwt>
<totfact> 0.27537315E+03</totfact>
</mgrwt>
</event>
