<event>
 5    0  0.1911311E+001  0.2194943E+03  0.7546771E-02  0.1134261E+00
         21   -1    0    0  504  501  0.00000000000E+00  0.00000000000E+00  0.56335610237E+03  0.56335610237E+03  0.00000000000E+00 0. -1.
         21   -1    0    0  503  502 -0.00000000000E+00 -0.00000000000E+00 -0.60454197737E+03  0.60454197737E+03  0.00000000000E+00 0. -1.
         25    1    1    2    0    0 -0.85237498670E+02  0.21407645246E+03  0.43230088105E+03  0.50557216146E+03  0.12500000000E+03 0.  0.
         21    1    1    2  503  501  0.66705611859E+02 -0.91877125901E+02 -0.51850164659E+03  0.53078715361E+03  0.00000000000E+00 0. -1.
         21    1    1    2  504  502  0.18531886811E+02 -0.12219932656E+03  0.45014890536E+02  0.13153876467E+03  0.00000000000E+00 0. -1.
<mgrwt>
<rscale>  4 0.21949432E+03</rscale>
<asrwt>0</asrwt>
<pdfrwt beam="1">  1       21 0.86670170E-01 0.21949432E+03</pdfrwt>
<pdfrwt beam="2">  1       21 0.93006457E-01 0.21949432E+03</pdfrwt>
<totfact> 0.10873378E+03</totfact>
</mgrwt>
</event>
<event>
 5    0  0.1911311E+001  0.1798528E+03  0.7546771E-02  0.1167946E+00
         21   -1    0    0  502  501  0.00000000000E+00  0.00000000000E+00  0.48858377628E+03  0.48858377628E+03  0.00000000000E+00 0.  1.
         21   -1    0    0  504  502 -0.00000000000E+00 -0.00000000000E+00 -0.12654604494E+03  0.12654604494E+03  0.00000000000E+00 0.  1.
         25    1    1    2    0    0  0.20425528995E+03 -0.69105434766E+02  0.16557383687E+03  0.29922479851E+03  0.12500000000E+03 0.  0.
         21    1    1    2  503  501 -0.10336125523E+03  0.35402063737E+02  0.17664141904E+03  0.20769941290E+03  0.00000000000E+00 0.  1.
         21    1    1    2  504  503 -0.10089403473E+03  0.33703371029E+02  0.19822475428E+02  0.10820560981E+03  0.00000000000E+00 0.  1.
<mgrwt>
<rscale>  4 0.17985281E+03</rscale>
<asrwt>0</asrwt>
<pdfrwt beam="1">  1       21 0.75166734E-01 0.17985281E+03</pdfrwt>
<pdfrwt beam="2">  1       21 0.19468623E-01 0.17985281E+03</pdfrwt>
<totfact> 0.38654314E+04</totfact>
</mgrwt>
</event>
<event>
 5    0  0.1911311E+001  0.2558078E+03  0.7546771E-02  0.1109688E+00
         21   -1    0    0  502  501  0.00000000000E+00  0.00000000000E+00  0.36654624924E+03  0.36654624924E+03  0.00000000000E+00 0.  1.
         21   -1    0    0  504  502 -0.00000000000E+00 -0.00000000000E+00 -0.19046575085E+03  0.19046575085E+03  0.00000000000E+00 0.  1.
         25    1    1    2    0    0  0.47005956284E+02  0.21424501925E+03  0.10841046157E+03  0.27475137193E+03  0.12500000000E+03 0.  0.
         21    1    1    2  503  501 -0.20201153209E+02 -0.22673006419E+03  0.90443122313E+02  0.24493788391E+03  0.00000000000E+00 0.  1.
         21    1    1    2  504  503 -0.26804803076E+02  0.12485044943E+02 -0.22773085497E+02  0.37322744248E+02  0.00000000000E+00 0.  1.
<mgrwt>
<rscale>  4 0.25580781E+03</rscale>
<asrwt>0</asrwt>
<pdfrwt beam="1">  1       21 0.56391731E-01 0.25580781E+03</pdfrwt>
<pdfrwt beam="2">  1       21 0.29302423E-01 0.25580781E+03</pdfrwt>
<totfact> 0.31998612E+04</totfact>
</mgrwt>
</event>
<event>
 5    0  0.7190529E+001  0.2621803E+03  0.7546771E-02  0.1105840E+00
         21   -1    0    0  504  501  0.00000000000E+00  0.00000000000E+00  0.21716654384E+04  0.21716654384E+04  0.00000000000E+00 0. -1.
         21   -1    0    0  503  502 -0.00000000000E+00 -0.00000000000E+00 -0.49544912033E+02  0.49544912033E+02  0.00000000000E+00 0. -1.
         25    1    1    2    0    0  0.22070838491E+03  0.95354268570E+00  0.15875985435E+04  0.16077335712E+04  0.12500000000E+03 0.  0.
         21    1    1    2  503  501 -0.23202335362E+03  0.17979932455E+02  0.30876298314E+03  0.38664285117E+03  0.00000000000E+00 0. -1.
         21    1    1    2  504  502  0.11314968716E+02 -0.18933475141E+02  0.22575899965E+03  0.22683392807E+03  0.00000000000E+00 0.  1.
<mgrwt>
<rscale>  4 0.26218027E+03</rscale>
<asrwt>0</asrwt>
<pdfrwt beam="1">  1       21 0.33410230E+00 0.26218027E+03</pdfrwt>
<pdfrwt beam="2">  1       21 0.76222958E-02 0.26218027E+03</pdfrwt>
<totfact> 0.26168452E+03</totfact>
</mgrwt>
</event>
