<event>
 5    0  0.2159162E+000  0.2818249E+03  0.7546771E-02  0.1094696E+00
         21   -1    0    0  502  501  0.00000000000E+00  0.00000000000E+00  0.10360976777E+04  0.10360976777E+04  0.00000000000E+00 0. -1.
         21   -1    0    0  503  502 -0.00000000000E+00 -0.00000000000E+00 -0.75108186365E+02  0.75108186365E+02  0.00000000000E+00 0. -1.
         25    1    1    2    0    0  0.11579648264E+03  0.22448034544E+03  0.57782962162E+03  0.64289371011E+03  0.12500000000E+03 0.  0.
         21    1    1    2  503  504 -0.64260066125E+02 -0.48158103660E+02  0.76908836568E+02  0.11119140339E+03  0.00000000000E+00 0. -1.
         21    1    1    2  504  501 -0.51536416517E+02 -0.17632224178E+03  0.30625103312E+03  0.35712075053E+03  0.00000000000E+00 0. -1.
<mgrwt>
<rscale>  4 0.28182486E+03</rscale>
<asrwt>0</asrwt>
<pdfrwt beam="1">  1       21 0.15939963E+00 0.28182486E+03</pdfrwt>
<pdfrwt beam="2">  1       21 0.11555106E-01 0.28182486E+03</pdfrwt>
<totfact> 0.15114853E+04</totfact>
</mgrwt>
</event>
<event>
 5    0  0.2159162E+000  0.2431417E+03  0.7546771E-02  0.1117717E+00
         21   -1    0    0  502  501  0.00000000000E+00  0.00000000000E+00  0.70092390793E+03  0.70092390793E+03  0.00000000000E+00 0.  1.
         21   -1    0    0  503  502 -0.00000000000E+00 -0.00000000000E+00 -0.11233594726E+03  0.11233594726E+03  0.00000000000E+00 0.  1.
         25    1    1    2    0    0 -0.11090508253E+03  0.18496247364E+03  0.33807518438E+03  0.42003676539E+03  0.12500000000E+03 0.  0.
         21    1    1    2  503  504  0.15838886179E+03 -0.13400190260E+03  0.24825321964E+03  0.32353238246E+03  0.00000000000E+00 0.  1.
         21    1    1    2  504  501 -0.47483779267E+02 -0.50960571041E+02  0.22595566510E+01  0.69690707347E+02  0.00000000000E+00 0.  1.
<mgrwt>
<rscale>  4 0.24314170E+03</rscale>
<asrwt>0</asrwt>
<pdfrwt beam="1">  1       21 0.10783444E+00 0.24314170E+03</pdfrwt>
<pdfrwt beam="2">  1       21 0.17282454E-01 0.24314170E+03</pdfrwt>
<totfact> 0.20142831E+04</totfact>
</mgrwt>
</event>
<event>
 5    0  0.2159162E+000  0.2451306E+03  0.7546771E-02  0.1116421E+00
         21   -1    0    0  502  501  0.00000000000E+00  0.00000000000E+00  0.20576639103E+03  0.20576639103E+03  0.00000000000E+00 0.  1.
         21   -1    0    0  503  502 -0.00000000000E+00 -0.00000000000E+00 -0.23746687853E+04  0.23746687853E+04  0.00000000000E+00 0. -1.
         25    1    1    2    0    0 -0.94348728008E+02  0.18263527326E+03  0.94666598877E+02  0.25854224115E+03  0.12500000000E+03 0.  0.
         21    1    1    2  503  504 -0.86761559676E+01 -0.32671439248E+03 -0.12016415564E+04  0.12452951458E+04  0.00000000000E+00 0. -1.
         21    1    1    2  504  501  0.10302488398E+03  0.14407911921E+03 -0.10619274367E+04  0.10765977894E+04  0.00000000000E+00 0. -1.
<mgrwt>
<rscale>  4 0.24513065E+03</rscale>
<asrwt>0</asrwt>
<pdfrwt beam="1">  1       21 0.31656369E-01 0.24513065E+03</pdfrwt>
<pdfrwt beam="2">  1       21 0.36533365E+00 0.24513065E+03</pdfrwt>
<totfact> 0.12542841E+02</totfact>
</mgrwt>
</event>
<event>
 5    0  0.2870592E+000  0.2297939E+03  0.7546771E-02  0.1126785E+00
         21   -1    0    0  502  501  0.00000000000E+00  0.00000000000E+00  0.49735236180E+03  0.49735236180E+03  0.00000000000E+00 0.  1.
         21   -1    0    0  503  502 -0.00000000000E+00 -0.00000000000E+00 -0.27421858434E+03  0.27421858434E+03  0.00000000000E+00 0.  1.
         25    1    1    2    0    0  0.20513721690E+03  0.85300013898E+01  0.40735313662E+03  0.47298585242E+03  0.12500000000E+03 0.  0.
         21    1    1    2  503  504 -0.14940997912E+03 -0.20834303722E+02 -0.60869585545E+02  0.16267303562E+03  0.00000000000E+00 0.  1.
         21    1    1    2  504  501 -0.55727237777E+02  0.12304302332E+02 -0.12334977361E+03  0.13591205810E+03  0.00000000000E+00 0.  1.
<mgrwt>
<rscale>  4 0.22979392E+03</rscale>
<asrwt>0</asrwt>
<pdfrwt beam="1">  1       21 0.76515748E-01 0.22979392E+03</pdfrwt>
<pdfrwt beam="2">  1       21 0.42187474E-01 0.22979392E+03</pdfrwt>
<totfact> 0.80147530E+03</totfact>
</mgrwt>
</event>
<event>
 5    0  0.2159162E+000  0.2797965E+03  0.7546771E-02  0.1095800E+00
         21   -1    0    0  502  501  0.00000000000E+00  0.00000000000E+00  0.13322269109E+04  0.13322269109E+04  0.00000000000E+00 0.  1.
         21   -1    0    0  503  502 -0.00000000000E+00 -0.00000000000E+00 -0.15161390572E+03  0.15161390572E+03  0.00000000000E+00 0. -1.
         25    1    1    2    0    0  0.10348909184E+03  0.23537597361E+03  0.11700736669E+04  0.12044954243E+04  0.12500000000E+03 0.  0.
         21    1    1    2  503  504 -0.25281142715E+02 -0.48972403934E+02  0.48797619153E+02  0.73611413239E+02  0.00000000000E+00 0.  1.
         21    1    1    2  504  501 -0.78207949127E+02 -0.18640356967E+03 -0.38258280904E+02  0.20573397909E+03  0.00000000000E+00 0. -1.
<mgrwt>
<rscale>  4 0.27979647E+03</rscale>
<asrwt>0</asrwt>
<pdfrwt beam="1">  1       21 0.20495798E+00 0.27979647E+03</pdfrwt>
<pdfrwt beam="2">  1       21 0.23325217E-01 0.27979647E+03</pdfrwt>
<totfact> 0.19987118E+03</totfact>
</mgrwt>
</event>
<event>
 5    0  0.2159162E+000  0.3046734E+03  0.7546771E-02  0.1082927E+00
         21   -1    0    0  502  501  0.00000000000E+00  0.00000000000E+00  0.31417529460E+03  0.31417529460E+03  0.00000000000E+00 0. -1.
         21   -1    0    0  503  502 -0.00000000000E+00 -0.00000000000E+00 -0.27902347420E+03  0.27902347420E+03  0.00000000000E+00 0. -1.
         25    1    1    2    0    0 -0.96856718742E+02  0.26042209779E+03  0.46107544739E+02  0.30814249734E+03  0.12500000000E+03 0.  0.
         21    1    1    2  503  504  0.53023311668E+02 -0.93685408592E+02  0.21103685427E+02  0.10969864585E+03  0.00000000000E+00 0. -1.
         21    1    1    2  504  501  0.43833407074E+02 -0.16673668920E+03 -0.32059409767E+02  0.17535762560E+03  0.00000000000E+00 0. -1.
<mgrwt>
<rscale>  4 0.30467342E+03</rscale>
<asrwt>0</asrwt>
<pdfrwt beam="1">  1       21 0.48334660E-01 0.30467342E+03</pdfrwt>
<pdfrwt beam="2">  1       21 0.42926689E-01 0.30467342E+03</pdfrwt>
<totfact> 0.20204801E+04</totfact>
</mgrwt>
</event>
<event>
 5    0  0.2159162E+000  0.2813932E+03  0.7546771E-02  0.1094930E+00
         21   -1    0    0  502  501  0.00000000000E+00  0.00000000000E+00  0.24979346083E+03  0.24979346083E+03  0.00000000000E+00 0. -1.
         21   -1    0    0  503  502 -0.00000000000E+00 -0.00000000000E+00 -0.43316853618E+03  0.43316853618E+03  0.00000000000E+00 0.  1.
         25    1    1    2    0    0 -0.70653091254E+02  0.24200258779E+03  0.97285493865E+02  0.29773575384E+03  0.12500000000E+03 0.  0.
         21    1    1    2  503  504  0.39108013295E+01 -0.81612889620E+02 -0.47658479924E+02  0.94590109567E+02  0.00000000000E+00 0.  1.
         21    1    1    2  504  501  0.66742289925E+02 -0.16038969817E+03 -0.23300208929E+03  0.29063613360E+03  0.00000000000E+00 0.  1.
<mgrwt>
<rscale>  4 0.28139316E+03</rscale>
<asrwt>0</asrwt>
<pdfrwt beam="1">  1       21 0.38429764E-01 0.28139316E+03</pdfrwt>
<pdfrwt beam="2">  1       21 0.66641313E-01 0.28139316E+03</pdfrwt>
<totfact> 0.12825398E+04</totfact>
</mgrwt>
</event>
<event>
 5    0  0.2714414E+000  0.2566724E+03  0.7546771E-02  0.1109159E+00
         21   -1    0    0  502  501  0.00000000000E+00  0.00000000000E+00  0.89148107561E+03  0.89148107561E+03  0.00000000000E+00 0. -1.
         21   -1    0    0  503  502 -0.00000000000E+00 -0.00000000000E+00 -0.76939932267E+02  0.76939932267E+02  0.00000000000E+00 0. -1.
         25    1    1    2    0    0  0.25937463182E+02  0.22267229240E+03  0.60514128168E+03  0.65732539323E+03  0.12500000000E+03 0.  0.
         21    1    1    2  503  504 -0.16073587723E+02 -0.31014831072E+02  0.53241212579E+02  0.63678149200E+02  0.00000000000E+00 0. -1.
         21    1    1    2  504  501 -0.98638754597E+01 -0.19165746133E+03  0.15615864908E+03  0.24741746544E+03  0.00000000000E+00 0. -1.
<mgrwt>
<rscale>  4 0.25667236E+03</rscale>
<asrwt>0</asrwt>
<pdfrwt beam="1">  1       21 0.13715093E+00 0.25667236E+03</pdfrwt>
<pdfrwt beam="2">  1       21 0.11836913E-01 0.25667236E+03</pdfrwt>
<totfact> 0.21864496E+04</totfact>
</mgrwt>
</event>
<event>
 5    0  0.2244401E+000  0.3279616E+03  0.7546771E-02  0.1072042E+00
         21   -1    0    0  502  501  0.00000000000E+00  0.00000000000E+00  0.45537981731E+03  0.45537981731E+03  0.00000000000E+00 0. -1.
         21   -1    0    0  503  502 -0.00000000000E+00 -0.00000000000E+00 -0.23738309622E+03  0.23738309622E+03  0.00000000000E+00 0. -1.
         25    1    1    2    0    0 -0.95664611658E+02 -0.28771880721E+03  0.20327206752E+03  0.38584759087E+03  0.12500000000E+03 0.  0.
         21    1    1    2  503  504  0.95910801615E+02  0.23734102206E+03  0.16365935350E+02  0.25651020732E+03  0.00000000000E+00 0. -1.
         21    1    1    2  504  501 -0.24618995712E+00  0.50377785148E+02 -0.16412817807E+01  0.50405115334E+02  0.00000000000E+00 0. -1.
<mgrwt>
<rscale>  4 0.32796163E+03</rscale>
<asrwt>0</asrwt>
<pdfrwt beam="1">  1       21 0.70058433E-01 0.32796163E+03</pdfrwt>
<pdfrwt beam="2">  1       21 0.36520476E-01 0.32796163E+03</pdfrwt>
<totfact> 0.12472867E+04</totfact>
</mgrwt>
</event>
