<event>
 5    0  0.1911311E+001  0.3875347E+03  0.7546771E-02  0.1048184E+00
         21   -1    0    0  504  501  0.00000000000E+00  0.00000000000E+00  0.94890829402E+03  0.94890829402E+03  0.00000000000E+00 0. -1.
         21   -1    0    0  503  502 -0.00000000000E+00 -0.00000000000E+00 -0.38274147656E+03  0.38274147656E+03  0.00000000000E+00 0. -1.
         25    1    1    2    0    0 -0.14828752379E+02 -0.43381883119E+03  0.52980813881E+03  0.69623295968E+03  0.12500000000E+03 0.  0.
         21    1    1    2  503  501  0.42179677276E+02  0.35266514329E+03 -0.18327561042E+03  0.39967709197E+03  0.00000000000E+00 0. -1.
         21    1    1    2  504  502 -0.27350924896E+02  0.81153687896E+02  0.21963428907E+03  0.23573971894E+03  0.00000000000E+00 0. -1.
<mgrwt>
<rscale>  4 0.38753472E+03</rscale>
<asrwt>0</asrwt>
<pdfrwt beam="1">  1       21 0.14598589E+00 0.38753472E+03</pdfrwt>
<pdfrwt beam="2">  1       21 0.58883304E-01 0.38753472E+03</pdfrwt>
<totfact> 0.74934135E+02</totfact>
</mgrwt>
</event>
<event>
 5    0  0.1911311E+001  0.1893401E+03  0.7546771E-02  0.1159058E+00
         21   -1    0    0  502  501  0.00000000000E+00  0.00000000000E+00  0.11584406633E+04  0.11584406633E+04  0.00000000000E+00 0.  1.
         21   -1    0    0  504  502 -0.00000000000E+00 -0.00000000000E+00 -0.11165570976E+03  0.11165570976E+03  0.00000000000E+00 0.  1.
         25    1    1    2    0    0 -0.10910990372E+03 -0.18440451252E+03  0.27729537403E+03  0.37205875851E+03  0.12500000000E+03 0.  0.
         21    1    1    2  503  501  0.10268247397E+03  0.87194638669E+02  0.78752235746E+03  0.79896061165E+03  0.00000000000E+00 0.  1.
         21    1    1    2  504  503  0.64274297484E+01  0.97209873847E+02 -0.18032777937E+02  0.99077002915E+02  0.00000000000E+00 0.  1.
<mgrwt>
<rscale>  4 0.18934012E+03</rscale>
<asrwt>0</asrwt>
<pdfrwt beam="1">  1       21 0.17822163E+00 0.18934012E+03</pdfrwt>
<pdfrwt beam="2">  1       21 0.17177802E-01 0.18934012E+03</pdfrwt>
<totfact> 0.57434708E+03</totfact>
</mgrwt>
</event>
<event>
 5    0  0.1911311E+001  0.3837976E+03  0.7546771E-02  0.1049539E+00
         21   -1    0    0  502  501  0.00000000000E+00  0.00000000000E+00  0.88556986026E+03  0.88556986026E+03  0.00000000000E+00 0.  1.
         21   -1    0    0  504  502 -0.00000000000E+00 -0.00000000000E+00 -0.64803932383E+03  0.64803932383E+03  0.00000000000E+00 0.  1.
         25    1    1    2    0    0 -0.33238387145E+03 -0.19529418560E+03 -0.47701288255E+03  0.62592742954E+03  0.12500000000E+03 0.  0.
         21    1    1    2  503  501  0.30959135234E+03  0.18609230436E+03  0.76807680415E+03  0.84877507519E+03  0.00000000000E+00 0.  1.
         21    1    1    2  504  503  0.22792519118E+02  0.92018812316E+01 -0.53533385165E+02  0.58906679360E+02  0.00000000000E+00 0. -1.
<mgrwt>
<rscale>  4 0.38379765E+03</rscale>
<asrwt>0</asrwt>
<pdfrwt beam="1">  1       21 0.13624152E+00 0.38379765E+03</pdfrwt>
<pdfrwt beam="2">  1       21 0.99698357E-01 0.38379765E+03</pdfrwt>
<totfact> 0.27053302E+02</totfact>
</mgrwt>
</event>
<event>
 5    0  0.3158410E+001  0.2540542E+03  0.7546771E-02  0.1110769E+00
         21   -1    0    0  503  501  0.00000000000E+00  0.00000000000E+00  0.21031593405E+03  0.21031593405E+03  0.00000000000E+00 0.  1.
         21   -1    0    0  504  502 -0.00000000000E+00 -0.00000000000E+00 -0.75061525671E+03  0.75061525671E+03  0.00000000000E+00 0. -1.
         25    1    1    2    0    0 -0.17581019752E+03 -0.10083335429E+03 -0.62872124195E+03  0.67230349618E+03  0.12500000000E+03 0.  0.
         21    1    1    2  503  502 -0.59242063490E+01 -0.28781493179E+02 -0.24693510572E+02  0.38382809106E+02  0.00000000000E+00 0.  1.
         21    1    1    2  504  501  0.18173440387E+03  0.12961484747E+03  0.11311542987E+03  0.25024488548E+03  0.00000000000E+00 0.  1.
<mgrwt>
<rscale>  4 0.25405417E+03</rscale>
<asrwt>0</asrwt>
<pdfrwt beam="1">  1       21 0.32356297E-01 0.25405417E+03</pdfrwt>
<pdfrwt beam="2">  1       21 0.11547927E+00 0.25405417E+03</pdfrwt>
<totfact> 0.51044032E+03</totfact>
</mgrwt>
</event>
