<event>
 5    0  0.1911311E+001  0.2934090E+03  0.7546771E-02  0.1088583E+00
         21   -1    0    0  504  501  0.00000000000E+00  0.00000000000E+00  0.94218372217E+03  0.94218372217E+03  0.00000000000E+00 0.  1.
         21   -1    0    0  503  502 -0.00000000000E+00 -0.00000000000E+00 -0.64992353406E+03  0.64992353406E+03  0.00000000000E+00 0.  1.
         25    1    1    2    0    0 -0.53086932117E+02  0.28866713250E+03  0.76348760553E+03  0.82745710435E+03  0.12500000000E+03 0.  0.
         21    1    1    2  503  501  0.50788347053E+02 -0.25952717352E+03 -0.58775763130E+03  0.64450976962E+03  0.00000000000E+00 0.  1.
         21    1    1    2  504  502  0.22985850634E+01 -0.29139958979E+02  0.11653021388E+03  0.12014038226E+03  0.00000000000E+00 0.  1.
<mgrwt>
<rscale>  4 0.29340898E+03</rscale>
<asrwt>0</asrwt>
<pdfrwt beam="1">  1       21 0.14495134E+00 0.29340898E+03</pdfrwt>
<pdfrwt beam="2">  1       21 0.99988237E-01 0.29340898E+03</pdfrwt>
<totfact> 0.24271826E+02</totfact>
</mgrwt>
</event>
<event>
 5    0  0.1911311E+001  0.3601704E+03  0.7546771E-02  0.1058516E+00
         21   -1    0    0  502  501  0.00000000000E+00  0.00000000000E+00  0.12833948215E+03  0.12833948215E+03  0.00000000000E+00 0. -1.
         21   -1    0    0  504  502 -0.00000000000E+00 -0.00000000000E+00 -0.25213868036E+04  0.25213868036E+04  0.00000000000E+00 0.  1.
         25    1    1    2    0    0 -0.33898179561E+03 -0.72780057719E+02 -0.24748665931E+03  0.44393720399E+03  0.12500000000E+03 0.  0.
         21    1    1    2  503  501  0.57823691972E+01  0.24441959336E+02  0.77736465669E+01  0.26292104340E+02  0.00000000000E+00 0.  1.
         21    1    1    2  504  503  0.33319942641E+03  0.48338098384E+02 -0.21533343087E+04  0.21794969774E+04  0.00000000000E+00 0.  1.
<mgrwt>
<rscale>  4 0.36017040E+03</rscale>
<asrwt>0</asrwt>
<pdfrwt beam="1">  1       21 0.19744536E-01 0.36017040E+03</pdfrwt>
<pdfrwt beam="2">  1       21 0.38790565E+00 0.36017040E+03</pdfrwt>
<totfact> 0.20001860E+02</totfact>
</mgrwt>
</event>
<event>
 5    0  0.1911311E+001  0.1833089E+03  0.7546771E-02  0.1164639E+00
         21   -1    0    0  504  501  0.00000000000E+00  0.00000000000E+00  0.11048810038E+03  0.11048810038E+03  0.00000000000E+00 0.  1.
         21   -1    0    0  501  502 -0.00000000000E+00 -0.00000000000E+00 -0.86685263473E+03  0.86685263473E+03  0.00000000000E+00 0.  1.
         25    1    1    2    0    0  0.17179160529E+03 -0.11106066134E+03 -0.12674937093E+03  0.27117748649E+03  0.12500000000E+03 0.  0.
         21    1    1    2  503  502 -0.86033453205E+02  0.60696042649E+02 -0.47316110457E+02  0.11543214012E+03  0.00000000000E+00 0.  1.
         21    1    1    2  504  503 -0.85758152089E+02  0.50364618693E+02 -0.58229905297E+03  0.59073110851E+03  0.00000000000E+00 0.  1.
<mgrwt>
<rscale>  4 0.18330887E+03</rscale>
<asrwt>0</asrwt>
<pdfrwt beam="1">  1       21 0.16998169E-01 0.18330887E+03</pdfrwt>
<pdfrwt beam="2">  1       21 0.13336195E+00 0.18330887E+03</pdfrwt>
<totfact> 0.12727915E+04</totfact>
</mgrwt>
</event>
<event>
 5    0  0.1911311E+001  0.3275291E+03  0.7546771E-02  0.1072235E+00
         21   -1    0    0  502  501  0.00000000000E+00  0.00000000000E+00  0.10153176328E+04  0.10153176328E+04  0.00000000000E+00 0. -1.
         21   -1    0    0  504  502 -0.00000000000E+00 -0.00000000000E+00 -0.17084459270E+03  0.17084459270E+03  0.00000000000E+00 0. -1.
         25    1    1    2    0    0 -0.70898547519E+02  0.35912789946E+03  0.31959810285E+03  0.50176428685E+03  0.12500000000E+03 0.  0.
         21    1    1    2  503  501 -0.58916584432E+01 -0.27947570092E+03  0.49712890635E+03  0.57033194595E+03  0.00000000000E+00 0. -1.
         21    1    1    2  504  503  0.76790205962E+02 -0.79652198538E+02  0.27746030921E+02  0.11406599272E+03  0.00000000000E+00 0. -1.
<mgrwt>
<rscale>  4 0.32752905E+03</rscale>
<asrwt>0</asrwt>
<pdfrwt beam="1">  1       21 0.15620271E+00 0.32752905E+03</pdfrwt>
<pdfrwt beam="2">  1       21 0.26283784E-01 0.32752905E+03</pdfrwt>
<totfact> 0.33660083E+03</totfact>
</mgrwt>
</event>
