<event>
 5    0  0.2159162E+000  0.2747810E+03  0.7546771E-02  0.1098574E+00
         21   -1    0    0  502  501  0.00000000000E+00  0.00000000000E+00  0.24331552440E+04  0.24331552440E+04  0.00000000000E+00 0. -1.
         21   -1    0    0  503  502 -0.00000000000E+00 -0.00000000000E+00 -0.82808933696E+03  0.82808933696E+03  0.00000000000E+00 0. -1.
         25    1    1    2    0    0 -0.64877008325E+02 -0.23692807379E+03  0.23435647289E+04  0.23597170544E+04  0.12500000000E+03 0.  0.
         21    1    1    2  503  504  0.55419495008E+02  0.81513663544E+02  0.40908070864E+02  0.10672051365E+03  0.00000000000E+00 0. -1.
         21    1    1    2  504  501  0.94575133172E+01  0.15541441025E+03 -0.77940689268E+03  0.79480701295E+03  0.00000000000E+00 0. -1.
<mgrwt>
<rscale>  4 0.27478102E+03</rscale>
<asrwt>0</asrwt>
<pdfrwt beam="1">  1       21 0.37433157E+00 0.27478102E+03</pdfrwt>
<pdfrwt beam="2">  1       21 0.12739836E+00 0.27478102E+03</pdfrwt>
<totfact> 0.48998408E+00</totfact>
</mgrwt>
</event>
<event>
 5    0  0.2207098E+000  0.2474980E+03  0.7546771E-02  0.1114896E+00
         21   -1    0    0  502  501  0.00000000000E+00  0.00000000000E+00  0.15308202402E+04  0.15308202402E+04  0.00000000000E+00 0. -1.
         21   -1    0    0  503  502 -0.00000000000E+00 -0.00000000000E+00 -0.10352157432E+03  0.10352157432E+03  0.00000000000E+00 0. -1.
         25    1    1    2    0    0  0.17870440741E+03 -0.11702571219E+03  0.13852505532E+04  0.14071866890E+04  0.12500000000E+03 0.  0.
         21    1    1    2  503  504 -0.15666416218E+03  0.11994743715E+03  0.49994214229E+02  0.20354475883E+03  0.00000000000E+00 0. -1.
         21    1    1    2  504  501 -0.22040245233E+02 -0.29217249576E+01 -0.79461015359E+01  0.23610366712E+02  0.00000000000E+00 0. -1.
<mgrwt>
<rscale>  4 0.24749805E+03</rscale>
<asrwt>0</asrwt>
<pdfrwt beam="1">  1       21 0.23551079E+00 0.24749805E+03</pdfrwt>
<pdfrwt beam="2">  1       21 0.15926397E-01 0.24749805E+03</pdfrwt>
<totfact> 0.27028523E+03</totfact>
</mgrwt>
</event>
<event>
 5    0  0.2159162E+000  0.2180027E+03  0.7546771E-02  0.1135381E+00
         21   -1    0    0  502  501  0.00000000000E+00  0.00000000000E+00  0.19190612681E+03  0.19190612681E+03  0.00000000000E+00 0. -1.
         21   -1    0    0  503  502 -0.00000000000E+00 -0.00000000000E+00 -0.36827536567E+03  0.36827536567E+03  0.00000000000E+00 0. -1.
         25    1    1    2    0    0  0.10405310928E+03  0.20040791572E+03 -0.13322771876E+03  0.29045654973E+03  0.12500000000E+03 0.  0.
         21    1    1    2  503  504 -0.97592510441E+02 -0.13206692103E+03  0.32692634071E+02  0.16743589235E+03  0.00000000000E+00 0. -1.
         21    1    1    2  504  501 -0.64605988404E+01 -0.68340994695E+02 -0.75834154175E+02  0.10228905040E+03  0.00000000000E+00 0. -1.
<mgrwt>
<rscale>  4 0.21800268E+03</rscale>
<asrwt>0</asrwt>
<pdfrwt beam="1">  1       21 0.29524019E-01 0.21800268E+03</pdfrwt>
<pdfrwt beam="2">  1       21 0.56657749E-01 0.21800268E+03</pdfrwt>
<totfact> 0.31766913E+04</totfact>
</mgrwt>
</event>
<event>
 5    0  0.2159162E+000  0.2704543E+03  0.7546771E-02  0.1101020E+00
         21   -1    0    0  502  501  0.00000000000E+00  0.00000000000E+00  0.14106522783E+04  0.14106522783E+04  0.00000000000E+00 0.  1.
         21   -1    0    0  503  502 -0.00000000000E+00 -0.00000000000E+00 -0.10499090652E+03  0.10499090652E+03  0.00000000000E+00 0.  1.
         25    1    1    2    0    0 -0.20850432017E+03  0.11851777684E+03  0.12313382190E+04  0.12606900192E+04  0.12500000000E+03 0.  0.
         21    1    1    2  503  504  0.41296231278E+02 -0.43781291975E+02  0.11114392778E+02  0.61202205611E+02  0.00000000000E+00 0.  1.
         21    1    1    2  504  501  0.16720808889E+03 -0.74736484868E+02  0.63208760007E+02  0.19375096000E+03  0.00000000000E+00 0.  1.
<mgrwt>
<rscale>  4 0.27045428E+03</rscale>
<asrwt>0</asrwt>
<pdfrwt beam="1">  1       21 0.21702341E+00 0.27045428E+03</pdfrwt>
<pdfrwt beam="2">  1       21 0.16152448E-01 0.27045428E+03</pdfrwt>
<totfact> 0.33627627E+03</totfact>
</mgrwt>
</event>
<event>
 5    0  0.2159162E+000  0.2578206E+03  0.7546771E-02  0.1108460E+00
         21   -1    0    0  502  501  0.00000000000E+00  0.00000000000E+00  0.28668867033E+03  0.28668867033E+03  0.00000000000E+00 0. -1.
         21   -1    0    0  503  502 -0.00000000000E+00 -0.00000000000E+00 -0.12582449639E+04  0.12582449639E+04  0.00000000000E+00 0. -1.
         25    1    1    2    0    0 -0.18709528568E+03  0.12491201243E+03  0.20912335704E+03  0.33161006504E+03  0.12500000000E+03 0.  0.
         21    1    1    2  503  504  0.21356635113E+03 -0.10345193536E+03 -0.11069410802E+04  0.11320916237E+04  0.00000000000E+00 0. -1.
         21    1    1    2  504  501 -0.26471065446E+02 -0.21460077076E+02 -0.73738570384E+02  0.81231945540E+02  0.00000000000E+00 0. -1.
<mgrwt>
<rscale>  4 0.25782061E+03</rscale>
<asrwt>0</asrwt>
<pdfrwt beam="1">  1       21 0.44105949E-01 0.25782061E+03</pdfrwt>
<pdfrwt beam="2">  1       21 0.19357615E+00 0.25782061E+03</pdfrwt>
<totfact> 0.68296294E+02</totfact>
</mgrwt>
</event>
<event>
 5    0  0.2159162E+000  0.2457516E+03  0.7546771E-02  0.1116020E+00
         21   -1    0    0  502  501  0.00000000000E+00  0.00000000000E+00  0.63374731659E+02  0.63374731659E+02  0.00000000000E+00 0.  1.
         21   -1    0    0  503  502 -0.00000000000E+00 -0.00000000000E+00 -0.99307866901E+03  0.99307866901E+03  0.00000000000E+00 0. -1.
         25    1    1    2    0    0 -0.20457348929E+03  0.54023287479E+02 -0.29321030817E+03  0.38257824419E+03  0.12500000000E+03 0.  0.
         21    1    1    2  503  504  0.18924871592E+03 -0.28468494426E+02 -0.54204982657E+03  0.57484219238E+03  0.00000000000E+00 0. -1.
         21    1    1    2  504  501  0.15324773377E+02 -0.25554793053E+02 -0.94443802620E+02  0.99032964109E+02  0.00000000000E+00 0. -1.
<mgrwt>
<rscale>  4 0.24575156E+03</rscale>
<asrwt>0</asrwt>
<pdfrwt beam="1">  1       21 0.97499590E-02 0.24575156E+03</pdfrwt>
<pdfrwt beam="2">  1       21 0.15278133E+00 0.24575156E+03</pdfrwt>
<totfact> 0.23399743E+04</totfact>
</mgrwt>
</event>
<event>
 5    0  0.2159162E+000  0.2375603E+03  0.7546771E-02  0.1121429E+00
         21   -1    0    0  502  501  0.00000000000E+00  0.00000000000E+00  0.12838519606E+04  0.12838519606E+04  0.00000000000E+00 0. -1.
         21   -1    0    0  503  502 -0.00000000000E+00 -0.00000000000E+00 -0.69067611854E+02  0.69067611854E+02  0.00000000000E+00 0. -1.
         25    1    1    2    0    0  0.16676652694E+03 -0.13407778870E+03  0.37571299616E+03  0.45008130756E+03  0.12500000000E+03 0.  0.
         21    1    1    2  503  504  0.23152567216E+02  0.68028804723E+02  0.47532136857E+02  0.86158363929E+02  0.00000000000E+00 0. -1.
         21    1    1    2  504  501 -0.18991909416E+03  0.66048983974E+02  0.79153921578E+03  0.81667990102E+03  0.00000000000E+00 0. -1.
<mgrwt>
<rscale>  4 0.23756035E+03</rscale>
<asrwt>0</asrwt>
<pdfrwt beam="1">  1       21 0.19751567E+00 0.23756035E+03</pdfrwt>
<pdfrwt beam="2">  1       21 0.10625787E-01 0.23756035E+03</pdfrwt>
<totfact> 0.98041446E+03</totfact>
</mgrwt>
</event>
<event>
 5    0  0.2159162E+000  0.3033681E+03  0.7546771E-02  0.1083569E+00
         21   -1    0    0  502  501  0.00000000000E+00  0.00000000000E+00  0.91523853452E+03  0.91523853452E+03  0.00000000000E+00 0. -1.
         21   -1    0    0  503  502 -0.00000000000E+00 -0.00000000000E+00 -0.27483254119E+03  0.27483254119E+03  0.00000000000E+00 0. -1.
         25    1    1    2    0    0  0.21073978556E+03  0.17925113180E+03  0.79902104699E+03  0.85475251331E+03  0.12500000000E+03 0.  0.
         21    1    1    2  503  504 -0.14687085423E+02  0.13621325198E+02 -0.66541705882E+01  0.21107557049E+02  0.00000000000E+00 0. -1.
         21    1    1    2  504  501 -0.19605270014E+03 -0.19287245700E+03 -0.15196088307E+03  0.31421100535E+03  0.00000000000E+00 0. -1.
<mgrwt>
<rscale>  4 0.30336814E+03</rscale>
<asrwt>0</asrwt>
<pdfrwt beam="1">  1       21 0.14080593E+00 0.30336814E+03</pdfrwt>
<pdfrwt beam="2">  1       21 0.42281930E-01 0.30336814E+03</pdfrwt>
<totfact> 0.17424477E+03</totfact>
</mgrwt>
</event>
<event>
 5    0  0.2159162E+000  0.2521560E+03  0.7546771E-02  0.1111950E+00
         21   -1    0    0  502  501  0.00000000000E+00  0.00000000000E+00  0.41238500152E+03  0.41238500152E+03  0.00000000000E+00 0. -1.
         21   -1    0    0  503  502 -0.00000000000E+00 -0.00000000000E+00 -0.49529333398E+03  0.49529333398E+03  0.00000000000E+00 0. -1.
         25    1    1    2    0    0 -0.20829096203E+03  0.75076245902E+02  0.33909721383E+03  0.42383191006E+03  0.12500000000E+03 0.  0.
         21    1    1    2  503  504  0.19028921384E+03 -0.61522594339E+02 -0.30519429354E+03  0.36488158535E+03  0.00000000000E+00 0. -1.
         21    1    1    2  504  501  0.18001748190E+02 -0.13553651563E+02 -0.11681125275E+03  0.11896484009E+03  0.00000000000E+00 0.  1.
<mgrwt>
<rscale>  4 0.25215600E+03</rscale>
<asrwt>0</asrwt>
<pdfrwt beam="1">  1       21 0.63443847E-01 0.25215600E+03</pdfrwt>
<pdfrwt beam="2">  1       21 0.76198974E-01 0.25215600E+03</pdfrwt>
<totfact> 0.33724156E+03</totfact>
</mgrwt>
</event>
<event>
 5    0  0.1022791E+001  0.3504111E+03  0.7546771E-02  0.1062446E+00
         21   -1    0    0  502  501  0.00000000000E+00  0.00000000000E+00  0.17698718376E+03  0.17698718376E+03  0.00000000000E+00 0.  1.
         21   -1    0    0  503  502 -0.00000000000E+00 -0.00000000000E+00 -0.74751306833E+03  0.74751306833E+03  0.00000000000E+00 0.  1.
         25    1    1    2    0    0  0.78741207224E+01 -0.32726279934E+03 -0.13737344635E+03  0.37637668017E+03  0.12500000000E+03 0.  0.
         21    1    1    2  503  504 -0.22139452676E+02  0.28231813440E+03 -0.40153986516E+03  0.49135318020E+03  0.00000000000E+00 0.  1.
         21    1    1    2  504  501  0.14265331954E+02  0.44944664937E+02 -0.31612573050E+02  0.56770391727E+02  0.00000000000E+00 0. -1.
<mgrwt>
<rscale>  4 0.35041110E+03</rscale>
<asrwt>0</asrwt>
<pdfrwt beam="1">  1       21 0.27228797E-01 0.35041110E+03</pdfrwt>
<pdfrwt beam="2">  1       21 0.11500201E+00 0.35041110E+03</pdfrwt>
<totfact> 0.68925183E+03</totfact>
</mgrwt>
</event>
<event>
 5    0  0.2159162E+000  0.2993492E+03  0.7546771E-02  0.1085566E+00
         21   -1    0    0  502  501  0.00000000000E+00  0.00000000000E+00  0.57248075648E+03  0.57248075648E+03  0.00000000000E+00 0.  1.
         21   -1    0    0  503  502 -0.00000000000E+00 -0.00000000000E+00 -0.10773051041E+04  0.10773051041E+04  0.00000000000E+00 0.  1.
         25    1    1    2    0    0 -0.55822851047E+02 -0.28174414917E+03  0.50162392158E+03  0.59139455103E+03  0.12500000000E+03 0.  0.
         21    1    1    2  503  504 -0.33920898495E+02  0.15444557474E+03 -0.35571243708E+03  0.38927548190E+03  0.00000000000E+00 0.  1.
         21    1    1    2  504  501  0.89743749542E+02  0.12729857442E+03 -0.65073583208E+03  0.66911582763E+03  0.00000000000E+00 0.  1.
<mgrwt>
<rscale>  4 0.29934924E+03</rscale>
<asrwt>0</asrwt>
<pdfrwt beam="1">  1       21 0.88073963E-01 0.29934924E+03</pdfrwt>
<pdfrwt beam="2">  1       21 0.16573925E+00 0.29934924E+03</pdfrwt>
<totfact> 0.22675635E+02</totfact>
</mgrwt>
</event>
