<event>
 5    0  0.1911311E+001  0.2527852E+03  0.7546771E-02  0.1111557E+00
         21   -1    0    0  502  501  0.00000000000E+00  0.00000000000E+00  0.10882231707E+04  0.10882231707E+04  0.00000000000E+00 0. -1.
         21   -1    0    0  504  502 -0.00000000000E+00 -0.00000000000E+00 -0.10565041240E+04  0.10565041240E+04  0.00000000000E+00 0.  1.
         25    1    1    2    0    0 -0.21327608419E+03  0.17245263233E+03  0.24353846985E+03  0.38750817383E+03  0.12500000000E+03 0.  0.
         21    1    1    2  503  501  0.44032796644E+02 -0.35626006730E+02  0.75960517645E+03  0.76171393819E+03  0.00000000000E+00 0. -1.
         21    1    1    2  504  503  0.16924328755E+03 -0.13682662560E+03 -0.97142459961E+03  0.99550518260E+03  0.00000000000E+00 0.  1.
<mgrwt>
<rscale>  4 0.25278518E+03</rscale>
<asrwt>0</asrwt>
<pdfrwt beam="1">  1       21 0.16741895E+00 0.25278518E+03</pdfrwt>
<pdfrwt beam="2">  1       21 0.16253910E+00 0.25278518E+03</pdfrwt>
<totfact> 0.49493641E+01</totfact>
</mgrwt>
</event>
<event>
 5    0  0.1911311E+001  0.2232947E+03  0.7546771E-02  0.1131450E+00
         21   -1    0    0  503  501  0.00000000000E+00  0.00000000000E+00  0.27605499094E+03  0.27605499094E+03  0.00000000000E+00 0. -1.
         21   -1    0    0  501  502 -0.00000000000E+00 -0.00000000000E+00 -0.93487593246E+03  0.93487593246E+03  0.00000000000E+00 0. -1.
         25    1    1    2    0    0 -0.19258820949E+03 -0.87375941863E+02 -0.83935398997E+03  0.87456554593E+03  0.12500000000E+03 0.  0.
         21    1    1    2  503  504  0.10017637788E+03  0.52099842010E+02 -0.18204085915E+02  0.11437258835E+03  0.00000000000E+00 0. -1.
         21    1    1    2  504  502  0.92411831604E+02  0.35276099853E+02  0.19873713437E+03  0.22199278912E+03  0.00000000000E+00 0. -1.
<mgrwt>
<rscale>  4 0.22329471E+03</rscale>
<asrwt>0</asrwt>
<pdfrwt beam="1">  1       21 0.42469998E-01 0.22329471E+03</pdfrwt>
<pdfrwt beam="2">  1       21 0.14382707E+00 0.22329471E+03</pdfrwt>
<totfact> 0.17301826E+03</totfact>
</mgrwt>
</event>
<event>
 5    0  0.1911311E+001  0.3169336E+03  0.7546771E-02  0.1077069E+00
         21   -1    0    0  502  501  0.00000000000E+00  0.00000000000E+00  0.60647930369E+03  0.60647930369E+03  0.00000000000E+00 0. -1.
         21   -1    0    0  504  502 -0.00000000000E+00 -0.00000000000E+00 -0.40234596251E+03  0.40234596251E+03  0.00000000000E+00 0. -1.
         25    1    1    2    0    0 -0.14873671406E+03  0.23939483342E+03  0.45075269320E+03  0.54610940919E+03  0.12500000000E+03 0.  0.
         21    1    1    2  503  501 -0.24080900453E+02 -0.34325861370E+01  0.44078989685E+02  0.50345106474E+02  0.00000000000E+00 0.  1.
         21    1    1    2  504  503  0.17281761451E+03 -0.23596224729E+03 -0.29069834170E+03  0.41237075054E+03  0.00000000000E+00 0. -1.
<mgrwt>
<rscale>  4 0.31693365E+03</rscale>
<asrwt>0</asrwt>
<pdfrwt beam="1">  1       21 0.93304508E-01 0.31693365E+03</pdfrwt>
<pdfrwt beam="2">  1       21 0.61899379E-01 0.31693365E+03</pdfrwt>
<totfact> 0.21454748E+03</totfact>
</mgrwt>
</event>
<event>
 5    0  0.1911311E+001  0.2381567E+03  0.7546771E-02  0.1121027E+00
         21   -1    0    0  503  501  0.00000000000E+00  0.00000000000E+00  0.39561768958E+03  0.39561768958E+03  0.00000000000E+00 0. -1.
         21   -1    0    0  504  502 -0.00000000000E+00 -0.00000000000E+00 -0.13557561948E+03  0.13557561948E+03  0.00000000000E+00 0. -1.
         25    1    1    2    0    0  0.19339920730E+03  0.60748352707E+02  0.17367972912E+03  0.29475967168E+03  0.12500000000E+03 0.  0.
         21    1    1    2  503  502 -0.11353288608E+03 -0.34119191673E+02  0.39386904097E+01  0.11861428559E+03  0.00000000000E+00 0. -1.
         21    1    1    2  504  501 -0.79866321221E+02 -0.26629161034E+02  0.82423650568E+02  0.11781935179E+03  0.00000000000E+00 0.  1.
<mgrwt>
<rscale>  4 0.23815670E+03</rscale>
<asrwt>0</asrwt>
<pdfrwt beam="1">  1       21 0.60864260E-01 0.23815670E+03</pdfrwt>
<pdfrwt beam="2">  1       21 0.20857788E-01 0.23815670E+03</pdfrwt>
<totfact> 0.52521850E+04</totfact>
</mgrwt>
</event>
