<event>
 5    0  0.3372079E-003  0.6622575E+03  0.7546771E-02  0.9784047E-01
         21   -1    0    0  501  502  0.00000000000E+00  0.00000000000E+00  0.38380102618E+03  0.38380102618E+03  0.00000000000E+00 0. -1.
         21   -1    0    0  502  503 -0.00000000000E+00 -0.00000000000E+00 -0.28568511740E+03  0.28568511740E+03  0.00000000000E+00 0. -1.
         25    1    1    2    0    0  0.16126237514E+03  0.24264244702E+03  0.11292817225E+03  0.33653927382E+03  0.12500000000E+03 0.  0.
          2    1    1    2  501    0 -0.10894322264E+03 -0.24731930059E+03  0.18273129378E+02  0.27086780810E+03  0.00000000000E+00 0.  1.
         -2    1    1    2    0  503 -0.52319152500E+02  0.46768535739E+01 -0.33085392855E+02  0.62079061672E+02  0.00000000000E+00 0. -1.
<mgrwt>
<rscale>  4 0.66225748E+03</rscale>
<asrwt>0</asrwt>
<pdfrwt beam="1">  1       21 0.59046311E-01 0.66225748E+03</pdfrwt>
<pdfrwt beam="2">  1       21 0.43951557E-01 0.66225748E+03</pdfrwt>
<totfact> 0.11372326E+04</totfact>
</mgrwt>
</event>
<event>
 5    0  0.3372079E-003  0.4876447E+03  0.7546771E-02  0.1017055E+00
         21   -1    0    0  501  502  0.00000000000E+00  0.00000000000E+00  0.19020086324E+03  0.19020086324E+03  0.00000000000E+00 0. -1.
         21   -1    0    0  502  503 -0.00000000000E+00 -0.00000000000E+00 -0.31256083415E+03  0.31256083415E+03  0.00000000000E+00 0. -1.
         25    1    1    2    0    0 -0.71667623544E+02  0.19173124699E+03  0.13384308858E+02  0.24021086374E+03  0.12500000000E+03 0.  0.
          4    1    1    2  501    0 -0.10309597197E+02 -0.10292067735E+03 -0.54445040809E+02  0.11688976041E+03  0.00000000000E+00 0.  1.
         -4    1    1    2    0  503  0.81977220740E+02 -0.88810569642E+02 -0.81299238955E+02  0.14566107323E+03  0.00000000000E+00 0. -1.
<mgrwt>
<rscale>  4 0.48764471E+03</rscale>
<asrwt>0</asrwt>
<pdfrwt beam="1">  1       21 0.29261672E-01 0.48764471E+03</pdfrwt>
<pdfrwt beam="2">  1       21 0.48086282E-01 0.48764471E+03</pdfrwt>
<totfact> 0.42093547E+04</totfact>
</mgrwt>
</event>
<event>
 5    0  0.3372079E-003  0.8176176E+03  0.7546771E-02  0.9534861E-01
         21   -1    0    0  501  502  0.00000000000E+00  0.00000000000E+00  0.51025772545E+03  0.51025772545E+03  0.00000000000E+00 0.  1.
         21   -1    0    0  502  503 -0.00000000000E+00 -0.00000000000E+00 -0.32752982329E+03  0.32752982329E+03  0.00000000000E+00 0.  1.
         25    1    1    2    0    0  0.35933349550E+03  0.16951726460E+02 -0.76147624780E+02  0.38837016206E+03  0.12500000000E+03 0.  0.
          2    1    1    2  501    0 -0.98033704617E+02 -0.33819395535E+00  0.11335931979E+03  0.14987013378E+03  0.00000000000E+00 0. -1.
         -2    1    1    2    0  503 -0.26129979088E+03 -0.16613532505E+02  0.14551620714E+03  0.29954725290E+03  0.00000000000E+00 0.  1.
<mgrwt>
<rscale>  4 0.81761757E+03</rscale>
<asrwt>0</asrwt>
<pdfrwt beam="1">  1       21 0.78501189E-01 0.81761757E+03</pdfrwt>
<pdfrwt beam="2">  1       21 0.50389203E-01 0.81761757E+03</pdfrwt>
<totfact> 0.43320881E+03</totfact>
</mgrwt>
</event>
<event>
 5    0  0.3372079E-003  0.6169309E+03  0.7546771E-02  0.9870889E-01
         21   -1    0    0  501  502  0.00000000000E+00  0.00000000000E+00  0.51708058818E+02  0.51708058818E+02  0.00000000000E+00 0. -1.
         21   -1    0    0  502  503 -0.00000000000E+00 -0.00000000000E+00 -0.18401567947E+04  0.18401567947E+04  0.00000000000E+00 0. -1.
         25    1    1    2    0    0  0.27780899581E+03 -0.34729221515E+01 -0.68484933848E+03  0.74955554548E+03  0.12500000000E+03 0.  0.
          1    1    1    2  501    0 -0.26028848955E+02 -0.30840332324E+02 -0.13207251001E+03  0.13810059731E+03  0.00000000000E+00 0.  1.
         -1    1    1    2    0  503 -0.25178014686E+03  0.34313254475E+02 -0.97152688738E+03  0.10042087107E+04  0.00000000000E+00 0. -1.
<mgrwt>
<rscale>  4 0.61693091E+03</rscale>
<asrwt>0</asrwt>
<pdfrwt beam="1">  1       21 0.79550876E-02 0.61693091E+03</pdfrwt>
<pdfrwt beam="2">  1       21 0.28310099E+00 0.61693091E+03</pdfrwt>
<totfact> 0.40468440E+03</totfact>
</mgrwt>
</event>
<event>
 5    0  0.3372079E-003  0.5114663E+03  0.7546771E-02  0.1010829E+00
         21   -1    0    0  501  502  0.00000000000E+00  0.00000000000E+00  0.57001047871E+02  0.57001047871E+02  0.00000000000E+00 0.  1.
         21   -1    0    0  502  503 -0.00000000000E+00 -0.00000000000E+00 -0.11473374876E+04  0.11473374876E+04  0.00000000000E+00 0.  1.
         25    1    1    2    0    0  0.18350556524E+03  0.12443317130E+03 -0.42620632626E+03  0.49642193660E+03  0.12500000000E+03 0.  0.
          1    1    1    2  501    0 -0.16084890134E+03 -0.77172000969E+02 -0.39064653458E+03  0.42945616979E+03  0.00000000000E+00 0.  1.
         -1    1    1    2    0  503 -0.22656663899E+02 -0.47261170327E+02 -0.27348357893E+03  0.27846042912E+03  0.00000000000E+00 0. -1.
<mgrwt>
<rscale>  4 0.51146628E+03</rscale>
<asrwt>0</asrwt>
<pdfrwt beam="1">  1       21 0.87693926E-02 0.51146628E+03</pdfrwt>
<pdfrwt beam="2">  1       21 0.17651345E+00 0.51146628E+03</pdfrwt>
<totfact> 0.17093735E+04</totfact>
</mgrwt>
</event>
<event>
 5    0  0.3372079E-003  0.7200672E+03  0.7546771E-02  0.9683517E-01
         21   -1    0    0  503  502  0.00000000000E+00  0.00000000000E+00  0.39802145336E+03  0.39802145336E+03  0.00000000000E+00 0. -1.
         21   -1    0    0  501  503 -0.00000000000E+00 -0.00000000000E+00 -0.32567133606E+03  0.32567133606E+03  0.00000000000E+00 0. -1.
         25    1    1    2    0    0  0.17944343707E+03 -0.20247317322E+03  0.20852850377E+03  0.36373681401E+03  0.12500000000E+03 0.  0.
          2    1    1    2  501    0 -0.57915481074E+02  0.20285174820E+03 -0.97686644614E+02  0.23247734348E+03  0.00000000000E+00 0.  1.
         -2    1    1    2    0  502 -0.12152795599E+03 -0.37857498362E+00 -0.38491741861E+02  0.12747863193E+03  0.00000000000E+00 0. -1.
<mgrwt>
<rscale>  4 0.72006716E+03</rscale>
<asrwt>0</asrwt>
<pdfrwt beam="1">  1       21 0.61234070E-01 0.72006716E+03</pdfrwt>
<pdfrwt beam="2">  1       21 0.50103282E-01 0.72006716E+03</pdfrwt>
<totfact> 0.78551180E+03</totfact>
</mgrwt>
</event>
<event>
 5    0  0.3372079E-003  0.4843783E+03  0.7546771E-02  0.1017939E+00
         21   -1    0    0  501  502  0.00000000000E+00  0.00000000000E+00  0.39384149810E+02  0.39384149810E+02  0.00000000000E+00 0.  1.
         21   -1    0    0  502  503 -0.00000000000E+00 -0.00000000000E+00 -0.14893195410E+04  0.14893195410E+04  0.00000000000E+00 0.  1.
         25    1    1    2    0    0 -0.13453156680E+03 -0.16260889463E+03 -0.10048321385E+04  0.10343369962E+04  0.12500000000E+03 0.  0.
          2    1    1    2  501    0  0.12253166605E+03  0.14559923189E+03 -0.42388941765E+03  0.46464543892E+03  0.00000000000E+00 0.  1.
         -2    1    1    2    0  503  0.11999900746E+02  0.17009662743E+02 -0.21213835026E+02  0.29721255711E+02  0.00000000000E+00 0. -1.
<mgrwt>
<rscale>  4 0.48437830E+03</rscale>
<asrwt>0</asrwt>
<pdfrwt beam="1">  1       21 0.60590997E-02 0.48437830E+03</pdfrwt>
<pdfrwt beam="2">  1       21 0.22912609E+00 0.48437830E+03</pdfrwt>
<totfact> 0.14737404E+04</totfact>
</mgrwt>
</event>
<event>
 5    0  0.3372079E-003  0.4775788E+03  0.7546771E-02  0.1019803E+00
         21   -1    0    0  503  502  0.00000000000E+00  0.00000000000E+00  0.37656786361E+03  0.37656786361E+03  0.00000000000E+00 0. -1.
         21   -1    0    0  501  503 -0.00000000000E+00 -0.00000000000E+00 -0.15142123044E+03  0.15142123044E+03  0.00000000000E+00 0. -1.
         25    1    1    2    0    0 -0.21258918059E+03  0.63312123248E+01  0.62927152731E+02  0.25459589648E+03  0.12500000000E+03 0.  0.
          2    1    1    2  501    0  0.98270849984E+02 -0.14974411740E+02  0.10731267898E+03  0.14627851528E+03  0.00000000000E+00 0.  1.
         -2    1    1    2    0  502  0.11431833060E+03  0.86431994152E+01  0.54906801461E+02  0.12711468229E+03  0.00000000000E+00 0. -1.
<mgrwt>
<rscale>  4 0.47757877E+03</rscale>
<asrwt>0</asrwt>
<pdfrwt beam="1">  1       21 0.57933517E-01 0.47757877E+03</pdfrwt>
<pdfrwt beam="2">  1       21 0.23295574E-01 0.47757877E+03</pdfrwt>
<totfact> 0.44180007E+04</totfact>
</mgrwt>
</event>
<event>
 5    0  0.3372079E-003  0.4620007E+03  0.7546771E-02  0.1024203E+00
         21   -1    0    0  501  502  0.00000000000E+00  0.00000000000E+00  0.13113678786E+03  0.13113678786E+03  0.00000000000E+00 0. -1.
         21   -1    0    0  502  503 -0.00000000000E+00 -0.00000000000E+00 -0.40691219433E+03  0.40691219433E+03  0.00000000000E+00 0. -1.
         25    1    1    2    0    0  0.13598010225E+03 -0.15578279564E+03 -0.13500959743E+03  0.27678775085E+03  0.12500000000E+03 0.  0.
          1    1    1    2  501    0 -0.38687241249E+02  0.10128371026E+03 -0.74348683870E+02  0.13146413729E+03  0.00000000000E+00 0.  1.
         -1    1    1    2    0  503 -0.97292861003E+02  0.54499085377E+02 -0.66417125166E+02  0.12979709405E+03  0.00000000000E+00 0. -1.
<mgrwt>
<rscale>  4 0.46200068E+03</rscale>
<asrwt>0</asrwt>
<pdfrwt beam="1">  1       21 0.20174891E-01 0.46200068E+03</pdfrwt>
<pdfrwt beam="2">  1       21 0.62601875E-01 0.46200068E+03</pdfrwt>
<totfact> 0.49283336E+04</totfact>
</mgrwt>
</event>
<event>
 5    0  0.3372079E-003  0.5388962E+03  0.7546771E-02  0.1004097E+00
         21   -1    0    0  503  502  0.00000000000E+00  0.00000000000E+00  0.86135426264E+02  0.86135426264E+02  0.00000000000E+00 0. -1.
         21   -1    0    0  501  503 -0.00000000000E+00 -0.00000000000E+00 -0.84288535273E+03  0.84288535273E+03  0.00000000000E+00 0. -1.
         25    1    1    2    0    0  0.16925370611E+03 -0.16231715654E+03 -0.27240928907E+03  0.38055945279E+03  0.12500000000E+03 0.  0.
          2    1    1    2  501    0 -0.15291037190E+03  0.81584287962E+02 -0.35625917942E+03  0.39617948054E+03  0.00000000000E+00 0. -1.
         -2    1    1    2    0  502 -0.16343334202E+02  0.80732868577E+02 -0.12808145798E+03  0.15228184566E+03  0.00000000000E+00 0.  1.
<mgrwt>
<rscale>  4 0.53889624E+03</rscale>
<asrwt>0</asrwt>
<pdfrwt beam="1">  1       21 0.13251604E-01 0.53889624E+03</pdfrwt>
<pdfrwt beam="2">  1       21 0.12967467E+00 0.53889624E+03</pdfrwt>
<totfact> 0.18722316E+04</totfact>
</mgrwt>
</event>
<event>
 5    0  0.3372079E-003  0.7179144E+03  0.7546771E-02  0.9687077E-01
         21   -1    0    0  501  502  0.00000000000E+00  0.00000000000E+00  0.98156190079E+02  0.98156190079E+02  0.00000000000E+00 0.  1.
         21   -1    0    0  502  503 -0.00000000000E+00 -0.00000000000E+00 -0.13127066310E+04  0.13127066310E+04  0.00000000000E+00 0.  1.
         25    1    1    2    0    0  0.24554877268E+02  0.28638708981E+03 -0.79350169736E+03  0.85316496114E+03  0.12500000000E+03 0.  0.
          4    1    1    2  501    0  0.28235163444E+02 -0.18023336448E+03 -0.84831603864E+02  0.20119068353E+03  0.00000000000E+00 0.  1.
         -4    1    1    2    0  503 -0.52790040712E+02 -0.10615372533E+03 -0.33621713971E+03  0.35650717641E+03  0.00000000000E+00 0. -1.
<mgrwt>
<rscale>  4 0.71791443E+03</rscale>
<asrwt>0</asrwt>
<pdfrwt beam="1">  1       21 0.15100954E-01 0.71791443E+03</pdfrwt>
<pdfrwt beam="2">  1       21 0.20195485E+00 0.71791443E+03</pdfrwt>
<totfact> 0.39939685E+03</totfact>
</mgrwt>
</event>
<event>
 5    0  0.3372079E-003  0.6847121E+03  0.7546771E-02  0.9743740E-01
         21   -1    0    0  501  502  0.00000000000E+00  0.00000000000E+00  0.24675280572E+03  0.24675280572E+03  0.00000000000E+00 0. -1.
         21   -1    0    0  502  503 -0.00000000000E+00 -0.00000000000E+00 -0.47500033442E+03  0.47500033442E+03  0.00000000000E+00 0. -1.
         25    1    1    2    0    0 -0.10083009439E+01  0.26015344892E+03 -0.18729657704E+03  0.34407243631E+03  0.12500000000E+03 0.  0.
          4    1    1    2  501    0  0.15726864801E+02 -0.31194629547E+03 -0.39829864233E+01  0.31236787562E+03  0.00000000000E+00 0.  1.
         -4    1    1    2    0  503 -0.14718563857E+02  0.51792846555E+02 -0.36967965242E+02  0.65312828223E+02  0.00000000000E+00 0. -1.
<mgrwt>
<rscale>  4 0.68471210E+03</rscale>
<asrwt>0</asrwt>
<pdfrwt beam="1">  1       21 0.37961970E-01 0.68471210E+03</pdfrwt>
<pdfrwt beam="2">  1       21 0.73076975E-01 0.68471210E+03</pdfrwt>
<totfact> 0.95176409E+03</totfact>
</mgrwt>
</event>
<event>
 5    0  0.3372079E-003  0.4911800E+03  0.7546771E-02  0.1016107E+00
         21   -1    0    0  501  502  0.00000000000E+00  0.00000000000E+00  0.73374569612E+02  0.73374569612E+02  0.00000000000E+00 0. -1.
         21   -1    0    0  502  503 -0.00000000000E+00 -0.00000000000E+00 -0.82200748270E+03  0.82200748270E+03  0.00000000000E+00 0. -1.
         25    1    1    2    0    0  0.10648357923E+03  0.17498126005E+03 -0.57572058415E+03  0.62372781326E+03  0.12500000000E+03 0.  0.
          4    1    1    2  501    0 -0.81505808333E+02 -0.92334093850E+02 -0.99985602512E+02  0.15863764493E+03  0.00000000000E+00 0. -1.
         -4    1    1    2    0  503 -0.24977770901E+02 -0.82647166202E+02 -0.72926726422E+02  0.11301659412E+03  0.00000000000E+00 0.  1.
<mgrwt>
<rscale>  4 0.49117999E+03</rscale>
<asrwt>0</asrwt>
<pdfrwt beam="1">  1       21 0.11288396E-01 0.49117999E+03</pdfrwt>
<pdfrwt beam="2">  1       21 0.12646268E+00 0.49117999E+03</pdfrwt>
<totfact> 0.27101177E+04</totfact>
</mgrwt>
</event>
<event>
 5    0  0.3372079E-003  0.5375854E+03  0.7546771E-02  0.1004409E+00
         21   -1    0    0  501  502  0.00000000000E+00  0.00000000000E+00  0.10329427270E+04  0.10329427270E+04  0.00000000000E+00 0. -1.
         21   -1    0    0  502  503 -0.00000000000E+00 -0.00000000000E+00 -0.69945327442E+02  0.69945327442E+02  0.00000000000E+00 0. -1.
         25    1    1    2    0    0 -0.99466282590E+02 -0.18968388326E+03  0.23230510256E+03  0.33980020249E+03  0.12500000000E+03 0.  0.
          2    1    1    2  501    0  0.22326826225E+02  0.10949160113E+02  0.68503246473E+02  0.72877061232E+02  0.00000000000E+00 0.  1.
         -2    1    1    2    0  503  0.77139456365E+02  0.17873472315E+03  0.66218905057E+03  0.69021079076E+03  0.00000000000E+00 0. -1.
<mgrwt>
<rscale>  4 0.53758541E+03</rscale>
<asrwt>0</asrwt>
<pdfrwt beam="1">  1       21 0.15891425E+00 0.53758541E+03</pdfrwt>
<pdfrwt beam="2">  1       21 0.10760820E-01 0.53758541E+03</pdfrwt>
<totfact> 0.15841083E+04</totfact>
</mgrwt>
</event>
<event>
 5    0  0.3372079E-003  0.8338653E+03  0.7546771E-02  0.9512252E-01
         21   -1    0    0  501  502  0.00000000000E+00  0.00000000000E+00  0.32242524208E+03  0.32242524208E+03  0.00000000000E+00 0. -1.
         21   -1    0    0  502  503 -0.00000000000E+00 -0.00000000000E+00 -0.53914151115E+03  0.53914151115E+03  0.00000000000E+00 0. -1.
         25    1    1    2    0    0  0.31667719215E+03  0.35264071327E+02 -0.17464304744E+03  0.38425667564E+03  0.12500000000E+03 0.  0.
          4    1    1    2  501    0 -0.13387808520E+02  0.71699505068E+02  0.10160595355E+03  0.12507526630E+03  0.00000000000E+00 0. -1.
         -4    1    1    2    0  503 -0.30328938363E+03 -0.10696357640E+03 -0.14367917517E+03  0.35223481128E+03  0.00000000000E+00 0.  1.
<mgrwt>
<rscale>  4 0.83386529E+03</rscale>
<asrwt>0</asrwt>
<pdfrwt beam="1">  1       21 0.49603883E-01 0.83386529E+03</pdfrwt>
<pdfrwt beam="2">  1       21 0.82944849E-01 0.83386529E+03</pdfrwt>
<totfact> 0.39266617E+03</totfact>
</mgrwt>
</event>
<event>
 5    0  0.3372079E-003  0.6073535E+03  0.7546771E-02  0.9890266E-01
         21   -1    0    0  501  502  0.00000000000E+00  0.00000000000E+00  0.65294941609E+03  0.65294941609E+03  0.00000000000E+00 0. -1.
         21   -1    0    0  502  503 -0.00000000000E+00 -0.00000000000E+00 -0.14123538237E+03  0.14123538237E+03  0.00000000000E+00 0. -1.
         25    1    1    2    0    0 -0.24383805812E+03  0.13694002479E+03  0.29286237931E+03  0.42379587326E+03  0.12500000000E+03 0.  0.
          2    1    1    2  501    0  0.71412685762E+02 -0.98946530594E+02  0.82319511827E+02  0.14719609245E+03  0.00000000000E+00 0.  1.
         -2    1    1    2    0  503  0.17242537236E+03 -0.37993494196E+02  0.13653214258E+03  0.22319283275E+03  0.00000000000E+00 0. -1.
<mgrwt>
<rscale>  4 0.60735347E+03</rscale>
<asrwt>0</asrwt>
<pdfrwt beam="1">  1       21 0.10045375E+00 0.60735347E+03</pdfrwt>
<pdfrwt beam="2">  1       21 0.21728521E-01 0.60735347E+03</pdfrwt>
<totfact> 0.13839603E+04</totfact>
</mgrwt>
</event>
<event>
 5    0  0.3372079E-003  0.6561091E+03  0.7546771E-02  0.9795383E-01
         21   -1    0    0  503  502  0.00000000000E+00  0.00000000000E+00  0.29646204053E+03  0.29646204053E+03  0.00000000000E+00 0.  1.
         21   -1    0    0  501  503 -0.00000000000E+00 -0.00000000000E+00 -0.36301371474E+03  0.36301371474E+03  0.00000000000E+00 0.  1.
         25    1    1    2    0    0 -0.67473409431E+02  0.24039159189E+03 -0.74522955185E+02  0.28899731709E+03  0.12500000000E+03 0.  0.
          2    1    1    2  501    0 -0.47511256259E+02 -0.21927773944E+03 -0.63847388319E+02  0.23327352074E+03  0.00000000000E+00 0. -1.
         -2    1    1    2    0  502  0.11498466569E+03 -0.21113852452E+02  0.71818669292E+02  0.13720491743E+03  0.00000000000E+00 0.  1.
<mgrwt>
<rscale>  4 0.65610910E+03</rscale>
<asrwt>0</asrwt>
<pdfrwt beam="1">  1       21 0.45609545E-01 0.65610910E+03</pdfrwt>
<pdfrwt beam="2">  1       21 0.55848264E-01 0.65610910E+03</pdfrwt>
<totfact> 0.11897578E+04</totfact>
</mgrwt>
</event>
<event>
 5    0  0.3372079E-003  0.4638747E+03  0.7546771E-02  0.1023663E+00
         21   -1    0    0  503  502  0.00000000000E+00  0.00000000000E+00  0.24461362862E+03  0.24461362862E+03  0.00000000000E+00 0. -1.
         21   -1    0    0  501  503 -0.00000000000E+00 -0.00000000000E+00 -0.21991797637E+03  0.21991797637E+03  0.00000000000E+00 0. -1.
         25    1    1    2    0    0  0.14657348380E+03  0.15094996803E+03  0.45994849441E+01  0.24477711139E+03  0.12500000000E+03 0.  0.
          2    1    1    2  501    0 -0.14202066694E+03 -0.13127648532E+03  0.32020061855E+01  0.19342605378E+03  0.00000000000E+00 0. -1.
         -2    1    1    2    0  502 -0.45528168618E+01 -0.19673482708E+02  0.16894161117E+02  0.26328439815E+02  0.00000000000E+00 0.  1.
<mgrwt>
<rscale>  4 0.46387470E+03</rscale>
<asrwt>0</asrwt>
<pdfrwt beam="1">  1       21 0.37632866E-01 0.46387470E+03</pdfrwt>
<pdfrwt beam="2">  1       21 0.33833535E-01 0.46387470E+03</pdfrwt>
<totfact> 0.52692275E+04</totfact>
</mgrwt>
</event>
<event>
 5    0  0.3372079E-003  0.4972058E+03  0.7546771E-02  0.1014511E+00
         21   -1    0    0  501  502  0.00000000000E+00  0.00000000000E+00  0.10933094445E+04  0.10933094445E+04  0.00000000000E+00 0.  1.
         21   -1    0    0  502  503 -0.00000000000E+00 -0.00000000000E+00 -0.56528737204E+02  0.56528737204E+02  0.00000000000E+00 0.  1.
         25    1    1    2    0    0 -0.61084117901E+01 -0.20427055731E+03  0.48529281443E+03  0.54120041483E+03  0.12500000000E+03 0.  0.
          3    1    1    2  501    0 -0.27157313940E+02  0.17966891189E+03  0.53336461736E+03  0.56346805823E+03  0.00000000000E+00 0.  1.
         -3    1    1    2    0  503  0.33265725730E+02  0.24601645425E+02  0.18123275558E+02  0.45169708688E+02  0.00000000000E+00 0. -1.
<mgrwt>
<rscale>  4 0.49720580E+03</rscale>
<asrwt>0</asrwt>
<pdfrwt beam="1">  1       21 0.16820144E+00 0.49720580E+03</pdfrwt>
<pdfrwt beam="2">  1       21 0.86967295E-02 0.49720580E+03</pdfrwt>
<totfact> 0.20009723E+04</totfact>
</mgrwt>
</event>
<event>
 5    0  0.3372079E-003  0.7944608E+03  0.7546771E-02  0.9568070E-01
         21   -1    0    0  503  502  0.00000000000E+00  0.00000000000E+00  0.13589955799E+03  0.13589955799E+03  0.00000000000E+00 0. -1.
         21   -1    0    0  501  503 -0.00000000000E+00 -0.00000000000E+00 -0.11610926636E+04  0.11610926636E+04  0.00000000000E+00 0. -1.
         25    1    1    2    0    0  0.73249382034E+02  0.34368147221E+03 -0.65491275937E+03  0.75366978757E+03  0.12500000000E+03 0.  0.
          3    1    1    2  501    0  0.20954443730E+02 -0.63954536332E+02 -0.17992775572E+03  0.19210223504E+03  0.00000000000E+00 0.  1.
         -3    1    1    2    0  502 -0.94203825764E+02 -0.27972693587E+03 -0.19035259047E+03  0.35122019894E+03  0.00000000000E+00 0. -1.
<mgrwt>
<rscale>  4 0.79446077E+03</rscale>
<asrwt>0</asrwt>
<pdfrwt beam="1">  1       21 0.20907625E-01 0.79446077E+03</pdfrwt>
<pdfrwt beam="2">  1       21 0.17862963E+00 0.79446077E+03</pdfrwt>
<totfact> 0.30768151E+03</totfact>
</mgrwt>
</event>
<event>
 5    0  0.3372079E-003  0.5155924E+03  0.7546771E-02  0.1009787E+00
         21   -1    0    0  503  502  0.00000000000E+00  0.00000000000E+00  0.58617324388E+03  0.58617324388E+03  0.00000000000E+00 0. -1.
         21   -1    0    0  501  503 -0.00000000000E+00 -0.00000000000E+00 -0.11337754109E+03  0.11337754109E+03  0.00000000000E+00 0. -1.
         25    1    1    2    0    0  0.11076817665E+03  0.20830348132E+03  0.21563153987E+03  0.34319366293E+03  0.12500000000E+03 0.  0.
          2    1    1    2  501    0 -0.43405629183E+02 -0.26942784401E+02  0.35900557250E+02  0.62440469944E+02  0.00000000000E+00 0.  1.
         -2    1    1    2    0  502 -0.67362547467E+02 -0.18136069692E+03  0.22126360566E+03  0.29391665209E+03  0.00000000000E+00 0. -1.
<mgrwt>
<rscale>  4 0.51559240E+03</rscale>
<asrwt>0</asrwt>
<pdfrwt beam="1">  1       21 0.90180497E-01 0.51559240E+03</pdfrwt>
<pdfrwt beam="2">  1       21 0.17442699E-01 0.51559240E+03</pdfrwt>
<totfact> 0.27835654E+04</totfact>
</mgrwt>
</event>
<event>
 5    0  0.3372079E-003  0.5285732E+03  0.7546771E-02  0.1006579E+00
         21   -1    0    0  501  502  0.00000000000E+00  0.00000000000E+00  0.65382868103E+02  0.65382868103E+02  0.00000000000E+00 0.  1.
         21   -1    0    0  502  503 -0.00000000000E+00 -0.00000000000E+00 -0.10682830867E+04  0.10682830867E+04  0.00000000000E+00 0.  1.
         25    1    1    2    0    0  0.17882086517E+02  0.20686475872E+03 -0.46266562448E+03  0.52229998803E+03  0.12500000000E+03 0.  0.
          2    1    1    2  501    0 -0.76532865419E+02 -0.17373711333E+03 -0.25282423161E+03  0.31616760765E+03  0.00000000000E+00 0.  1.
         -2    1    1    2    0  503  0.58650778902E+02 -0.33127645397E+02 -0.28741036255E+03  0.29519835917E+03  0.00000000000E+00 0. -1.
<mgrwt>
<rscale>  4 0.52857322E+03</rscale>
<asrwt>0</asrwt>
<pdfrwt beam="1">  1       21 0.10058903E-01 0.52857322E+03</pdfrwt>
<pdfrwt beam="2">  1       21 0.16435123E+00 0.52857322E+03</pdfrwt>
<totfact> 0.16319710E+04</totfact>
</mgrwt>
</event>
<event>
 5    0  0.3372079E-003  0.4653099E+03  0.7546771E-02  0.1023252E+00
         21   -1    0    0  501  502  0.00000000000E+00  0.00000000000E+00  0.36424751575E+02  0.36424751575E+02  0.00000000000E+00 0.  1.
         21   -1    0    0  502  503 -0.00000000000E+00 -0.00000000000E+00 -0.14860315874E+04  0.14860315874E+04  0.00000000000E+00 0.  1.
         25    1    1    2    0    0  0.25562314319E+00  0.20907466300E+03 -0.74338464038E+03  0.78227744669E+03  0.12500000000E+03 0.  0.
          2    1    1    2  501    0  0.16877214167E+02 -0.19364650813E+03 -0.57553985035E+03  0.60747833691E+03  0.00000000000E+00 0.  1.
         -2    1    1    2    0  503 -0.17132837311E+02 -0.15428154872E+02 -0.13068234514E+03  0.13270055542E+03  0.00000000000E+00 0. -1.
<mgrwt>
<rscale>  4 0.46530992E+03</rscale>
<asrwt>0</asrwt>
<pdfrwt beam="1">  1       21 0.56038073E-02 0.46530992E+03</pdfrwt>
<pdfrwt beam="2">  1       21 0.22862027E+00 0.46530992E+03</pdfrwt>
<totfact> 0.17120782E+04</totfact>
</mgrwt>
</event>
<event>
 5    0  0.3372079E-003  0.6378588E+03  0.7546771E-02  0.9829832E-01
         21   -1    0    0  501  502  0.00000000000E+00  0.00000000000E+00  0.34333130012E+03  0.34333130012E+03  0.00000000000E+00 0. -1.
         21   -1    0    0  502  503 -0.00000000000E+00 -0.00000000000E+00 -0.29626185597E+03  0.29626185597E+03  0.00000000000E+00 0. -1.
         25    1    1    2    0    0 -0.28505917022E+03 -0.33167526639E+01  0.35930906121E+02  0.31334607288E+03  0.12500000000E+03 0.  0.
          1    1    1    2  501    0  0.12594395119E+03 -0.76663954993E+02  0.14291405534E+02  0.14813333557E+03  0.00000000000E+00 0.  1.
         -1    1    1    2    0  503  0.15911521903E+03  0.79980707657E+02 -0.31528675079E+01  0.17811374764E+03  0.00000000000E+00 0. -1.
<mgrwt>
<rscale>  4 0.63785882E+03</rscale>
<asrwt>0</asrwt>
<pdfrwt beam="1">  1       21 0.52820200E-01 0.63785882E+03</pdfrwt>
<pdfrwt beam="2">  1       21 0.45578747E-01 0.63785882E+03</pdfrwt>
<totfact> 0.13494639E+04</totfact>
</mgrwt>
</event>
<event>
 5    0  0.3372079E-003  0.4905468E+03  0.7546771E-02  0.1016276E+00
         21   -1    0    0  503  502  0.00000000000E+00  0.00000000000E+00  0.30363276415E+02  0.30363276415E+02  0.00000000000E+00 0. -1.
         21   -1    0    0  501  503 -0.00000000000E+00 -0.00000000000E+00 -0.19813090024E+04  0.19813090024E+04  0.00000000000E+00 0. -1.
         25    1    1    2    0    0 -0.19439704881E+03 -0.82536558133E+02 -0.86256914584E+03  0.89680155406E+03  0.12500000000E+03 0.  0.
          1    1    1    2  501    0  0.11121323012E+03  0.97745441852E+02 -0.82716883900E+03  0.84031591807E+03  0.00000000000E+00 0. -1.
         -1    1    1    2    0  502  0.83183818688E+02 -0.15208883719E+02 -0.26120774110E+03  0.27455480664E+03  0.00000000000E+00 0.  1.
<mgrwt>
<rscale>  4 0.49054677E+03</rscale>
<asrwt>0</asrwt>
<pdfrwt beam="1">  1       21 0.46712723E-02 0.49054677E+03</pdfrwt>
<pdfrwt beam="2">  1       21 0.30481683E+00 0.49054677E+03</pdfrwt>
<totfact> 0.79474677E+03</totfact>
</mgrwt>
</event>
<event>
 5    0  0.3372079E-003  0.5353112E+03  0.7546771E-02  0.1004952E+00
         21   -1    0    0  501  502  0.00000000000E+00  0.00000000000E+00  0.56873471866E+03  0.56873471866E+03  0.00000000000E+00 0.  1.
         21   -1    0    0  502  503 -0.00000000000E+00 -0.00000000000E+00 -0.12596298142E+03  0.12596298142E+03  0.00000000000E+00 0.  1.
         25    1    1    2    0    0 -0.10455994291E+03  0.17574503776E+03  0.18448057977E+03  0.30245195366E+03  0.12500000000E+03 0.  0.
          4    1    1    2  501    0  0.12805689550E+03 -0.80015708537E+02  0.25161752199E+03  0.29344924514E+03  0.00000000000E+00 0.  1.
         -4    1    1    2    0  503 -0.23496952590E+02 -0.95729329224E+02  0.66736354716E+01  0.98796501279E+02  0.00000000000E+00 0. -1.
<mgrwt>
<rscale>  4 0.53531120E+03</rscale>
<asrwt>0</asrwt>
<pdfrwt beam="1">  1       21 0.87497647E-01 0.53531120E+03</pdfrwt>
<pdfrwt beam="2">  1       21 0.19378921E-01 0.53531120E+03</pdfrwt>
<totfact> 0.24393770E+04</totfact>
</mgrwt>
</event>
<event>
 5    0  0.3372079E-003  0.5740808E+03  0.7546771E-02  0.9960689E-01
         21   -1    0    0  501  502  0.00000000000E+00  0.00000000000E+00  0.65901806596E+03  0.65901806596E+03  0.00000000000E+00 0. -1.
         21   -1    0    0  502  503 -0.00000000000E+00 -0.00000000000E+00 -0.12502265408E+03  0.12502265408E+03  0.00000000000E+00 0. -1.
         25    1    1    2    0    0  0.21932979636E+03  0.14732996321E+03  0.23542582230E+03  0.37531586089E+03  0.12500000000E+03 0.  0.
          4    1    1    2  501    0 -0.21892486351E+03 -0.11831043610E+03  0.27826255166E+03  0.37330349959E+03  0.00000000000E+00 0. -1.
         -4    1    1    2    0  503 -0.40493284597E+00 -0.29019527113E+02  0.20307037918E+02  0.35421359566E+02  0.00000000000E+00 0.  1.
<mgrwt>
<rscale>  4 0.57408079E+03</rscale>
<asrwt>0</asrwt>
<pdfrwt beam="1">  1       21 0.10138739E+00 0.57408079E+03</pdfrwt>
<pdfrwt beam="2">  1       21 0.19234255E-01 0.57408079E+03</pdfrwt>
<totfact> 0.17213736E+04</totfact>
</mgrwt>
</event>
<event>
 5    0  0.3372079E-003  0.4717138E+03  0.7546771E-02  0.1021438E+00
         21   -1    0    0  501  502  0.00000000000E+00  0.00000000000E+00  0.74277560795E+03  0.74277560795E+03  0.00000000000E+00 0. -1.
         21   -1    0    0  502  503 -0.00000000000E+00 -0.00000000000E+00 -0.74892716019E+02  0.74892716019E+02  0.00000000000E+00 0. -1.
         25    1    1    2    0    0 -0.13904324883E+03 -0.14588082578E+03  0.47429037180E+03  0.53027407739E+03  0.12500000000E+03 0.  0.
          3    1    1    2  501    0  0.79082759526E+02  0.11278393870E+03  0.15995212217E+03  0.21108998334E+03  0.00000000000E+00 0. -1.
         -3    1    1    2    0  503  0.59960489301E+02  0.33096887083E+02  0.33640397966E+02  0.76304263230E+02  0.00000000000E+00 0.  1.
<mgrwt>
<rscale>  4 0.47171382E+03</rscale>
<asrwt>0</asrwt>
<pdfrwt beam="1">  1       21 0.11427317E+00 0.47171382E+03</pdfrwt>
<pdfrwt beam="2">  1       21 0.11521957E-01 0.47171382E+03</pdfrwt>
<totfact> 0.33957253E+04</totfact>
</mgrwt>
</event>
<event>
 5    0  0.3372079E-003  0.6230955E+03  0.7546771E-02  0.9858616E-01
         21   -1    0    0  501  502  0.00000000000E+00  0.00000000000E+00  0.18732525296E+04  0.18732525296E+04  0.00000000000E+00 0. -1.
         21   -1    0    0  502  503 -0.00000000000E+00 -0.00000000000E+00 -0.51814689634E+02  0.51814689634E+02  0.00000000000E+00 0. -1.
         25    1    1    2    0    0 -0.80286990289E+02 -0.21960409266E+03  0.10298595299E+04  0.10634413992E+04  0.12500000000E+03 0.  0.
          3    1    1    2  501    0  0.12405795084E+03  0.12994455188E+03  0.71109146983E+03  0.73343509610E+03  0.00000000000E+00 0.  1.
         -3    1    1    2    0  503 -0.43770960553E+02  0.89659540783E+02  0.80486840286E+02  0.12819072393E+03  0.00000000000E+00 0. -1.
<mgrwt>
<rscale>  4 0.62309549E+03</rscale>
<asrwt>0</asrwt>
<pdfrwt beam="1">  1       21 0.28819264E+00 0.62309549E+03</pdfrwt>
<pdfrwt beam="2">  1       21 0.79714922E-02 0.62309549E+03</pdfrwt>
<totfact> 0.37458948E+03</totfact>
</mgrwt>
</event>
<event>
 5    0  0.3372079E-003  0.9184314E+03  0.7546771E-02  0.9402830E-01
         21   -1    0    0  503  502  0.00000000000E+00  0.00000000000E+00  0.50594502656E+03  0.50594502656E+03  0.00000000000E+00 0. -1.
         21   -1    0    0  501  503 -0.00000000000E+00 -0.00000000000E+00 -0.41680230778E+03  0.41680230778E+03  0.00000000000E+00 0. -1.
         25    1    1    2    0    0 -0.29504093181E+03  0.18923901493E+03  0.30521767091E+03  0.48129344775E+03  0.12500000000E+03 0.  0.
          2    1    1    2  501    0 -0.47949873927E+01 -0.57091292432E+02 -0.31807949837E+02  0.65529789016E+02  0.00000000000E+00 0.  1.
         -2    1    1    2    0  502  0.29983591920E+03 -0.13214772250E+03 -0.18426700228E+03  0.37592409757E+03  0.00000000000E+00 0. -1.
<mgrwt>
<rscale>  4 0.91843139E+03</rscale>
<asrwt>0</asrwt>
<pdfrwt beam="1">  1       21 0.77837696E-01 0.91843139E+03</pdfrwt>
<pdfrwt beam="2">  1       21 0.64123432E-01 0.91843139E+03</pdfrwt>
<totfact> 0.25541758E+03</totfact>
</mgrwt>
</event>
<event>
 5    0  0.3372079E-003  0.4824484E+03  0.7546771E-02  0.1018464E+00
         21   -1    0    0  501  502  0.00000000000E+00  0.00000000000E+00  0.33701436013E+03  0.33701436013E+03  0.00000000000E+00 0.  1.
         21   -1    0    0  502  503 -0.00000000000E+00 -0.00000000000E+00 -0.17266067214E+03  0.17266067214E+03  0.00000000000E+00 0.  1.
         25    1    1    2    0    0 -0.12751002574E+03 -0.16330740272E+03  0.11979257492E+03  0.27000625077E+03  0.12500000000E+03 0.  0.
          2    1    1    2  501    0 -0.89961764425E+01  0.47957144715E+02  0.36201760764E+02  0.60756780710E+02  0.00000000000E+00 0. -1.
         -2    1    1    2    0  503  0.13650620218E+03  0.11535025801E+03  0.83593523068E+01  0.17891200079E+03  0.00000000000E+00 0.  1.
<mgrwt>
<rscale>  4 0.48244845E+03</rscale>
<asrwt>0</asrwt>
<pdfrwt beam="1">  1       21 0.51848363E-01 0.48244845E+03</pdfrwt>
<pdfrwt beam="2">  1       21 0.26563180E-01 0.48244845E+03</pdfrwt>
<totfact> 0.43441788E+04</totfact>
</mgrwt>
</event>
<event>
 5    0  0.3372079E-003  0.5087334E+03  0.7546771E-02  0.1011524E+00
         21   -1    0    0  503  502  0.00000000000E+00  0.00000000000E+00  0.85334738320E+03  0.85334738320E+03  0.00000000000E+00 0.  1.
         21   -1    0    0  501  503 -0.00000000000E+00 -0.00000000000E+00 -0.75821908845E+02  0.75821908845E+02  0.00000000000E+00 0.  1.
         25    1    1    2    0    0  0.19584508105E+03  0.82965621484E+02  0.37636610763E+03  0.45001670757E+03  0.12500000000E+03 0.  0.
          4    1    1    2  501    0 -0.93025324681E+02 -0.11405607691E+03  0.28614000598E+03  0.32177414864E+03  0.00000000000E+00 0.  1.
         -4    1    1    2    0  502 -0.10281975637E+03  0.31090455426E+02  0.11501936075E+03  0.15737843584E+03  0.00000000000E+00 0. -1.
<mgrwt>
<rscale>  4 0.50873344E+03</rscale>
<asrwt>0</asrwt>
<pdfrwt beam="1">  1       21 0.13128421E+00 0.50873344E+03</pdfrwt>
<pdfrwt beam="2">  1       21 0.11664910E-01 0.50873344E+03</pdfrwt>
<totfact> 0.23067710E+04</totfact>
</mgrwt>
</event>
<event>
 5    0  0.3372079E-003  0.6176803E+03  0.7546771E-02  0.9869389E-01
         21   -1    0    0  501  502  0.00000000000E+00  0.00000000000E+00  0.65096658685E+03  0.65096658685E+03  0.00000000000E+00 0.  1.
         21   -1    0    0  502  503 -0.00000000000E+00 -0.00000000000E+00 -0.14652399226E+03  0.14652399226E+03  0.00000000000E+00 0.  1.
         25    1    1    2    0    0 -0.22023698833E+03  0.34589790738E+02  0.32716534311E+03  0.41516616720E+03  0.12500000000E+03 0.  0.
          3    1    1    2  501    0  0.60866358088E+02 -0.13087656668E+03  0.11944362259E+03  0.18735038893E+03  0.00000000000E+00 0. -1.
         -3    1    1    2    0  503  0.15937063024E+03  0.96286775946E+02  0.57833628894E+02  0.19497402298E+03  0.00000000000E+00 0.  1.
<mgrwt>
<rscale>  4 0.61768025E+03</rscale>
<asrwt>0</asrwt>
<pdfrwt beam="1">  1       21 0.10014870E+00 0.61768025E+03</pdfrwt>
<pdfrwt beam="2">  1       21 0.22542153E-01 0.61768025E+03</pdfrwt>
<totfact> 0.12958901E+04</totfact>
</mgrwt>
</event>
<event>
 5    0  0.3372079E-003  0.7673492E+03  0.7546771E-02  0.9608519E-01
         21   -1    0    0  501  502  0.00000000000E+00  0.00000000000E+00  0.22090831041E+03  0.22090831041E+03  0.00000000000E+00 0.  1.
         21   -1    0    0  502  503 -0.00000000000E+00 -0.00000000000E+00 -0.66636782127E+03  0.66636782127E+03  0.00000000000E+00 0.  1.
         25    1    1    2    0    0  0.26016414733E+03  0.97530616496E+02 -0.48111728857E+03  0.56947032414E+03  0.12500000000E+03 0.  0.
          4    1    1    2  501    0 -0.21183860364E+03 -0.11520514033E+03  0.75550504271E+02  0.25269684812E+03  0.00000000000E+00 0.  1.
         -4    1    1    2    0  503 -0.48325543684E+02  0.17674523834E+02 -0.39892726560E+02  0.65108959426E+02  0.00000000000E+00 0. -1.
<mgrwt>
<rscale>  4 0.76734918E+03</rscale>
<asrwt>0</asrwt>
<pdfrwt beam="1">  1       21 0.33985895E-01 0.76734918E+03</pdfrwt>
<pdfrwt beam="2">  1       21 0.10251812E+00 0.76734918E+03</pdfrwt>
<totfact> 0.52548521E+03</totfact>
</mgrwt>
</event>
<event>
 5    0  0.3372079E-003  0.5302171E+03  0.7546771E-02  0.1006179E+00
         21   -1    0    0  501  502  0.00000000000E+00  0.00000000000E+00  0.94791514110E+03  0.94791514110E+03  0.00000000000E+00 0.  1.
         21   -1    0    0  502  503 -0.00000000000E+00 -0.00000000000E+00 -0.74144332787E+02  0.74144332787E+02  0.00000000000E+00 0.  1.
         25    1    1    2    0    0 -0.14607087156E+03 -0.18506829560E+03  0.38146301829E+03  0.46553840645E+03  0.12500000000E+03 0.  0.
          3    1    1    2  501    0  0.60185036181E+02  0.64215154761E+01  0.13409420095E+03  0.14712147760E+03  0.00000000000E+00 0. -1.
         -3    1    1    2    0  503  0.85885835383E+02  0.17864678012E+03  0.35821358907E+03  0.40939958984E+03  0.00000000000E+00 0.  1.
<mgrwt>
<rscale>  4 0.53021707E+03</rscale>
<asrwt>0</asrwt>
<pdfrwt beam="1">  1       21 0.14583309E+00 0.53021707E+03</pdfrwt>
<pdfrwt beam="2">  1       21 0.11406821E-01 0.53021707E+03</pdfrwt>
<totfact> 0.18074426E+04</totfact>
</mgrwt>
</event>
<event>
 5    0  0.3372079E-003  0.5043299E+03  0.7546771E-02  0.1012655E+00
         21   -1    0    0  503  502  0.00000000000E+00  0.00000000000E+00  0.14079233850E+03  0.14079233850E+03  0.00000000000E+00 0.  1.
         21   -1    0    0  501  503 -0.00000000000E+00 -0.00000000000E+00 -0.45163797151E+03  0.45163797151E+03  0.00000000000E+00 0.  1.
         25    1    1    2    0    0 -0.17496209018E+03  0.12436059504E+03 -0.53772242032E+02  0.25415299450E+03  0.12500000000E+03 0.  0.
          1    1    1    2  501    0  0.39661625909E+02 -0.51048442432E+02 -0.59623792362E+02  0.87943076249E+02  0.00000000000E+00 0. -1.
         -1    1    1    2    0  502  0.13530046427E+03 -0.73312152608E+02 -0.19744959861E+03  0.25033423926E+03  0.00000000000E+00 0.  1.
<mgrwt>
<rscale>  4 0.50432992E+03</rscale>
<asrwt>0</asrwt>
<pdfrwt beam="1">  1       21 0.21660360E-01 0.50432992E+03</pdfrwt>
<pdfrwt beam="2">  1       21 0.69482764E-01 0.50432992E+03</pdfrwt>
<totfact> 0.33779448E+04</totfact>
</mgrwt>
</event>
<event>
 5    0  0.3372079E-003  0.6034364E+03  0.7546771E-02  0.9898302E-01
         21   -1    0    0  501  502  0.00000000000E+00  0.00000000000E+00  0.15587150106E+04  0.15587150106E+04  0.00000000000E+00 0. -1.
         21   -1    0    0  502  503 -0.00000000000E+00 -0.00000000000E+00 -0.58403151400E+02  0.58403151400E+02  0.00000000000E+00 0. -1.
         25    1    1    2    0    0  0.13391506865E+03  0.22344648463E+03  0.50570707536E+03  0.58243130339E+03  0.12500000000E+03 0.  0.
          4    1    1    2  501    0 -0.33719671028E+02 -0.27623660274E+02  0.36843214834E+03  0.37100179346E+03  0.00000000000E+00 0.  1.
         -4    1    1    2    0  503 -0.10019539763E+03 -0.19582282436E+03  0.62617263553E+03  0.66368506517E+03  0.00000000000E+00 0. -1.
<mgrwt>
<rscale>  4 0.60343639E+03</rscale>
<asrwt>0</asrwt>
<pdfrwt beam="1">  1       21 0.23980228E+00 0.60343639E+03</pdfrwt>
<pdfrwt beam="2">  1       21 0.89851014E-02 0.60343639E+03</pdfrwt>
<totfact> 0.60513861E+03</totfact>
</mgrwt>
</event>
<event>
 5    0  0.3372079E-003  0.4909298E+03  0.7546771E-02  0.1016174E+00
         21   -1    0    0  503  502  0.00000000000E+00  0.00000000000E+00  0.26561472606E+03  0.26561472606E+03  0.00000000000E+00 0. -1.
         21   -1    0    0  501  503 -0.00000000000E+00 -0.00000000000E+00 -0.22684366610E+03  0.22684366610E+03  0.00000000000E+00 0. -1.
         25    1    1    2    0    0  0.32943349621E+02 -0.20629660812E+03 -0.21928867224E+02  0.24443696534E+03  0.12500000000E+03 0.  0.
          2    1    1    2  501    0 -0.26476563205E+02  0.15818357356E+03 -0.11746672863E+02  0.16081366754E+03  0.00000000000E+00 0. -1.
         -2    1    1    2    0  502 -0.64667864161E+01  0.48113034557E+02  0.72446600043E+02  0.87207759280E+02  0.00000000000E+00 0.  1.
<mgrwt>
<rscale>  4 0.49092980E+03</rscale>
<asrwt>0</asrwt>
<pdfrwt beam="1">  1       21 0.40863804E-01 0.49092980E+03</pdfrwt>
<pdfrwt beam="2">  1       21 0.34899026E-01 0.49092980E+03</pdfrwt>
<totfact> 0.41544550E+04</totfact>
</mgrwt>
</event>
<event>
 5    0  0.3372079E-003  0.6457054E+03  0.7546771E-02  0.9814871E-01
         21   -1    0    0  503  502  0.00000000000E+00  0.00000000000E+00  0.22711543603E+03  0.22711543603E+03  0.00000000000E+00 0.  1.
         21   -1    0    0  501  503 -0.00000000000E+00 -0.00000000000E+00 -0.45894662746E+03  0.45894662746E+03  0.00000000000E+00 0.  1.
         25    1    1    2    0    0 -0.18692678477E+03 -0.21347170264E+03 -0.21526583822E+03  0.37746015922E+03  0.12500000000E+03 0.  0.
          4    1    1    2  501    0  0.20014383196E+03  0.19218683862E+03 -0.31777968526E+02  0.27929048264E+03  0.00000000000E+00 0.  1.
         -4    1    1    2    0  502 -0.13217047183E+02  0.21284864023E+02  0.15212615316E+02  0.29311421621E+02  0.00000000000E+00 0. -1.
<mgrwt>
<rscale>  4 0.64570539E+03</rscale>
<asrwt>0</asrwt>
<pdfrwt beam="1">  1       21 0.34940837E-01 0.64570539E+03</pdfrwt>
<pdfrwt beam="2">  1       21 0.70607173E-01 0.64570539E+03</pdfrwt>
<totfact> 0.12294590E+04</totfact>
</mgrwt>
</event>
<event>
 5    0  0.3372079E-003  0.5003376E+03  0.7546771E-02  0.1013691E+00
         21   -1    0    0  501  502  0.00000000000E+00  0.00000000000E+00  0.13670683715E+03  0.13670683715E+03  0.00000000000E+00 0. -1.
         21   -1    0    0  502  503 -0.00000000000E+00 -0.00000000000E+00 -0.45780022241E+03  0.45780022241E+03  0.00000000000E+00 0. -1.
         25    1    1    2    0    0 -0.20576693614E+03  0.21926436175E+02 -0.66939701504E+02  0.25085199671E+03  0.12500000000E+03 0.  0.
          3    1    1    2  501    0  0.30228071642E+02  0.14970061501E+02 -0.14527537436E+01  0.33763138924E+02  0.00000000000E+00 0.  1.
         -3    1    1    2    0  503  0.17553886450E+03 -0.36896497675E+02 -0.25270093001E+03  0.30989192393E+03  0.00000000000E+00 0. -1.
<mgrwt>
<rscale>  4 0.50033757E+03</rscale>
<asrwt>0</asrwt>
<pdfrwt beam="1">  1       21 0.21031821E-01 0.50033757E+03</pdfrwt>
<pdfrwt beam="2">  1       21 0.70430804E-01 0.50033757E+03</pdfrwt>
<totfact> 0.34696181E+04</totfact>
</mgrwt>
</event>
<event>
 5    0  0.3372079E-003  0.6002255E+03  0.7546771E-02  0.9904938E-01
         21   -1    0    0  501  502  0.00000000000E+00  0.00000000000E+00  0.62813307491E+03  0.62813307491E+03  0.00000000000E+00 0. -1.
         21   -1    0    0  502  503 -0.00000000000E+00 -0.00000000000E+00 -0.14338948087E+03  0.14338948087E+03  0.00000000000E+00 0. -1.
         25    1    1    2    0    0  0.26019727042E+02  0.24923092395E+03  0.85555330999E+02  0.29281016771E+03  0.12500000000E+03 0.  0.
          4    1    1    2  501    0 -0.34118202649E+02 -0.33752846958E+02  0.60778256075E+02  0.77442254883E+02  0.00000000000E+00 0.  1.
         -4    1    1    2    0  503  0.80984756063E+01 -0.21547807700E+03  0.33841000697E+03  0.40127013319E+03  0.00000000000E+00 0. -1.
<mgrwt>
<rscale>  4 0.60022554E+03</rscale>
<asrwt>0</asrwt>
<pdfrwt beam="1">  1       21 0.96635856E-01 0.60022554E+03</pdfrwt>
<pdfrwt beam="2">  1       21 0.22059920E-01 0.60022554E+03</pdfrwt>
<totfact> 0.14793456E+04</totfact>
</mgrwt>
</event>
<event>
 5    0  0.3372079E-003  0.5212438E+03  0.7546771E-02  0.1008378E+00
         21   -1    0    0  503  502  0.00000000000E+00  0.00000000000E+00  0.24680579735E+03  0.24680579735E+03  0.00000000000E+00 0.  1.
         21   -1    0    0  501  503 -0.00000000000E+00 -0.00000000000E+00 -0.27521138841E+03  0.27521138841E+03  0.00000000000E+00 0.  1.
         25    1    1    2    0    0  0.19289993234E+03  0.12919768754E+03  0.18897094150E+02  0.26435681669E+03  0.12500000000E+03 0.  0.
          2    1    1    2  501    0 -0.36312488690E+02 -0.52028265587E+02 -0.53481658234E+02  0.82980871424E+02  0.00000000000E+00 0. -1.
         -2    1    1    2    0  502 -0.15658744365E+03 -0.77169421949E+02  0.61789730207E+01  0.17467949765E+03  0.00000000000E+00 0.  1.
<mgrwt>
<rscale>  4 0.52124377E+03</rscale>
<asrwt>0</asrwt>
<pdfrwt beam="1">  1       21 0.37970123E-01 0.52124377E+03</pdfrwt>
<pdfrwt beam="2">  1       21 0.42340214E-01 0.52124377E+03</pdfrwt>
<totfact> 0.32295295E+04</totfact>
</mgrwt>
</event>
<event>
 5    0  0.3372079E-003  0.7945269E+03  0.7546771E-02  0.9567973E-01
         21   -1    0    0  503  502  0.00000000000E+00  0.00000000000E+00  0.57807727092E+03  0.57807727092E+03  0.00000000000E+00 0. -1.
         21   -1    0    0  501  503 -0.00000000000E+00 -0.00000000000E+00 -0.27300543689E+03  0.27300543689E+03  0.00000000000E+00 0. -1.
         25    1    1    2    0    0 -0.15992816733E+02 -0.32394059505E+03 -0.52693268753E+02  0.35156060627E+03  0.12500000000E+03 0.  0.
          3    1    1    2  501    0  0.61828917378E+02  0.83926278506E+02  0.10505899714E+03  0.14799941935E+03  0.00000000000E+00 0. -1.
         -3    1    1    2    0  502 -0.45836100645E+02  0.24001431654E+03  0.25270610564E+03  0.35152268219E+03  0.00000000000E+00 0.  1.
<mgrwt>
<rscale>  4 0.79452687E+03</rscale>
<asrwt>0</asrwt>
<pdfrwt beam="1">  1       21 0.88934965E-01 0.79452687E+03</pdfrwt>
<pdfrwt beam="2">  1       21 0.42000837E-01 0.79452687E+03</pdfrwt>
<totfact> 0.47709619E+03</totfact>
</mgrwt>
</event>
<event>
 5    0  0.3372079E-003  0.4582885E+03  0.7546771E-02  0.1025279E+00
         21   -1    0    0  503  502  0.00000000000E+00  0.00000000000E+00  0.34379155650E+03  0.34379155650E+03  0.00000000000E+00 0. -1.
         21   -1    0    0  501  503 -0.00000000000E+00 -0.00000000000E+00 -0.15272943299E+03  0.15272943299E+03  0.00000000000E+00 0. -1.
         25    1    1    2    0    0 -0.64006423472E+02  0.19527473902E+03  0.12744518180E+03  0.27220639285E+03  0.12500000000E+03 0.  0.
          4    1    1    2  501    0  0.67950642295E+02 -0.14340604622E+03  0.27671082963E+02  0.16108467560E+03  0.00000000000E+00 0. -1.
         -4    1    1    2    0  502 -0.39442188228E+01 -0.51868692800E+02  0.35945858740E+02  0.63229921046E+02  0.00000000000E+00 0.  1.
<mgrwt>
<rscale>  4 0.45828851E+03</rscale>
<asrwt>0</asrwt>
<pdfrwt beam="1">  1       21 0.52891008E-01 0.45828851E+03</pdfrwt>
<pdfrwt beam="2">  1       21 0.23496836E-01 0.45828851E+03</pdfrwt>
<totfact> 0.53126741E+04</totfact>
</mgrwt>
</event>
<event>
 5    0  0.3372079E-003  0.5836542E+03  0.7546771E-02  0.9939911E-01
         21   -1    0    0  501  502  0.00000000000E+00  0.00000000000E+00  0.46488949132E+02  0.46488949132E+02  0.00000000000E+00 0. -1.
         21   -1    0    0  502  503 -0.00000000000E+00 -0.00000000000E+00 -0.18318988232E+04  0.18318988232E+04  0.00000000000E+00 0. -1.
         25    1    1    2    0    0 -0.13964118094E+03  0.21557337801E+03 -0.11668820479E+04  0.12013368613E+04  0.12500000000E+03 0.  0.
          2    1    1    2  501    0  0.11335728844E+03 -0.12120038953E+03 -0.28886675737E+03  0.33314173077E+03  0.00000000000E+00 0.  1.
         -2    1    1    2    0  503  0.26283892499E+02 -0.94372988478E+02 -0.32966106885E+03  0.34390918027E+03  0.00000000000E+00 0. -1.
<mgrwt>
<rscale>  4 0.58365418E+03</rscale>
<asrwt>0</asrwt>
<pdfrwt beam="1">  1       21 0.71521461E-02 0.58365418E+03</pdfrwt>
<pdfrwt beam="2">  1       21 0.28183058E+00 0.58365418E+03</pdfrwt>
<totfact> 0.50317808E+03</totfact>
</mgrwt>
</event>
<event>
 5    0  0.3372079E-003  0.4958299E+03  0.7546771E-02  0.1014873E+00
         21   -1    0    0  503  502  0.00000000000E+00  0.00000000000E+00  0.93048502343E+02  0.93048502343E+02  0.00000000000E+00 0. -1.
         21   -1    0    0  501  503 -0.00000000000E+00 -0.00000000000E+00 -0.66053533968E+03  0.66053533968E+03  0.00000000000E+00 0. -1.
         25    1    1    2    0    0 -0.18511314627E+03  0.94237807702E+02 -0.40388872502E+03  0.47106129486E+03  0.12500000000E+03 0.  0.
          1    1    1    2  501    0  0.28378153323E+02 -0.59882192802E+02 -0.26129005443E+02  0.71231464440E+02  0.00000000000E+00 0.  1.
         -1    1    1    2    0  502  0.15673499295E+03 -0.34355614900E+02 -0.13746910687E+03  0.21129108272E+03  0.00000000000E+00 0. -1.
<mgrwt>
<rscale>  4 0.49582991E+03</rscale>
<asrwt>0</asrwt>
<pdfrwt beam="1">  1       21 0.14315154E-01 0.49582991E+03</pdfrwt>
<pdfrwt beam="2">  1       21 0.10162082E+00 0.49582991E+03</pdfrwt>
<totfact> 0.30321498E+04</totfact>
</mgrwt>
</event>
<event>
 5    0  0.3372079E-003  0.8034832E+03  0.7546771E-02  0.9554989E-01
         21   -1    0    0  501  502  0.00000000000E+00  0.00000000000E+00  0.23897407998E+03  0.23897407998E+03  0.00000000000E+00 0. -1.
         21   -1    0    0  502  503 -0.00000000000E+00 -0.00000000000E+00 -0.67537158069E+03  0.67537158069E+03  0.00000000000E+00 0. -1.
         25    1    1    2    0    0 -0.30169206678E+03 -0.22976217049E+03 -0.16175617470E+03  0.43081181298E+03  0.12500000000E+03 0.  0.
          1    1    1    2  501    0  0.13896726201E+02  0.64668262964E+02 -0.48067261635E+02  0.81765303613E+02  0.00000000000E+00 0.  1.
         -1    1    1    2    0  503  0.28779534058E+03  0.16509390753E+03 -0.22657406438E+03  0.40176854408E+03  0.00000000000E+00 0. -1.
<mgrwt>
<rscale>  4 0.80348317E+03</rscale>
<asrwt>0</asrwt>
<pdfrwt beam="1">  1       21 0.36765244E-01 0.80348317E+03</pdfrwt>
<pdfrwt beam="2">  1       21 0.10390332E+00 0.80348317E+03</pdfrwt>
<totfact> 0.42972902E+03</totfact>
</mgrwt>
</event>
<event>
 5    0  0.3372079E-003  0.5579629E+03  0.7546771E-02  0.9996675E-01
         21   -1    0    0  501  502  0.00000000000E+00  0.00000000000E+00  0.31375748322E+03  0.31375748322E+03  0.00000000000E+00 0. -1.
         21   -1    0    0  502  503 -0.00000000000E+00 -0.00000000000E+00 -0.24805990934E+03  0.24805990934E+03  0.00000000000E+00 0. -1.
         25    1    1    2    0    0  0.14048876636E+03  0.18517781664E+03  0.15277941473E+03  0.30494994149E+03  0.12500000000E+03 0.  0.
          2    1    1    2  501    0 -0.14463062665E+02 -0.46732875107E+02  0.31927075382E+01  0.49023822565E+02  0.00000000000E+00 0.  1.
         -2    1    1    2    0  503 -0.12602570369E+03 -0.13844494153E+03 -0.90274548388E+02  0.20784362851E+03  0.00000000000E+00 0. -1.
<mgrwt>
<rscale>  4 0.55796291E+03</rscale>
<asrwt>0</asrwt>
<pdfrwt beam="1">  1       21 0.48270382E-01 0.55796291E+03</pdfrwt>
<pdfrwt beam="2">  1       21 0.38163063E-01 0.55796291E+03</pdfrwt>
<totfact> 0.24077090E+04</totfact>
</mgrwt>
</event>
<event>
 5    0  0.3372079E-003  0.5738658E+03  0.7546771E-02  0.9961161E-01
         21   -1    0    0  501  502  0.00000000000E+00  0.00000000000E+00  0.56209312391E+02  0.56209312391E+02  0.00000000000E+00 0. -1.
         21   -1    0    0  502  503 -0.00000000000E+00 -0.00000000000E+00 -0.14647124442E+04  0.14647124442E+04  0.00000000000E+00 0. -1.
         25    1    1    2    0    0  0.18888294819E+03  0.18400132262E+03 -0.61871719008E+03  0.68408275534E+03  0.12500000000E+03 0.  0.
          3    1    1    2  501    0 -0.15777383377E+02 -0.19208343445E+02 -0.23731224284E+02  0.34366514082E+02  0.00000000000E+00 0.  1.
         -3    1    1    2    0  503 -0.17310556482E+03 -0.16479297918E+03 -0.76605471748E+03  0.80247248721E+03  0.00000000000E+00 0. -1.
<mgrwt>
<rscale>  4 0.57386577E+03</rscale>
<asrwt>0</asrwt>
<pdfrwt beam="1">  1       21 0.86475878E-02 0.57386577E+03</pdfrwt>
<pdfrwt beam="2">  1       21 0.22534034E+00 0.57386577E+03</pdfrwt>
<totfact> 0.80776421E+03</totfact>
</mgrwt>
</event>
<event>
 5    0  0.3372079E-003  0.6161946E+03  0.7546771E-02  0.9872366E-01
         21   -1    0    0  503  502  0.00000000000E+00  0.00000000000E+00  0.13913471172E+03  0.13913471172E+03  0.00000000000E+00 0. -1.
         21   -1    0    0  501  503 -0.00000000000E+00 -0.00000000000E+00 -0.68224496395E+03  0.68224496395E+03  0.00000000000E+00 0. -1.
         25    1    1    2    0    0  0.35471965774E+02  0.27162743157E+03 -0.25217507940E+03  0.39275563981E+03  0.12500000000E+03 0.  0.
          4    1    1    2  501    0 -0.83328520753E+02 -0.24735306521E+03 -0.23742267360E+03  0.35284090916E+03  0.00000000000E+00 0. -1.
         -4    1    1    2    0  502  0.47856554979E+02 -0.24274366365E+02 -0.53512499241E+02  0.75783126696E+02  0.00000000000E+00 0.  1.
<mgrwt>
<rscale>  4 0.61619463E+03</rscale>
<asrwt>0</asrwt>
<pdfrwt beam="1">  1       21 0.21405340E-01 0.61619463E+03</pdfrwt>
<pdfrwt beam="2">  1       21 0.10496077E+00 0.61619463E+03</pdfrwt>
<totfact> 0.12758442E+04</totfact>
</mgrwt>
</event>
<event>
 5    0  0.3372079E-003  0.5855091E+03  0.7546771E-02  0.9935935E-01
         21   -1    0    0  503  502  0.00000000000E+00  0.00000000000E+00  0.22067590675E+03  0.22067590675E+03  0.00000000000E+00 0.  1.
         21   -1    0    0  501  503 -0.00000000000E+00 -0.00000000000E+00 -0.38837602260E+03  0.38837602260E+03  0.00000000000E+00 0.  1.
         25    1    1    2    0    0 -0.18072664166E+02  0.24124601018E+03 -0.20805330327E+03  0.34269145834E+03  0.12500000000E+03 0.  0.
          2    1    1    2  501    0 -0.27884842928E+02 -0.12358943013E+03 -0.16639977933E+02  0.12778419530E+03  0.00000000000E+00 0. -1.
         -2    1    1    2    0  502  0.45957507095E+02 -0.11765658006E+03  0.56993165355E+02  0.13857627570E+03  0.00000000000E+00 0.  1.
<mgrwt>
<rscale>  4 0.58550912E+03</rscale>
<asrwt>0</asrwt>
<pdfrwt beam="1">  1       21 0.33950140E-01 0.58550912E+03</pdfrwt>
<pdfrwt beam="2">  1       21 0.59750156E-01 0.58550912E+03</pdfrwt>
<totfact> 0.19164464E+04</totfact>
</mgrwt>
</event>
<event>
 5    0  0.3372079E-003  0.4824358E+03  0.7546771E-02  0.1018468E+00
         21   -1    0    0  501  502  0.00000000000E+00  0.00000000000E+00  0.48113214371E+02  0.48113214371E+02  0.00000000000E+00 0.  1.
         21   -1    0    0  502  503 -0.00000000000E+00 -0.00000000000E+00 -0.12093573122E+04  0.12093573122E+04  0.00000000000E+00 0.  1.
         25    1    1    2    0    0  0.20125639792E+03  0.94637504765E+02 -0.58775514506E+03  0.64073512901E+03  0.12500000000E+03 0.  0.
          4    1    1    2  501    0 -0.69377974072E+02 -0.46739284667E+02 -0.26378052979E+03  0.27672736025E+03  0.00000000000E+00 0. -1.
         -4    1    1    2    0  503 -0.13187842385E+03 -0.47898220098E+02 -0.30970842299E+03  0.34000803731E+03  0.00000000000E+00 0.  1.
<mgrwt>
<rscale>  4 0.48243577E+03</rscale>
<asrwt>0</asrwt>
<pdfrwt beam="1">  1       21 0.74020331E-02 0.48243577E+03</pdfrwt>
<pdfrwt beam="2">  1       21 0.18605497E+00 0.48243577E+03</pdfrwt>
<totfact> 0.19949291E+04</totfact>
</mgrwt>
</event>
<event>
 5    0  0.3372079E-003  0.6194067E+03  0.7546771E-02  0.9865942E-01
         21   -1    0    0  503  502  0.00000000000E+00  0.00000000000E+00  0.13904116259E+03  0.13904116259E+03  0.00000000000E+00 0.  1.
         21   -1    0    0  501  503 -0.00000000000E+00 -0.00000000000E+00 -0.68984006800E+03  0.68984006800E+03  0.00000000000E+00 0.  1.
         25    1    1    2    0    0 -0.14512170449E+03  0.24059537676E+03 -0.31824884111E+03  0.44255369087E+03  0.12500000000E+03 0.  0.
          4    1    1    2  501    0  0.63506206806E+02 -0.14619980230E+02 -0.73301191204E+02  0.98080817476E+02  0.00000000000E+00 0. -1.
         -4    1    1    2    0  502  0.81615497680E+02 -0.22597539653E+03 -0.15924887309E+03  0.28824672224E+03  0.00000000000E+00 0.  1.
<mgrwt>
<rscale>  4 0.61940670E+03</rscale>
<asrwt>0</asrwt>
<pdfrwt beam="1">  1       21 0.21390948E-01 0.61940670E+03</pdfrwt>
<pdfrwt beam="2">  1       21 0.10612924E+00 0.61940670E+03</pdfrwt>
<totfact> 0.12420137E+04</totfact>
</mgrwt>
</event>
<event>
 5    0  0.3372079E-003  0.4872615E+03  0.7546771E-02  0.1017158E+00
         21   -1    0    0  503  502  0.00000000000E+00  0.00000000000E+00  0.12858657480E+03  0.12858657480E+03  0.00000000000E+00 0.  1.
         21   -1    0    0  501  503 -0.00000000000E+00 -0.00000000000E+00 -0.46160290935E+03  0.46160290935E+03  0.00000000000E+00 0.  1.
         25    1    1    2    0    0 -0.17596736297E+03 -0.11452822206E+03 -0.11823270342E+03  0.27145017708E+03  0.12500000000E+03 0.  0.
          1    1    1    2  501    0 -0.13683159884E+01  0.23948712920E+02 -0.65827041893E+02  0.70061491445E+02  0.00000000000E+00 0. -1.
         -1    1    1    2    0  502  0.17733567896E+03  0.90579509139E+02 -0.14895658924E+03  0.24867781563E+03  0.00000000000E+00 0.  1.
<mgrwt>
<rscale>  4 0.48726148E+03</rscale>
<asrwt>0</asrwt>
<pdfrwt beam="1">  1       21 0.19782551E-01 0.48726148E+03</pdfrwt>
<pdfrwt beam="2">  1       21 0.71015830E-01 0.48726148E+03</pdfrwt>
<totfact> 0.38386997E+04</totfact>
</mgrwt>
</event>
<event>
 5    0  0.3372079E-003  0.5792406E+03  0.7546771E-02  0.9949436E-01
         21   -1    0    0  501  502  0.00000000000E+00  0.00000000000E+00  0.10025198585E+03  0.10025198585E+03  0.00000000000E+00 0. -1.
         21   -1    0    0  502  503 -0.00000000000E+00 -0.00000000000E+00 -0.83669096183E+03  0.83669096183E+03  0.00000000000E+00 0. -1.
         25    1    1    2    0    0  0.18265952298E+03  0.18073344915E+03 -0.52311859014E+03  0.59607645510E+03  0.12500000000E+03 0.  0.
          1    1    1    2  501    0 -0.71180477579E+02 -0.29413056862E+02 -0.75015988753E+02  0.10751365900E+03  0.00000000000E+00 0.  1.
         -1    1    1    2    0  503 -0.11147904540E+03 -0.15132039229E+03 -0.13830439709E+03  0.23335283358E+03  0.00000000000E+00 0. -1.
<mgrwt>
<rscale>  4 0.57924064E+03</rscale>
<asrwt>0</asrwt>
<pdfrwt beam="1">  1       21 0.15423382E-01 0.57924064E+03</pdfrwt>
<pdfrwt beam="2">  1       21 0.12872169E+00 0.57924064E+03</pdfrwt>
<totfact> 0.14266623E+04</totfact>
</mgrwt>
</event>
<event>
 5    0  0.3372079E-003  0.5800395E+03  0.7546771E-02  0.9947706E-01
         21   -1    0    0  503  502  0.00000000000E+00  0.00000000000E+00  0.43868787747E+03  0.43868787747E+03  0.00000000000E+00 0. -1.
         21   -1    0    0  501  503 -0.00000000000E+00 -0.00000000000E+00 -0.19173414862E+03  0.19173414862E+03  0.00000000000E+00 0. -1.
         25    1    1    2    0    0  0.22378925877E+03  0.10836085377E+03  0.23583251254E+03  0.36478168943E+03  0.12500000000E+03 0.  0.
          3    1    1    2  501    0 -0.17771227759E+03 -0.10433480723E+03 -0.24132372324E+02  0.20748440183E+03  0.00000000000E+00 0. -1.
         -3    1    1    2    0  502 -0.46076981177E+02 -0.40260465406E+01  0.35253588635E+02  0.58155934837E+02  0.00000000000E+00 0.  1.
<mgrwt>
<rscale>  4 0.58003947E+03</rscale>
<asrwt>0</asrwt>
<pdfrwt beam="1">  1       21 0.67490442E-01 0.58003947E+03</pdfrwt>
<pdfrwt beam="2">  1       21 0.29497561E-01 0.58003947E+03</pdfrwt>
<totfact> 0.19405831E+04</totfact>
</mgrwt>
</event>
<event>
 5    0  0.3372079E-003  0.6472315E+03  0.7546771E-02  0.9811988E-01
         21   -1    0    0  501  502  0.00000000000E+00  0.00000000000E+00  0.33120002498E+03  0.33120002498E+03  0.00000000000E+00 0. -1.
         21   -1    0    0  502  503 -0.00000000000E+00 -0.00000000000E+00 -0.31620515448E+03  0.31620515448E+03  0.00000000000E+00 0. -1.
         25    1    1    2    0    0 -0.24910100922E+03 -0.14480854424E+03  0.73174222199E+01  0.31416456189E+03  0.12500000000E+03 0.  0.
          3    1    1    2  501    0  0.18260776609E+03  0.10335765483E+02 -0.20470441700E+01  0.18291149410E+03  0.00000000000E+00 0. -1.
         -3    1    1    2    0  503  0.66493243138E+02  0.13447277876E+03  0.97244924503E+01  0.15032912347E+03  0.00000000000E+00 0.  1.
<mgrwt>
<rscale>  4 0.64723150E+03</rscale>
<asrwt>0</asrwt>
<pdfrwt beam="1">  1       21 0.50953850E-01 0.64723150E+03</pdfrwt>
<pdfrwt beam="2">  1       21 0.48646946E-01 0.64723150E+03</pdfrwt>
<totfact> 0.12674998E+04</totfact>
</mgrwt>
</event>
<event>
 5    0  0.3372079E-003  0.6476497E+03  0.7546771E-02  0.9811199E-01
         21   -1    0    0  503  502  0.00000000000E+00  0.00000000000E+00  0.64993117818E+03  0.64993117818E+03  0.00000000000E+00 0.  1.
         21   -1    0    0  501  503 -0.00000000000E+00 -0.00000000000E+00 -0.16134406120E+03  0.16134406120E+03  0.00000000000E+00 0.  1.
         25    1    1    2    0    0 -0.19324060471E+03  0.68968960263E+02  0.50440907410E+03  0.55870579272E+03  0.12500000000E+03 0.  0.
          2    1    1    2  501    0  0.22118339357E+02  0.41588190328E+02  0.67818263948E+01  0.47589827484E+02  0.00000000000E+00 0. -1.
         -2    1    1    2    0  502  0.17112226535E+03 -0.11055715059E+03 -0.22603783520E+02  0.20497961917E+03  0.00000000000E+00 0.  1.
<mgrwt>
<rscale>  4 0.64764971E+03</rscale>
<asrwt>0</asrwt>
<pdfrwt beam="1">  1       21 0.99989411E-01 0.64764971E+03</pdfrwt>
<pdfrwt beam="2">  1       21 0.24822164E-01 0.64764971E+03</pdfrwt>
<totfact> 0.10717560E+04</totfact>
</mgrwt>
</event>
<event>
 5    0  0.3372079E-003  0.5570098E+03  0.7546771E-02  0.9998843E-01
         21   -1    0    0  501  502  0.00000000000E+00  0.00000000000E+00  0.46589030632E+03  0.46589030632E+03  0.00000000000E+00 0.  1.
         21   -1    0    0  502  503 -0.00000000000E+00 -0.00000000000E+00 -0.16648762529E+03  0.16648762529E+03  0.00000000000E+00 0.  1.
         25    1    1    2    0    0 -0.20431886658E+03  0.38471691064E+02  0.77771123504E+02  0.25475403413E+03  0.12500000000E+03 0.  0.
          4    1    1    2  501    0  0.90466843296E+02  0.80228212454E+02  0.16312486879E+03  0.20305304388E+03  0.00000000000E+00 0.  1.
         -4    1    1    2    0  503  0.11385202329E+03 -0.11869990352E+03  0.58506688738E+02  0.17457085361E+03  0.00000000000E+00 0. -1.
<mgrwt>
<rscale>  4 0.55700977E+03</rscale>
<asrwt>0</asrwt>
<pdfrwt beam="1">  1       21 0.71675431E-01 0.55700977E+03</pdfrwt>
<pdfrwt beam="2">  1       21 0.25613481E-01 0.55700977E+03</pdfrwt>
<totfact> 0.22494084E+04</totfact>
</mgrwt>
</event>
<event>
 5    0  0.3372079E-003  0.5034371E+03  0.7546771E-02  0.1012886E+00
         21   -1    0    0  503  502  0.00000000000E+00  0.00000000000E+00  0.12262179166E+03  0.12262179166E+03  0.00000000000E+00 0.  1.
         21   -1    0    0  501  503 -0.00000000000E+00 -0.00000000000E+00 -0.51672898070E+03  0.51672898070E+03  0.00000000000E+00 0.  1.
         25    1    1    2    0    0 -0.23490618150E+03 -0.33642264833E+01 -0.20643603564E+03  0.33679826148E+03  0.12500000000E+03 0.  0.
          2    1    1    2  501    0  0.28888029937E+02  0.11362891046E+02 -0.21691356178E+02  0.37870153147E+02  0.00000000000E+00 0. -1.
         -2    1    1    2    0  502  0.20601815157E+03 -0.79986645631E+01 -0.16597979722E+03  0.26468235773E+03  0.00000000000E+00 0.  1.
<mgrwt>
<rscale>  4 0.50343712E+03</rscale>
<asrwt>0</asrwt>
<pdfrwt beam="1">  1       21 0.18864891E-01 0.50343712E+03</pdfrwt>
<pdfrwt beam="2">  1       21 0.79496767E-01 0.50343712E+03</pdfrwt>
<totfact> 0.32346660E+04</totfact>
</mgrwt>
</event>
<event>
 5    0  0.3372079E-003  0.7781278E+03  0.7546771E-02  0.9592227E-01
         21   -1    0    0  503  502  0.00000000000E+00  0.00000000000E+00  0.27599145889E+03  0.27599145889E+03  0.00000000000E+00 0.  1.
         21   -1    0    0  501  503 -0.00000000000E+00 -0.00000000000E+00 -0.54846153557E+03  0.54846153557E+03  0.00000000000E+00 0.  1.
         25    1    1    2    0    0 -0.28491392253E+03 -0.15503047830E+03  0.48121365031E+02  0.35092885066E+03  0.12500000000E+03 0.  0.
          1    1    1    2  501    0  0.24059220900E+03  0.13890818104E+03 -0.32332103370E+03  0.42628228279E+03  0.00000000000E+00 0.  1.
         -1    1    1    2    0  502  0.44321713529E+02  0.16122297266E+02  0.27295919837E+01  0.47241861009E+02  0.00000000000E+00 0. -1.
<mgrwt>
<rscale>  4 0.77812775E+03</rscale>
<asrwt>0</asrwt>
<pdfrwt beam="1">  1       21 0.42460224E-01 0.77812775E+03</pdfrwt>
<pdfrwt beam="2">  1       21 0.84378699E-01 0.77812775E+03</pdfrwt>
<totfact> 0.53009769E+03</totfact>
</mgrwt>
</event>
<event>
 5    0  0.3372079E-003  0.5307785E+03  0.7546771E-02  0.1006044E+00
         21   -1    0    0  503  502  0.00000000000E+00  0.00000000000E+00  0.15977990928E+03  0.15977990928E+03  0.00000000000E+00 0. -1.
         21   -1    0    0  501  503 -0.00000000000E+00 -0.00000000000E+00 -0.44080288319E+03  0.44080288319E+03  0.00000000000E+00 0. -1.
         25    1    1    2    0    0 -0.14174188294E+03  0.16853973256E+03 -0.26562117356E+03  0.36698230294E+03  0.12500000000E+03 0.  0.
          1    1    1    2  501    0  0.10145837484E+03 -0.16268992595E+03 -0.19328561920E+02  0.19270549327E+03  0.00000000000E+00 0. -1.
         -1    1    1    2    0  502  0.40283508099E+02 -0.58498066112E+01  0.39267615627E+01  0.40894996253E+02  0.00000000000E+00 0.  1.
<mgrwt>
<rscale>  4 0.53077846E+03</rscale>
<asrwt>0</asrwt>
<pdfrwt beam="1">  1       21 0.24581525E-01 0.53077846E+03</pdfrwt>
<pdfrwt beam="2">  1       21 0.67815827E-01 0.53077846E+03</pdfrwt>
<totfact> 0.27774695E+04</totfact>
</mgrwt>
</event>
<event>
 5    0  0.3372079E-003  0.6387737E+03  0.7546771E-02  0.9828076E-01
         21   -1    0    0  501  502  0.00000000000E+00  0.00000000000E+00  0.25892326780E+03  0.25892326780E+03  0.00000000000E+00 0.  1.
         21   -1    0    0  502  503 -0.00000000000E+00 -0.00000000000E+00 -0.39396987801E+03  0.39396987801E+03  0.00000000000E+00 0.  1.
         25    1    1    2    0    0  0.52004472973E+02  0.27042610359E+03 -0.18928264570E+03  0.35677396580E+03  0.12500000000E+03 0.  0.
          4    1    1    2  501    0 -0.18006163688E+02 -0.22395437171E+03  0.12539090772E+02  0.22502669028E+03  0.00000000000E+00 0.  1.
         -4    1    1    2    0  503 -0.33998309285E+02 -0.46471731874E+02  0.41696944710E+02  0.71092489728E+02  0.00000000000E+00 0. -1.
<mgrwt>
<rscale>  4 0.63877373E+03</rscale>
<asrwt>0</asrwt>
<pdfrwt beam="1">  1       21 0.39834349E-01 0.63877373E+03</pdfrwt>
<pdfrwt beam="2">  1       21 0.60610750E-01 0.63877373E+03</pdfrwt>
<totfact> 0.13242998E+04</totfact>
</mgrwt>
</event>
<event>
 5    0  0.3372079E-003  0.5657654E+03  0.7546771E-02  0.9979093E-01
         21   -1    0    0  503  502  0.00000000000E+00  0.00000000000E+00  0.32269993440E+03  0.32269993440E+03  0.00000000000E+00 0.  1.
         21   -1    0    0  501  503 -0.00000000000E+00 -0.00000000000E+00 -0.24797842984E+03  0.24797842984E+03  0.00000000000E+00 0.  1.
         25    1    1    2    0    0 -0.16267086809E+03 -0.19221109376E+03  0.72473300710E+02  0.29031757647E+03  0.12500000000E+03 0.  0.
          3    1    1    2  501    0  0.11440440330E+03  0.67472679963E+02  0.44531030685E+02  0.14008548365E+03  0.00000000000E+00 0.  1.
         -3    1    1    2    0  502  0.48266464788E+02  0.12473841380E+03 -0.42282826838E+02  0.14027530412E+03  0.00000000000E+00 0. -1.
<mgrwt>
<rscale>  4 0.56576540E+03</rscale>
<asrwt>0</asrwt>
<pdfrwt beam="1">  1       21 0.49646144E-01 0.56576540E+03</pdfrwt>
<pdfrwt beam="2">  1       21 0.38150528E-01 0.56576540E+03</pdfrwt>
<totfact> 0.22657575E+04</totfact>
</mgrwt>
</event>
<event>
 5    0  0.3372079E-003  0.6294712E+03  0.7546771E-02  0.9846081E-01
         21   -1    0    0  503  502  0.00000000000E+00  0.00000000000E+00  0.13546604117E+03  0.13546604117E+03  0.00000000000E+00 0.  1.
         21   -1    0    0  501  503 -0.00000000000E+00 -0.00000000000E+00 -0.73124239421E+03  0.73124239421E+03  0.00000000000E+00 0.  1.
         25    1    1    2    0    0  0.23005130704E+03  0.14956068140E+03 -0.26397922599E+03  0.40075183474E+03  0.12500000000E+03 0.  0.
          3    1    1    2  501    0 -0.61113843039E+02 -0.65746023343E+02 -0.23995603937E+03  0.25619590595E+03  0.00000000000E+00 0.  1.
         -3    1    1    2    0  502 -0.16893746400E+03 -0.83814658053E+02 -0.91841087687E+02  0.20976069469E+03  0.00000000000E+00 0. -1.
<mgrwt>
<rscale>  4 0.62947125E+03</rscale>
<asrwt>0</asrwt>
<pdfrwt beam="1">  1       21 0.20840929E-01 0.62947125E+03</pdfrwt>
<pdfrwt beam="2">  1       21 0.11249883E+00 0.62947125E+03</pdfrwt>
<totfact> 0.11264425E+04</totfact>
</mgrwt>
</event>
<event>
 5    0  0.3372079E-003  0.5431600E+03  0.7546771E-02  0.1003090E+00
         21   -1    0    0  501  502  0.00000000000E+00  0.00000000000E+00  0.56318131787E+02  0.56318131787E+02  0.00000000000E+00 0.  1.
         21   -1    0    0  502  503 -0.00000000000E+00 -0.00000000000E+00 -0.13096263330E+04  0.13096263330E+04  0.00000000000E+00 0.  1.
         25    1    1    2    0    0 -0.76443920375E+02  0.22763732862E+03 -0.44751168247E+03  0.52302402649E+03  0.12500000000E+03 0.  0.
          3    1    1    2  501    0  0.80513566915E+02 -0.16368227414E+03 -0.62649439365E+03  0.65251018889E+03  0.00000000000E+00 0.  1.
         -3    1    1    2    0  503 -0.40696465404E+01 -0.63955054475E+02 -0.17930212504E+03  0.19041024936E+03  0.00000000000E+00 0. -1.
<mgrwt>
<rscale>  4 0.54316004E+03</rscale>
<asrwt>0</asrwt>
<pdfrwt beam="1">  1       21 0.86643287E-02 0.54316004E+03</pdfrwt>
<pdfrwt beam="2">  1       21 0.20148096E+00 0.54316004E+03</pdfrwt>
<totfact> 0.11633704E+04</totfact>
</mgrwt>
</event>
<event>
 5    0  0.3372079E-003  0.5931223E+03  0.7546771E-02  0.9919779E-01
         21   -1    0    0  501  502  0.00000000000E+00  0.00000000000E+00  0.76244658662E+03  0.76244658662E+03  0.00000000000E+00 0.  1.
         21   -1    0    0  502  503 -0.00000000000E+00 -0.00000000000E+00 -0.11535040524E+03  0.11535040524E+03  0.00000000000E+00 0.  1.
         25    1    1    2    0    0 -0.14022910099E+03  0.15686572567E+03  0.47538672367E+03  0.53468550915E+03  0.12500000000E+03 0.  0.
          3    1    1    2  501    0  0.63202430937E+02  0.25646626909E+02 -0.16157369799E+02  0.70095344688E+02  0.00000000000E+00 0. -1.
         -3    1    1    2    0  503  0.77026670054E+02 -0.18251235258E+03  0.18786682751E+03  0.27301613803E+03  0.00000000000E+00 0.  1.
<mgrwt>
<rscale>  4 0.59312232E+03</rscale>
<asrwt>0</asrwt>
<pdfrwt beam="1">  1       21 0.11729947E+00 0.59312232E+03</pdfrwt>
<pdfrwt beam="2">  1       21 0.17746217E-01 0.59312232E+03</pdfrwt>
<totfact> 0.13883433E+04</totfact>
</mgrwt>
</event>
<event>
 5    0  0.3372079E-003  0.4584534E+03  0.7546771E-02  0.1025231E+00
         21   -1    0    0  501  502  0.00000000000E+00  0.00000000000E+00  0.86564047648E+03  0.86564047648E+03  0.00000000000E+00 0. -1.
         21   -1    0    0  502  503 -0.00000000000E+00 -0.00000000000E+00 -0.60700574823E+02  0.60700574823E+02  0.00000000000E+00 0. -1.
         25    1    1    2    0    0 -0.12283582035E+03  0.16424774582E+03  0.41484533948E+03  0.47936167604E+03  0.12500000000E+03 0.  0.
          2    1    1    2  501    0  0.59730118743E+02 -0.11282938842E+03  0.29723888013E+03  0.32349514654E+03  0.00000000000E+00 0.  1.
         -2    1    1    2    0  503  0.63105701611E+02 -0.51418357400E+02  0.92855682052E+02  0.12348422872E+03  0.00000000000E+00 0. -1.
<mgrwt>
<rscale>  4 0.45845338E+03</rscale>
<asrwt>0</asrwt>
<pdfrwt beam="1">  1       21 0.13317545E+00 0.45845338E+03</pdfrwt>
<pdfrwt beam="2">  1       21 0.93385506E-02 0.45845338E+03</pdfrwt>
<totfact> 0.33634931E+04</totfact>
</mgrwt>
</event>
<event>
 5    0  0.3372079E-003  0.7871313E+03  0.7546771E-02  0.9578833E-01
         21   -1    0    0  503  502  0.00000000000E+00  0.00000000000E+00  0.15963675597E+03  0.15963675597E+03  0.00000000000E+00 0.  1.
         21   -1    0    0  501  503 -0.00000000000E+00 -0.00000000000E+00 -0.97028985468E+03  0.97028985468E+03  0.00000000000E+00 0.  1.
         25    1    1    2    0    0 -0.31971665745E+03  0.81046773196E+02 -0.16719074301E+03  0.39033967905E+03  0.12500000000E+03 0.  0.
          4    1    1    2  501    0  0.75209646950E+02  0.16013343213E+02 -0.28349458580E+03  0.29373814586E+03  0.00000000000E+00 0. -1.
         -4    1    1    2    0  502  0.24450701050E+03 -0.97060116409E+02 -0.35996776990E+03  0.44584878574E+03  0.00000000000E+00 0.  1.
<mgrwt>
<rscale>  4 0.78713131E+03</rscale>
<asrwt>0</asrwt>
<pdfrwt beam="1">  1       21 0.24559500E-01 0.78713131E+03</pdfrwt>
<pdfrwt beam="2">  1       21 0.14927537E+00 0.78713131E+03</pdfrwt>
<totfact> 0.37644226E+03</totfact>
</mgrwt>
</event>
<event>
 5    0  0.3372079E-003  0.7507765E+03  0.7546771E-02  0.9634133E-01
         21   -1    0    0  503  502  0.00000000000E+00  0.00000000000E+00  0.69235221008E+02  0.69235221008E+02  0.00000000000E+00 0.  1.
         21   -1    0    0  501  503 -0.00000000000E+00 -0.00000000000E+00 -0.20353275356E+04  0.20353275356E+04  0.00000000000E+00 0.  1.
         25    1    1    2    0    0  0.24432917949E+03  0.78143625017E+02 -0.45064124361E+03  0.53339076157E+03  0.12500000000E+03 0.  0.
          3    1    1    2  501    0 -0.11167706919E+03  0.81037517862E+02 -0.10817473845E+04  0.10905119215E+04  0.00000000000E+00 0.  1.
         -3    1    1    2    0  502 -0.13265211030E+03 -0.15918114288E+03 -0.43370368647E+03  0.48066007352E+03  0.00000000000E+00 0. -1.
<mgrwt>
<rscale>  4 0.75077654E+03</rscale>
<asrwt>0</asrwt>
<pdfrwt beam="1">  1       21 0.10651573E-01 0.75077654E+03</pdfrwt>
<pdfrwt beam="2">  1       21 0.31312731E+00 0.75077654E+03</pdfrwt>
<totfact> 0.15009810E+03</totfact>
</mgrwt>
</event>
<event>
 5    0  0.3372079E-003  0.6183846E+03  0.7546771E-02  0.9867981E-01
         21   -1    0    0  501  502  0.00000000000E+00  0.00000000000E+00  0.11948449429E+04  0.11948449429E+04  0.00000000000E+00 0.  1.
         21   -1    0    0  502  503 -0.00000000000E+00 -0.00000000000E+00 -0.80010287149E+02  0.80010287149E+02  0.00000000000E+00 0.  1.
         25    1    1    2    0    0 -0.67567228929E+02 -0.28506271509E+03  0.63497216209E+03  0.71038069272E+03  0.12500000000E+03 0.  0.
          3    1    1    2  501    0  0.22882720299E+02  0.27283072909E+02  0.60007191914E+02  0.69777131189E+02  0.00000000000E+00 0. -1.
         -3    1    1    2    0  503  0.44684508631E+02  0.25777964218E+03  0.41985530172E+03  0.49469740611E+03  0.00000000000E+00 0.  1.
<mgrwt>
<rscale>  4 0.61838463E+03</rscale>
<asrwt>0</asrwt>
<pdfrwt beam="1">  1       21 0.18382229E+00 0.61838463E+03</pdfrwt>
<pdfrwt beam="2">  1       21 0.12309276E-01 0.61838463E+03</pdfrwt>
<totfact> 0.79771127E+03</totfact>
</mgrwt>
</event>
<event>
 5    0  0.3372079E-003  0.6070619E+03  0.7546771E-02  0.9890862E-01
         21   -1    0    0  501  502  0.00000000000E+00  0.00000000000E+00  0.18347777644E+03  0.18347777644E+03  0.00000000000E+00 0.  1.
         21   -1    0    0  502  503 -0.00000000000E+00 -0.00000000000E+00 -0.50213726169E+03  0.50213726169E+03  0.00000000000E+00 0.  1.
         25    1    1    2    0    0  0.12716408010E+02  0.28384354351E+03 -0.20644530989E+03  0.37279153719E+03  0.12500000000E+03 0.  0.
          2    1    1    2  501    0 -0.68839461160E+01 -0.61009309305E+02 -0.55612896321E+02  0.82839113788E+02  0.00000000000E+00 0. -1.
         -2    1    1    2    0  503 -0.58324618942E+01 -0.22283423420E+03 -0.56601279037E+02  0.22998438715E+03  0.00000000000E+00 0.  1.
<mgrwt>
<rscale>  4 0.60706187E+03</rscale>
<asrwt>0</asrwt>
<pdfrwt beam="1">  1       21 0.28227350E-01 0.60706187E+03</pdfrwt>
<pdfrwt beam="2">  1       21 0.77251887E-01 0.60706187E+03</pdfrwt>
<totfact> 0.15483384E+04</totfact>
</mgrwt>
</event>
<event>
 5    0  0.3372079E-003  0.5287890E+03  0.7546771E-02  0.1006526E+00
         21   -1    0    0  501  502  0.00000000000E+00  0.00000000000E+00  0.21827695941E+03  0.21827695941E+03  0.00000000000E+00 0.  1.
         21   -1    0    0  502  503 -0.00000000000E+00 -0.00000000000E+00 -0.32025576383E+03  0.32025576383E+03  0.00000000000E+00 0.  1.
         25    1    1    2    0    0 -0.19734201192E+03  0.14744130186E+03 -0.37580834600E+02  0.27878329630E+03  0.12500000000E+03 0.  0.
          2    1    1    2  501    0  0.91960060453E+02 -0.41391472836E+02 -0.13126663656E+02  0.10169668648E+03  0.00000000000E+00 0. -1.
         -2    1    1    2    0  503  0.10538195147E+03 -0.10604982902E+03 -0.51271306173E+02  0.15805274046E+03  0.00000000000E+00 0.  1.
<mgrwt>
<rscale>  4 0.52878901E+03</rscale>
<asrwt>0</asrwt>
<pdfrwt beam="1">  1       21 0.33581071E-01 0.52878901E+03</pdfrwt>
<pdfrwt beam="2">  1       21 0.49270117E-01 0.52878901E+03</pdfrwt>
<totfact> 0.30088231E+04</totfact>
</mgrwt>
</event>
<event>
 5    0  0.3372079E-003  0.1118462E+04  0.7546771E-02  0.9187382E-01
         21   -1    0    0  501  502  0.00000000000E+00  0.00000000000E+00  0.31488187811E+03  0.31488187811E+03  0.00000000000E+00 0. -1.
         21   -1    0    0  502  503 -0.00000000000E+00 -0.00000000000E+00 -0.99319592001E+03  0.99319592001E+03  0.00000000000E+00 0. -1.
         25    1    1    2    0    0  0.47217495474E+03  0.15960208090E+03 -0.23071956435E+03  0.56327482589E+03  0.12500000000E+03 0.  0.
          4    1    1    2  501    0 -0.35793518462E+03  0.42079489131E+02 -0.30905908227E+03  0.47476920301E+03  0.00000000000E+00 0.  1.
         -4    1    1    2    0  503 -0.11423977012E+03 -0.20168157003E+03 -0.13853539529E+03  0.27003376921E+03  0.00000000000E+00 0. -1.
<mgrwt>
<rscale>  4 0.11184622E+04</rscale>
<asrwt>0</asrwt>
<pdfrwt beam="1">  1       21 0.48443366E-01 0.11184622E+04</pdfrwt>
<pdfrwt beam="2">  1       21 0.15279937E+00 0.11184622E+04</pdfrwt>
<totfact> 0.82351290E+02</totfact>
</mgrwt>
</event>
