<event>
 5    0  0.2917107E+000  0.2052805E+03  0.7546771E-02  0.1145359E+00
          2   -1    0    0  502    0  0.00000000000E+00  0.00000000000E+00  0.25567029976E+04  0.25567029976E+04  0.00000000000E+00 0.  1.
          2   -1    0    0  501    0 -0.00000000000E+00 -0.00000000000E+00 -0.28622098007E+03  0.28622098007E+03  0.00000000000E+00 0. -1.
         25    1    1    2    0    0  0.17177762651E+03 -0.10560154359E+03 -0.13686654928E+03  0.27389175104E+03  0.12500000000E+03 0.  0.
          2    1    1    2  501    0 -0.45432226413E+02  0.63017466196E+02  0.24321719059E+04  0.24334123095E+04  0.00000000000E+00 0.  1.
          2    1    1    2  502    0 -0.12634540009E+03  0.42584077399E+02 -0.24823339031E+02  0.13561991717E+03  0.00000000000E+00 0. -1.
<mgrwt>
<rscale>  4 0.20528046E+03</rscale>
<asrwt>0</asrwt>
<pdfrwt beam="1">  1        2 0.39333891E+00 0.20528046E+03</pdfrwt>
<pdfrwt beam="2">  1        2 0.44033999E-01 0.20528046E+03</pdfrwt>
<totfact> 0.69139678E+01</totfact>
</mgrwt>
</event>
<event>
 5    0  0.2917107E+000  0.3161148E+03  0.7546771E-02  0.1077451E+00
          2   -1    0    0  502    0  0.00000000000E+00  0.00000000000E+00  0.86603601041E+03  0.86603601041E+03  0.00000000000E+00 0.  1.
          4   -1    0    0  501    0 -0.00000000000E+00 -0.00000000000E+00 -0.46783266443E+03  0.46783266443E+03  0.00000000000E+00 0. -1.
         25    1    1    2    0    0  0.22673159666E+03 -0.18150049095E+02 -0.14369150729E+03  0.29666292400E+03  0.12500000000E+03 0.  0.
          2    1    1    2  501    0 -0.29676681126E+03 -0.37291536622E+02  0.75178490504E+03  0.80909934026E+03  0.00000000000E+00 0.  1.
          4    1    1    2  502    0  0.70035214592E+02  0.55441585717E+02 -0.20989005178E+03  0.22810641057E+03  0.00000000000E+00 0. -1.
<mgrwt>
<rscale>  4 0.31611480E+03</rscale>
<asrwt>0</asrwt>
<pdfrwt beam="1">  1        2 0.13323631E+00 0.31611480E+03</pdfrwt>
<pdfrwt beam="2">  1        4 0.71974256E-01 0.31611480E+03</pdfrwt>
<totfact> 0.30491768E+01</totfact>
</mgrwt>
</event>
<event>
 5    0  0.2917107E+000  0.4216556E+03  0.7546771E-02  0.1036529E+00
          2   -1    0    0  502    0  0.00000000000E+00  0.00000000000E+00  0.20718230627E+04  0.20718230627E+04  0.00000000000E+00 0. -1.
          1   -1    0    0  501    0 -0.00000000000E+00 -0.00000000000E+00 -0.62498746319E+03  0.62498746319E+03  0.00000000000E+00 0. -1.
         25    1    1    2    0    0 -0.19123905779E+03  0.40042355298E+03  0.15687855480E+03  0.48697769966E+03  0.12500000000E+03 0.  0.
          2    1    1    2  501    0  0.18604471224E+03 -0.35086652023E+03  0.17259247164E+04  0.17710268424E+04  0.00000000000E+00 0. -1.
          1    1    1    2  502    0  0.51943455438E+01 -0.49557032755E+02 -0.43596767165E+03  0.43880598383E+03  0.00000000000E+00 0. -1.
<mgrwt>
<rscale>  4 0.42165565E+03</rscale>
<asrwt>0</asrwt>
<pdfrwt beam="1">  1        2 0.31874201E+00 0.42165565E+03</pdfrwt>
<pdfrwt beam="2">  1        1 0.96151918E-01 0.42165565E+03</pdfrwt>
<totfact> 0.29346119E+01</totfact>
</mgrwt>
</event>
<event>
 5    0  0.2917107E+000  0.2267244E+03  0.7546771E-02  0.1128967E+00
          1   -1    0    0  501    0 -0.00000000000E+00  0.00000000000E+00  0.10777117747E+04  0.10777117747E+04  0.00000000000E+00 0.  1.
          2   -1    0    0  502    0  0.00000000000E+00 -0.00000000000E+00 -0.12713271985E+04  0.12713271985E+04  0.00000000000E+00 0.  1.
         25    1    1    2    0    0  0.18942596532E+03 -0.14922427847E+03 -0.24249690751E+03  0.36411513533E+03  0.12500000000E+03 0.  0.
          2    1    1    2  501    0 -0.38213207128E+02  0.38069752975E+02 -0.95859771090E+03  0.96011412167E+03  0.00000000000E+00 0.  1.
          1    1    1    2  502    0 -0.15121275820E+03  0.11115452549E+03  0.10074791946E+04  0.10248097162E+04  0.00000000000E+00 0.  1.
<mgrwt>
<rscale>  4 0.22672437E+03</rscale>
<asrwt>0</asrwt>
<pdfrwt beam="1">  1        2 0.19558880E+00 0.22672437E+03</pdfrwt>
<pdfrwt beam="2">  1        1 0.16580181E+00 0.22672437E+03</pdfrwt>
<totfact> 0.36001603E+01</totfact>
</mgrwt>
</event>
<event>
 5    0  0.2917107E+000  0.2866481E+03  0.7546771E-02  0.1092112E+00
          2   -1    0    0  502    0  0.00000000000E+00  0.00000000000E+00  0.72633105044E+03  0.72633105044E+03  0.00000000000E+00 0. -1.
          1   -1    0    0  501    0 -0.00000000000E+00 -0.00000000000E+00 -0.20408369762E+03  0.20408369762E+03  0.00000000000E+00 0. -1.
         25    1    1    2    0    0 -0.10007388235E+03  0.22247598340E+03  0.23203857017E+03  0.35913401839E+03  0.12500000000E+03 0.  0.
          2    1    1    2  501    0 -0.22815011563E+02  0.11173549132E+02  0.30577301964E+03  0.30682651856E+03  0.00000000000E+00 0. -1.
          1    1    1    2  502    0  0.12288889392E+03 -0.23364953253E+03 -0.15564236992E+02  0.26445421111E+03  0.00000000000E+00 0. -1.
<mgrwt>
<rscale>  4 0.28664808E+03</rscale>
<asrwt>0</asrwt>
<pdfrwt beam="1">  1        2 0.11174324E+00 0.28664808E+03</pdfrwt>
<pdfrwt beam="2">  1        1 0.31397492E-01 0.28664808E+03</pdfrwt>
<totfact> 0.77762123E+02</totfact>
</mgrwt>
</event>
<event>
 5    0  0.2917107E+000  0.2830023E+03  0.7546771E-02  0.1094060E+00
         -3   -1    0    0    0  501 -0.00000000000E+00  0.00000000000E+00  0.24435042588E+03  0.24435042588E+03  0.00000000000E+00 0.  1.
          2   -1    0    0  501    0  0.00000000000E+00 -0.00000000000E+00 -0.18685150585E+04  0.18685150585E+04  0.00000000000E+00 0.  1.
         25    1    1    2    0    0 -0.16059311311E+03  0.13447820515E+03 -0.18498255326E+03  0.30613408933E+03  0.12500000000E+03 0.  0.
          2    1    1    2  502    0 -0.10394192637E+03 -0.48469123349E+02 -0.15142716546E+04  0.15186085157E+04  0.00000000000E+00 0.  1.
         -3    1    1    2    0  502  0.26453503947E+03 -0.86009081797E+02  0.75089575306E+02  0.28812287931E+03  0.00000000000E+00 0.  1.
<mgrwt>
<rscale>  4 0.28300225E+03</rscale>
<asrwt>0</asrwt>
<pdfrwt beam="1">  1        2 0.28746385E+00 0.28300225E+03</pdfrwt>
<pdfrwt beam="2">  1       -3 0.37592374E-01 0.28300225E+03</pdfrwt>
<totfact> 0.38212646E+01</totfact>
</mgrwt>
</event>
<event>
 5    0  0.2917107E+000  0.2567819E+03  0.7546771E-02  0.1109092E+00
          1   -1    0    0  501    0 -0.00000000000E+00  0.00000000000E+00  0.13257413892E+04  0.13257413892E+04  0.00000000000E+00 0. -1.
          2   -1    0    0  502    0  0.00000000000E+00 -0.00000000000E+00 -0.94690777636E+03  0.94690777636E+03  0.00000000000E+00 0.  1.
         25    1    1    2    0    0  0.34022054034E+03 -0.48725632559E+01 -0.44862763145E+03  0.57677162694E+03  0.12500000000E+03 0.  0.
          2    1    1    2  501    0 -0.12477652355E+03 -0.49682491951E+02 -0.41371103587E+03  0.43496477103E+03  0.00000000000E+00 0.  1.
          1    1    1    2  502    0 -0.21544401679E+03  0.54555055207E+02  0.12411722802E+04  0.12609127676E+04  0.00000000000E+00 0. -1.
<mgrwt>
<rscale>  4 0.25678187E+03</rscale>
<asrwt>0</asrwt>
<pdfrwt beam="1">  1        2 0.14567812E+00 0.25678187E+03</pdfrwt>
<pdfrwt beam="2">  1        1 0.20396021E+00 0.25678187E+03</pdfrwt>
<totfact> 0.36864872E+01</totfact>
</mgrwt>
</event>
<event>
 5    0  0.2917107E+000  0.2079827E+03  0.7546771E-02  0.1143173E+00
          2   -1    0    0  502    0  0.00000000000E+00  0.00000000000E+00  0.12044042421E+04  0.12044042421E+04  0.00000000000E+00 0.  1.
          1   -1    0    0  501    0 -0.00000000000E+00 -0.00000000000E+00 -0.95974757085E+03  0.95974757085E+03  0.00000000000E+00 0.  1.
         25    1    1    2    0    0  0.17985103014E+03  0.91704810637E+02 -0.11777069921E+03  0.26504924624E+03  0.12500000000E+03 0.  0.
          2    1    1    2  501    0 -0.45646896372E+02 -0.54024795094E+00  0.11217310316E+04  0.11226595380E+04  0.00000000000E+00 0.  1.
          1    1    1    2  502    0 -0.13420413377E+03 -0.91164562686E+02 -0.75930366114E+03  0.77644302870E+03  0.00000000000E+00 0.  1.
<mgrwt>
<rscale>  4 0.20798275E+03</rscale>
<asrwt>0</asrwt>
<pdfrwt beam="1">  1        2 0.18529296E+00 0.20798275E+03</pdfrwt>
<pdfrwt beam="2">  1        1 0.14765347E+00 0.20798275E+03</pdfrwt>
<totfact> 0.48480800E+01</totfact>
</mgrwt>
</event>
<event>
 5    0  0.2917107E+000  0.2971759E+03  0.7546771E-02  0.1086661E+00
          2   -1    0    0  502    0  0.00000000000E+00  0.00000000000E+00  0.16670728602E+04  0.16670728602E+04  0.00000000000E+00 0.  1.
          2   -1    0    0  501    0 -0.00000000000E+00 -0.00000000000E+00 -0.54383455319E+02  0.54383455319E+02  0.00000000000E+00 0.  1.
         25    1    1    2    0    0 -0.23238247599E+03 -0.14152230220E+03  0.79488288160E+03  0.84940801305E+03  0.12500000000E+03 0.  0.
          2    1    1    2  501    0  0.24205321064E+03  0.11540414013E+03  0.67054449311E+03  0.72217573317E+03  0.00000000000E+00 0.  1.
          2    1    1    2  502    0 -0.96707346483E+01  0.26118162063E+02  0.14726203014E+03  0.14987256927E+03  0.00000000000E+00 0.  1.
<mgrwt>
<rscale>  4 0.29717593E+03</rscale>
<asrwt>0</asrwt>
<pdfrwt beam="1">  1        2 0.25647271E+00 0.29717593E+03</pdfrwt>
<pdfrwt beam="2">  1        2 0.83666867E-02 0.29717593E+03</pdfrwt>
<totfact> 0.13727721E+03</totfact>
</mgrwt>
</event>
<event>
 5    0  0.2917107E+000  0.2547422E+03  0.7546771E-02  0.1110344E+00
         -3   -1    0    0    0  501 -0.00000000000E+00  0.00000000000E+00  0.34042388042E+03  0.34042388042E+03  0.00000000000E+00 0.  1.
          1   -1    0    0  501    0  0.00000000000E+00 -0.00000000000E+00 -0.20254408257E+04  0.20254408257E+04  0.00000000000E+00 0.  1.
         25    1    1    2    0    0 -0.13096586883E+03  0.19365783295E+03 -0.12424934665E+04  0.12704607154E+04  0.12500000000E+03 0.  0.
          1    1    1    2  502    0  0.11944778988E+03 -0.17255209832E+03 -0.75417341790E+03  0.78282791558E+03  0.00000000000E+00 0.  1.
         -3    1    1    2    0  502  0.11518078948E+02 -0.21105734637E+02  0.31164993914E+03  0.31257607513E+03  0.00000000000E+00 0.  1.
<mgrwt>
<rscale>  4 0.25474224E+03</rscale>
<asrwt>0</asrwt>
<pdfrwt beam="1">  1        1 0.31160629E+00 0.25474224E+03</pdfrwt>
<pdfrwt beam="2">  1       -3 0.52372904E-01 0.25474224E+03</pdfrwt>
<totfact> 0.65291534E+00</totfact>
</mgrwt>
</event>
<event>
 5    0  0.2917107E+000  0.2202970E+03  0.7546771E-02  0.1133662E+00
         -1   -1    0    0    0  501 -0.00000000000E+00  0.00000000000E+00  0.11117194641E+04  0.11117194641E+04  0.00000000000E+00 0.  1.
          2   -1    0    0  501    0  0.00000000000E+00 -0.00000000000E+00 -0.95066855910E+03  0.95066855910E+03  0.00000000000E+00 0.  1.
         25    1    1    2    0    0  0.93001232410E+01  0.26455470325E+03 -0.16198475448E+03  0.33457397387E+03  0.12500000000E+03 0.  0.
          2    1    1    2  502    0 -0.14801744363E+02 -0.85845063459E+02 -0.69184334719E+03  0.69730601862E+03  0.00000000000E+00 0.  1.
         -1    1    1    2    0  502  0.55016211219E+01 -0.17870963979E+03  0.10148790066E+04  0.10305080307E+04  0.00000000000E+00 0.  1.
<mgrwt>
<rscale>  4 0.22029698E+03</rscale>
<asrwt>0</asrwt>
<pdfrwt beam="1">  1        2 0.14625670E+00 0.22029698E+03</pdfrwt>
<pdfrwt beam="2">  1       -1 0.17103376E+00 0.22029698E+03</pdfrwt>
<totfact> 0.88544763E+00</totfact>
</mgrwt>
</event>
<event>
 5    0  0.2917107E+000  0.2066510E+03  0.7546771E-02  0.1144246E+00
          1   -1    0    0  502    0  0.00000000000E+00  0.00000000000E+00  0.31079554711E+03  0.31079554711E+03  0.00000000000E+00 0. -1.
          1   -1    0    0  501    0 -0.00000000000E+00 -0.00000000000E+00 -0.43912443856E+03  0.43912443856E+03  0.00000000000E+00 0. -1.
         25    1    1    2    0    0 -0.60965136941E+02  0.19368603136E+03 -0.93078608901E+02  0.25596807242E+03  0.12500000000E+03 0.  0.
          1    1    1    2  501    0  0.45367709782E+02 -0.15183511422E+03  0.19961984681E+03  0.25487293745E+03  0.00000000000E+00 0. -1.
          1    1    1    2  502    0  0.15597427159E+02 -0.41850917134E+02 -0.23487012937E+03  0.23907897580E+03  0.00000000000E+00 0. -1.
<mgrwt>
<rscale>  4 0.20665101E+03</rscale>
<asrwt>0</asrwt>
<pdfrwt beam="1">  1        1 0.47814700E-01 0.20665101E+03</pdfrwt>
<pdfrwt beam="2">  1        1 0.67557606E-01 0.20665101E+03</pdfrwt>
<totfact> 0.54086170E+02</totfact>
</mgrwt>
</event>
<event>
 5    0  0.2917107E+000  0.2237376E+03  0.7546771E-02  0.1131127E+00
         -3   -1    0    0    0  501 -0.00000000000E+00  0.00000000000E+00  0.84032514099E+03  0.84032514099E+03  0.00000000000E+00 0. -1.
          3   -1    0    0  502    0  0.00000000000E+00 -0.00000000000E+00 -0.28696216605E+03  0.28696216605E+03  0.00000000000E+00 0. -1.
         25    1    1    2    0    0  0.57595849633E+02  0.21402196959E+03 -0.67799065163E+02  0.26333324628E+03  0.12500000000E+03 0.  0.
          3    1    1    2  502    0 -0.15380984321E+02 -0.35856586248E+02 -0.10659827097E+03  0.11351414374E+03  0.00000000000E+00 0. -1.
         -3    1    1    2    0  501 -0.42214865311E+02 -0.17816538334E+03  0.72776031107E+03  0.75043991701E+03  0.00000000000E+00 0. -1.
<mgrwt>
<rscale>  4 0.22373757E+03</rscale>
<asrwt>0</asrwt>
<pdfrwt beam="1">  1        3 0.44148026E-01 0.22373757E+03</pdfrwt>
<pdfrwt beam="2">  1       -3 0.12928079E+00 0.22373757E+03</pdfrwt>
<totfact> 0.62055718E+00</totfact>
</mgrwt>
</event>
<event>
 5    0  0.2917107E+000  0.3355814E+03  0.7546771E-02  0.1068694E+00
          2   -1    0    0  502    0  0.00000000000E+00  0.00000000000E+00  0.32644910148E+04  0.32644910148E+04  0.00000000000E+00 0.  1.
          1   -1    0    0  501    0 -0.00000000000E+00 -0.00000000000E+00 -0.45022913496E+03  0.45022913496E+03  0.00000000000E+00 0. -1.
         25    1    1    2    0    0 -0.21932809444E+03  0.30109191725E+02  0.18735540848E+03  0.31581390964E+03  0.12500000000E+03 0.  0.
          2    1    1    2  501    0 -0.11366713831E+03  0.28060647412E+02  0.29375071495E+04  0.29398394296E+04  0.00000000000E+00 0.  1.
          1    1    1    2  502    0  0.33299523275E+03 -0.58169839137E+02 -0.31060067818E+03  0.45906681050E+03  0.00000000000E+00 0. -1.
<mgrwt>
<rscale>  4 0.33558135E+03</rscale>
<asrwt>0</asrwt>
<pdfrwt beam="1">  1        2 0.50222937E+00 0.33558135E+03</pdfrwt>
<pdfrwt beam="2">  1        1 0.69266023E-01 0.33558135E+03</pdfrwt>
<totfact> 0.98812892E+00</totfact>
</mgrwt>
</event>
<event>
 5    0  0.2917107E+000  0.2506358E+03  0.7546771E-02  0.1112904E+00
          2   -1    0    0  502    0  0.00000000000E+00  0.00000000000E+00  0.22857215363E+04  0.22857215363E+04  0.00000000000E+00 0. -1.
         -2   -1    0    0    0  501 -0.00000000000E+00 -0.00000000000E+00 -0.87264293787E+03  0.87264293787E+03  0.00000000000E+00 0. -1.
         25    1    1    2    0    0 -0.23560740956E+03 -0.26831619293E+03 -0.85715801391E+02  0.38791317255E+03  0.12500000000E+03 0.  0.
          2    1    1    2  502    0  0.15479964729E+03  0.14788777785E+03  0.21208933302E+04  0.21316712325E+04  0.00000000000E+00 0. -1.
         -2    1    1    2    0  501  0.80807762268E+02  0.12042841508E+03 -0.62209893033E+03  0.63878006913E+03  0.00000000000E+00 0. -1.
<mgrwt>
<rscale>  4 0.25063581E+03</rscale>
<asrwt>0</asrwt>
<pdfrwt beam="1">  1        2 0.35164947E+00 0.25063581E+03</pdfrwt>
<pdfrwt beam="2">  1       -2 0.13425276E+00 0.25063581E+03</pdfrwt>
<totfact> 0.22761495E+00</totfact>
</mgrwt>
</event>
<event>
 5    0  0.2917107E+000  0.3500951E+03  0.7546771E-02  0.1062576E+00
          2   -1    0    0  502    0  0.00000000000E+00  0.00000000000E+00  0.88999317037E+03  0.88999317037E+03  0.00000000000E+00 0. -1.
          2   -1    0    0  501    0 -0.00000000000E+00 -0.00000000000E+00 -0.88859144194E+03  0.88859144194E+03  0.00000000000E+00 0.  1.
         25    1    1    2    0    0  0.15576901098E+03  0.19828076987E+03 -0.28435045490E+03  0.40007428021E+03  0.12500000000E+03 0.  0.
          2    1    1    2  501    0  0.67557856160E+02  0.50683328692E+02 -0.50915357367E+03  0.51611067158E+03  0.00000000000E+00 0.  1.
          2    1    1    2  502    0 -0.22332686714E+03 -0.24896409856E+03  0.79490575700E+03  0.86239966053E+03  0.00000000000E+00 0. -1.
<mgrwt>
<rscale>  4 0.35009515E+03</rscale>
<asrwt>0</asrwt>
<pdfrwt beam="1">  1        2 0.13692203E+00 0.35009515E+03</pdfrwt>
<pdfrwt beam="2">  1        2 0.13670638E+00 0.35009515E+03</pdfrwt>
<totfact> 0.14585403E+02</totfact>
</mgrwt>
</event>
<event>
 5    0  0.2917107E+000  0.3253390E+03  0.7546771E-02  0.1073218E+00
          4   -1    0    0  501    0  0.00000000000E+00  0.00000000000E+00  0.32173690119E+03  0.32173690119E+03  0.00000000000E+00 0. -1.
         -1   -1    0    0    0  501 -0.00000000000E+00 -0.00000000000E+00 -0.12908793481E+04  0.12908793481E+04  0.00000000000E+00 0. -1.
         25    1    1    2    0    0  0.19084196196E+02  0.20580920079E+03 -0.24679344278E+03  0.34533119910E+03  0.12500000000E+03 0.  0.
          4    1    1    2  502    0 -0.10065472514E+03 -0.31949180383E+03  0.16189204082E+03  0.37204222783E+03  0.00000000000E+00 0. -1.
         -1    1    1    2    0  502  0.81570528942E+02  0.11368260304E+03 -0.88424104496E+03  0.89524282238E+03  0.00000000000E+00 0. -1.
<mgrwt>
<rscale>  4 0.32533899E+03</rscale>
<asrwt>0</asrwt>
<pdfrwt beam="1">  1        4 0.49497985E-01 0.32533899E+03</pdfrwt>
<pdfrwt beam="2">  1       -1 0.19859682E+00 0.32533899E+03</pdfrwt>
<totfact> 0.26630133E+00</totfact>
</mgrwt>
</event>
<event>
 5    0  0.2917107E+000  0.2684776E+03  0.7546771E-02  0.1102154E+00
         -4   -1    0    0    0  501 -0.00000000000E+00  0.00000000000E+00  0.41163062311E+02  0.41163062311E+02  0.00000000000E+00 0.  1.
          2   -1    0    0  501    0  0.00000000000E+00 -0.00000000000E+00 -0.30817762673E+04  0.30817762673E+04  0.00000000000E+00 0.  1.
         25    1    1    2    0    0  0.17030899659E+03  0.16923960643E+03 -0.11128500719E+04  0.11452979880E+04  0.12500000000E+03 0.  0.
          2    1    1    2  502    0 -0.19666944128E+03 -0.13360053259E+03 -0.19174431816E+04  0.19321274094E+04  0.00000000000E+00 0.  1.
         -4    1    1    2    0  502  0.26360444686E+02 -0.35639073841E+02 -0.10319951448E+02  0.45513932220E+02  0.00000000000E+00 0.  1.
<mgrwt>
<rscale>  4 0.26847756E+03</rscale>
<asrwt>0</asrwt>
<pdfrwt beam="1">  1        2 0.47411960E+00 0.26847756E+03</pdfrwt>
<pdfrwt beam="2">  1       -4 0.63327765E-02 0.26847756E+03</pdfrwt>
<totfact> 0.16665529E+02</totfact>
</mgrwt>
</event>
<event>
 5    0  0.2917107E+000  0.3557305E+03  0.7546771E-02  0.1060287E+00
          2   -1    0    0  502    0  0.00000000000E+00  0.00000000000E+00  0.12477790576E+04  0.12477790576E+04  0.00000000000E+00 0.  1.
          1   -1    0    0  501    0 -0.00000000000E+00 -0.00000000000E+00 -0.14313087650E+04  0.14313087650E+04  0.00000000000E+00 0.  1.
         25    1    1    2    0    0  0.61076488596E+03 -0.10634362591E+03 -0.33049373814E+03  0.71357818327E+03  0.12500000000E+03 0.  0.
          2    1    1    2  501    0 -0.31777553535E+03  0.33127290253E+02  0.10056934647E+04  0.10552241720E+04  0.00000000000E+00 0.  1.
          1    1    1    2  502    0 -0.29298935061E+03  0.73216335662E+02 -0.85872943396E+03  0.91028546739E+03  0.00000000000E+00 0.  1.
<mgrwt>
<rscale>  4 0.35573049E+03</rscale>
<asrwt>0</asrwt>
<pdfrwt beam="1">  1        2 0.19196601E+00 0.35573049E+03</pdfrwt>
<pdfrwt beam="2">  1        1 0.22020135E+00 0.35573049E+03</pdfrwt>
<totfact> 0.19834603E+01</totfact>
</mgrwt>
</event>
<event>
 5    0  0.2917107E+000  0.3978836E+03  0.7546771E-02  0.1044515E+00
          4   -1    0    0  502    0  0.00000000000E+00  0.00000000000E+00  0.19688741115E+04  0.19688741115E+04  0.00000000000E+00 0.  1.
          1   -1    0    0  501    0 -0.00000000000E+00 -0.00000000000E+00 -0.14947714061E+04  0.14947714061E+04  0.00000000000E+00 0.  1.
         25    1    1    2    0    0 -0.39769271642E+03 -0.34576403365E+02  0.75004810127E+03  0.85880858087E+03  0.12500000000E+03 0.  0.
          4    1    1    2  501    0  0.36144404694E+03  0.62567261264E+02  0.11351765353E+04  0.11929720145E+04  0.00000000000E+00 0.  1.
          1    1    1    2  502    0  0.36248669484E+02 -0.27990857899E+02 -0.14111219311E+04  0.14118649222E+04  0.00000000000E+00 0.  1.
<mgrwt>
<rscale>  4 0.39788363E+03</rscale>
<asrwt>0</asrwt>
<pdfrwt beam="1">  1        4 0.30290371E+00 0.39788363E+03</pdfrwt>
<pdfrwt beam="2">  1        1 0.22996483E+00 0.39788363E+03</pdfrwt>
<totfact> 0.10868476E-01</totfact>
</mgrwt>
</event>
<event>
 5    0  0.2917107E+000  0.2768657E+03  0.7546771E-02  0.1097413E+00
          2   -1    0    0  502    0  0.00000000000E+00  0.00000000000E+00  0.14412480406E+04  0.14412480406E+04  0.00000000000E+00 0.  1.
          1   -1    0    0  501    0 -0.00000000000E+00 -0.00000000000E+00 -0.15055192174E+03  0.15055192174E+03  0.00000000000E+00 0.  1.
         25    1    1    2    0    0 -0.18141842159E+03 -0.16866387234E+03  0.46204417080E+03  0.53895265218E+03  0.12500000000E+03 0.  0.
          2    1    1    2  501    0  0.14018342759E+03  0.20530969835E+03  0.91622160285E+03  0.94935003614E+03  0.00000000000E+00 0.  1.
          1    1    1    2  502    0  0.41234994002E+02 -0.36645826013E+02 -0.87569654771E+02  0.10349727403E+03  0.00000000000E+00 0.  1.
<mgrwt>
<rscale>  4 0.27686571E+03</rscale>
<asrwt>0</asrwt>
<pdfrwt beam="1">  1        2 0.22173046E+00 0.27686571E+03</pdfrwt>
<pdfrwt beam="2">  1        1 0.23161835E-01 0.27686571E+03</pdfrwt>
<totfact> 0.42148303E+02</totfact>
</mgrwt>
</event>
<event>
 5    0  0.2917107E+000  0.2326556E+03  0.7546771E-02  0.1124784E+00
          2   -1    0    0  502    0  0.00000000000E+00  0.00000000000E+00  0.26563463532E+04  0.26563463532E+04  0.00000000000E+00 0.  1.
          1   -1    0    0  501    0 -0.00000000000E+00 -0.00000000000E+00 -0.35677647853E+03  0.35677647853E+03  0.00000000000E+00 0. -1.
         25    1    1    2    0    0  0.11893435803E+03 -0.17829088994E+03  0.94156537218E+03  0.97370599929E+03  0.12500000000E+03 0.  0.
          2    1    1    2  501    0 -0.11893328691E+03  0.14869197169E+03  0.16927199505E+04  0.17033952155E+04  0.00000000000E+00 0.  1.
          1    1    1    2  502    0 -0.10711277258E-02  0.29598918251E+02 -0.33471544801E+03  0.33602161701E+03  0.00000000000E+00 0. -1.
<mgrwt>
<rscale>  4 0.23265557E+03</rscale>
<asrwt>0</asrwt>
<pdfrwt beam="1">  1        2 0.40866866E+00 0.23265557E+03</pdfrwt>
<pdfrwt beam="2">  1        1 0.54888691E-01 0.23265557E+03</pdfrwt>
<totfact> 0.32310592E+01</totfact>
</mgrwt>
</event>
<event>
 5    0  0.2917107E+000  0.2407678E+03  0.7546771E-02  0.1119282E+00
         -2   -1    0    0    0  501 -0.00000000000E+00  0.00000000000E+00  0.33338885130E+04  0.33338885130E+04  0.00000000000E+00 0. -1.
          2   -1    0    0  502    0  0.00000000000E+00 -0.00000000000E+00 -0.52657735753E+03  0.52657735753E+03  0.00000000000E+00 0. -1.
         25    1    1    2    0    0 -0.35618069409E+02 -0.24780176339E+03  0.19418252378E+03  0.34059684871E+03  0.12500000000E+03 0.  0.
          2    1    1    2  502    0  0.48816580809E+02  0.19613385621E+03 -0.43059843003E+03  0.47567484279E+03  0.00000000000E+00 0. -1.
         -2    1    1    2    0  501 -0.13198511400E+02  0.51667907184E+02  0.30437270618E+04  0.30441941791E+04  0.00000000000E+00 0. -1.
<mgrwt>
<rscale>  4 0.24076776E+03</rscale>
<asrwt>0</asrwt>
<pdfrwt beam="1">  1        2 0.81011903E-01 0.24076776E+03</pdfrwt>
<pdfrwt beam="2">  1       -2 0.51290591E+00 0.24076776E+03</pdfrwt>
<totfact> 0.10109869E-01</totfact>
</mgrwt>
</event>
<event>
 5    0  0.2917107E+000  0.1711021E+03  0.7546771E-02  0.1176703E+00
          2   -1    0    0  501    0  0.00000000000E+00  0.00000000000E+00  0.22168294060E+04  0.22168294060E+04  0.00000000000E+00 0.  1.
         -1   -1    0    0    0  501 -0.00000000000E+00 -0.00000000000E+00 -0.15074030039E+03  0.15074030039E+03  0.00000000000E+00 0. -1.
         25    1    1    2    0    0  0.20616840109E+03  0.50720079270E+02  0.12092313441E+03  0.27445462373E+03  0.12500000000E+03 0.  0.
          2    1    1    2  502    0 -0.11478083806E+03 -0.42656132773E+01  0.19811421166E+04  0.19844689270E+04  0.00000000000E+00 0.  1.
         -1    1    1    2    0  502 -0.91387563028E+02 -0.46454465993E+02 -0.35976145418E+02  0.10864615560E+03  0.00000000000E+00 0. -1.
<mgrwt>
<rscale>  4 0.17110206E+03</rscale>
<asrwt>0</asrwt>
<pdfrwt beam="1">  1        2 0.34105066E+00 0.17110206E+03</pdfrwt>
<pdfrwt beam="2">  1       -1 0.23190817E-01 0.17110206E+03</pdfrwt>
<totfact> 0.10770303E+02</totfact>
</mgrwt>
</event>
<event>
 5    0  0.2917107E+000  0.2497978E+03  0.7546771E-02  0.1113433E+00
          4   -1    0    0  501    0 -0.00000000000E+00  0.00000000000E+00  0.42708629742E+03  0.42708629742E+03  0.00000000000E+00 0.  1.
          2   -1    0    0  502    0  0.00000000000E+00 -0.00000000000E+00 -0.90544070461E+03  0.90544070461E+03  0.00000000000E+00 0. -1.
         25    1    1    2    0    0 -0.42936890405E+02 -0.23098561244E+03  0.91739692746E+02  0.28149440658E+03  0.12500000000E+03 0.  0.
          2    1    1    2  501    0  0.39646973241E+02  0.21115797254E+03 -0.79587220902E+03  0.82436165907E+03  0.00000000000E+00 0. -1.
          4    1    1    2  502    0  0.32899171646E+01  0.19827639899E+02  0.22577810909E+03  0.22667093639E+03  0.00000000000E+00 0.  1.
<mgrwt>
<rscale>  4 0.24979779E+03</rscale>
<asrwt>0</asrwt>
<pdfrwt beam="1">  1        2 0.13929857E+00 0.24979779E+03</pdfrwt>
<pdfrwt beam="2">  1        4 0.65705585E-01 0.24979779E+03</pdfrwt>
<totfact> 0.35118455E+01</totfact>
</mgrwt>
</event>
<event>
 5    0  0.2917107E+000  0.3888609E+03  0.7546771E-02  0.1047706E+00
         -1   -1    0    0    0  501 -0.00000000000E+00  0.00000000000E+00  0.21427226301E+03  0.21427226301E+03  0.00000000000E+00 0. -1.
          2   -1    0    0  501    0  0.00000000000E+00 -0.00000000000E+00 -0.14646096075E+04  0.14646096075E+04  0.00000000000E+00 0. -1.
         25    1    1    2    0    0  0.31558377567E+03  0.47968906708E+02 -0.44938488775E+03  0.56521315697E+03  0.12500000000E+03 0.  0.
          2    1    1    2  502    0  0.52624636593E+02  0.98121979679E+02 -0.69465735257E+03  0.70352406693E+03  0.00000000000E+00 0. -1.
         -1    1    1    2    0  502 -0.36820841226E+03 -0.14609088639E+03 -0.10629510412E+03  0.41014464657E+03  0.00000000000E+00 0. -1.
<mgrwt>
<rscale>  4 0.38886092E+03</rscale>
<asrwt>0</asrwt>
<pdfrwt beam="1">  1        2 0.22532456E+00 0.38886092E+03</pdfrwt>
<pdfrwt beam="2">  1       -1 0.32964963E-01 0.38886092E+03</pdfrwt>
<totfact> 0.13914172E+02</totfact>
</mgrwt>
</event>
<event>
 5    0  0.2917107E+000  0.4295841E+03  0.7546771E-02  0.1033991E+00
          2   -1    0    0  502    0  0.00000000000E+00  0.00000000000E+00  0.39397617451E+03  0.39397617451E+03  0.00000000000E+00 0.  1.
          2   -1    0    0  501    0 -0.00000000000E+00 -0.00000000000E+00 -0.23270748342E+04  0.23270748342E+04  0.00000000000E+00 0. -1.
         25    1    1    2    0    0  0.17037538552E+03  0.31140488426E+03 -0.95880775561E+03  0.10300184883E+04  0.12500000000E+03 0.  0.
          2    1    1    2  501    0 -0.12845534732E+03 -0.39843186817E+03  0.23352737234E+03  0.47935765714E+03  0.00000000000E+00 0.  1.
          2    1    1    2  502    0 -0.41920038193E+02  0.87026983907E+02 -0.12078182764E+04  0.12116748633E+04  0.00000000000E+00 0. -1.
<mgrwt>
<rscale>  4 0.42958409E+03</rscale>
<asrwt>0</asrwt>
<pdfrwt beam="1">  1        2 0.60611720E-01 0.42958409E+03</pdfrwt>
<pdfrwt beam="2">  1        2 0.35801151E+00 0.42958409E+03</pdfrwt>
<totfact> 0.59670680E+01</totfact>
</mgrwt>
</event>
<event>
 5    0  0.2917107E+000  0.2696102E+03  0.7546771E-02  0.1101503E+00
          2   -1    0    0  502    0  0.00000000000E+00  0.00000000000E+00  0.53130847027E+03  0.53130847027E+03  0.00000000000E+00 0.  1.
         -2   -1    0    0    0  501 -0.00000000000E+00 -0.00000000000E+00 -0.51009926066E+03  0.51009926066E+03  0.00000000000E+00 0. -1.
         25    1    1    2    0    0  0.57035968270E+02 -0.19692753562E+03  0.14175194159E+03  0.27884075905E+03  0.12500000000E+03 0.  0.
          2    1    1    2  502    0 -0.11461547141E+03  0.24245280765E+03  0.26088509379E+03  0.37414048483E+03  0.00000000000E+00 0.  1.
         -2    1    1    2    0  501  0.57579503143E+02 -0.45525272029E+02 -0.38142782577E+03  0.38842648705E+03  0.00000000000E+00 0. -1.
<mgrwt>
<rscale>  4 0.26961022E+03</rscale>
<asrwt>0</asrwt>
<pdfrwt beam="1">  1        2 0.81739765E-01 0.26961022E+03</pdfrwt>
<pdfrwt beam="2">  1       -2 0.78476809E-01 0.26961022E+03</pdfrwt>
<totfact> 0.87377844E+01</totfact>
</mgrwt>
</event>
<event>
 5    0  0.2917107E+000  0.2766205E+03  0.7546771E-02  0.1097549E+00
          2   -1    0    0  502    0  0.00000000000E+00  0.00000000000E+00  0.12197272499E+04  0.12197272499E+04  0.00000000000E+00 0. -1.
          2   -1    0    0  501    0 -0.00000000000E+00 -0.00000000000E+00 -0.13168085615E+03  0.13168085615E+03  0.00000000000E+00 0.  1.
         25    1    1    2    0    0  0.28560192583E+03  0.12710802800E+03  0.53000203308E+03  0.62789494813E+03  0.12500000000E+03 0.  0.
          2    1    1    2  501    0 -0.20627544123E+03 -0.97260429141E+02  0.85701815968E+02  0.24362666108E+03  0.00000000000E+00 0.  1.
          2    1    1    2  502    0 -0.79326484600E+02 -0.29847598855E+02  0.47234254468E+03  0.47988649682E+03  0.00000000000E+00 0. -1.
<mgrwt>
<rscale>  4 0.27662048E+03</rscale>
<asrwt>0</asrwt>
<pdfrwt beam="1">  1        2 0.18765034E+00 0.27662048E+03</pdfrwt>
<pdfrwt beam="2">  1        2 0.20258594E-01 0.27662048E+03</pdfrwt>
<totfact> 0.82337155E+02</totfact>
</mgrwt>
</event>
<event>
 5    0  0.2917107E+000  0.2085970E+03  0.7546771E-02  0.1142682E+00
          2   -1    0    0  502    0  0.00000000000E+00  0.00000000000E+00  0.70430759746E+03  0.70430759746E+03  0.00000000000E+00 0. -1.
          2   -1    0    0  501    0 -0.00000000000E+00 -0.00000000000E+00 -0.34363897259E+03  0.34363897259E+03  0.00000000000E+00 0. -1.
         25    1    1    2    0    0 -0.89419698088E+02 -0.21804920196E+03 -0.13894694162E+03  0.30078661783E+03  0.12500000000E+03 0.  0.
          2    1    1    2  501    0  0.98100666640E+02  0.13128597740E+03  0.59545063214E+03  0.61759307313E+03  0.00000000000E+00 0. -1.
          2    1    1    2  502    0 -0.86809685519E+01  0.86763224554E+02 -0.95835065643E+02  0.12956687909E+03  0.00000000000E+00 0. -1.
<mgrwt>
<rscale>  4 0.20859704E+03</rscale>
<asrwt>0</asrwt>
<pdfrwt beam="1">  1        2 0.10835501E+00 0.20859704E+03</pdfrwt>
<pdfrwt beam="2">  1        2 0.52867534E-01 0.20859704E+03</pdfrwt>
<totfact> 0.61399029E+02</totfact>
</mgrwt>
</event>
<event>
 5    0  0.2917107E+000  0.2519365E+03  0.7546771E-02  0.1112087E+00
         -2   -1    0    0    0  501 -0.00000000000E+00  0.00000000000E+00  0.81441675569E+03  0.81441675569E+03  0.00000000000E+00 0. -1.
          1   -1    0    0  501    0  0.00000000000E+00 -0.00000000000E+00 -0.21642208892E+04  0.21642208892E+04  0.00000000000E+00 0. -1.
         25    1    1    2    0    0 -0.25571060509E+03  0.13475189485E+03 -0.52776972888E+03  0.61458268235E+03  0.12500000000E+03 0.  0.
          1    1    1    2  502    0  0.70632285096E+02 -0.21699414245E+02 -0.15769114003E+04  0.15786416150E+04  0.00000000000E+00 0. -1.
         -2    1    1    2    0  502  0.18507832000E+03 -0.11305248061E+03  0.75487699566E+03  0.78541334753E+03  0.00000000000E+00 0. -1.
<mgrwt>
<rscale>  4 0.25193645E+03</rscale>
<asrwt>0</asrwt>
<pdfrwt beam="1">  1        1 0.33295706E+00 0.25193645E+03</pdfrwt>
<pdfrwt beam="2">  1       -2 0.12529489E+00 0.25193645E+03</pdfrwt>
<totfact> 0.11945899E+00</totfact>
</mgrwt>
</event>
<event>
 5    0  0.2917107E+000  0.2341679E+03  0.7546771E-02  0.1123740E+00
          2   -1    0    0  502    0  0.00000000000E+00  0.00000000000E+00  0.14490786742E+04  0.14490786742E+04  0.00000000000E+00 0.  1.
          1   -1    0    0  501    0 -0.00000000000E+00 -0.00000000000E+00 -0.15259968834E+04  0.15259968834E+04  0.00000000000E+00 0. -1.
         25    1    1    2    0    0 -0.18103132647E+03  0.13662078080E+03 -0.21616340979E+02  0.25986505172E+03  0.12500000000E+03 0.  0.
          2    1    1    2  501    0  0.13806011349E+02 -0.33646426038E+02  0.13227426707E+04  0.13232425555E+04  0.00000000000E+00 0.  1.
          1    1    1    2  502    0  0.16722531513E+03 -0.10297435476E+03 -0.13780445389E+04  0.13919679504E+04  0.00000000000E+00 0. -1.
<mgrwt>
<rscale>  4 0.23416790E+03</rscale>
<asrwt>0</asrwt>
<pdfrwt beam="1">  1        2 0.22293518E+00 0.23416790E+03</pdfrwt>
<pdfrwt beam="2">  1        1 0.23476875E+00 0.23416790E+03</pdfrwt>
<totfact> 0.14143178E+01</totfact>
</mgrwt>
</event>
<event>
 5    0  0.2917107E+000  0.2211207E+03  0.7546771E-02  0.1133050E+00
          4   -1    0    0  501    0 -0.00000000000E+00  0.00000000000E+00  0.17372794994E+03  0.17372794994E+03  0.00000000000E+00 0. -1.
          2   -1    0    0  502    0  0.00000000000E+00 -0.00000000000E+00 -0.12594469507E+04  0.12594469507E+04  0.00000000000E+00 0.  1.
         25    1    1    2    0    0 -0.18604930977E+02  0.23572871873E+03 -0.92187156118E+03  0.95988871626E+03  0.12500000000E+03 0.  0.
          2    1    1    2  501    0 -0.19087411989E+02 -0.60287498602E+02 -0.26146822710E+03  0.26900659019E+03  0.00000000000E+00 0.  1.
          4    1    1    2  502    0  0.37692342967E+02 -0.17544122012E+03  0.97620787536E+02  0.20427959418E+03  0.00000000000E+00 0. -1.
<mgrwt>
<rscale>  4 0.22112067E+03</rscale>
<asrwt>0</asrwt>
<pdfrwt beam="1">  1        2 0.19376107E+00 0.22112067E+03</pdfrwt>
<pdfrwt beam="2">  1        4 0.26727377E-01 0.22112067E+03</pdfrwt>
<totfact> 0.13184245E+02</totfact>
</mgrwt>
</event>
<event>
 5    0  0.2917107E+000  0.3044255E+03  0.7546771E-02  0.1083049E+00
          1   -1    0    0  501    0 -0.00000000000E+00  0.00000000000E+00  0.30345975718E+03  0.30345975718E+03  0.00000000000E+00 0. -1.
          2   -1    0    0  502    0  0.00000000000E+00 -0.00000000000E+00 -0.79801386035E+03  0.79801386035E+03  0.00000000000E+00 0.  1.
         25    1    1    2    0    0 -0.19481690860E+03 -0.17683011063E+03 -0.22144607854E+03  0.36590419730E+03  0.12500000000E+03 0.  0.
          2    1    1    2  501    0  0.23263297054E+03  0.16705234605E+03 -0.46151398140E+03  0.54315719670E+03  0.00000000000E+00 0.  1.
          1    1    1    2  502    0 -0.37816061940E+02  0.97777645752E+01  0.18840595676E+03  0.19241222353E+03  0.00000000000E+00 0. -1.
<mgrwt>
<rscale>  4 0.30442551E+03</rscale>
<asrwt>0</asrwt>
<pdfrwt beam="1">  1        2 0.12277136E+00 0.30442551E+03</pdfrwt>
<pdfrwt beam="2">  1        1 0.46686117E-01 0.30442551E+03</pdfrwt>
<totfact> 0.41721104E+02</totfact>
</mgrwt>
</event>
<event>
 5    0  0.2917107E+000  0.3689085E+03  0.7546771E-02  0.1055111E+00
          2   -1    0    0  501    0  0.00000000000E+00  0.00000000000E+00  0.36069563219E+03  0.36069563219E+03  0.00000000000E+00 0. -1.
         -1   -1    0    0    0  501 -0.00000000000E+00 -0.00000000000E+00 -0.12049792231E+04  0.12049792231E+04  0.00000000000E+00 0. -1.
         25    1    1    2    0    0 -0.32002573985E+03 -0.18612912899E+03 -0.49720925520E+03  0.63237850239E+03  0.12500000000E+03 0.  0.
          2    1    1    2  502    0  0.29360309183E+03  0.17729009244E+03  0.19229543815E+03  0.39320743628E+03  0.00000000000E+00 0. -1.
         -1    1    1    2    0  502  0.26422648017E+02  0.88390365558E+01 -0.53936977385E+03  0.54008891661E+03  0.00000000000E+00 0. -1.
<mgrwt>
<rscale>  4 0.36890846E+03</rscale>
<asrwt>0</asrwt>
<pdfrwt beam="1">  1        2 0.55491636E-01 0.36890846E+03</pdfrwt>
<pdfrwt beam="2">  1       -1 0.18538142E+00 0.36890846E+03</pdfrwt>
<totfact> 0.21086776E+01</totfact>
</mgrwt>
</event>
<event>
 5    0  0.2917107E+000  0.2917876E+03  0.7546771E-02  0.1089420E+00
          2   -1    0    0  502    0  0.00000000000E+00  0.00000000000E+00  0.65746257751E+03  0.65746257751E+03  0.00000000000E+00 0. -1.
          1   -1    0    0  501    0 -0.00000000000E+00 -0.00000000000E+00 -0.70457802725E+03  0.70457802725E+03  0.00000000000E+00 0. -1.
         25    1    1    2    0    0 -0.49657580184E+02 -0.21240801931E+03 -0.87078754899E+02  0.26606531434E+03  0.12500000000E+03 0.  0.
          2    1    1    2  501    0 -0.32220964206E+02 -0.58688051531E+02  0.52772987348E+03  0.53195986436E+03  0.00000000000E+00 0. -1.
          1    1    1    2  502    0  0.81878544390E+02  0.27109607085E+03 -0.48776656832E+03  0.56401542606E+03  0.00000000000E+00 0. -1.
<mgrwt>
<rscale>  4 0.29178759E+03</rscale>
<asrwt>0</asrwt>
<pdfrwt beam="1">  1        2 0.10114809E+00 0.29178759E+03</pdfrwt>
<pdfrwt beam="2">  1        1 0.10839662E+00 0.29178759E+03</pdfrwt>
<totfact> 0.17243298E+02</totfact>
</mgrwt>
</event>
<event>
 5    0  0.2917107E+000  0.2242834E+03  0.7546771E-02  0.1130729E+00
          2   -1    0    0  502    0  0.00000000000E+00  0.00000000000E+00  0.99304502155E+03  0.99304502155E+03  0.00000000000E+00 0.  1.
          3   -1    0    0  501    0 -0.00000000000E+00 -0.00000000000E+00 -0.10015936316E+03  0.10015936316E+03  0.00000000000E+00 0. -1.
         25    1    1    2    0    0  0.20301738374E+03 -0.74900599701E+02  0.54321676055E+03  0.59794281238E+03  0.12500000000E+03 0.  0.
          2    1    1    2  501    0 -0.33506151981E+02  0.13659164739E+02  0.30820124083E+03  0.31031796572E+03  0.00000000000E+00 0.  1.
          3    1    1    2  502    0 -0.16951123176E+03  0.61241434962E+02  0.41467657005E+02  0.18494360661E+03  0.00000000000E+00 0. -1.
<mgrwt>
<rscale>  4 0.22428343E+03</rscale>
<asrwt>0</asrwt>
<pdfrwt beam="1">  1        2 0.15277615E+00 0.22428343E+03</pdfrwt>
<pdfrwt beam="2">  1        3 0.15409133E-01 0.22428343E+03</pdfrwt>
<totfact> 0.59119735E+02</totfact>
</mgrwt>
</event>
<event>
 5    0  0.2917107E+000  0.2518345E+03  0.7546771E-02  0.1112151E+00
         -2   -1    0    0    0  501 -0.00000000000E+00  0.00000000000E+00  0.69201236541E+03  0.69201236541E+03  0.00000000000E+00 0. -1.
          2   -1    0    0  502    0  0.00000000000E+00 -0.00000000000E+00 -0.21310128862E+04  0.21310128862E+04  0.00000000000E+00 0.  1.
         25    1    1    2    0    0 -0.98538009005E+02  0.19431153171E+03 -0.60620109519E+02  0.25839215981E+03  0.12500000000E+03 0.  0.
          2    1    1    2  502    0  0.11687338919E+03 -0.18488103603E+03 -0.19652586812E+04  0.19773927456E+04  0.00000000000E+00 0.  1.
         -2    1    1    2    0  501 -0.18335380188E+02 -0.94304956758E+01  0.58687826993E+03  0.58724034614E+03  0.00000000000E+00 0. -1.
<mgrwt>
<rscale>  4 0.25183453E+03</rscale>
<asrwt>0</asrwt>
<pdfrwt beam="1">  1        2 0.32784814E+00 0.25183453E+03</pdfrwt>
<pdfrwt beam="2">  1       -2 0.10646344E+00 0.25183453E+03</pdfrwt>
<totfact> 0.48274640E+00</totfact>
</mgrwt>
</event>
<event>
 5    0  0.2917107E+000  0.2178807E+03  0.7546771E-02  0.1135473E+00
          2   -1    0    0  502    0  0.00000000000E+00  0.00000000000E+00  0.15040300582E+04  0.15040300582E+04  0.00000000000E+00 0. -1.
          1   -1    0    0  501    0 -0.00000000000E+00 -0.00000000000E+00 -0.11681002963E+04  0.11681002963E+04  0.00000000000E+00 0. -1.
         25    1    1    2    0    0 -0.20009185326E+03  0.32423142938E+02  0.75947600429E+03  0.79593769293E+03  0.12500000000E+03 0.  0.
          2    1    1    2  501    0  0.57162242621E+02  0.74411000308E+02  0.71632193777E+03  0.72244144225E+03  0.00000000000E+00 0. -1.
          1    1    1    2  502    0  0.14292961064E+03 -0.10683414325E+03 -0.11398681802E+04  0.11537512193E+04  0.00000000000E+00 0. -1.
<mgrwt>
<rscale>  4 0.21788070E+03</rscale>
<asrwt>0</asrwt>
<pdfrwt beam="1">  1        2 0.23138924E+00 0.21788070E+03</pdfrwt>
<pdfrwt beam="2">  1        1 0.17970774E+00 0.21788070E+03</pdfrwt>
<totfact> 0.23346226E+01</totfact>
</mgrwt>
</event>
<event>
 5    0  0.2917107E+000  0.2211807E+03  0.7546771E-02  0.1133006E+00
          1   -1    0    0  501    0 -0.00000000000E+00  0.00000000000E+00  0.19159318864E+04  0.19159318864E+04  0.00000000000E+00 0. -1.
          2   -1    0    0  502    0  0.00000000000E+00 -0.00000000000E+00 -0.24306898698E+04  0.24306898698E+04  0.00000000000E+00 0.  1.
         25    1    1    2    0    0  0.24911827886E+03 -0.11632034226E+03 -0.12810253557E+04  0.13161463828E+04  0.12500000000E+03 0.  0.
          2    1    1    2  501    0 -0.13977193235E+03  0.66125777251E+02 -0.11249036281E+04  0.11354809483E+04  0.00000000000E+00 0.  1.
          1    1    1    2  502    0 -0.10934634650E+03  0.50194565010E+02  0.18911710005E+04  0.18949944250E+04  0.00000000000E+00 0. -1.
<mgrwt>
<rscale>  4 0.22118069E+03</rscale>
<asrwt>0</asrwt>
<pdfrwt beam="1">  1        2 0.37395229E+00 0.22118069E+03</pdfrwt>
<pdfrwt beam="2">  1        1 0.29475875E+00 0.22118069E+03</pdfrwt>
<totfact> 0.24223709E+00</totfact>
</mgrwt>
</event>
<event>
 5    0  0.2917107E+000  0.3331588E+03  0.7546771E-02  0.1069748E+00
          2   -1    0    0  502    0  0.00000000000E+00  0.00000000000E+00  0.56810000490E+03  0.56810000490E+03  0.00000000000E+00 0.  1.
          1   -1    0    0  501    0 -0.00000000000E+00 -0.00000000000E+00 -0.16894520643E+04  0.16894520643E+04  0.00000000000E+00 0. -1.
         25    1    1    2    0    0 -0.44150693357E+02 -0.37292160591E+03  0.24246192848E+03  0.46414716917E+03  0.12500000000E+03 0.  0.
          2    1    1    2  501    0  0.10594160846E+03  0.72461999089E+02  0.17907254809E+03  0.22032100035E+03  0.00000000000E+00 0.  1.
          1    1    1    2  502    0 -0.61790915102E+02  0.30045960682E+03 -0.15428865360E+04  0.15730838997E+04  0.00000000000E+00 0. -1.
<mgrwt>
<rscale>  4 0.33315880E+03</rscale>
<asrwt>0</asrwt>
<pdfrwt beam="1">  1        2 0.87400000E-01 0.33315880E+03</pdfrwt>
<pdfrwt beam="2">  1        1 0.25991570E+00 0.33315880E+03</pdfrwt>
<totfact> 0.38757566E+01</totfact>
</mgrwt>
</event>
<event>
 5    0  0.2917107E+000  0.2434023E+03  0.7546771E-02  0.1117547E+00
          2   -1    0    0  502    0  0.00000000000E+00  0.00000000000E+00  0.70107114628E+03  0.70107114628E+03  0.00000000000E+00 0. -1.
          1   -1    0    0  501    0 -0.00000000000E+00 -0.00000000000E+00 -0.96232191015E+03  0.96232191015E+03  0.00000000000E+00 0.  1.
         25    1    1    2    0    0 -0.19013424962E+03 -0.69234057019E+02  0.44846848045E+03  0.50763507118E+03  0.12500000000E+03 0.  0.
          2    1    1    2  501    0  0.21277583249E+03  0.60774198550E+02  0.16792096779E+03  0.27778500594E+03  0.00000000000E+00 0. -1.
          1    1    1    2  502    0 -0.22641582865E+02  0.84598584683E+01 -0.87764021212E+03  0.87797297931E+03  0.00000000000E+00 0.  1.
<mgrwt>
<rscale>  4 0.24340231E+03</rscale>
<asrwt>0</asrwt>
<pdfrwt beam="1">  1        2 0.10785710E+00 0.24340231E+03</pdfrwt>
<pdfrwt beam="2">  1        1 0.14804952E+00 0.24340231E+03</pdfrwt>
<totfact> 0.99210856E+01</totfact>
</mgrwt>
</event>
