<event>
 5    0  0.1911311E+001  0.2377980E+03  0.7546771E-02  0.1121269E+00
         21   -1    0    0  503  501  0.00000000000E+00  0.00000000000E+00  0.98472934296E+02  0.98472934296E+02  0.00000000000E+00 0.  1.
         21   -1    0    0  504  502 -0.00000000000E+00 -0.00000000000E+00 -0.14186563356E+04  0.14186563356E+04  0.00000000000E+00 0.  1.
         25    1    1    2    0    0  0.22583052153E+03  0.15598764003E+02 -0.11063116764E+04  0.11361308337E+04  0.12500000000E+03 0.  0.
         21    1    1    2  503  502 -0.26107293200E+02 -0.13750697156E+02 -0.17506163441E+03  0.17753097834E+03  0.00000000000E+00 0.  1.
         21    1    1    2  504  501 -0.19972322833E+03 -0.18480668475E+01 -0.38810090482E+02  0.20346745786E+03  0.00000000000E+00 0.  1.
<mgrwt>
<rscale>  4 0.23779795E+03</rscale>
<asrwt>0</asrwt>
<pdfrwt beam="1">  1       21 0.15149682E-01 0.23779795E+03</pdfrwt>
<pdfrwt beam="2">  1       21 0.21825483E+00 0.23779795E+03</pdfrwt>
<totfact> 0.38115188E+03</totfact>
</mgrwt>
</event>
<event>
 5    0  0.1911311E+001  0.2447440E+03  0.7546771E-02  0.1116672E+00
         21   -1    0    0  504  501  0.00000000000E+00  0.00000000000E+00  0.81656349549E+02  0.81656349549E+02  0.00000000000E+00 0. -1.
         21   -1    0    0  501  502 -0.00000000000E+00 -0.00000000000E+00 -0.98903851366E+03  0.98903851366E+03  0.00000000000E+00 0. -1.
         25    1    1    2    0    0 -0.37360375493E+02  0.22280791670E+03 -0.67651373896E+03  0.72410980135E+03  0.12500000000E+03 0.  0.
         21    1    1    2  503  502  0.51390927738E+02 -0.19988006673E+03 -0.13402605368E+03  0.24608139222E+03  0.00000000000E+00 0. -1.
         21    1    1    2  504  503 -0.14030552245E+02 -0.22927849962E+02 -0.96842371473E+02  0.10050366965E+03  0.00000000000E+00 0. -1.
<mgrwt>
<rscale>  4 0.24474400E+03</rscale>
<asrwt>0</asrwt>
<pdfrwt beam="1">  1       21 0.12562516E-01 0.24474400E+03</pdfrwt>
<pdfrwt beam="2">  1       21 0.15215977E+00 0.24474400E+03</pdfrwt>
<totfact> 0.15040981E+04</totfact>
</mgrwt>
</event>
<event>
 5    0  0.1911311E+001  0.3229497E+03  0.7546771E-02  0.1074300E+00
         21   -1    0    0  502  501  0.00000000000E+00  0.00000000000E+00  0.11026090331E+04  0.11026090331E+04  0.00000000000E+00 0.  1.
         21   -1    0    0  504  502 -0.00000000000E+00 -0.00000000000E+00 -0.12509034135E+03  0.12509034135E+03  0.00000000000E+00 0.  1.
         25    1    1    2    0    0 -0.27499723492E+03  0.98353260497E+02  0.73145570282E+03  0.79746428651E+03  0.12500000000E+03 0.  0.
         21    1    1    2  503  501  0.30405508952E+03 -0.73004559293E+02  0.23129703794E+03  0.38894406140E+03  0.00000000000E+00 0.  1.
         21    1    1    2  504  503 -0.29057854590E+02 -0.25348701204E+02  0.14765951024E+02  0.41291026576E+02  0.00000000000E+00 0. -1.
<mgrwt>
<rscale>  4 0.32294967E+03</rscale>
<asrwt>0</asrwt>
<pdfrwt beam="1">  1       21 0.16963215E+00 0.32294967E+03</pdfrwt>
<pdfrwt beam="2">  1       21 0.19244669E-01 0.32294967E+03</pdfrwt>
<totfact> 0.48734436E+03</totfact>
</mgrwt>
</event>
<event>
 5    0  0.1911311E+001  0.2538205E+03  0.7546771E-02  0.1110914E+00
         21   -1    0    0  502  501  0.00000000000E+00  0.00000000000E+00  0.30547430359E+03  0.30547430359E+03  0.00000000000E+00 0.  1.
         21   -1    0    0  504  502 -0.00000000000E+00 -0.00000000000E+00 -0.52489421376E+03  0.52489421376E+03  0.00000000000E+00 0. -1.
         25    1    1    2    0    0  0.17509125359E+03  0.12033884677E+03 -0.37212527257E+03  0.44636375706E+03  0.12500000000E+03 0.  0.
         21    1    1    2  503  501 -0.21988706207E+03 -0.16643817616E+03  0.16077868734E+03  0.31922057084E+03  0.00000000000E+00 0.  1.
         21    1    1    2  504  503  0.44795808478E+02  0.46099329384E+02 -0.80733249322E+01  0.64784189447E+02  0.00000000000E+00 0. -1.
<mgrwt>
<rscale>  4 0.25382052E+03</rscale>
<asrwt>0</asrwt>
<pdfrwt beam="1">  1       21 0.46996047E-01 0.25382052E+03</pdfrwt>
<pdfrwt beam="2">  1       21 0.80752955E-01 0.25382052E+03</pdfrwt>
<totfact> 0.55951314E+03</totfact>
</mgrwt>
</event>
<event>
 5    0  0.1911311E+001  0.1875949E+03  0.7546771E-02  0.1160649E+00
         21   -1    0    0  502  501  0.00000000000E+00  0.00000000000E+00  0.18001091373E+03  0.18001091373E+03  0.00000000000E+00 0. -1.
         21   -1    0    0  504  502 -0.00000000000E+00 -0.00000000000E+00 -0.75476826189E+03  0.75476826189E+03  0.00000000000E+00 0. -1.
         25    1    1    2    0    0 -0.22908896212E+01  0.22995829381E+03 -0.35812819434E+03  0.44358411677E+03  0.12500000000E+03 0.  0.
         21    1    1    2  503  501 -0.22097924986E+02 -0.13065256626E+03  0.95113148355E+02  0.16311015403E+03  0.00000000000E+00 0. -1.
         21    1    1    2  504  503  0.24388814607E+02 -0.99305727555E+02 -0.31174230218E+03  0.32808490482E+03  0.00000000000E+00 0. -1.
<mgrwt>
<rscale>  4 0.18759491E+03</rscale>
<asrwt>0</asrwt>
<pdfrwt beam="1">  1       21 0.27693987E-01 0.18759491E+03</pdfrwt>
<pdfrwt beam="2">  1       21 0.11611819E+00 0.18759491E+03</pdfrwt>
<totfact> 0.71533228E+03</totfact>
</mgrwt>
</event>
