<event>
 5    0  0.2159162E+000  0.3112071E+03  0.7546771E-02  0.1079769E+00
         21   -1    0    0  502  501  0.00000000000E+00  0.00000000000E+00  0.92348399204E+03  0.92348399204E+03  0.00000000000E+00 0. -1.
         21   -1    0    0  503  502 -0.00000000000E+00 -0.00000000000E+00 -0.14941874702E+04  0.14941874702E+04  0.00000000000E+00 0.  1.
         25    1    1    2    0    0 -0.47442554458E+01 -0.28555461115E+03  0.86729772743E+03  0.92162589585E+03  0.12500000000E+03 0.  0.
         21    1    1    2  503  504  0.66515868519E+02  0.29974546639E+02 -0.63811521305E+02  0.96926489993E+02  0.00000000000E+00 0.  1.
         21    1    1    2  504  501 -0.61771613073E+02  0.25558006451E+03 -0.13741896843E+04  0.13991190764E+04  0.00000000000E+00 0.  1.
<mgrwt>
<rscale>  4 0.31120713E+03</rscale>
<asrwt>0</asrwt>
<pdfrwt beam="1">  1       21 0.14207446E+00 0.31120713E+03</pdfrwt>
<pdfrwt beam="2">  1       21 0.22987499E+00 0.31120713E+03</pdfrwt>
<totfact> 0.25804721E+01</totfact>
</mgrwt>
</event>
<event>
 5    0  0.2159162E+000  0.4071304E+03  0.7546771E-02  0.1041338E+00
         21   -1    0    0  502  501  0.00000000000E+00  0.00000000000E+00  0.15765323840E+03  0.15765323840E+03  0.00000000000E+00 0.  1.
         21   -1    0    0  503  502 -0.00000000000E+00 -0.00000000000E+00 -0.10567624286E+04  0.10567624286E+04  0.00000000000E+00 0.  1.
         25    1    1    2    0    0  0.16847594353E+03 -0.34892123381E+03 -0.34466594824E+03  0.53343208268E+03  0.12500000000E+03 0.  0.
         21    1    1    2  503  504 -0.15955662769E+03  0.25344606719E+03 -0.41806427918E+03  0.51426740898E+03  0.00000000000E+00 0.  1.
         21    1    1    2  504  501 -0.89193158355E+01  0.95475166617E+02 -0.13637896279E+03  0.16671617536E+03  0.00000000000E+00 0.  1.
<mgrwt>
<rscale>  4 0.40713041E+03</rscale>
<asrwt>0</asrwt>
<pdfrwt beam="1">  1       21 0.24254345E-01 0.40713041E+03</pdfrwt>
<pdfrwt beam="2">  1       21 0.16257883E+00 0.40713041E+03</pdfrwt>
<totfact> 0.33920531E+03</totfact>
</mgrwt>
</event>
<event>
 5    0  0.2159162E+000  0.2438898E+03  0.7546771E-02  0.1117228E+00
         21   -1    0    0  502  501  0.00000000000E+00  0.00000000000E+00  0.16615099063E+03  0.16615099063E+03  0.00000000000E+00 0.  1.
         21   -1    0    0  503  502 -0.00000000000E+00 -0.00000000000E+00 -0.32409410211E+03  0.32409410211E+03  0.00000000000E+00 0.  1.
         25    1    1    2    0    0 -0.90257326524E+02 -0.18897309091E+03 -0.11135153257E+03  0.26810702692E+03  0.12500000000E+03 0.  0.
         21    1    1    2  503  504  0.45355142821E+02  0.81591952326E+02  0.77782302602E+01  0.93674097438E+02  0.00000000000E+00 0.  1.
         21    1    1    2  504  501  0.44902183702E+02  0.10738113858E+03 -0.54369809171E+02  0.12846396838E+03  0.00000000000E+00 0.  1.
<mgrwt>
<rscale>  4 0.24388976E+03</rscale>
<asrwt>0</asrwt>
<pdfrwt beam="1">  1       21 0.25561691E-01 0.24388976E+03</pdfrwt>
<pdfrwt beam="2">  1       21 0.49860631E-01 0.24388976E+03</pdfrwt>
<totfact> 0.54393969E+04</totfact>
</mgrwt>
</event>
<event>
 5    0  0.2159162E+000  0.2834861E+03  0.7546771E-02  0.1093800E+00
         21   -1    0    0  502  501  0.00000000000E+00  0.00000000000E+00  0.15225553940E+04  0.15225553940E+04  0.00000000000E+00 0. -1.
         21   -1    0    0  503  502 -0.00000000000E+00 -0.00000000000E+00 -0.50674225042E+02  0.50674225042E+02  0.00000000000E+00 0. -1.
         25    1    1    2    0    0  0.20872332065E+03  0.14551271845E+03  0.67234034330E+03  0.72966150580E+03  0.12500000000E+03 0.  0.
         21    1    1    2  503  504 -0.18151199034E+03 -0.84114790770E+02  0.55423271005E+03  0.58923322848E+03  0.00000000000E+00 0. -1.
         21    1    1    2  504  501 -0.27211330314E+02 -0.61397927681E+02  0.24530811562E+03  0.25433488477E+03  0.00000000000E+00 0. -1.
<mgrwt>
<rscale>  4 0.28348611E+03</rscale>
<asrwt>0</asrwt>
<pdfrwt beam="1">  1       21 0.23423926E+00 0.28348611E+03</pdfrwt>
<pdfrwt beam="2">  1       21 0.77960358E-02 0.28348611E+03</pdfrwt>
<totfact> 0.96527580E+03</totfact>
</mgrwt>
</event>
<event>
 5    0  0.2159162E+000  0.3094380E+03  0.7546771E-02  0.1080616E+00
         21   -1    0    0  502  501  0.00000000000E+00  0.00000000000E+00  0.30465988020E+03  0.30465988020E+03  0.00000000000E+00 0.  1.
         21   -1    0    0  503  502 -0.00000000000E+00 -0.00000000000E+00 -0.10447799807E+04  0.10447799807E+04  0.00000000000E+00 0.  1.
         25    1    1    2    0    0  0.26713630245E+03  0.99662332039E+02  0.19556564777E+03  0.36764834707E+03  0.12500000000E+03 0.  0.
         21    1    1    2  503  504 -0.23605738651E+02 -0.59534177468E+01 -0.26874026434E+02  0.36261375827E+02  0.00000000000E+00 0. -1.
         21    1    1    2  504  501 -0.24353056380E+03 -0.93708914293E+02 -0.90881172179E+03  0.94553013796E+03  0.00000000000E+00 0.  1.
<mgrwt>
<rscale>  4 0.30943803E+03</rscale>
<asrwt>0</asrwt>
<pdfrwt beam="1">  1       21 0.46870751E-01 0.30943803E+03</pdfrwt>
<pdfrwt beam="2">  1       21 0.16073538E+00 0.30943803E+03</pdfrwt>
<totfact> 0.98236937E+02</totfact>
</mgrwt>
</event>
<event>
 5    0  0.2191101E+000  0.2512050E+03  0.7546771E-02  0.1112546E+00
         21   -1    0    0  502  501  0.00000000000E+00  0.00000000000E+00  0.17601720795E+03  0.17601720795E+03  0.00000000000E+00 0.  1.
         21   -1    0    0  503  502 -0.00000000000E+00 -0.00000000000E+00 -0.32285869723E+03  0.32285869723E+03  0.00000000000E+00 0.  1.
         25    1    1    2    0    0 -0.21643781024E+03  0.25172410370E+02 -0.11002215029E+03  0.27424231894E+03  0.12500000000E+03 0.  0.
         21    1    1    2  503  504  0.18509588912E+03 -0.17176803389E+02 -0.45018771725E+02  0.19126479172E+03  0.00000000000E+00 0.  1.
         21    1    1    2  504  501  0.31341921119E+02 -0.79956069814E+01  0.81994327352E+01  0.33368794519E+02  0.00000000000E+00 0.  1.
<mgrwt>
<rscale>  4 0.25120505E+03</rscale>
<asrwt>0</asrwt>
<pdfrwt beam="1">  1       21 0.27079570E-01 0.25120505E+03</pdfrwt>
<pdfrwt beam="2">  1       21 0.49670569E-01 0.25120505E+03</pdfrwt>
<totfact> 0.48910595E+04</totfact>
</mgrwt>
</event>
<event>
 5    0  0.2862513E+000  0.3143239E+03  0.7546771E-02  0.1078292E+00
         21   -1    0    0  502  501  0.00000000000E+00  0.00000000000E+00  0.84885287372E+03  0.84885287372E+03  0.00000000000E+00 0.  1.
         21   -1    0    0  503  502 -0.00000000000E+00 -0.00000000000E+00 -0.12877834363E+03  0.12877834363E+03  0.00000000000E+00 0.  1.
         25    1    1    2    0    0 -0.24362703285E+03 -0.15433857546E+03  0.56183987383E+03  0.64378845193E+03  0.12500000000E+03 0.  0.
         21    1    1    2  503  504  0.43605928512E+02  0.15277588523E+02  0.47431882841E+02  0.66216804682E+02  0.00000000000E+00 0.  1.
         21    1    1    2  504  501  0.20002110434E+03  0.13906098693E+03  0.11080277341E+03  0.26762596074E+03  0.00000000000E+00 0.  1.
<mgrwt>
<rscale>  4 0.31432392E+03</rscale>
<asrwt>0</asrwt>
<pdfrwt beam="1">  1       21 0.13059275E+00 0.31432392E+03</pdfrwt>
<pdfrwt beam="2">  1       21 0.19812053E-01 0.31432392E+03</pdfrwt>
<totfact> 0.93456663E+03</totfact>
</mgrwt>
</event>
<event>
 5    0  0.2159162E+000  0.2728298E+03  0.7546771E-02  0.1099671E+00
         21   -1    0    0  502  501  0.00000000000E+00  0.00000000000E+00  0.11791671154E+03  0.11791671154E+03  0.00000000000E+00 0. -1.
         21   -1    0    0  503  502 -0.00000000000E+00 -0.00000000000E+00 -0.31932962626E+04  0.31932962626E+04  0.00000000000E+00 0. -1.
         25    1    1    2    0    0 -0.14631241918E+03  0.19340053588E+03 -0.52344155406E+02  0.27780569089E+03  0.12500000000E+03 0.  0.
         21    1    1    2  503  504  0.11744227937E+03 -0.18092106074E+03 -0.24363703200E+04  0.24458997231E+04  0.00000000000E+00 0. -1.
         21    1    1    2  504  501  0.28870139812E+02 -0.12479475134E+02 -0.58666507568E+03  0.58750756020E+03  0.00000000000E+00 0. -1.
<mgrwt>
<rscale>  4 0.27282978E+03</rscale>
<asrwt>0</asrwt>
<pdfrwt beam="1">  1       21 0.18141035E-01 0.27282978E+03</pdfrwt>
<pdfrwt beam="2">  1       21 0.49127627E+00 0.27282978E+03</pdfrwt>
<totfact> 0.53026066E+01</totfact>
</mgrwt>
</event>
<event>
 5    0  0.3430448E+000  0.3117538E+03  0.7546771E-02  0.1079508E+00
         21   -1    0    0  502  501  0.00000000000E+00  0.00000000000E+00  0.46964966914E+03  0.46964966914E+03  0.00000000000E+00 0.  1.
         21   -1    0    0  503  502 -0.00000000000E+00 -0.00000000000E+00 -0.19261064972E+03  0.19261064972E+03  0.00000000000E+00 0.  1.
         25    1    1    2    0    0  0.19802300005E+03 -0.20579675348E+03  0.15071980844E+03  0.34627571811E+03  0.12500000000E+03 0.  0.
         21    1    1    2  503  504 -0.17035244681E+03  0.18506446447E+03  0.93605632853E+02  0.26838559322E+03  0.00000000000E+00 0.  1.
         21    1    1    2  504  501 -0.27670553243E+02  0.20732289006E+02  0.32713578134E+02  0.47599007537E+02  0.00000000000E+00 0.  1.
<mgrwt>
<rscale>  4 0.31175377E+03</rscale>
<asrwt>0</asrwt>
<pdfrwt beam="1">  1       21 0.72253795E-01 0.31175377E+03</pdfrwt>
<pdfrwt beam="2">  1       21 0.29632408E-01 0.31175377E+03</pdfrwt>
<totfact> 0.17771604E+04</totfact>
</mgrwt>
</event>
<event>
 5    0  0.2159162E+000  0.2915539E+03  0.7546771E-02  0.1089541E+00
         21   -1    0    0  502  501  0.00000000000E+00  0.00000000000E+00  0.23642754922E+04  0.23642754922E+04  0.00000000000E+00 0.  1.
         21   -1    0    0  503  502 -0.00000000000E+00 -0.00000000000E+00 -0.13388564832E+03  0.13388564832E+03  0.00000000000E+00 0. -1.
         25    1    1    2    0    0 -0.11329430081E+03 -0.24195251582E+03  0.21499482720E+04  0.21700873694E+04  0.12500000000E+03 0.  0.
         21    1    1    2  503  504  0.40924114458E+02  0.22700728003E+03  0.18070361953E+02  0.23137334832E+03  0.00000000000E+00 0. -1.
         21    1    1    2  504  501  0.72370186348E+02  0.14945235785E+02  0.62371209924E+02  0.96700422812E+02  0.00000000000E+00 0.  1.
<mgrwt>
<rscale>  4 0.29155388E+03</rscale>
<asrwt>0</asrwt>
<pdfrwt beam="1">  1       21 0.36373466E+00 0.29155388E+03</pdfrwt>
<pdfrwt beam="2">  1       21 0.20597794E-01 0.29155388E+03</pdfrwt>
<totfact> 0.27809379E+02</totfact>
</mgrwt>
</event>
<event>
 5    0  0.2159162E+000  0.4798940E+03  0.7546771E-02  0.1019164E+00
         21   -1    0    0  502  501  0.00000000000E+00  0.00000000000E+00  0.37357051878E+03  0.37357051878E+03  0.00000000000E+00 0.  1.
         21   -1    0    0  503  502 -0.00000000000E+00 -0.00000000000E+00 -0.74122464832E+03  0.74122464832E+03  0.00000000000E+00 0. -1.
         25    1    1    2    0    0 -0.37398742939E+03  0.27350813617E+03  0.46318388403E+02  0.48212414480E+03  0.12500000000E+03 0.  0.
         21    1    1    2  503  504  0.10137944202E+02 -0.47972543914E+02 -0.57789407017E+02  0.75787587675E+02  0.00000000000E+00 0. -1.
         21    1    1    2  504  501  0.36384948519E+03 -0.22553559226E+03 -0.35618311092E+03  0.55688343462E+03  0.00000000000E+00 0. -1.
<mgrwt>
<rscale>  4 0.47989405E+03</rscale>
<asrwt>0</asrwt>
<pdfrwt beam="1">  1       21 0.57472387E-01 0.47989405E+03</pdfrwt>
<pdfrwt beam="2">  1       21 0.11403456E+00 0.47989405E+03</pdfrwt>
<totfact> 0.14383255E+03</totfact>
</mgrwt>
</event>
<event>
 5    0  0.2159162E+000  0.4456730E+03  0.7546771E-02  0.1029020E+00
         21   -1    0    0  502  501  0.00000000000E+00  0.00000000000E+00  0.66198752469E+03  0.66198752469E+03  0.00000000000E+00 0.  1.
         21   -1    0    0  503  502 -0.00000000000E+00 -0.00000000000E+00 -0.10884344960E+04  0.10884344960E+04  0.00000000000E+00 0.  1.
         25    1    1    2    0    0  0.78492259099E+02 -0.42116041502E+03  0.53135917634E+03  0.69390540003E+03  0.12500000000E+03 0.  0.
         21    1    1    2  503  504  0.20888916713E+02  0.11953698415E+02 -0.67042881127E+02  0.71231914596E+02  0.00000000000E+00 0. -1.
         21    1    1    2  504  501 -0.99381175812E+02  0.40920671660E+03 -0.89076326656E+03  0.98528470610E+03  0.00000000000E+00 0.  1.
<mgrwt>
<rscale>  4 0.44567303E+03</rscale>
<asrwt>0</asrwt>
<pdfrwt beam="1">  1       21 0.10184424E+00 0.44567303E+03</pdfrwt>
<pdfrwt beam="2">  1       21 0.16745146E+00 0.44567303E+03</pdfrwt>
<totfact> 0.14149607E+02</totfact>
</mgrwt>
</event>
