<event>
 5    0  0.2349231E+000  0.5133948E+03  0.7546771E-02  0.1010341E+00
         21   -1    0    0  503  501  0.00000000000E+00  0.00000000000E+00  0.43897972860E+03  0.43897972860E+03  0.00000000000E+00 0.  1.
         21   -1    0    0  504  502 -0.00000000000E+00 -0.00000000000E+00 -0.16865462845E+03  0.16865462845E+03  0.00000000000E+00 0. -1.
         25    1    1    2    0    0  0.13052574598E+03 -0.20715861877E+03  0.70608256902E+02  0.28383479286E+03  0.12500000000E+03 0.  0.
         21    1    1    2  503  502 -0.13737957533E+03  0.17778889443E+03  0.17767642981E+03  0.28644537422E+03  0.00000000000E+00 0.  1.
         21    1    1    2  504  501  0.68538293496E+01  0.29369724339E+02  0.22040413435E+02  0.37354189978E+02  0.00000000000E+00 0. -1.
<mgrwt>
<rscale>  4 0.51339476E+03</rscale>
<asrwt>0</asrwt>
<pdfrwt beam="1">  1       21 0.67535342E-01 0.51339476E+03</pdfrwt>
<pdfrwt beam="2">  1       21 0.25946866E-01 0.51339476E+03</pdfrwt>
<totfact> 0.25317719E+04</totfact>
</mgrwt>
</event>
<event>
 5    0  0.2349231E+000  0.5019157E+03  0.7546771E-02  0.1013280E+00
         21   -1    0    0  504  501  0.00000000000E+00  0.00000000000E+00  0.39828364517E+03  0.39828364517E+03  0.00000000000E+00 0. -1.
         21   -1    0    0  503  502 -0.00000000000E+00 -0.00000000000E+00 -0.40005682691E+03  0.40005682691E+03  0.00000000000E+00 0.  1.
         25    1    1    2    0    0 -0.26077224378E+03  0.22908698854E+02 -0.19063037222E+03  0.34711944691E+03  0.12500000000E+03 0.  0.
         21    1    1    2  503  501  0.20260607824E+03  0.33642379770E+01 -0.46047371903E+02  0.20780014797E+03  0.00000000000E+00 0. -1.
         21    1    1    2  504  502  0.58166165543E+02 -0.26272936831E+02  0.23490456239E+03  0.24342087720E+03  0.00000000000E+00 0. -1.
<mgrwt>
<rscale>  4 0.50191573E+03</rscale>
<asrwt>0</asrwt>
<pdfrwt beam="1">  1       21 0.61274407E-01 0.50191573E+03</pdfrwt>
<pdfrwt beam="2">  1       21 0.61547205E-01 0.50191573E+03</pdfrwt>
<totfact> 0.52701082E+03</totfact>
</mgrwt>
</event>
<event>
 5    0  0.2349231E+000  0.8086036E+03  0.7546771E-02  0.9547647E-01
         21   -1    0    0  502  501  0.00000000000E+00  0.00000000000E+00  0.21970168373E+04  0.21970168373E+04  0.00000000000E+00 0. -1.
         21   -1    0    0  504  502 -0.00000000000E+00 -0.00000000000E+00 -0.24716191358E+03  0.24716191358E+03  0.00000000000E+00 0.  1.
         25    1    1    2    0    0 -0.23817010040E+03  0.33339708949E+03 -0.54965366837E+01  0.42840848255E+03  0.12500000000E+03 0.  0.
         21    1    1    2  503  501  0.79309915541E+02 -0.20334560675E+03  0.15060604586E+04  0.15217942053E+04  0.00000000000E+00 0. -1.
         21    1    1    2  504  503  0.15886018486E+03 -0.13005148274E+03  0.44929100184E+03  0.49397606301E+03  0.00000000000E+00 0. -1.
<mgrwt>
<rscale>  4 0.80860356E+03</rscale>
<asrwt>0</asrwt>
<pdfrwt beam="1">  1       21 0.33800258E+00 0.80860356E+03</pdfrwt>
<pdfrwt beam="2">  1       21 0.38024911E-01 0.80860356E+03</pdfrwt>
<totfact> 0.88401170E+01</totfact>
</mgrwt>
</event>
