<event>
 5    0  0.2150684E+000  0.2439532E+03  0.7546771E-02  0.1117187E+00
         21   -1    0    0  502  501  0.00000000000E+00  0.00000000000E+00  0.43131236245E+03  0.43131236245E+03  0.00000000000E+00 0. -1.
         21   -1    0    0  503  502 -0.00000000000E+00 -0.00000000000E+00 -0.12835932200E+03  0.12835932200E+03  0.00000000000E+00 0. -1.
         25    1    1    2    0    0  0.15707870766E+03  0.13861620240E+03  0.21091670188E+03  0.32248880151E+03  0.12500000000E+03 0.  0.
         21    1    1    2  503  504 -0.33036278292E+02 -0.53625403854E+01  0.29722228945E+02  0.44761182024E+02  0.00000000000E+00 0. -1.
         21    1    1    2  504  501 -0.12404242937E+03 -0.13325366201E+03  0.62314109630E+02  0.19242170091E+03  0.00000000000E+00 0. -1.
<mgrwt>
<rscale>  4 0.24395322E+03</rscale>
<asrwt>0</asrwt>
<pdfrwt beam="1">  1       21 0.66355747E-01 0.24395322E+03</pdfrwt>
<pdfrwt beam="2">  1       21 0.19747588E-01 0.24395322E+03</pdfrwt>
<totfact> 0.48101976E+04</totfact>
</mgrwt>
</event>
<event>
 5    0  0.1856407E+000  0.2907781E+03  0.7546771E-02  0.1089944E+00
         21   -1    0    0  502  501  0.00000000000E+00  0.00000000000E+00  0.15128725867E+04  0.15128725867E+04  0.00000000000E+00 0. -1.
         21   -1    0    0  503  502 -0.00000000000E+00 -0.00000000000E+00 -0.83474337617E+02  0.83474337617E+02  0.00000000000E+00 0. -1.
         25    1    1    2    0    0  0.26162719319E+03  0.21865429197E+02  0.11736916358E+04  0.12091749009E+04  0.12500000000E+03 0.  0.
         21    1    1    2  503  504 -0.12436098963E+03 -0.19138733260E+02  0.41026623945E+02  0.13234474196E+03  0.00000000000E+00 0. -1.
         21    1    1    2  504  501 -0.13726620356E+03 -0.27266959371E+01  0.21467998934E+03  0.25482728138E+03  0.00000000000E+00 0. -1.
<mgrwt>
<rscale>  4 0.29077807E+03</rscale>
<asrwt>0</asrwt>
<pdfrwt beam="1">  1       21 0.23274961E+00 0.29077807E+03</pdfrwt>
<pdfrwt beam="2">  1       21 0.12842207E-01 0.29077807E+03</pdfrwt>
<totfact> 0.40298130E+03</totfact>
</mgrwt>
</event>
<event>
 5    0  0.1856407E+000  0.2922030E+03  0.7546771E-02  0.1089205E+00
         21   -1    0    0  502  501  0.00000000000E+00  0.00000000000E+00  0.78981121971E+03  0.78981121971E+03  0.00000000000E+00 0.  1.
         21   -1    0    0  503  502 -0.00000000000E+00 -0.00000000000E+00 -0.36078502788E+03  0.36078502788E+03  0.00000000000E+00 0. -1.
         25    1    1    2    0    0 -0.23937849956E+03 -0.21061816002E+03  0.64118680846E+03  0.72691650051E+03  0.12500000000E+03 0.  0.
         21    1    1    2  503  504  0.19579594791E+03  0.17049889637E+03 -0.24412019951E+03  0.35637143360E+03  0.00000000000E+00 0. -1.
         21    1    1    2  504  501  0.43582551651E+02  0.40119263652E+02  0.31959582877E+02  0.67308313469E+02  0.00000000000E+00 0.  1.
<mgrwt>
<rscale>  4 0.29220297E+03</rscale>
<asrwt>0</asrwt>
<pdfrwt beam="1">  1       21 0.12150942E+00 0.29220297E+03</pdfrwt>
<pdfrwt beam="2">  1       21 0.55505389E-01 0.29220297E+03</pdfrwt>
<totfact> 0.14475713E+03</totfact>
</mgrwt>
</event>
<event>
 5    0  0.3049292E+000  0.2876087E+03  0.7546771E-02  0.1091604E+00
         21   -1    0    0  502  501  0.00000000000E+00  0.00000000000E+00  0.12359614752E+03  0.12359614752E+03  0.00000000000E+00 0.  1.
         21   -1    0    0  503  502 -0.00000000000E+00 -0.00000000000E+00 -0.71112682003E+03  0.71112682003E+03  0.00000000000E+00 0.  1.
         25    1    1    2    0    0  0.26170646414E+03  0.21533733469E+01 -0.25504220838E+03  0.38622071209E+03  0.12500000000E+03 0.  0.
         21    1    1    2  503  504 -0.67689614423E+01 -0.41940604698E+02 -0.56428114861E+02  0.70632607967E+02  0.00000000000E+00 0.  1.
         21    1    1    2  504  501 -0.25493750270E+03  0.39787231351E+02 -0.27606034927E+03  0.37786964750E+03  0.00000000000E+00 0.  1.
<mgrwt>
<rscale>  4 0.28760867E+03</rscale>
<asrwt>0</asrwt>
<pdfrwt beam="1">  1       21 0.19014792E-01 0.28760867E+03</pdfrwt>
<pdfrwt beam="2">  1       21 0.10940413E+00 0.28760867E+03</pdfrwt>
<totfact> 0.15927499E+04</totfact>
</mgrwt>
</event>
<event>
 5    0  0.1856407E+000  0.3880780E+03  0.7546771E-02  0.1047988E+00
         21   -1    0    0  502  501  0.00000000000E+00  0.00000000000E+00  0.97827446001E+03  0.97827446001E+03  0.00000000000E+00 0. -1.
         21   -1    0    0  503  502 -0.00000000000E+00 -0.00000000000E+00 -0.18082052241E+03  0.18082052241E+03  0.00000000000E+00 0.  1.
         25    1    1    2    0    0  0.10098720300E+03  0.35324371647E+03  0.65269894607E+03  0.75935528746E+03  0.12500000000E+03 0.  0.
         21    1    1    2  503  504  0.46671986466E+00 -0.81375851338E+02  0.19506790523E+02  0.83682506445E+02  0.00000000000E+00 0.  1.
         21    1    1    2  504  501 -0.10145392287E+03 -0.27186786513E+03  0.12524820100E+03  0.31605718851E+03  0.00000000000E+00 0.  1.
<mgrwt>
<rscale>  4 0.38807801E+03</rscale>
<asrwt>0</asrwt>
<pdfrwt beam="1">  1       21 0.15050376E+00 0.38807801E+03</pdfrwt>
<pdfrwt beam="2">  1       21 0.27818543E-01 0.38807801E+03</pdfrwt>
<totfact> 0.32368726E+03</totfact>
</mgrwt>
</event>
<event>
 5    0  0.1856407E+000  0.2699658E+03  0.7546771E-02  0.1101299E+00
         21   -1    0    0  502  501  0.00000000000E+00  0.00000000000E+00  0.53904673470E+03  0.53904673470E+03  0.00000000000E+00 0. -1.
         21   -1    0    0  503  502 -0.00000000000E+00 -0.00000000000E+00 -0.19934298377E+03  0.19934298377E+03  0.00000000000E+00 0. -1.
         25    1    1    2    0    0 -0.14766534045E+03 -0.21520808643E+03  0.10423453405E+03  0.30758642903E+03  0.12500000000E+03 0.  0.
         21    1    1    2  503  504  0.25793272520E+02  0.23186675803E+03  0.12115367057E+03  0.26287962698E+03  0.00000000000E+00 0. -1.
         21    1    1    2  504  501  0.12187206793E+03 -0.16658671598E+02  0.11431554631E+03  0.16792366245E+03  0.00000000000E+00 0. -1.
<mgrwt>
<rscale>  4 0.26996579E+03</rscale>
<asrwt>0</asrwt>
<pdfrwt beam="1">  1       21 0.82930266E-01 0.26996579E+03</pdfrwt>
<pdfrwt beam="2">  1       21 0.30668152E-01 0.26996579E+03</pdfrwt>
<totfact> 0.12371279E+04</totfact>
</mgrwt>
</event>
<event>
 5    0  0.1856407E+000  0.2866701E+03  0.7546771E-02  0.1092101E+00
         21   -1    0    0  502  501  0.00000000000E+00  0.00000000000E+00  0.12095228473E+03  0.12095228473E+03  0.00000000000E+00 0.  1.
         21   -1    0    0  503  502 -0.00000000000E+00 -0.00000000000E+00 -0.10477648405E+04  0.10477648405E+04  0.00000000000E+00 0. -1.
         25    1    1    2    0    0  0.25794725895E+03 -0.42408511241E+01 -0.10384702717E+03  0.30489994796E+03  0.12500000000E+03 0.  0.
         21    1    1    2  503  504 -0.70664394657E+02  0.15306904639E+02 -0.17814553468E+03  0.19225917281E+03  0.00000000000E+00 0. -1.
         21    1    1    2  504  501 -0.18728286429E+03 -0.11066053515E+02 -0.64481999393E+03  0.67155800448E+03  0.00000000000E+00 0. -1.
<mgrwt>
<rscale>  4 0.28667015E+03</rscale>
<asrwt>0</asrwt>
<pdfrwt beam="1">  1       21 0.18608045E-01 0.28667015E+03</pdfrwt>
<pdfrwt beam="2">  1       21 0.16119458E+00 0.28667015E+03</pdfrwt>
<totfact> 0.61008519E+03</totfact>
</mgrwt>
</event>
<event>
 5    0  0.2424622E+000  0.2958477E+03  0.7546771E-02  0.1087335E+00
         21   -1    0    0  502  501  0.00000000000E+00  0.00000000000E+00  0.10225053448E+03  0.10225053448E+03  0.00000000000E+00 0. -1.
         21   -1    0    0  503  502 -0.00000000000E+00 -0.00000000000E+00 -0.78653015297E+03  0.78653015297E+03  0.00000000000E+00 0. -1.
         25    1    1    2    0    0 -0.39293740606E+02 -0.26524867666E+03 -0.37673358772E+03  0.47901362678E+03  0.12500000000E+03 0.  0.
         21    1    1    2  503  504  0.24233198587E+02  0.23439320488E+03 -0.25717553006E+03  0.34880750517E+03  0.00000000000E+00 0. -1.
         21    1    1    2  504  501  0.15060542019E+02  0.30855471784E+02 -0.50370500707E+02  0.60959555497E+02  0.00000000000E+00 0. -1.
<mgrwt>
<rscale>  4 0.29584769E+03</rscale>
<asrwt>0</asrwt>
<pdfrwt beam="1">  1       21 0.15730852E-01 0.29584769E+03</pdfrwt>
<pdfrwt beam="2">  1       21 0.12100464E+00 0.29584769E+03</pdfrwt>
<totfact> 0.17594918E+04</totfact>
</mgrwt>
</event>
<event>
 5    0  0.1856407E+000  0.3044052E+03  0.7546771E-02  0.1083059E+00
         21   -1    0    0  502  501  0.00000000000E+00  0.00000000000E+00  0.37055174949E+03  0.37055174949E+03  0.00000000000E+00 0.  1.
         21   -1    0    0  503  502 -0.00000000000E+00 -0.00000000000E+00 -0.13638142635E+04  0.13638142635E+04  0.00000000000E+00 0. -1.
         25    1    1    2    0    0  0.25158306679E+03  0.57706646632E+02  0.28579443926E+03  0.40487968346E+03  0.12500000000E+03 0.  0.
         21    1    1    2  503  504  0.25201592769E+02 -0.26953314696E+02 -0.24267656114E+02  0.44164698396E+02  0.00000000000E+00 0.  1.
         21    1    1    2  504  501 -0.27678465956E+03 -0.30753331936E+02 -0.12547892972E+04  0.12853216311E+04  0.00000000000E+00 0. -1.
<mgrwt>
<rscale>  4 0.30440521E+03</rscale>
<asrwt>0</asrwt>
<pdfrwt beam="1">  1       21 0.57007962E-01 0.30440521E+03</pdfrwt>
<pdfrwt beam="2">  1       21 0.20981758E+00 0.30440521E+03</pdfrwt>
<totfact> 0.29992725E+02</totfact>
</mgrwt>
</event>
<event>
 5    0  0.1856407E+000  0.2368763E+03  0.7546771E-02  0.1121891E+00
         21   -1    0    0  502  501  0.00000000000E+00  0.00000000000E+00  0.80226228295E+03  0.80226228295E+03  0.00000000000E+00 0.  1.
         21   -1    0    0  503  502 -0.00000000000E+00 -0.00000000000E+00 -0.11636809795E+03  0.11636809795E+03  0.00000000000E+00 0.  1.
         25    1    1    2    0    0  0.18955742898E+03  0.67478684255E+02  0.67026984355E+03  0.71089524888E+03  0.12500000000E+03 0.  0.
         21    1    1    2  503  504 -0.33112251959E+02  0.66234905088E+01  0.64939043417E+01  0.34386954648E+02  0.00000000000E+00 0.  1.
         21    1    1    2  504  501 -0.15644517702E+03 -0.74102174764E+02  0.91304371096E+01  0.17334817737E+03  0.00000000000E+00 0.  1.
<mgrwt>
<rscale>  4 0.23687632E+03</rscale>
<asrwt>0</asrwt>
<pdfrwt beam="1">  1       21 0.12342496E+00 0.23687632E+03</pdfrwt>
<pdfrwt beam="2">  1       21 0.17902785E-01 0.23687632E+03</pdfrwt>
<totfact> 0.13572049E+04</totfact>
</mgrwt>
</event>
<event>
 5    0  0.1856407E+000  0.2397962E+03  0.7546771E-02  0.1119929E+00
         21   -1    0    0  502  501  0.00000000000E+00  0.00000000000E+00  0.54357614491E+03  0.54357614491E+03  0.00000000000E+00 0.  1.
         21   -1    0    0  503  502 -0.00000000000E+00 -0.00000000000E+00 -0.24489718524E+03  0.24489718524E+03  0.00000000000E+00 0.  1.
         25    1    1    2    0    0  0.20415698644E+03 -0.11109393781E+02  0.42586693294E+03  0.48866260171E+03  0.12500000000E+03 0.  0.
         21    1    1    2  503  504 -0.15119375141E+01 -0.34477552858E+02 -0.79543126376E+02  0.86706957966E+02  0.00000000000E+00 0.  1.
         21    1    1    2  504  501 -0.20264504892E+03  0.45586946638E+02 -0.47644846891E+02  0.21310377048E+03  0.00000000000E+00 0.  1.
<mgrwt>
<rscale>  4 0.23979620E+03</rscale>
<asrwt>0</asrwt>
<pdfrwt beam="1">  1       21 0.83627099E-01 0.23979620E+03</pdfrwt>
<pdfrwt beam="2">  1       21 0.37676490E-01 0.23979620E+03</pdfrwt>
<totfact> 0.81880955E+03</totfact>
</mgrwt>
</event>
<event>
 5    0  0.1856407E+000  0.2688167E+03  0.7546771E-02  0.1101959E+00
         21   -1    0    0  502  501  0.00000000000E+00  0.00000000000E+00  0.31958491732E+03  0.31958491732E+03  0.00000000000E+00 0. -1.
         21   -1    0    0  503  502 -0.00000000000E+00 -0.00000000000E+00 -0.71429569933E+03  0.71429569933E+03  0.00000000000E+00 0.  1.
         25    1    1    2    0    0 -0.29377378199E+02  0.23616603762E+03  0.23518450379E+03  0.35717527699E+03  0.12500000000E+03 0.  0.
         21    1    1    2  503  504  0.25278623492E+02 -0.68788187803E+02 -0.27003260656E+03  0.27980070085E+03  0.00000000000E+00 0.  1.
         21    1    1    2  504  501  0.40987547066E+01 -0.16737784982E+03 -0.35986267923E+03  0.39690463880E+03  0.00000000000E+00 0.  1.
<mgrwt>
<rscale>  4 0.26881672E+03</rscale>
<asrwt>0</asrwt>
<pdfrwt beam="1">  1       21 0.49166910E-01 0.26881672E+03</pdfrwt>
<pdfrwt beam="2">  1       21 0.10989165E+00 0.26881672E+03</pdfrwt>
<totfact> 0.24367223E+03</totfact>
</mgrwt>
</event>
<event>
 5    0  0.1856407E+000  0.3100040E+03  0.7546771E-02  0.1080344E+00
         21   -1    0    0  502  501  0.00000000000E+00  0.00000000000E+00  0.10185735122E+04  0.10185735122E+04  0.00000000000E+00 0.  1.
         21   -1    0    0  503  502 -0.00000000000E+00 -0.00000000000E+00 -0.93773315497E+03  0.93773315497E+03  0.00000000000E+00 0.  1.
         25    1    1    2    0    0  0.24312950316E+03  0.14489584851E+03  0.94827427376E+03  0.99747474179E+03  0.12500000000E+03 0.  0.
         21    1    1    2  503  504 -0.39193841036E+01  0.33367290355E+02 -0.41829915952E+03  0.41964618966E+03  0.00000000000E+00 0.  1.
         21    1    1    2  504  501 -0.23921011906E+03 -0.17826313887E+03 -0.44913475696E+03  0.53918573576E+03  0.00000000000E+00 0.  1.
<mgrwt>
<rscale>  4 0.31000398E+03</rscale>
<asrwt>0</asrwt>
<pdfrwt beam="1">  1       21 0.15670362E+00 0.31000398E+03</pdfrwt>
<pdfrwt beam="2">  1       21 0.14426664E+00 0.31000398E+03</pdfrwt>
<totfact> 0.77238283E+01</totfact>
</mgrwt>
</event>
<event>
 5    0  0.1856407E+000  0.2579276E+03  0.7546771E-02  0.1108395E+00
         21   -1    0    0  502  501  0.00000000000E+00  0.00000000000E+00  0.67634291095E+02  0.67634291095E+02  0.00000000000E+00 0.  1.
         21   -1    0    0  503  502 -0.00000000000E+00 -0.00000000000E+00 -0.15206380842E+04  0.15206380842E+04  0.00000000000E+00 0.  1.
         25    1    1    2    0    0  0.93040143620E+02  0.20553637507E+03 -0.23683746471E+03  0.35016946539E+03  0.12500000000E+03 0.  0.
         21    1    1    2  503  504 -0.47300383472E+02 -0.13705933024E+03 -0.64968487801E+03  0.66566735461E+03  0.00000000000E+00 0.  1.
         21    1    1    2  504  501 -0.45739760149E+02 -0.68477044832E+02 -0.56648145038E+03  0.57243555529E+03  0.00000000000E+00 0.  1.
<mgrwt>
<rscale>  4 0.25792764E+03</rscale>
<asrwt>0</asrwt>
<pdfrwt beam="1">  1       21 0.10405275E-01 0.25792764E+03</pdfrwt>
<pdfrwt beam="2">  1       21 0.23394433E+00 0.25792764E+03</pdfrwt>
<totfact> 0.59222693E+03</totfact>
</mgrwt>
</event>
<event>
 5    0  0.1856407E+000  0.3207870E+03  0.7546771E-02  0.1075288E+00
         21   -1    0    0  502  501  0.00000000000E+00  0.00000000000E+00  0.14576167090E+04  0.14576167090E+04  0.00000000000E+00 0.  1.
         21   -1    0    0  503  502 -0.00000000000E+00 -0.00000000000E+00 -0.67264435287E+02  0.67264435287E+02  0.00000000000E+00 0. -1.
         25    1    1    2    0    0  0.29417264631E+03 -0.27235688952E+02  0.66926558815E+03  0.74217299605E+03  0.12500000000E+03 0.  0.
         21    1    1    2  503  504 -0.23523083821E+02 -0.13652170608E+02  0.37233784712E+02  0.46109347845E+02  0.00000000000E+00 0.  1.
         21    1    1    2  504  501 -0.27064956249E+03  0.40887859560E+02  0.68385290087E+03  0.73659880041E+03  0.00000000000E+00 0. -1.
<mgrwt>
<rscale>  4 0.32078705E+03</rscale>
<asrwt>0</asrwt>
<pdfrwt beam="1">  1       21 0.22424870E+00 0.32078705E+03</pdfrwt>
<pdfrwt beam="2">  1       21 0.10348376E-01 0.32078705E+03</pdfrwt>
<totfact> 0.65902866E+03</totfact>
</mgrwt>
</event>
