<event>
 4    0  0.1264838E-002  0.6459907E+03  0.7546771E-02  0.9814332E-01
          2   -1    0    0  502    0  0.00000000000E+00  0.00000000000E+00  0.11691510906E+04  0.11691510906E+04  0.00000000000E+00 0. -1.
         -2   -1    0    0    0  501 -0.00000000000E+00 -0.00000000000E+00 -0.89232257411E+02  0.89232257411E+02  0.00000000000E+00 0.  1.
         25    1    1    2    0    0  0.20419886306E+03 -0.21245543820E+03  0.36708741024E+03  0.48704481893E+03  0.12500000000E+03 0.  0.
         21    1    1    2  502  501 -0.20419886306E+03  0.21245543820E+03  0.71283142296E+03  0.77133852909E+03  0.00000000000E+00 0. -1.
<mgrwt>
<rscale>  3 0.64599068E+03</rscale>
<asrwt>0</asrwt>
<pdfrwt beam="1">  1        2 0.17986939E+00 0.64599068E+03</pdfrwt>
<pdfrwt beam="2">  1       -2 0.13728041E-01 0.64599068E+03</pdfrwt>
<totfact> 0.81242628E+02</totfact>
</mgrwt>
</event>
<event>
 4    0  0.1264838E-002  0.7036901E+03  0.7546771E-02  0.9710942E-01
         -2   -1    0    0    0  501 -0.00000000000E+00  0.00000000000E+00  0.39339158779E+03  0.39339158779E+03  0.00000000000E+00 0.  1.
          2   -1    0    0  502    0  0.00000000000E+00 -0.00000000000E+00 -0.31468626511E+03  0.31468626511E+03  0.00000000000E+00 0. -1.
         25    1    1    2    0    0 -0.17067923622E+03 -0.27206212753E+03 -0.73941907021E+02  0.35247923134E+03  0.12500000000E+03 0.  0.
         21    1    1    2  502  501  0.17067923622E+03  0.27206212753E+03  0.15264722970E+03  0.35559862155E+03  0.00000000000E+00 0.  1.
<mgrwt>
<rscale>  3 0.70369007E+03</rscale>
<asrwt>0</asrwt>
<pdfrwt beam="1">  1        2 0.48413272E-01 0.70369007E+03</pdfrwt>
<pdfrwt beam="2">  1       -2 0.60521782E-01 0.70369007E+03</pdfrwt>
<totfact> 0.26724273E+02</totfact>
</mgrwt>
</event>
<event>
 4    0  0.1264838E-002  0.6637454E+03  0.7546771E-02  0.9781323E-01
         -1   -1    0    0    0  501 -0.00000000000E+00  0.00000000000E+00  0.91636614635E+02  0.91636614635E+02  0.00000000000E+00 0.  1.
          1   -1    0    0  502    0  0.00000000000E+00 -0.00000000000E+00 -0.12019157088E+04  0.12019157088E+04  0.00000000000E+00 0. -1.
         25    1    1    2    0    0 -0.31852365427E+03  0.13917771989E+02 -0.51920856776E+03  0.62197552970E+03  0.12500000000E+03 0.  0.
         21    1    1    2  502  501  0.31852365427E+03 -0.13917771989E+02 -0.59107052645E+03  0.67157679378E+03  0.00000000000E+00 0.  1.
<mgrwt>
<rscale>  3 0.66374539E+03</rscale>
<asrwt>0</asrwt>
<pdfrwt beam="1">  1        1 0.18491011E+00 0.66374539E+03</pdfrwt>
<pdfrwt beam="2">  1       -1 0.14097941E-01 0.66374539E+03</pdfrwt>
<totfact> 0.39414000E+02</totfact>
</mgrwt>
</event>
<event>
 4    0  0.1264838E-002  0.8515770E+03  0.7546771E-02  0.9488223E-01
          2   -1    0    0  502    0  0.00000000000E+00  0.00000000000E+00  0.52927207996E+03  0.52927207996E+03  0.00000000000E+00 0.  1.
         -2   -1    0    0    0  501 -0.00000000000E+00 -0.00000000000E+00 -0.34253808035E+03  0.34253808035E+03  0.00000000000E+00 0. -1.
         25    1    1    2    0    0  0.31285929776E+03 -0.30829886022E+02 -0.18449569280E+03  0.38535059715E+03  0.12500000000E+03 0.  0.
         21    1    1    2  502  501 -0.31285929776E+03  0.30829886022E+02  0.37122969240E+03  0.48645956316E+03  0.00000000000E+00 0.  1.
<mgrwt>
<rscale>  3 0.85157699E+03</rscale>
<asrwt>0</asrwt>
<pdfrwt beam="1">  1        2 0.81426474E-01 0.85157699E+03</pdfrwt>
<pdfrwt beam="2">  1       -2 0.52698166E-01 0.85157699E+03</pdfrwt>
<totfact> 0.19678382E+02</totfact>
</mgrwt>
</event>
<event>
 4    0  0.1264838E-002  0.5757046E+03  0.7546771E-02  0.9957134E-01
         -2   -1    0    0    0  501 -0.00000000000E+00  0.00000000000E+00  0.54147675757E+02  0.54147675757E+02  0.00000000000E+00 0.  1.
          2   -1    0    0  502    0  0.00000000000E+00 -0.00000000000E+00 -0.15302399315E+04  0.15302399315E+04  0.00000000000E+00 0. -1.
         25    1    1    2    0    0 -0.16510867451E+03 -0.21291060262E+03 -0.91421237719E+03  0.96124974367E+03  0.12500000000E+03 0.  0.
         21    1    1    2  502  501  0.16510867451E+03  0.21291060262E+03 -0.56187987853E+03  0.62313786356E+03  0.00000000000E+00 0.  1.
<mgrwt>
<rscale>  3 0.57570456E+03</rscale>
<asrwt>0</asrwt>
<pdfrwt beam="1">  1        2 0.23542151E+00 0.57570456E+03</pdfrwt>
<pdfrwt beam="2">  1       -2 0.83304123E-02 0.57570456E+03</pdfrwt>
<totfact> 0.11480228E+03</totfact>
</mgrwt>
</event>
<event>
 4    0  0.1264838E-002  0.6506282E+03  0.7546771E-02  0.9805601E-01
          1   -1    0    0  502    0  0.00000000000E+00  0.00000000000E+00  0.34705461374E+03  0.34705461374E+03  0.00000000000E+00 0.  1.
         -1   -1    0    0    0  501 -0.00000000000E+00 -0.00000000000E+00 -0.30493547087E+03  0.30493547087E+03  0.00000000000E+00 0. -1.
         25    1    1    2    0    0  0.19973489537E+03  0.15911641687E+03 -0.16006132470E+03  0.32627701453E+03  0.12500000000E+03 0.  0.
         21    1    1    2  502  501 -0.19973489537E+03 -0.15911641687E+03  0.20218046758E+03  0.32571307007E+03  0.00000000000E+00 0.  1.
<mgrwt>
<rscale>  3 0.65062820E+03</rscale>
<asrwt>0</asrwt>
<pdfrwt beam="1">  1        1 0.53393018E-01 0.65062820E+03</pdfrwt>
<pdfrwt beam="2">  1       -1 0.46913149E-01 0.65062820E+03</pdfrwt>
<totfact> 0.33242992E+02</totfact>
</mgrwt>
</event>
<event>
 4    0  0.1264838E-002  0.4781266E+03  0.7546771E-02  0.1019651E+00
         -2   -1    0    0    0  501 -0.00000000000E+00  0.00000000000E+00  0.23373731501E+02  0.23373731501E+02  0.00000000000E+00 0. -1.
          2   -1    0    0  502    0  0.00000000000E+00 -0.00000000000E+00 -0.24451065586E+04  0.24451065586E+04  0.00000000000E+00 0.  1.
         25    1    1    2    0    0  0.85687672543E+02 -0.20012563582E+03 -0.15365061491E+04  0.15568778994E+04  0.12500000000E+03 0.  0.
         21    1    1    2  502  501 -0.85687672543E+02  0.20012563582E+03 -0.88522667796E+03  0.91160239069E+03  0.00000000000E+00 0. -1.
<mgrwt>
<rscale>  3 0.47812661E+03</rscale>
<asrwt>0</asrwt>
<pdfrwt beam="1">  1        2 0.37617020E+00 0.47812661E+03</pdfrwt>
<pdfrwt beam="2">  1       -2 0.35959591E-02 0.47812661E+03</pdfrwt>
<totfact> 0.13584277E+03</totfact>
</mgrwt>
</event>
<event>
 4    0  0.1264838E-002  0.4552142E+03  0.7546771E-02  0.1026178E+00
         -2   -1    0    0    0  501 -0.00000000000E+00  0.00000000000E+00  0.16114789733E+03  0.16114789733E+03  0.00000000000E+00 0. -1.
          2   -1    0    0  502    0  0.00000000000E+00 -0.00000000000E+00 -0.32147489289E+03  0.32147489289E+03  0.00000000000E+00 0.  1.
         25    1    1    2    0    0  0.43015997696E+01  0.20970293914E+03 -0.10436272935E+03  0.26553795533E+03  0.12500000000E+03 0.  0.
         21    1    1    2  502  501 -0.43015997696E+01 -0.20970293914E+03 -0.55964266216E+02  0.21708483489E+03  0.00000000000E+00 0.  1.
<mgrwt>
<rscale>  3 0.45521425E+03</rscale>
<asrwt>0</asrwt>
<pdfrwt beam="1">  1        2 0.49457675E-01 0.45521425E+03</pdfrwt>
<pdfrwt beam="2">  1       -2 0.24791984E-01 0.45521425E+03</pdfrwt>
<totfact> 0.14731208E+03</totfact>
</mgrwt>
</event>
<event>
 4    0  0.1264838E-002  0.6691230E+03  0.7546771E-02  0.9771544E-01
          4   -1    0    0  502    0  0.00000000000E+00  0.00000000000E+00  0.69137831064E+03  0.69137831064E+03  0.00000000000E+00 0. -1.
         -4   -1    0    0    0  501 -0.00000000000E+00 -0.00000000000E+00 -0.16189599933E+03  0.16189599933E+03  0.00000000000E+00 0.  1.
         25    1    1    2    0    0 -0.39158042311E+02  0.22952139698E+03  0.55924566907E+03  0.61854194872E+03  0.12500000000E+03 0.  0.
         21    1    1    2  502  501  0.39158042311E+02 -0.22952139698E+03 -0.29763357761E+02  0.23473236125E+03  0.00000000000E+00 0.  1.
<mgrwt>
<rscale>  3 0.66912296E+03</rscale>
<asrwt>0</asrwt>
<pdfrwt beam="1">  1        4 0.10636589E+00 0.66912296E+03</pdfrwt>
<pdfrwt beam="2">  1       -4 0.24907077E-01 0.66912296E+03</pdfrwt>
<totfact> 0.21667526E+01</totfact>
</mgrwt>
</event>
<event>
 4    0  0.1264838E-002  0.4621022E+03  0.7546771E-02  0.1024173E+00
         -2   -1    0    0    0  501 -0.00000000000E+00  0.00000000000E+00  0.15222762001E+02  0.15222762001E+02  0.00000000000E+00 0. -1.
          2   -1    0    0  502    0  0.00000000000E+00 -0.00000000000E+00 -0.35068945612E+04  0.35068945612E+04  0.00000000000E+00 0.  1.
         25    1    1    2    0    0  0.68576069673E+02 -0.20277263868E+03 -0.18262715558E+04  0.18430171502E+04  0.12500000000E+03 0.  0.
         21    1    1    2  502  501 -0.68576069673E+02  0.20277263868E+03 -0.16654002434E+04  0.16791001730E+04  0.00000000000E+00 0. -1.
<mgrwt>
<rscale>  3 0.46210225E+03</rscale>
<asrwt>0</asrwt>
<pdfrwt beam="1">  1        2 0.53952235E+00 0.46210225E+03</pdfrwt>
<pdfrwt beam="2">  1       -2 0.23419629E-02 0.46210225E+03</pdfrwt>
<totfact> 0.59201035E+02</totfact>
</mgrwt>
</event>
<event>
 4    0  0.1264838E-002  0.5486002E+03  0.7546771E-02  0.1001818E+00
          2   -1    0    0  502    0  0.00000000000E+00  0.00000000000E+00  0.20650994255E+04  0.20650994255E+04  0.00000000000E+00 0.  1.
         -2   -1    0    0    0  501 -0.00000000000E+00 -0.00000000000E+00 -0.36434342033E+02  0.36434342033E+02  0.00000000000E+00 0. -1.
         25    1    1    2    0    0 -0.22454075770E+03 -0.66113687473E+02  0.15010880577E+04  0.15243621382E+04  0.12500000000E+03 0.  0.
         21    1    1    2  502  501  0.22454075770E+03  0.66113687473E+02  0.52757702575E+03  0.57717162927E+03  0.00000000000E+00 0. -1.
<mgrwt>
<rscale>  3 0.54860018E+03</rscale>
<asrwt>0</asrwt>
<pdfrwt beam="1">  1        2 0.31770751E+00 0.54860018E+03</pdfrwt>
<pdfrwt beam="2">  1       -2 0.56052850E-02 0.54860018E+03</pdfrwt>
<totfact> 0.11017569E+03</totfact>
</mgrwt>
</event>
<event>
 4    0  0.1264838E-002  0.5121570E+03  0.7546771E-02  0.1010654E+00
          2   -1    0    0  502    0  0.00000000000E+00  0.00000000000E+00  0.29946844073E+04  0.29946844073E+04  0.00000000000E+00 0.  1.
         -2   -1    0    0    0  501 -0.00000000000E+00 -0.00000000000E+00 -0.21897529426E+02  0.21897529426E+02  0.00000000000E+00 0. -1.
         25    1    1    2    0    0  0.18381541114E+03  0.13890845852E+03  0.19877664935E+04  0.20049748871E+04  0.12500000000E+03 0.  0.
         21    1    1    2  502  501 -0.18381541114E+03 -0.13890845852E+03  0.98502038437E+03  0.10116070496E+04  0.00000000000E+00 0.  1.
<mgrwt>
<rscale>  3 0.51215697E+03</rscale>
<asrwt>0</asrwt>
<pdfrwt beam="1">  1        2 0.46072035E+00 0.51215697E+03</pdfrwt>
<pdfrwt beam="2">  1       -2 0.33688531E-02 0.51215697E+03</pdfrwt>
<totfact> 0.71989338E+02</totfact>
</mgrwt>
</event>
<event>
 4    0  0.1264838E-002  0.4755496E+03  0.7546771E-02  0.1020365E+00
         -2   -1    0    0    0  501 -0.00000000000E+00  0.00000000000E+00  0.18423509313E+02  0.18423509313E+02  0.00000000000E+00 0.  1.
          2   -1    0    0  502    0  0.00000000000E+00 -0.00000000000E+00 -0.30687346395E+04  0.30687346395E+04  0.00000000000E+00 0. -1.
         25    1    1    2    0    0  0.13284552798E+02 -0.22086064860E+03 -0.15903316356E+04  0.16105078754E+04  0.12500000000E+03 0.  0.
         21    1    1    2  502  501 -0.13284552798E+02  0.22086064860E+03 -0.14599794945E+04  0.14766502734E+04  0.00000000000E+00 0. -1.
<mgrwt>
<rscale>  3 0.47554962E+03</rscale>
<asrwt>0</asrwt>
<pdfrwt beam="1">  1        2 0.47211278E+00 0.47554962E+03</pdfrwt>
<pdfrwt beam="2">  1       -2 0.28343875E-02 0.47554962E+03</pdfrwt>
<totfact> 0.84675864E+02</totfact>
</mgrwt>
</event>
<event>
 4    0  0.1264838E-002  0.7117126E+03  0.7546771E-02  0.9697409E-01
         -2   -1    0    0    0  501 -0.00000000000E+00  0.00000000000E+00  0.12244965834E+03  0.12244965834E+03  0.00000000000E+00 0. -1.
          2   -1    0    0  502    0  0.00000000000E+00 -0.00000000000E+00 -0.10341695218E+04  0.10341695218E+04  0.00000000000E+00 0.  1.
         25    1    1    2    0    0 -0.29540359141E+03 -0.14502714109E+03 -0.63759731438E+03  0.72832100668E+03  0.12500000000E+03 0.  0.
         21    1    1    2  502  501  0.29540359141E+03  0.14502714109E+03 -0.27412254904E+03  0.42829817343E+03  0.00000000000E+00 0.  1.
<mgrwt>
<rscale>  3 0.71171260E+03</rscale>
<asrwt>0</asrwt>
<pdfrwt beam="1">  1        2 0.15910300E+00 0.71171260E+03</pdfrwt>
<pdfrwt beam="2">  1       -2 0.18838410E-01 0.71171260E+03</pdfrwt>
<totfact> 0.57159644E+02</totfact>
</mgrwt>
</event>
<event>
 4    0  0.1264838E-002  0.1784856E+04  0.7546771E-02  0.8714394E-01
          1   -1    0    0  502    0  0.00000000000E+00  0.00000000000E+00  0.17795043497E+04  0.17795043497E+04  0.00000000000E+00 0.  1.
         -1   -1    0    0    0  501 -0.00000000000E+00 -0.00000000000E+00 -0.44755611149E+03  0.44755611149E+03  0.00000000000E+00 0. -1.
         25    1    1    2    0    0  0.60467650367E+03 -0.28176300508E+03 -0.62171402503E+02  0.68155289480E+03  0.12500000000E+03 0.  0.
         21    1    1    2  502  501 -0.60467650367E+03  0.28176300508E+03  0.13941196407E+04  0.15455075664E+04  0.00000000000E+00 0.  1.
<mgrwt>
<rscale>  3 0.17848563E+04</rscale>
<asrwt>0</asrwt>
<pdfrwt beam="1">  1        1 0.27376990E+00 0.17848563E+04</pdfrwt>
<pdfrwt beam="2">  1       -1 0.68854787E-01 0.17848563E+04</pdfrwt>
<totfact> 0.84831677E+00</totfact>
</mgrwt>
</event>
<event>
 4    0  0.1264838E-002  0.6777285E+03  0.7546771E-02  0.9756096E-01
          2   -1    0    0  502    0  0.00000000000E+00  0.00000000000E+00  0.13528591630E+04  0.13528591630E+04  0.00000000000E+00 0. -1.
         -2   -1    0    0    0  501 -0.00000000000E+00 -0.00000000000E+00 -0.84878745341E+02  0.84878745341E+02  0.00000000000E+00 0.  1.
         25    1    1    2    0    0 -0.11823943855E+03  0.28647091448E+03  0.87909378026E+03  0.94046638651E+03  0.12500000000E+03 0.  0.
         21    1    1    2  502  501  0.11823943855E+03 -0.28647091448E+03  0.38888663741E+03  0.49727152183E+03  0.00000000000E+00 0.  1.
<mgrwt>
<rscale>  3 0.67772852E+03</rscale>
<asrwt>0</asrwt>
<pdfrwt beam="1">  1        2 0.20813216E+00 0.67772852E+03</pdfrwt>
<pdfrwt beam="2">  1       -2 0.13058269E-01 0.67772852E+03</pdfrwt>
<totfact> 0.69002372E+02</totfact>
</mgrwt>
</event>
<event>
 4    0  0.1264838E-002  0.4440648E+03  0.7546771E-02  0.1029507E+00
         -2   -1    0    0    0  501 -0.00000000000E+00  0.00000000000E+00  0.98638528903E+02  0.98638528903E+02  0.00000000000E+00 0. -1.
          2   -1    0    0  502    0  0.00000000000E+00 -0.00000000000E+00 -0.49978845034E+03  0.49978845034E+03  0.00000000000E+00 0.  1.
         25    1    1    2    0    0 -0.54601145848E+02  0.19697766580E+03 -0.22149766304E+03  0.32629388699E+03  0.12500000000E+03 0.  0.
         21    1    1    2  502  501  0.54601145848E+02 -0.19697766580E+03 -0.17965225840E+03  0.27213309226E+03  0.00000000000E+00 0.  1.
<mgrwt>
<rscale>  3 0.44406485E+03</rscale>
<asrwt>0</asrwt>
<pdfrwt beam="1">  1        2 0.76890529E-01 0.44406485E+03</pdfrwt>
<pdfrwt beam="2">  1       -2 0.15175159E-01 0.44406485E+03</pdfrwt>
<totfact> 0.21039757E+03</totfact>
</mgrwt>
</event>
<event>
 4    0  0.1264838E-002  0.5941932E+03  0.7546771E-02  0.9917527E-01
         -1   -1    0    0    0  501 -0.00000000000E+00  0.00000000000E+00  0.14839246310E+03  0.14839246310E+03  0.00000000000E+00 0. -1.
          1   -1    0    0  502    0  0.00000000000E+00 -0.00000000000E+00 -0.59481718820E+03  0.59481718820E+03  0.00000000000E+00 0.  1.
         25    1    1    2    0    0 -0.21850388291E+03  0.13602830693E+03 -0.38307632892E+03  0.47814236469E+03  0.12500000000E+03 0.  0.
         21    1    1    2  502  501  0.21850388291E+03 -0.13602830693E+03 -0.63348396178E+02  0.26506728661E+03  0.00000000000E+00 0. -1.
<mgrwt>
<rscale>  3 0.59419319E+03</rscale>
<asrwt>0</asrwt>
<pdfrwt beam="1">  1        1 0.91510336E-01 0.59419319E+03</pdfrwt>
<pdfrwt beam="2">  1       -1 0.22829610E-01 0.59419319E+03</pdfrwt>
<totfact> 0.57272978E+02</totfact>
</mgrwt>
</event>
<event>
 4    0  0.1264838E-002  0.6322179E+03  0.7546771E-02  0.9840730E-01
          1   -1    0    0  502    0  0.00000000000E+00  0.00000000000E+00  0.99196861075E+02  0.99196861075E+02  0.00000000000E+00 0.  1.
         -1   -1    0    0    0  501 -0.00000000000E+00 -0.00000000000E+00 -0.10073390812E+04  0.10073390812E+04  0.00000000000E+00 0. -1.
         25    1    1    2    0    0 -0.29992908087E+03 -0.30380697448E+02 -0.40669375166E+03  0.52144534514E+03  0.12500000000E+03 0.  0.
         21    1    1    2  502  501  0.29992908087E+03  0.30380697448E+02 -0.50144846849E+03  0.58509059716E+03  0.00000000000E+00 0. -1.
<mgrwt>
<rscale>  3 0.63221792E+03</rscale>
<asrwt>0</asrwt>
<pdfrwt beam="1">  1        1 0.15261056E-01 0.63221792E+03</pdfrwt>
<pdfrwt beam="2">  1       -1 0.15497524E+00 0.63221792E+03</pdfrwt>
<totfact> 0.12310146E+02</totfact>
</mgrwt>
</event>
<event>
 4    0  0.1264838E-002  0.4638360E+03  0.7546771E-02  0.1023675E+00
         -1   -1    0    0    0  501 -0.00000000000E+00  0.00000000000E+00  0.72188264620E+02  0.72188264620E+02  0.00000000000E+00 0. -1.
          1   -1    0    0  502    0  0.00000000000E+00 -0.00000000000E+00 -0.74507910209E+03  0.74507910209E+03  0.00000000000E+00 0.  1.
         25    1    1    2    0    0  0.16176126590E+03  0.13449802208E+03 -0.43969246302E+03  0.50320064301E+03  0.12500000000E+03 0.  0.
         21    1    1    2  502  501 -0.16176126590E+03 -0.13449802208E+03 -0.23319837445E+03  0.31406672370E+03  0.00000000000E+00 0.  1.
<mgrwt>
<rscale>  3 0.46383604E+03</rscale>
<asrwt>0</asrwt>
<pdfrwt beam="1">  1        1 0.11462755E+00 0.46383604E+03</pdfrwt>
<pdfrwt beam="2">  1       -1 0.11105887E-01 0.46383604E+03</pdfrwt>
<totfact> 0.13295472E+03</totfact>
</mgrwt>
</event>
<event>
 4    0  0.1264838E-002  0.5931232E+03  0.7546771E-02  0.9919777E-01
         -2   -1    0    0    0  501 -0.00000000000E+00  0.00000000000E+00  0.17360092530E+03  0.17360092530E+03  0.00000000000E+00 0.  1.
          2   -1    0    0  502    0  0.00000000000E+00 -0.00000000000E+00 -0.50661470991E+03  0.50661470991E+03  0.00000000000E+00 0. -1.
         25    1    1    2    0    0 -0.28299519776E+03  0.11070643338E+02 -0.18542431463E+03  0.36085456566E+03  0.12500000000E+03 0.  0.
         21    1    1    2  502  501  0.28299519776E+03 -0.11070643338E+02 -0.14758946998E+03  0.31936106956E+03  0.00000000000E+00 0.  1.
<mgrwt>
<rscale>  3 0.59312320E+03</rscale>
<asrwt>0</asrwt>
<pdfrwt beam="1">  1        2 0.77940725E-01 0.59312320E+03</pdfrwt>
<pdfrwt beam="2">  1       -2 0.26707835E-01 0.59312320E+03</pdfrwt>
<totfact> 0.77442841E+02</totfact>
</mgrwt>
</event>
<event>
 4    0  0.1264838E-002  0.5036401E+03  0.7546771E-02  0.1012833E+00
          2   -1    0    0  502    0  0.00000000000E+00  0.00000000000E+00  0.89042684617E+02  0.89042684617E+02  0.00000000000E+00 0. -1.
         -2   -1    0    0    0  501 -0.00000000000E+00 -0.00000000000E+00 -0.71216784597E+03  0.71216784597E+03  0.00000000000E+00 0.  1.
         25    1    1    2    0    0 -0.23313736875E+03 -0.30210160719E+02 -0.36892745683E+03  0.45497049895E+03  0.12500000000E+03 0.  0.
         21    1    1    2  502  501  0.23313736875E+03  0.30210160719E+02 -0.25419770453E+03  0.34624003163E+03  0.00000000000E+00 0.  1.
<mgrwt>
<rscale>  3 0.50364010E+03</rscale>
<asrwt>0</asrwt>
<pdfrwt beam="1">  1        2 0.13698875E-01 0.50364010E+03</pdfrwt>
<pdfrwt beam="2">  1       -2 0.10956428E+00 0.50364010E+03</pdfrwt>
<totfact> 0.30099429E+02</totfact>
</mgrwt>
</event>
<event>
 4    0  0.1264838E-002  0.4904509E+03  0.7546771E-02  0.1016302E+00
          1   -1    0    0  502    0  0.00000000000E+00  0.00000000000E+00  0.95104647695E+02  0.95104647695E+02  0.00000000000E+00 0.  1.
         -1   -1    0    0    0  501 -0.00000000000E+00 -0.00000000000E+00 -0.63230906117E+03  0.63230906117E+03  0.00000000000E+00 0. -1.
         25    1    1    2    0    0 -0.12373761430E+03 -0.15956891995E+03 -0.12491416106E+03  0.26833148350E+03  0.12500000000E+03 0.  0.
         21    1    1    2  502  501  0.12373761430E+03  0.15956891995E+03 -0.41229025241E+03  0.45908222536E+03  0.00000000000E+00 0. -1.
<mgrwt>
<rscale>  3 0.49045094E+03</rscale>
<asrwt>0</asrwt>
<pdfrwt beam="1">  1        1 0.14631484E-01 0.49045094E+03</pdfrwt>
<pdfrwt beam="2">  1       -1 0.97278317E-01 0.49045094E+03</pdfrwt>
<totfact> 0.41143063E+02</totfact>
</mgrwt>
</event>
<event>
 4    0  0.1264838E-002  0.4533010E+03  0.7546771E-02  0.1026742E+00
          2   -1    0    0  502    0  0.00000000000E+00  0.00000000000E+00  0.81117313788E+03  0.81117313788E+03  0.00000000000E+00 0. -1.
         -2   -1    0    0    0  501 -0.00000000000E+00 -0.00000000000E+00 -0.63328601426E+02  0.63328601426E+02  0.00000000000E+00 0.  1.
         25    1    1    2    0    0  0.11094012623E+03 -0.17758698140E+03  0.39621029293E+03  0.46524449894E+03  0.12500000000E+03 0.  0.
         21    1    1    2  502  501 -0.11094012623E+03  0.17758698140E+03  0.35163424352E+03  0.40925724036E+03  0.00000000000E+00 0. -1.
<mgrwt>
<rscale>  3 0.45330105E+03</rscale>
<asrwt>0</asrwt>
<pdfrwt beam="1">  1        2 0.12479586E+00 0.45330105E+03</pdfrwt>
<pdfrwt beam="2">  1       -2 0.97428623E-02 0.45330105E+03</pdfrwt>
<totfact> 0.24202265E+03</totfact>
</mgrwt>
</event>
<event>
 4    0  0.1314208E-002  0.5162277E+03  0.7546771E-02  0.1009628E+00
         -2   -1    0    0    0  501 -0.00000000000E+00  0.00000000000E+00  0.31584855692E+02  0.31584855692E+02  0.00000000000E+00 0. -1.
          2   -1    0    0  502    0  0.00000000000E+00 -0.00000000000E+00 -0.21093258596E+04  0.21093258596E+04  0.00000000000E+00 0.  1.
         25    1    1    2    0    0  0.16063269957E+03  0.13536009677E+03 -0.59331010967E+03  0.64169081824E+03  0.12500000000E+03 0.  0.
         21    1    1    2  502  501 -0.16063269957E+03 -0.13536009677E+03 -0.14844308943E+04  0.14992198971E+04  0.00000000000E+00 0.  1.
<mgrwt>
<rscale>  3 0.51622767E+03</rscale>
<asrwt>0</asrwt>
<pdfrwt beam="1">  1        2 0.32451172E+00 0.51622767E+03</pdfrwt>
<pdfrwt beam="2">  1       -2 0.48592079E-02 0.51622767E+03</pdfrwt>
<totfact> 0.13039587E+03</totfact>
</mgrwt>
</event>
<event>
 4    0  0.1264838E-002  0.5140190E+03  0.7546771E-02  0.1010183E+00
          1   -1    0    0  502    0  0.00000000000E+00  0.00000000000E+00  0.27810130449E+03  0.27810130449E+03  0.00000000000E+00 0. -1.
         -1   -1    0    0    0  501 -0.00000000000E+00 -0.00000000000E+00 -0.23751731244E+03  0.23751731244E+03  0.00000000000E+00 0.  1.
         25    1    1    2    0    0 -0.12828900778E+03  0.16551500104E+03  0.14277773404E+03  0.28260178065E+03  0.12500000000E+03 0.  0.
         21    1    1    2  502  501  0.12828900778E+03 -0.16551500104E+03 -0.10219374199E+03  0.23301683628E+03  0.00000000000E+00 0. -1.
<mgrwt>
<rscale>  3 0.51401897E+03</rscale>
<asrwt>0</asrwt>
<pdfrwt beam="1">  1        1 0.42784816E-01 0.51401897E+03</pdfrwt>
<pdfrwt beam="2">  1       -1 0.36541125E-01 0.51401897E+03</pdfrwt>
<totfact> 0.70011940E+02</totfact>
</mgrwt>
</event>
<event>
 4    0  0.1264838E-002  0.4664252E+03  0.7546771E-02  0.1022934E+00
          1   -1    0    0  502    0  0.00000000000E+00  0.00000000000E+00  0.20726413468E+04  0.20726413468E+04  0.00000000000E+00 0. -1.
         -1   -1    0    0    0  501 -0.00000000000E+00 -0.00000000000E+00 -0.26240965200E+02  0.26240965200E+02  0.00000000000E+00 0.  1.
         25    1    1    2    0    0 -0.13614394301E+03  0.16805805445E+03  0.10570785056E+04  0.10861945728E+04  0.12500000000E+03 0.  0.
         21    1    1    2  502  501  0.13614394301E+03 -0.16805805445E+03  0.98932187600E+03  0.10126877392E+04  0.00000000000E+00 0. -1.
<mgrwt>
<rscale>  3 0.46642517E+03</rscale>
<asrwt>0</asrwt>
<pdfrwt beam="1">  1        1 0.31886777E+00 0.46642517E+03</pdfrwt>
<pdfrwt beam="2">  1       -1 0.40370732E-02 0.46642517E+03</pdfrwt>
<totfact> 0.71994196E+02</totfact>
</mgrwt>
</event>
<event>
 4    0  0.1264838E-002  0.5667413E+03  0.7546771E-02  0.9976916E-01
          2   -1    0    0  502    0  0.00000000000E+00  0.00000000000E+00  0.14207724564E+04  0.14207724564E+04  0.00000000000E+00 0.  1.
         -2   -1    0    0    0  501 -0.00000000000E+00 -0.00000000000E+00 -0.56517798016E+02  0.56517798016E+02  0.00000000000E+00 0. -1.
         25    1    1    2    0    0 -0.14585983321E+03 -0.17200911976E+03  0.33031907244E+03  0.41904405239E+03  0.12500000000E+03 0.  0.
         21    1    1    2  502  501  0.14585983321E+03  0.17200911976E+03  0.10339355859E+04  0.10582462020E+04  0.00000000000E+00 0.  1.
<mgrwt>
<rscale>  3 0.56674132E+03</rscale>
<asrwt>0</asrwt>
<pdfrwt beam="1">  1        2 0.21858035E+00 0.56674132E+03</pdfrwt>
<pdfrwt beam="2">  1       -2 0.86950469E-02 0.56674132E+03</pdfrwt>
<totfact> 0.12329335E+03</totfact>
</mgrwt>
</event>
<event>
 4    0  0.1264838E-002  0.6107381E+03  0.7546771E-02  0.9883375E-01
          2   -1    0    0  502    0  0.00000000000E+00  0.00000000000E+00  0.46427315198E+03  0.46427315198E+03  0.00000000000E+00 0. -1.
         -2   -1    0    0    0  501 -0.00000000000E+00 -0.00000000000E+00 -0.20085213636E+03  0.20085213636E+03  0.00000000000E+00 0.  1.
         25    1    1    2    0    0  0.70798173590E+02  0.27874815309E+03  0.78697307398E+02  0.32331282131E+03  0.12500000000E+03 0.  0.
         21    1    1    2  502  501 -0.70798173590E+02 -0.27874815309E+03  0.18472370822E+03  0.34181246702E+03  0.00000000000E+00 0. -1.
<mgrwt>
<rscale>  3 0.61073809E+03</rscale>
<asrwt>0</asrwt>
<pdfrwt beam="1">  1        2 0.71426638E-01 0.61073809E+03</pdfrwt>
<pdfrwt beam="2">  1       -2 0.30900329E-01 0.61073809E+03</pdfrwt>
<totfact> 0.65474903E+02</totfact>
</mgrwt>
</event>
<event>
 4    0  0.1264838E-002  0.6637063E+03  0.7546771E-02  0.9781395E-01
         -1   -1    0    0    0  501 -0.00000000000E+00  0.00000000000E+00  0.71871548167E+03  0.71871548167E+03  0.00000000000E+00 0. -1.
          1   -1    0    0  502    0  0.00000000000E+00 -0.00000000000E+00 -0.15322686518E+03  0.15322686518E+03  0.00000000000E+00 0.  1.
         25    1    1    2    0    0  0.19997526878E+03  0.78672487302E+02  0.60441992056E+03  0.65355023430E+03  0.12500000000E+03 0.  0.
         21    1    1    2  502  501 -0.19997526878E+03 -0.78672487302E+02 -0.38931304071E+02  0.21839211254E+03  0.00000000000E+00 0.  1.
<mgrwt>
<rscale>  3 0.66370632E+03</rscale>
<asrwt>0</asrwt>
<pdfrwt beam="1">  1        1 0.23573364E-01 0.66370632E+03</pdfrwt>
<pdfrwt beam="2">  1       -1 0.11057161E+00 0.66370632E+03</pdfrwt>
<totfact> 0.16184299E+02</totfact>
</mgrwt>
</event>
<event>
 4    0  0.1264838E-002  0.5760614E+03  0.7546771E-02  0.9956355E-01
         -1   -1    0    0    0  501 -0.00000000000E+00  0.00000000000E+00  0.19241651219E+03  0.19241651219E+03  0.00000000000E+00 0. -1.
          1   -1    0    0  502    0  0.00000000000E+00 -0.00000000000E+00 -0.43115680204E+03  0.43115680204E+03  0.00000000000E+00 0.  1.
         25    1    1    2    0    0 -0.25673407044E+03  0.50383556769E+02 -0.21479211939E+03  0.36084836188E+03  0.12500000000E+03 0.  0.
         21    1    1    2  502  501  0.25673407044E+03 -0.50383556769E+02 -0.23948170461E+02  0.26272495235E+03  0.00000000000E+00 0. -1.
<mgrwt>
<rscale>  3 0.57606141E+03</rscale>
<asrwt>0</asrwt>
<pdfrwt beam="1">  1        1 0.66331816E-01 0.57606141E+03</pdfrwt>
<pdfrwt beam="2">  1       -1 0.29602540E-01 0.57606141E+03</pdfrwt>
<totfact> 0.57212878E+02</totfact>
</mgrwt>
</event>
<event>
 4    0  0.1430501E-002  0.5829630E+03  0.7546771E-02  0.9941397E-01
         -1   -1    0    0    0  501 -0.00000000000E+00  0.00000000000E+00  0.22366122962E+03  0.22366122962E+03  0.00000000000E+00 0.  1.
          1   -1    0    0  502    0  0.00000000000E+00 -0.00000000000E+00 -0.37986672899E+03  0.37986672899E+03  0.00000000000E+00 0. -1.
         25    1    1    2    0    0 -0.12067802451E+03 -0.17617752587E+03  0.10271015294E+03  0.26791058534E+03  0.12500000000E+03 0.  0.
         21    1    1    2  502  501  0.12067802451E+03  0.17617752587E+03 -0.25891565231E+03  0.33561737326E+03  0.00000000000E+00 0. -1.
<mgrwt>
<rscale>  3 0.58296298E+03</rscale>
<asrwt>0</asrwt>
<pdfrwt beam="1">  1        1 0.58441034E-01 0.58296298E+03</pdfrwt>
<pdfrwt beam="2">  1       -1 0.34409420E-01 0.58296298E+03</pdfrwt>
<totfact> 0.51958065E+02</totfact>
</mgrwt>
</event>
<event>
 4    0  0.1264838E-002  0.4960776E+03  0.7546771E-02  0.1014808E+00
         -2   -1    0    0    0  501 -0.00000000000E+00  0.00000000000E+00  0.52722088118E+02  0.52722088118E+02  0.00000000000E+00 0. -1.
          2   -1    0    0  502    0  0.00000000000E+00 -0.00000000000E+00 -0.11669349648E+04  0.11669349648E+04  0.00000000000E+00 0.  1.
         25    1    1    2    0    0 -0.14893934117E+03  0.16054567771E+03 -0.40202130342E+03  0.47455660398E+03  0.12500000000E+03 0.  0.
         21    1    1    2  502  501  0.14893934117E+03 -0.16054567771E+03 -0.71219157331E+03  0.74510044899E+03  0.00000000000E+00 0.  1.
<mgrwt>
<rscale>  3 0.49607761E+03</rscale>
<asrwt>0</asrwt>
<pdfrwt beam="1">  1        2 0.17952845E+00 0.49607761E+03</pdfrwt>
<pdfrwt beam="2">  1       -2 0.81110906E-02 0.49607761E+03</pdfrwt>
<totfact> 0.19275600E+03</totfact>
</mgrwt>
</event>
<event>
 4    0  0.1264838E-002  0.7373978E+03  0.7546771E-02  0.9655331E-01
          1   -1    0    0  502    0  0.00000000000E+00  0.00000000000E+00  0.18084900414E+03  0.18084900414E+03  0.00000000000E+00 0.  1.
         -1   -1    0    0    0  501 -0.00000000000E+00 -0.00000000000E+00 -0.75167069063E+03  0.75167069063E+03  0.00000000000E+00 0. -1.
         25    1    1    2    0    0  0.98113927536E+02  0.34351810786E+03 -0.32478450384E+03  0.49873941807E+03  0.12500000000E+03 0.  0.
         21    1    1    2  502  501 -0.98113927536E+02 -0.34351810786E+03 -0.24603718265E+03  0.43378027669E+03  0.00000000000E+00 0.  1.
<mgrwt>
<rscale>  3 0.73739785E+03</rscale>
<asrwt>0</asrwt>
<pdfrwt beam="1">  1        1 0.27822923E-01 0.73739785E+03</pdfrwt>
<pdfrwt beam="2">  1       -1 0.11564165E+00 0.73739785E+03</pdfrwt>
<totfact> 0.11670888E+02</totfact>
</mgrwt>
</event>
<event>
 4    0  0.1264838E-002  0.8548561E+03  0.7546771E-02  0.9483842E-01
          2   -1    0    0  502    0  0.00000000000E+00  0.00000000000E+00  0.42001840882E+03  0.42001840882E+03  0.00000000000E+00 0. -1.
         -2   -1    0    0    0  501 -0.00000000000E+00 -0.00000000000E+00 -0.43496839626E+03  0.43496839626E+03  0.00000000000E+00 0.  1.
         25    1    1    2    0    0  0.37206039353E+03 -0.27500537694E+02 -0.19682118592E+03  0.43994180891E+03  0.12500000000E+03 0.  0.
         21    1    1    2  502  501 -0.37206039353E+03  0.27500537694E+02  0.18187119848E+03  0.41504499617E+03  0.00000000000E+00 0. -1.
<mgrwt>
<rscale>  3 0.85485609E+03</rscale>
<asrwt>0</asrwt>
<pdfrwt beam="1">  1        2 0.64618217E-01 0.85485609E+03</pdfrwt>
<pdfrwt beam="2">  1       -2 0.66918215E-01 0.85485609E+03</pdfrwt>
<totfact> 0.15516776E+02</totfact>
</mgrwt>
</event>
<event>
 4    0  0.1264838E-002  0.4792385E+03  0.7546771E-02  0.1019345E+00
          1   -1    0    0  502    0  0.00000000000E+00  0.00000000000E+00  0.34485950078E+03  0.34485950078E+03  0.00000000000E+00 0.  1.
         -1   -1    0    0    0  501 -0.00000000000E+00 -0.00000000000E+00 -0.16649503886E+03  0.16649503886E+03  0.00000000000E+00 0. -1.
         25    1    1    2    0    0  0.14558364473E+03  0.16778255135E+03  0.70799612785E+02  0.26454331842E+03  0.12500000000E+03 0.  0.
         21    1    1    2  502  501 -0.14558364473E+03 -0.16778255135E+03  0.10756484914E+03  0.24681122122E+03  0.00000000000E+00 0. -1.
<mgrwt>
<rscale>  3 0.47923855E+03</rscale>
<asrwt>0</asrwt>
<pdfrwt beam="1">  1        1 0.53055308E-01 0.47923855E+03</pdfrwt>
<pdfrwt beam="2">  1       -1 0.25614621E-01 0.47923855E+03</pdfrwt>
<totfact> 0.98343146E+02</totfact>
</mgrwt>
</event>
<event>
 4    0  0.1264838E-002  0.6065719E+03  0.7546771E-02  0.9891865E-01
          1   -1    0    0  502    0  0.00000000000E+00  0.00000000000E+00  0.67939223252E+03  0.67939223252E+03  0.00000000000E+00 0. -1.
         -1   -1    0    0    0  501 -0.00000000000E+00 -0.00000000000E+00 -0.13538918782E+03  0.13538918782E+03  0.00000000000E+00 0.  1.
         25    1    1    2    0    0  0.34368040161E+02 -0.28613969411E+03  0.33158542220E+03  0.45676140264E+03  0.12500000000E+03 0.  0.
         21    1    1    2  502  501 -0.34368040161E+02  0.28613969411E+03  0.21241762249E+03  0.35802001770E+03  0.00000000000E+00 0.  1.
<mgrwt>
<rscale>  3 0.60657188E+03</rscale>
<asrwt>0</asrwt>
<pdfrwt beam="1">  1        1 0.10452188E+00 0.60657188E+03</pdfrwt>
<pdfrwt beam="2">  1       -1 0.20829106E-01 0.60657188E+03</pdfrwt>
<totfact> 0.55007594E+02</totfact>
</mgrwt>
</event>
<event>
 4    0  0.1264838E-002  0.5966448E+03  0.7546771E-02  0.9912392E-01
         -3   -1    0    0    0  501 -0.00000000000E+00  0.00000000000E+00  0.40112432312E+03  0.40112432312E+03  0.00000000000E+00 0. -1.
          3   -1    0    0  502    0  0.00000000000E+00 -0.00000000000E+00 -0.22186700796E+03  0.22186700796E+03  0.00000000000E+00 0.  1.
         25    1    1    2    0    0 -0.83004516145E+02  0.22755333160E+03 -0.63703376524E+02  0.27991675299E+03  0.12500000000E+03 0.  0.
         21    1    1    2  502  501  0.83004516145E+02 -0.22755333160E+03  0.24296069169E+03  0.34307457809E+03  0.00000000000E+00 0. -1.
<mgrwt>
<rscale>  3 0.59664480E+03</rscale>
<asrwt>0</asrwt>
<pdfrwt beam="1">  1        3 0.34133386E-01 0.59664480E+03</pdfrwt>
<pdfrwt beam="2">  1       -3 0.61711434E-01 0.59664480E+03</pdfrwt>
<totfact> 0.56913828E+01</totfact>
</mgrwt>
</event>
<event>
 4    0  0.1264838E-002  0.4978798E+03  0.7546771E-02  0.1014334E+00
         -2   -1    0    0    0  501 -0.00000000000E+00  0.00000000000E+00  0.21881609242E+02  0.21881609242E+02  0.00000000000E+00 0.  1.
          2   -1    0    0  502    0  0.00000000000E+00 -0.00000000000E+00 -0.28321073930E+04  0.28321073930E+04  0.00000000000E+00 0. -1.
         25    1    1    2    0    0 -0.19779148884E+03  0.12264118618E+03 -0.14044242045E+04  0.14290537708E+04  0.12500000000E+03 0.  0.
         21    1    1    2  502  501  0.19779148884E+03 -0.12264118618E+03 -0.14058015793E+04  0.14249352315E+04  0.00000000000E+00 0. -1.
<mgrwt>
<rscale>  3 0.49787977E+03</rscale>
<asrwt>0</asrwt>
<pdfrwt beam="1">  1        2 0.43570886E+00 0.49787977E+03</pdfrwt>
<pdfrwt beam="2">  1       -2 0.33664012E-02 0.49787977E+03</pdfrwt>
<totfact> 0.90201123E+02</totfact>
</mgrwt>
</event>
<event>
 4    0  0.1264838E-002  0.4935445E+03  0.7546771E-02  0.1015478E+00
          2   -1    0    0  502    0  0.00000000000E+00  0.00000000000E+00  0.94952095739E+03  0.94952095739E+03  0.00000000000E+00 0.  1.
         -2   -1    0    0    0  501 -0.00000000000E+00 -0.00000000000E+00 -0.64133971399E+02  0.64133971399E+02  0.00000000000E+00 0. -1.
         25    1    1    2    0    0  0.12369408191E+03  0.19495741233E+03  0.46061777552E+03  0.53019086530E+03  0.12500000000E+03 0.  0.
         21    1    1    2  502  501 -0.12369408191E+03 -0.19495741233E+03  0.42476921048E+03  0.48346406350E+03  0.00000000000E+00 0. -1.
<mgrwt>
<rscale>  3 0.49354453E+03</rscale>
<asrwt>0</asrwt>
<pdfrwt beam="1">  1        2 0.14608014E+00 0.49354453E+03</pdfrwt>
<pdfrwt beam="2">  1       -2 0.98667655E-02 0.49354453E+03</pdfrwt>
<totfact> 0.19154558E+03</totfact>
</mgrwt>
</event>
<event>
 4    0  0.1264838E-002  0.5525734E+03  0.7546771E-02  0.1000900E+00
          2   -1    0    0  502    0  0.00000000000E+00  0.00000000000E+00  0.14343786641E+03  0.14343786641E+03  0.00000000000E+00 0.  1.
         -2   -1    0    0    0  501 -0.00000000000E+00 -0.00000000000E+00 -0.53217707488E+03  0.53217707488E+03  0.00000000000E+00 0. -1.
         25    1    1    2    0    0 -0.19225012447E+03  0.13378773471E+03 -0.60360127623E+02  0.27226386710E+03  0.12500000000E+03 0.  0.
         21    1    1    2  502  501  0.19225012447E+03 -0.13378773471E+03 -0.32837908084E+03  0.40335107419E+03  0.00000000000E+00 0. -1.
<mgrwt>
<rscale>  3 0.55257341E+03</rscale>
<asrwt>0</asrwt>
<pdfrwt beam="1">  1        2 0.22067364E-01 0.55257341E+03</pdfrwt>
<pdfrwt beam="2">  1       -2 0.81873396E-01 0.55257341E+03</pdfrwt>
<totfact> 0.33581746E+02</totfact>
</mgrwt>
</event>
<event>
 4    0  0.1264838E-002  0.8561123E+03  0.7546771E-02  0.9482170E-01
          1   -1    0    0  502    0  0.00000000000E+00  0.00000000000E+00  0.17333829595E+04  0.17333829595E+04  0.00000000000E+00 0.  1.
         -1   -1    0    0    0  501 -0.00000000000E+00 -0.00000000000E+00 -0.10570778524E+03  0.10570778524E+03  0.00000000000E+00 0. -1.
         25    1    1    2    0    0 -0.25913951181E+03 -0.79539342660E+01  0.15380893899E+04  0.15647876926E+04  0.12500000000E+03 0.  0.
         21    1    1    2  502  501  0.25913951181E+03  0.79539342660E+01  0.89585784385E+02  0.27430305215E+03  0.00000000000E+00 0. -1.
<mgrwt>
<rscale>  3 0.85611231E+03</rscale>
<asrwt>0</asrwt>
<pdfrwt beam="1">  1        1 0.26667428E+00 0.85611231E+03</pdfrwt>
<pdfrwt beam="2">  1       -1 0.16262738E-01 0.85611231E+03</pdfrwt>
<totfact> 0.13231502E+02</totfact>
</mgrwt>
</event>
<event>
 4    0  0.1264838E-002  0.4563417E+03  0.7546771E-02  0.1025848E+00
          2   -1    0    0  502    0  0.00000000000E+00  0.00000000000E+00  0.32142596301E+03  0.32142596301E+03  0.00000000000E+00 0.  1.
         -2   -1    0    0    0  501 -0.00000000000E+00 -0.00000000000E+00 -0.16197178814E+03  0.16197178814E+03  0.00000000000E+00 0. -1.
         25    1    1    2    0    0  0.18581925620E+03  0.94744621430E+02  0.11982390375E+03  0.27108689967E+03  0.12500000000E+03 0.  0.
         21    1    1    2  502  501 -0.18581925620E+03 -0.94744621430E+02  0.39630271115E+02  0.21231085147E+03  0.00000000000E+00 0. -1.
<mgrwt>
<rscale>  3 0.45634171E+03</rscale>
<asrwt>0</asrwt>
<pdfrwt beam="1">  1        2 0.49450148E-01 0.45634171E+03</pdfrwt>
<pdfrwt beam="2">  1       -2 0.24918737E-01 0.45634171E+03</pdfrwt>
<totfact> 0.14600417E+03</totfact>
</mgrwt>
</event>
<event>
 4    0  0.1264838E-002  0.5064464E+03  0.7546771E-02  0.1012110E+00
          1   -1    0    0  502    0  0.00000000000E+00  0.00000000000E+00  0.27752410872E+03  0.27752410872E+03  0.00000000000E+00 0.  1.
         -1   -1    0    0    0  501 -0.00000000000E+00 -0.00000000000E+00 -0.23105016819E+03  0.23105016819E+03  0.00000000000E+00 0. -1.
         25    1    1    2    0    0  0.22314243467E+03 -0.54260531189E+02  0.86642823020E+02  0.27544278930E+03  0.12500000000E+03 0.  0.
         21    1    1    2  502  501 -0.22314243467E+03  0.54260531189E+02 -0.40168882491E+02  0.23313148761E+03  0.00000000000E+00 0.  1.
<mgrwt>
<rscale>  3 0.50644641E+03</rscale>
<asrwt>0</asrwt>
<pdfrwt beam="1">  1        1 0.42696017E-01 0.50644641E+03</pdfrwt>
<pdfrwt beam="2">  1       -1 0.35546180E-01 0.50644641E+03</pdfrwt>
<totfact> 0.73731707E+02</totfact>
</mgrwt>
</event>
<event>
 4    0  0.1264838E-002  0.7967693E+03  0.7546771E-02  0.9564705E-01
          1   -1    0    0  502    0  0.00000000000E+00  0.00000000000E+00  0.25842099881E+03  0.25842099881E+03  0.00000000000E+00 0. -1.
         -1   -1    0    0    0  501 -0.00000000000E+00 -0.00000000000E+00 -0.61415415323E+03  0.61415415323E+03  0.00000000000E+00 0.  1.
         25    1    1    2    0    0  0.34219898691E+02  0.33624852142E+03  0.27725775670E+02  0.36142466471E+03  0.12500000000E+03 0.  0.
         21    1    1    2  502  501 -0.34219898691E+02 -0.33624852142E+03 -0.38345893009E+03  0.51115048732E+03  0.00000000000E+00 0.  1.
<mgrwt>
<rscale>  3 0.79676930E+03</rscale>
<asrwt>0</asrwt>
<pdfrwt beam="1">  1        1 0.39757077E-01 0.79676930E+03</pdfrwt>
<pdfrwt beam="2">  1       -1 0.94485255E-01 0.79676930E+03</pdfrwt>
<totfact> 0.11692008E+02</totfact>
</mgrwt>
</event>
<event>
 4    0  0.1264838E-002  0.4912775E+03  0.7546771E-02  0.1016081E+00
          2   -1    0    0  502    0  0.00000000000E+00  0.00000000000E+00  0.30318966065E+03  0.30318966065E+03  0.00000000000E+00 0.  1.
         -2   -1    0    0    0  501 -0.00000000000E+00 -0.00000000000E+00 -0.19901208181E+03  0.19901208181E+03  0.00000000000E+00 0. -1.
         25    1    1    2    0    0  0.21802173101E+03  0.10422012933E+02 -0.17803493447E+02  0.25215879506E+03  0.12500000000E+03 0.  0.
         21    1    1    2  502  501 -0.21802173101E+03 -0.10422012933E+02  0.12198107229E+03  0.25004294740E+03  0.00000000000E+00 0.  1.
<mgrwt>
<rscale>  3 0.49127754E+03</rscale>
<asrwt>0</asrwt>
<pdfrwt beam="1">  1        2 0.46644563E-01 0.49127754E+03</pdfrwt>
<pdfrwt beam="2">  1       -2 0.30617243E-01 0.49127754E+03</pdfrwt>
<totfact> 0.10714156E+03</totfact>
</mgrwt>
</event>
<event>
 4    0  0.1264838E-002  0.6248866E+03  0.7546771E-02  0.9855078E-01
         -1   -1    0    0    0  501 -0.00000000000E+00  0.00000000000E+00  0.34422200236E+03  0.34422200236E+03  0.00000000000E+00 0.  1.
          1   -1    0    0  502    0  0.00000000000E+00 -0.00000000000E+00 -0.28359838262E+03  0.28359838262E+03  0.00000000000E+00 0. -1.
         25    1    1    2    0    0  0.20031506880E+03  0.22315185118E+03  0.38015269282E+02  0.32709789998E+03  0.12500000000E+03 0.  0.
         21    1    1    2  502  501 -0.20031506880E+03 -0.22315185118E+03  0.22608350460E+02  0.30072248500E+03  0.00000000000E+00 0. -1.
<mgrwt>
<rscale>  3 0.62488656E+03</rscale>
<asrwt>0</asrwt>
<pdfrwt beam="1">  1        1 0.43630521E-01 0.62488656E+03</pdfrwt>
<pdfrwt beam="2">  1       -1 0.52957231E-01 0.62488656E+03</pdfrwt>
<totfact> 0.34386496E+02</totfact>
</mgrwt>
</event>
<event>
 4    0  0.1264838E-002  0.4527948E+03  0.7546771E-02  0.1026892E+00
         -4   -1    0    0    0  501 -0.00000000000E+00  0.00000000000E+00  0.12437506707E+03  0.12437506707E+03  0.00000000000E+00 0.  1.
          4   -1    0    0  502    0  0.00000000000E+00 -0.00000000000E+00 -0.41210663341E+03  0.41210663341E+03  0.00000000000E+00 0. -1.
         25    1    1    2    0    0 -0.15234782323E+03  0.14061375264E+03 -0.18746964200E+03  0.30618940763E+03  0.12500000000E+03 0.  0.
         21    1    1    2  502  501  0.15234782323E+03 -0.14061375264E+03 -0.10026192435E+03  0.23029229285E+03  0.00000000000E+00 0. -1.
<mgrwt>
<rscale>  3 0.45279483E+03</rscale>
<asrwt>0</asrwt>
<pdfrwt beam="1">  1        4 0.63401020E-01 0.45279483E+03</pdfrwt>
<pdfrwt beam="2">  1       -4 0.19134626E-01 0.45279483E+03</pdfrwt>
<totfact> 0.11253228E+02</totfact>
</mgrwt>
</event>
<event>
 4    0  0.1264838E-002  0.4619450E+03  0.7546771E-02  0.1024219E+00
          2   -1    0    0  502    0  0.00000000000E+00  0.00000000000E+00  0.33202384106E+04  0.33202384106E+04  0.00000000000E+00 0. -1.
         -2   -1    0    0    0  501 -0.00000000000E+00 -0.00000000000E+00 -0.16067606555E+02  0.16067606555E+02  0.00000000000E+00 0.  1.
         25    1    1    2    0    0 -0.13040865544E+03 -0.16922238781E+03  0.16763794427E+04  0.16945547114E+04  0.12500000000E+03 0.  0.
         21    1    1    2  502  501  0.13040865544E+03  0.16922238781E+03  0.16277913613E+04  0.16417513057E+04  0.00000000000E+00 0. -1.
<mgrwt>
<rscale>  3 0.46194495E+03</rscale>
<asrwt>0</asrwt>
<pdfrwt beam="1">  1        2 0.51080536E+00 0.46194495E+03</pdfrwt>
<pdfrwt beam="2">  1       -2 0.24719421E-02 0.46194495E+03</pdfrwt>
<totfact> 0.72469671E+02</totfact>
</mgrwt>
</event>
<event>
 4    0  0.1264838E-002  0.4705054E+03  0.7546771E-02  0.1021778E+00
         -2   -1    0    0    0  501 -0.00000000000E+00  0.00000000000E+00  0.34390934592E+02  0.34390934592E+02  0.00000000000E+00 0. -1.
          2   -1    0    0  502    0  0.00000000000E+00 -0.00000000000E+00 -0.16092563574E+04  0.16092563574E+04  0.00000000000E+00 0.  1.
         25    1    1    2    0    0 -0.19846787068E+03  0.89354111462E+02 -0.91573551874E+03  0.94951050190E+03  0.12500000000E+03 0.  0.
         21    1    1    2  502  501  0.19846787068E+03 -0.89354111462E+02 -0.65912990407E+03  0.69413679010E+03  0.00000000000E+00 0.  1.
<mgrwt>
<rscale>  3 0.47050539E+03</rscale>
<asrwt>0</asrwt>
<pdfrwt beam="1">  1        2 0.24757789E+00 0.47050539E+03</pdfrwt>
<pdfrwt beam="2">  1       -2 0.52909132E-02 0.47050539E+03</pdfrwt>
<totfact> 0.21300444E+03</totfact>
</mgrwt>
</event>
<event>
 4    0  0.1264838E-002  0.4522109E+03  0.7546771E-02  0.1027065E+00
          2   -1    0    0  502    0  0.00000000000E+00  0.00000000000E+00  0.52591397696E+02  0.52591397696E+02  0.00000000000E+00 0.  1.
         -2   -1    0    0    0  501 -0.00000000000E+00 -0.00000000000E+00 -0.97209180165E+03  0.97209180165E+03  0.00000000000E+00 0. -1.
         25    1    1    2    0    0 -0.20169321379E+02  0.20735417331E+03 -0.52748624880E+03  0.58074891079E+03  0.12500000000E+03 0.  0.
         21    1    1    2  502  501  0.20169321379E+02 -0.20735417331E+03 -0.39201415515E+03  0.44393428855E+03  0.00000000000E+00 0. -1.
<mgrwt>
<rscale>  3 0.45221086E+03</rscale>
<asrwt>0</asrwt>
<pdfrwt beam="1">  1        2 0.80909846E-02 0.45221086E+03</pdfrwt>
<pdfrwt beam="2">  1       -2 0.14955258E+00 0.45221086E+03</pdfrwt>
<totfact> 0.26807689E+02</totfact>
</mgrwt>
</event>
<event>
 4    0  0.1264838E-002  0.5206473E+03  0.7546771E-02  0.1008526E+00
          1   -1    0    0  502    0  0.00000000000E+00  0.00000000000E+00  0.12000243052E+03  0.12000243052E+03  0.00000000000E+00 0. -1.
         -1   -1    0    0    0  501 -0.00000000000E+00 -0.00000000000E+00 -0.56472515543E+03  0.56472515543E+03  0.00000000000E+00 0.  1.
         25    1    1    2    0    0 -0.23059774962E+03  0.37405443573E+02 -0.33365276161E+03  0.42605592904E+03  0.12500000000E+03 0.  0.
         21    1    1    2  502  501  0.23059774962E+03 -0.37405443573E+02 -0.11106996330E+03  0.25867165690E+03  0.00000000000E+00 0. -1.
<mgrwt>
<rscale>  3 0.52064726E+03</rscale>
<asrwt>0</asrwt>
<pdfrwt beam="1">  1        1 0.18461912E-01 0.52064726E+03</pdfrwt>
<pdfrwt beam="2">  1       -1 0.86880793E-01 0.52064726E+03</pdfrwt>
<totfact> 0.38679044E+02</totfact>
</mgrwt>
</event>
<event>
 4    0  0.1264838E-002  0.4864570E+03  0.7546771E-02  0.1017376E+00
         -2   -1    0    0    0  501 -0.00000000000E+00  0.00000000000E+00  0.30148538000E+03  0.30148538000E+03  0.00000000000E+00 0.  1.
          2   -1    0    0  502    0  0.00000000000E+00 -0.00000000000E+00 -0.19622876241E+03  0.19622876241E+03  0.00000000000E+00 0. -1.
         25    1    1    2    0    0 -0.19898037289E+03 -0.62412721366E+02 -0.36075946088E+02  0.24579465102E+03  0.12500000000E+03 0.  0.
         21    1    1    2  502  501  0.19898037289E+03  0.62412721366E+02  0.14133256367E+03  0.25191949139E+03  0.00000000000E+00 0.  1.
<mgrwt>
<rscale>  3 0.48645700E+03</rscale>
<asrwt>0</asrwt>
<pdfrwt beam="1">  1        2 0.30189040E-01 0.48645700E+03</pdfrwt>
<pdfrwt beam="2">  1       -2 0.46382366E-01 0.48645700E+03</pdfrwt>
<totfact> 0.78202643E+02</totfact>
</mgrwt>
</event>
<event>
 4    0  0.1264838E-002  0.6222243E+03  0.7546771E-02  0.9860341E-01
         -2   -1    0    0    0  501 -0.00000000000E+00  0.00000000000E+00  0.41363340222E+03  0.41363340222E+03  0.00000000000E+00 0. -1.
          2   -1    0    0  502    0  0.00000000000E+00 -0.00000000000E+00 -0.23400131133E+03  0.23400131133E+03  0.00000000000E+00 0.  1.
         25    1    1    2    0    0  0.12998352228E+03  0.22808527699E+03  0.24143501794E+03  0.37793448842E+03  0.12500000000E+03 0.  0.
         21    1    1    2  502  501 -0.12998352228E+03 -0.22808527699E+03 -0.61802927051E+02  0.26970022513E+03  0.00000000000E+00 0.  1.
<mgrwt>
<rscale>  3 0.62222426E+03</rscale>
<asrwt>0</asrwt>
<pdfrwt beam="1">  1        2 0.36000202E-01 0.62222426E+03</pdfrwt>
<pdfrwt beam="2">  1       -2 0.63635908E-01 0.62222426E+03</pdfrwt>
<totfact> 0.33447791E+02</totfact>
</mgrwt>
</event>
<event>
 4    0  0.1264838E-002  0.5389157E+03  0.7546771E-02  0.1004093E+00
         -2   -1    0    0    0  501 -0.00000000000E+00  0.00000000000E+00  0.19211306118E+02  0.19211306118E+02  0.00000000000E+00 0. -1.
          2   -1    0    0  502    0  0.00000000000E+00 -0.00000000000E+00 -0.37794163581E+04  0.37794163581E+04  0.00000000000E+00 0.  1.
         25    1    1    2    0    0 -0.24818199795E+03  0.14357692727E+02 -0.15822246368E+04  0.16065056019E+04  0.12500000000E+03 0.  0.
         21    1    1    2  502  501  0.24818199795E+03 -0.14357692727E+02 -0.21779804151E+04  0.21921220623E+04  0.00000000000E+00 0.  1.
<mgrwt>
<rscale>  3 0.53891567E+03</rscale>
<asrwt>0</asrwt>
<pdfrwt beam="1">  1        2 0.58144856E+00 0.53891567E+03</pdfrwt>
<pdfrwt beam="2">  1       -2 0.29555861E-02 0.53891567E+03</pdfrwt>
<totfact> 0.26526901E+02</totfact>
</mgrwt>
</event>
<event>
 4    0  0.1264838E-002  0.5876928E+03  0.7546771E-02  0.9931274E-01
         -1   -1    0    0    0  501 -0.00000000000E+00  0.00000000000E+00  0.63846918133E+03  0.63846918133E+03  0.00000000000E+00 0.  1.
          1   -1    0    0  502    0  0.00000000000E+00 -0.00000000000E+00 -0.13523865958E+03  0.13523865958E+03  0.00000000000E+00 0. -1.
         25    1    1    2    0    0  0.30868573161E+02 -0.27750678401E+03  0.22701491805E+03  0.38095099028E+03  0.12500000000E+03 0.  0.
         21    1    1    2  502  501 -0.30868573161E+02  0.27750678401E+03  0.27621560370E+03  0.39275685062E+03  0.00000000000E+00 0. -1.
<mgrwt>
<rscale>  3 0.58769283E+03</rscale>
<asrwt>0</asrwt>
<pdfrwt beam="1">  1        1 0.20805948E-01 0.58769283E+03</pdfrwt>
<pdfrwt beam="2">  1       -1 0.98226026E-01 0.58769283E+03</pdfrwt>
<totfact> 0.25143692E+02</totfact>
</mgrwt>
</event>
<event>
 4    0  0.1264838E-002  0.5545209E+03  0.7546771E-02  0.1000453E+00
          2   -1    0    0  502    0  0.00000000000E+00  0.00000000000E+00  0.18298940633E+03  0.18298940633E+03  0.00000000000E+00 0. -1.
         -2   -1    0    0    0  501 -0.00000000000E+00 -0.00000000000E+00 -0.42009733529E+03  0.42009733529E+03  0.00000000000E+00 0.  1.
         25    1    1    2    0    0  0.16242178416E+03 -0.20702614120E+03 -0.12928068341E+03  0.31871484780E+03  0.12500000000E+03 0.  0.
         21    1    1    2  502  501 -0.16242178416E+03  0.20702614120E+03 -0.10782724556E+03  0.28437189382E+03  0.00000000000E+00 0. -1.
<mgrwt>
<rscale>  3 0.55452092E+03</rscale>
<asrwt>0</asrwt>
<pdfrwt beam="1">  1        2 0.28152217E-01 0.55452092E+03</pdfrwt>
<pdfrwt beam="2">  1       -2 0.64630358E-01 0.55452092E+03</pdfrwt>
<totfact> 0.42677234E+02</totfact>
</mgrwt>
</event>
<event>
 4    0  0.1264838E-002  0.5354291E+03  0.7546771E-02  0.1004924E+00
          1   -1    0    0  502    0  0.00000000000E+00  0.00000000000E+00  0.17584288811E+04  0.17584288811E+04  0.00000000000E+00 0.  1.
         -1   -1    0    0    0  501 -0.00000000000E+00 -0.00000000000E+00 -0.40758585386E+02  0.40758585386E+02  0.00000000000E+00 0. -1.
         25    1    1    2    0    0  0.57513922815E+02 -0.23493325553E+03  0.65485875415E+03  0.70920129284E+03  0.12500000000E+03 0.  0.
         21    1    1    2  502  501 -0.57513922815E+02  0.23493325553E+03  0.10628115416E+04  0.10899861737E+04  0.00000000000E+00 0. -1.
<mgrwt>
<rscale>  3 0.53542908E+03</rscale>
<asrwt>0</asrwt>
<pdfrwt beam="1">  1        1 0.27052746E+00 0.53542908E+03</pdfrwt>
<pdfrwt beam="2">  1       -1 0.62705530E-02 0.53542908E+03</pdfrwt>
<totfact> 0.59081783E+02</totfact>
</mgrwt>
</event>
<event>
 4    0  0.1264838E-002  0.8574403E+03  0.7546771E-02  0.9480405E-01
          2   -1    0    0  502    0  0.00000000000E+00  0.00000000000E+00  0.80539226446E+03  0.80539226446E+03  0.00000000000E+00 0. -1.
         -2   -1    0    0    0  501 -0.00000000000E+00 -0.00000000000E+00 -0.22821298321E+03  0.22821298321E+03  0.00000000000E+00 0.  1.
         25    1    1    2    0    0  0.13865687270E+03  0.30213271306E+03  0.60337949618E+03  0.70014407165E+03  0.12500000000E+03 0.  0.
         21    1    1    2  502  501 -0.13865687270E+03 -0.30213271306E+03 -0.26200214931E+02  0.33346117602E+03  0.00000000000E+00 0. -1.
<mgrwt>
<rscale>  3 0.85744031E+03</rscale>
<asrwt>0</asrwt>
<pdfrwt beam="1">  1        2 0.12390650E+00 0.85744031E+03</pdfrwt>
<pdfrwt beam="2">  1       -2 0.35109690E-01 0.85744031E+03</pdfrwt>
<totfact> 0.26082179E+02</totfact>
</mgrwt>
</event>
<event>
 4    0  0.1264838E-002  0.6750158E+03  0.7546771E-02  0.9760939E-01
         -4   -1    0    0    0  501 -0.00000000000E+00  0.00000000000E+00  0.16728610862E+03  0.16728610862E+03  0.00000000000E+00 0. -1.
          4   -1    0    0  502    0  0.00000000000E+00 -0.00000000000E+00 -0.68093871038E+03  0.68093871038E+03  0.00000000000E+00 0.  1.
         25    1    1    2    0    0 -0.30730562199E+02  0.22147001199E+03 -0.56363494362E+03  0.61911443477E+03  0.12500000000E+03 0.  0.
         21    1    1    2  502  501  0.30730562199E+02 -0.22147001199E+03  0.49982341867E+02  0.22911038423E+03  0.00000000000E+00 0. -1.
<mgrwt>
<rscale>  3 0.67501581E+03</rscale>
<asrwt>0</asrwt>
<pdfrwt beam="1">  1        4 0.10475980E+00 0.67501581E+03</pdfrwt>
<pdfrwt beam="2">  1       -4 0.25736324E-01 0.67501581E+03</pdfrwt>
<totfact> 0.21133288E+01</totfact>
</mgrwt>
</event>
<event>
 4    0  0.1264838E-002  0.4630080E+03  0.7546771E-02  0.1023912E+00
         -1   -1    0    0    0  501 -0.00000000000E+00  0.00000000000E+00  0.14353050749E+03  0.14353050749E+03  0.00000000000E+00 0.  1.
          1   -1    0    0  502    0  0.00000000000E+00 -0.00000000000E+00 -0.37339864027E+03  0.37339864027E+03  0.00000000000E+00 0. -1.
         25    1    1    2    0    0  0.40101050625E+01 -0.20850748044E+03 -0.66658635509E+02  0.25211073763E+03  0.12500000000E+03 0.  0.
         21    1    1    2  502  501 -0.40101050625E+01  0.20850748044E+03 -0.16320949728E+03  0.26481841013E+03  0.00000000000E+00 0. -1.
<mgrwt>
<rscale>  3 0.46300798E+03</rscale>
<asrwt>0</asrwt>
<pdfrwt beam="1">  1        1 0.57445945E-01 0.46300798E+03</pdfrwt>
<pdfrwt beam="2">  1       -1 0.22081616E-01 0.46300798E+03</pdfrwt>
<totfact> 0.11383488E+03</totfact>
</mgrwt>
</event>
<event>
 4    0  0.1264838E-002  0.5197189E+03  0.7546771E-02  0.1008756E+00
          2   -1    0    0  502    0  0.00000000000E+00  0.00000000000E+00  0.21826640499E+03  0.21826640499E+03  0.00000000000E+00 0.  1.
         -2   -1    0    0    0  501 -0.00000000000E+00 -0.00000000000E+00 -0.30937852658E+03  0.30937852658E+03  0.00000000000E+00 0. -1.
         25    1    1    2    0    0  0.15506849154E+02 -0.23425173718E+03  0.22337993285E+02  0.26690508554E+03  0.12500000000E+03 0.  0.
         21    1    1    2  502  501 -0.15506849154E+02  0.23425173718E+03 -0.11345011487E+03  0.26073984603E+03  0.00000000000E+00 0. -1.
<mgrwt>
<rscale>  3 0.51971892E+03</rscale>
<asrwt>0</asrwt>
<pdfrwt beam="1">  1        2 0.33579447E-01 0.51971892E+03</pdfrwt>
<pdfrwt beam="2">  1       -2 0.47596696E-01 0.51971892E+03</pdfrwt>
<totfact> 0.65951300E+02</totfact>
</mgrwt>
</event>
<event>
 4    0  0.1264838E-002  0.4990061E+03  0.7546771E-02  0.1014039E+00
         -2   -1    0    0    0  501 -0.00000000000E+00  0.00000000000E+00  0.30204207780E+02  0.30204207780E+02  0.00000000000E+00 0.  1.
          2   -1    0    0  502    0  0.00000000000E+00 -0.00000000000E+00 -0.20610294849E+04  0.20610294849E+04  0.00000000000E+00 0. -1.
         25    1    1    2    0    0 -0.17992884822E+03  0.14710460236E+03 -0.97063486453E+03  0.10058683784E+04  0.12500000000E+03 0.  0.
         21    1    1    2  502  501  0.17992884822E+03 -0.14710460236E+03 -0.10601904126E+04  0.10853653143E+04  0.00000000000E+00 0. -1.
<mgrwt>
<rscale>  3 0.49900606E+03</rscale>
<asrwt>0</asrwt>
<pdfrwt beam="1">  1        2 0.31708150E+00 0.49900606E+03</pdfrwt>
<pdfrwt beam="2">  1       -2 0.46468005E-02 0.49900606E+03</pdfrwt>
<totfact> 0.14851387E+03</totfact>
</mgrwt>
</event>
<event>
 4    0  0.1264838E-002  0.6997295E+03  0.7546771E-02  0.9717695E-01
          2   -1    0    0  502    0  0.00000000000E+00  0.00000000000E+00  0.13341558638E+03  0.13341558638E+03  0.00000000000E+00 0. -1.
         -2   -1    0    0    0  501 -0.00000000000E+00 -0.00000000000E+00 -0.91747402210E+03  0.91747402210E+03  0.00000000000E+00 0.  1.
         25    1    1    2    0    0  0.59568763813E+02  0.26014565607E+03 -0.71775158627E+03  0.77589724809E+03  0.12500000000E+03 0.  0.
         21    1    1    2  502  501 -0.59568763813E+02 -0.26014565607E+03 -0.66306849444E+02  0.27499236040E+03  0.00000000000E+00 0. -1.
<mgrwt>
<rscale>  3 0.69972948E+03</rscale>
<asrwt>0</asrwt>
<pdfrwt beam="1">  1        2 0.20525474E-01 0.69972948E+03</pdfrwt>
<pdfrwt beam="2">  1       -2 0.14114985E+00 0.69972948E+03</pdfrwt>
<totfact> 0.98101597E+01</totfact>
</mgrwt>
</event>
<event>
 4    0  0.1264838E-002  0.5849727E+03  0.7546771E-02  0.9937083E-01
          1   -1    0    0  502    0  0.00000000000E+00  0.00000000000E+00  0.41125011091E+03  0.41125011091E+03  0.00000000000E+00 0. -1.
         -1   -1    0    0    0  501 -0.00000000000E+00 -0.00000000000E+00 -0.20802003497E+03  0.20802003497E+03  0.00000000000E+00 0.  1.
         25    1    1    2    0    0  0.86500397233E+02 -0.20099995735E+03  0.28970934196E+03  0.38397891139E+03  0.12500000000E+03 0.  0.
         21    1    1    2  502  501 -0.86500397233E+02  0.20099995735E+03 -0.86479266017E+02  0.23529123449E+03  0.00000000000E+00 0.  1.
<mgrwt>
<rscale>  3 0.58497269E+03</rscale>
<asrwt>0</asrwt>
<pdfrwt beam="1">  1        1 0.63269248E-01 0.58497269E+03</pdfrwt>
<pdfrwt beam="2">  1       -1 0.32003082E-01 0.58497269E+03</pdfrwt>
<totfact> 0.53169284E+02</totfact>
</mgrwt>
</event>
<event>
 4    0  0.1264838E-002  0.8378459E+03  0.7546771E-02  0.9506797E-01
         -2   -1    0    0    0  501 -0.00000000000E+00  0.00000000000E+00  0.75042779801E+02  0.75042779801E+02  0.00000000000E+00 0. -1.
          2   -1    0    0  502    0  0.00000000000E+00 -0.00000000000E+00 -0.23386186370E+04  0.23386186370E+04  0.00000000000E+00 0.  1.
         25    1    1    2    0    0  0.16272270432E+03  0.25909373428E+03 -0.37245816498E+03  0.49795414077E+03  0.12500000000E+03 0.  0.
         21    1    1    2  502  501 -0.16272270432E+03 -0.25909373428E+03 -0.18911176922E+04  0.19157072760E+04  0.00000000000E+00 0.  1.
<mgrwt>
<rscale>  3 0.83784591E+03</rscale>
<asrwt>0</asrwt>
<pdfrwt beam="1">  1        2 0.35978745E+00 0.83784591E+03</pdfrwt>
<pdfrwt beam="2">  1       -2 0.11545044E-01 0.83784591E+03</pdfrwt>
<totfact> 0.23962730E+02</totfact>
</mgrwt>
</event>
<event>
 4    0  0.1264838E-002  0.5278665E+03  0.7546771E-02  0.1006751E+00
          2   -1    0    0  502    0  0.00000000000E+00  0.00000000000E+00  0.36048775215E+03  0.36048775215E+03  0.00000000000E+00 0. -1.
         -2   -1    0    0    0  501 -0.00000000000E+00 -0.00000000000E+00 -0.19324029685E+03  0.19324029685E+03  0.00000000000E+00 0.  1.
         25    1    1    2    0    0  0.18659617949E+03  0.13122046334E+03 -0.16745421803E+02  0.26065754037E+03  0.12500000000E+03 0.  0.
         21    1    1    2  502  501 -0.18659617949E+03 -0.13122046334E+03  0.18399287711E+03  0.29307050863E+03  0.00000000000E+00 0. -1.
<mgrwt>
<rscale>  3 0.52786650E+03</rscale>
<asrwt>0</asrwt>
<pdfrwt beam="1">  1        2 0.55459654E-01 0.52786650E+03</pdfrwt>
<pdfrwt beam="2">  1       -2 0.29729276E-01 0.52786650E+03</pdfrwt>
<totfact> 0.93467307E+02</totfact>
</mgrwt>
</event>
<event>
 4    0  0.1264838E-002  0.4482239E+03  0.7546771E-02  0.1028253E+00
         -2   -1    0    0    0  501 -0.00000000000E+00  0.00000000000E+00  0.59628797980E+02  0.59628797980E+02  0.00000000000E+00 0. -1.
          2   -1    0    0  502    0  0.00000000000E+00 -0.00000000000E+00 -0.84231397198E+03  0.84231397198E+03  0.00000000000E+00 0.  1.
         25    1    1    2    0    0 -0.20216465629E+03  0.42969184221E+02 -0.42330069427E+03  0.48736575260E+03  0.12500000000E+03 0.  0.
         21    1    1    2  502  501  0.20216465629E+03 -0.42969184221E+02 -0.35938447973E+03  0.41457701735E+03  0.00000000000E+00 0.  1.
<mgrwt>
<rscale>  3 0.44822392E+03</rscale>
<asrwt>0</asrwt>
<pdfrwt beam="1">  1        2 0.12958676E+00 0.44822392E+03</pdfrwt>
<pdfrwt beam="2">  1       -2 0.91736617E-02 0.44822392E+03</pdfrwt>
<totfact> 0.25363210E+03</totfact>
</mgrwt>
</event>
<event>
 4    0  0.1264838E-002  0.5005617E+03  0.7546771E-02  0.1013632E+00
         -3   -1    0    0    0  501 -0.00000000000E+00  0.00000000000E+00  0.11154809454E+04  0.11154809454E+04  0.00000000000E+00 0.  1.
          3   -1    0    0  502    0  0.00000000000E+00 -0.00000000000E+00 -0.56155592545E+02  0.56155592545E+02  0.00000000000E+00 0. -1.
         25    1    1    2    0    0  0.15411788891E+03  0.16806851474E+03  0.69242900166E+03  0.73965010084E+03  0.12500000000E+03 0.  0.
         21    1    1    2  502  501 -0.15411788891E+03 -0.16806851474E+03  0.36689635121E+03  0.43198643712E+03  0.00000000000E+00 0. -1.
<mgrwt>
<rscale>  3 0.50056166E+03</rscale>
<asrwt>0</asrwt>
<pdfrwt beam="1">  1        3 0.86393227E-02 0.50056166E+03</pdfrwt>
<pdfrwt beam="2">  1       -3 0.17161244E+00 0.50056166E+03</pdfrwt>
<totfact> 0.58536995E+01</totfact>
</mgrwt>
</event>
<event>
 4    0  0.1264838E-002  0.4576953E+03  0.7546771E-02  0.1025452E+00
          1   -1    0    0  502    0  0.00000000000E+00  0.00000000000E+00  0.40818578822E+03  0.40818578822E+03  0.00000000000E+00 0.  1.
         -1   -1    0    0    0  501 -0.00000000000E+00 -0.00000000000E+00 -0.12830245246E+03  0.12830245246E+03  0.00000000000E+00 0. -1.
         25    1    1    2    0    0 -0.65509943404E+02  0.20100423874E+03  0.16501221657E+03  0.29588560001E+03  0.12500000000E+03 0.  0.
         21    1    1    2  502  501  0.65509943404E+02 -0.20100423874E+03  0.11487111919E+03  0.24060264067E+03  0.00000000000E+00 0. -1.
<mgrwt>
<rscale>  3 0.45769526E+03</rscale>
<asrwt>0</asrwt>
<pdfrwt beam="1">  1        1 0.62797813E-01 0.45769526E+03</pdfrwt>
<pdfrwt beam="2">  1       -1 0.19738839E-01 0.45769526E+03</pdfrwt>
<totfact> 0.12204125E+03</totfact>
</mgrwt>
</event>
<event>
 4    0  0.1264838E-002  0.8532919E+03  0.7546771E-02  0.9485929E-01
          2   -1    0    0  502    0  0.00000000000E+00  0.00000000000E+00  0.10941412743E+04  0.10941412743E+04  0.00000000000E+00 0.  1.
         -2   -1    0    0    0  501 -0.00000000000E+00 -0.00000000000E+00 -0.16636493821E+03  0.16636493821E+03  0.00000000000E+00 0. -1.
         25    1    1    2    0    0  0.16115897430E+03 -0.12723445294E+03  0.10108254663E+04  0.10390158537E+04  0.12500000000E+03 0.  0.
         21    1    1    2  502  501 -0.16115897430E+03  0.12723445294E+03 -0.83049130182E+02  0.22149035879E+03  0.00000000000E+00 0. -1.
<mgrwt>
<rscale>  3 0.85329185E+03</rscale>
<asrwt>0</asrwt>
<pdfrwt beam="1">  1        2 0.16832942E+00 0.85329185E+03</pdfrwt>
<pdfrwt beam="2">  1       -2 0.25594607E-01 0.85329185E+03</pdfrwt>
<totfact> 0.30273043E+02</totfact>
</mgrwt>
</event>
<event>
 4    0  0.1264838E-002  0.7749891E+03  0.7546771E-02  0.9596942E-01
         -2   -1    0    0    0  501 -0.00000000000E+00  0.00000000000E+00  0.88992007106E+02  0.88992007106E+02  0.00000000000E+00 0. -1.
          2   -1    0    0  502    0  0.00000000000E+00 -0.00000000000E+00 -0.16872527675E+04  0.16872527675E+04  0.00000000000E+00 0.  1.
         25    1    1    2    0    0 -0.34584201369E+03  0.14103540784E+03 -0.94426702848E+03  0.10231143171E+04  0.12500000000E+03 0.  0.
         21    1    1    2  502  501  0.34584201369E+03 -0.14103540784E+03 -0.65399373191E+03  0.75313045754E+03  0.00000000000E+00 0.  1.
<mgrwt>
<rscale>  3 0.77498906E+03</rscale>
<asrwt>0</asrwt>
<pdfrwt beam="1">  1        2 0.25957733E+00 0.77498906E+03</pdfrwt>
<pdfrwt beam="2">  1       -2 0.13691079E-01 0.77498906E+03</pdfrwt>
<totfact> 0.41329293E+02</totfact>
</mgrwt>
</event>
<event>
 4    0  0.1264838E-002  0.1070877E+04  0.7546771E-02  0.9234051E-01
         -1   -1    0    0    0  501 -0.00000000000E+00  0.00000000000E+00  0.40765789307E+03  0.40765789307E+03  0.00000000000E+00 0.  1.
          1   -1    0    0  502    0  0.00000000000E+00 -0.00000000000E+00 -0.70327203755E+03  0.70327203755E+03  0.00000000000E+00 0. -1.
         25    1    1    2    0    0 -0.16528698659E+03  0.11928774158E+03 -0.65526654866E+03  0.69753035992E+03  0.12500000000E+03 0.  0.
         21    1    1    2  502  501  0.16528698659E+03 -0.11928774158E+03  0.35965240418E+03  0.41339957070E+03  0.00000000000E+00 0.  1.
<mgrwt>
<rscale>  3 0.10708770E+04</rscale>
<asrwt>0</asrwt>
<pdfrwt beam="1">  1        1 0.10819570E+00 0.10708770E+04</pdfrwt>
<pdfrwt beam="2">  1       -1 0.62716599E-01 0.10708770E+04</pdfrwt>
<totfact> 0.69653887E+01</totfact>
</mgrwt>
</event>
<event>
 4    0  0.1264838E-002  0.4970106E+03  0.7546771E-02  0.1014562E+00
          1   -1    0    0  502    0  0.00000000000E+00  0.00000000000E+00  0.36999197171E+03  0.36999197171E+03  0.00000000000E+00 0. -1.
         -1   -1    0    0    0  501 -0.00000000000E+00 -0.00000000000E+00 -0.16690871267E+03  0.16690871267E+03  0.00000000000E+00 0.  1.
         25    1    1    2    0    0  0.80442420094E+02  0.20957368382E+03  0.17453310311E+03  0.31061055356E+03  0.12500000000E+03 0.  0.
         21    1    1    2  502  501 -0.80442420094E+02 -0.20957368382E+03  0.28550155921E+02  0.22629013082E+03  0.00000000000E+00 0.  1.
<mgrwt>
<rscale>  3 0.49701060E+03</rscale>
<asrwt>0</asrwt>
<pdfrwt beam="1">  1        1 0.56921842E-01 0.49701060E+03</pdfrwt>
<pdfrwt beam="2">  1       -1 0.25678263E-01 0.49701060E+03</pdfrwt>
<totfact> 0.89384256E+02</totfact>
</mgrwt>
</event>
<event>
 4    0  0.1415557E-002  0.8265857E+03  0.7546771E-02  0.9522313E-01
          2   -1    0    0  502    0  0.00000000000E+00  0.00000000000E+00  0.47410686605E+03  0.47410686605E+03  0.00000000000E+00 0.  1.
         -2   -1    0    0    0  501 -0.00000000000E+00 -0.00000000000E+00 -0.36027946903E+03  0.36027946903E+03  0.00000000000E+00 0. -1.
         25    1    1    2    0    0 -0.88248283059E+02 -0.18655860892E+03 -0.29218587601E+03  0.37893199939E+03  0.12500000000E+03 0.  0.
         21    1    1    2  502  501  0.88248283059E+02  0.18655860892E+03  0.40601327303E+03  0.45545433569E+03  0.00000000000E+00 0.  1.
<mgrwt>
<rscale>  3 0.82658568E+03</rscale>
<asrwt>0</asrwt>
<pdfrwt beam="1">  1        2 0.72939518E-01 0.82658568E+03</pdfrwt>
<pdfrwt beam="2">  1       -2 0.55427610E-01 0.82658568E+03</pdfrwt>
<totfact> 0.20168838E+02</totfact>
</mgrwt>
</event>
<event>
 4    0  0.1264838E-002  0.6006395E+03  0.7546771E-02  0.9904080E-01
          1   -1    0    0  502    0  0.00000000000E+00  0.00000000000E+00  0.11325618223E+03  0.11325618223E+03  0.00000000000E+00 0.  1.
         -1   -1    0    0    0  501 -0.00000000000E+00 -0.00000000000E+00 -0.79635351340E+03  0.79635351340E+03  0.00000000000E+00 0. -1.
         25    1    1    2    0    0 -0.16141675658E+03  0.12248315823E+03 -0.66481550938E+03  0.70616014817E+03  0.12500000000E+03 0.  0.
         21    1    1    2  502  501  0.16141675658E+03 -0.12248315823E+03 -0.18281821794E+02  0.20344954747E+03  0.00000000000E+00 0.  1.
<mgrwt>
<rscale>  3 0.60063952E+03</rscale>
<asrwt>0</asrwt>
<pdfrwt beam="1">  1        1 0.17424028E-01 0.60063952E+03</pdfrwt>
<pdfrwt beam="2">  1       -1 0.12251593E+00 0.60063952E+03</pdfrwt>
<totfact> 0.18919639E+02</totfact>
</mgrwt>
</event>
<event>
 4    0  0.1264838E-002  0.5602907E+03  0.7546771E-02  0.9991397E-01
         -2   -1    0    0    0  501 -0.00000000000E+00  0.00000000000E+00  0.47155708548E+03  0.47155708548E+03  0.00000000000E+00 0. -1.
          2   -1    0    0  502    0  0.00000000000E+00 -0.00000000000E+00 -0.16643036795E+03  0.16643036795E+03  0.00000000000E+00 0.  1.
         25    1    1    2    0    0 -0.33996256474E+02 -0.22518384368E+03  0.32024304671E+01  0.25980524334E+03  0.12500000000E+03 0.  0.
         21    1    1    2  502  501  0.33996256474E+02  0.22518384368E+03  0.30192428706E+03  0.37818221008E+03  0.00000000000E+00 0. -1.
<mgrwt>
<rscale>  3 0.56029071E+03</rscale>
<asrwt>0</asrwt>
<pdfrwt beam="1">  1        2 0.25604672E-01 0.56029071E+03</pdfrwt>
<pdfrwt beam="2">  1       -2 0.72547243E-01 0.56029071E+03</pdfrwt>
<totfact> 0.37018178E+02</totfact>
</mgrwt>
</event>
<event>
 4    0  0.1264838E-002  0.5375374E+03  0.7546771E-02  0.1004420E+00
         -1   -1    0    0    0  501 -0.00000000000E+00  0.00000000000E+00  0.90097955207E+02  0.90097955207E+02  0.00000000000E+00 0. -1.
          1   -1    0    0  502    0  0.00000000000E+00 -0.00000000000E+00 -0.80175648522E+03  0.80175648522E+03  0.00000000000E+00 0.  1.
         25    1    1    2    0    0 -0.87412150661E+02  0.21953969719E+03 -0.21945745529E+03  0.34586867075E+03  0.12500000000E+03 0.  0.
         21    1    1    2  502  501  0.87412150661E+02 -0.21953969719E+03 -0.49220107472E+03  0.54598576967E+03  0.00000000000E+00 0. -1.
<mgrwt>
<rscale>  3 0.53753742E+03</rscale>
<asrwt>0</asrwt>
<pdfrwt beam="1">  1        1 0.12334716E+00 0.53753742E+03</pdfrwt>
<pdfrwt beam="2">  1       -1 0.13861223E-01 0.53753742E+03</pdfrwt>
<totfact> 0.83251494E+02</totfact>
</mgrwt>
</event>
<event>
 4    0  0.1264838E-002  0.4730175E+03  0.7546771E-02  0.1021072E+00
          2   -1    0    0  502    0  0.00000000000E+00  0.00000000000E+00  0.22084275749E+04  0.22084275749E+04  0.00000000000E+00 0.  1.
         -2   -1    0    0    0  501 -0.00000000000E+00 -0.00000000000E+00 -0.25328608717E+02  0.25328608717E+02  0.00000000000E+00 0. -1.
         25    1    1    2    0    0  0.21330780669E+03 -0.21905728575E+02  0.13999225791E+04  0.14217553618E+04  0.12500000000E+03 0.  0.
         21    1    1    2  502  501 -0.21330780669E+03  0.21905728575E+02  0.78317638710E+03  0.81200082183E+03  0.00000000000E+00 0. -1.
<mgrwt>
<rscale>  3 0.47301754E+03</rscale>
<asrwt>0</asrwt>
<pdfrwt beam="1">  1        2 0.33975794E+00 0.47301754E+03</pdfrwt>
<pdfrwt beam="2">  1       -2 0.38967108E-02 0.47301754E+03</pdfrwt>
<totfact> 0.16215495E+03</totfact>
</mgrwt>
</event>
<event>
 4    0  0.1264838E-002  0.6273331E+03  0.7546771E-02  0.9850267E-01
          2   -1    0    0  502    0  0.00000000000E+00  0.00000000000E+00  0.20297477112E+04  0.20297477112E+04  0.00000000000E+00 0.  1.
         -2   -1    0    0    0  501 -0.00000000000E+00 -0.00000000000E+00 -0.48472384198E+02  0.48472384198E+02  0.00000000000E+00 0. -1.
         25    1    1    2    0    0  0.28937640239E+03 -0.38193831196E+02  0.78357633625E+03  0.84546693947E+03  0.12500000000E+03 0.  0.
         21    1    1    2  502  501 -0.28937640239E+03  0.38193831196E+02  0.11976989908E+04  0.12327531560E+04  0.00000000000E+00 0.  1.
<mgrwt>
<rscale>  3 0.62733312E+03</rscale>
<asrwt>0</asrwt>
<pdfrwt beam="1">  1        2 0.31226881E+00 0.62733312E+03</pdfrwt>
<pdfrwt beam="2">  1       -2 0.74572914E-02 0.62733312E+03</pdfrwt>
<totfact> 0.73104728E+02</totfact>
</mgrwt>
</event>
<event>
 4    0  0.1264838E-002  0.5259657E+03  0.7546771E-02  0.1007215E+00
         -2   -1    0    0    0  501 -0.00000000000E+00  0.00000000000E+00  0.43610507340E+02  0.43610507340E+02  0.00000000000E+00 0.  1.
          2   -1    0    0  502    0  0.00000000000E+00 -0.00000000000E+00 -0.15858559541E+04  0.15858559541E+04  0.00000000000E+00 0. -1.
         25    1    1    2    0    0  0.21199622548E+03 -0.37816862354E+02 -0.11965743550E+04  0.12222060799E+04  0.12500000000E+03 0.  0.
         21    1    1    2  502  501 -0.21199622548E+03  0.37816862354E+02 -0.34567109178E+03  0.40726038156E+03  0.00000000000E+00 0.  1.
<mgrwt>
<rscale>  3 0.52596571E+03</rscale>
<asrwt>0</asrwt>
<pdfrwt beam="1">  1        2 0.24397782E+00 0.52596571E+03</pdfrwt>
<pdfrwt beam="2">  1       -2 0.67093095E-02 0.52596571E+03</pdfrwt>
<totfact> 0.15113652E+03</totfact>
</mgrwt>
</event>
<event>
 4    0  0.1264838E-002  0.6046992E+03  0.7546771E-02  0.9895704E-01
          2   -1    0    0  502    0  0.00000000000E+00  0.00000000000E+00  0.16393140880E+04  0.16393140880E+04  0.00000000000E+00 0. -1.
         -2   -1    0    0    0  501 -0.00000000000E+00 -0.00000000000E+00 -0.55764350152E+02  0.55764350152E+02  0.00000000000E+00 0.  1.
         25    1    1    2    0    0  0.24048151378E+03  0.53361044452E+02  0.39964569636E+03  0.48581935136E+03  0.12500000000E+03 0.  0.
         21    1    1    2  502  501 -0.24048151378E+03 -0.53361044452E+02  0.11839040415E+04  0.12092590868E+04  0.00000000000E+00 0. -1.
<mgrwt>
<rscale>  3 0.60469921E+03</rscale>
<asrwt>0</asrwt>
<pdfrwt beam="1">  1        2 0.25220213E+00 0.60469921E+03</pdfrwt>
<pdfrwt beam="2">  1       -2 0.85791320E-02 0.60469921E+03</pdfrwt>
<totfact> 0.95322546E+02</totfact>
</mgrwt>
</event>
<event>
 4    0  0.1264838E-002  0.5478913E+03  0.7546771E-02  0.1001983E+00
         -2   -1    0    0    0  501 -0.00000000000E+00  0.00000000000E+00  0.49898278904E+02  0.49898278904E+02  0.00000000000E+00 0. -1.
          2   -1    0    0  502    0  0.00000000000E+00 -0.00000000000E+00 -0.15039840972E+04  0.15039840972E+04  0.00000000000E+00 0.  1.
         25    1    1    2    0    0 -0.21674912450E+03 -0.16279209957E+02 -0.36188016797E+03  0.44025839188E+03  0.12500000000E+03 0.  0.
         21    1    1    2  502  501  0.21674912450E+03  0.16279209957E+02 -0.10922056504E+04  0.11136239843E+04  0.00000000000E+00 0.  1.
<mgrwt>
<rscale>  3 0.54789130E+03</rscale>
<asrwt>0</asrwt>
<pdfrwt beam="1">  1        2 0.23138220E+00 0.54789130E+03</pdfrwt>
<pdfrwt beam="2">  1       -2 0.76766574E-02 0.54789130E+03</pdfrwt>
<totfact> 0.13533849E+03</totfact>
</mgrwt>
</event>
<event>
 4    0  0.1264838E-002  0.6960026E+03  0.7546771E-02  0.9724093E-01
          3   -1    0    0  502    0  0.00000000000E+00  0.00000000000E+00  0.86162597868E+03  0.86162597868E+03  0.00000000000E+00 0. -1.
         -3   -1    0    0    0  501 -0.00000000000E+00 -0.00000000000E+00 -0.14055391346E+03  0.14055391346E+03  0.00000000000E+00 0.  1.
         25    1    1    2    0    0 -0.39979043226E+02  0.29900272224E+03  0.58775480745E+03  0.67237018485E+03  0.12500000000E+03 0.  0.
         21    1    1    2  502  501  0.39979043226E+02 -0.29900272224E+03  0.13331725777E+03  0.32980970729E+03  0.00000000000E+00 0.  1.
<mgrwt>
<rscale>  3 0.69600260E+03</rscale>
<asrwt>0</asrwt>
<pdfrwt beam="1">  1        3 0.13255784E+00 0.69600260E+03</pdfrwt>
<pdfrwt beam="2">  1       -3 0.21623680E-01 0.69600260E+03</pdfrwt>
<totfact> 0.23320521E+01</totfact>
</mgrwt>
</event>
<event>
 4    0  0.1264838E-002  0.4752430E+03  0.7546771E-02  0.1020451E+00
          2   -1    0    0  502    0  0.00000000000E+00  0.00000000000E+00  0.13925565498E+04  0.13925565498E+04  0.00000000000E+00 0.  1.
         -2   -1    0    0    0  501 -0.00000000000E+00 -0.00000000000E+00 -0.40546998083E+02  0.40546998083E+02  0.00000000000E+00 0. -1.
         25    1    1    2    0    0  0.13669443765E+03 -0.17096990188E+03  0.62714358482E+03  0.67590691121E+03  0.12500000000E+03 0.  0.
         21    1    1    2  502  501 -0.13669443765E+03  0.17096990188E+03  0.72486596693E+03  0.75719663671E+03  0.00000000000E+00 0.  1.
<mgrwt>
<rscale>  3 0.47524304E+03</rscale>
<asrwt>0</asrwt>
<pdfrwt beam="1">  1        2 0.21423943E+00 0.47524304E+03</pdfrwt>
<pdfrwt beam="2">  1       -2 0.62380008E-02 0.47524304E+03</pdfrwt>
<totfact> 0.21674618E+03</totfact>
</mgrwt>
</event>
<event>
 4    0  0.1264838E-002  0.5629356E+03  0.7546771E-02  0.9985434E-01
         -2   -1    0    0    0  501 -0.00000000000E+00  0.00000000000E+00  0.48953695735E+03  0.48953695735E+03  0.00000000000E+00 0. -1.
          2   -1    0    0  502    0  0.00000000000E+00 -0.00000000000E+00 -0.16183479972E+03  0.16183479972E+03  0.00000000000E+00 0.  1.
         25    1    1    2    0    0  0.25523272141E+03 -0.80234685897E+02  0.16639626238E+03  0.33896026763E+03  0.12500000000E+03 0.  0.
         21    1    1    2  502  501 -0.25523272141E+03  0.80234685897E+02  0.16130589524E+03  0.31241148944E+03  0.00000000000E+00 0.  1.
<mgrwt>
<rscale>  3 0.56293558E+03</rscale>
<asrwt>0</asrwt>
<pdfrwt beam="1">  1        2 0.24897662E-01 0.56293558E+03</pdfrwt>
<pdfrwt beam="2">  1       -2 0.75313377E-01 0.56293558E+03</pdfrwt>
<totfact> 0.35200783E+02</totfact>
</mgrwt>
</event>
<event>
 4    0  0.1264838E-002  0.4881185E+03  0.7546771E-02  0.1016928E+00
          2   -1    0    0  502    0  0.00000000000E+00  0.00000000000E+00  0.23776637733E+04  0.23776637733E+04  0.00000000000E+00 0. -1.
         -2   -1    0    0    0  501 -0.00000000000E+00 -0.00000000000E+00 -0.25051863378E+02  0.25051863378E+02  0.00000000000E+00 0.  1.
         25    1    1    2    0    0  0.20536585352E+03 -0.97940228658E+02  0.11770067063E+04  0.12052954861E+04  0.12500000000E+03 0.  0.
         21    1    1    2  502  501 -0.20536585352E+03  0.97940228658E+02  0.11756052037E+04  0.11974201506E+04  0.00000000000E+00 0. -1.
<mgrwt>
<rscale>  3 0.48811846E+03</rscale>
<asrwt>0</asrwt>
<pdfrwt beam="1">  1        2 0.36579425E+00 0.48811846E+03</pdfrwt>
<pdfrwt beam="2">  1       -2 0.38541347E-02 0.48811846E+03</pdfrwt>
<totfact> 0.13308341E+03</totfact>
</mgrwt>
</event>
<event>
 4    0  0.1264838E-002  0.4504930E+03  0.7546771E-02  0.1027575E+00
         -1   -1    0    0    0  501 -0.00000000000E+00  0.00000000000E+00  0.41559409834E+02  0.41559409834E+02  0.00000000000E+00 0. -1.
          1   -1    0    0  502    0  0.00000000000E+00 -0.00000000000E+00 -0.12208059701E+04  0.12208059701E+04  0.00000000000E+00 0.  1.
         25    1    1    2    0    0 -0.59359511610E+02  0.19179105502E+03 -0.48367888751E+03  0.53840284790E+03  0.12500000000E+03 0.  0.
         21    1    1    2  502  501  0.59359511610E+02 -0.19179105502E+03 -0.69556767276E+03  0.72396253204E+03  0.00000000000E+00 0.  1.
<mgrwt>
<rscale>  3 0.45049296E+03</rscale>
<asrwt>0</asrwt>
<pdfrwt beam="1">  1        1 0.18781631E+00 0.45049296E+03</pdfrwt>
<pdfrwt beam="2">  1       -1 0.63937553E-02 0.45049296E+03</pdfrwt>
<totfact> 0.13372080E+03</totfact>
</mgrwt>
</event>
<event>
 4    0  0.1264838E-002  0.8295343E+03  0.7546771E-02  0.9518225E-01
         -2   -1    0    0    0  501 -0.00000000000E+00  0.00000000000E+00  0.15650512961E+03  0.15650512961E+03  0.00000000000E+00 0.  1.
          2   -1    0    0  502    0  0.00000000000E+00 -0.00000000000E+00 -0.10992085550E+04  0.10992085550E+04  0.00000000000E+00 0. -1.
         25    1    1    2    0    0  0.11941804496E+03  0.37869293411E+03 -0.60539522909E+03  0.73470905208E+03  0.12500000000E+03 0.  0.
         21    1    1    2  502  501 -0.11941804496E+03 -0.37869293411E+03 -0.33730819625E+03  0.52100463248E+03  0.00000000000E+00 0. -1.
<mgrwt>
<rscale>  3 0.82953427E+03</rscale>
<asrwt>0</asrwt>
<pdfrwt beam="1">  1        2 0.16910901E+00 0.82953427E+03</pdfrwt>
<pdfrwt beam="2">  1       -2 0.24077712E-01 0.82953427E+03</pdfrwt>
<totfact> 0.33600031E+02</totfact>
</mgrwt>
</event>
<event>
 4    0  0.1264838E-002  0.5964176E+03  0.7546771E-02  0.9912866E-01
         -2   -1    0    0    0  501 -0.00000000000E+00  0.00000000000E+00  0.59336390367E+02  0.59336390367E+02  0.00000000000E+00 0. -1.
          2   -1    0    0  502    0  0.00000000000E+00 -0.00000000000E+00 -0.14987173972E+04  0.14987173972E+04  0.00000000000E+00 0.  1.
         25    1    1    2    0    0  0.17989973635E+03 -0.22102468857E+03 -0.72917735090E+03  0.79280542200E+03  0.12500000000E+03 0.  0.
         21    1    1    2  502  501 -0.17989973635E+03  0.22102468857E+03 -0.71020365597E+03  0.76524836560E+03  0.00000000000E+00 0. -1.
<mgrwt>
<rscale>  3 0.59641757E+03</rscale>
<asrwt>0</asrwt>
<pdfrwt beam="1">  1        2 0.23057191E+00 0.59641757E+03</pdfrwt>
<pdfrwt beam="2">  1       -2 0.91286752E-02 0.59641757E+03</pdfrwt>
<totfact> 0.10308361E+03</totfact>
</mgrwt>
</event>
<event>
 4    0  0.1264838E-002  0.4409082E+03  0.7546771E-02  0.1030469E+00
          1   -1    0    0  502    0  0.00000000000E+00  0.00000000000E+00  0.26812144747E+03  0.26812144747E+03  0.00000000000E+00 0.  1.
         -1   -1    0    0    0  501 -0.00000000000E+00 -0.00000000000E+00 -0.18126118571E+03  0.18126118571E+03  0.00000000000E+00 0. -1.
         25    1    1    2    0    0  0.16340060356E+03 -0.11979210846E+03  0.54240225944E+02  0.24416574003E+03  0.12500000000E+03 0.  0.
         21    1    1    2  502  501 -0.16340060356E+03  0.11979210846E+03  0.32620035814E+02  0.20521689314E+03  0.00000000000E+00 0. -1.
<mgrwt>
<rscale>  3 0.44090821E+03</rscale>
<asrwt>0</asrwt>
<pdfrwt beam="1">  1        1 0.41249454E-01 0.44090821E+03</pdfrwt>
<pdfrwt beam="2">  1       -1 0.27886336E-01 0.44090821E+03</pdfrwt>
<totfact> 0.11752437E+03</totfact>
</mgrwt>
</event>
<event>
 4    0  0.1264838E-002  0.4893341E+03  0.7546771E-02  0.1016601E+00
          1   -1    0    0  502    0  0.00000000000E+00  0.00000000000E+00  0.62168794056E+03  0.62168794056E+03  0.00000000000E+00 0. -1.
         -1   -1    0    0    0  501 -0.00000000000E+00 -0.00000000000E+00 -0.96289426960E+02  0.96289426960E+02  0.00000000000E+00 0.  1.
         25    1    1    2    0    0 -0.22526635581E+03  0.32839471285E+02  0.24766168030E+03  0.35886581033E+03  0.12500000000E+03 0.  0.
         21    1    1    2  502  501  0.22526635581E+03 -0.32839471285E+02  0.27773683331E+03  0.35911155720E+03  0.00000000000E+00 0.  1.
<mgrwt>
<rscale>  3 0.48933414E+03</rscale>
<asrwt>0</asrwt>
<pdfrwt beam="1">  1        1 0.95644296E-01 0.48933414E+03</pdfrwt>
<pdfrwt beam="2">  1       -1 0.14813758E-01 0.48933414E+03</pdfrwt>
<totfact> 0.10973322E+03</totfact>
</mgrwt>
</event>
<event>
 4    0  0.1264838E-002  0.5966947E+03  0.7546771E-02  0.9912287E-01
         -1   -1    0    0    0  501 -0.00000000000E+00  0.00000000000E+00  0.16484210123E+03  0.16484210123E+03  0.00000000000E+00 0.  1.
          1   -1    0    0  502    0  0.00000000000E+00 -0.00000000000E+00 -0.53997817555E+03  0.53997817555E+03  0.00000000000E+00 0. -1.
         25    1    1    2    0    0 -0.23501192942E+03  0.57994676520E+02 -0.37406427244E+03  0.46275595014E+03  0.12500000000E+03 0.  0.
         21    1    1    2  502  501  0.23501192942E+03 -0.57994676520E+02 -0.10718018780E+01  0.24206432664E+03  0.00000000000E+00 0. -1.
<mgrwt>
<rscale>  3 0.59669469E+03</rscale>
<asrwt>0</asrwt>
<pdfrwt beam="1">  1        1 0.83073566E-01 0.59669469E+03</pdfrwt>
<pdfrwt beam="2">  1       -1 0.25360323E-01 0.59669469E+03</pdfrwt>
<totfact> 0.54935604E+02</totfact>
</mgrwt>
</event>
<event>
 4    0  0.1264838E-002  0.4662685E+03  0.7546771E-02  0.1022979E+00
          2   -1    0    0  502    0  0.00000000000E+00  0.00000000000E+00  0.22485522429E+04  0.22485522429E+04  0.00000000000E+00 0.  1.
         -2   -1    0    0    0  501 -0.00000000000E+00 -0.00000000000E+00 -0.24171806662E+02  0.24171806662E+02  0.00000000000E+00 0. -1.
         25    1    1    2    0    0 -0.13995421689E+03 -0.14949532578E+03  0.15327578481E+04  0.15514211730E+04  0.12500000000E+03 0.  0.
         21    1    1    2  502  501  0.13995421689E+03  0.14949532578E+03  0.69162258818E+03  0.72130287656E+03  0.00000000000E+00 0. -1.
<mgrwt>
<rscale>  3 0.46626846E+03</rscale>
<asrwt>0</asrwt>
<pdfrwt beam="1">  1        2 0.34593095E+00 0.46626846E+03</pdfrwt>
<pdfrwt beam="2">  1       -2 0.37187413E-02 0.46626846E+03</pdfrwt>
<totfact> 0.16567553E+03</totfact>
</mgrwt>
</event>
<event>
 4    0  0.1264838E-002  0.7129272E+03  0.7546771E-02  0.9695377E-01
          2   -1    0    0  502    0  0.00000000000E+00  0.00000000000E+00  0.14980370351E+04  0.14980370351E+04  0.00000000000E+00 0. -1.
         -2   -1    0    0    0  501 -0.00000000000E+00 -0.00000000000E+00 -0.84821867058E+02  0.84821867058E+02  0.00000000000E+00 0.  1.
         25    1    1    2    0    0  0.27920494630E+03  0.59784534496E+02  0.29641606782E+03  0.43013611551E+03  0.12500000000E+03 0.  0.
         21    1    1    2  502  501 -0.27920494630E+03 -0.59784534496E+02  0.11167991003E+04  0.11527227867E+04  0.00000000000E+00 0. -1.
<mgrwt>
<rscale>  3 0.71292720E+03</rscale>
<asrwt>0</asrwt>
<pdfrwt beam="1">  1        2 0.23046722E+00 0.71292720E+03</pdfrwt>
<pdfrwt beam="2">  1       -2 0.13049519E-01 0.71292720E+03</pdfrwt>
<totfact> 0.57152491E+02</totfact>
</mgrwt>
</event>
<event>
 4    0  0.1264838E-002  0.5723458E+03  0.7546771E-02  0.9964501E-01
          2   -1    0    0  502    0  0.00000000000E+00  0.00000000000E+00  0.42388127207E+04  0.42388127207E+04  0.00000000000E+00 0.  1.
         -2   -1    0    0    0  501 -0.00000000000E+00 -0.00000000000E+00 -0.19320252360E+02  0.19320252360E+02  0.00000000000E+00 0. -1.
         25    1    1    2    0    0  0.27381746942E+02  0.26770186920E+03  0.18899736630E+04  0.19131229698E+04  0.12500000000E+03 0.  0.
         21    1    1    2  502  501 -0.27381746942E+02 -0.26770186920E+03  0.23295188054E+04  0.23450100033E+04  0.00000000000E+00 0. -1.
<mgrwt>
<rscale>  3 0.57234581E+03</rscale>
<asrwt>0</asrwt>
<pdfrwt beam="1">  1        2 0.65212429E+00 0.57234581E+03</pdfrwt>
<pdfrwt beam="2">  1       -2 0.29723499E-02 0.57234581E+03</pdfrwt>
<totfact> 0.11375223E+02</totfact>
</mgrwt>
</event>
<event>
 4    0  0.1264838E-002  0.5873443E+03  0.7546771E-02  0.9932016E-01
          2   -1    0    0  502    0  0.00000000000E+00  0.00000000000E+00  0.26461957001E+03  0.26461957001E+03  0.00000000000E+00 0. -1.
         -2   -1    0    0    0  501 -0.00000000000E+00 -0.00000000000E+00 -0.32591438257E+03  0.32591438257E+03  0.00000000000E+00 0.  1.
         25    1    1    2    0    0  0.95799669512E+02 -0.19837879008E+03  0.14233070383E+03  0.29054216610E+03  0.12500000000E+03 0.  0.
         21    1    1    2  502  501 -0.95799669512E+02  0.19837879008E+03 -0.20362551639E+03  0.29999178648E+03  0.00000000000E+00 0.  1.
<mgrwt>
<rscale>  3 0.58734427E+03</rscale>
<asrwt>0</asrwt>
<pdfrwt beam="1">  1        2 0.40710703E-01 0.58734427E+03</pdfrwt>
<pdfrwt beam="2">  1       -2 0.50140674E-01 0.58734427E+03</pdfrwt>
<totfact> 0.47928545E+02</totfact>
</mgrwt>
</event>
<event>
 4    0  0.1264838E-002  0.5762247E+03  0.7546771E-02  0.9955998E-01
         -2   -1    0    0    0  501 -0.00000000000E+00  0.00000000000E+00  0.76318758211E+02  0.76318758211E+02  0.00000000000E+00 0.  1.
          2   -1    0    0  502    0  0.00000000000E+00 -0.00000000000E+00 -0.10876584174E+04  0.10876584174E+04  0.00000000000E+00 0. -1.
         25    1    1    2    0    0 -0.48408668692E+02  0.22716141268E+03 -0.82520422194E+03  0.86633291206E+03  0.12500000000E+03 0.  0.
         21    1    1    2  502  501  0.48408668692E+02 -0.22716141268E+03 -0.18613543720E+03  0.29764426350E+03  0.00000000000E+00 0.  1.
<mgrwt>
<rscale>  3 0.57622475E+03</rscale>
<asrwt>0</asrwt>
<pdfrwt beam="1">  1        2 0.16733207E+00 0.57622475E+03</pdfrwt>
<pdfrwt beam="2">  1       -2 0.11741347E-01 0.57622475E+03</pdfrwt>
<totfact> 0.11810451E+03</totfact>
</mgrwt>
</event>
<event>
 4    0  0.1264838E-002  0.7425471E+03  0.7546771E-02  0.9647116E-01
          1   -1    0    0  502    0  0.00000000000E+00  0.00000000000E+00  0.12973151267E+03  0.12973151267E+03  0.00000000000E+00 0. -1.
         -1   -1    0    0    0  501 -0.00000000000E+00 -0.00000000000E+00 -0.10625332501E+04  0.10625332501E+04  0.00000000000E+00 0.  1.
         25    1    1    2    0    0 -0.27367292039E+03  0.17542251901E+02 -0.85596071820E+03  0.90746809810E+03  0.12500000000E+03 0.  0.
         21    1    1    2  502  501  0.27367292039E+03 -0.17542251901E+02 -0.76841019193E+02  0.28479666464E+03  0.00000000000E+00 0. -1.
<mgrwt>
<rscale>  3 0.74254709E+03</rscale>
<asrwt>0</asrwt>
<pdfrwt beam="1">  1        1 0.19958695E-01 0.74254709E+03</pdfrwt>
<pdfrwt beam="2">  1       -1 0.16346665E+00 0.74254709E+03</pdfrwt>
<totfact> 0.73741638E+01</totfact>
</mgrwt>
</event>
<event>
 4    0  0.1264838E-002  0.6921316E+03  0.7546771E-02  0.9730784E-01
          2   -1    0    0  502    0  0.00000000000E+00  0.00000000000E+00  0.28040524234E+04  0.28040524234E+04  0.00000000000E+00 0.  1.
         -2   -1    0    0    0  501 -0.00000000000E+00 -0.00000000000E+00 -0.42710168378E+02  0.42710168378E+02  0.00000000000E+00 0. -1.
         25    1    1    2    0    0  0.19971934868E+03 -0.22820565651E+03  0.20089848215E+04  0.20355860712E+04  0.12500000000E+03 0.  0.
         21    1    1    2  502  501 -0.19971934868E+03  0.22820565651E+03  0.75235743350E+03  0.81117652064E+03  0.00000000000E+00 0. -1.
<mgrwt>
<rscale>  3 0.69213164E+03</rscale>
<asrwt>0</asrwt>
<pdfrwt beam="1">  1        2 0.43139254E+00 0.69213164E+03</pdfrwt>
<pdfrwt beam="2">  1       -2 0.65707973E-02 0.69213164E+03</pdfrwt>
<totfact> 0.32620115E+02</totfact>
</mgrwt>
</event>
<event>
 4    0  0.1264838E-002  0.5045374E+03  0.7546771E-02  0.1012601E+00
         -1   -1    0    0    0  501 -0.00000000000E+00  0.00000000000E+00  0.34280784024E+03  0.34280784024E+03  0.00000000000E+00 0. -1.
          1   -1    0    0  502    0  0.00000000000E+00 -0.00000000000E+00 -0.18564192838E+03  0.18564192838E+03  0.00000000000E+00 0.  1.
         25    1    1    2    0    0 -0.14073284504E+03 -0.16210369630E+03  0.18805911949E+03  0.31156792911E+03  0.12500000000E+03 0.  0.
         21    1    1    2  502  501  0.14073284504E+03  0.16210369630E+03 -0.30893207627E+02  0.21688183950E+03  0.00000000000E+00 0.  1.
<mgrwt>
<rscale>  3 0.50453745E+03</rscale>
<asrwt>0</asrwt>
<pdfrwt beam="1">  1        1 0.28560297E-01 0.50453745E+03</pdfrwt>
<pdfrwt beam="2">  1       -1 0.52739668E-01 0.50453745E+03</pdfrwt>
<totfact> 0.59985384E+02</totfact>
</mgrwt>
</event>
<event>
 4    0  0.1264838E-002  0.4483727E+03  0.7546771E-02  0.1028208E+00
         -2   -1    0    0    0  501 -0.00000000000E+00  0.00000000000E+00  0.23273757575E+02  0.23273757575E+02  0.00000000000E+00 0. -1.
          2   -1    0    0  502    0  0.00000000000E+00 -0.00000000000E+00 -0.21594934766E+04  0.21594934766E+04  0.00000000000E+00 0.  1.
         25    1    1    2    0    0 -0.17889409880E+03 -0.10067165584E+03 -0.12716310622E+04  0.12941439021E+04  0.12500000000E+03 0.  0.
         21    1    1    2  502  501  0.17889409880E+03  0.10067165584E+03 -0.86458865679E+03  0.88862333208E+03  0.00000000000E+00 0.  1.
<mgrwt>
<rscale>  3 0.44837274E+03</rscale>
<asrwt>0</asrwt>
<pdfrwt beam="1">  1        2 0.33222979E+00 0.44837274E+03</pdfrwt>
<pdfrwt beam="2">  1       -2 0.35805778E-02 0.44837274E+03</pdfrwt>
<totfact> 0.19636297E+03</totfact>
</mgrwt>
</event>
<event>
 4    0  0.1264838E-002  0.5944666E+03  0.7546771E-02  0.9916953E-01
          2   -1    0    0  502    0  0.00000000000E+00  0.00000000000E+00  0.14407915887E+03  0.14407915887E+03  0.00000000000E+00 0.  1.
         -2   -1    0    0    0  501 -0.00000000000E+00 -0.00000000000E+00 -0.61318812502E+03  0.61318812502E+03  0.00000000000E+00 0. -1.
         25    1    1    2    0    0  0.23339108128E+03 -0.10878347147E+03 -0.92048175965E+02  0.30067109470E+03  0.12500000000E+03 0.  0.
         21    1    1    2  502  501 -0.23339108128E+03  0.10878347147E+03 -0.37706079019E+03  0.45659618919E+03  0.00000000000E+00 0. -1.
<mgrwt>
<rscale>  3 0.59446658E+03</rscale>
<asrwt>0</asrwt>
<pdfrwt beam="1">  1        2 0.22166024E-01 0.59446658E+03</pdfrwt>
<pdfrwt beam="2">  1       -2 0.94336638E-01 0.59446658E+03</pdfrwt>
<totfact> 0.24148621E+02</totfact>
</mgrwt>
</event>
<event>
 4    0  0.1264838E-002  0.7783585E+03  0.7546771E-02  0.9591882E-01
         -2   -1    0    0    0  501 -0.00000000000E+00  0.00000000000E+00  0.12165566355E+03  0.12165566355E+03  0.00000000000E+00 0. -1.
          2   -1    0    0  502    0  0.00000000000E+00 -0.00000000000E+00 -0.12449934236E+04  0.12449934236E+04  0.00000000000E+00 0.  1.
         25    1    1    2    0    0  0.22902543821E+03  0.25673564953E+03 -0.29641889680E+03  0.47101486969E+03  0.12500000000E+03 0.  0.
         21    1    1    2  502  501 -0.22902543821E+03 -0.25673564953E+03 -0.82691886322E+03  0.89563421743E+03  0.00000000000E+00 0.  1.
<mgrwt>
<rscale>  3 0.77835853E+03</rscale>
<asrwt>0</asrwt>
<pdfrwt beam="1">  1        2 0.19153744E+00 0.77835853E+03</pdfrwt>
<pdfrwt beam="2">  1       -2 0.18716257E-01 0.77835853E+03</pdfrwt>
<totfact> 0.42987288E+02</totfact>
</mgrwt>
</event>
<event>
 4    0  0.1264838E-002  0.5176316E+03  0.7546771E-02  0.1009277E+00
         -2   -1    0    0    0  501 -0.00000000000E+00  0.00000000000E+00  0.72654494791E+02  0.72654494791E+02  0.00000000000E+00 0.  1.
          2   -1    0    0  502    0  0.00000000000E+00 -0.00000000000E+00 -0.92197478499E+03  0.92197478499E+03  0.00000000000E+00 0. -1.
         25    1    1    2    0    0 -0.16740410202E+03  0.17114917024E+03 -0.53715763693E+03  0.60123165149E+03  0.12500000000E+03 0.  0.
         21    1    1    2  502  501  0.16740410202E+03 -0.17114917024E+03 -0.31216265327E+03  0.39339762829E+03  0.00000000000E+00 0.  1.
<mgrwt>
<rscale>  3 0.51763158E+03</rscale>
<asrwt>0</asrwt>
<pdfrwt beam="1">  1        2 0.14184228E+00 0.51763158E+03</pdfrwt>
<pdfrwt beam="2">  1       -2 0.11177614E-01 0.51763158E+03</pdfrwt>
<totfact> 0.16300237E+03</totfact>
</mgrwt>
</event>
<event>
 4    0  0.1264838E-002  0.4568352E+03  0.7546771E-02  0.1025703E+00
         -1   -1    0    0    0  501 -0.00000000000E+00  0.00000000000E+00  0.25220506568E+03  0.25220506568E+03  0.00000000000E+00 0. -1.
          1   -1    0    0  502    0  0.00000000000E+00 -0.00000000000E+00 -0.20687375207E+03  0.20687375207E+03  0.00000000000E+00 0.  1.
         25    1    1    2    0    0  0.19962357498E+03  0.47292669163E+02  0.75290847542E+02  0.25175360964E+03  0.12500000000E+03 0.  0.
         21    1    1    2  502  501 -0.19962357498E+03 -0.47292669163E+02 -0.29959533936E+02  0.20732520811E+03  0.00000000000E+00 0.  1.
<mgrwt>
<rscale>  3 0.45683524E+03</rscale>
<asrwt>0</asrwt>
<pdfrwt beam="1">  1        1 0.31826731E-01 0.45683524E+03</pdfrwt>
<pdfrwt beam="2">  1       -1 0.38800779E-01 0.45683524E+03</pdfrwt>
<totfact> 0.91923571E+02</totfact>
</mgrwt>
</event>
<event>
 4    0  0.1264838E-002  0.4699678E+03  0.7546771E-02  0.1021929E+00
         -3   -1    0    0    0  501 -0.00000000000E+00  0.00000000000E+00  0.36766081661E+02  0.36766081661E+02  0.00000000000E+00 0.  1.
          3   -1    0    0  502    0  0.00000000000E+00 -0.00000000000E+00 -0.15018577667E+04  0.15018577667E+04  0.00000000000E+00 0. -1.
         25    1    1    2    0    0  0.20076604447E+03  0.74846491214E+02 -0.92219355273E+03  0.95497379574E+03  0.12500000000E+03 0.  0.
         21    1    1    2  502  501 -0.20076604447E+03 -0.74846491214E+02 -0.54289813232E+03  0.58365005263E+03  0.00000000000E+00 0.  1.
<mgrwt>
<rscale>  3 0.46996777E+03</rscale>
<asrwt>0</asrwt>
<pdfrwt beam="1">  1        3 0.23105507E+00 0.46996777E+03</pdfrwt>
<pdfrwt beam="2">  1       -3 0.56563196E-02 0.46996777E+03</pdfrwt>
<totfact> 0.50498597E+01</totfact>
</mgrwt>
</event>
<event>
 4    0  0.1264838E-002  0.4962870E+03  0.7546771E-02  0.1014753E+00
         -1   -1    0    0    0  501 -0.00000000000E+00  0.00000000000E+00  0.57958614023E+03  0.57958614023E+03  0.00000000000E+00 0. -1.
          1   -1    0    0  502    0  0.00000000000E+00 -0.00000000000E+00 -0.10623994738E+03  0.10623994738E+03  0.00000000000E+00 0.  1.
         25    1    1    2    0    0  0.13616981690E+03  0.17656743442E+03  0.16115105614E+03  0.30218031177E+03  0.12500000000E+03 0.  0.
         21    1    1    2  502  501 -0.13616981690E+03 -0.17656743442E+03  0.31219513672E+03  0.38364577584E+03  0.00000000000E+00 0. -1.
<mgrwt>
<rscale>  3 0.49628702E+03</rscale>
<asrwt>0</asrwt>
<pdfrwt beam="1">  1        1 0.16344608E-01 0.49628702E+03</pdfrwt>
<pdfrwt beam="2">  1       -1 0.89167097E-01 0.49628702E+03</pdfrwt>
<totfact> 0.42999904E+02</totfact>
</mgrwt>
</event>
<event>
 4    0  0.1264838E-002  0.6151496E+03  0.7546771E-02  0.9874465E-01
          1   -1    0    0  502    0  0.00000000000E+00  0.00000000000E+00  0.68333309123E+03  0.68333309123E+03  0.00000000000E+00 0.  1.
         -1   -1    0    0    0  501 -0.00000000000E+00 -0.00000000000E+00 -0.13844237518E+03  0.13844237518E+03  0.00000000000E+00 0. -1.
         25    1    1    2    0    0 -0.27248462577E+02 -0.26511076151E+03  0.45227658486E+03  0.53963441679E+03  0.12500000000E+03 0.  0.
         21    1    1    2  502  501  0.27248462577E+02  0.26511076151E+03  0.92614131191E+02  0.28214104961E+03  0.00000000000E+00 0. -1.
<mgrwt>
<rscale>  3 0.61514960E+03</rscale>
<asrwt>0</asrwt>
<pdfrwt beam="1">  1        1 0.10512817E+00 0.61514960E+03</pdfrwt>
<pdfrwt beam="2">  1       -1 0.21298827E-01 0.61514960E+03</pdfrwt>
<totfact> 0.52527920E+02</totfact>
</mgrwt>
</event>
<event>
 4    0  0.1264838E-002  0.5153289E+03  0.7546771E-02  0.1009854E+00
         -1   -1    0    0    0  501 -0.00000000000E+00  0.00000000000E+00  0.49971044450E+03  0.49971044450E+03  0.00000000000E+00 0. -1.
          1   -1    0    0  502    0  0.00000000000E+00 -0.00000000000E+00 -0.13285886289E+03  0.13285886289E+03  0.00000000000E+00 0.  1.
         25    1    1    2    0    0  0.19060033311E+03 -0.85979310767E+02  0.43442680291E+02  0.24745342053E+03  0.12500000000E+03 0.  0.
         21    1    1    2  502  501 -0.19060033311E+03  0.85979310767E+02  0.32340890132E+03  0.38511588686E+03  0.00000000000E+00 0. -1.
<mgrwt>
<rscale>  3 0.51532887E+03</rscale>
<asrwt>0</asrwt>
<pdfrwt beam="1">  1        1 0.20439825E-01 0.51532887E+03</pdfrwt>
<pdfrwt beam="2">  1       -1 0.76878529E-01 0.51532887E+03</pdfrwt>
<totfact> 0.43848774E+02</totfact>
</mgrwt>
</event>
<event>
 4    0  0.1264838E-002  0.1388054E+04  0.7546771E-02  0.8962512E-01
          2   -1    0    0  502    0  0.00000000000E+00  0.00000000000E+00  0.87595176808E+03  0.87595176808E+03  0.00000000000E+00 0.  1.
         -2   -1    0    0    0  501 -0.00000000000E+00 -0.00000000000E+00 -0.54988558595E+03  0.54988558595E+03  0.00000000000E+00 0. -1.
         25    1    1    2    0    0  0.26047347224E+02  0.68757952078E+03  0.14260415169E+03  0.71372614199E+03  0.12500000000E+03 0.  0.
         21    1    1    2  502  501 -0.26047347224E+02 -0.68757952078E+03  0.18346203045E+03  0.71211121203E+03  0.00000000000E+00 0.  1.
<mgrwt>
<rscale>  3 0.13880537E+04</rscale>
<asrwt>0</asrwt>
<pdfrwt beam="1">  1        2 0.13476181E+00 0.13880537E+04</pdfrwt>
<pdfrwt beam="2">  1       -2 0.84597783E-01 0.13880537E+04</pdfrwt>
<totfact> 0.36142222E+01</totfact>
</mgrwt>
</event>
<event>
 4    0  0.1264838E-002  0.6053539E+03  0.7546771E-02  0.9894360E-01
          1   -1    0    0  502    0  0.00000000000E+00  0.00000000000E+00  0.41926392859E+03  0.41926392859E+03  0.00000000000E+00 0. -1.
         -1   -1    0    0    0  501 -0.00000000000E+00 -0.00000000000E+00 -0.21850991274E+03  0.21850991274E+03  0.00000000000E+00 0.  1.
         25    1    1    2    0    0 -0.16359438253E+02  0.28410557929E+03  0.47107631275E+02  0.31436879669E+03  0.12500000000E+03 0.  0.
         21    1    1    2  502  501  0.16359438253E+02 -0.28410557929E+03  0.15364638457E+03  0.32340504464E+03  0.00000000000E+00 0.  1.
<mgrwt>
<rscale>  3 0.60535386E+03</rscale>
<asrwt>0</asrwt>
<pdfrwt beam="1">  1        1 0.64502143E-01 0.60535386E+03</pdfrwt>
<pdfrwt beam="2">  1       -1 0.33616910E-01 0.60535386E+03</pdfrwt>
<totfact> 0.47509162E+02</totfact>
</mgrwt>
</event>
<event>
 4    0  0.1264838E-002  0.8032565E+03  0.7546771E-02  0.9555315E-01
          1   -1    0    0  502    0  0.00000000000E+00  0.00000000000E+00  0.17707570734E+04  0.17707570734E+04  0.00000000000E+00 0. -1.
         -1   -1    0    0    0  501 -0.00000000000E+00 -0.00000000000E+00 -0.91093940397E+02  0.91093940397E+02  0.00000000000E+00 0.  1.
         25    1    1    2    0    0  0.33159955739E+03 -0.11658733227E+03  0.45845709776E+03  0.59106580259E+03  0.12500000000E+03 0.  0.
         21    1    1    2  502  501 -0.33159955739E+03  0.11658733227E+03  0.12212060352E+04  0.12707852112E+04  0.00000000000E+00 0. -1.
<mgrwt>
<rscale>  3 0.80325647E+03</rscale>
<asrwt>0</asrwt>
<pdfrwt beam="1">  1        1 0.27242414E+00 0.80325647E+03</pdfrwt>
<pdfrwt beam="2">  1       -1 0.14014454E-01 0.80325647E+03</pdfrwt>
<totfact> 0.15982124E+02</totfact>
</mgrwt>
</event>
<event>
 4    0  0.1264838E-002  0.4725119E+03  0.7546771E-02  0.1021214E+00
         -3   -1    0    0    0  501 -0.00000000000E+00  0.00000000000E+00  0.41892514603E+03  0.41892514603E+03  0.00000000000E+00 0. -1.
          3   -1    0    0  502    0  0.00000000000E+00 -0.00000000000E+00 -0.13323830657E+03  0.13323830657E+03  0.00000000000E+00 0.  1.
         25    1    1    2    0    0  0.94653172546E+02 -0.19447153462E+03  0.19808878431E+03  0.31881431480E+03  0.12500000000E+03 0.  0.
         21    1    1    2  502  501 -0.94653172546E+02  0.19447153462E+03  0.87598055149E+02  0.23334913781E+03  0.00000000000E+00 0. -1.
<mgrwt>
<rscale>  3 0.47251191E+03</rscale>
<asrwt>0</asrwt>
<pdfrwt beam="1">  1        3 0.20498201E-01 0.47251191E+03</pdfrwt>
<pdfrwt beam="2">  1       -3 0.64450022E-01 0.47251191E+03</pdfrwt>
<totfact> 0.13292995E+02</totfact>
</mgrwt>
</event>
<event>
 4    0  0.1264838E-002  0.6055353E+03  0.7546771E-02  0.9893988E-01
          2   -1    0    0  502    0  0.00000000000E+00  0.00000000000E+00  0.64647887823E+03  0.64647887823E+03  0.00000000000E+00 0. -1.
         -2   -1    0    0    0  501 -0.00000000000E+00 -0.00000000000E+00 -0.14179620684E+03  0.14179620684E+03  0.00000000000E+00 0.  1.
         25    1    1    2    0    0  0.12983080881E+03 -0.24584135582E+03  0.36987379069E+03  0.47929701876E+03  0.12500000000E+03 0.  0.
         21    1    1    2  502  501 -0.12983080881E+03  0.24584135582E+03  0.13480888070E+03  0.30897806631E+03  0.00000000000E+00 0. -1.
<mgrwt>
<rscale>  3 0.60553531E+03</rscale>
<asrwt>0</asrwt>
<pdfrwt beam="1">  1        2 0.99458288E-01 0.60553531E+03</pdfrwt>
<pdfrwt beam="2">  1       -2 0.21814801E-01 0.60553531E+03</pdfrwt>
<totfact> 0.83256324E+02</totfact>
</mgrwt>
</event>
<event>
 4    0  0.1264838E-002  0.4742390E+03  0.7546771E-02  0.1020731E+00
          2   -1    0    0  502    0  0.00000000000E+00  0.00000000000E+00  0.93351097224E+03  0.93351097224E+03  0.00000000000E+00 0.  1.
         -2   -1    0    0    0  501 -0.00000000000E+00 -0.00000000000E+00 -0.60230307345E+02  0.60230307345E+02  0.00000000000E+00 0. -1.
         25    1    1    2    0    0  0.17814117153E+03  0.11246816261E+03  0.32954950828E+03  0.41062299376E+03  0.12500000000E+03 0.  0.
         21    1    1    2  502  501 -0.17814117153E+03 -0.11246816261E+03  0.54373115662E+03  0.58311828583E+03  0.00000000000E+00 0.  1.
<mgrwt>
<rscale>  3 0.47423898E+03</rscale>
<asrwt>0</asrwt>
<pdfrwt beam="1">  1        2 0.14361706E+00 0.47423898E+03</pdfrwt>
<pdfrwt beam="2">  1       -2 0.92662018E-02 0.47423898E+03</pdfrwt>
<totfact> 0.21702892E+03</totfact>
</mgrwt>
</event>
<event>
 4    0  0.1264838E-002  0.4931100E+03  0.7546771E-02  0.1015593E+00
          2   -1    0    0  502    0  0.00000000000E+00  0.00000000000E+00  0.11670558632E+04  0.11670558632E+04  0.00000000000E+00 0. -1.
         -2   -1    0    0    0  501 -0.00000000000E+00 -0.00000000000E+00 -0.52087797466E+02  0.52087797466E+02  0.00000000000E+00 0.  1.
         25    1    1    2    0    0 -0.22709060440E+02  0.21745989165E+03  0.77538040125E+03  0.81525718185E+03  0.12500000000E+03 0.  0.
         21    1    1    2  502  501  0.22709060440E+02 -0.21745989165E+03  0.33958766446E+03  0.40388647880E+03  0.00000000000E+00 0.  1.
<mgrwt>
<rscale>  3 0.49311001E+03</rscale>
<asrwt>0</asrwt>
<pdfrwt beam="1">  1        2 0.17954704E+00 0.49311001E+03</pdfrwt>
<pdfrwt beam="2">  1       -2 0.80135081E-02 0.49311001E+03</pdfrwt>
<totfact> 0.19647528E+03</totfact>
</mgrwt>
</event>
<event>
 4    0  0.1264838E-002  0.5619008E+03  0.7546771E-02  0.9987763E-01
          2   -1    0    0  502    0  0.00000000000E+00  0.00000000000E+00  0.20960892929E+03  0.20960892929E+03  0.00000000000E+00 0.  1.
         -2   -1    0    0    0  501 -0.00000000000E+00 -0.00000000000E+00 -0.37657335973E+03  0.37657335973E+03  0.00000000000E+00 0. -1.
         25    1    1    2    0    0 -0.29092500074E+02 -0.25846378935E+03 -0.15076071267E+03  0.32558208865E+03  0.12500000000E+03 0.  0.
         21    1    1    2  502  501  0.29092500074E+02  0.25846378935E+03 -0.16203717761E+02  0.26060020037E+03  0.00000000000E+00 0.  1.
<mgrwt>
<rscale>  3 0.56190084E+03</rscale>
<asrwt>0</asrwt>
<pdfrwt beam="1">  1        2 0.32247528E-01 0.56190084E+03</pdfrwt>
<pdfrwt beam="2">  1       -2 0.57934363E-01 0.56190084E+03</pdfrwt>
<totfact> 0.46146514E+02</totfact>
</mgrwt>
</event>
<event>
 4    0  0.1264838E-002  0.5388000E+03  0.7546771E-02  0.1004120E+00
          2   -1    0    0  502    0  0.00000000000E+00  0.00000000000E+00  0.83650461352E+03  0.83650461352E+03  0.00000000000E+00 0.  1.
         -2   -1    0    0    0  501 -0.00000000000E+00 -0.00000000000E+00 -0.86761458463E+02  0.86761458463E+02  0.00000000000E+00 0. -1.
         25    1    1    2    0    0  0.19234676117E+03 -0.12723250625E+03  0.20899690700E+03  0.33539542977E+03  0.12500000000E+03 0.  0.
         21    1    1    2  502  501 -0.19234676117E+03  0.12723250625E+03  0.54074624806E+03  0.58787064221E+03  0.00000000000E+00 0.  1.
<mgrwt>
<rscale>  3 0.53880000E+03</rscale>
<asrwt>0</asrwt>
<pdfrwt beam="1">  1        2 0.12869301E+00 0.53880000E+03</pdfrwt>
<pdfrwt beam="2">  1       -2 0.13347917E-01 0.53880000E+03</pdfrwt>
<totfact> 0.13893469E+03</totfact>
</mgrwt>
</event>
<event>
 4    0  0.1264838E-002  0.1073683E+04  0.7546771E-02  0.9231229E-01
          2   -1    0    0  502    0  0.00000000000E+00  0.00000000000E+00  0.15102298227E+04  0.15102298227E+04  0.00000000000E+00 0. -1.
         -2   -1    0    0    0  501 -0.00000000000E+00 -0.00000000000E+00 -0.19083101765E+03  0.19083101765E+03  0.00000000000E+00 0.  1.
         25    1    1    2    0    0 -0.32520507474E+03  0.27962614463E+03  0.17650508645E+03  0.48034171892E+03  0.12500000000E+03 0.  0.
         21    1    1    2  502  501  0.32520507474E+03 -0.27962614463E+03  0.11428937186E+04  0.12207191215E+04  0.00000000000E+00 0. -1.
<mgrwt>
<rscale>  3 0.10736828E+04</rscale>
<asrwt>0</asrwt>
<pdfrwt beam="1">  1        2 0.23234304E+00 0.10736828E+04</pdfrwt>
<pdfrwt beam="2">  1       -2 0.29358619E-01 0.10736828E+04</pdfrwt>
<totfact> 0.13287536E+02</totfact>
</mgrwt>
</event>
<event>
 4    0  0.1264838E-002  0.5444570E+03  0.7546771E-02  0.1002785E+00
          1   -1    0    0  502    0  0.00000000000E+00  0.00000000000E+00  0.54946225006E+03  0.54946225006E+03  0.00000000000E+00 0.  1.
         -1   -1    0    0    0  501 -0.00000000000E+00 -0.00000000000E+00 -0.13487434790E+03  0.13487434790E+03  0.00000000000E+00 0. -1.
         25    1    1    2    0    0 -0.10068328169E+02 -0.25035186364E+03  0.29492661256E+03  0.40667448120E+03  0.12500000000E+03 0.  0.
         21    1    1    2  502  501  0.10068328169E+02  0.25035186364E+03  0.11966128959E+03  0.27766211677E+03  0.00000000000E+00 0. -1.
<mgrwt>
<rscale>  3 0.54445702E+03</rscale>
<asrwt>0</asrwt>
<pdfrwt beam="1">  1        1 0.84532653E-01 0.54445702E+03</pdfrwt>
<pdfrwt beam="2">  1       -1 0.20749900E-01 0.54445702E+03</pdfrwt>
<totfact> 0.75224645E+02</totfact>
</mgrwt>
</event>
<event>
 4    0  0.1264838E-002  0.6141907E+03  0.7546771E-02  0.9876394E-01
         -1   -1    0    0    0  501 -0.00000000000E+00  0.00000000000E+00  0.60914738740E+03  0.60914738740E+03  0.00000000000E+00 0.  1.
          1   -1    0    0  502    0  0.00000000000E+00 -0.00000000000E+00 -0.15481895830E+03  0.15481895830E+03  0.00000000000E+00 0. -1.
         25    1    1    2    0    0  0.79458363098E+01 -0.21799107681E+03  0.48244752372E+03  0.54402560512E+03  0.12500000000E+03 0.  0.
         21    1    1    2  502  501 -0.79458363098E+01  0.21799107681E+03 -0.28119094625E+02  0.21994074057E+03  0.00000000000E+00 0. -1.
<mgrwt>
<rscale>  3 0.61419073E+03</rscale>
<asrwt>0</asrwt>
<pdfrwt beam="1">  1        1 0.23818302E-01 0.61419073E+03</pdfrwt>
<pdfrwt beam="2">  1       -1 0.93714981E-01 0.61419073E+03</pdfrwt>
<totfact> 0.23365762E+02</totfact>
</mgrwt>
</event>
<event>
 4    0  0.1264838E-002  0.5096160E+03  0.7546771E-02  0.1011299E+00
          2   -1    0    0  502    0  0.00000000000E+00  0.00000000000E+00  0.43229025258E+03  0.43229025258E+03  0.00000000000E+00 0.  1.
         -2   -1    0    0    0  501 -0.00000000000E+00 -0.00000000000E+00 -0.15019334058E+03  0.15019334058E+03  0.00000000000E+00 0. -1.
         25    1    1    2    0    0  0.18146606924E+03  0.15549515378E+03  0.13179222673E+03  0.30017139797E+03  0.12500000000E+03 0.  0.
         21    1    1    2  502  501 -0.18146606924E+03 -0.15549515378E+03  0.15030468527E+03  0.28231219518E+03  0.00000000000E+00 0. -1.
<mgrwt>
<rscale>  3 0.50961600E+03</rscale>
<asrwt>0</asrwt>
<pdfrwt beam="1">  1        2 0.66506192E-01 0.50961600E+03</pdfrwt>
<pdfrwt beam="2">  1       -2 0.23106668E-01 0.50961600E+03</pdfrwt>
<totfact> 0.12033354E+03</totfact>
</mgrwt>
</event>
<event>
 4    0  0.1264838E-002  0.6155445E+03  0.7546771E-02  0.9873671E-01
          1   -1    0    0  502    0  0.00000000000E+00  0.00000000000E+00  0.44438597376E+03  0.44438597376E+03  0.00000000000E+00 0. -1.
         -1   -1    0    0    0  501 -0.00000000000E+00 -0.00000000000E+00 -0.21315652106E+03  0.21315652106E+03  0.00000000000E+00 0.  1.
         25    1    1    2    0    0 -0.19713490326E+03 -0.78868166542E+02  0.33927820525E+03  0.41930544753E+03  0.12500000000E+03 0.  0.
         21    1    1    2  502  501  0.19713490326E+03  0.78868166542E+02 -0.10804875255E+03  0.23823704729E+03  0.00000000000E+00 0.  1.
<mgrwt>
<rscale>  3 0.61554453E+03</rscale>
<asrwt>0</asrwt>
<pdfrwt beam="1">  1        1 0.68367073E-01 0.61554453E+03</pdfrwt>
<pdfrwt beam="2">  1       -1 0.32793311E-01 0.61554453E+03</pdfrwt>
<totfact> 0.45912887E+02</totfact>
</mgrwt>
</event>
<event>
 4    0  0.1264838E-002  0.7055199E+03  0.7546771E-02  0.9707839E-01
          2   -1    0    0  502    0  0.00000000000E+00  0.00000000000E+00  0.77413314398E+03  0.77413314398E+03  0.00000000000E+00 0.  1.
         -2   -1    0    0    0  501 -0.00000000000E+00 -0.00000000000E+00 -0.16074698378E+03  0.16074698378E+03  0.00000000000E+00 0. -1.
         25    1    1    2    0    0  0.29575393865E+03  0.14468945350E+03  0.19527716175E+03  0.40269541850E+03  0.12500000000E+03 0.  0.
         21    1    1    2  502  501 -0.29575393865E+03 -0.14468945350E+03  0.41810899846E+03  0.53218470926E+03  0.00000000000E+00 0.  1.
<mgrwt>
<rscale>  3 0.70551986E+03</rscale>
<asrwt>0</asrwt>
<pdfrwt beam="1">  1        2 0.11909740E+00 0.70551986E+03</pdfrwt>
<pdfrwt beam="2">  1       -2 0.24730306E-01 0.70551986E+03</pdfrwt>
<totfact> 0.52901457E+02</totfact>
</mgrwt>
</event>
<event>
 4    0  0.1264838E-002  0.4677690E+03  0.7546771E-02  0.1022552E+00
          2   -1    0    0  502    0  0.00000000000E+00  0.00000000000E+00  0.76892625447E+02  0.76892625447E+02  0.00000000000E+00 0.  1.
         -2   -1    0    0    0  501 -0.00000000000E+00 -0.00000000000E+00 -0.71140696654E+03  0.71140696654E+03  0.00000000000E+00 0. -1.
         25    1    1    2    0    0 -0.14705257341E+03  0.14246568146E+03 -0.21783519094E+03  0.32403410338E+03  0.12500000000E+03 0.  0.
         21    1    1    2  502  501  0.14705257341E+03 -0.14246568146E+03 -0.41667915016E+03  0.46426548861E+03  0.00000000000E+00 0. -1.
<mgrwt>
<rscale>  3 0.46776896E+03</rscale>
<asrwt>0</asrwt>
<pdfrwt beam="1">  1        2 0.11829635E-01 0.46776896E+03</pdfrwt>
<pdfrwt beam="2">  1       -2 0.10944722E+00 0.46776896E+03</pdfrwt>
<totfact> 0.36163437E+02</totfact>
</mgrwt>
</event>
<event>
 4    0  0.1264838E-002  0.6249829E+03  0.7546771E-02  0.9854888E-01
         -2   -1    0    0    0  501 -0.00000000000E+00  0.00000000000E+00  0.48494316454E+02  0.48494316454E+02  0.00000000000E+00 0.  1.
          2   -1    0    0  502    0  0.00000000000E+00 -0.00000000000E+00 -0.20136568147E+04  0.20136568147E+04  0.00000000000E+00 0. -1.
         25    1    1    2    0    0  0.28880112788E+03 -0.58640912391E+02 -0.83670612695E+03  0.89584987076E+03  0.12500000000E+03 0.  0.
         21    1    1    2  502  501 -0.28880112788E+03  0.58640912391E+02 -0.11284563713E+04  0.11663012604E+04  0.00000000000E+00 0. -1.
<mgrwt>
<rscale>  3 0.62498291E+03</rscale>
<asrwt>0</asrwt>
<pdfrwt beam="1">  1        2 0.30979335E+00 0.62498291E+03</pdfrwt>
<pdfrwt beam="2">  1       -2 0.74606642E-02 0.62498291E+03</pdfrwt>
<totfact> 0.74548703E+02</totfact>
</mgrwt>
</event>
<event>
 4    0  0.1264838E-002  0.5778765E+03  0.7546771E-02  0.9952399E-01
         -2   -1    0    0    0  501 -0.00000000000E+00  0.00000000000E+00  0.75641444112E+02  0.75641444112E+02  0.00000000000E+00 0. -1.
          2   -1    0    0  502    0  0.00000000000E+00 -0.00000000000E+00 -0.11036979241E+04  0.11036979241E+04  0.00000000000E+00 0.  1.
         25    1    1    2    0    0 -0.66680588340E+02 -0.22174170922E+03 -0.23373169621E+03  0.35195339505E+03  0.12500000000E+03 0.  0.
         21    1    1    2  502  501  0.66680588340E+02  0.22174170922E+03 -0.79432478374E+03  0.82738597313E+03  0.00000000000E+00 0.  1.
<mgrwt>
<rscale>  3 0.57787647E+03</rscale>
<asrwt>0</asrwt>
<pdfrwt beam="1">  1        2 0.16979969E+00 0.57787647E+03</pdfrwt>
<pdfrwt beam="2">  1       -2 0.11637145E-01 0.57787647E+03</pdfrwt>
<totfact> 0.11718311E+03</totfact>
</mgrwt>
</event>
<event>
 4    0  0.1264838E-002  0.5217564E+03  0.7546771E-02  0.1008251E+00
         -1   -1    0    0    0  501 -0.00000000000E+00  0.00000000000E+00  0.33650062125E+02  0.33650062125E+02  0.00000000000E+00 0. -1.
          1   -1    0    0  502    0  0.00000000000E+00 -0.00000000000E+00 -0.20225055410E+04  0.20225055410E+04  0.00000000000E+00 0.  1.
         25    1    1    2    0    0 -0.68096635879E+02 -0.22797107785E+03 -0.80662724172E+03  0.85022377715E+03  0.12500000000E+03 0.  0.
         21    1    1    2  502  501  0.68096635879E+02  0.22797107785E+03 -0.11822282371E+04  0.12059318259E+04  0.00000000000E+00 0.  1.
<mgrwt>
<rscale>  3 0.52175641E+03</rscale>
<asrwt>0</asrwt>
<pdfrwt beam="1">  1        1 0.31115480E+00 0.52175641E+03</pdfrwt>
<pdfrwt beam="2">  1       -1 0.51769310E-02 0.52175641E+03</pdfrwt>
<totfact> 0.53024462E+02</totfact>
</mgrwt>
</event>
<event>
 4    0  0.1264838E-002  0.4680113E+03  0.7546771E-02  0.1022483E+00
         -4   -1    0    0    0  501 -0.00000000000E+00  0.00000000000E+00  0.22019084571E+03  0.22019084571E+03  0.00000000000E+00 0. -1.
          4   -1    0    0  502    0  0.00000000000E+00 -0.00000000000E+00 -0.24868715342E+03  0.24868715342E+03  0.00000000000E+00 0.  1.
         25    1    1    2    0    0 -0.17993114810E+03 -0.89929169130E+02 -0.97650155567E+02  0.25616991704E+03  0.12500000000E+03 0.  0.
         21    1    1    2  502  501  0.17993114810E+03  0.89929169130E+02  0.69153847857E+02  0.21270808210E+03  0.00000000000E+00 0.  1.
<mgrwt>
<rscale>  3 0.46801126E+03</rscale>
<asrwt>0</asrwt>
<pdfrwt beam="1">  1        4 0.38259562E-01 0.46801126E+03</pdfrwt>
<pdfrwt beam="2">  1       -4 0.33875515E-01 0.46801126E+03</pdfrwt>
<totfact> 0.10944201E+02</totfact>
</mgrwt>
</event>
<event>
 4    0  0.1264838E-002  0.5630439E+03  0.7546771E-02  0.9985191E-01
         -2   -1    0    0    0  501 -0.00000000000E+00  0.00000000000E+00  0.41890462003E+02  0.41890462003E+02  0.00000000000E+00 0.  1.
          2   -1    0    0  502    0  0.00000000000E+00 -0.00000000000E+00 -0.18919485746E+04  0.18919485746E+04  0.00000000000E+00 0. -1.
         25    1    1    2    0    0  0.21075713691E+03 -0.14221927665E+03 -0.12577710516E+04  0.12892858145E+04  0.12500000000E+03 0.  0.
         21    1    1    2  502  501 -0.21075713691E+03  0.14221927665E+03 -0.59228706102E+03  0.64455322205E+03  0.00000000000E+00 0. -1.
<mgrwt>
<rscale>  3 0.56304387E+03</rscale>
<asrwt>0</asrwt>
<pdfrwt beam="1">  1        2 0.29106898E+00 0.56304387E+03</pdfrwt>
<pdfrwt beam="2">  1       -2 0.64446871E-02 0.56304387E+03</pdfrwt>
<totfact> 0.10975980E+03</totfact>
</mgrwt>
</event>
<event>
 4    0  0.1264838E-002  0.6239770E+03  0.7546771E-02  0.9856873E-01
          2   -1    0    0  502    0  0.00000000000E+00  0.00000000000E+00  0.29019096617E+03  0.29019096617E+03  0.00000000000E+00 0.  1.
         -2   -1    0    0    0  501 -0.00000000000E+00 -0.00000000000E+00 -0.33542333757E+03  0.33542333757E+03  0.00000000000E+00 0. -1.
         25    1    1    2    0    0 -0.10700574807E+03 -0.26613592050E+03  0.62739899317E+02  0.31912357053E+03  0.12500000000E+03 0.  0.
         21    1    1    2  502  501  0.10700574807E+03  0.26613592050E+03 -0.10797227073E+03  0.30649073321E+03  0.00000000000E+00 0.  1.
<mgrwt>
<rscale>  3 0.62397699E+03</rscale>
<asrwt>0</asrwt>
<pdfrwt beam="1">  1        2 0.44644764E-01 0.62397699E+03</pdfrwt>
<pdfrwt beam="2">  1       -2 0.51603591E-01 0.62397699E+03</pdfrwt>
<totfact> 0.40793188E+02</totfact>
</mgrwt>
</event>
<event>
 4    0  0.1264838E-002  0.4884481E+03  0.7546771E-02  0.1016839E+00
         -2   -1    0    0    0  501 -0.00000000000E+00  0.00000000000E+00  0.59317204675E+02  0.59317204675E+02  0.00000000000E+00 0.  1.
          2   -1    0    0  502    0  0.00000000000E+00 -0.00000000000E+00 -0.10055328339E+04  0.10055328339E+04  0.00000000000E+00 0. -1.
         25    1    1    2    0    0  0.83471501788E+02 -0.19601752906E+03 -0.32566784711E+03  0.40874797853E+03  0.12500000000E+03 0.  0.
         21    1    1    2  502  501 -0.83471501788E+02  0.19601752906E+03 -0.62054778211E+03  0.65610206004E+03  0.00000000000E+00 0.  1.
<mgrwt>
<rscale>  3 0.48844814E+03</rscale>
<asrwt>0</asrwt>
<pdfrwt beam="1">  1        2 0.15469735E+00 0.48844814E+03</pdfrwt>
<pdfrwt beam="2">  1       -2 0.91257246E-02 0.48844814E+03</pdfrwt>
<totfact> 0.20008827E+03</totfact>
</mgrwt>
</event>
<event>
 4    0  0.1264838E-002  0.6832215E+03  0.7546771E-02  0.9746364E-01
          2   -1    0    0  502    0  0.00000000000E+00  0.00000000000E+00  0.69711191878E+02  0.69711191878E+02  0.00000000000E+00 0.  1.
         -2   -1    0    0    0  501 -0.00000000000E+00 -0.00000000000E+00 -0.16740195556E+04  0.16740195556E+04  0.00000000000E+00 0. -1.
         25    1    1    2    0    0 -0.29301800360E+03 -0.14856695312E+03 -0.91305243095E+03  0.97837693742E+03  0.12500000000E+03 0.  0.
         21    1    1    2  502  501  0.29301800360E+03  0.14856695312E+03 -0.69125593280E+03  0.76535381009E+03  0.00000000000E+00 0.  1.
<mgrwt>
<rscale>  3 0.68322148E+03</rscale>
<asrwt>0</asrwt>
<pdfrwt beam="1">  1        2 0.10724799E-01 0.68322148E+03</pdfrwt>
<pdfrwt beam="2">  1       -2 0.25754147E+00 0.68322148E+03</pdfrwt>
<totfact> 0.36365172E+01</totfact>
</mgrwt>
</event>
<event>
 4    0  0.1264838E-002  0.4455055E+03  0.7546771E-02  0.1029071E+00
          1   -1    0    0  502    0  0.00000000000E+00  0.00000000000E+00  0.31185233294E+03  0.31185233294E+03  0.00000000000E+00 0. -1.
         -1   -1    0    0    0  501 -0.00000000000E+00 -0.00000000000E+00 -0.15910986699E+03  0.15910986699E+03  0.00000000000E+00 0.  1.
         25    1    1    2    0    0  0.16676617126E+03 -0.11958951362E+03  0.81227472742E+02  0.25364445583E+03  0.12500000000E+03 0.  0.
         21    1    1    2  502  501 -0.16676617126E+03  0.11958951362E+03  0.71514993206E+02  0.21731774410E+03  0.00000000000E+00 0. -1.
<mgrwt>
<rscale>  3 0.44550548E+03</rscale>
<asrwt>0</asrwt>
<pdfrwt beam="1">  1        1 0.47977282E-01 0.44550548E+03</pdfrwt>
<pdfrwt beam="2">  1       -1 0.24478441E-01 0.44550548E+03</pdfrwt>
<totfact> 0.12084008E+03</totfact>
</mgrwt>
</event>
<event>
 4    0  0.1264838E-002  0.5438134E+03  0.7546771E-02  0.1002936E+00
         -1   -1    0    0    0  501 -0.00000000000E+00  0.00000000000E+00  0.50549694414E+03  0.50549694414E+03  0.00000000000E+00 0. -1.
          1   -1    0    0  502    0  0.00000000000E+00 -0.00000000000E+00 -0.14625853662E+03  0.14625853662E+03  0.00000000000E+00 0.  1.
         25    1    1    2    0    0  0.16502503261E+03 -0.13847353006E+03  0.19960899426E+02  0.24986319741E+03  0.12500000000E+03 0.  0.
         21    1    1    2  502  501 -0.16502503261E+03  0.13847353006E+03  0.33927750810E+03  0.40189228335E+03  0.00000000000E+00 0. -1.
<mgrwt>
<rscale>  3 0.54381336E+03</rscale>
<asrwt>0</asrwt>
<pdfrwt beam="1">  1        1 0.22501314E-01 0.54381336E+03</pdfrwt>
<pdfrwt beam="2">  1       -1 0.77768760E-01 0.54381336E+03</pdfrwt>
<totfact> 0.37712603E+02</totfact>
</mgrwt>
</event>
<event>
 4    0  0.1264838E-002  0.5827097E+03  0.7546771E-02  0.9941942E-01
         -2   -1    0    0    0  501 -0.00000000000E+00  0.00000000000E+00  0.77046527352E+02  0.77046527352E+02  0.00000000000E+00 0.  1.
          2   -1    0    0  502    0  0.00000000000E+00 -0.00000000000E+00 -0.11017711835E+04  0.11017711835E+04  0.00000000000E+00 0. -1.
         25    1    1    2    0    0  0.11797349986E+03  0.21552391411E+03 -0.79882432530E+03  0.84505242850E+03  0.12500000000E+03 0.  0.
         21    1    1    2  502  501 -0.11797349986E+03 -0.21552391411E+03 -0.22590033084E+03  0.33376528234E+03  0.00000000000E+00 0.  1.
<mgrwt>
<rscale>  3 0.58270968E+03</rscale>
<asrwt>0</asrwt>
<pdfrwt beam="1">  1        2 0.16950326E+00 0.58270968E+03</pdfrwt>
<pdfrwt beam="2">  1       -2 0.11853312E-01 0.58270968E+03</pdfrwt>
<totfact> 0.11398357E+03</totfact>
</mgrwt>
</event>
<event>
 4    0  0.1264838E-002  0.6540032E+03  0.7546771E-02  0.9799296E-01
         -2   -1    0    0    0  501 -0.00000000000E+00  0.00000000000E+00  0.19148527026E+03  0.19148527026E+03  0.00000000000E+00 0.  1.
          2   -1    0    0  502    0  0.00000000000E+00 -0.00000000000E+00 -0.55842438763E+03  0.55842438763E+03  0.00000000000E+00 0. -1.
         25    1    1    2    0    0 -0.21012928478E+03  0.18505085324E+03 -0.35579011175E+03  0.46969110937E+03  0.12500000000E+03 0.  0.
         21    1    1    2  502  501  0.21012928478E+03 -0.18505085324E+03 -0.11149005624E+02  0.28021854851E+03  0.00000000000E+00 0. -1.
<mgrwt>
<rscale>  3 0.65400320E+03</rscale>
<asrwt>0</asrwt>
<pdfrwt beam="1">  1        2 0.85911442E-01 0.65400320E+03</pdfrwt>
<pdfrwt beam="2">  1       -2 0.29459273E-01 0.65400320E+03</pdfrwt>
<totfact> 0.57692046E+02</totfact>
</mgrwt>
</event>
<event>
 4    0  0.1264838E-002  0.4933756E+03  0.7546771E-02  0.1015523E+00
         -2   -1    0    0    0  501 -0.00000000000E+00  0.00000000000E+00  0.49275035919E+03  0.49275035919E+03  0.00000000000E+00 0.  1.
          2   -1    0    0  502    0  0.00000000000E+00 -0.00000000000E+00 -0.12350039260E+03  0.12350039260E+03  0.00000000000E+00 0. -1.
         25    1    1    2    0    0 -0.18386615144E+03  0.95422774381E+02  0.69214797212E+02  0.25165046328E+03  0.12500000000E+03 0.  0.
         21    1    1    2  502  501  0.18386615144E+03 -0.95422774381E+02  0.30003516937E+03  0.36460028851E+03  0.00000000000E+00 0. -1.
<mgrwt>
<rscale>  3 0.49337557E+03</rscale>
<asrwt>0</asrwt>
<pdfrwt beam="1">  1        2 0.19000061E-01 0.49337557E+03</pdfrwt>
<pdfrwt beam="2">  1       -2 0.75807747E-01 0.49337557E+03</pdfrwt>
<totfact> 0.47493912E+02</totfact>
</mgrwt>
</event>
<event>
 4    0  0.1264838E-002  0.5994244E+03  0.7546771E-02  0.9906601E-01
         -2   -1    0    0    0  501 -0.00000000000E+00  0.00000000000E+00  0.90736192722E+02  0.90736192722E+02  0.00000000000E+00 0. -1.
          2   -1    0    0  502    0  0.00000000000E+00 -0.00000000000E+00 -0.98998426669E+03  0.98998426669E+03  0.00000000000E+00 0.  1.
         25    1    1    2    0    0  0.28473992479E+03  0.24180297100E+02 -0.42793467309E+03  0.52954187367E+03  0.12500000000E+03 0.  0.
         21    1    1    2  502  501 -0.28473992479E+03 -0.24180297100E+02 -0.47131340087E+03  0.55117858574E+03  0.00000000000E+00 0.  1.
<mgrwt>
<rscale>  3 0.59942440E+03</rscale>
<asrwt>0</asrwt>
<pdfrwt beam="1">  1        2 0.15230527E+00 0.59942440E+03</pdfrwt>
<pdfrwt beam="2">  1       -2 0.13959414E-01 0.59942440E+03</pdfrwt>
<totfact> 0.10191348E+03</totfact>
</mgrwt>
</event>
<event>
 4    0  0.1264838E-002  0.4556794E+03  0.7546771E-02  0.1026042E+00
          2   -1    0    0  502    0  0.00000000000E+00  0.00000000000E+00  0.51404910424E+03  0.51404910424E+03  0.00000000000E+00 0.  1.
         -2   -1    0    0    0  501 -0.00000000000E+00 -0.00000000000E+00 -0.10098439907E+03  0.10098439907E+03  0.00000000000E+00 0. -1.
         25    1    1    2    0    0 -0.18112558372E+03 -0.88173426443E+02  0.30539939247E+03  0.38661973453E+03  0.12500000000E+03 0.  0.
         21    1    1    2  502  501  0.18112558372E+03  0.88173426443E+02  0.10766531270E+03  0.22841376877E+03  0.00000000000E+00 0. -1.
<mgrwt>
<rscale>  3 0.45567945E+03</rscale>
<asrwt>0</asrwt>
<pdfrwt beam="1">  1        2 0.79084476E-01 0.45567945E+03</pdfrwt>
<pdfrwt beam="2">  1       -2 0.15536062E-01 0.45567945E+03</pdfrwt>
<totfact> 0.19589306E+03</totfact>
</mgrwt>
</event>
<event>
 4    0  0.1264838E-002  0.4728514E+03  0.7546771E-02  0.1021119E+00
         -2   -1    0    0    0  501 -0.00000000000E+00  0.00000000000E+00  0.49265903511E+02  0.49265903511E+02  0.00000000000E+00 0.  1.
          2   -1    0    0  502    0  0.00000000000E+00 -0.00000000000E+00 -0.11346003394E+04  0.11346003394E+04  0.00000000000E+00 0. -1.
         25    1    1    2    0    0  0.29431362527E+02  0.20776025697E+03 -0.74528310654E+03  0.78428466667E+03  0.12500000000E+03 0.  0.
         21    1    1    2  502  501 -0.29431362527E+02 -0.20776025697E+03 -0.34005132932E+03  0.39958157621E+03  0.00000000000E+00 0.  1.
<mgrwt>
<rscale>  3 0.47285140E+03</rscale>
<asrwt>0</asrwt>
<pdfrwt beam="1">  1        2 0.17455388E+00 0.47285140E+03</pdfrwt>
<pdfrwt beam="2">  1       -2 0.75793707E-02 0.47285140E+03</pdfrwt>
<totfact> 0.22434821E+03</totfact>
</mgrwt>
</event>
<event>
 4    0  0.1264838E-002  0.4485582E+03  0.7546771E-02  0.1028153E+00
          4   -1    0    0  502    0  0.00000000000E+00  0.00000000000E+00  0.26637469058E+03  0.26637469058E+03  0.00000000000E+00 0.  1.
         -4   -1    0    0    0  501 -0.00000000000E+00 -0.00000000000E+00 -0.18883589916E+03  0.18883589916E+03  0.00000000000E+00 0. -1.
         25    1    1    2    0    0  0.51260086417E+02 -0.19937544841E+03  0.62423569392E+02  0.24879684062E+03  0.12500000000E+03 0.  0.
         21    1    1    2  502  501 -0.51260086417E+02  0.19937544841E+03  0.15115222027E+02  0.20641374912E+03  0.00000000000E+00 0.  1.
<mgrwt>
<rscale>  3 0.44855815E+03</rscale>
<asrwt>0</asrwt>
<pdfrwt beam="1">  1        4 0.40980722E-01 0.44855815E+03</pdfrwt>
<pdfrwt beam="2">  1       -4 0.29051677E-01 0.44855815E+03</pdfrwt>
<totfact> 0.12798984E+02</totfact>
</mgrwt>
</event>
<event>
 4    0  0.1264838E-002  0.5930189E+03  0.7546771E-02  0.9919996E-01
          2   -1    0    0  502    0  0.00000000000E+00  0.00000000000E+00  0.52040088757E+03  0.52040088757E+03  0.00000000000E+00 0.  1.
         -2   -1    0    0    0  501 -0.00000000000E+00 -0.00000000000E+00 -0.16894253532E+03  0.16894253532E+03  0.00000000000E+00 0. -1.
         25    1    1    2    0    0 -0.23283081751E+03 -0.67818296932E+01  0.37105516114E+03  0.45559095185E+03  0.12500000000E+03 0.  0.
         21    1    1    2  502  501  0.23283081751E+03  0.67818296932E+01 -0.19596808882E+02  0.23375247104E+03  0.00000000000E+00 0. -1.
<mgrwt>
<rscale>  3 0.59301887E+03</rscale>
<asrwt>0</asrwt>
<pdfrwt beam="1">  1        2 0.80061674E-01 0.59301887E+03</pdfrwt>
<pdfrwt beam="2">  1       -2 0.25991160E-01 0.59301887E+03</pdfrwt>
<totfact> 0.78860845E+02</totfact>
</mgrwt>
</event>
<event>
 4    0  0.1264838E-002  0.5713854E+03  0.7546771E-02  0.9966618E-01
         -1   -1    0    0    0  501 -0.00000000000E+00  0.00000000000E+00  0.35803436227E+03  0.35803436227E+03  0.00000000000E+00 0. -1.
          1   -1    0    0  502    0  0.00000000000E+00 -0.00000000000E+00 -0.22796779781E+03  0.22796779781E+03  0.00000000000E+00 0.  1.
         25    1    1    2    0    0 -0.28405255883E+02  0.27026743477E+03  0.55864015054E+02  0.30429777034E+03  0.12500000000E+03 0.  0.
         21    1    1    2  502  501  0.28405255883E+02 -0.27026743477E+03  0.74202549398E+02  0.28170438974E+03  0.00000000000E+00 0.  1.
<mgrwt>
<rscale>  3 0.57138535E+03</rscale>
<asrwt>0</asrwt>
<pdfrwt beam="1">  1        1 0.35071969E-01 0.57138535E+03</pdfrwt>
<pdfrwt beam="2">  1       -1 0.55082210E-01 0.57138535E+03</pdfrwt>
<totfact> 0.42312227E+02</totfact>
</mgrwt>
</event>
<event>
 4    0  0.1264838E-002  0.9653573E+03  0.7546771E-02  0.9347378E-01
         -2   -1    0    0    0  501 -0.00000000000E+00  0.00000000000E+00  0.15121116007E+03  0.15121116007E+03  0.00000000000E+00 0.  1.
          2   -1    0    0  502    0  0.00000000000E+00 -0.00000000000E+00 -0.15407504642E+04  0.15407504642E+04  0.00000000000E+00 0. -1.
         25    1    1    2    0    0  0.42495741830E+01  0.40218347449E+03 -0.26488927947E+03  0.49755495819E+03  0.12500000000E+03 0.  0.
         21    1    1    2  502  501 -0.42495741830E+01 -0.40218347449E+03 -0.11246500247E+04  0.11944066661E+04  0.00000000000E+00 0. -1.
<mgrwt>
<rscale>  3 0.96535727E+03</rscale>
<asrwt>0</asrwt>
<pdfrwt beam="1">  1        2 0.23703854E+00 0.96535727E+03</pdfrwt>
<pdfrwt beam="2">  1       -2 0.23263255E-01 0.96535727E+03</pdfrwt>
<totfact> 0.19662790E+02</totfact>
</mgrwt>
</event>
<event>
 4    0  0.1264838E-002  0.5083713E+03  0.7546771E-02  0.1011617E+00
          4   -1    0    0  502    0  0.00000000000E+00  0.00000000000E+00  0.24354594787E+03  0.24354594787E+03  0.00000000000E+00 0.  1.
         -4   -1    0    0    0  501 -0.00000000000E+00 -0.00000000000E+00 -0.26529011571E+03  0.26529011571E+03  0.00000000000E+00 0. -1.
         25    1    1    2    0    0 -0.17918310075E+03 -0.13071158526E+03 -0.10016484728E+03  0.27358746087E+03  0.12500000000E+03 0.  0.
         21    1    1    2  502  501  0.17918310075E+03  0.13071158526E+03  0.78420679446E+02  0.23524860271E+03  0.00000000000E+00 0.  1.
<mgrwt>
<rscale>  3 0.50837125E+03</rscale>
<asrwt>0</asrwt>
<pdfrwt beam="1">  1        4 0.37468608E-01 0.50837125E+03</pdfrwt>
<pdfrwt beam="2">  1       -4 0.40813864E-01 0.50837125E+03</pdfrwt>
<totfact> 0.79291004E+01</totfact>
</mgrwt>
</event>
<event>
 4    0  0.1264838E-002  0.9887563E+03  0.7546771E-02  0.9320963E-01
         -2   -1    0    0    0  501 -0.00000000000E+00  0.00000000000E+00  0.10805585230E+03  0.10805585230E+03  0.00000000000E+00 0. -1.
          2   -1    0    0  502    0  0.00000000000E+00 -0.00000000000E+00 -0.22618836222E+04  0.22618836222E+04  0.00000000000E+00 0.  1.
         25    1    1    2    0    0  0.20521867794E+03  0.26456672796E+02 -0.21494240374E+04  0.21629755787E+04  0.12500000000E+03 0.  0.
         21    1    1    2  502  501 -0.20521867794E+03 -0.26456672796E+02 -0.44037324613E+01  0.20696389581E+03  0.00000000000E+00 0. -1.
<mgrwt>
<rscale>  3 0.98875631E+03</rscale>
<asrwt>0</asrwt>
<pdfrwt beam="1">  1        2 0.34798208E+00 0.98875631E+03</pdfrwt>
<pdfrwt beam="2">  1       -2 0.16623978E-01 0.98875631E+03</pdfrwt>
<totfact> 0.14141615E+02</totfact>
</mgrwt>
</event>
<event>
 4    0  0.1264838E-002  0.6350882E+03  0.7546771E-02  0.9835170E-01
          2   -1    0    0  502    0  0.00000000000E+00  0.00000000000E+00  0.92853862343E+03  0.92853862343E+03  0.00000000000E+00 0.  1.
         -2   -1    0    0    0  501 -0.00000000000E+00 -0.00000000000E+00 -0.10859456373E+03  0.10859456373E+03  0.00000000000E+00 0. -1.
         25    1    1    2    0    0  0.22847519344E+03  0.16999180412E+03  0.60530390955E+03  0.68052623050E+03  0.12500000000E+03 0.  0.
         21    1    1    2  502  501 -0.22847519344E+03 -0.16999180412E+03  0.21464015015E+03  0.35660695666E+03  0.00000000000E+00 0. -1.
<mgrwt>
<rscale>  3 0.63508817E+03</rscale>
<asrwt>0</asrwt>
<pdfrwt beam="1">  1        2 0.14285209E+00 0.63508817E+03</pdfrwt>
<pdfrwt beam="2">  1       -2 0.16706857E-01 0.63508817E+03</pdfrwt>
<totfact> 0.82366761E+02</totfact>
</mgrwt>
</event>
<event>
 4    0  0.1264838E-002  0.6411347E+03  0.7546771E-02  0.9823558E-01
          1   -1    0    0  502    0  0.00000000000E+00  0.00000000000E+00  0.69739225778E+03  0.69739225778E+03  0.00000000000E+00 0.  1.
         -1   -1    0    0    0  501 -0.00000000000E+00 -0.00000000000E+00 -0.14735381792E+03  0.14735381792E+03  0.00000000000E+00 0. -1.
         25    1    1    2    0    0  0.20128098930E+03  0.22781727078E+03  0.21720469441E+03  0.39397668052E+03  0.12500000000E+03 0.  0.
         21    1    1    2  502  501 -0.20128098930E+03 -0.22781727078E+03  0.33283374545E+03  0.45076939518E+03  0.00000000000E+00 0. -1.
<mgrwt>
<rscale>  3 0.64113466E+03</rscale>
<asrwt>0</asrwt>
<pdfrwt beam="1">  1        1 0.10729111E+00 0.64113466E+03</pdfrwt>
<pdfrwt beam="2">  1       -1 0.22669819E-01 0.64113466E+03</pdfrwt>
<totfact> 0.45846491E+02</totfact>
</mgrwt>
</event>
<event>
 4    0  0.1264838E-002  0.5021030E+03  0.7546771E-02  0.1013231E+00
         -1   -1    0    0    0  501 -0.00000000000E+00  0.00000000000E+00  0.34679253214E+02  0.34679253214E+02  0.00000000000E+00 0.  1.
          1   -1    0    0  502    0  0.00000000000E+00 -0.00000000000E+00 -0.18174226924E+04  0.18174226924E+04  0.00000000000E+00 0. -1.
         25    1    1    2    0    0  0.20913395357E+03 -0.70681218394E+01 -0.13450889577E+04  0.13669953449E+04  0.12500000000E+03 0.  0.
         21    1    1    2  502  501 -0.20913395357E+03  0.70681218394E+01 -0.43765448148E+03  0.48510660070E+03  0.00000000000E+00 0.  1.
<mgrwt>
<rscale>  3 0.50210302E+03</rscale>
<asrwt>0</asrwt>
<pdfrwt beam="1">  1        1 0.27960355E+00 0.50210302E+03</pdfrwt>
<pdfrwt beam="2">  1       -1 0.53352686E-02 0.50210302E+03</pdfrwt>
<totfact> 0.69321453E+02</totfact>
</mgrwt>
</event>
<event>
 4    0  0.1264838E-002  0.5035402E+03  0.7546771E-02  0.1012859E+00
          2   -1    0    0  502    0  0.00000000000E+00  0.00000000000E+00  0.24147605113E+02  0.24147605113E+02  0.00000000000E+00 0.  1.
         -2   -1    0    0    0  501 -0.00000000000E+00 -0.00000000000E+00 -0.26250295875E+04  0.26250295875E+04  0.00000000000E+00 0. -1.
         25    1    1    2    0    0 -0.22407367886E+03  0.25728456806E+02 -0.10105991287E+04  0.10429796575E+04  0.12500000000E+03 0.  0.
         21    1    1    2  502  501  0.22407367886E+03 -0.25728456806E+02 -0.15902828537E+04  0.16061975351E+04  0.00000000000E+00 0. -1.
<mgrwt>
<rscale>  3 0.50354018E+03</rscale>
<asrwt>0</asrwt>
<pdfrwt beam="1">  1        2 0.37150191E-02 0.50354018E+03</pdfrwt>
<pdfrwt beam="2">  1       -2 0.40385038E+00 0.50354018E+03</pdfrwt>
<totfact> 0.19130589E+01</totfact>
</mgrwt>
</event>
<event>
 4    0  0.1264838E-002  0.6879711E+03  0.7546771E-02  0.9738027E-01
          1   -1    0    0  502    0  0.00000000000E+00  0.00000000000E+00  0.99223796209E+02  0.99223796209E+02  0.00000000000E+00 0.  1.
         -1   -1    0    0    0  501 -0.00000000000E+00 -0.00000000000E+00 -0.11925170657E+04  0.11925170657E+04  0.00000000000E+00 0. -1.
         25    1    1    2    0    0  0.11101824902E+03 -0.28968003475E+03 -0.33935667357E+03  0.47647405601E+03  0.12500000000E+03 0.  0.
         21    1    1    2  502  501 -0.11101824902E+03  0.28968003475E+03 -0.75393659596E+03  0.81526680595E+03  0.00000000000E+00 0. -1.
<mgrwt>
<rscale>  3 0.68797113E+03</rscale>
<asrwt>0</asrwt>
<pdfrwt beam="1">  1        1 0.15265200E-01 0.68797113E+03</pdfrwt>
<pdfrwt beam="2">  1       -1 0.18346415E+00 0.68797113E+03</pdfrwt>
<totfact> 0.75849091E+01</totfact>
</mgrwt>
</event>
<event>
 4    0  0.1264838E-002  0.5181169E+03  0.7546771E-02  0.1009155E+00
         -2   -1    0    0    0  501 -0.00000000000E+00  0.00000000000E+00  0.80214259878E+02  0.80214259878E+02  0.00000000000E+00 0.  1.
          2   -1    0    0  502    0  0.00000000000E+00 -0.00000000000E+00 -0.83665038083E+03  0.83665038083E+03  0.00000000000E+00 0. -1.
         25    1    1    2    0    0 -0.32664851157E+01  0.23145490585E+03 -0.26379897002E+03  0.37255461338E+03  0.12500000000E+03 0.  0.
         21    1    1    2  502  501  0.32664851157E+01 -0.23145490585E+03 -0.49263715093E+03  0.54431002732E+03  0.00000000000E+00 0. -1.
<mgrwt>
<rscale>  3 0.51811694E+03</rscale>
<asrwt>0</asrwt>
<pdfrwt beam="1">  1        2 0.12871544E+00 0.51811694E+03</pdfrwt>
<pdfrwt beam="2">  1       -2 0.12340656E-01 0.51811694E+03</pdfrwt>
<totfact> 0.15817779E+03</totfact>
</mgrwt>
</event>
<event>
 4    0  0.1264838E-002  0.5042140E+03  0.7546771E-02  0.1012685E+00
         -1   -1    0    0    0  501 -0.00000000000E+00  0.00000000000E+00  0.13168585799E+03  0.13168585799E+03  0.00000000000E+00 0.  1.
          1   -1    0    0  502    0  0.00000000000E+00 -0.00000000000E+00 -0.48264809538E+03  0.48264809538E+03  0.00000000000E+00 0. -1.
         25    1    1    2    0    0  0.13035533049E+03 -0.18699508335E+03 -0.26357289403E+03  0.37020986460E+03  0.12500000000E+03 0.  0.
         21    1    1    2  502  501 -0.13035533049E+03  0.18699508335E+03 -0.87389343366E+02  0.24412408877E+03  0.00000000000E+00 0.  1.
<mgrwt>
<rscale>  3 0.50421396E+03</rscale>
<asrwt>0</asrwt>
<pdfrwt beam="1">  1        1 0.74253552E-01 0.50421396E+03</pdfrwt>
<pdfrwt beam="2">  1       -1 0.20259363E-01 0.50421396E+03</pdfrwt>
<totfact> 0.93546921E+02</totfact>
</mgrwt>
</event>
<event>
 4    0  0.1264838E-002  0.7244530E+03  0.7546771E-02  0.9676305E-01
          2   -1    0    0  502    0  0.00000000000E+00  0.00000000000E+00  0.17282450145E+04  0.17282450145E+04  0.00000000000E+00 0.  1.
         -2   -1    0    0    0  501 -0.00000000000E+00 -0.00000000000E+00 -0.75919818946E+02  0.75919818946E+02  0.00000000000E+00 0. -1.
         25    1    1    2    0    0 -0.10986363701E+03 -0.25957684531E+03  0.13735116326E+04  0.14076964737E+04  0.12500000000E+03 0.  0.
         21    1    1    2  502  501  0.10986363701E+03  0.25957684531E+03  0.27881356301E+03  0.39646835974E+03  0.00000000000E+00 0. -1.
<mgrwt>
<rscale>  3 0.72445303E+03</rscale>
<asrwt>0</asrwt>
<pdfrwt beam="1">  1        2 0.26588382E+00 0.72445303E+03</pdfrwt>
<pdfrwt beam="2">  1       -2 0.11679973E-01 0.72445303E+03</pdfrwt>
<totfact> 0.51273805E+02</totfact>
</mgrwt>
</event>
<event>
 4    0  0.1264838E-002  0.4522221E+03  0.7546771E-02  0.1027061E+00
          4   -1    0    0  502    0  0.00000000000E+00  0.00000000000E+00  0.80259955829E+02  0.80259955829E+02  0.00000000000E+00 0. -1.
         -4   -1    0    0    0  501 -0.00000000000E+00 -0.00000000000E+00 -0.63700775248E+03  0.63700775248E+03  0.00000000000E+00 0.  1.
         25    1    1    2    0    0  0.11213328044E+03  0.16983636295E+03 -0.22535142715E+03  0.32836949992E+03  0.12500000000E+03 0.  0.
         21    1    1    2  502  501 -0.11213328044E+03 -0.16983636295E+03 -0.33139636950E+03  0.38889820838E+03  0.00000000000E+00 0.  1.
<mgrwt>
<rscale>  3 0.45222213E+03</rscale>
<asrwt>0</asrwt>
<pdfrwt beam="1">  1        4 0.12347686E-01 0.45222213E+03</pdfrwt>
<pdfrwt beam="2">  1       -4 0.98001192E-01 0.45222213E+03</pdfrwt>
<totfact> 0.92097473E+01</totfact>
</mgrwt>
</event>
<event>
 4    0  0.1264838E-002  0.4656974E+03  0.7546771E-02  0.1023142E+00
          1   -1    0    0  502    0  0.00000000000E+00  0.00000000000E+00  0.38259397090E+02  0.38259397090E+02  0.00000000000E+00 0. -1.
         -1   -1    0    0    0  501 -0.00000000000E+00 -0.00000000000E+00 -0.14171295437E+04  0.14171295437E+04  0.00000000000E+00 0.  1.
         25    1    1    2    0    0  0.85245685423E+02  0.19814421073E+03 -0.69963767974E+03  0.74272864361E+03  0.12500000000E+03 0.  0.
         21    1    1    2  502  501 -0.85245685423E+02 -0.19814421073E+03 -0.67923246691E+03  0.71266029722E+03  0.00000000000E+00 0.  1.
<mgrwt>
<rscale>  3 0.46569742E+03</rscale>
<asrwt>0</asrwt>
<pdfrwt beam="1">  1        1 0.58860604E-02 0.46569742E+03</pdfrwt>
<pdfrwt beam="2">  1       -1 0.21801995E+00 0.46569742E+03</pdfrwt>
<totfact> 0.16632460E+02</totfact>
</mgrwt>
</event>
<event>
 4    0  0.1264838E-002  0.5183713E+03  0.7546771E-02  0.1009092E+00
         -2   -1    0    0    0  501 -0.00000000000E+00  0.00000000000E+00  0.78973996879E+02  0.78973996879E+02  0.00000000000E+00 0. -1.
          2   -1    0    0  502    0  0.00000000000E+00 -0.00000000000E+00 -0.85062443886E+03  0.85062443886E+03  0.00000000000E+00 0.  1.
         25    1    1    2    0    0 -0.15771469817E+03 -0.15480580320E+03 -0.22229969912E+03  0.33746247044E+03  0.12500000000E+03 0.  0.
         21    1    1    2  502  501  0.15771469817E+03  0.15480580320E+03 -0.54935074286E+03  0.59213596530E+03  0.00000000000E+00 0.  1.
<mgrwt>
<rscale>  3 0.51837134E+03</rscale>
<asrwt>0</asrwt>
<pdfrwt beam="1">  1        2 0.13086529E+00 0.51837134E+03</pdfrwt>
<pdfrwt beam="2">  1       -2 0.12149846E-01 0.51837134E+03</pdfrwt>
<totfact> 0.15873013E+03</totfact>
</mgrwt>
</event>
<event>
 4    0  0.1264838E-002  0.4864068E+03  0.7546771E-02  0.1017389E+00
          2   -1    0    0  502    0  0.00000000000E+00  0.00000000000E+00  0.64879581345E+03  0.64879581345E+03  0.00000000000E+00 0.  1.
         -2   -1    0    0    0  501 -0.00000000000E+00 -0.00000000000E+00 -0.91165652778E+02  0.91165652778E+02  0.00000000000E+00 0. -1.
         25    1    1    2    0    0  0.15360879184E+03  0.14253138451E+03  0.43056882405E+03  0.49489935213E+03  0.12500000000E+03 0.  0.
         21    1    1    2  502  501 -0.15360879184E+03 -0.14253138451E+03  0.12706133662E+03  0.24506211409E+03  0.00000000000E+00 0. -1.
<mgrwt>
<rscale>  3 0.48640680E+03</rscale>
<asrwt>0</asrwt>
<pdfrwt beam="1">  1        2 0.99814738E-01 0.48640680E+03</pdfrwt>
<pdfrwt beam="2">  1       -2 0.14025485E-01 0.48640680E+03</pdfrwt>
<totfact> 0.17672951E+03</totfact>
</mgrwt>
</event>
<event>
 4    0  0.1264838E-002  0.6666233E+03  0.7546771E-02  0.9776077E-01
          1   -1    0    0  502    0  0.00000000000E+00  0.00000000000E+00  0.13627800956E+04  0.13627800956E+04  0.00000000000E+00 0.  1.
         -1   -1    0    0    0  501 -0.00000000000E+00 -0.00000000000E+00 -0.81522079234E+02  0.81522079234E+02  0.00000000000E+00 0. -1.
         25    1    1    2    0    0  0.23376248881E+03 -0.18465212710E+03  0.40064540512E+03  0.51466790250E+03  0.12500000000E+03 0.  0.
         21    1    1    2  502  501 -0.23376248881E+03  0.18465212710E+03  0.88061261122E+03  0.92963427232E+03  0.00000000000E+00 0. -1.
<mgrwt>
<rscale>  3 0.66662333E+03</rscale>
<asrwt>0</asrwt>
<pdfrwt beam="1">  1        1 0.20965846E+00 0.66662333E+03</pdfrwt>
<pdfrwt beam="2">  1       -1 0.12541859E-01 0.66662333E+03</pdfrwt>
<totfact> 0.36597736E+02</totfact>
</mgrwt>
</event>
<event>
 4    0  0.1264838E-002  0.5989665E+03  0.7546771E-02  0.9907552E-01
          1   -1    0    0  502    0  0.00000000000E+00  0.00000000000E+00  0.36838068178E+04  0.36838068178E+04  0.00000000000E+00 0.  1.
         -1   -1    0    0    0  501 -0.00000000000E+00 -0.00000000000E+00 -0.24347158266E+02  0.24347158266E+02  0.00000000000E+00 0. -1.
         25    1    1    2    0    0 -0.25095036949E+03  0.96569292834E+02  0.25206028036E+04  0.25379844778E+04  0.12500000000E+03 0.  0.
         21    1    1    2  502  501  0.25095036949E+03 -0.96569292834E+02  0.11388568560E+04  0.11701694983E+04  0.00000000000E+00 0. -1.
<mgrwt>
<rscale>  3 0.59896654E+03</rscale>
<asrwt>0</asrwt>
<pdfrwt beam="1">  1        1 0.56673907E+00 0.59896654E+03</pdfrwt>
<pdfrwt beam="2">  1       -1 0.37457196E-02 0.59896654E+03</pdfrwt>
<totfact> 0.56851485E+01</totfact>
</mgrwt>
</event>
<event>
 4    0  0.1264838E-002  0.6588363E+03  0.7546771E-02  0.9790338E-01
          2   -1    0    0  502    0  0.00000000000E+00  0.00000000000E+00  0.73530682589E+03  0.73530682589E+03  0.00000000000E+00 0. -1.
         -2   -1    0    0    0  501 -0.00000000000E+00 -0.00000000000E+00 -0.14757962746E+03  0.14757962746E+03  0.00000000000E+00 0.  1.
         25    1    1    2    0    0  0.26381927979E+03 -0.19739859773E+02  0.53982966711E+03  0.61402878104E+03  0.12500000000E+03 0.  0.
         21    1    1    2  502  501 -0.26381927979E+03  0.19739859773E+02  0.47897531317E+02  0.26885767231E+03  0.00000000000E+00 0.  1.
<mgrwt>
<rscale>  3 0.65883627E+03</rscale>
<asrwt>0</asrwt>
<pdfrwt beam="1">  1        2 0.11312412E+00 0.65883627E+03</pdfrwt>
<pdfrwt beam="2">  1       -2 0.22704559E-01 0.65883627E+03</pdfrwt>
<totfact> 0.65958805E+02</totfact>
</mgrwt>
</event>
<event>
 4    0  0.1264838E-002  0.5631362E+03  0.7546771E-02  0.9984983E-01
          1   -1    0    0  502    0  0.00000000000E+00  0.00000000000E+00  0.96309731578E+03  0.96309731578E+03  0.00000000000E+00 0.  1.
         -1   -1    0    0    0  501 -0.00000000000E+00 -0.00000000000E+00 -0.82318374207E+02  0.82318374207E+02  0.00000000000E+00 0. -1.
         25    1    1    2    0    0 -0.36061259259E+02 -0.23820793605E+03  0.67871789632E+03  0.73097634571E+03  0.12500000000E+03 0.  0.
         21    1    1    2  502  501  0.36061259259E+02  0.23820793605E+03  0.20206104525E+03  0.31443934427E+03  0.00000000000E+00 0. -1.
<mgrwt>
<rscale>  3 0.56313624E+03</rscale>
<asrwt>0</asrwt>
<pdfrwt beam="1">  1        1 0.14816881E+00 0.56313624E+03</pdfrwt>
<pdfrwt beam="2">  1       -1 0.12664366E-01 0.56313624E+03</pdfrwt>
<totfact> 0.70996925E+02</totfact>
</mgrwt>
</event>
<event>
 4    0  0.1264838E-002  0.5463562E+03  0.7546771E-02  0.1002341E+00
          3   -1    0    0  502    0  0.00000000000E+00  0.00000000000E+00  0.86620111922E+03  0.86620111922E+03  0.00000000000E+00 0. -1.
         -3   -1    0    0    0  501 -0.00000000000E+00 -0.00000000000E+00 -0.86153511145E+02  0.86153511145E+02  0.00000000000E+00 0.  1.
         25    1    1    2    0    0  0.22420483220E+03  0.11656042239E+03  0.50848932791E+03  0.58141253465E+03  0.12500000000E+03 0.  0.
         21    1    1    2  502  501 -0.22420483220E+03 -0.11656042239E+03  0.27155828017E+03  0.37094209572E+03  0.00000000000E+00 0.  1.
<mgrwt>
<rscale>  3 0.54635618E+03</rscale>
<asrwt>0</asrwt>
<pdfrwt beam="1">  1        3 0.13326170E+00 0.54635618E+03</pdfrwt>
<pdfrwt beam="2">  1       -3 0.13254387E-01 0.54635618E+03</pdfrwt>
<totfact> 0.54659095E+01</totfact>
</mgrwt>
</event>
<event>
 4    0  0.1264838E-002  0.4554452E+03  0.7546771E-02  0.1026111E+00
          2   -1    0    0  502    0  0.00000000000E+00  0.00000000000E+00  0.98809307632E+03  0.98809307632E+03  0.00000000000E+00 0. -1.
         -2   -1    0    0    0  501 -0.00000000000E+00 -0.00000000000E+00 -0.52482495320E+02  0.52482495320E+02  0.00000000000E+00 0.  1.
         25    1    1    2    0    0 -0.12652761369E+03  0.16609358053E+03  0.56532184974E+03  0.61547551399E+03  0.12500000000E+03 0.  0.
         21    1    1    2  502  501  0.12652761369E+03 -0.16609358053E+03  0.37028873125E+03  0.42510005765E+03  0.00000000000E+00 0.  1.
<mgrwt>
<rscale>  3 0.45544523E+03</rscale>
<asrwt>0</asrwt>
<pdfrwt beam="1">  1        2 0.15201431E+00 0.45544523E+03</pdfrwt>
<pdfrwt beam="2">  1       -2 0.80742308E-02 0.45544523E+03</pdfrwt>
<totfact> 0.24943581E+03</totfact>
</mgrwt>
</event>
<event>
 4    0  0.1264838E-002  0.6745862E+03  0.7546771E-02  0.9761708E-01
          2   -1    0    0  502    0  0.00000000000E+00  0.00000000000E+00  0.35842566066E+04  0.35842566066E+04  0.00000000000E+00 0. -1.
         -2   -1    0    0    0  501 -0.00000000000E+00 -0.00000000000E+00 -0.31740654550E+02  0.31740654550E+02  0.00000000000E+00 0.  1.
         25    1    1    2    0    0 -0.31937307016E+03 -0.34388642991E+02  0.21262341039E+04  0.21539912259E+04  0.12500000000E+03 0.  0.
         21    1    1    2  502  501  0.31937307016E+03  0.34388642991E+02  0.14262818481E+04  0.14620060352E+04  0.00000000000E+00 0.  1.
<mgrwt>
<rscale>  3 0.67458625E+03</rscale>
<asrwt>0</asrwt>
<pdfrwt beam="1">  1        2 0.55142377E+00 0.67458625E+03</pdfrwt>
<pdfrwt beam="2">  1       -2 0.48831805E-02 0.67458625E+03</pdfrwt>
<totfact> 0.16569061E+02</totfact>
</mgrwt>
</event>
<event>
 4    0  0.1264838E-002  0.6910057E+03  0.7546771E-02  0.9732738E-01
         -2   -1    0    0    0  501 -0.00000000000E+00  0.00000000000E+00  0.13281910601E+03  0.13281910601E+03  0.00000000000E+00 0. -1.
          2   -1    0    0  502    0  0.00000000000E+00 -0.00000000000E+00 -0.89875801707E+03  0.89875801707E+03  0.00000000000E+00 0.  1.
         25    1    1    2    0    0 -0.30393646152E+03  0.85195267766E+02 -0.55939008869E+03  0.65435302216E+03  0.12500000000E+03 0.  0.
         21    1    1    2  502  501  0.30393646152E+03 -0.85195267766E+02 -0.20654882237E+03  0.37722410092E+03  0.00000000000E+00 0. -1.
<mgrwt>
<rscale>  3 0.69100575E+03</rscale>
<asrwt>0</asrwt>
<pdfrwt beam="1">  1        2 0.13827047E+00 0.69100575E+03</pdfrwt>
<pdfrwt beam="2">  1       -2 0.20433708E-01 0.69100575E+03</pdfrwt>
<totfact> 0.60755143E+02</totfact>
</mgrwt>
</event>
<event>
 4    0  0.1264838E-002  0.5880999E+03  0.7546771E-02  0.9930407E-01
         -2   -1    0    0    0  501 -0.00000000000E+00  0.00000000000E+00  0.98401410733E+03  0.98401410733E+03  0.00000000000E+00 0.  1.
          2   -1    0    0  502    0  0.00000000000E+00 -0.00000000000E+00 -0.87870069258E+02  0.87870069258E+02  0.00000000000E+00 0. -1.
         25    1    1    2    0    0  0.14746621050E+02 -0.27971690504E+03  0.50339004230E+03  0.58947904499E+03  0.12500000000E+03 0.  0.
         21    1    1    2  502  501 -0.14746621050E+02  0.27971690504E+03  0.39275399577E+03  0.48240513160E+03  0.00000000000E+00 0. -1.
<mgrwt>
<rscale>  3 0.58809995E+03</rscale>
<asrwt>0</asrwt>
<pdfrwt beam="1">  1        2 0.13518473E-01 0.58809995E+03</pdfrwt>
<pdfrwt beam="2">  1       -2 0.15138678E+00 0.58809995E+03</pdfrwt>
<totfact> 0.13545528E+02</totfact>
</mgrwt>
</event>
<event>
 4    0  0.1264838E-002  0.6722458E+03  0.7546771E-02  0.9765909E-01
         -1   -1    0    0    0  501 -0.00000000000E+00  0.00000000000E+00  0.13445001483E+04  0.13445001483E+04  0.00000000000E+00 0. -1.
          1   -1    0    0  502    0  0.00000000000E+00 -0.00000000000E+00 -0.84030196613E+02  0.84030196613E+02  0.00000000000E+00 0.  1.
         25    1    1    2    0    0  0.20349041420E+03  0.18565422236E+03  0.10165460027E+04  0.10605972914E+04  0.12500000000E+03 0.  0.
         21    1    1    2  502  501 -0.20349041420E+03 -0.18565422236E+03  0.24392394892E+03  0.36793305344E+03  0.00000000000E+00 0.  1.
<mgrwt>
<rscale>  3 0.67224582E+03</rscale>
<asrwt>0</asrwt>
<pdfrwt beam="1">  1        1 0.12927724E-01 0.67224582E+03</pdfrwt>
<pdfrwt beam="2">  1       -1 0.20684616E+00 0.67224582E+03</pdfrwt>
<totfact> 0.65597450E+01</totfact>
</mgrwt>
</event>
<event>
 4    0  0.1264838E-002  0.5470105E+03  0.7546771E-02  0.1002188E+00
          2   -1    0    0  502    0  0.00000000000E+00  0.00000000000E+00  0.43849820877E+03  0.43849820877E+03  0.00000000000E+00 0. -1.
         -2   -1    0    0    0  501 -0.00000000000E+00 -0.00000000000E+00 -0.17059393219E+03  0.17059393219E+03  0.00000000000E+00 0.  1.
         25    1    1    2    0    0  0.25789682634E+03 -0.15043786778E+02  0.11707754941E+03  0.30995038496E+03  0.12500000000E+03 0.  0.
         21    1    1    2  502  501 -0.25789682634E+03  0.15043786778E+02  0.15082672717E+03  0.29914175600E+03  0.00000000000E+00 0. -1.
<mgrwt>
<rscale>  3 0.54701054E+03</rscale>
<asrwt>0</asrwt>
<pdfrwt beam="1">  1        2 0.67461262E-01 0.54701054E+03</pdfrwt>
<pdfrwt beam="2">  1       -2 0.26245220E-01 0.54701054E+03</pdfrwt>
<totfact> 0.94285782E+02</totfact>
</mgrwt>
</event>
<event>
 4    0  0.1264838E-002  0.5114364E+03  0.7546771E-02  0.1010836E+00
         -1   -1    0    0    0  501 -0.00000000000E+00  0.00000000000E+00  0.24672630866E+03  0.24672630866E+03  0.00000000000E+00 0. -1.
          1   -1    0    0  502    0  0.00000000000E+00 -0.00000000000E+00 -0.26503780784E+03  0.26503780784E+03  0.00000000000E+00 0.  1.
         25    1    1    2    0    0 -0.24024826381E+03 -0.11682744094E+01 -0.10221304407E+00  0.27082393465E+03  0.12500000000E+03 0.  0.
         21    1    1    2  502  501  0.24024826381E+03  0.11682744094E+01 -0.18209286137E+02  0.24094018185E+03  0.00000000000E+00 0. -1.
<mgrwt>
<rscale>  3 0.51143641E+03</rscale>
<asrwt>0</asrwt>
<pdfrwt beam="1">  1        1 0.40775047E-01 0.51143641E+03</pdfrwt>
<pdfrwt beam="2">  1       -1 0.37957894E-01 0.51143641E+03</pdfrwt>
<totfact> 0.69582522E+02</totfact>
</mgrwt>
</event>
<event>
 4    0  0.1264838E-002  0.7961986E+03  0.7546771E-02  0.9565536E-01
         -2   -1    0    0    0  501 -0.00000000000E+00  0.00000000000E+00  0.50323215717E+03  0.50323215717E+03  0.00000000000E+00 0. -1.
          2   -1    0    0  502    0  0.00000000000E+00 -0.00000000000E+00 -0.31493033603E+03  0.31493033603E+03  0.00000000000E+00 0.  1.
         25    1    1    2    0    0  0.28731845885E+03 -0.17381113978E+02 -0.17131833479E+03  0.35753177726E+03  0.12500000000E+03 0.  0.
         21    1    1    2  502  501 -0.28731845885E+03  0.17381113978E+02  0.35962015592E+03  0.46063071594E+03  0.00000000000E+00 0. -1.
<mgrwt>
<rscale>  3 0.79619865E+03</rscale>
<asrwt>0</asrwt>
<pdfrwt beam="1">  1        2 0.48450821E-01 0.79619865E+03</pdfrwt>
<pdfrwt beam="2">  1       -2 0.77420331E-01 0.79619865E+03</pdfrwt>
<totfact> 0.15592130E+02</totfact>
</mgrwt>
</event>
<event>
 4    0  0.1264838E-002  0.5361166E+03  0.7546771E-02  0.1004759E+00
          1   -1    0    0  502    0  0.00000000000E+00  0.00000000000E+00  0.14726722713E+03  0.14726722713E+03  0.00000000000E+00 0.  1.
         -1   -1    0    0    0  501 -0.00000000000E+00 -0.00000000000E+00 -0.48792432230E+03  0.48792432230E+03  0.00000000000E+00 0. -1.
         25    1    1    2    0    0 -0.16548419415E+03 -0.16656261535E+03 -0.66397756138E+02  0.27415649795E+03  0.12500000000E+03 0.  0.
         21    1    1    2  502  501  0.16548419415E+03  0.16656261535E+03 -0.27425933903E+03  0.36103505147E+03  0.00000000000E+00 0. -1.
<mgrwt>
<rscale>  3 0.53611664E+03</rscale>
<asrwt>0</asrwt>
<pdfrwt beam="1">  1        1 0.22656496E-01 0.53611664E+03</pdfrwt>
<pdfrwt beam="2">  1       -1 0.75065282E-01 0.53611664E+03</pdfrwt>
<totfact> 0.40240798E+02</totfact>
</mgrwt>
</event>
