<event>
 5    0  0.1911311E+001  0.2649558E+03  0.7546771E-02  0.1104202E+00
         21   -1    0    0  504  501  0.00000000000E+00  0.00000000000E+00  0.55808968350E+03  0.55808968350E+03  0.00000000000E+00 0. -1.
         21   -1    0    0  503  502 -0.00000000000E+00 -0.00000000000E+00 -0.40582476702E+03  0.40582476702E+03  0.00000000000E+00 0. -1.
         25    1    1    2    0    0 -0.13186155478E+03  0.16194301883E+03  0.32504125399E+03  0.40606628495E+03  0.12500000000E+03 0.  0.
         21    1    1    2  503  501  0.18827452239E+03 -0.14365833936E+03 -0.32059351133E+03  0.39857899312E+03  0.00000000000E+00 0. -1.
         21    1    1    2  504  502 -0.56412967612E+02 -0.18284679473E+02  0.14781717381E+03  0.15926917245E+03  0.00000000000E+00 0. -1.
<mgrwt>
<rscale>  4 0.26495582E+03</rscale>
<asrwt>0</asrwt>
<pdfrwt beam="1">  1       21 0.85859951E-01 0.26495582E+03</pdfrwt>
<pdfrwt beam="2">  1       21 0.62434580E-01 0.26495582E+03</pdfrwt>
<totfact> 0.26372686E+03</totfact>
</mgrwt>
</event>
<event>
 5    0  0.1911311E+001  0.3118570E+03  0.7546771E-02  0.1079459E+00
         21   -1    0    0  502  501  0.00000000000E+00  0.00000000000E+00  0.23602097596E+03  0.23602097596E+03  0.00000000000E+00 0. -1.
         21   -1    0    0  504  502 -0.00000000000E+00 -0.00000000000E+00 -0.20395123200E+04  0.20395123200E+04  0.00000000000E+00 0. -1.
         25    1    1    2    0    0  0.13545224066E+03 -0.44434088507E+03 -0.10146392105E+04  0.11228997547E+04  0.12500000000E+03 0.  0.
         21    1    1    2  503  501  0.64496911315E+00  0.26937691122E+03  0.59440749749E+02  0.27585782392E+03  0.00000000000E+00 0. -1.
         21    1    1    2  504  503 -0.13609720977E+03  0.17496397385E+03 -0.84829288329E+03  0.87677571733E+03  0.00000000000E+00 0. -1.
<mgrwt>
<rscale>  4 0.31185698E+03</rscale>
<asrwt>0</asrwt>
<pdfrwt beam="1">  1       21 0.36310920E-01 0.31185698E+03</pdfrwt>
<pdfrwt beam="2">  1       21 0.31377112E+00 0.31185698E+03</pdfrwt>
<totfact> 0.17971676E+02</totfact>
</mgrwt>
</event>
<event>
 5    0  0.1911311E+001  0.3164356E+03  0.7546771E-02  0.1077302E+00
         21   -1    0    0  502  501  0.00000000000E+00  0.00000000000E+00  0.24832441193E+03  0.24832441193E+03  0.00000000000E+00 0.  1.
         21   -1    0    0  504  502 -0.00000000000E+00 -0.00000000000E+00 -0.18635424269E+04  0.18635424269E+04  0.00000000000E+00 0.  1.
         25    1    1    2    0    0 -0.27033597722E+03  0.11106448979E+03  0.11047135645E+03  0.33652010649E+03  0.12500000000E+03 0.  0.
         21    1    1    2  503  501  0.10966211030E+02  0.20127807611E+02  0.23420271732E+01  0.23040649185E+02  0.00000000000E+00 0. -1.
         21    1    1    2  504  503  0.25936976619E+03 -0.13119229740E+03 -0.17280313986E+04  0.17523060832E+04  0.00000000000E+00 0.  1.
<mgrwt>
<rscale>  4 0.31643557E+03</rscale>
<asrwt>0</asrwt>
<pdfrwt beam="1">  1       21 0.38203755E-01 0.31643557E+03</pdfrwt>
<pdfrwt beam="2">  1       21 0.28669884E+00 0.31643557E+03</pdfrwt>
<totfact> 0.23343716E+02</totfact>
</mgrwt>
</event>
<event>
 5    0  0.1386183E+002  0.2074477E+03  0.7546771E-02  0.1143603E+00
         21   -1    0    0  502  501  0.00000000000E+00  0.00000000000E+00  0.28869966805E+03  0.28869966805E+03  0.00000000000E+00 0. -1.
         21   -1    0    0  504  502 -0.00000000000E+00 -0.00000000000E+00 -0.64627510076E+03  0.64627510076E+03  0.00000000000E+00 0.  1.
         25    1    1    2    0    0  0.20046437244E+03 -0.31023599255E+02 -0.56275866646E+03  0.61112252863E+03  0.12500000000E+03 0.  0.
         21    1    1    2  503  501 -0.16289238417E+03  0.17935421014E+02  0.22583230523E+03  0.27902659055E+03  0.00000000000E+00 0. -1.
         21    1    1    2  504  503 -0.37571988263E+02  0.13088178241E+02 -0.20649071485E+02  0.44825649632E+02  0.00000000000E+00 0.  1.
<mgrwt>
<rscale>  4 0.20744773E+03</rscale>
<asrwt>0</asrwt>
<pdfrwt beam="1">  1       21 0.44415334E-01 0.20744773E+03</pdfrwt>
<pdfrwt beam="2">  1       21 0.99426937E-01 0.20744773E+03</pdfrwt>
<totfact> 0.40025111E+03</totfact>
</mgrwt>
</event>
<event>
 5    0  0.1911311E+001  0.2569675E+03  0.7546771E-02  0.1108979E+00
         21   -1    0    0  502  501  0.00000000000E+00  0.00000000000E+00  0.43139840961E+03  0.43139840961E+03  0.00000000000E+00 0.  1.
         21   -1    0    0  504  502 -0.00000000000E+00 -0.00000000000E+00 -0.17757317439E+03  0.17757317439E+03  0.00000000000E+00 0.  1.
         25    1    1    2    0    0  0.14747222390E+03 -0.17361180822E+03  0.11428426087E+03  0.28385737450E+03  0.12500000000E+03 0.  0.
         21    1    1    2  503  501 -0.21687535078E+02 -0.10256082347E+02  0.94931134036E+02  0.97915558582E+02  0.00000000000E+00 0.  1.
         21    1    1    2  504  503 -0.12578468882E+03  0.18386789057E+03  0.44609840320E+02  0.22719865092E+03  0.00000000000E+00 0.  1.
<mgrwt>
<rscale>  4 0.25696752E+03</rscale>
<asrwt>0</asrwt>
<pdfrwt beam="1">  1       21 0.66368986E-01 0.25696752E+03</pdfrwt>
<pdfrwt beam="2">  1       21 0.27318950E-01 0.25696752E+03</pdfrwt>
<totfact> 0.25746753E+04</totfact>
</mgrwt>
</event>
