<event>
 5    0  0.3050180E+000  0.2966598E+03  0.7546771E-02  0.1086922E+00
         21   -1    0    0  502  501  0.00000000000E+00  0.00000000000E+00  0.19695412812E+03  0.19695412812E+03  0.00000000000E+00 0.  1.
         21   -1    0    0  503  502 -0.00000000000E+00 -0.00000000000E+00 -0.41107111001E+03  0.41107111001E+03  0.00000000000E+00 0.  1.
         25    1    1    2    0    0 -0.25605368790E+03  0.82574611589E+02 -0.13421559493E+03  0.32560848191E+03  0.12500000000E+03 0.  0.
         21    1    1    2  503  504  0.23739282588E+03 -0.68109751131E+02 -0.69114550790E+02  0.25645879418E+03  0.00000000000E+00 0.  1.
         21    1    1    2  504  501  0.18660862020E+02 -0.14464860458E+02 -0.10786836168E+02  0.25957962052E+02  0.00000000000E+00 0.  1.
<mgrwt>
<rscale>  4 0.29665983E+03</rscale>
<asrwt>0</asrwt>
<pdfrwt beam="1">  1       21 0.30300635E-01 0.29665983E+03</pdfrwt>
<pdfrwt beam="2">  1       21 0.63241709E-01 0.29665983E+03</pdfrwt>
<totfact> 0.22988138E+04</totfact>
</mgrwt>
</event>
<event>
 5    0  0.2159162E+000  0.2495319E+03  0.7546771E-02  0.1113601E+00
         21   -1    0    0  502  501  0.00000000000E+00  0.00000000000E+00  0.31234505471E+03  0.31234505471E+03  0.00000000000E+00 0.  1.
         21   -1    0    0  503  502 -0.00000000000E+00 -0.00000000000E+00 -0.21802617420E+03  0.21802617420E+03  0.00000000000E+00 0.  1.
         25    1    1    2    0    0 -0.78926247032E+01  0.20204744696E+03 -0.39050526465E+02  0.24090539215E+03  0.12500000000E+03 0.  0.
         21    1    1    2  503  504 -0.46221727717E+01 -0.22198554576E+03  0.14292742123E+03  0.26405907435E+03  0.00000000000E+00 0.  1.
         21    1    1    2  504  501  0.12514797475E+02  0.19938098799E+02 -0.95580142591E+01  0.25406762409E+02  0.00000000000E+00 0.  1.
<mgrwt>
<rscale>  4 0.24953195E+03</rscale>
<asrwt>0</asrwt>
<pdfrwt beam="1">  1       21 0.48053085E-01 0.24953195E+03</pdfrwt>
<pdfrwt beam="2">  1       21 0.33542488E-01 0.24953195E+03</pdfrwt>
<totfact> 0.34463010E+04</totfact>
</mgrwt>
</event>
<event>
 5    0  0.2159162E+000  0.3451414E+03  0.7546771E-02  0.1064627E+00
         21   -1    0    0  502  501  0.00000000000E+00  0.00000000000E+00  0.24736291741E+04  0.24736291741E+04  0.00000000000E+00 0. -1.
         21   -1    0    0  503  502 -0.00000000000E+00 -0.00000000000E+00 -0.76107978774E+03  0.76107978774E+03  0.00000000000E+00 0. -1.
         25    1    1    2    0    0 -0.27574692816E+03  0.16571425726E+03  0.24249389764E+04  0.24493778032E+04  0.12500000000E+03 0.  0.
         21    1    1    2  503  504  0.11955542648E+03 -0.78526294130E+02 -0.40707962465E+03  0.43147850431E+03  0.00000000000E+00 0. -1.
         21    1    1    2  504  501  0.15619150168E+03 -0.87187963131E+02 -0.30530996533E+03  0.35385265442E+03  0.00000000000E+00 0. -1.
<mgrwt>
<rscale>  4 0.34514140E+03</rscale>
<asrwt>0</asrwt>
<pdfrwt beam="1">  1       21 0.38055833E+00 0.34514140E+03</pdfrwt>
<pdfrwt beam="2">  1       21 0.11708920E+00 0.34514140E+03</pdfrwt>
<totfact> 0.50580576E+00</totfact>
</mgrwt>
</event>
<event>
 5    0  0.2159162E+000  0.3397416E+03  0.7546771E-02  0.1066906E+00
         21   -1    0    0  502  501  0.00000000000E+00  0.00000000000E+00  0.13978620497E+04  0.13978620497E+04  0.00000000000E+00 0.  1.
         21   -1    0    0  503  502 -0.00000000000E+00 -0.00000000000E+00 -0.15095957247E+04  0.15095957247E+04  0.00000000000E+00 0. -1.
         25    1    1    2    0    0 -0.30866881653E+03  0.63071103471E+02  0.13407855512E+04  0.13829625074E+04  0.12500000000E+03 0.  0.
         21    1    1    2  503  504 -0.56978728459E+02  0.14299403000E+02 -0.65411779896E+02  0.87918993239E+02  0.00000000000E+00 0. -1.
         21    1    1    2  504  501  0.36564754499E+03 -0.77370506471E+02 -0.13871074464E+04  0.14365762738E+04  0.00000000000E+00 0. -1.
<mgrwt>
<rscale>  4 0.33974162E+03</rscale>
<asrwt>0</asrwt>
<pdfrwt beam="1">  1       21 0.21505570E+00 0.33974162E+03</pdfrwt>
<pdfrwt beam="2">  1       21 0.23224550E+00 0.33974162E+03</pdfrwt>
<totfact> 0.73851383E+00</totfact>
</mgrwt>
</event>
<event>
 5    0  0.3772281E+000  0.2369429E+03  0.7546771E-02  0.1121846E+00
         21   -1    0    0  502  501  0.00000000000E+00  0.00000000000E+00  0.55746070354E+02  0.55746070354E+02  0.00000000000E+00 0.  1.
         21   -1    0    0  503  502 -0.00000000000E+00 -0.00000000000E+00 -0.16967216102E+04  0.16967216102E+04  0.00000000000E+00 0.  1.
         25    1    1    2    0    0 -0.43745119576E+02  0.19647723073E+03 -0.24210229811E+03  0.33875575336E+03  0.12500000000E+03 0.  0.
         21    1    1    2  503  504  0.27263062717E+02 -0.17528018643E+03 -0.12255746201E+04  0.12383454961E+04  0.00000000000E+00 0.  1.
         21    1    1    2  504  501  0.16482056859E+02 -0.21197044299E+02 -0.17329862164E+03  0.17536643108E+03  0.00000000000E+00 0. -1.
<mgrwt>
<rscale>  4 0.23694290E+03</rscale>
<asrwt>0</asrwt>
<pdfrwt beam="1">  1       21 0.85763180E-02 0.23694290E+03</pdfrwt>
<pdfrwt beam="2">  1       21 0.26103411E+00 0.23694290E+03</pdfrwt>
<totfact> 0.58378683E+03</totfact>
</mgrwt>
</event>
<event>
 5    0  0.2159162E+000  0.2851761E+03  0.7546771E-02  0.1092895E+00
         21   -1    0    0  502  501  0.00000000000E+00  0.00000000000E+00  0.72305345183E+03  0.72305345183E+03  0.00000000000E+00 0.  1.
         21   -1    0    0  503  502 -0.00000000000E+00 -0.00000000000E+00 -0.12722779969E+03  0.12722779969E+03  0.00000000000E+00 0. -1.
         25    1    1    2    0    0 -0.25229893097E+03 -0.45229138832E+02  0.46586994183E+03  0.54622360647E+03  0.12500000000E+03 0.  0.
         21    1    1    2  503  504  0.48423260652E+02 -0.23901897368E+01  0.72034418289E+02  0.86830194042E+02  0.00000000000E+00 0. -1.
         21    1    1    2  504  501  0.20387567031E+03  0.47619328569E+02  0.57921292017E+02  0.21722745100E+03  0.00000000000E+00 0. -1.
<mgrwt>
<rscale>  4 0.28517613E+03</rscale>
<asrwt>0</asrwt>
<pdfrwt beam="1">  1       21 0.11123899E+00 0.28517613E+03</pdfrwt>
<pdfrwt beam="2">  1       21 0.19573508E-01 0.28517613E+03</pdfrwt>
<totfact> 0.14497516E+04</totfact>
</mgrwt>
</event>
<event>
 5    0  0.2159162E+000  0.4300958E+03  0.7546771E-02  0.1033830E+00
         21   -1    0    0  502  501  0.00000000000E+00  0.00000000000E+00  0.44016324142E+03  0.44016324142E+03  0.00000000000E+00 0.  1.
         21   -1    0    0  503  502 -0.00000000000E+00 -0.00000000000E+00 -0.49248857040E+03  0.49248857040E+03  0.00000000000E+00 0.  1.
         25    1    1    2    0    0 -0.33991591304E+03 -0.23197976352E+03 -0.21901607064E+03  0.48264943574E+03  0.12500000000E+03 0.  0.
         21    1    1    2  503  504  0.32121421385E+03  0.21602404588E+03  0.13514970841E+03  0.41001268671E+03  0.00000000000E+00 0.  1.
         21    1    1    2  504  501  0.18701699188E+02  0.15955717633E+02  0.31541033249E+02  0.39989689373E+02  0.00000000000E+00 0. -1.
<mgrwt>
<rscale>  4 0.43009585E+03</rscale>
<asrwt>0</asrwt>
<pdfrwt beam="1">  1       21 0.67717422E-01 0.43009585E+03</pdfrwt>
<pdfrwt beam="2">  1       21 0.75767472E-01 0.43009585E+03</pdfrwt>
<totfact> 0.27110695E+03</totfact>
</mgrwt>
</event>
<event>
 5    0  0.2159162E+000  0.3002682E+03  0.7546771E-02  0.1085107E+00
         21   -1    0    0  502  501  0.00000000000E+00  0.00000000000E+00  0.18918238427E+04  0.18918238427E+04  0.00000000000E+00 0. -1.
         21   -1    0    0  503  502 -0.00000000000E+00 -0.00000000000E+00 -0.64492188715E+03  0.64492188715E+03  0.00000000000E+00 0.  1.
         25    1    1    2    0    0 -0.23473744200E+03  0.14081416171E+03  0.18356340142E+04  0.18601364275E+04  0.12500000000E+03 0.  0.
         21    1    1    2  503  504  0.23636141672E+03 -0.72087963065E+02 -0.53515258612E+03  0.58945032374E+03  0.00000000000E+00 0.  1.
         21    1    1    2  504  501 -0.16239747195E+01 -0.68726198646E+02 -0.53579472540E+02  0.87158978607E+02  0.00000000000E+00 0. -1.
<mgrwt>
<rscale>  4 0.30026819E+03</rscale>
<asrwt>0</asrwt>
<pdfrwt beam="1">  1       21 0.29104982E+00 0.30026819E+03</pdfrwt>
<pdfrwt beam="2">  1       21 0.99218753E-01 0.30026819E+03</pdfrwt>
<totfact> 0.27603721E+01</totfact>
</mgrwt>
</event>
<event>
 5    0  0.2159162E+000  0.2538607E+03  0.7546771E-02  0.1110889E+00
         21   -1    0    0  502  501  0.00000000000E+00  0.00000000000E+00  0.19361915064E+03  0.19361915064E+03  0.00000000000E+00 0. -1.
         21   -1    0    0  503  502 -0.00000000000E+00 -0.00000000000E+00 -0.23618367329E+04  0.23618367329E+04  0.00000000000E+00 0. -1.
         25    1    1    2    0    0 -0.98179638258E+02 -0.19996234373E+03  0.95923572846E+02  0.27285621141E+03  0.12500000000E+03 0.  0.
         21    1    1    2  503  504 -0.29417710805E+02  0.63018507751E+02 -0.24144723562E+03  0.25126380881E+03  0.00000000000E+00 0. -1.
         21    1    1    2  504  501  0.12759734906E+03  0.13694383597E+03 -0.20226939195E+04  0.20313358633E+04  0.00000000000E+00 0. -1.
<mgrwt>
<rscale>  4 0.25386072E+03</rscale>
<asrwt>0</asrwt>
<pdfrwt beam="1">  1       21 0.29787564E-01 0.25386072E+03</pdfrwt>
<pdfrwt beam="2">  1       21 0.36335947E+00 0.25386072E+03</pdfrwt>
<totfact> 0.14366410E+02</totfact>
</mgrwt>
</event>
