<event>
 5    0  0.2243397E+000  0.2931342E+03  0.7546771E-02  0.1088724E+00
         21   -1    0    0  502  501  0.00000000000E+00  0.00000000000E+00  0.17226787678E+04  0.17226787678E+04  0.00000000000E+00 0.  1.
         21   -1    0    0  503  502 -0.00000000000E+00 -0.00000000000E+00 -0.47597343047E+02  0.47597343047E+02  0.00000000000E+00 0.  1.
         25    1    1    2    0    0 -0.11132041542E+03 -0.24064580669E+03  0.72455631562E+03  0.78160699439E+03  0.12500000000E+03 0.  0.
         21    1    1    2  503  504  0.29744525647E+02  0.26123028522E+02  0.95574696120E+02  0.10344888575E+03  0.00000000000E+00 0.  1.
         21    1    1    2  504  501  0.81575889771E+02  0.21452277817E+03  0.85495041299E+03  0.88522023069E+03  0.00000000000E+00 0.  1.
<mgrwt>
<rscale>  4 0.29313417E+03</rscale>
<asrwt>0</asrwt>
<pdfrwt beam="1">  1       21 0.26502745E+00 0.29313417E+03</pdfrwt>
<pdfrwt beam="2">  1       21 0.73226695E-02 0.29313417E+03</pdfrwt>
<totfact> 0.69873161E+03</totfact>
</mgrwt>
</event>
<event>
 5    0  0.1856407E+000  0.3140994E+03  0.7546771E-02  0.1079503E+00
         21   -1    0    0  502  501  0.00000000000E+00  0.00000000000E+00  0.10314294413E+04  0.10314294413E+04  0.00000000000E+00 0.  1.
         21   -1    0    0  503  502 -0.00000000000E+00 -0.00000000000E+00 -0.93514793529E+02  0.93514793529E+02  0.00000000000E+00 0. -1.
         25    1    1    2    0    0 -0.83559307550E+02  0.26520702152E+03  0.50905937095E+03  0.59336613090E+03  0.12500000000E+03 0.  0.
         21    1    1    2  503  504  0.12401325979E+03 -0.16811144798E+03  0.28324682156E+03  0.35195100436E+03  0.00000000000E+00 0. -1.
         21    1    1    2  504  501 -0.40453952245E+02 -0.97095573542E+02  0.14560845522E+03  0.17962709953E+03  0.00000000000E+00 0. -1.
<mgrwt>
<rscale>  4 0.31176459E+03</rscale>
<asrwt>0</asrwt>
<pdfrwt beam="1">  1       21 0.15868144E+00 0.31409940E+03</pdfrwt>
<pdfrwt beam="2">  1       21 0.14386892E-01 0.31409940E+03</pdfrwt>
<totfact> 0.10114610E+04</totfact>
</mgrwt>
</event>
<event>
 5    0  0.1856407E+000  0.2565697E+03  0.7546771E-02  0.1109222E+00
         21   -1    0    0  502  501  0.00000000000E+00  0.00000000000E+00  0.45119802871E+03  0.45119802871E+03  0.00000000000E+00 0. -1.
         21   -1    0    0  503  502 -0.00000000000E+00 -0.00000000000E+00 -0.40210238888E+03  0.40210238888E+03  0.00000000000E+00 0. -1.
         25    1    1    2    0    0  0.18186882496E+03  0.14834570026E+03  0.31873584902E+03  0.41509066206E+03  0.12500000000E+03 0.  0.
         21    1    1    2  503  504 -0.65083120559E+02 -0.16888800200E+03 -0.26323897505E+03  0.31945849149E+03  0.00000000000E+00 0. -1.
         21    1    1    2  504  501 -0.11678570440E+03  0.20542301743E+02 -0.64012341482E+01  0.11875126404E+03  0.00000000000E+00 0. -1.
<mgrwt>
<rscale>  4 0.25656966E+03</rscale>
<asrwt>0</asrwt>
<pdfrwt beam="1">  1       21 0.69415082E-01 0.25656966E+03</pdfrwt>
<pdfrwt beam="2">  1       21 0.61861906E-01 0.25656966E+03</pdfrwt>
<totfact> 0.43770920E+03</totfact>
</mgrwt>
</event>
<event>
 5    0  0.1856407E+000  0.2480773E+03  0.7546771E-02  0.1114526E+00
         21   -1    0    0  502  501  0.00000000000E+00  0.00000000000E+00  0.73857205188E+02  0.73857205188E+02  0.00000000000E+00 0.  1.
         21   -1    0    0  503  502 -0.00000000000E+00 -0.00000000000E+00 -0.13991729467E+04  0.13991729467E+04  0.00000000000E+00 0.  1.
         25    1    1    2    0    0 -0.21080829843E+03  0.38434221124E+02 -0.17981351023E+03  0.30639064363E+03  0.12500000000E+03 0.  0.
         21    1    1    2  503  504  0.17015831919E+03 -0.19851820315E+02 -0.99502305380E+03  0.10096627288E+04  0.00000000000E+00 0.  1.
         21    1    1    2  504  501  0.40649979242E+02 -0.18582400808E+02 -0.15047917751E+03  0.15697677948E+03  0.00000000000E+00 0.  1.
<mgrwt>
<rscale>  4 0.24807726E+03</rscale>
<asrwt>0</asrwt>
<pdfrwt beam="1">  1       21 0.11362647E-01 0.24807726E+03</pdfrwt>
<pdfrwt beam="2">  1       21 0.21525738E+00 0.24807726E+03</pdfrwt>
<totfact> 0.66482192E+03</totfact>
</mgrwt>
</event>
<event>
 5    0  0.1856407E+000  0.2456986E+03  0.7546771E-02  0.1116054E+00
         21   -1    0    0  502  501  0.00000000000E+00  0.00000000000E+00  0.19782063116E+04  0.19782063116E+04  0.00000000000E+00 0. -1.
         21   -1    0    0  503  502 -0.00000000000E+00 -0.00000000000E+00 -0.19321598005E+03  0.19321598005E+03  0.00000000000E+00 0. -1.
         25    1    1    2    0    0  0.74858007404E+02 -0.20118778906E+03  0.18335437452E+04  0.18502940072E+04  0.12500000000E+03 0.  0.
         21    1    1    2  503  504 -0.80235784745E+02  0.16954608249E+03  0.68549617858E+02  0.19970654809E+03  0.00000000000E+00 0. -1.
         21    1    1    2  504  501  0.53777773403E+01  0.31641706567E+02 -0.11710303145E+03  0.12142173636E+03  0.00000000000E+00 0. -1.
<mgrwt>
<rscale>  4 0.24569855E+03</rscale>
<asrwt>0</asrwt>
<pdfrwt beam="1">  1       21 0.30433942E+00 0.24569855E+03</pdfrwt>
<pdfrwt beam="2">  1       21 0.29725537E-01 0.24569855E+03</pdfrwt>
<totfact> 0.32580448E+02</totfact>
</mgrwt>
</event>
<event>
 5    0  0.3961678E+000  0.2649478E+03  0.7546771E-02  0.1104206E+00
         21   -1    0    0  502  501  0.00000000000E+00  0.00000000000E+00  0.96365203567E+02  0.96365203567E+02  0.00000000000E+00 0. -1.
         21   -1    0    0  503  502 -0.00000000000E+00 -0.00000000000E+00 -0.77193019568E+03  0.77193019568E+03  0.00000000000E+00 0. -1.
         25    1    1    2    0    0 -0.11158873298E+03  0.20523229110E+03 -0.18601186320E+03  0.32372480889E+03  0.12500000000E+03 0.  0.
         21    1    1    2  503  504  0.16405803073E+02 -0.68779167258E+02 -0.11977165896E+03  0.13908621252E+03  0.00000000000E+00 0.  1.
         21    1    1    2  504  501  0.95182929903E+02 -0.13645312384E+03 -0.36978146995E+03  0.40548437783E+03  0.00000000000E+00 0. -1.
<mgrwt>
<rscale>  4 0.26494780E+03</rscale>
<asrwt>0</asrwt>
<pdfrwt beam="1">  1       21 0.14825415E-01 0.26494780E+03</pdfrwt>
<pdfrwt beam="2">  1       21 0.11875850E+00 0.26494780E+03</pdfrwt>
<totfact> 0.20859552E+04</totfact>
</mgrwt>
</event>
<event>
 5    0  0.1856407E+000  0.2541369E+03  0.7546771E-02  0.1110718E+00
         21   -1    0    0  502  501  0.00000000000E+00  0.00000000000E+00  0.23601687782E+04  0.23601687782E+04  0.00000000000E+00 0. -1.
         21   -1    0    0  503  502 -0.00000000000E+00 -0.00000000000E+00 -0.29712508840E+02  0.29712508840E+02  0.00000000000E+00 0. -1.
         25    1    1    2    0    0  0.21525197591E+03  0.51255818458E+02  0.17396478939E+04  0.17581127287E+04  0.12500000000E+03 0.  0.
         21    1    1    2  503  504 -0.19205396175E+03 -0.49471021959E+02  0.49677504271E+03  0.53489956935E+03  0.00000000000E+00 0. -1.
         21    1    1    2  504  501 -0.23198014162E+02 -0.17847964990E+01  0.94033332772E+02  0.96868989010E+02  0.00000000000E+00 0. -1.
<mgrwt>
<rscale>  4 0.25413692E+03</rscale>
<asrwt>0</asrwt>
<pdfrwt beam="1">  1       21 0.36310274E+00 0.25413692E+03</pdfrwt>
<pdfrwt beam="2">  1       21 0.45711571E-02 0.25413692E+03</pdfrwt>
<totfact> 0.42659466E+03</totfact>
</mgrwt>
</event>
<event>
 5    0  0.1856407E+000  0.3659040E+03  0.7546771E-02  0.1056270E+00
         21   -1    0    0  502  501  0.00000000000E+00  0.00000000000E+00  0.33982644614E+03  0.33982644614E+03  0.00000000000E+00 0. -1.
         21   -1    0    0  503  502 -0.00000000000E+00 -0.00000000000E+00 -0.55406772002E+03  0.55406772002E+03  0.00000000000E+00 0.  1.
         25    1    1    2    0    0 -0.33966202084E+03 -0.72370614626E+02  0.12554714225E+03  0.38986520643E+03  0.12500000000E+03 0.  0.
         21    1    1    2  503  504  0.17757680240E+02 -0.21998089738E+02 -0.63269554057E+02  0.69298539885E+02  0.00000000000E+00 0.  1.
         21    1    1    2  504  501  0.32190434060E+03  0.94368704363E+02 -0.27651886207E+03  0.43473041984E+03  0.00000000000E+00 0.  1.
<mgrwt>
<rscale>  4 0.36590403E+03</rscale>
<asrwt>0</asrwt>
<pdfrwt beam="1">  1       21 0.52280992E-01 0.36590403E+03</pdfrwt>
<pdfrwt beam="2">  1       21 0.85241187E-01 0.36590403E+03</pdfrwt>
<totfact> 0.37292401E+03</totfact>
</mgrwt>
</event>
<event>
 5    0  0.4012899E+000  0.2635956E+03  0.7546771E-02  0.1105002E+00
         21   -1    0    0  502  501  0.00000000000E+00  0.00000000000E+00  0.25000804700E+03  0.25000804700E+03  0.00000000000E+00 0.  1.
         21   -1    0    0  503  502 -0.00000000000E+00 -0.00000000000E+00 -0.27739014790E+03  0.27739014790E+03  0.00000000000E+00 0.  1.
         25    1    1    2    0    0 -0.23207250631E+03  0.84489672245E-01  0.68024790900E+02  0.27223156962E+03  0.12500000000E+03 0.  0.
         21    1    1    2  503  504  0.21390168453E+02 -0.11758906497E+02 -0.18325614843E+02  0.30522767696E+02  0.00000000000E+00 0.  1.
         21    1    1    2  504  501  0.21068233785E+03  0.11674416825E+02 -0.77081276962E+02  0.22464385758E+03  0.00000000000E+00 0.  1.
<mgrwt>
<rscale>  4 0.26359563E+03</rscale>
<asrwt>0</asrwt>
<pdfrwt beam="1">  1       21 0.38462777E-01 0.26359563E+03</pdfrwt>
<pdfrwt beam="2">  1       21 0.42675407E-01 0.26359563E+03</pdfrwt>
<totfact> 0.33288672E+04</totfact>
</mgrwt>
</event>
<event>
 5    0  0.1856407E+000  0.2782307E+03  0.7546771E-02  0.1096659E+00
         21   -1    0    0  502  501  0.00000000000E+00  0.00000000000E+00  0.54272927692E+03  0.54272927692E+03  0.00000000000E+00 0.  1.
         21   -1    0    0  503  502 -0.00000000000E+00 -0.00000000000E+00 -0.21433995771E+04  0.21433995771E+04  0.00000000000E+00 0. -1.
         25    1    1    2    0    0 -0.24362184447E+03 -0.57425626816E+02  0.49347502562E+03  0.56726705054E+03  0.12500000000E+03 0.  0.
         21    1    1    2  503  504  0.74036937524E+02  0.64885382858E+02 -0.28019424833E+03  0.29698551787E+03  0.00000000000E+00 0.  1.
         21    1    1    2  504  501  0.16958490694E+03 -0.74597560421E+01 -0.18139510774E+04  0.18218762856E+04  0.00000000000E+00 0. -1.
<mgrwt>
<rscale>  4 0.27823069E+03</rscale>
<asrwt>0</asrwt>
<pdfrwt beam="1">  1       21 0.83496810E-01 0.27823069E+03</pdfrwt>
<pdfrwt beam="2">  1       21 0.32975379E+00 0.27823069E+03</pdfrwt>
<totfact> 0.25104399E+01</totfact>
</mgrwt>
</event>
<event>
 5    0  0.2132720E+000  0.2263485E+03  0.7546771E-02  0.1129237E+00
         21   -1    0    0  502  501  0.00000000000E+00  0.00000000000E+00  0.81218957966E+03  0.81218957966E+03  0.00000000000E+00 0. -1.
         21   -1    0    0  503  502 -0.00000000000E+00 -0.00000000000E+00 -0.97571650417E+02  0.97571650417E+02  0.00000000000E+00 0. -1.
         25    1    1    2    0    0  0.19210389217E+03  0.72876631416E+02  0.61850169621E+03  0.66361453948E+03  0.12500000000E+03 0.  0.
         21    1    1    2  503  504 -0.14098952608E+03 -0.72649651150E+02  0.11019380336E+03  0.19312869434E+03  0.00000000000E+00 0. -1.
         21    1    1    2  504  501 -0.51114366089E+02 -0.22698026638E+00 -0.14077570330E+02  0.53017996257E+02  0.00000000000E+00 0. -1.
<mgrwt>
<rscale>  4 0.22634851E+03</rscale>
<asrwt>0</asrwt>
<pdfrwt beam="1">  1       21 0.12495224E+00 0.22634851E+03</pdfrwt>
<pdfrwt beam="2">  1       21 0.15011024E-01 0.22634851E+03</pdfrwt>
<totfact> 0.18315643E+04</totfact>
</mgrwt>
</event>
