<event>
 5    0  0.4799649E+000  0.4340799E+03  0.7546771E-02  0.1032579E+00
         21   -1    0    0  502  501  0.00000000000E+00  0.00000000000E+00  0.25633350443E+04  0.25633350443E+04  0.00000000000E+00 0. -1.
         21   -1    0    0  504  502 -0.00000000000E+00 -0.00000000000E+00 -0.21204554641E+02  0.21204554641E+02  0.00000000000E+00 0. -1.
         25    1    1    2    0    0 -0.19053127392E+03  0.79334770499E+02  0.12215801918E+04  0.12451824513E+04  0.12500000000E+03 0.  0.
         21    1    1    2  503  501  0.60107256621E+01 -0.24190481126E+02  0.28217787828E+03  0.28327665486E+03  0.00000000000E+00 0.  1.
         21    1    1    2  504  503  0.18452054825E+03 -0.55144289373E+02  0.10383724197E+04  0.10560804928E+04  0.00000000000E+00 0.  1.
<mgrwt>
<rscale>  4 0.43407987E+03</rscale>
<asrwt>0</asrwt>
<pdfrwt beam="1">  1       21 0.39435899E+00 0.43407987E+03</pdfrwt>
<pdfrwt beam="2">  1       21 0.32622412E-02 0.43407987E+03</pdfrwt>
<totfact> 0.42290806E+03</totfact>
</mgrwt>
</event>
<event>
 5    0  0.2349231E+000  0.4956098E+03  0.7546771E-02  0.1014931E+00
         21   -1    0    0  503  501  0.00000000000E+00  0.00000000000E+00  0.26555492210E+03  0.26555492210E+03  0.00000000000E+00 0.  1.
         21   -1    0    0  504  502 -0.00000000000E+00 -0.00000000000E+00 -0.43254869041E+03  0.43254869041E+03  0.00000000000E+00 0. -1.
         25    1    1    2    0    0  0.23109255157E+03  0.59221810299E+02 -0.21912694488E+03  0.34720686655E+03  0.12500000000E+03 0.  0.
         21    1    1    2  503  502 -0.28152549053E+02  0.12554305875E+02  0.12101983498E+03  0.12488385433E+03  0.00000000000E+00 0.  1.
         21    1    1    2  504  501 -0.20294000252E+03 -0.71776116174E+02 -0.68886658404E+02  0.22601289163E+03  0.00000000000E+00 0.  1.
<mgrwt>
<rscale>  4 0.49560978E+03</rscale>
<asrwt>0</asrwt>
<pdfrwt beam="1">  1       21 0.40854604E-01 0.49560978E+03</pdfrwt>
<pdfrwt beam="2">  1       21 0.66545952E-01 0.49560978E+03</pdfrwt>
<totfact> 0.10542078E+04</totfact>
</mgrwt>
</event>
<event>
 5    0  0.2349231E+000  0.1315022E+04  0.7546771E-02  0.9017736E-01
         21   -1    0    0  504  501  0.00000000000E+00  0.00000000000E+00  0.21393843381E+04  0.21393843381E+04  0.00000000000E+00 0.  1.
         21   -1    0    0  503  502 -0.00000000000E+00 -0.00000000000E+00 -0.39067775557E+03  0.39067775557E+03  0.00000000000E+00 0.  1.
         25    1    1    2    0    0  0.58467253162E+03  0.15206511364E+03  0.68710854924E+03  0.92342239872E+03  0.12500000000E+03 0.  0.
         21    1    1    2  503  501 -0.54975232768E+03 -0.16389968724E+03  0.30068887532E+02  0.57445179716E+03  0.00000000000E+00 0.  1.
         21    1    1    2  504  502 -0.34920203942E+02  0.11834573601E+02  0.10315291458E+04  0.10321878978E+04  0.00000000000E+00 0.  1.
<mgrwt>
<rscale>  4 0.13150223E+04</rscale>
<asrwt>0</asrwt>
<pdfrwt beam="1">  1       21 0.32913604E+00 0.13150223E+04</pdfrwt>
<pdfrwt beam="2">  1       21 0.60104271E-01 0.13150223E+04</pdfrwt>
<totfact> 0.32702950E+01</totfact>
</mgrwt>
</event>
<event>
 5    0  0.2349231E+000  0.9104664E+03  0.7546771E-02  0.9412592E-01
         21   -1    0    0  503  501  0.00000000000E+00  0.00000000000E+00  0.51995126844E+03  0.51995126844E+03  0.00000000000E+00 0. -1.
         21   -1    0    0  504  502 -0.00000000000E+00 -0.00000000000E+00 -0.48931886523E+03  0.48931886523E+03  0.00000000000E+00 0. -1.
         25    1    1    2    0    0 -0.13086881431E+03 -0.21671394379E+03  0.32693682362E+03  0.43197715985E+03  0.12500000000E+03 0.  0.
         21    1    1    2  503  502 -0.77540652201E+01 -0.31127687242E+02  0.91312960191E+02  0.96783857845E+02  0.00000000000E+00 0. -1.
         21    1    1    2  504  501  0.13862287953E+03  0.24784163103E+03 -0.38761738060E+03  0.48050911598E+03  0.00000000000E+00 0. -1.
<mgrwt>
<rscale>  4 0.91046640E+03</rscale>
<asrwt>0</asrwt>
<pdfrwt beam="1">  1       21 0.79992502E-01 0.91046640E+03</pdfrwt>
<pdfrwt beam="2">  1       21 0.75279826E-01 0.91046640E+03</pdfrwt>
<totfact> 0.16631805E+03</totfact>
</mgrwt>
</event>
