<event>
 5    0  0.1911311E+001  0.2712414E+03  0.7546771E-02  0.1100571E+00
         21   -1    0    0  502  501  0.00000000000E+00  0.00000000000E+00  0.68281696284E+03  0.68281696284E+03  0.00000000000E+00 0. -1.
         21   -1    0    0  504  502 -0.00000000000E+00 -0.00000000000E+00 -0.22801816448E+03  0.22801816448E+03  0.00000000000E+00 0. -1.
         25    1    1    2    0    0  0.17301664266E+03  0.16876387751E+03  0.51941931397E+03  0.58637652470E+03  0.12500000000E+03 0.  0.
         21    1    1    2  503  501  0.20703556257E+02 -0.25632901806E+02  0.48278454392E+02  0.58450766079E+02  0.00000000000E+00 0. -1.
         21    1    1    2  504  503 -0.19372019892E+03 -0.14313097570E+03 -0.11289897000E+03  0.26600783654E+03  0.00000000000E+00 0. -1.
<mgrwt>
<rscale>  4 0.27124141E+03</rscale>
<asrwt>0</asrwt>
<pdfrwt beam="1">  1       21 0.10504876E+00 0.27124141E+03</pdfrwt>
<pdfrwt beam="2">  1       21 0.35079718E-01 0.27124141E+03</pdfrwt>
<totfact> 0.54211776E+03</totfact>
</mgrwt>
</event>
<event>
 5    0  0.1911311E+001  0.2884187E+03  0.7546771E-02  0.1091178E+00
         21   -1    0    0  502  501  0.00000000000E+00  0.00000000000E+00  0.25992846600E+04  0.25992846600E+04  0.00000000000E+00 0.  1.
         21   -1    0    0  504  502 -0.00000000000E+00 -0.00000000000E+00 -0.39715933422E+02  0.39715933422E+02  0.00000000000E+00 0.  1.
         25    1    1    2    0    0 -0.11095286872E+03  0.25289729042E+03  0.17138098874E+04  0.17404128559E+04  0.12500000000E+03 0.  0.
         21    1    1    2  503  501  0.11643462133E+03 -0.20894732118E+03  0.79962265776E+03  0.83463309237E+03  0.00000000000E+00 0.  1.
         21    1    1    2  504  503 -0.54817526102E+01 -0.43949969245E+02  0.46136181365E+02  0.63954645173E+02  0.00000000000E+00 0.  1.
<mgrwt>
<rscale>  4 0.28841871E+03</rscale>
<asrwt>0</asrwt>
<pdfrwt beam="1">  1       21 0.39988981E+00 0.28841871E+03</pdfrwt>
<pdfrwt beam="2">  1       21 0.61101457E-02 0.28841871E+03</pdfrwt>
<totfact> 0.14859040E+03</totfact>
</mgrwt>
</event>
<event>
 5    0  0.1911311E+001  0.3172652E+03  0.7546771E-02  0.1076915E+00
         21   -1    0    0  504  501  0.00000000000E+00  0.00000000000E+00  0.46869736919E+03  0.46869736919E+03  0.00000000000E+00 0.  1.
         21   -1    0    0  501  502 -0.00000000000E+00 -0.00000000000E+00 -0.74607261599E+03  0.74607261599E+03  0.00000000000E+00 0.  1.
         25    1    1    2    0    0  0.44847541746E+03  0.72369032808E+02  0.21198392247E+02  0.47163741243E+03  0.12500000000E+03 0.  0.
         21    1    1    2  503  502 -0.23959730099E+03  0.16628395511E+02  0.11883805849E+03  0.26796614399E+03  0.00000000000E+00 0.  1.
         21    1    1    2  504  503 -0.20887811647E+03 -0.88997428319E+02 -0.41741169753E+03  0.47516642876E+03  0.00000000000E+00 0.  1.
<mgrwt>
<rscale>  4 0.31726517E+03</rscale>
<asrwt>0</asrwt>
<pdfrwt beam="1">  1       21 0.72107288E-01 0.31726517E+03</pdfrwt>
<pdfrwt beam="2">  1       21 0.11478040E+00 0.31726517E+03</pdfrwt>
<totfact> 0.92571508E+02</totfact>
</mgrwt>
</event>
<event>
 5    0  0.1911311E+001  0.1913616E+03  0.7546771E-02  0.1157239E+00
         21   -1    0    0  503  501  0.00000000000E+00  0.00000000000E+00  0.41807742982E+03  0.41807742982E+03  0.00000000000E+00 0. -1.
         21   -1    0    0  504  502 -0.00000000000E+00 -0.00000000000E+00 -0.18184020138E+03  0.18184020138E+03  0.00000000000E+00 0. -1.
         25    1    1    2    0    0 -0.19217063478E+03 -0.87207330232E+02  0.18688373904E+03  0.30835888707E+03  0.12500000000E+03 0.  0.
         21    1    1    2  503  502  0.76776002004E+02  0.57134091302E+02 -0.73257142487E+02  0.12052164867E+03  0.00000000000E+00 0. -1.
         21    1    1    2  504  501  0.11539463278E+03  0.30073238930E+02  0.12261063188E+03  0.17103709546E+03  0.00000000000E+00 0. -1.
<mgrwt>
<rscale>  4 0.19136160E+03</rscale>
<asrwt>0</asrwt>
<pdfrwt beam="1">  1       21 0.64319604E-01 0.19136160E+03</pdfrwt>
<pdfrwt beam="2">  1       21 0.27975416E-01 0.19136160E+03</pdfrwt>
<totfact> 0.27235265E+04</totfact>
</mgrwt>
</event>
