<event>
 5    0  0.2349231E+000  0.5360908E+03  0.7546771E-02  0.1004766E+00
         21   -1    0    0  502  501  0.00000000000E+00  0.00000000000E+00  0.14106124669E+04  0.14106124669E+04  0.00000000000E+00 0. -1.
         21   -1    0    0  504  502 -0.00000000000E+00 -0.00000000000E+00 -0.15423996255E+03  0.15423996255E+03  0.00000000000E+00 0. -1.
         25    1    1    2    0    0  0.22421392502E+03 -0.94580190616E+02  0.15683974672E+03  0.31534267517E+03  0.12500000000E+03 0.  0.
         21    1    1    2  503  501  0.20531734340E+02 -0.32299704126E+00  0.94434180028E+03  0.94456502805E+03  0.00000000000E+00 0. -1.
         21    1    1    2  504  503 -0.24474565936E+03  0.94903187657E+02  0.15519095730E+03  0.30494472619E+03  0.00000000000E+00 0. -1.
<mgrwt>
<rscale>  4 0.53609076E+03</rscale>
<asrwt>0</asrwt>
<pdfrwt beam="1">  1       21 0.21701729E+00 0.53609076E+03</pdfrwt>
<pdfrwt beam="2">  1       21 0.23729226E-01 0.53609076E+03</pdfrwt>
<totfact> 0.14168950E+03</totfact>
</mgrwt>
</event>
<event>
 5    0  0.2349231E+000  0.6092124E+03  0.7546771E-02  0.9886475E-01
         21   -1    0    0  503  501  0.00000000000E+00  0.00000000000E+00  0.18704920708E+04  0.18704920708E+04  0.00000000000E+00 0. -1.
         21   -1    0    0  504  502 -0.00000000000E+00 -0.00000000000E+00 -0.16902824785E+03  0.16902824785E+03  0.00000000000E+00 0. -1.
         25    1    1    2    0    0 -0.14792817038E+03  0.17047330963E+03  0.37114268619E+03  0.45201303787E+03  0.12500000000E+03 0.  0.
         21    1    1    2  503  502 -0.56575078130E+02  0.13067104271E+01  0.13189763253E+04  0.13201897566E+04  0.00000000000E+00 0. -1.
         21    1    1    2  504  501  0.20450324851E+03 -0.17178002006E+03  0.11344811466E+02  0.26731752410E+03  0.00000000000E+00 0. -1.
<mgrwt>
<rscale>  4 0.60921242E+03</rscale>
<asrwt>0</asrwt>
<pdfrwt beam="1">  1       21 0.28776800E+00 0.60921242E+03</pdfrwt>
<pdfrwt beam="2">  1       21 0.26004347E-01 0.60921242E+03</pdfrwt>
<totfact> 0.41744685E+02</totfact>
</mgrwt>
</event>
<event>
 5    0  0.2349231E+000  0.5084622E+03  0.7546771E-02  0.1011593E+00
         21   -1    0    0  503  501  0.00000000000E+00  0.00000000000E+00  0.58455885004E+03  0.58455885004E+03  0.00000000000E+00 0.  1.
         21   -1    0    0  504  502 -0.00000000000E+00 -0.00000000000E+00 -0.15312636248E+03  0.15312636248E+03  0.00000000000E+00 0.  1.
         25    1    1    2    0    0 -0.24515850391E+03  0.48552246566E+02  0.27466183195E+03  0.39182155966E+03  0.12500000000E+03 0.  0.
         21    1    1    2  503  502  0.56902020028E+02 -0.54673330606E+01  0.14094071988E+03  0.15209213699E+03  0.00000000000E+00 0.  1.
         21    1    1    2  504  501  0.18825648389E+03 -0.43084913505E+02  0.15829935730E+02  0.19377151587E+03  0.00000000000E+00 0.  1.
<mgrwt>
<rscale>  4 0.50846217E+03</rscale>
<asrwt>0</asrwt>
<pdfrwt beam="1">  1       21 0.89932130E-01 0.50846217E+03</pdfrwt>
<pdfrwt beam="2">  1       21 0.23557902E-01 0.50846217E+03</pdfrwt>
<totfact> 0.15802568E+04</totfact>
</mgrwt>
</event>
