<event>
 5    0  0.4930573E+000  0.2523003E+03  0.7546771E-02  0.1111860E+00
         21   -1    0    0  503  502  0.00000000000E+00  0.00000000000E+00  0.78814237768E+02  0.78814237768E+02  0.00000000000E+00 0. -1.
          2   -1    0    0  502    0 -0.00000000000E+00 -0.00000000000E+00 -0.26154760059E+04  0.26154760059E+04  0.00000000000E+00 0. -1.
         25    1    1    2    0    0  0.13443192382E+03  0.16171412788E+03 -0.16687245575E+04  0.16865616058E+04  0.12500000000E+03 0.  0.
         21    1    1    2  503  501  0.22485943181E+02  0.11621550268E+02  0.52379908570E+02  0.58175019494E+02  0.00000000000E+00 0. -1.
          2    1    1    2  501    0 -0.15691786700E+03 -0.17333567815E+03 -0.92031711915E+03  0.94955361834E+03  0.00000000000E+00 0. -1.
<mgrwt>
<rscale>  4 0.25230033E+03</rscale>
<asrwt>0</asrwt>
<pdfrwt beam="1">  1       21 0.12125268E-01 0.25230033E+03</pdfrwt>
<pdfrwt beam="2">  1        2 0.40238090E+00 0.25230033E+03</pdfrwt>
<totfact> 0.25245512E+03</totfact>
</mgrwt>
</event>
<event>
 5    0  0.1118526E+001  0.2184195E+03  0.7546771E-02  0.1135067E+00
         21   -1    0    0  501  502  0.00000000000E+00  0.00000000000E+00  0.10294371039E+04  0.10294371039E+04  0.00000000000E+00 0.  1.
         -4   -1    0    0    0  501 -0.00000000000E+00 -0.00000000000E+00 -0.10198160992E+04  0.10198160992E+04  0.00000000000E+00 0.  1.
         25    1    1    2    0    0  0.70766463092E+02 -0.19890013932E+03  0.96228298023E+03  0.99306731482E+03  0.12500000000E+03 0.  0.
         21    1    1    2  503  502  0.10223625958E+02  0.39421232325E+02  0.34239751646E+02  0.53206359380E+02  0.00000000000E+00 0. -1.
         -4    1    1    2    0  503 -0.80990089051E+02  0.15947890699E+03 -0.98690172714E+03  0.10029795289E+04  0.00000000000E+00 0.  1.
<mgrwt>
<rscale>  4 0.21841947E+03</rscale>
<asrwt>0</asrwt>
<pdfrwt beam="1">  1       21 0.15837494E+00 0.21841947E+03</pdfrwt>
<pdfrwt beam="2">  1       -4 0.15689478E+00 0.21841947E+03</pdfrwt>
<totfact> 0.30171394E+00</totfact>
</mgrwt>
</event>
<event>
 5    0  0.4930573E+000  0.2018596E+03  0.7546771E-02  0.1148179E+00
         21   -1    0    0  503  502  0.00000000000E+00  0.00000000000E+00  0.97990837529E+03  0.97990837529E+03  0.00000000000E+00 0.  1.
          2   -1    0    0  502    0 -0.00000000000E+00 -0.00000000000E+00 -0.44547765647E+03  0.44547765647E+03  0.00000000000E+00 0.  1.
         25    1    1    2    0    0  0.80762664374E+02  0.25678752955E+03  0.83708675384E+03  0.88814507641E+03  0.12500000000E+03 0.  0.
         21    1    1    2  503  501 -0.91234602089E+02 -0.10040406265E+03  0.55279229890E+02  0.14649410115E+03  0.00000000000E+00 0.  1.
          2    1    1    2  501    0  0.10471937715E+02 -0.15638346691E+03 -0.35793526491E+03  0.39074685420E+03  0.00000000000E+00 0.  1.
<mgrwt>
<rscale>  4 0.20185959E+03</rscale>
<asrwt>0</asrwt>
<pdfrwt beam="1">  1       21 0.15075513E+00 0.20185959E+03</pdfrwt>
<pdfrwt beam="2">  1        2 0.68535024E-01 0.20185959E+03</pdfrwt>
<totfact> 0.25934485E+02</totfact>
</mgrwt>
</event>
<event>
 5    0  0.4930573E+000  0.3663129E+03  0.7546771E-02  0.1056112E+00
          1   -1    0    0  502    0 -0.00000000000E+00  0.00000000000E+00  0.21801365985E+04  0.21801365985E+04  0.00000000000E+00 0.  1.
         21   -1    0    0  503  502  0.00000000000E+00 -0.00000000000E+00 -0.79899607123E+02  0.79899607123E+02  0.00000000000E+00 0. -1.
         25    1    1    2    0    0 -0.25971422718E+03 -0.18833385763E+03  0.50050487367E+03  0.60749588500E+03  0.12500000000E+03 0.  0.
         21    1    1    2  503  501 -0.34678675240E+02 -0.65953133123E+01  0.40021839534E+02  0.53365310022E+02  0.00000000000E+00 0.  1.
          1    1    1    2  501    0  0.29439290242E+03  0.19492917094E+03  0.15597102781E+04  0.15991750106E+04  0.00000000000E+00 0.  1.
<mgrwt>
<rscale>  4 0.36631293E+03</rscale>
<asrwt>0</asrwt>
<pdfrwt beam="1">  1       21 0.12292249E-01 0.36631293E+03</pdfrwt>
<pdfrwt beam="2">  1        1 0.33540559E+00 0.36631293E+03</pdfrwt>
<totfact> 0.15387135E+03</totfact>
</mgrwt>
</event>
<event>
 5    0  0.4930573E+000  0.4212256E+03  0.7546771E-02  0.1036668E+00
         21   -1    0    0  503  502  0.00000000000E+00  0.00000000000E+00  0.83428622145E+03  0.83428622145E+03  0.00000000000E+00 0. -1.
          2   -1    0    0  502    0 -0.00000000000E+00 -0.00000000000E+00 -0.64747404078E+03  0.64747404078E+03  0.00000000000E+00 0. -1.
         25    1    1    2    0    0  0.31769021470E+03 -0.23825738367E+03  0.66129721327E+03  0.78142988020E+03  0.12500000000E+03 0.  0.
         21    1    1    2  503  501  0.27472634072E+02 -0.50046022951E+02 -0.18836165674E+02  0.60117810783E+02  0.00000000000E+00 0. -1.
          2    1    1    2  501    0 -0.34516284877E+03  0.28830340663E+03 -0.45564886693E+03  0.64021257124E+03  0.00000000000E+00 0. -1.
<mgrwt>
<rscale>  4 0.42122556E+03</rscale>
<asrwt>0</asrwt>
<pdfrwt beam="1">  1       21 0.12835173E+00 0.42122556E+03</pdfrwt>
<pdfrwt beam="2">  1        2 0.99611391E-01 0.42122556E+03</pdfrwt>
<totfact> 0.23061027E+02</totfact>
</mgrwt>
</event>
<event>
 5    0  0.4930573E+000  0.2864459E+03  0.7546771E-02  0.1092220E+00
          2   -1    0    0  502    0 -0.00000000000E+00  0.00000000000E+00  0.11006767676E+04  0.11006767676E+04  0.00000000000E+00 0.  1.
         21   -1    0    0  503  502  0.00000000000E+00 -0.00000000000E+00 -0.13482624521E+03  0.13482624521E+03  0.00000000000E+00 0. -1.
         25    1    1    2    0    0 -0.15636344620E+03  0.20803251183E+03  0.67343066082E+02  0.29645765606E+03  0.12500000000E+03 0.  0.
         21    1    1    2  503  501  0.19999611796E+02 -0.35071705439E+01  0.28607554340E+02  0.35081004583E+02  0.00000000000E+00 0. -1.
          2    1    1    2  501    0  0.13636383440E+03 -0.20452534129E+03  0.86989990194E+03  0.90396435215E+03  0.00000000000E+00 0.  1.
<mgrwt>
<rscale>  4 0.28644588E+03</rscale>
<asrwt>0</asrwt>
<pdfrwt beam="1">  1       21 0.20742500E-01 0.28644588E+03</pdfrwt>
<pdfrwt beam="2">  1        2 0.16933488E+00 0.28644588E+03</pdfrwt>
<totfact> 0.60865933E+03</totfact>
</mgrwt>
</event>
<event>
 5    0  0.4930573E+000  0.2018506E+03  0.7546771E-02  0.1148187E+00
          2   -1    0    0  502    0 -0.00000000000E+00  0.00000000000E+00  0.13185974825E+04  0.13185974825E+04  0.00000000000E+00 0. -1.
         21   -1    0    0  503  502  0.00000000000E+00 -0.00000000000E+00 -0.54655432765E+02  0.54655432765E+02  0.00000000000E+00 0. -1.
         25    1    1    2    0    0  0.11394401593E+03 -0.16635668945E+03  0.77875232869E+03  0.81408720438E+03  0.12500000000E+03 0.  0.
         21    1    1    2  503  501 -0.97392702354E+01  0.78486631848E+02  0.30972902238E+02  0.84937185240E+02  0.00000000000E+00 0. -1.
          2    1    1    2  501    0 -0.10420474570E+03  0.87870057606E+02  0.45421681882E+03  0.47422852566E+03  0.00000000000E+00 0. -1.
<mgrwt>
<rscale>  4 0.20185057E+03</rscale>
<asrwt>0</asrwt>
<pdfrwt beam="1">  1       21 0.84085291E-02 0.20185057E+03</pdfrwt>
<pdfrwt beam="2">  1        2 0.20286113E+00 0.20185057E+03</pdfrwt>
<totfact> 0.24101971E+04</totfact>
</mgrwt>
</event>
<event>
 5    0  0.4930573E+000  0.2947835E+03  0.7546771E-02  0.1087878E+00
          2   -1    0    0  502    0 -0.00000000000E+00  0.00000000000E+00  0.96724105325E+03  0.96724105325E+03  0.00000000000E+00 0.  1.
         21   -1    0    0  503  502  0.00000000000E+00 -0.00000000000E+00 -0.11877913811E+04  0.11877913811E+04  0.00000000000E+00 0.  1.
         25    1    1    2    0    0 -0.29273467108E+03 -0.46990601554E+02  0.88640784260E+02  0.33374225522E+03  0.12500000000E+03 0.  0.
         21    1    1    2  503  501  0.32993176215E+02  0.16225963806E+02 -0.10422852274E+04  0.10429335199E+04  0.00000000000E+00 0.  1.
          2    1    1    2  501    0  0.25974149486E+03  0.30764637748E+02  0.73309411531E+03  0.77835665925E+03  0.00000000000E+00 0.  1.
<mgrwt>
<rscale>  4 0.29478349E+03</rscale>
<asrwt>0</asrwt>
<pdfrwt beam="1">  1       21 0.18273714E+00 0.29478349E+03</pdfrwt>
<pdfrwt beam="2">  1        2 0.14880631E+00 0.29478349E+03</pdfrwt>
<totfact> 0.55828649E+01</totfact>
</mgrwt>
</event>
<event>
 5    0  0.4930573E+000  0.3384780E+03  0.7546771E-02  0.1067446E+00
         21   -1    0    0  503  502  0.00000000000E+00  0.00000000000E+00  0.39340519187E+03  0.39340519187E+03  0.00000000000E+00 0.  1.
          2   -1    0    0  502    0 -0.00000000000E+00 -0.00000000000E+00 -0.16234209248E+04  0.16234209248E+04  0.00000000000E+00 0.  1.
         25    1    1    2    0    0 -0.23369268052E+03  0.25045338999E+03  0.26082608981E+03  0.44832401074E+03  0.12500000000E+03 0.  0.
         21    1    1    2  503  501  0.37525309874E+01 -0.37635713938E+02  0.68083753684E+01  0.38430228045E+02  0.00000000000E+00 0.  1.
          2    1    1    2  501    0  0.22994014953E+03 -0.21281767605E+03 -0.14976501981E+04  0.15300718779E+04  0.00000000000E+00 0.  1.
<mgrwt>
<rscale>  4 0.33847803E+03</rscale>
<asrwt>0</asrwt>
<pdfrwt beam="1">  1       21 0.60523876E-01 0.33847803E+03</pdfrwt>
<pdfrwt beam="2">  1        2 0.24975706E+00 0.33847803E+03</pdfrwt>
<totfact> 0.35236674E+02</totfact>
</mgrwt>
</event>
<event>
 5    0  0.4930573E+000  0.3579569E+03  0.7546771E-02  0.1059396E+00
         21   -1    0    0  503  502  0.00000000000E+00  0.00000000000E+00  0.72760431294E+03  0.72760431294E+03  0.00000000000E+00 0. -1.
          2   -1    0    0  502    0 -0.00000000000E+00 -0.00000000000E+00 -0.77354691221E+03  0.77354691221E+03  0.00000000000E+00 0. -1.
         25    1    1    2    0    0 -0.34408995108E+00 -0.34424286854E+03  0.49129445610E+03  0.61277933510E+03  0.12500000000E+03 0.  0.
         21    1    1    2  503  501 -0.51536383952E+02  0.13220848335E+02  0.13069509364E+03  0.14110987635E+03  0.00000000000E+00 0. -1.
          2    1    1    2  501    0  0.51880473904E+02  0.33102202020E+03 -0.66793214901E+03  0.74726201369E+03  0.00000000000E+00 0. -1.
<mgrwt>
<rscale>  4 0.35795692E+03</rscale>
<asrwt>0</asrwt>
<pdfrwt beam="1">  1       21 0.11193913E+00 0.35795692E+03</pdfrwt>
<pdfrwt beam="2">  1        2 0.11900722E+00 0.35795692E+03</pdfrwt>
<totfact> 0.26754525E+02</totfact>
</mgrwt>
</event>
<event>
 5    0  0.4930573E+000  0.3351850E+03  0.7546771E-02  0.1068865E+00
          2   -1    0    0  502    0 -0.00000000000E+00  0.00000000000E+00  0.80474594317E+03  0.80474594317E+03  0.00000000000E+00 0. -1.
         21   -1    0    0  503  502  0.00000000000E+00 -0.00000000000E+00 -0.26920391791E+03  0.26920391791E+03  0.00000000000E+00 0. -1.
         25    1    1    2    0    0 -0.52785594599E+02 -0.32650534632E+03 -0.55858379846E+02  0.35796259409E+03  0.12500000000E+03 0.  0.
         21    1    1    2  503  501 -0.17789969190E+02  0.27088626527E+02 -0.15236577615E+02  0.35811031657E+02  0.00000000000E+00 0. -1.
          2    1    1    2  501    0  0.70575563789E+02  0.29941671979E+03  0.60663698273E+03  0.68017623533E+03  0.00000000000E+00 0. -1.
<mgrwt>
<rscale>  4 0.33518505E+03</rscale>
<asrwt>0</asrwt>
<pdfrwt beam="1">  1       21 0.41415988E-01 0.33518505E+03</pdfrwt>
<pdfrwt beam="2">  1        2 0.12380707E+00 0.33518505E+03</pdfrwt>
<totfact> 0.23770295E+03</totfact>
</mgrwt>
</event>
<event>
 5    0  0.4930573E+000  0.2746256E+03  0.7546771E-02  0.1098661E+00
         21   -1    0    0  501  502  0.00000000000E+00  0.00000000000E+00  0.46945548501E+03  0.46945548501E+03  0.00000000000E+00 0. -1.
         -4   -1    0    0    0  501 -0.00000000000E+00 -0.00000000000E+00 -0.38149260109E+03  0.38149260109E+03  0.00000000000E+00 0. -1.
         25    1    1    2    0    0  0.81641624315E+02 -0.20014914772E+03  0.34315971082E+03  0.42439206317E+03  0.12500000000E+03 0.  0.
         21    1    1    2  503  502 -0.21338857880E+02 -0.40665579415E+02  0.24932588526E+02  0.52255814752E+02  0.00000000000E+00 0.  1.
         -4    1    1    2    0  503 -0.60302766436E+02  0.24081472714E+03 -0.28012941543E+03  0.37430020817E+03  0.00000000000E+00 0. -1.
<mgrwt>
<rscale>  4 0.27462560E+03</rscale>
<asrwt>0</asrwt>
<pdfrwt beam="1">  1       21 0.72223921E-01 0.27462560E+03</pdfrwt>
<pdfrwt beam="2">  1       -4 0.58691169E-01 0.27462560E+03</pdfrwt>
<totfact> 0.19925502E+02</totfact>
</mgrwt>
</event>
<event>
 5    0  0.4930573E+000  0.2743915E+03  0.7546771E-02  0.1098792E+00
          4   -1    0    0  502    0 -0.00000000000E+00  0.00000000000E+00  0.70031668936E+02  0.70031668936E+02  0.00000000000E+00 0.  1.
         21   -1    0    0  503  502  0.00000000000E+00 -0.00000000000E+00 -0.12515662923E+04  0.12515662923E+04  0.00000000000E+00 0.  1.
         25    1    1    2    0    0 -0.38317700391E+02 -0.23208318083E+03 -0.82710978586E+03  0.86894559488E+03  0.12500000000E+03 0.  0.
         21    1    1    2  503  501 -0.21045377001E+02 -0.86202727758E+01 -0.78426789420E+02  0.81657689746E+02  0.00000000000E+00 0. -1.
          4    1    1    2  501    0  0.59363077392E+02  0.24070345360E+03 -0.27599804810E+03  0.37099467663E+03  0.00000000000E+00 0.  1.
<mgrwt>
<rscale>  4 0.27439150E+03</rscale>
<asrwt>0</asrwt>
<pdfrwt beam="1">  1       21 0.19254866E+00 0.27439150E+03</pdfrwt>
<pdfrwt beam="2">  1        4 0.10774103E-01 0.27439150E+03</pdfrwt>
<totfact> 0.41272524E+02</totfact>
</mgrwt>
</event>
<event>
 5    0  0.4930573E+000  0.2368020E+03  0.7546771E-02  0.1121942E+00
         -4   -1    0    0    0  501 -0.00000000000E+00  0.00000000000E+00  0.12882676616E+03  0.12882676616E+03  0.00000000000E+00 0.  1.
         21   -1    0    0  501  502  0.00000000000E+00 -0.00000000000E+00 -0.74088497330E+03  0.74088497330E+03  0.00000000000E+00 0.  1.
         25    1    1    2    0    0  0.14271408281E+03 -0.14181115414E+03 -0.46311144248E+03  0.52016816611E+03  0.12500000000E+03 0.  0.
         21    1    1    2  503  502  0.39691656882E+02  0.52516429793E+02 -0.12981869280E+03  0.14555513053E+03  0.00000000000E+00 0.  1.
         -4    1    1    2    0  503 -0.18240573970E+03  0.89294724350E+02 -0.19128071857E+02  0.20398844282E+03  0.00000000000E+00 0.  1.
<mgrwt>
<rscale>  4 0.23680204E+03</rscale>
<asrwt>0</asrwt>
<pdfrwt beam="1">  1       21 0.11398230E+00 0.23680204E+03</pdfrwt>
<pdfrwt beam="2">  1       -4 0.19819503E-01 0.23680204E+03</pdfrwt>
<totfact> 0.57447298E+02</totfact>
</mgrwt>
</event>
<event>
 5    0  0.4930573E+000  0.5794066E+03  0.7546771E-02  0.9949077E-01
         21   -1    0    0  503  502  0.00000000000E+00  0.00000000000E+00  0.26227389145E+04  0.26227389145E+04  0.00000000000E+00 0.  1.
          1   -1    0    0  502    0 -0.00000000000E+00 -0.00000000000E+00 -0.20172662752E+03  0.20172662752E+03  0.00000000000E+00 0. -1.
         25    1    1    2    0    0  0.56254718866E+03 -0.10750704473E+02  0.19795944065E+04  0.20617938625E+04  0.12500000000E+03 0.  0.
         21    1    1    2  503  501  0.13307947021E+02 -0.41637806905E+02  0.31404165514E+02  0.53824065523E+02  0.00000000000E+00 0. -1.
          1    1    1    2  501    0 -0.57585513568E+03  0.52388511378E+02  0.41001371492E+03  0.70884761397E+03  0.00000000000E+00 0. -1.
<mgrwt>
<rscale>  4 0.57940660E+03</rscale>
<asrwt>0</asrwt>
<pdfrwt beam="1">  1       21 0.40349827E+00 0.57940660E+03</pdfrwt>
<pdfrwt beam="2">  1        1 0.31034868E-01 0.57940660E+03</pdfrwt>
<totfact> 0.94644840E+00</totfact>
</mgrwt>
</event>
<event>
 5    0  0.4930573E+000  0.2806889E+03  0.7546771E-02  0.1095313E+00
         21   -1    0    0  501  502  0.00000000000E+00  0.00000000000E+00  0.19478597924E+03  0.19478597924E+03  0.00000000000E+00 0. -1.
         -1   -1    0    0    0  501 -0.00000000000E+00 -0.00000000000E+00 -0.44298030662E+03  0.44298030662E+03  0.00000000000E+00 0. -1.
         25    1    1    2    0    0 -0.19185987028E+03 -0.18285643729E+03 -0.84702951774E+02  0.30503487755E+03  0.12500000000E+03 0.  0.
         21    1    1    2  503  502  0.40426855623E+02 -0.84920303063E+01 -0.46572508307E+01  0.41570845789E+02  0.00000000000E+00 0. -1.
         -1    1    1    2    0  503  0.15143301466E+03  0.19134846759E+03 -0.15883412477E+03  0.29116056253E+03  0.00000000000E+00 0. -1.
<mgrwt>
<rscale>  4 0.28068888E+03</rscale>
<asrwt>0</asrwt>
<pdfrwt beam="1">  1       21 0.29967074E-01 0.28068888E+03</pdfrwt>
<pdfrwt beam="2">  1       -1 0.68150816E-01 0.28068888E+03</pdfrwt>
<totfact> 0.21964263E+03</totfact>
</mgrwt>
</event>
<event>
 5    0  0.4930573E+000  0.2718313E+03  0.7546771E-02  0.1100236E+00
         21   -1    0    0  503  502  0.00000000000E+00  0.00000000000E+00  0.10009964244E+03  0.10009964244E+03  0.00000000000E+00 0.  1.
          2   -1    0    0  502    0 -0.00000000000E+00 -0.00000000000E+00 -0.15046248791E+04  0.15046248791E+04  0.00000000000E+00 0.  1.
         25    1    1    2    0    0  0.26870079271E+00 -0.23925306258E+03 -0.14873747747E+03  0.30820437595E+03  0.12500000000E+03 0.  0.
         21    1    1    2  503  501 -0.56184449567E+02 -0.11686099874E+02 -0.13625684949E+03  0.14784852497E+03  0.00000000000E+00 0.  1.
          2    1    1    2  501    0  0.55915748774E+02  0.25093916245E+03 -0.11195309097E+04  0.11486716206E+04  0.00000000000E+00 0.  1.
<mgrwt>
<rscale>  4 0.27183129E+03</rscale>
<asrwt>0</asrwt>
<pdfrwt beam="1">  1       21 0.15399945E-01 0.27183129E+03</pdfrwt>
<pdfrwt beam="2">  1        2 0.23148074E+00 0.27183129E+03</pdfrwt>
<totfact> 0.63372889E+03</totfact>
</mgrwt>
</event>
<event>
 5    0  0.4930573E+000  0.2156787E+03  0.7546771E-02  0.1137146E+00
         21   -1    0    0  503  502  0.00000000000E+00  0.00000000000E+00  0.57570737168E+02  0.57570737168E+02  0.00000000000E+00 0.  1.
          1   -1    0    0  502    0 -0.00000000000E+00 -0.00000000000E+00 -0.25080843797E+04  0.25080843797E+04  0.00000000000E+00 0. -1.
         25    1    1    2    0    0  0.19455794618E+03 -0.68634194989E+02 -0.94095459697E+03  0.97138252028E+03  0.12500000000E+03 0.  0.
         21    1    1    2  503  501 -0.50143380112E+02 -0.16052977307E+02  0.19448173897E+02  0.56127427497E+02  0.00000000000E+00 0.  1.
          1    1    1    2  501    0 -0.14441456607E+03  0.84687172296E+02 -0.15290072194E+04  0.15381451691E+04  0.00000000000E+00 0. -1.
<mgrwt>
<rscale>  4 0.21567866E+03</rscale>
<asrwt>0</asrwt>
<pdfrwt beam="1">  1       21 0.88570383E-02 0.21567866E+03</pdfrwt>
<pdfrwt beam="2">  1        1 0.38585906E+00 0.21567866E+03</pdfrwt>
<totfact> 0.17904710E+03</totfact>
</mgrwt>
</event>
<event>
 5    0  0.4930573E+000  0.2744081E+03  0.7546771E-02  0.1098783E+00
         21   -1    0    0  503  502  0.00000000000E+00  0.00000000000E+00  0.35311202115E+03  0.35311202115E+03  0.00000000000E+00 0.  1.
          3   -1    0    0  502    0 -0.00000000000E+00 -0.00000000000E+00 -0.86142188749E+03  0.86142188749E+03  0.00000000000E+00 0.  1.
         25    1    1    2    0    0 -0.27989742892E+03 -0.17050818448E+03  0.14139487446E+03  0.37819720017E+03  0.12500000000E+03 0.  0.
         21    1    1    2  503  501  0.46741412706E+02  0.11855209056E+03  0.16596660870E+02  0.12850994899E+03  0.00000000000E+00 0.  1.
          3    1    1    2  501    0  0.23315601622E+03  0.51956093918E+02 -0.66630140166E+03  0.70782675949E+03  0.00000000000E+00 0.  1.
<mgrwt>
<rscale>  4 0.27440805E+03</rscale>
<asrwt>0</asrwt>
<pdfrwt beam="1">  1       21 0.54324927E-01 0.27440805E+03</pdfrwt>
<pdfrwt beam="2">  1        3 0.13252644E+00 0.27440805E+03</pdfrwt>
<totfact> 0.71849215E+01</totfact>
</mgrwt>
</event>
<event>
 5    0  0.4930573E+000  0.3399947E+03  0.7546771E-02  0.1067505E+00
         21   -1    0    0  503  502  0.00000000000E+00  0.00000000000E+00  0.34597441401E+03  0.34597441401E+03  0.00000000000E+00 0. -1.
          2   -1    0    0  502    0 -0.00000000000E+00 -0.00000000000E+00 -0.41685446226E+03  0.41685446226E+03  0.00000000000E+00 0.  1.
         25    1    1    2    0    0  0.28471103051E+03 -0.12037080948E+03 -0.21155609974E+03  0.39488034391E+03  0.12500000000E+03 0.  0.
         21    1    1    2  503  501 -0.17424980858E+03  0.13059076910E+03  0.13637130227E+03  0.25693204714E+03  0.00000000000E+00 0. -1.
          2    1    1    2  501    0 -0.11046122193E+03 -0.10219959626E+02  0.43047492176E+01  0.11101648522E+03  0.00000000000E+00 0.  1.
<mgrwt>
<rscale>  4 0.33834112E+03</rscale>
<asrwt>0</asrwt>
<pdfrwt beam="1">  1       21 0.53226833E-01 0.33999466E+03</pdfrwt>
<pdfrwt beam="2">  1        2 0.64131455E-01 0.33999466E+03</pdfrwt>
<totfact> 0.30459092E+03</totfact>
</mgrwt>
</event>
<event>
 5    0  0.4930573E+000  0.3434244E+03  0.7546771E-02  0.1065347E+00
         21   -1    0    0  503  502  0.00000000000E+00  0.00000000000E+00  0.13697293706E+03  0.13697293706E+03  0.00000000000E+00 0. -1.
          3   -1    0    0  502    0 -0.00000000000E+00 -0.00000000000E+00 -0.20431029599E+04  0.20431029599E+04  0.00000000000E+00 0. -1.
         25    1    1    2    0    0  0.56987128283E+02  0.36210896195E+03 -0.72723237880E+03  0.82393104438E+03  0.12500000000E+03 0.  0.
         21    1    1    2  503  501 -0.58668430898E+02 -0.29833443979E+03 -0.17618865272E+03  0.35140840072E+03  0.00000000000E+00 0. -1.
          3    1    1    2  501    0  0.16813026151E+01 -0.63774522163E+02 -0.10027089913E+04  0.10047364519E+04  0.00000000000E+00 0. -1.
<mgrwt>
<rscale>  4 0.34342442E+03</rscale>
<asrwt>0</asrwt>
<pdfrwt beam="1">  1       21 0.21072762E-01 0.34342442E+03</pdfrwt>
<pdfrwt beam="2">  1        3 0.31432350E+00 0.34342442E+03</pdfrwt>
<totfact> 0.36955713E+01</totfact>
</mgrwt>
</event>
<event>
 5    0  0.4930573E+000  0.2016521E+03  0.7546771E-02  0.1148353E+00
          2   -1    0    0  502    0 -0.00000000000E+00  0.00000000000E+00  0.55255818832E+03  0.55255818832E+03  0.00000000000E+00 0.  1.
         21   -1    0    0  503  502  0.00000000000E+00 -0.00000000000E+00 -0.15270667527E+03  0.15270667527E+03  0.00000000000E+00 0. -1.
         25    1    1    2    0    0  0.18578748528E+03  0.88415157108E+02  0.29811839828E+03  0.38318899917E+03  0.12500000000E+03 0.  0.
         21    1    1    2  503  501 -0.14408840831E+03 -0.44836468586E+02 -0.49857922908E+02  0.15892636912E+03  0.00000000000E+00 0. -1.
          2    1    1    2  501    0 -0.41699076967E+02 -0.43578688522E+02  0.15159103768E+03  0.16314949530E+03  0.00000000000E+00 0.  1.
<mgrwt>
<rscale>  4 0.20165211E+03</rscale>
<asrwt>0</asrwt>
<pdfrwt beam="1">  1       21 0.23493335E-01 0.20165211E+03</pdfrwt>
<pdfrwt beam="2">  1        2 0.85008951E-01 0.20165211E+03</pdfrwt>
<totfact> 0.11855150E+04</totfact>
</mgrwt>
</event>
<event>
 5    0  0.4930573E+000  0.3718902E+03  0.7546771E-02  0.1053973E+00
         21   -1    0    0  503  502  0.00000000000E+00  0.00000000000E+00  0.23118820030E+03  0.23118820030E+03  0.00000000000E+00 0. -1.
          2   -1    0    0  502    0 -0.00000000000E+00 -0.00000000000E+00 -0.21520847841E+04  0.21520847841E+04  0.00000000000E+00 0.  1.
         25    1    1    2    0    0  0.15610369129E+03 -0.30353941957E+03 -0.11107120822E+03  0.38008729914E+03  0.12500000000E+03 0.  0.
         21    1    1    2  503  501 -0.17349039452E+02 -0.19324284121E+02  0.78373316923E+02  0.82563877890E+02  0.00000000000E+00 0. -1.
          2    1    1    2  501    0 -0.13875465184E+03  0.32286370370E+03 -0.18881986925E+04  0.19206218074E+04  0.00000000000E+00 0.  1.
<mgrwt>
<rscale>  4 0.37189019E+03</rscale>
<asrwt>0</asrwt>
<pdfrwt beam="1">  1       21 0.35567415E-01 0.37189019E+03</pdfrwt>
<pdfrwt beam="2">  1        2 0.33108997E+00 0.37189019E+03</pdfrwt>
<totfact> 0.55350229E+02</totfact>
</mgrwt>
</event>
<event>
 5    0  0.4930573E+000  0.2303893E+03  0.7546771E-02  0.1126366E+00
          2   -1    0    0  502    0 -0.00000000000E+00  0.00000000000E+00  0.57043278506E+03  0.57043278506E+03  0.00000000000E+00 0.  1.
         21   -1    0    0  503  502  0.00000000000E+00 -0.00000000000E+00 -0.68250380318E+03  0.68250380318E+03  0.00000000000E+00 0.  1.
         25    1    1    2    0    0  0.15177647700E+03 -0.13175234921E+03 -0.57881808369E+03  0.62534003110E+03  0.12500000000E+03 0.  0.
         21    1    1    2  503  501  0.94123873191E+01  0.24943069853E+02 -0.60444112927E+02  0.66062398959E+02  0.00000000000E+00 0. -1.
          2    1    1    2  501    0 -0.16118886432E+03  0.10680927935E+03  0.52719117849E+03  0.56153415819E+03  0.00000000000E+00 0.  1.
<mgrwt>
<rscale>  4 0.23038930E+03</rscale>
<asrwt>0</asrwt>
<pdfrwt beam="1">  1       21 0.10500058E+00 0.23038930E+03</pdfrwt>
<pdfrwt beam="2">  1        2 0.87758890E-01 0.23038930E+03</pdfrwt>
<totfact> 0.47972579E+02</totfact>
</mgrwt>
</event>
<event>
 5    0  0.4930573E+000  0.2485710E+03  0.7546771E-02  0.1114211E+00
         21   -1    0    0  503  502  0.00000000000E+00  0.00000000000E+00  0.16169319394E+04  0.16169319394E+04  0.00000000000E+00 0.  1.
          2   -1    0    0  502    0 -0.00000000000E+00 -0.00000000000E+00 -0.46464925541E+02  0.46464925541E+02  0.00000000000E+00 0.  1.
         25    1    1    2    0    0 -0.13041500567E+03 -0.18469439775E+03  0.68079111690E+03  0.72816319538E+03  0.12500000000E+03 0.  0.
         21    1    1    2  503  501  0.40333513794E+02 -0.29915525222E+01  0.41431161697E+03  0.41628098405E+03  0.00000000000E+00 0.  1.
          2    1    1    2  501    0  0.90081491872E+02  0.18768595027E+03  0.47536427999E+03  0.51895268551E+03  0.00000000000E+00 0.  1.
<mgrwt>
<rscale>  4 0.24857099E+03</rscale>
<asrwt>0</asrwt>
<pdfrwt beam="1">  1       21 0.24875872E+00 0.24857099E+03</pdfrwt>
<pdfrwt beam="2">  1        2 0.71484513E-02 0.24857099E+03</pdfrwt>
<totfact> 0.77057422E+02</totfact>
</mgrwt>
</event>
<event>
 5    0  0.4930573E+000  0.2892306E+03  0.7546771E-02  0.1090752E+00
          2   -1    0    0  502    0 -0.00000000000E+00  0.00000000000E+00  0.38948659287E+04  0.38948659287E+04  0.00000000000E+00 0. -1.
         21   -1    0    0  503  502  0.00000000000E+00 -0.00000000000E+00 -0.53006734500E+02  0.53006734500E+02  0.00000000000E+00 0.  1.
         25    1    1    2    0    0 -0.21228128771E+03 -0.52956589812E+02  0.27438421900E+04  0.27553879417E+04  0.12500000000E+03 0.  0.
         21    1    1    2  503  501  0.24963262267E+03  0.94457735690E+02  0.33921477255E+03  0.43163106010E+03  0.00000000000E+00 0.  1.
          2    1    1    2  501    0 -0.37351334962E+02 -0.41501145878E+02  0.75880223163E+03  0.76085366139E+03  0.00000000000E+00 0. -1.
<mgrwt>
<rscale>  4 0.28923058E+03</rscale>
<asrwt>0</asrwt>
<pdfrwt beam="1">  1       21 0.81548853E-02 0.28923058E+03</pdfrwt>
<pdfrwt beam="2">  1        2 0.59920992E+00 0.28923058E+03</pdfrwt>
<totfact> 0.77731425E+02</totfact>
</mgrwt>
</event>
<event>
 5    0  0.4930573E+000  0.2770726E+03  0.7546771E-02  0.1097299E+00
          2   -1    0    0  502    0 -0.00000000000E+00  0.00000000000E+00  0.13574827422E+04  0.13574827422E+04  0.00000000000E+00 0.  1.
         21   -1    0    0  503  502  0.00000000000E+00 -0.00000000000E+00 -0.84101486416E+02  0.84101486416E+02  0.00000000000E+00 0.  1.
         25    1    1    2    0    0 -0.13235994620E+03 -0.20255221697E+03  0.61358486464E+03  0.67131061520E+03  0.12500000000E+03 0.  0.
         21    1    1    2  503  501  0.10528837455E+03 -0.67627978428E+02  0.23148830027E+03  0.26314638216E+03  0.00000000000E+00 0.  1.
          2    1    1    2  501    0  0.27071571650E+02  0.27018019539E+03  0.42830809085E+03  0.50712723124E+03  0.00000000000E+00 0.  1.
<mgrwt>
<rscale>  4 0.27707260E+03</rscale>
<asrwt>0</asrwt>
<pdfrwt beam="1">  1       21 0.12938691E-01 0.27707260E+03</pdfrwt>
<pdfrwt beam="2">  1        2 0.20884348E+00 0.27707260E+03</pdfrwt>
<totfact> 0.10451912E+04</totfact>
</mgrwt>
</event>
<event>
 5    0  0.4930573E+000  0.2882157E+03  0.7546771E-02  0.1091284E+00
         -2   -1    0    0    0  501 -0.00000000000E+00  0.00000000000E+00  0.98704893354E+02  0.98704893354E+02  0.00000000000E+00 0. -1.
         21   -1    0    0  501  502  0.00000000000E+00 -0.00000000000E+00 -0.99230105132E+03  0.99230105132E+03  0.00000000000E+00 0. -1.
         25    1    1    2    0    0 -0.15528285312E+03  0.18636131323E+03 -0.40415397091E+03  0.48765637055E+03  0.12500000000E+03 0.  0.
         21    1    1    2  503  502  0.81614429520E-01  0.38378981130E+02 -0.20670966419E+03  0.21024233190E+03  0.00000000000E+00 0. -1.
         -2    1    1    2    0  503  0.15520123869E+03 -0.22474029436E+03 -0.28273252287E+03  0.39310724222E+03  0.00000000000E+00 0. -1.
<mgrwt>
<rscale>  4 0.28821570E+03</rscale>
<asrwt>0</asrwt>
<pdfrwt beam="1">  1       21 0.15266170E+00 0.28821570E+03</pdfrwt>
<pdfrwt beam="2">  1       -2 0.15185368E-01 0.28821570E+03</pdfrwt>
<totfact> 0.72623802E+02</totfact>
</mgrwt>
</event>
<event>
 5    0  0.4930573E+000  0.2101026E+03  0.7546771E-02  0.1141485E+00
          2   -1    0    0  502    0 -0.00000000000E+00  0.00000000000E+00  0.42071677998E+03  0.42071677998E+03  0.00000000000E+00 0.  1.
         21   -1    0    0  503  502  0.00000000000E+00 -0.00000000000E+00 -0.10199520107E+04  0.10199520107E+04  0.00000000000E+00 0. -1.
         25    1    1    2    0    0 -0.15166959001E+03  0.16815691325E+03 -0.86771706193E+03  0.90544923192E+03  0.12500000000E+03 0.  0.
         21    1    1    2  503  501  0.58042864084E+02 -0.28960843815E+02 -0.10634415571E+03  0.12456638390E+03  0.00000000000E+00 0. -1.
          2    1    1    2  501    0  0.93626725927E+02 -0.13919606943E+03  0.37482598692E+03  0.41065317487E+03  0.00000000000E+00 0.  1.
<mgrwt>
<rscale>  4 0.21010258E+03</rscale>
<asrwt>0</asrwt>
<pdfrwt beam="1">  1       21 0.15691569E+00 0.21010258E+03</pdfrwt>
<pdfrwt beam="2">  1        2 0.64725659E-01 0.21010258E+03</pdfrwt>
<totfact> 0.24664355E+02</totfact>
</mgrwt>
</event>
<event>
 5    0  0.4930573E+000  0.3087291E+03  0.7546771E-02  0.1080957E+00
         21   -1    0    0  503  502  0.00000000000E+00  0.00000000000E+00  0.49634328691E+03  0.49634328691E+03  0.00000000000E+00 0. -1.
          2   -1    0    0  502    0 -0.00000000000E+00 -0.00000000000E+00 -0.95307787446E+03  0.95307787446E+03  0.00000000000E+00 0.  1.
         25    1    1    2    0    0  0.72899694865E+02  0.30052701437E+03 -0.63392169284E+03  0.71631875903E+03  0.12500000000E+03 0.  0.
         21    1    1    2  503  501  0.18709844360E+02 -0.70719169951E+02  0.39607608390E+03  0.40277478013E+03  0.00000000000E+00 0. -1.
          2    1    1    2  501    0 -0.91609539224E+02 -0.22980784442E+03 -0.21888897861E+03  0.33032762221E+03  0.00000000000E+00 0.  1.
<mgrwt>
<rscale>  4 0.30872907E+03</rscale>
<asrwt>0</asrwt>
<pdfrwt beam="1">  1       21 0.76360506E-01 0.30872907E+03</pdfrwt>
<pdfrwt beam="2">  1        2 0.14662736E+00 0.30872907E+03</pdfrwt>
<totfact> 0.51185599E+02</totfact>
</mgrwt>
</event>
<event>
 5    0  0.4930573E+000  0.2759958E+03  0.7546771E-02  0.1097896E+00
          2   -1    0    0  502    0 -0.00000000000E+00  0.00000000000E+00  0.87781638398E+03  0.87781638398E+03  0.00000000000E+00 0. -1.
         21   -1    0    0  503  502  0.00000000000E+00 -0.00000000000E+00 -0.46249391029E+03  0.46249391029E+03  0.00000000000E+00 0.  1.
         25    1    1    2    0    0  0.41440444546E+02 -0.20803578861E+03  0.60743025702E+03  0.65543322843E+03  0.12500000000E+03 0.  0.
         21    1    1    2  503  501 -0.43516242955E+02  0.24411142830E+03 -0.40176860308E+03  0.47212505044E+03  0.00000000000E+00 0.  1.
          2    1    1    2  501    0  0.20757984092E+01 -0.36075639695E+02  0.20966081976E+03  0.21275201541E+03  0.00000000000E+00 0. -1.
<mgrwt>
<rscale>  4 0.27599581E+03</rscale>
<asrwt>0</asrwt>
<pdfrwt beam="1">  1       21 0.71152909E-01 0.27599581E+03</pdfrwt>
<pdfrwt beam="2">  1        2 0.13504867E+00 0.27599581E+03</pdfrwt>
<totfact> 0.68059872E+02</totfact>
</mgrwt>
</event>
<event>
 5    0  0.4930573E+000  0.3009418E+03  0.7546771E-02  0.1084771E+00
          1   -1    0    0  502    0 -0.00000000000E+00  0.00000000000E+00  0.17762086823E+04  0.17762086823E+04  0.00000000000E+00 0. -1.
         21   -1    0    0  503  502  0.00000000000E+00 -0.00000000000E+00 -0.31800546847E+03  0.31800546847E+03  0.00000000000E+00 0.  1.
         25    1    1    2    0    0  0.26548147991E+03  0.81293246699E+02 -0.12379233365E+03  0.32869218123E+03  0.12500000000E+03 0.  0.
         21    1    1    2  503  501  0.67522460544E+01 -0.52076659819E+02 -0.71945580987E+02  0.89071532760E+02  0.00000000000E+00 0.  1.
          1    1    1    2  501    0 -0.27223372596E+03 -0.29216586880E+02  0.16539411285E+04  0.16764504368E+04  0.00000000000E+00 0. -1.
<mgrwt>
<rscale>  4 0.30094184E+03</rscale>
<asrwt>0</asrwt>
<pdfrwt beam="1">  1       21 0.48923919E-01 0.30094184E+03</pdfrwt>
<pdfrwt beam="2">  1        1 0.27326287E+00 0.30094184E+03</pdfrwt>
<totfact> 0.19938694E+02</totfact>
</mgrwt>
</event>
<event>
 5    0  0.4930573E+000  0.2707879E+03  0.7546771E-02  0.1100830E+00
         21   -1    0    0  503  502  0.00000000000E+00  0.00000000000E+00  0.11015895238E+04  0.11015895238E+04  0.00000000000E+00 0.  1.
          2   -1    0    0  502    0 -0.00000000000E+00 -0.00000000000E+00 -0.81581915416E+02  0.81581915416E+02  0.00000000000E+00 0.  1.
         25    1    1    2    0    0  0.19483792452E+03  0.14458525372E+03  0.30994702635E+03  0.41298773779E+03  0.12500000000E+03 0.  0.
         21    1    1    2  503  501  0.14265249714E+02 -0.30376544064E+02  0.24849422132E+03  0.25075009433E+03  0.00000000000E+00 0.  1.
          2    1    1    2  501    0 -0.20910317423E+03 -0.11420870966E+03  0.46156636076E+03  0.51943360713E+03  0.00000000000E+00 0.  1.
<mgrwt>
<rscale>  4 0.27078790E+03</rscale>
<asrwt>0</asrwt>
<pdfrwt beam="1">  1       21 0.16947530E+00 0.27078790E+03</pdfrwt>
<pdfrwt beam="2">  1        2 0.12551065E-01 0.27078790E+03</pdfrwt>
<totfact> 0.12169437E+03</totfact>
</mgrwt>
</event>
<event>
 5    0  0.4930573E+000  0.2099508E+03  0.7546771E-02  0.1141605E+00
          2   -1    0    0  502    0 -0.00000000000E+00  0.00000000000E+00  0.25707432983E+04  0.25707432983E+04  0.00000000000E+00 0.  1.
         21   -1    0    0  503  502  0.00000000000E+00 -0.00000000000E+00 -0.11615569496E+03  0.11615569496E+03  0.00000000000E+00 0.  1.
         25    1    1    2    0    0 -0.43446725671E+02  0.25995854425E+03  0.12662263393E+03  0.31800055680E+03  0.12500000000E+03 0.  0.
         21    1    1    2  503  501 -0.19235847783E+02 -0.10650548142E+03  0.15181084461E+03  0.18644025304E+03  0.00000000000E+00 0.  1.
          2    1    1    2  501    0  0.62682573454E+02 -0.15345306283E+03  0.21761541248E+04  0.21824581834E+04  0.00000000000E+00 0.  1.
<mgrwt>
<rscale>  4 0.20995082E+03</rscale>
<asrwt>0</asrwt>
<pdfrwt beam="1">  1       21 0.17870109E-01 0.20995082E+03</pdfrwt>
<pdfrwt beam="2">  1        2 0.39549892E+00 0.20995082E+03</pdfrwt>
<totfact> 0.13492477E+03</totfact>
</mgrwt>
</event>
<event>
 5    0  0.4930573E+000  0.3238247E+03  0.7546771E-02  0.1073902E+00
         -4   -1    0    0    0  501 -0.00000000000E+00  0.00000000000E+00  0.17992530915E+03  0.17992530915E+03  0.00000000000E+00 0. -1.
         21   -1    0    0  501  502  0.00000000000E+00 -0.00000000000E+00 -0.68743323804E+03  0.68743323804E+03  0.00000000000E+00 0. -1.
         25    1    1    2    0    0  0.26556645571E+03  0.17114489939E+03 -0.23985845062E+03  0.41590046323E+03  0.12500000000E+03 0.  0.
         21    1    1    2  503  502 -0.22315272961E+01 -0.55464827364E+02 -0.11060692353E+03  0.12375466990E+03  0.00000000000E+00 0.  1.
         -4    1    1    2    0  503 -0.26333492841E+03 -0.11568007202E+03 -0.15704255474E+03  0.32770341405E+03  0.00000000000E+00 0. -1.
<mgrwt>
<rscale>  4 0.32382469E+03</rscale>
<asrwt>0</asrwt>
<pdfrwt beam="1">  1       21 0.10575896E+00 0.32382469E+03</pdfrwt>
<pdfrwt beam="2">  1       -4 0.27680817E-01 0.32382469E+03</pdfrwt>
<totfact> 0.36664797E+02</totfact>
</mgrwt>
</event>
<event>
 5    0  0.4930573E+000  0.3233899E+03  0.7546771E-02  0.1074100E+00
         21   -1    0    0  501  502  0.00000000000E+00  0.00000000000E+00  0.28380933391E+03  0.28380933391E+03  0.00000000000E+00 0. -1.
         -4   -1    0    0    0  501 -0.00000000000E+00 -0.00000000000E+00 -0.51380812180E+03  0.51380812180E+03  0.00000000000E+00 0.  1.
         25    1    1    2    0    0 -0.22950099947E+03  0.19048703935E+03  0.10375962108E+03  0.33962785499E+03  0.12500000000E+03 0.  0.
         21    1    1    2  503  502  0.29182550430E+01 -0.34819036022E+02 -0.17914914438E+02  0.39266087675E+02  0.00000000000E+00 0. -1.
         -4    1    1    2    0  503  0.22658274442E+03 -0.15566800333E+03 -0.31584349454E+03  0.41872351304E+03  0.00000000000E+00 0.  1.
<mgrwt>
<rscale>  4 0.32338989E+03</rscale>
<asrwt>0</asrwt>
<pdfrwt beam="1">  1       21 0.43662975E-01 0.32338989E+03</pdfrwt>
<pdfrwt beam="2">  1       -4 0.79047402E-01 0.32338989E+03</pdfrwt>
<totfact> 0.30495703E+02</totfact>
</mgrwt>
</event>
<event>
 5    0  0.4930573E+000  0.3783386E+03  0.7546771E-02  0.1051550E+00
          2   -1    0    0  502    0 -0.00000000000E+00  0.00000000000E+00  0.22233060118E+04  0.22233060118E+04  0.00000000000E+00 0. -1.
         21   -1    0    0  503  502  0.00000000000E+00 -0.00000000000E+00 -0.44420136047E+03  0.44420136047E+03  0.00000000000E+00 0. -1.
         25    1    1    2    0    0 -0.64864662970E+02 -0.23876804542E+03 -0.12332339157E+03  0.30339951043E+03  0.12500000000E+03 0.  0.
         21    1    1    2  503  501 -0.72712782565E+02 -0.99663368902E+02 -0.19737641983E+03  0.23276036380E+03  0.00000000000E+00 0. -1.
          2    1    1    2  501    0  0.13757744554E+03  0.33843141433E+03  0.20998044628E+04  0.21313474981E+04  0.00000000000E+00 0. -1.
<mgrwt>
<rscale>  4 0.37833861E+03</rscale>
<asrwt>0</asrwt>
<pdfrwt beam="1">  1       21 0.68338672E-01 0.37833861E+03</pdfrwt>
<pdfrwt beam="2">  1        2 0.34204707E+00 0.37833861E+03</pdfrwt>
<totfact> 0.12669157E+02</totfact>
</mgrwt>
</event>
<event>
 5    0  0.4930573E+000  0.2566732E+03  0.7546771E-02  0.1109159E+00
         21   -1    0    0  503  502  0.00000000000E+00  0.00000000000E+00  0.88221254093E+03  0.88221254093E+03  0.00000000000E+00 0. -1.
          2   -1    0    0  502    0 -0.00000000000E+00 -0.00000000000E+00 -0.27126961106E+03  0.27126961106E+03  0.00000000000E+00 0. -1.
         25    1    1    2    0    0 -0.25717763648E+03  0.28883578639E+02  0.72644594749E+03  0.78123191975E+03  0.12500000000E+03 0.  0.
         21    1    1    2  503  501  0.13147163942E+03 -0.90646748903E+02  0.38310215771E+02  0.16422331653E+03  0.00000000000E+00 0. -1.
          2    1    1    2  501    0  0.12570599705E+03  0.61763170264E+02 -0.15381323339E+03  0.20802691571E+03  0.00000000000E+00 0. -1.
<mgrwt>
<rscale>  4 0.25667318E+03</rscale>
<asrwt>0</asrwt>
<pdfrwt beam="1">  1       21 0.13572500E+00 0.25667318E+03</pdfrwt>
<pdfrwt beam="2">  1        2 0.41733787E-01 0.25667318E+03</pdfrwt>
<totfact> 0.56494353E+02</totfact>
</mgrwt>
</event>
<event>
 5    0  0.4930573E+000  0.3045316E+03  0.7546771E-02  0.1082997E+00
         21   -1    0    0  503  502  0.00000000000E+00  0.00000000000E+00  0.23857699698E+03  0.23857699698E+03  0.00000000000E+00 0. -1.
          2   -1    0    0  502    0 -0.00000000000E+00 -0.00000000000E+00 -0.19668172246E+04  0.19668172246E+04  0.00000000000E+00 0. -1.
         25    1    1    2    0    0 -0.28147006249E+03  0.96760149600E+02 -0.11329936741E+04  0.11780864094E+04  0.12500000000E+03 0.  0.
         21    1    1    2  503  501  0.14579026402E+03  0.17250619937E+03  0.11663930293E+03  0.25420054464E+03  0.00000000000E+00 0. -1.
          2    1    1    2  501    0  0.13567979847E+03 -0.26926634897E+03 -0.71188585644E+03  0.77310726746E+03  0.00000000000E+00 0. -1.
<mgrwt>
<rscale>  4 0.30453157E+03</rscale>
<asrwt>0</asrwt>
<pdfrwt beam="1">  1       21 0.36704152E-01 0.30453157E+03</pdfrwt>
<pdfrwt beam="2">  1        2 0.30258727E+00 0.30453157E+03</pdfrwt>
<totfact> 0.67127221E+02</totfact>
</mgrwt>
</event>
<event>
 5    0  0.4930573E+000  0.2684674E+03  0.7546771E-02  0.1102160E+00
         21   -1    0    0  503  502  0.00000000000E+00  0.00000000000E+00  0.26682748305E+03  0.26682748305E+03  0.00000000000E+00 0. -1.
          1   -1    0    0  502    0 -0.00000000000E+00 -0.00000000000E+00 -0.74361641207E+03  0.74361641207E+03  0.00000000000E+00 0.  1.
         25    1    1    2    0    0  0.26962501494E+03 -0.86836670068E+02 -0.57939043374E+03  0.65692962383E+03  0.12500000000E+03 0.  0.
         21    1    1    2  503  501 -0.23339796077E+03  0.68354693734E+01  0.12218687080E+03  0.26353550639E+03  0.00000000000E+00 0. -1.
          1    1    1    2  501    0 -0.36227054173E+02  0.80001200695E+02 -0.19585366078E+02  0.89978764890E+02  0.00000000000E+00 0.  1.
<mgrwt>
<rscale>  4 0.26846743E+03</rscale>
<asrwt>0</asrwt>
<pdfrwt beam="1">  1       21 0.41050383E-01 0.26846743E+03</pdfrwt>
<pdfrwt beam="2">  1        1 0.11440252E+00 0.26846743E+03</pdfrwt>
<totfact> 0.15906067E+03</totfact>
</mgrwt>
</event>
<event>
 5    0  0.4930573E+000  0.4041379E+03  0.7546771E-02  0.1042356E+00
         21   -1    0    0  503  502  0.00000000000E+00  0.00000000000E+00  0.99194995959E+03  0.99194995959E+03  0.00000000000E+00 0. -1.
          2   -1    0    0  502    0 -0.00000000000E+00 -0.00000000000E+00 -0.10125088168E+04  0.10125088168E+04  0.00000000000E+00 0. -1.
         25    1    1    2    0    0 -0.14889864635E+03 -0.39070562108E+03  0.78161091832E+03  0.89518842534E+03  0.12500000000E+03 0.  0.
         21    1    1    2  503  501  0.32017680661E+02  0.26189950478E+02  0.11135273769E+03  0.11878753121E+03  0.00000000000E+00 0.  1.
          2    1    1    2  501    0  0.11688096568E+03  0.36451567060E+03 -0.91352251325E+03  0.99048281988E+03  0.00000000000E+00 0. -1.
<mgrwt>
<rscale>  4 0.40413790E+03</rscale>
<asrwt>0</asrwt>
<pdfrwt beam="1">  1       21 0.15260769E+00 0.40413790E+03</pdfrwt>
<pdfrwt beam="2">  1        2 0.15577059E+00 0.40413790E+03</pdfrwt>
<totfact> 0.81602907E+01</totfact>
</mgrwt>
</event>
<event>
 5    0  0.4930573E+000  0.3020671E+03  0.7546771E-02  0.1084212E+00
          3   -1    0    0  502    0 -0.00000000000E+00  0.00000000000E+00  0.12629444414E+04  0.12629444414E+04  0.00000000000E+00 0. -1.
         21   -1    0    0  503  502  0.00000000000E+00 -0.00000000000E+00 -0.68439506825E+03  0.68439506825E+03  0.00000000000E+00 0.  1.
         25    1    1    2    0    0 -0.28978246762E+03 -0.55622060966E+02 -0.39073983058E+02  0.32283040185E+03  0.12500000000E+03 0.  0.
         21    1    1    2  503  501  0.22248758446E+02  0.53909555609E+00 -0.48654691065E+03  0.48705563762E+03  0.00000000000E+00 0.  1.
          3    1    1    2  501    0  0.26753370918E+03  0.55082965410E+02  0.11041702668E+04  0.11374534701E+04  0.00000000000E+00 0. -1.
<mgrwt>
<rscale>  4 0.30206713E+03</rscale>
<asrwt>0</asrwt>
<pdfrwt beam="1">  1       21 0.10529155E+00 0.30206713E+03</pdfrwt>
<pdfrwt beam="2">  1        3 0.19429914E+00 0.30206713E+03</pdfrwt>
<totfact> 0.58665000E+00</totfact>
</mgrwt>
</event>
<event>
 5    0  0.4930573E+000  0.2498223E+03  0.7546771E-02  0.1113417E+00
         21   -1    0    0  501  502  0.00000000000E+00  0.00000000000E+00  0.23987835112E+03  0.23987835112E+03  0.00000000000E+00 0.  1.
         -1   -1    0    0    0  501 -0.00000000000E+00 -0.00000000000E+00 -0.56842534858E+03  0.56842534858E+03  0.00000000000E+00 0.  1.
         25    1    1    2    0    0 -0.39166177935E+02 -0.26935139806E+03 -0.16903381444E+02  0.29999148227E+03  0.12500000000E+03 0.  0.
         21    1    1    2  503  502  0.25855451147E+02  0.63979056608E+02  0.54741760188E+02  0.88082258980E+02  0.00000000000E+00 0.  1.
         -1    1    1    2    0  503  0.13310726788E+02  0.20537234145E+03 -0.36638537621E+03  0.42022995845E+03  0.00000000000E+00 0.  1.
<mgrwt>
<rscale>  4 0.24982232E+03</rscale>
<asrwt>0</asrwt>
<pdfrwt beam="1">  1       21 0.36904362E-01 0.24982232E+03</pdfrwt>
<pdfrwt beam="2">  1       -1 0.87450053E-01 0.24982232E+03</pdfrwt>
<totfact> 0.87643034E+02</totfact>
</mgrwt>
</event>
<event>
 5    0  0.4930573E+000  0.3004607E+03  0.7546771E-02  0.1085011E+00
          2   -1    0    0  502    0 -0.00000000000E+00  0.00000000000E+00  0.47093350340E+03  0.47093350340E+03  0.00000000000E+00 0. -1.
         21   -1    0    0  503  502  0.00000000000E+00 -0.00000000000E+00 -0.23860836605E+03  0.23860836605E+03  0.00000000000E+00 0. -1.
         25    1    1    2    0    0 -0.12414263788E+03  0.24339323375E+03  0.29379932344E+03  0.42023172564E+03  0.12500000000E+03 0.  0.
         21    1    1    2  503  501 -0.74762472660E+01 -0.31294841856E+02 -0.14582226111E+02  0.35325666566E+02  0.00000000000E+00 0. -1.
          2    1    1    2  501    0  0.13161888514E+03 -0.21209839189E+03 -0.46891959982E+02  0.25398447724E+03  0.00000000000E+00 0. -1.
<mgrwt>
<rscale>  4 0.30046075E+03</rscale>
<asrwt>0</asrwt>
<pdfrwt beam="1">  1       21 0.36708979E-01 0.30046075E+03</pdfrwt>
<pdfrwt beam="2">  1        2 0.72451308E-01 0.30046075E+03</pdfrwt>
<totfact> 0.57980692E+03</totfact>
</mgrwt>
</event>
<event>
 5    0  0.4930573E+000  0.2796836E+03  0.7546771E-02  0.1095862E+00
         21   -1    0    0  501  502  0.00000000000E+00  0.00000000000E+00  0.77175265021E+02  0.77175265021E+02  0.00000000000E+00 0. -1.
         -4   -1    0    0    0  501 -0.00000000000E+00 -0.00000000000E+00 -0.14610959915E+04  0.14610959915E+04  0.00000000000E+00 0. -1.
         25    1    1    2    0    0 -0.17463855959E+03  0.20274187040E+03 -0.34294852838E+03  0.45259428369E+03  0.12500000000E+03 0.  0.
         21    1    1    2  503  502  0.97122986774E+01 -0.20700045863E+02 -0.85130862556E+01  0.24398632788E+02  0.00000000000E+00 0.  1.
         -4    1    1    2    0  503  0.16492626092E+03 -0.18204182453E+03 -0.10324591118E+04  0.10612783400E+04  0.00000000000E+00 0. -1.
<mgrwt>
<rscale>  4 0.27968364E+03</rscale>
<asrwt>0</asrwt>
<pdfrwt beam="1">  1       21 0.11873117E-01 0.27968364E+03</pdfrwt>
<pdfrwt beam="2">  1       -4 0.22478402E+00 0.27968364E+03</pdfrwt>
<totfact> 0.25342788E+02</totfact>
</mgrwt>
</event>
<event>
 5    0  0.4930573E+000  0.2092073E+03  0.7546771E-02  0.1142195E+00
         21   -1    0    0  503  502  0.00000000000E+00  0.00000000000E+00  0.61452790207E+02  0.61452790207E+02  0.00000000000E+00 0.  1.
          2   -1    0    0  502    0 -0.00000000000E+00 -0.00000000000E+00 -0.46646197321E+04  0.46646197321E+04  0.00000000000E+00 0.  1.
         25    1    1    2    0    0 -0.11402781022E+03 -0.18279227840E+03 -0.10419243433E+04  0.10712827338E+04  0.12500000000E+03 0.  0.
         21    1    1    2  503  501  0.17261435396E+02  0.52983064167E+02  0.27677798926E+02  0.62219151343E+02  0.00000000000E+00 0.  1.
          2    1    1    2  501    0  0.96766374821E+02  0.12980921423E+03 -0.35889203975E+04  0.35925706371E+04  0.00000000000E+00 0.  1.
<mgrwt>
<rscale>  4 0.20920729E+03</rscale>
<asrwt>0</asrwt>
<pdfrwt beam="1">  1       21 0.94542753E-02 0.20920729E+03</pdfrwt>
<pdfrwt beam="2">  1        2 0.71763381E+00 0.20920729E+03</pdfrwt>
<totfact> 0.14096890E+02</totfact>
</mgrwt>
</event>
<event>
 5    0  0.4930573E+000  0.1939074E+03  0.7546771E-02  0.1154984E+00
         21   -1    0    0  503  502  0.00000000000E+00  0.00000000000E+00  0.10504458443E+03  0.10504458443E+03  0.00000000000E+00 0. -1.
          2   -1    0    0  502    0 -0.00000000000E+00 -0.00000000000E+00 -0.28449133385E+04  0.28449133385E+04  0.00000000000E+00 0.  1.
         25    1    1    2    0    0 -0.20736543273E+03  0.20228622953E+02 -0.78511707915E+03  0.82185366572E+03  0.12500000000E+03 0.  0.
         21    1    1    2  503  501  0.14295451782E+03  0.17897444167E+02  0.25609640791E+02  0.14632896629E+03  0.00000000000E+00 0. -1.
          2    1    1    2  501    0  0.64410914911E+02 -0.38126067120E+02 -0.19803613158E+04  0.19817752910E+04  0.00000000000E+00 0.  1.
<mgrwt>
<rscale>  4 0.19390737E+03</rscale>
<asrwt>0</asrwt>
<pdfrwt beam="1">  1       21 0.16160705E-01 0.19390737E+03</pdfrwt>
<pdfrwt beam="2">  1        2 0.43767898E+00 0.19390737E+03</pdfrwt>
<totfact> 0.11547257E+03</totfact>
</mgrwt>
</event>
<event>
 5    0  0.4930573E+000  0.2672593E+03  0.7546771E-02  0.1102859E+00
         -4   -1    0    0    0  501 -0.00000000000E+00  0.00000000000E+00  0.36795098694E+02  0.36795098694E+02  0.00000000000E+00 0.  1.
         21   -1    0    0  501  502  0.00000000000E+00 -0.00000000000E+00 -0.20732963964E+04  0.20732963964E+04  0.00000000000E+00 0.  1.
         25    1    1    2    0    0 -0.96846514163E+02 -0.21888695464E+03 -0.71229220168E+03  0.76175844386E+03  0.12500000000E+03 0.  0.
         21    1    1    2  503  502 -0.15241944520E+02  0.16158637376E+02 -0.12356857415E+03  0.12554923716E+03  0.00000000000E+00 0.  1.
         -4    1    1    2    0  503  0.11208845868E+03  0.20272831726E+03 -0.12006405219E+04  0.12227838141E+04  0.00000000000E+00 0.  1.
<mgrwt>
<rscale>  4 0.26725927E+03</rscale>
<asrwt>0</asrwt>
<pdfrwt beam="1">  1       21 0.31896875E+00 0.26725927E+03</pdfrwt>
<pdfrwt beam="2">  1       -4 0.56607831E-02 0.26725927E+03</pdfrwt>
<totfact> 0.20871505E+02</totfact>
</mgrwt>
</event>
<event>
 5    0  0.4930573E+000  0.1752194E+03  0.7546771E-02  0.1172512E+00
         -1   -1    0    0    0  501 -0.00000000000E+00  0.00000000000E+00  0.27537526795E+03  0.27537526795E+03  0.00000000000E+00 0.  1.
         21   -1    0    0  501  502  0.00000000000E+00 -0.00000000000E+00 -0.37261949618E+03  0.37261949618E+03  0.00000000000E+00 0. -1.
         25    1    1    2    0    0  0.21040120284E+03  0.20697896905E+02 -0.14754193599E+03  0.28651473255E+03  0.12500000000E+03 0.  0.
         21    1    1    2  503  502 -0.94895040811E+02 -0.27565395629E+02 -0.12008795324E+03  0.15551860442E+03  0.00000000000E+00 0. -1.
         -1    1    1    2    0  503 -0.11550616203E+03  0.68674987239E+01  0.17038566100E+03  0.20596142716E+03  0.00000000000E+00 0.  1.
<mgrwt>
<rscale>  4 0.17521937E+03</rscale>
<asrwt>0</asrwt>
<pdfrwt beam="1">  1       21 0.57326077E-01 0.17521937E+03</pdfrwt>
<pdfrwt beam="2">  1       -1 0.42365426E-01 0.17521937E+03</pdfrwt>
<totfact> 0.14750613E+03</totfact>
</mgrwt>
</event>
<event>
 5    0  0.4930573E+000  0.2347933E+03  0.7546771E-02  0.1123311E+00
          2   -1    0    0  502    0 -0.00000000000E+00  0.00000000000E+00  0.13938239925E+04  0.13938239925E+04  0.00000000000E+00 0.  1.
         21   -1    0    0  503  502  0.00000000000E+00 -0.00000000000E+00 -0.73589962521E+02  0.73589962521E+02  0.00000000000E+00 0. -1.
         25    1    1    2    0    0  0.10912737449E+03  0.18014831587E+03  0.74357935431E+03  0.78287767609E+03  0.12500000000E+03 0.  0.
         21    1    1    2  503  501 -0.12558416753E+02 -0.16438422803E+02 -0.36852169190E+02  0.42261305583E+02  0.00000000000E+00 0. -1.
          2    1    1    2  501    0 -0.96568957741E+02 -0.16370989307E+03  0.61350684484E+03  0.64227497332E+03  0.00000000000E+00 0.  1.
<mgrwt>
<rscale>  4 0.23479325E+03</rscale>
<asrwt>0</asrwt>
<pdfrwt beam="1">  1       21 0.11321534E-01 0.23479325E+03</pdfrwt>
<pdfrwt beam="2">  1        2 0.21443444E+00 0.23479325E+03</pdfrwt>
<totfact> 0.12847133E+04</totfact>
</mgrwt>
</event>
<event>
 5    0  0.4930573E+000  0.2436278E+03  0.7546771E-02  0.1117399E+00
         21   -1    0    0  503  502  0.00000000000E+00  0.00000000000E+00  0.37496617063E+03  0.37496617063E+03  0.00000000000E+00 0. -1.
          2   -1    0    0  502    0 -0.00000000000E+00 -0.00000000000E+00 -0.36404147110E+03  0.36404147110E+03  0.00000000000E+00 0. -1.
         25    1    1    2    0    0 -0.21162362043E+03  0.56227101574E+02  0.26381255030E+03  0.36492205383E+03  0.12500000000E+03 0.  0.
         21    1    1    2  503  501  0.51722482470E+02 -0.54947103608E+02 -0.68830376799E+00  0.75464383320E+02  0.00000000000E+00 0. -1.
          2    1    1    2  501    0  0.15990113796E+03 -0.12799979654E+01 -0.25219954700E+03  0.29862120458E+03  0.00000000000E+00 0. -1.
<mgrwt>
<rscale>  4 0.24362779E+03</rscale>
<asrwt>0</asrwt>
<pdfrwt beam="1">  1       21 0.57687103E-01 0.24362779E+03</pdfrwt>
<pdfrwt beam="2">  1        2 0.56006380E-01 0.24362779E+03</pdfrwt>
<totfact> 0.30507864E+03</totfact>
</mgrwt>
</event>
<event>
 5    0  0.4930573E+000  0.4203857E+03  0.7546771E-02  0.1036941E+00
         21   -1    0    0  503  502  0.00000000000E+00  0.00000000000E+00  0.96673444227E+03  0.96673444227E+03  0.00000000000E+00 0. -1.
          2   -1    0    0  502    0 -0.00000000000E+00 -0.00000000000E+00 -0.24310250776E+04  0.24310250776E+04  0.00000000000E+00 0. -1.
         25    1    1    2    0    0 -0.15430834049E+03 -0.29147586601E+03  0.83723106104E+03  0.90848780619E+03  0.12500000000E+03 0.  0.
         21    1    1    2  503  501 -0.17419216503E+02 -0.72858121250E+02  0.58549378351E+02  0.95077676880E+02  0.00000000000E+00 0. -1.
          2    1    1    2  501    0  0.17172755699E+03  0.36433398726E+03 -0.23600710747E+04  0.23941940368E+04  0.00000000000E+00 0. -1.
<mgrwt>
<rscale>  4 0.42038571E+03</rscale>
<asrwt>0</asrwt>
<pdfrwt beam="1">  1       21 0.14872838E+00 0.42038571E+03</pdfrwt>
<pdfrwt beam="2">  1        2 0.37400386E+00 0.42038571E+03</pdfrwt>
<totfact> 0.14338599E+01</totfact>
</mgrwt>
</event>
<event>
 5    0  0.4930573E+000  0.3153699E+03  0.7546771E-02  0.1077800E+00
         -3   -1    0    0    0  501 -0.00000000000E+00  0.00000000000E+00  0.56035566507E+03  0.56035566507E+03  0.00000000000E+00 0. -1.
         21   -1    0    0  501  502  0.00000000000E+00 -0.00000000000E+00 -0.32464025222E+03  0.32464025222E+03  0.00000000000E+00 0. -1.
         25    1    1    2    0    0  0.19417688557E+03  0.20758387804E+03  0.52609928479E+02  0.31494211196E+03  0.12500000000E+03 0.  0.
         21    1    1    2  503  502 -0.18891598386E+02  0.26399975721E+02 -0.13450746960E+03  0.13836947129E+03  0.00000000000E+00 0. -1.
         -3    1    1    2    0  503 -0.17528528718E+03 -0.23398385377E+03  0.31761295397E+03  0.43168433404E+03  0.00000000000E+00 0. -1.
<mgrwt>
<rscale>  4 0.31536994E+03</rscale>
<asrwt>0</asrwt>
<pdfrwt beam="1">  1       21 0.49944654E-01 0.31536994E+03</pdfrwt>
<pdfrwt beam="2">  1       -3 0.86208564E-01 0.31536994E+03</pdfrwt>
<totfact> 0.23215277E+02</totfact>
</mgrwt>
</event>
<event>
 5    0  0.4930573E+000  0.2730139E+03  0.7546771E-02  0.1099567E+00
          2   -1    0    0  502    0 -0.00000000000E+00  0.00000000000E+00  0.16053463772E+04  0.16053463772E+04  0.00000000000E+00 0.  1.
         21   -1    0    0  503  502  0.00000000000E+00 -0.00000000000E+00 -0.50670448440E+03  0.50670448440E+03  0.00000000000E+00 0. -1.
         25    1    1    2    0    0  0.23625886223E+03 -0.16730754357E+03  0.47344348687E+03  0.56884426637E+03  0.12500000000E+03 0.  0.
         21    1    1    2  503  501 -0.51279199066E+02  0.29485831187E+02 -0.44475379613E+03  0.44867015687E+03  0.00000000000E+00 0. -1.
          2    1    1    2  501    0 -0.18497966317E+03  0.13782171239E+03  0.10699522020E+04  0.10945364383E+04  0.00000000000E+00 0.  1.
<mgrwt>
<rscale>  4 0.27301388E+03</rscale>
<asrwt>0</asrwt>
<pdfrwt beam="1">  1       21 0.77954537E-01 0.27301388E+03</pdfrwt>
<pdfrwt beam="2">  1        2 0.24697636E+00 0.27301388E+03</pdfrwt>
<totfact> 0.21235676E+02</totfact>
</mgrwt>
</event>
<event>
 5    0  0.4930573E+000  0.2436968E+03  0.7546771E-02  0.1117354E+00
          2   -1    0    0  502    0 -0.00000000000E+00  0.00000000000E+00  0.22197438832E+04  0.22197438832E+04  0.00000000000E+00 0.  1.
         21   -1    0    0  503  502  0.00000000000E+00 -0.00000000000E+00 -0.56085584632E+02  0.56085584632E+02  0.00000000000E+00 0.  1.
         25    1    1    2    0    0 -0.54061984697E+02  0.22536572323E+03  0.35519249256E+03  0.44215281767E+03  0.12500000000E+03 0.  0.
         21    1    1    2  503  501  0.58369817252E+02 -0.18579054867E+02  0.14508606669E+03  0.15748709025E+03  0.00000000000E+00 0.  1.
          2    1    1    2  501    0 -0.43078325542E+01 -0.20678666836E+03  0.16633797393E+04  0.16761895599E+04  0.00000000000E+00 0.  1.
<mgrwt>
<rscale>  4 0.24369678E+03</rscale>
<asrwt>0</asrwt>
<pdfrwt beam="1">  1       21 0.86285532E-02 0.24369678E+03</pdfrwt>
<pdfrwt beam="2">  1        2 0.34149899E+00 0.24369678E+03</pdfrwt>
<totfact> 0.76068842E+03</totfact>
</mgrwt>
</event>
<event>
 5    0  0.4930573E+000  0.2633171E+03  0.7546771E-02  0.1105166E+00
          1   -1    0    0  502    0 -0.00000000000E+00  0.00000000000E+00  0.21061874800E+04  0.21061874800E+04  0.00000000000E+00 0.  1.
         21   -1    0    0  503  502  0.00000000000E+00 -0.00000000000E+00 -0.76926410247E+02  0.76926410247E+02  0.00000000000E+00 0. -1.
         25    1    1    2    0    0  0.24624712124E+03 -0.87278195813E+02  0.36979357523E+03  0.46970992800E+03  0.12500000000E+03 0.  0.
         21    1    1    2  503  501 -0.50118038453E+02 -0.28479697494E+02  0.24473481147E+02  0.62624773271E+02  0.00000000000E+00 0. -1.
          1    1    1    2  501    0 -0.19612908278E+03  0.11575789331E+03  0.16349940134E+04  0.16507791890E+04  0.00000000000E+00 0.  1.
<mgrwt>
<rscale>  4 0.26331714E+03</rscale>
<asrwt>0</asrwt>
<pdfrwt beam="1">  1       21 0.11834834E-01 0.26331714E+03</pdfrwt>
<pdfrwt beam="2">  1        1 0.32402880E+00 0.26331714E+03</pdfrwt>
<totfact> 0.19147713E+03</totfact>
</mgrwt>
</event>
<event>
 5    0  0.4930573E+000  0.1733094E+03  0.7546771E-02  0.1174440E+00
         21   -1    0    0  503  502  0.00000000000E+00  0.00000000000E+00  0.11758667786E+04  0.11758667786E+04  0.00000000000E+00 0. -1.
          1   -1    0    0  502    0 -0.00000000000E+00 -0.00000000000E+00 -0.88724855709E+03  0.88724855709E+03  0.00000000000E+00 0.  1.
         25    1    1    2    0    0 -0.43883280750E+02  0.20940397271E+03 -0.84740844131E+02  0.26188122648E+03  0.12500000000E+03 0.  0.
         21    1    1    2  503  501 -0.70221390346E+01 -0.10583297978E+03  0.10800180144E+04  0.10852137308E+04  0.00000000000E+00 0. -1.
          1    1    1    2  501    0  0.50905419784E+02 -0.10357099293E+03 -0.70665894881E+03  0.71602037839E+03  0.00000000000E+00 0.  1.
<mgrwt>
<rscale>  4 0.17330945E+03</rscale>
<asrwt>0</asrwt>
<pdfrwt beam="1">  1       21 0.18090258E+00 0.17330945E+03</pdfrwt>
<pdfrwt beam="2">  1        1 0.13649978E+00 0.17330945E+03</pdfrwt>
<totfact> 0.40194815E+01</totfact>
</mgrwt>
</event>
<event>
 5    0  0.4930573E+000  0.2828665E+03  0.7546771E-02  0.1094134E+00
          2   -1    0    0  502    0 -0.00000000000E+00  0.00000000000E+00  0.22636873832E+04  0.22636873832E+04  0.00000000000E+00 0.  1.
         21   -1    0    0  503  502  0.00000000000E+00 -0.00000000000E+00 -0.16696077595E+03  0.16696077595E+03  0.00000000000E+00 0.  1.
         25    1    1    2    0    0  0.32928383248E+03 -0.48793040503E+02  0.27023863986E+03  0.44661227660E+03  0.12500000000E+03 0.  0.
         21    1    1    2  503  501 -0.21991183672E+03 -0.24795587380E+02  0.84221620094E+02  0.23678960782E+03  0.00000000000E+00 0.  1.
          2    1    1    2  501    0 -0.10937199576E+03  0.73588627883E+02  0.17422663473E+04  0.17472462748E+04  0.00000000000E+00 0.  1.
<mgrwt>
<rscale>  4 0.28286650E+03</rscale>
<asrwt>0</asrwt>
<pdfrwt beam="1">  1       21 0.25686275E-01 0.28286650E+03</pdfrwt>
<pdfrwt beam="2">  1        2 0.34825958E+00 0.28286650E+03</pdfrwt>
<totfact> 0.95451502E+02</totfact>
</mgrwt>
</event>
<event>
 5    0  0.4930573E+000  0.1831792E+03  0.7546771E-02  0.1164761E+00
          2   -1    0    0  502    0 -0.00000000000E+00  0.00000000000E+00  0.25057421539E+04  0.25057421539E+04  0.00000000000E+00 0. -1.
         21   -1    0    0  503  502  0.00000000000E+00 -0.00000000000E+00 -0.62090136818E+02  0.62090136818E+02  0.00000000000E+00 0. -1.
         25    1    1    2    0    0  0.42469129418E+02 -0.22447169116E+03  0.82799239246E+03  0.86797901418E+03  0.12500000000E+03 0.  0.
         21    1    1    2  503  501 -0.24416963067E+02  0.10310407360E+03  0.30926624879E+02  0.11037705470E+03  0.00000000000E+00 0. -1.
          2    1    1    2  501    0 -0.18052166350E+02  0.12136761755E+03  0.15847329998E+04  0.15894762219E+04  0.00000000000E+00 0. -1.
<mgrwt>
<rscale>  4 0.18317916E+03</rscale>
<asrwt>0</asrwt>
<pdfrwt beam="1">  1       21 0.95523307E-02 0.18317916E+03</pdfrwt>
<pdfrwt beam="2">  1        2 0.38549871E+00 0.18317916E+03</pdfrwt>
<totfact> 0.46061087E+03</totfact>
</mgrwt>
</event>
<event>
 5    0  0.4930573E+000  0.2710734E+03  0.7546771E-02  0.1100667E+00
          2   -1    0    0  502    0 -0.00000000000E+00  0.00000000000E+00  0.27897567849E+04  0.27897567849E+04  0.00000000000E+00 0. -1.
         21   -1    0    0  503  502  0.00000000000E+00 -0.00000000000E+00 -0.25834690858E+03  0.25834690858E+03  0.00000000000E+00 0.  1.
         25    1    1    2    0    0 -0.22060245774E+03  0.14770499777E+02  0.85360654250E+03  0.89059123139E+03  0.12500000000E+03 0.  0.
         21    1    1    2  503  501 -0.27504216118E+02  0.68740671117E+01 -0.23089784559E+03  0.23263179017E+03  0.00000000000E+00 0.  1.
          2    1    1    2  501    0  0.24810667386E+03 -0.21644566889E+02  0.19087011794E+04  0.19248806719E+04  0.00000000000E+00 0. -1.
<mgrwt>
<rscale>  4 0.27107341E+03</rscale>
<asrwt>0</asrwt>
<pdfrwt beam="1">  1       21 0.39745680E-01 0.27107341E+03</pdfrwt>
<pdfrwt beam="2">  1        2 0.42919333E+00 0.27107341E+03</pdfrwt>
<totfact> 0.20755710E+02</totfact>
</mgrwt>
</event>
<event>
 5    0  0.4930573E+000  0.2381288E+03  0.7546771E-02  0.1121046E+00
         21   -1    0    0  503  502  0.00000000000E+00  0.00000000000E+00  0.13763396057E+03  0.13763396057E+03  0.00000000000E+00 0.  1.
          2   -1    0    0  502    0 -0.00000000000E+00 -0.00000000000E+00 -0.12123994714E+04  0.12123994714E+04  0.00000000000E+00 0.  1.
         25    1    1    2    0    0  0.13759361382E+03 -0.15579942236E+03  0.88793581188E+01  0.24271239270E+03  0.12500000000E+03 0.  0.
         21    1    1    2  503  501 -0.11802622040E+03  0.12637688625E+03 -0.66245881431E+03  0.68465537808E+03  0.00000000000E+00 0.  1.
          2    1    1    2  501    0 -0.19567393425E+02  0.29422536107E+02 -0.42118605468E+03  0.42266566121E+03  0.00000000000E+00 0.  1.
<mgrwt>
<rscale>  4 0.23812881E+03</rscale>
<asrwt>0</asrwt>
<pdfrwt beam="1">  1       21 0.21174456E-01 0.23812881E+03</pdfrwt>
<pdfrwt beam="2">  1        2 0.18652299E+00 0.23812881E+03</pdfrwt>
<totfact> 0.51218239E+03</totfact>
</mgrwt>
</event>
<event>
 5    0  0.4930573E+000  0.3546249E+03  0.7546771E-02  0.1060733E+00
         21   -1    0    0  501  502  0.00000000000E+00  0.00000000000E+00  0.27447996488E+03  0.27447996488E+03  0.00000000000E+00 0.  1.
         -1   -1    0    0    0  501 -0.00000000000E+00 -0.00000000000E+00 -0.17479766090E+04  0.17479766090E+04  0.00000000000E+00 0. -1.
         25    1    1    2    0    0  0.87161520090E+02  0.29566391511E+03  0.83345560022E+02  0.34290780635E+03  0.12500000000E+03 0.  0.
         21    1    1    2  503  502 -0.42869829806E+02  0.35459559512E+02  0.26303507688E+02  0.61539232893E+02  0.00000000000E+00 0.  1.
         -1    1    1    2    0  503 -0.44291690285E+02 -0.33112347462E+03 -0.15831457118E+04  0.16180095346E+04  0.00000000000E+00 0. -1.
<mgrwt>
<rscale>  4 0.35462493E+03</rscale>
<asrwt>0</asrwt>
<pdfrwt beam="1">  1       21 0.42227686E-01 0.35462493E+03</pdfrwt>
<pdfrwt beam="2">  1       -1 0.26891948E+00 0.35462493E+03</pdfrwt>
<totfact> 0.28373767E+01</totfact>
</mgrwt>
</event>
<event>
 5    0  0.4930573E+000  0.2151852E+03  0.7546771E-02  0.1137524E+00
         21   -1    0    0  503  502  0.00000000000E+00  0.00000000000E+00  0.16613038391E+03  0.16613038391E+03  0.00000000000E+00 0.  1.
          1   -1    0    0  502    0 -0.00000000000E+00 -0.00000000000E+00 -0.49305478737E+03  0.49305478737E+03  0.00000000000E+00 0.  1.
         25    1    1    2    0    0  0.22819126997E+03 -0.50831275952E+02 -0.23525794973E+03  0.35443811479E+03  0.12500000000E+03 0.  0.
         21    1    1    2  503  501 -0.16212504835E+03 -0.16422715451E+01  0.21541693564E+02  0.16355816373E+03  0.00000000000E+00 0.  1.
          1    1    1    2  501    0 -0.66066221612E+02  0.52473547497E+02 -0.11320814729E+03  0.14118889276E+03  0.00000000000E+00 0.  1.
<mgrwt>
<rscale>  4 0.21518519E+03</rscale>
<asrwt>0</asrwt>
<pdfrwt beam="1">  1       21 0.25558521E-01 0.21518519E+03</pdfrwt>
<pdfrwt beam="2">  1        1 0.75854582E-01 0.21518519E+03</pdfrwt>
<totfact> 0.73368141E+03</totfact>
</mgrwt>
</event>
<event>
 5    0  0.4930573E+000  0.3218043E+03  0.7546771E-02  0.1074822E+00
          1   -1    0    0  502    0 -0.00000000000E+00  0.00000000000E+00  0.21882984527E+04  0.21882984527E+04  0.00000000000E+00 0.  1.
         21   -1    0    0  503  502  0.00000000000E+00 -0.00000000000E+00 -0.14980001542E+03  0.14980001542E+03  0.00000000000E+00 0.  1.
         25    1    1    2    0    0 -0.44229621745E+02 -0.30152859713E+03  0.83258551655E+03  0.89537667867E+03  0.12500000000E+03 0.  0.
         21    1    1    2  503  501  0.62446667679E+02  0.76438656069E+01 -0.92207662313E+02  0.11162557043E+03  0.00000000000E+00 0.  1.
          1    1    1    2  501    0 -0.18217045934E+02  0.29388473153E+03  0.12981205830E+04  0.13310962190E+04  0.00000000000E+00 0.  1.
<mgrwt>
<rscale>  4 0.32180427E+03</rscale>
<asrwt>0</asrwt>
<pdfrwt beam="1">  1       21 0.23046158E-01 0.32180427E+03</pdfrwt>
<pdfrwt beam="2">  1        1 0.33666128E+00 0.32180427E+03</pdfrwt>
<totfact> 0.47896592E+02</totfact>
</mgrwt>
</event>
<event>
 5    0  0.4930573E+000  0.2455785E+03  0.7546771E-02  0.1116131E+00
         21   -1    0    0  501  502  0.00000000000E+00  0.00000000000E+00  0.21444074251E+03  0.21444074251E+03  0.00000000000E+00 0. -1.
         -3   -1    0    0    0  501 -0.00000000000E+00 -0.00000000000E+00 -0.52908580811E+03  0.52908580811E+03  0.00000000000E+00 0. -1.
         25    1    1    2    0    0  0.23500607395E+03  0.92853383348E+02  0.45201219614E+02  0.28551314479E+03  0.12500000000E+03 0.  0.
         21    1    1    2  503  502 -0.43132931149E+02 -0.21952710290E+02 -0.52959413054E+01  0.48686941092E+02  0.00000000000E+00 0. -1.
         -3    1    1    2    0  503 -0.19187314280E+03 -0.70900673058E+02 -0.35455034391E+03  0.40932646473E+03  0.00000000000E+00 0. -1.
<mgrwt>
<rscale>  4 0.24557849E+03</rscale>
<asrwt>0</asrwt>
<pdfrwt beam="1">  1       21 0.32990884E-01 0.24557849E+03</pdfrwt>
<pdfrwt beam="2">  1       -3 0.81397816E-01 0.24557849E+03</pdfrwt>
<totfact> 0.62256540E+02</totfact>
</mgrwt>
</event>
<event>
 5    0  0.4930573E+000  0.6186010E+03  0.7546771E-02  0.9867549E-01
          2   -1    0    0  502    0 -0.00000000000E+00  0.00000000000E+00  0.34471213245E+04  0.34471213245E+04  0.00000000000E+00 0.  1.
         21   -1    0    0  503  502  0.00000000000E+00 -0.00000000000E+00 -0.24440812623E+03  0.24440812623E+03  0.00000000000E+00 0.  1.
         25    1    1    2    0    0  0.89385999463E+02 -0.58265435244E+03  0.10073248806E+04  0.11737991167E+04  0.12500000000E+03 0.  0.
         21    1    1    2  503  501 -0.27316253156E+02 -0.28166892204E+02 -0.11794945547E+03  0.12430456769E+03  0.00000000000E+00 0.  1.
          2    1    1    2  501    0 -0.62069746307E+02  0.61082124464E+03  0.23133377732E+04  0.23934257663E+04  0.00000000000E+00 0.  1.
<mgrwt>
<rscale>  4 0.61860099E+03</rscale>
<asrwt>0</asrwt>
<pdfrwt beam="1">  1       21 0.37601253E-01 0.61860099E+03</pdfrwt>
<pdfrwt beam="2">  1        2 0.53032632E+00 0.61860099E+03</pdfrwt>
<totfact> 0.77880007E+01</totfact>
</mgrwt>
</event>
<event>
 5    0  0.4930573E+000  0.2971790E+03  0.7546771E-02  0.1086659E+00
          2   -1    0    0  502    0 -0.00000000000E+00  0.00000000000E+00  0.18273197136E+04  0.18273197136E+04  0.00000000000E+00 0.  1.
         21   -1    0    0  503  502  0.00000000000E+00 -0.00000000000E+00 -0.14667813649E+03  0.14667813649E+03  0.00000000000E+00 0.  1.
         25    1    1    2    0    0 -0.10780692606E+03  0.23224086540E+03  0.30729979838E+02  0.28657893246E+03  0.12500000000E+03 0.  0.
         21    1    1    2  503  501  0.88385501952E+01  0.19853659009E+02  0.77466871786E+01  0.23071603929E+02  0.00000000000E+00 0.  1.
          2    1    1    2  501    0  0.98968375865E+02 -0.25209452441E+03  0.16421649101E+04  0.16643473137E+04  0.00000000000E+00 0.  1.
<mgrwt>
<rscale>  4 0.29717897E+03</rscale>
<asrwt>0</asrwt>
<pdfrwt beam="1">  1       21 0.22565869E-01 0.29717897E+03</pdfrwt>
<pdfrwt beam="2">  1        2 0.28112609E+00 0.29717897E+03</pdfrwt>
<totfact> 0.20709657E+03</totfact>
</mgrwt>
</event>
<event>
 5    0  0.4930573E+000  0.2736225E+03  0.7546771E-02  0.1099224E+00
          2   -1    0    0  502    0 -0.00000000000E+00  0.00000000000E+00  0.14637903908E+04  0.14637903908E+04  0.00000000000E+00 0. -1.
         21   -1    0    0  503  502  0.00000000000E+00 -0.00000000000E+00 -0.14570156069E+03  0.14570156069E+03  0.00000000000E+00 0. -1.
         25    1    1    2    0    0 -0.10325013578E+03  0.28236165103E+03  0.11836336211E+03  0.34644419176E+03  0.12500000000E+03 0.  0.
         21    1    1    2  503  501  0.29149293259E+02 -0.56801196255E+02  0.31969902018E+02  0.71401203271E+02  0.00000000000E+00 0. -1.
          2    1    1    2  501    0  0.74100842526E+02 -0.22556045478E+03  0.11677555660E+04  0.11916465565E+04  0.00000000000E+00 0. -1.
<mgrwt>
<rscale>  4 0.27362253E+03</rscale>
<asrwt>0</asrwt>
<pdfrwt beam="1">  1       21 0.22415626E-01 0.27362253E+03</pdfrwt>
<pdfrwt beam="2">  1        2 0.22519851E+00 0.27362253E+03</pdfrwt>
<totfact> 0.33011545E+03</totfact>
</mgrwt>
</event>
<event>
 5    0  0.4930573E+000  0.2351898E+03  0.7546771E-02  0.1123039E+00
         21   -1    0    0  501  502  0.00000000000E+00  0.00000000000E+00  0.29378537485E+03  0.29378537485E+03  0.00000000000E+00 0.  1.
         -3   -1    0    0    0  501 -0.00000000000E+00 -0.00000000000E+00 -0.34003937326E+03  0.34003937326E+03  0.00000000000E+00 0.  1.
         25    1    1    2    0    0  0.14451098330E+03 -0.14702998908E+03  0.18010018930E+03  0.30093574093E+03  0.12500000000E+03 0.  0.
         21    1    1    2  503  502  0.11439822757E+02  0.59762709806E+02 -0.31584056567E+02  0.68556572678E+02  0.00000000000E+00 0. -1.
         -3    1    1    2    0  503 -0.15595080606E+03  0.87267279278E+02 -0.19477013114E+03  0.26433243450E+03  0.00000000000E+00 0.  1.
<mgrwt>
<rscale>  4 0.23518975E+03</rscale>
<asrwt>0</asrwt>
<pdfrwt beam="1">  1       21 0.45197750E-01 0.23518975E+03</pdfrwt>
<pdfrwt beam="2">  1       -3 0.52313750E-01 0.23518975E+03</pdfrwt>
<totfact> 0.84079451E+02</totfact>
</mgrwt>
</event>
<event>
 5    0  0.4930573E+000  0.2345779E+03  0.7546771E-02  0.1123458E+00
          2   -1    0    0  502    0 -0.00000000000E+00  0.00000000000E+00  0.26949449759E+04  0.26949449759E+04  0.00000000000E+00 0. -1.
         21   -1    0    0  503  502  0.00000000000E+00 -0.00000000000E+00 -0.36742188185E+02  0.36742188185E+02  0.00000000000E+00 0. -1.
         25    1    1    2    0    0  0.13394005974E+03  0.17356124655E+03  0.98793218203E+03  0.10196560411E+04  0.12500000000E+03 0.  0.
         21    1    1    2  503  501  0.94422548185E+01 -0.45640036871E+02  0.20175951175E+02  0.50786200365E+02  0.00000000000E+00 0. -1.
          2    1    1    2  501    0 -0.14338231456E+03 -0.12792120968E+03  0.16500946545E+04  0.16612449226E+04  0.00000000000E+00 0. -1.
<mgrwt>
<rscale>  4 0.23457791E+03</rscale>
<asrwt>0</asrwt>
<pdfrwt beam="1">  1       21 0.56526465E-02 0.23457791E+03</pdfrwt>
<pdfrwt beam="2">  1        2 0.41460676E+00 0.23457791E+03</pdfrwt>
<totfact> 0.87743761E+03</totfact>
</mgrwt>
</event>
<event>
 5    0  0.4930573E+000  0.2133972E+03  0.7546771E-02  0.1138904E+00
          2   -1    0    0  502    0 -0.00000000000E+00  0.00000000000E+00  0.49061909357E+03  0.49061909357E+03  0.00000000000E+00 0. -1.
         21   -1    0    0  503  502  0.00000000000E+00 -0.00000000000E+00 -0.19174785103E+03  0.19174785103E+03  0.00000000000E+00 0.  1.
         25    1    1    2    0    0 -0.21150999098E+03  0.75385823404E+02 -0.25245886568E+02  0.25822829714E+03  0.12500000000E+03 0.  0.
         21    1    1    2  503  501  0.68866127217E+02  0.94064154393E+01  0.11837077699E+02  0.70506315588E+02  0.00000000000E+00 0. -1.
          2    1    1    2  501    0  0.14264386376E+03 -0.84792238843E+02  0.31228005141E+03  0.35363233187E+03  0.00000000000E+00 0. -1.
<mgrwt>
<rscale>  4 0.21339716E+03</rscale>
<asrwt>0</asrwt>
<pdfrwt beam="1">  1       21 0.29499670E-01 0.21339716E+03</pdfrwt>
<pdfrwt beam="2">  1        2 0.75479860E-01 0.21339716E+03</pdfrwt>
<totfact> 0.87187447E+03</totfact>
</mgrwt>
</event>
<event>
 5    0  0.4930573E+000  0.2467551E+03  0.7546771E-02  0.1115373E+00
         21   -1    0    0  503  502  0.00000000000E+00  0.00000000000E+00  0.18793319468E+03  0.18793319468E+03  0.00000000000E+00 0. -1.
          1   -1    0    0  502    0 -0.00000000000E+00 -0.00000000000E+00 -0.67588219383E+03  0.67588219383E+03  0.00000000000E+00 0. -1.
         25    1    1    2    0    0 -0.42545135115E+02 -0.20317341991E+03 -0.53334978961E+03  0.58581270485E+03  0.12500000000E+03 0.  0.
         21    1    1    2  503  501  0.15295733173E+01 -0.33619883824E+02  0.98620788688E+01  0.35069884266E+02  0.00000000000E+00 0. -1.
          1    1    1    2  501    0  0.41015561798E+02  0.23679330373E+03  0.35538711590E+02  0.24293279940E+03  0.00000000000E+00 0. -1.
<mgrwt>
<rscale>  4 0.24675511E+03</rscale>
<asrwt>0</asrwt>
<pdfrwt beam="1">  1       21 0.28912799E-01 0.24675511E+03</pdfrwt>
<pdfrwt beam="2">  1        1 0.10398188E+00 0.24675511E+03</pdfrwt>
<totfact> 0.37112265E+03</totfact>
</mgrwt>
</event>
<event>
 5    0  0.4930573E+000  0.2385346E+03  0.7546771E-02  0.1120773E+00
          2   -1    0    0  502    0 -0.00000000000E+00  0.00000000000E+00  0.17578371369E+04  0.17578371369E+04  0.00000000000E+00 0. -1.
         21   -1    0    0  503  502  0.00000000000E+00 -0.00000000000E+00 -0.85975133677E+02  0.85975133677E+02  0.00000000000E+00 0. -1.
         25    1    1    2    0    0  0.12940900998E+03 -0.16519686915E+03  0.13692520855E+03  0.28001823187E+03  0.12500000000E+03 0.  0.
         21    1    1    2  503  501 -0.23839706489E+02 -0.77873211714E+01  0.12671546817E+02  0.28098791349E+02  0.00000000000E+00 0. -1.
          2    1    1    2  501    0 -0.10556930349E+03  0.17298419032E+03  0.15222652478E+04  0.15356952473E+04  0.00000000000E+00 0. -1.
<mgrwt>
<rscale>  4 0.23853460E+03</rscale>
<asrwt>0</asrwt>
<pdfrwt beam="1">  1       21 0.13226945E-01 0.23853460E+03</pdfrwt>
<pdfrwt beam="2">  1        2 0.27043645E+00 0.23853460E+03</pdfrwt>
<totfact> 0.62174392E+03</totfact>
</mgrwt>
</event>
<event>
 5    0  0.4930573E+000  0.2918818E+03  0.7546771E-02  0.1089371E+00
          2   -1    0    0  502    0 -0.00000000000E+00  0.00000000000E+00  0.10463430010E+04  0.10463430010E+04  0.00000000000E+00 0. -1.
         21   -1    0    0  503  502  0.00000000000E+00 -0.00000000000E+00 -0.95591822554E+02  0.95591822554E+02  0.00000000000E+00 0. -1.
         25    1    1    2    0    0  0.27213062342E+03  0.29470362321E+02  0.49294854787E+03  0.57753514984E+03  0.12500000000E+03 0.  0.
         21    1    1    2  503  501 -0.16603244552E+02 -0.69314745254E+02  0.90869755279E+02  0.11548815551E+03  0.00000000000E+00 0. -1.
          2    1    1    2  501    0 -0.25552737887E+03  0.39844382932E+02  0.36693287535E+03  0.44891151824E+03  0.00000000000E+00 0. -1.
<mgrwt>
<rscale>  4 0.29188183E+03</rscale>
<asrwt>0</asrwt>
<pdfrwt beam="1">  1       21 0.14706435E-01 0.29188183E+03</pdfrwt>
<pdfrwt beam="2">  1        2 0.16097584E+00 0.29188183E+03</pdfrwt>
<totfact> 0.12427726E+04</totfact>
</mgrwt>
</event>
<event>
 5    0  0.4930573E+000  0.2504463E+03  0.7546771E-02  0.1113023E+00
          2   -1    0    0  502    0 -0.00000000000E+00  0.00000000000E+00  0.19441499523E+04  0.19441499523E+04  0.00000000000E+00 0.  1.
         21   -1    0    0  503  502  0.00000000000E+00 -0.00000000000E+00 -0.48560622028E+03  0.48560622028E+03  0.00000000000E+00 0.  1.
         25    1    1    2    0    0 -0.10027188651E+03 -0.23589560637E+03 -0.14194247750E+03  0.31854961191E+03  0.12500000000E+03 0.  0.
         21    1    1    2  503  501  0.70992294372E+02  0.18662563894E+03 -0.21580678246E+03  0.29400952761E+03  0.00000000000E+00 0.  1.
          2    1    1    2  501    0  0.29279592139E+02  0.49269967429E+02  0.18162929920E+04  0.18171970330E+04  0.00000000000E+00 0.  1.
<mgrwt>
<rscale>  4 0.25044631E+03</rscale>
<asrwt>0</asrwt>
<pdfrwt beam="1">  1       21 0.74708650E-01 0.25044631E+03</pdfrwt>
<pdfrwt beam="2">  1        2 0.29909999E+00 0.25044631E+03</pdfrwt>
<totfact> 0.15745119E+02</totfact>
</mgrwt>
</event>
