<event>
 5    0  0.1911311E+001  0.2685648E+03  0.7546771E-02  0.1102104E+00
         21   -1    0    0  504  501  0.00000000000E+00  0.00000000000E+00  0.30622603054E+03  0.30622603054E+03  0.00000000000E+00 0.  1.
         21   -1    0    0  503  502 -0.00000000000E+00 -0.00000000000E+00 -0.13580795311E+04  0.13580795311E+04  0.00000000000E+00 0.  1.
         25    1    1    2    0    0 -0.14721713210E+03 -0.15673676745E+03 -0.93203235095E+03  0.96464947078E+03  0.12500000000E+03 0.  0.
         21    1    1    2  503  501 -0.29981418431E+02 -0.35180957133E+01 -0.35977724497E+03  0.36104144976E+03  0.00000000000E+00 0.  1.
         21    1    1    2  504  502  0.17719855053E+03  0.16025486316E+03  0.23995609535E+03  0.33861464111E+03  0.00000000000E+00 0.  1.
<mgrwt>
<rscale>  4 0.26856481E+03</rscale>
<asrwt>0</asrwt>
<pdfrwt beam="1">  1       21 0.47111696E-01 0.26856481E+03</pdfrwt>
<pdfrwt beam="2">  1       21 0.20893532E+00 0.26856481E+03</pdfrwt>
<totfact> 0.46894915E+02</totfact>
</mgrwt>
</event>
<event>
 5    0  0.1911311E+001  0.2626500E+03  0.7546771E-02  0.1105561E+00
         21   -1    0    0  502  501  0.00000000000E+00  0.00000000000E+00  0.79578278033E+03  0.79578278033E+03  0.00000000000E+00 0. -1.
         21   -1    0    0  504  502 -0.00000000000E+00 -0.00000000000E+00 -0.30175890858E+03  0.30175890858E+03  0.00000000000E+00 0.  1.
         25    1    1    2    0    0  0.13175666427E+03  0.19823365551E+03  0.63928529798E+03  0.69351791107E+03  0.12500000000E+03 0.  0.
         21    1    1    2  503  501  0.43997792526E+02 -0.48164562823E+02  0.64630533390E+02  0.91829933602E+02  0.00000000000E+00 0. -1.
         21    1    1    2  504  503 -0.17575445679E+03 -0.15006909269E+03 -0.20989195962E+03  0.31219384424E+03  0.00000000000E+00 0.  1.
<mgrwt>
<rscale>  4 0.26264999E+03</rscale>
<asrwt>0</asrwt>
<pdfrwt beam="1">  1       21 0.12242812E+00 0.26264999E+03</pdfrwt>
<pdfrwt beam="2">  1       21 0.46424448E-01 0.26264999E+03</pdfrwt>
<totfact> 0.21112226E+03</totfact>
</mgrwt>
</event>
<event>
 5    0  0.1911311E+001  0.2882934E+03  0.7546771E-02  0.1091244E+00
         21   -1    0    0  503  501  0.00000000000E+00  0.00000000000E+00  0.13893162310E+04  0.13893162310E+04  0.00000000000E+00 0. -1.
         21   -1    0    0  504  502 -0.00000000000E+00 -0.00000000000E+00 -0.81491839435E+02  0.81491839435E+02  0.00000000000E+00 0. -1.
         25    1    1    2    0    0  0.22556354839E+03  0.83633307703E+02  0.53154860618E+03  0.59669285671E+03  0.12500000000E+03 0.  0.
         21    1    1    2  503  502  0.19410898907E+02  0.39511418504E+02 -0.66918620419E+01  0.44527701560E+02  0.00000000000E+00 0. -1.
         21    1    1    2  504  501 -0.24497444729E+03 -0.12314472621E+03  0.78296764740E+03  0.82958751214E+03  0.00000000000E+00 0. -1.
<mgrwt>
<rscale>  4 0.28829343E+03</rscale>
<asrwt>0</asrwt>
<pdfrwt beam="1">  1       21 0.21374094E+00 0.28829343E+03</pdfrwt>
<pdfrwt beam="2">  1       21 0.12537207E-01 0.28829343E+03</pdfrwt>
<totfact> 0.55384851E+03</totfact>
</mgrwt>
</event>
