<event>
 5    0  0.4115852E+000  0.2059245E+03  0.7546771E-02  0.1144835E+00
         21   -1    0    0  503  502  0.00000000000E+00  0.00000000000E+00  0.68924040966E+02  0.68924040966E+02  0.00000000000E+00 0.  1.
          1   -1    0    0  502    0 -0.00000000000E+00 -0.00000000000E+00 -0.17517585789E+04  0.17517585789E+04  0.00000000000E+00 0.  1.
         25    1    1    2    0    0 -0.60575653140E+02 -0.20480439033E+03 -0.39159363038E+03  0.46323300768E+03  0.12500000000E+03 0.  0.
         21    1    1    2  503  501  0.67303268259E+02  0.12875258879E+03 -0.13384573019E+03  0.19753895446E+03  0.00000000000E+00 0.  1.
          1    1    1    2  501    0 -0.67276151198E+01  0.76051801543E+02 -0.11573951774E+04  0.11599106578E+04  0.00000000000E+00 0.  1.
<mgrwt>
<rscale>  4 0.20592448E+03</rscale>
<asrwt>0</asrwt>
<pdfrwt beam="1">  1       21 0.10603699E-01 0.20592448E+03</pdfrwt>
<pdfrwt beam="2">  1        1 0.26950132E+00 0.20592448E+03</pdfrwt>
<totfact> 0.40551245E+03</totfact>
</mgrwt>
</event>
<event>
 5    0  0.4115852E+000  0.2422246E+03  0.7546771E-02  0.1118320E+00
         21   -1    0    0  503  502  0.00000000000E+00  0.00000000000E+00  0.19446013601E+03  0.19446013601E+03  0.00000000000E+00 0.  1.
          4   -1    0    0  502    0 -0.00000000000E+00 -0.00000000000E+00 -0.37173817801E+03  0.37173817801E+03  0.00000000000E+00 0. -1.
         25    1    1    2    0    0  0.21989302975E+03  0.29507882296E+02 -0.61419616561E+02  0.26195615845E+03  0.12500000000E+03 0.  0.
         21    1    1    2  503  501 -0.21450616602E+02 -0.61888344365E+00  0.43232688736E+02  0.48265695319E+02  0.00000000000E+00 0.  1.
          4    1    1    2  501    0 -0.19844241315E+03 -0.28888998852E+02 -0.15909111418E+03  0.25597646025E+03  0.00000000000E+00 0. -1.
<mgrwt>
<rscale>  4 0.24222455E+03</rscale>
<asrwt>0</asrwt>
<pdfrwt beam="1">  1       21 0.29916944E-01 0.24222455E+03</pdfrwt>
<pdfrwt beam="2">  1        4 0.57190489E-01 0.24222455E+03</pdfrwt>
<totfact> 0.13246849E+03</totfact>
</mgrwt>
</event>
<event>
 5    0  0.4115852E+000  0.2530264E+03  0.7546771E-02  0.1111407E+00
         21   -1    0    0  501  502  0.00000000000E+00  0.00000000000E+00  0.23159503766E+03  0.23159503766E+03  0.00000000000E+00 0. -1.
         -2   -1    0    0    0  501 -0.00000000000E+00 -0.00000000000E+00 -0.78496141260E+03  0.78496141260E+03  0.00000000000E+00 0.  1.
         25    1    1    2    0    0 -0.20963629929E+03 -0.65039160916E+02  0.81062087336E+02  0.26528010185E+03  0.12500000000E+03 0.  0.
         21    1    1    2  503  502 -0.69636696998E+01  0.25437087408E+02  0.36561784408E+02  0.45081062439E+02  0.00000000000E+00 0. -1.
         -2    1    1    2    0  503  0.21659996899E+03  0.39602073508E+02 -0.67099024668E+03  0.70619528598E+03  0.00000000000E+00 0.  1.
<mgrwt>
<rscale>  4 0.25302637E+03</rscale>
<asrwt>0</asrwt>
<pdfrwt beam="1">  1       21 0.35630006E-01 0.25302637E+03</pdfrwt>
<pdfrwt beam="2">  1       -2 0.12076329E+00 0.25302637E+03</pdfrwt>
<totfact> 0.33430154E+02</totfact>
</mgrwt>
</event>
<event>
 5    0  0.4115852E+000  0.2426181E+03  0.7546771E-02  0.1118061E+00
          2   -1    0    0  502    0 -0.00000000000E+00  0.00000000000E+00  0.37054641312E+04  0.37054641312E+04  0.00000000000E+00 0.  1.
         21   -1    0    0  503  502  0.00000000000E+00 -0.00000000000E+00 -0.41480443442E+02  0.41480443442E+02  0.00000000000E+00 0.  1.
         25    1    1    2    0    0 -0.20767391513E+03  0.46896842986E+02  0.39048397906E+03  0.46198539675E+03  0.12500000000E+03 0.  0.
         21    1    1    2  503  501  0.51818678644E+00 -0.32190909529E+02  0.10908035825E+03  0.11373235129E+03  0.00000000000E+00 0. -1.
          2    1    1    2  501    0  0.20715572835E+03 -0.14705933457E+02  0.31644193504E+04  0.31712268266E+04  0.00000000000E+00 0.  1.
<mgrwt>
<rscale>  4 0.24261814E+03</rscale>
<asrwt>0</asrwt>
<pdfrwt beam="1">  1       21 0.63816096E-02 0.24261814E+03</pdfrwt>
<pdfrwt beam="2">  1        2 0.57007114E+00 0.24261814E+03</pdfrwt>
<totfact> 0.16783374E+03</totfact>
</mgrwt>
</event>
<event>
 5    0  0.4115852E+000  0.1897272E+03  0.7546771E-02  0.1158708E+00
         21   -1    0    0  503  502  0.00000000000E+00  0.00000000000E+00  0.69120330159E+03  0.69120330159E+03  0.00000000000E+00 0.  1.
          2   -1    0    0  502    0 -0.00000000000E+00 -0.00000000000E+00 -0.89084730452E+03  0.89084730452E+03  0.00000000000E+00 0. -1.
         25    1    1    2    0    0 -0.89185680157E+02 -0.18838057987E+03  0.43048605538E+03  0.49435268007E+03  0.12500000000E+03 0.  0.
         21    1    1    2  503  501  0.32092955217E+02  0.58481520065E+02  0.21789825123E+03  0.22788087645E+03  0.00000000000E+00 0.  1.
          2    1    1    2  501    0  0.57092724940E+02  0.12989905980E+03 -0.84802830954E+03  0.85981704959E+03  0.00000000000E+00 0. -1.
<mgrwt>
<rscale>  4 0.18972718E+03</rscale>
<asrwt>0</asrwt>
<pdfrwt beam="1">  1       21 0.10633897E+00 0.18972718E+03</pdfrwt>
<pdfrwt beam="2">  1        2 0.13705343E+00 0.18972718E+03</pdfrwt>
<totfact> 0.27745752E+02</totfact>
</mgrwt>
</event>
<event>
 5    0  0.4115852E+000  0.4685335E+03  0.7546771E-02  0.1022335E+00
          2   -1    0    0  502    0 -0.00000000000E+00  0.00000000000E+00  0.15287552335E+04  0.15287552335E+04  0.00000000000E+00 0.  1.
         21   -1    0    0  503  502  0.00000000000E+00 -0.00000000000E+00 -0.43351265112E+03  0.43351265112E+03  0.00000000000E+00 0.  1.
         25    1    1    2    0    0 -0.95939380827E+01  0.47198331557E+03  0.69275267054E+02  0.49323864047E+03  0.12500000000E+03 0.  0.
         21    1    1    2  503  501 -0.16691608348E+02 -0.25043318034E+02 -0.18007219903E+03  0.18256991655E+03  0.00000000000E+00 0.  1.
          2    1    1    2  501    0  0.26285546430E+02 -0.44693999754E+03  0.12060395143E+04  0.12864593275E+04  0.00000000000E+00 0.  1.
<mgrwt>
<rscale>  4 0.46853349E+03</rscale>
<asrwt>0</asrwt>
<pdfrwt beam="1">  1       21 0.66694254E-01 0.46853349E+03</pdfrwt>
<pdfrwt beam="2">  1        2 0.23519311E+00 0.46853349E+03</pdfrwt>
<totfact> 0.30467797E+02</totfact>
</mgrwt>
</event>
<event>
 5    0  0.4115852E+000  0.2826399E+03  0.7546771E-02  0.1094256E+00
         21   -1    0    0  503  502  0.00000000000E+00  0.00000000000E+00  0.20060189862E+03  0.20060189862E+03  0.00000000000E+00 0. -1.
          2   -1    0    0  502    0 -0.00000000000E+00 -0.00000000000E+00 -0.31767033332E+04  0.31767033332E+04  0.00000000000E+00 0. -1.
         25    1    1    2    0    0  0.21754941984E+03  0.54643847632E+02  0.80545350556E+02  0.26912126198E+03  0.12500000000E+03 0.  0.
         21    1    1    2  503  501  0.31675071537E+02 -0.36774225560E+01  0.80980473113E+01  0.32900029844E+02  0.00000000000E+00 0.  1.
          2    1    1    2  501    0 -0.24922449137E+03 -0.50966425076E+02 -0.30647448324E+04  0.30752839400E+04  0.00000000000E+00 0. -1.
<mgrwt>
<rscale>  4 0.28263990E+03</rscale>
<asrwt>0</asrwt>
<pdfrwt beam="1">  1       21 0.30861834E-01 0.28263990E+03</pdfrwt>
<pdfrwt beam="2">  1        2 0.48872354E+00 0.28263990E+03</pdfrwt>
<totfact> 0.20167516E+02</totfact>
</mgrwt>
</event>
<event>
 5    0  0.4115852E+000  0.2367873E+03  0.7546771E-02  0.1121952E+00
          2   -1    0    0  502    0 -0.00000000000E+00  0.00000000000E+00  0.23242986261E+03  0.23242986261E+03  0.00000000000E+00 0.  1.
         21   -1    0    0  503  502  0.00000000000E+00 -0.00000000000E+00 -0.80178777755E+03  0.80178777755E+03  0.00000000000E+00 0.  1.
         25    1    1    2    0    0 -0.25708162177E+03 -0.44184120741E+02 -0.50935177750E+03  0.58575372813E+03  0.12500000000E+03 0.  0.
         21    1    1    2  503  501  0.67859523581E+02 -0.55453709364E+01 -0.19778183494E+03  0.20917294354E+03  0.00000000000E+00 0. -1.
          2    1    1    2  501    0  0.18922209819E+03  0.49729491677E+02  0.13777569748E+03  0.23929096849E+03  0.00000000000E+00 0.  1.
<mgrwt>
<rscale>  4 0.23678735E+03</rscale>
<asrwt>0</asrwt>
<pdfrwt beam="1">  1       21 0.12335196E+00 0.23678735E+03</pdfrwt>
<pdfrwt beam="2">  1        2 0.35758441E-01 0.23678735E+03</pdfrwt>
<totfact> 0.85982429E+02</totfact>
</mgrwt>
</event>
<event>
 5    0  0.8023543E+000  0.2381177E+03  0.7546771E-02  0.1121053E+00
          2   -1    0    0  502    0 -0.00000000000E+00  0.00000000000E+00  0.17568721393E+04  0.17568721393E+04  0.00000000000E+00 0. -1.
         21   -1    0    0  503  502  0.00000000000E+00 -0.00000000000E+00 -0.44240589360E+03  0.44240589360E+03  0.00000000000E+00 0. -1.
         25    1    1    2    0    0  0.95188371314E+02  0.20030513599E+03 -0.38894345934E+03  0.46484942519E+03  0.12500000000E+03 0.  0.
         21    1    1    2  503  501 -0.20630941048E+02 -0.12129639459E+02  0.55773520820E+01  0.24573781520E+02  0.00000000000E+00 0.  1.
          2    1    1    2  501    0 -0.74557430266E+02 -0.18817549653E+03  0.16978323529E+04  0.17098548262E+04  0.00000000000E+00 0. -1.
<mgrwt>
<rscale>  4 0.23811771E+03</rscale>
<asrwt>0</asrwt>
<pdfrwt beam="1">  1       21 0.68062446E-01 0.23811771E+03</pdfrwt>
<pdfrwt beam="2">  1        2 0.27028802E+00 0.23811771E+03</pdfrwt>
<totfact> 0.24494123E+02</totfact>
</mgrwt>
</event>
<event>
 5    0  0.4115852E+000  0.2988184E+03  0.7546771E-02  0.1085833E+00
         -1   -1    0    0    0  501 -0.00000000000E+00  0.00000000000E+00  0.26733965152E+03  0.26733965152E+03  0.00000000000E+00 0.  1.
         21   -1    0    0  501  502  0.00000000000E+00 -0.00000000000E+00 -0.55420908344E+03  0.55420908344E+03  0.00000000000E+00 0.  1.
         25    1    1    2    0    0 -0.21703909637E+03 -0.15662554778E+03  0.46951856137E+02  0.29911036151E+03  0.12500000000E+03 0.  0.
         21    1    1    2  503  502 -0.23252446055E+02  0.16042279641E+02 -0.21978488213E+03  0.22159292723E+03  0.00000000000E+00 0.  1.
         -1    1    1    2    0  503  0.24029154242E+03  0.14058326813E+03 -0.11403640592E+03  0.30084544623E+03  0.00000000000E+00 0.  1.
<mgrwt>
<rscale>  4 0.29881843E+03</rscale>
<asrwt>0</asrwt>
<pdfrwt beam="1">  1       21 0.85262935E-01 0.29881843E+03</pdfrwt>
<pdfrwt beam="2">  1       -1 0.41129178E-01 0.29881843E+03</pdfrwt>
<totfact> 0.61674021E+02</totfact>
</mgrwt>
</event>
<event>
 5    0  0.4115852E+000  0.2834426E+03  0.7546771E-02  0.1093823E+00
          1   -1    0    0  502    0 -0.00000000000E+00  0.00000000000E+00  0.18934007895E+04  0.18934007895E+04  0.00000000000E+00 0.  1.
         21   -1    0    0  503  502  0.00000000000E+00 -0.00000000000E+00 -0.21589686711E+03  0.21589686711E+03  0.00000000000E+00 0.  1.
         25    1    1    2    0    0  0.45434313663E+02  0.25187408582E+03 -0.10593020213E+03  0.30389313861E+03  0.12500000000E+03 0.  0.
         21    1    1    2  503  501 -0.19866768511E+02 -0.25332617346E+02  0.72218845034E+02  0.79069536300E+02  0.00000000000E+00 0. -1.
          1    1    1    2  501    0 -0.25567545152E+02 -0.22654146848E+03  0.17112152795E+04  0.17263349817E+04  0.00000000000E+00 0.  1.
<mgrwt>
<rscale>  4 0.28344262E+03</rscale>
<asrwt>0</asrwt>
<pdfrwt beam="1">  1       21 0.33214904E-01 0.28344262E+03</pdfrwt>
<pdfrwt beam="2">  1        1 0.29129242E+00 0.28344262E+03</pdfrwt>
<totfact> 0.37240974E+02</totfact>
</mgrwt>
</event>
<event>
 5    0  0.4115852E+000  0.2527802E+03  0.7546771E-02  0.1111560E+00
         21   -1    0    0  503  502  0.00000000000E+00  0.00000000000E+00  0.16641767556E+03  0.16641767556E+03  0.00000000000E+00 0.  1.
          2   -1    0    0  502    0 -0.00000000000E+00 -0.00000000000E+00 -0.28854362647E+04  0.28854362647E+04  0.00000000000E+00 0.  1.
         25    1    1    2    0    0  0.27362179268E+03 -0.31563886696E+02 -0.45575514354E+02  0.30588771123E+03  0.12500000000E+03 0.  0.
         21    1    1    2  503  501 -0.60172778051E+02  0.77117953127E+02 -0.43618684080E+02  0.10710056729E+03  0.00000000000E+00 0.  1.
          2    1    1    2  501    0 -0.21344901463E+03 -0.45554066431E+02 -0.26298243907E+04  0.26388656617E+04  0.00000000000E+00 0.  1.
<mgrwt>
<rscale>  4 0.25278022E+03</rscale>
<asrwt>0</asrwt>
<pdfrwt beam="1">  1       21 0.25602720E-01 0.25278022E+03</pdfrwt>
<pdfrwt beam="2">  1        2 0.44391326E+00 0.25278022E+03</pdfrwt>
<totfact> 0.44200316E+02</totfact>
</mgrwt>
</event>
<event>
 5    0  0.4115852E+000  0.2718859E+03  0.7546771E-02  0.1100205E+00
         21   -1    0    0  503  502  0.00000000000E+00  0.00000000000E+00  0.14389816124E+03  0.14389816124E+03  0.00000000000E+00 0.  1.
          2   -1    0    0  502    0 -0.00000000000E+00 -0.00000000000E+00 -0.94010794642E+03  0.94010794642E+03  0.00000000000E+00 0. -1.
         25    1    1    2    0    0  0.22032880679E+03 -0.10835487613E+03 -0.98979323900E+02  0.29275837963E+03  0.12500000000E+03 0.  0.
         21    1    1    2  503  501  0.18601297910E+02  0.67656246589E+02 -0.21533694103E+02  0.73396702707E+02  0.00000000000E+00 0. -1.
          2    1    1    2  501    0 -0.23893010470E+03  0.40698629537E+02 -0.67569676718E+03  0.71785102532E+03  0.00000000000E+00 0. -1.
<mgrwt>
<rscale>  4 0.27188585E+03</rscale>
<asrwt>0</asrwt>
<pdfrwt beam="1">  1       21 0.22138178E-01 0.27188585E+03</pdfrwt>
<pdfrwt beam="2">  1        2 0.14463199E+00 0.27188585E+03</pdfrwt>
<totfact> 0.67681520E+03</totfact>
</mgrwt>
</event>
<event>
 5    0  0.4115852E+000  0.2738877E+03  0.7546771E-02  0.1099075E+00
         21   -1    0    0  503  502  0.00000000000E+00  0.00000000000E+00  0.83935216524E+03  0.83935216524E+03  0.00000000000E+00 0. -1.
          3   -1    0    0  502    0 -0.00000000000E+00 -0.00000000000E+00 -0.96090453884E+03  0.96090453884E+03  0.00000000000E+00 0. -1.
         25    1    1    2    0    0 -0.12953636920E+03 -0.19286121863E+03  0.18090150428E+02  0.26443784551E+03  0.12500000000E+03 0.  0.
         21    1    1    2  503  501  0.14649940413E+03 -0.57685188130E+02  0.66993538508E+03  0.68818825660E+03  0.00000000000E+00 0. -1.
          3    1    1    2  501    0 -0.16963034931E+02  0.25054640676E+03 -0.80957790910E+03  0.84763060197E+03  0.00000000000E+00 0. -1.
<mgrwt>
<rscale>  4 0.27388773E+03</rscale>
<asrwt>0</asrwt>
<pdfrwt beam="1">  1       21 0.12913110E+00 0.27388773E+03</pdfrwt>
<pdfrwt beam="2">  1        3 0.14783147E+00 0.27388773E+03</pdfrwt>
<totfact> 0.73727360E+00</totfact>
</mgrwt>
</event>
<event>
 5    0  0.4115852E+000  0.6140204E+03  0.7546771E-02  0.9876738E-01
         21   -1    0    0  503  502  0.00000000000E+00  0.00000000000E+00  0.34003489988E+03  0.34003489988E+03  0.00000000000E+00 0. -1.
          2   -1    0    0  502    0 -0.00000000000E+00 -0.00000000000E+00 -0.15144766868E+04  0.15144766868E+04  0.00000000000E+00 0. -1.
         25    1    1    2    0    0  0.41865574809E+03  0.53579561189E+03 -0.47252957738E+03  0.83741195037E+03  0.12500000000E+03 0.  0.
         21    1    1    2  503  501 -0.28634434378E+02 -0.13537177101E+03 -0.27366790053E+02  0.14104746866E+03  0.00000000000E+00 0. -1.
          2    1    1    2  501    0 -0.39002131371E+03 -0.40042384088E+03 -0.67454541952E+03  0.87605216768E+03  0.00000000000E+00 0. -1.
<mgrwt>
<rscale>  4 0.61402044E+03</rscale>
<asrwt>0</asrwt>
<pdfrwt beam="1">  1       21 0.52313062E-01 0.61402044E+03</pdfrwt>
<pdfrwt beam="2">  1        2 0.23299641E+00 0.61402044E+03</pdfrwt>
<totfact> 0.50874707E+02</totfact>
</mgrwt>
</event>
<event>
 5    0  0.4115852E+000  0.3659369E+03  0.7546771E-02  0.1057061E+00
         21   -1    0    0  503  502  0.00000000000E+00  0.00000000000E+00  0.97900430565E+02  0.97900430565E+02  0.00000000000E+00 0. -1.
          3   -1    0    0  502    0 -0.00000000000E+00 -0.00000000000E+00 -0.18285510630E+04  0.18285510630E+04  0.00000000000E+00 0.  1.
         25    1    1    2    0    0 -0.32736088180E+03 -0.72048833520E+02 -0.35895843637E+03  0.50678628670E+03  0.12500000000E+03 0.  0.
         21    1    1    2  503  501  0.84623066796E+02  0.54764201367E+02 -0.21236523700E+03  0.23507270167E+03  0.00000000000E+00 0. -1.
          3    1    1    2  501    0  0.24273781501E+03  0.17284632153E+02 -0.11593269591E+04  0.11845925052E+04  0.00000000000E+00 0.  1.
<mgrwt>
<rscale>  4 0.36387140E+03</rscale>
<asrwt>0</asrwt>
<pdfrwt beam="1">  1       21 0.15061605E-01 0.36593691E+03</pdfrwt>
<pdfrwt beam="2">  1        3 0.28131555E+00 0.36593691E+03</pdfrwt>
<totfact> 0.10341935E+02</totfact>
</mgrwt>
</event>
<event>
 5    0  0.4115852E+000  0.2600193E+03  0.7546771E-02  0.1107132E+00
         21   -1    0    0  503  502  0.00000000000E+00  0.00000000000E+00  0.11539296107E+03  0.11539296107E+03  0.00000000000E+00 0.  1.
          2   -1    0    0  502    0 -0.00000000000E+00 -0.00000000000E+00 -0.12875950685E+04  0.12875950685E+04  0.00000000000E+00 0. -1.
         25    1    1    2    0    0 -0.17612754809E+02 -0.24931649438E+03 -0.99682066888E+03  0.10352513557E+04  0.12500000000E+03 0.  0.
         21    1    1    2  503  501  0.24175603472E+02  0.60695474226E+02  0.43676170799E+02  0.78587583564E+02  0.00000000000E+00 0.  1.
          2    1    1    2  501    0 -0.65628486629E+01  0.18862102016E+03 -0.21905760933E+03  0.28914909032E+03  0.00000000000E+00 0. -1.
<mgrwt>
<rscale>  4 0.26001932E+03</rscale>
<asrwt>0</asrwt>
<pdfrwt beam="1">  1       21 0.17752764E-01 0.26001932E+03</pdfrwt>
<pdfrwt beam="2">  1        2 0.19809154E+00 0.26001932E+03</pdfrwt>
<totfact> 0.64205944E+03</totfact>
</mgrwt>
</event>
<event>
 5    0  0.4570561E+000  0.2313902E+03  0.7546771E-02  0.1125665E+00
         21   -1    0    0  503  502  0.00000000000E+00  0.00000000000E+00  0.63344647826E+03  0.63344647826E+03  0.00000000000E+00 0. -1.
          2   -1    0    0  502    0 -0.00000000000E+00 -0.00000000000E+00 -0.26065714763E+03  0.26065714763E+03  0.00000000000E+00 0.  1.
         25    1    1    2    0    0  0.36988975130E+01 -0.21517068833E+03  0.53586004819E+03  0.59083254667E+03  0.12500000000E+03 0.  0.
         21    1    1    2  503  501  0.75081719804E+01  0.22248184137E+02  0.24518712682E+02  0.33948808749E+02  0.00000000000E+00 0.  1.
          2    1    1    2  501    0 -0.11207069493E+02  0.19292250419E+03 -0.18758943024E+03  0.26932227047E+03  0.00000000000E+00 0.  1.
<mgrwt>
<rscale>  4 0.23139023E+03</rscale>
<asrwt>0</asrwt>
<pdfrwt beam="1">  1       21 0.97453304E-01 0.23139023E+03</pdfrwt>
<pdfrwt beam="2">  1        2 0.40101100E-01 0.23139023E+03</pdfrwt>
<totfact> 0.13515432E+03</totfact>
</mgrwt>
</event>
<event>
 5    0  0.4115852E+000  0.2432348E+03  0.7546771E-02  0.1117656E+00
         21   -1    0    0  501  502  0.00000000000E+00  0.00000000000E+00  0.18084362438E+04  0.18084362438E+04  0.00000000000E+00 0. -1.
         -2   -1    0    0    0  501 -0.00000000000E+00 -0.00000000000E+00 -0.42493897967E+02  0.42493897967E+02  0.00000000000E+00 0. -1.
         25    1    1    2    0    0 -0.14427229443E+03 -0.16814673760E+03  0.63893463531E+03  0.68771381293E+03  0.12500000000E+03 0.  0.
         21    1    1    2  503  502  0.33925697287E+02  0.31799581512E+01  0.58537539553E+03  0.58636628379E+03  0.00000000000E+00 0. -1.
         -2    1    1    2    0  503  0.11034659714E+03  0.16496677945E+03  0.54163231499E+03  0.57685004504E+03  0.00000000000E+00 0. -1.
<mgrwt>
<rscale>  4 0.24323478E+03</rscale>
<asrwt>0</asrwt>
<pdfrwt beam="1">  1       21 0.27822090E+00 0.24323478E+03</pdfrwt>
<pdfrwt beam="2">  1       -2 0.65375242E-02 0.24323478E+03</pdfrwt>
<totfact> 0.44319241E+02</totfact>
</mgrwt>
</event>
<event>
 5    0  0.4115852E+000  0.2427989E+03  0.7546771E-02  0.1117942E+00
         21   -1    0    0  503  502  0.00000000000E+00  0.00000000000E+00  0.15196439235E+04  0.15196439235E+04  0.00000000000E+00 0. -1.
          2   -1    0    0  502    0 -0.00000000000E+00 -0.00000000000E+00 -0.59199558486E+02  0.59199558486E+02  0.00000000000E+00 0. -1.
         25    1    1    2    0    0  0.20352897515E+03  0.11991473378E+03  0.48004564917E+03  0.54942916958E+03  0.12500000000E+03 0.  0.
         21    1    1    2  503  501 -0.70536926090E+02  0.14959026826E+02  0.60151858516E+03  0.60582492415E+03  0.00000000000E+00 0. -1.
          2    1    1    2  501    0 -0.13299204906E+03 -0.13487376060E+03  0.37888013068E+03  0.42358938825E+03  0.00000000000E+00 0. -1.
<mgrwt>
<rscale>  4 0.24279889E+03</rscale>
<asrwt>0</asrwt>
<pdfrwt beam="1">  1       21 0.23379134E+00 0.24279889E+03</pdfrwt>
<pdfrwt beam="2">  1        2 0.91076255E-02 0.24279889E+03</pdfrwt>
<totfact> 0.69868818E+02</totfact>
</mgrwt>
</event>
<event>
 5    0  0.4115852E+000  0.3665948E+03  0.7546771E-02  0.1056003E+00
         21   -1    0    0  503  502  0.00000000000E+00  0.00000000000E+00  0.67468972281E+03  0.67468972281E+03  0.00000000000E+00 0.  1.
          1   -1    0    0  502    0 -0.00000000000E+00 -0.00000000000E+00 -0.23642175780E+03  0.23642175780E+03  0.00000000000E+00 0. -1.
         25    1    1    2    0    0  0.26932785953E+03 -0.16733306299E+03  0.14941554953E+03  0.37213956566E+03  0.12500000000E+03 0.  0.
         21    1    1    2  503  501  0.41874366456E+02 -0.45748069948E+02  0.98750584259E+02  0.11661057568E+03  0.00000000000E+00 0. -1.
          1    1    1    2  501    0 -0.31120222598E+03  0.21308113294E+03  0.19010183122E+03  0.42236133926E+03  0.00000000000E+00 0. -1.
<mgrwt>
<rscale>  4 0.36659485E+03</rscale>
<asrwt>0</asrwt>
<pdfrwt beam="1">  1       21 0.10379842E+00 0.36659485E+03</pdfrwt>
<pdfrwt beam="2">  1        1 0.36372578E-01 0.36659485E+03</pdfrwt>
<totfact> 0.90684798E+02</totfact>
</mgrwt>
</event>
<event>
 5    0  0.4115852E+000  0.2618018E+03  0.7546771E-02  0.1106065E+00
          2   -1    0    0  502    0 -0.00000000000E+00  0.00000000000E+00  0.55785212323E+03  0.55785212323E+03  0.00000000000E+00 0.  1.
         21   -1    0    0  503  502  0.00000000000E+00 -0.00000000000E+00 -0.19578955680E+03  0.19578955680E+03  0.00000000000E+00 0.  1.
         25    1    1    2    0    0 -0.46532322967E+02 -0.19875656835E+03  0.30244150946E+02  0.24126570251E+03  0.12500000000E+03 0.  0.
         21    1    1    2  503  501  0.10153132239E+03  0.25679911653E+03  0.15114819390E+03  0.31480179827E+03  0.00000000000E+00 0.  1.
          2    1    1    2  501    0 -0.54998999426E+02 -0.58042548183E+02  0.18067022159E+03  0.19757417925E+03  0.00000000000E+00 0.  1.
<mgrwt>
<rscale>  4 0.26180185E+03</rscale>
<asrwt>0</asrwt>
<pdfrwt beam="1">  1       21 0.30121471E-01 0.26180185E+03</pdfrwt>
<pdfrwt beam="2">  1        2 0.85823403E-01 0.26180185E+03</pdfrwt>
<totfact> 0.71562153E+03</totfact>
</mgrwt>
</event>
<event>
 5    0  0.4115852E+000  0.5082263E+03  0.7546771E-02  0.1011654E+00
         21   -1    0    0  503  502  0.00000000000E+00  0.00000000000E+00  0.25336804277E+03  0.25336804277E+03  0.00000000000E+00 0. -1.
          1   -1    0    0  502    0 -0.00000000000E+00 -0.00000000000E+00 -0.11153375795E+04  0.11153375795E+04  0.00000000000E+00 0. -1.
         25    1    1    2    0    0 -0.26183971139E+03  0.42504981946E+03 -0.58579986611E+03  0.77975243932E+03  0.12500000000E+03 0.  0.
         21    1    1    2  503  501  0.28418271875E+02  0.46863994061E+01 -0.29490815384E+02  0.41222187082E+02  0.00000000000E+00 0. -1.
          1    1    1    2  501    0  0.23342143952E+03 -0.42973621887E+03 -0.24667885526E+03  0.54773099590E+03  0.00000000000E+00 0. -1.
<mgrwt>
<rscale>  4 0.50822634E+03</rscale>
<asrwt>0</asrwt>
<pdfrwt beam="1">  1       21 0.38979698E-01 0.50822634E+03</pdfrwt>
<pdfrwt beam="2">  1        1 0.17159040E+00 0.50822634E+03</pdfrwt>
<totfact> 0.83996803E+02</totfact>
</mgrwt>
</event>
<event>
 5    0  0.4115852E+000  0.2307402E+03  0.7546771E-02  0.1126120E+00
          1   -1    0    0  502    0 -0.00000000000E+00  0.00000000000E+00  0.13101975337E+04  0.13101975337E+04  0.00000000000E+00 0.  1.
         21   -1    0    0  503  502  0.00000000000E+00 -0.00000000000E+00 -0.64616105272E+02  0.64616105272E+02  0.00000000000E+00 0.  1.
         25    1    1    2    0    0  0.31125189377E+02 -0.22546555629E+03  0.41970239272E+03  0.49353682025E+03  0.12500000000E+03 0.  0.
         21    1    1    2  503  501 -0.11155390899E+03  0.67881003199E+02  0.35571017761E+03  0.37892193875E+03  0.00000000000E+00 0.  1.
          1    1    1    2  501    0  0.80428719617E+02  0.15758455309E+03  0.47016885811E+03  0.50235487999E+03  0.00000000000E+00 0.  1.
<mgrwt>
<rscale>  4 0.23074019E+03</rscale>
<asrwt>0</asrwt>
<pdfrwt beam="1">  1       21 0.99409402E-02 0.23074019E+03</pdfrwt>
<pdfrwt beam="2">  1        1 0.20156883E+00 0.23074019E+03</pdfrwt>
<totfact> 0.88038498E+03</totfact>
</mgrwt>
</event>
<event>
 5    0  0.4115852E+000  0.2712207E+03  0.7546771E-02  0.1100583E+00
          2   -1    0    0  502    0 -0.00000000000E+00  0.00000000000E+00  0.48002280483E+03  0.48002280483E+03  0.00000000000E+00 0. -1.
         21   -1    0    0  503  502  0.00000000000E+00 -0.00000000000E+00 -0.21374876757E+03  0.21374876757E+03  0.00000000000E+00 0. -1.
         25    1    1    2    0    0  0.22013943936E+03  0.52805370038E+01  0.79302642984E+02  0.26533594935E+03  0.12500000000E+03 0.  0.
         21    1    1    2  503  501  0.28712510989E+02  0.45796262793E+02 -0.55344790630E+02  0.77361177751E+02  0.00000000000E+00 0. -1.
          2    1    1    2  501    0 -0.24885195035E+03 -0.51076799797E+02  0.24231618491E+03  0.35107444530E+03  0.00000000000E+00 0. -1.
<mgrwt>
<rscale>  4 0.27122072E+03</rscale>
<asrwt>0</asrwt>
<pdfrwt beam="1">  1       21 0.32884426E-01 0.27122072E+03</pdfrwt>
<pdfrwt beam="2">  1        2 0.73849662E-01 0.27122072E+03</pdfrwt>
<totfact> 0.71180143E+03</totfact>
</mgrwt>
</event>
<event>
 5    0  0.4115852E+000  0.4049134E+03  0.7546771E-02  0.1042092E+00
          1   -1    0    0  502    0 -0.00000000000E+00  0.00000000000E+00  0.23035995707E+04  0.23035995707E+04  0.00000000000E+00 0. -1.
         21   -1    0    0  503  502  0.00000000000E+00 -0.00000000000E+00 -0.17958971923E+03  0.17958971923E+03  0.00000000000E+00 0.  1.
         25    1    1    2    0    0  0.34497511754E+03  0.12485955591E+03  0.19702190908E+03  0.43478773336E+03  0.12500000000E+03 0.  0.
         21    1    1    2  503  501  0.28587444023E+01  0.47964656244E+02 -0.27724604060E+02  0.55474627880E+02  0.00000000000E+00 0.  1.
          1    1    1    2  501    0 -0.34783386195E+03 -0.17282421216E+03  0.19547125464E+04  0.19929269287E+04  0.00000000000E+00 0. -1.
<mgrwt>
<rscale>  4 0.40491339E+03</rscale>
<asrwt>0</asrwt>
<pdfrwt beam="1">  1       21 0.27629189E-01 0.40491339E+03</pdfrwt>
<pdfrwt beam="2">  1        1 0.35439991E+00 0.40491339E+03</pdfrwt>
<totfact> 0.27318944E+02</totfact>
</mgrwt>
</event>
<event>
 5    0  0.4115852E+000  0.3334710E+03  0.7546771E-02  0.1069611E+00
          2   -1    0    0  502    0 -0.00000000000E+00  0.00000000000E+00  0.42377051339E+03  0.42377051339E+03  0.00000000000E+00 0. -1.
         21   -1    0    0  503  502  0.00000000000E+00 -0.00000000000E+00 -0.30349175559E+03  0.30349175559E+03  0.00000000000E+00 0. -1.
         25    1    1    2    0    0  0.32201676051E+03  0.26963275048E+01  0.36719865216E+02  0.34738366792E+03  0.12500000000E+03 0.  0.
         21    1    1    2  503  501 -0.21078305491E+02 -0.97220506761E+01 -0.46493234192E+02  0.51965700778E+02  0.00000000000E+00 0.  1.
          2    1    1    2  501    0 -0.30093845502E+03  0.70257231713E+01  0.13005212677E+03  0.32791290029E+03  0.00000000000E+00 0. -1.
<mgrwt>
<rscale>  4 0.33347101E+03</rscale>
<asrwt>0</asrwt>
<pdfrwt beam="1">  1       21 0.46691039E-01 0.33347101E+03</pdfrwt>
<pdfrwt beam="2">  1        2 0.65195464E-01 0.33347101E+03</pdfrwt>
<totfact> 0.39503854E+03</totfact>
</mgrwt>
</event>
<event>
 5    0  0.4115852E+000  0.2361477E+03  0.7546771E-02  0.1122386E+00
          2   -1    0    0  502    0 -0.00000000000E+00  0.00000000000E+00  0.11259264795E+04  0.11259264795E+04  0.00000000000E+00 0.  1.
         21   -1    0    0  503  502  0.00000000000E+00 -0.00000000000E+00 -0.24251568181E+03  0.24251568181E+03  0.00000000000E+00 0.  1.
         25    1    1    2    0    0 -0.27202331983E+03  0.16082322845E+03  0.91434016418E+02  0.35191757088E+03  0.12500000000E+03 0.  0.
         21    1    1    2  503  501  0.10879030632E+03 -0.12835951770E+03 -0.35931297982E+02  0.17205392965E+03  0.00000000000E+00 0.  1.
          2    1    1    2  501    0  0.16323301351E+03 -0.32463710742E+02  0.82790807927E+03  0.84447066079E+03  0.00000000000E+00 0.  1.
<mgrwt>
<rscale>  4 0.23614769E+03</rscale>
<asrwt>0</asrwt>
<pdfrwt beam="1">  1       21 0.37310106E-01 0.23614769E+03</pdfrwt>
<pdfrwt beam="2">  1        2 0.17321945E+00 0.23614769E+03</pdfrwt>
<totfact> 0.19082377E+03</totfact>
</mgrwt>
</event>
<event>
 5    0  0.4115852E+000  0.3340233E+03  0.7546771E-02  0.1069370E+00
          1   -1    0    0  502    0 -0.00000000000E+00  0.00000000000E+00  0.25791446300E+04  0.25791446300E+04  0.00000000000E+00 0.  1.
         21   -1    0    0  503  502  0.00000000000E+00 -0.00000000000E+00 -0.17399514412E+03  0.17399514412E+03  0.00000000000E+00 0.  1.
         25    1    1    2    0    0  0.19752105432E+03 -0.34101976750E+03  0.74896086073E+03  0.85549776133E+03  0.12500000000E+03 0.  0.
         21    1    1    2  503  501 -0.92902029852E+02  0.69088903033E+02 -0.77707416693E+02  0.13943638794E+03  0.00000000000E+00 0.  1.
          1    1    1    2  501    0 -0.10461902447E+03  0.27193086447E+03  0.17338960418E+04  0.17582056248E+04  0.00000000000E+00 0.  1.
<mgrwt>
<rscale>  4 0.33402330E+03</rscale>
<asrwt>0</asrwt>
<pdfrwt beam="1">  1       21 0.26768486E-01 0.33402330E+03</pdfrwt>
<pdfrwt beam="2">  1        1 0.39679145E+00 0.33402330E+03</pdfrwt>
<totfact> 0.19619755E+02</totfact>
</mgrwt>
</event>
<event>
 5    0  0.4115852E+000  0.3522205E+03  0.7546771E-02  0.1061707E+00
         21   -1    0    0  503  502  0.00000000000E+00  0.00000000000E+00  0.20173800782E+03  0.20173800782E+03  0.00000000000E+00 0.  1.
          2   -1    0    0  502    0 -0.00000000000E+00 -0.00000000000E+00 -0.10660097732E+04  0.10660097732E+04  0.00000000000E+00 0. -1.
         25    1    1    2    0    0 -0.50233660401E+02  0.33214945644E+03 -0.83688820128E+03  0.91041394074E+03  0.12500000000E+03 0.  0.
         21    1    1    2  503  501  0.26515137758E+02 -0.32706099942E+03 -0.11494772285E+02  0.32833531589E+03  0.00000000000E+00 0.  1.
          2    1    1    2  501    0  0.23718522642E+02 -0.50884570141E+01 -0.15888791810E+02  0.28998524382E+02  0.00000000000E+00 0. -1.
<mgrwt>
<rscale>  4 0.35222052E+03</rscale>
<asrwt>0</asrwt>
<pdfrwt beam="1">  1       21 0.31036616E-01 0.35222052E+03</pdfrwt>
<pdfrwt beam="2">  1        2 0.16400150E+00 0.35222052E+03</pdfrwt>
<totfact> 0.28751296E+03</totfact>
</mgrwt>
</event>
<event>
 5    0  0.4115852E+000  0.2260827E+03  0.7546771E-02  0.1129428E+00
         21   -1    0    0  503  502  0.00000000000E+00  0.00000000000E+00  0.83330651048E+02  0.83330651048E+02  0.00000000000E+00 0. -1.
          4   -1    0    0  502    0 -0.00000000000E+00 -0.00000000000E+00 -0.74444461956E+03  0.74444461956E+03  0.00000000000E+00 0. -1.
         25    1    1    2    0    0 -0.66305939415E+02 -0.19454692961E+03 -0.30696112701E+03  0.38999374215E+03  0.12500000000E+03 0.  0.
         21    1    1    2  503  501  0.14492506395E+02  0.22365244828E+02  0.12481921917E+02  0.29428477578E+02  0.00000000000E+00 0.  1.
          4    1    1    2  501    0  0.51813433019E+02  0.17218168478E+03 -0.36663476342E+03  0.40835305088E+03  0.00000000000E+00 0. -1.
<mgrwt>
<rscale>  4 0.22608270E+03</rscale>
<asrwt>0</asrwt>
<pdfrwt beam="1">  1       21 0.12820100E-01 0.22608270E+03</pdfrwt>
<pdfrwt beam="2">  1        4 0.11452994E+00 0.22608270E+03</pdfrwt>
<totfact> 0.13623366E+03</totfact>
</mgrwt>
</event>
<event>
 5    0  0.4115852E+000  0.3160166E+03  0.7546771E-02  0.1077497E+00
          1   -1    0    0  502    0 -0.00000000000E+00  0.00000000000E+00  0.21413541290E+04  0.21413541290E+04  0.00000000000E+00 0. -1.
         21   -1    0    0  503  502  0.00000000000E+00 -0.00000000000E+00 -0.30427661458E+03  0.30427661458E+03  0.00000000000E+00 0. -1.
         25    1    1    2    0    0  0.83153312681E+01  0.30903255989E+03 -0.16825289373E+03  0.37350274973E+03  0.12500000000E+03 0.  0.
         21    1    1    2  503  501  0.19300138311E+02 -0.20802348638E+02 -0.14349238415E+02  0.31798328428E+02  0.00000000000E+00 0. -1.
          1    1    1    2  501    0 -0.27615469579E+02 -0.28823021126E+03  0.20196796466E+04  0.20403296654E+04  0.00000000000E+00 0. -1.
<mgrwt>
<rscale>  4 0.31601664E+03</rscale>
<asrwt>0</asrwt>
<pdfrwt beam="1">  1       21 0.46811788E-01 0.31601664E+03</pdfrwt>
<pdfrwt beam="2">  1        1 0.32943909E+00 0.31601664E+03</pdfrwt>
<totfact> 0.12529439E+02</totfact>
</mgrwt>
</event>
<event>
 5    0  0.4115852E+000  0.2492029E+03  0.7546771E-02  0.1113810E+00
          1   -1    0    0  502    0 -0.00000000000E+00  0.00000000000E+00  0.53483862003E+03  0.53483862003E+03  0.00000000000E+00 0.  1.
         21   -1    0    0  503  502  0.00000000000E+00 -0.00000000000E+00 -0.21151728694E+04  0.21151728694E+04  0.00000000000E+00 0.  1.
         25    1    1    2    0    0  0.30579670064E+03  0.29717177689E+02 -0.22230967937E+03  0.39930104723E+03  0.12500000000E+03 0.  0.
         21    1    1    2  503  501 -0.97923116632E+02 -0.14950161754E+02 -0.17785888050E+04  0.17813451606E+04  0.00000000000E+00 0.  1.
          1    1    1    2  501    0 -0.20787358401E+03 -0.14767015935E+02  0.42056423505E+03  0.46936528151E+03  0.00000000000E+00 0.  1.
<mgrwt>
<rscale>  4 0.24920294E+03</rscale>
<asrwt>0</asrwt>
<pdfrwt beam="1">  1       21 0.32541121E+00 0.24920294E+03</pdfrwt>
<pdfrwt beam="2">  1        1 0.82282866E-01 0.24920294E+03</pdfrwt>
<totfact> 0.10303176E+01</totfact>
</mgrwt>
</event>
<event>
 5    0  0.4115852E+000  0.2932524E+03  0.7546771E-02  0.1088663E+00
          3   -1    0    0  502    0 -0.00000000000E+00  0.00000000000E+00  0.76026722194E+02  0.76026722194E+02  0.00000000000E+00 0. -1.
         21   -1    0    0  503  502  0.00000000000E+00 -0.00000000000E+00 -0.12761046549E+04  0.12761046549E+04  0.00000000000E+00 0. -1.
         25    1    1    2    0    0  0.25064606715E+03  0.96276220667E+02 -0.77608412948E+03  0.83067691533E+03  0.12500000000E+03 0.  0.
         21    1    1    2  503  501  0.67801298070E+01 -0.35498592225E+02 -0.77760146315E+02  0.85748239428E+02  0.00000000000E+00 0.  1.
          3    1    1    2  501    0 -0.25742619696E+03 -0.60777628442E+02 -0.34623365692E+03  0.43570622234E+03  0.00000000000E+00 0. -1.
<mgrwt>
<rscale>  4 0.29325237E+03</rscale>
<asrwt>0</asrwt>
<pdfrwt beam="1">  1       21 0.19632378E+00 0.29325237E+03</pdfrwt>
<pdfrwt beam="2">  1        3 0.11696420E-01 0.29325237E+03</pdfrwt>
<totfact> 0.38213294E+02</totfact>
</mgrwt>
</event>
<event>
 5    0  0.4115852E+000  0.2448384E+03  0.7546771E-02  0.1116611E+00
         21   -1    0    0  503  502  0.00000000000E+00  0.00000000000E+00  0.60982036342E+03  0.60982036342E+03  0.00000000000E+00 0.  1.
          1   -1    0    0  502    0 -0.00000000000E+00 -0.00000000000E+00 -0.36387120790E+03  0.36387120790E+03  0.00000000000E+00 0.  1.
         25    1    1    2    0    0 -0.24333111872E+03 -0.56688160382E+02  0.71215190617E+02  0.28830571316E+03  0.12500000000E+03 0.  0.
         21    1    1    2  503  501  0.40471039919E+02  0.59037331864E+02  0.38594391846E+03  0.39252518368E+03  0.00000000000E+00 0.  1.
          1    1    1    2  501    0  0.20286007881E+03 -0.23491714817E+01 -0.21120995356E+03  0.29286067449E+03  0.00000000000E+00 0.  1.
<mgrwt>
<rscale>  4 0.24483838E+03</rscale>
<asrwt>0</asrwt>
<pdfrwt beam="1">  1       21 0.93818518E-01 0.24483838E+03</pdfrwt>
<pdfrwt beam="2">  1        1 0.55980186E-01 0.24483838E+03</pdfrwt>
<totfact> 0.69780935E+02</totfact>
</mgrwt>
</event>
<event>
 5    0  0.4115852E+000  0.2457699E+03  0.7546771E-02  0.1116008E+00
          3   -1    0    0  502    0 -0.00000000000E+00  0.00000000000E+00  0.94943008388E+03  0.94943008388E+03  0.00000000000E+00 0. -1.
         21   -1    0    0  503  502  0.00000000000E+00 -0.00000000000E+00 -0.27958055459E+03  0.27958055459E+03  0.00000000000E+00 0. -1.
         25    1    1    2    0    0 -0.18683440426E+03 -0.10787188422E+03  0.78630138989E+03  0.82488684907E+03  0.12500000000E+03 0.  0.
         21    1    1    2  503  501  0.53214524123E+02 -0.46910375044E+02 -0.17714988780E+03  0.19082571004E+03  0.00000000000E+00 0. -1.
          3    1    1    2  501    0  0.13361988014E+03  0.15478225927E+03  0.60698027199E+02  0.21329807936E+03  0.00000000000E+00 0. -1.
<mgrwt>
<rscale>  4 0.24576987E+03</rscale>
<asrwt>0</asrwt>
<pdfrwt beam="1">  1       21 0.43012393E-01 0.24576987E+03</pdfrwt>
<pdfrwt beam="2">  1        3 0.14606617E+00 0.24576987E+03</pdfrwt>
<totfact> 0.92794182E+01</totfact>
</mgrwt>
</event>
<event>
 5    0  0.4115852E+000  0.2098294E+03  0.7546771E-02  0.1141701E+00
         21   -1    0    0  503  502  0.00000000000E+00  0.00000000000E+00  0.39915010057E+03  0.39915010057E+03  0.00000000000E+00 0. -1.
          2   -1    0    0  502    0 -0.00000000000E+00 -0.00000000000E+00 -0.58361866917E+03  0.58361866917E+03  0.00000000000E+00 0. -1.
         25    1    1    2    0    0 -0.92085082252E+02  0.18238629418E+03  0.25525648363E+03  0.35003613401E+03  0.12500000000E+03 0.  0.
         21    1    1    2  503  501  0.88482626926E+02 -0.10123859785E+03  0.44587115029E+02  0.14165606160E+03  0.00000000000E+00 0. -1.
          2    1    1    2  501    0  0.36024553258E+01 -0.81147696336E+02 -0.48431216725E+03  0.49107657413E+03  0.00000000000E+00 0. -1.
<mgrwt>
<rscale>  4 0.20982941E+03</rscale>
<asrwt>0</asrwt>
<pdfrwt beam="1">  1       21 0.61407708E-01 0.20982941E+03</pdfrwt>
<pdfrwt beam="2">  1        2 0.89787487E-01 0.20982941E+03</pdfrwt>
<totfact> 0.16007634E+03</totfact>
</mgrwt>
</event>
<event>
 5    0  0.4115852E+000  0.2597145E+03  0.7546771E-02  0.1107315E+00
          1   -1    0    0  502    0 -0.00000000000E+00  0.00000000000E+00  0.13124329529E+03  0.13124329529E+03  0.00000000000E+00 0.  1.
         21   -1    0    0  503  502  0.00000000000E+00 -0.00000000000E+00 -0.14881982018E+04  0.14881982018E+04  0.00000000000E+00 0. -1.
         25    1    1    2    0    0  0.19960784012E+03 -0.17670411361E+03 -0.26344110057E+03  0.39508713858E+03  0.12500000000E+03 0.  0.
         21    1    1    2  503  501 -0.17523355234E+03  0.13535648745E+03 -0.11377412145E+04  0.11590872477E+04  0.00000000000E+00 0. -1.
          1    1    1    2  501    0 -0.24374287782E+02  0.41347626164E+02  0.44227408534E+02  0.65267110859E+02  0.00000000000E+00 0.  1.
<mgrwt>
<rscale>  4 0.25971451E+03</rscale>
<asrwt>0</asrwt>
<pdfrwt beam="1">  1       21 0.22895356E+00 0.25971451E+03</pdfrwt>
<pdfrwt beam="2">  1        1 0.20191277E-01 0.25971451E+03</pdfrwt>
<totfact> 0.22894759E+02</totfact>
</mgrwt>
</event>
<event>
 5    0  0.4115852E+000  0.2840734E+03  0.7546771E-02  0.1093485E+00
          2   -1    0    0  502    0 -0.00000000000E+00  0.00000000000E+00  0.44291485412E+03  0.44291485412E+03  0.00000000000E+00 0. -1.
         21   -1    0    0  503  502  0.00000000000E+00 -0.00000000000E+00 -0.58551640781E+03  0.58551640781E+03  0.00000000000E+00 0. -1.
         25    1    1    2    0    0 -0.17632741329E+03 -0.23643732776E+03 -0.27105361047E+03  0.41962963001E+03  0.12500000000E+03 0.  0.
         21    1    1    2  503  501  0.57596496914E+02  0.15898657457E+02 -0.19257135480E+03  0.20162800018E+03  0.00000000000E+00 0. -1.
          2    1    1    2  501    0  0.11873091638E+03  0.22053867031E+03  0.32102341158E+03  0.40717363174E+03  0.00000000000E+00 0. -1.
<mgrwt>
<rscale>  4 0.28407339E+03</rscale>
<asrwt>0</asrwt>
<pdfrwt beam="1">  1       21 0.90079447E-01 0.28407339E+03</pdfrwt>
<pdfrwt beam="2">  1        2 0.68140747E-01 0.28407339E+03</pdfrwt>
<totfact> 0.89535668E+02</totfact>
</mgrwt>
</event>
<event>
 5    0  0.4115852E+000  0.2438599E+03  0.7546771E-02  0.1117248E+00
         21   -1    0    0  503  502  0.00000000000E+00  0.00000000000E+00  0.49733805474E+03  0.49733805474E+03  0.00000000000E+00 0. -1.
          2   -1    0    0  502    0 -0.00000000000E+00 -0.00000000000E+00 -0.55705926124E+03  0.55705926124E+03  0.00000000000E+00 0. -1.
         25    1    1    2    0    0 -0.21881675458E+03 -0.71764002658E+02  0.39486066497E+03  0.47388900483E+03  0.12500000000E+03 0.  0.
         21    1    1    2  503  501  0.34090733471E+02 -0.24927451852E+02  0.30779145980E+02  0.52258126561E+02  0.00000000000E+00 0. -1.
          2    1    1    2  501    0  0.18472602111E+03  0.96691454509E+02 -0.48536101745E+03  0.52825018458E+03  0.00000000000E+00 0. -1.
<mgrwt>
<rscale>  4 0.24385988E+03</rscale>
<asrwt>0</asrwt>
<pdfrwt beam="1">  1       21 0.76513547E-01 0.24385988E+03</pdfrwt>
<pdfrwt beam="2">  1        2 0.85701425E-01 0.24385988E+03</pdfrwt>
<totfact> 0.10234306E+03</totfact>
</mgrwt>
</event>
<event>
 5    0  0.4115852E+000  0.2386923E+03  0.7546771E-02  0.1120667E+00
          2   -1    0    0  502    0 -0.00000000000E+00  0.00000000000E+00  0.23391938103E+04  0.23391938103E+04  0.00000000000E+00 0. -1.
         21   -1    0    0  503  502  0.00000000000E+00 -0.00000000000E+00 -0.89342386314E+02  0.89342386314E+02  0.00000000000E+00 0. -1.
         25    1    1    2    0    0 -0.23426961973E+03  0.34205561145E+02  0.18576140841E+03  0.32585974896E+03  0.12500000000E+03 0.  0.
         21    1    1    2  503  501  0.35626975920E+02 -0.34611400365E+01  0.78632405224E+01  0.36648212168E+02  0.00000000000E+00 0.  1.
          2    1    1    2  501    0  0.19864264381E+03 -0.30744421109E+02  0.20562267750E+04  0.20660282354E+04  0.00000000000E+00 0. -1.
<mgrwt>
<rscale>  4 0.23869227E+03</rscale>
<asrwt>0</asrwt>
<pdfrwt beam="1">  1       21 0.13744984E-01 0.23869227E+03</pdfrwt>
<pdfrwt beam="2">  1        2 0.35987592E+00 0.23869227E+03</pdfrwt>
<totfact> 0.28654947E+03</totfact>
</mgrwt>
</event>
<event>
 5    0  0.4115852E+000  0.2840316E+03  0.7546771E-02  0.1093507E+00
         21   -1    0    0  503  502  0.00000000000E+00  0.00000000000E+00  0.58336373649E+02  0.58336373649E+02  0.00000000000E+00 0.  1.
          4   -1    0    0  502    0 -0.00000000000E+00 -0.00000000000E+00 -0.18642172549E+04  0.18642172549E+04  0.00000000000E+00 0. -1.
         25    1    1    2    0    0 -0.42699673467E+02 -0.26079032620E+03 -0.51040635660E+03  0.58819597517E+03  0.12500000000E+03 0.  0.
         21    1    1    2  503  501 -0.14872058441E+02  0.15157683317E+02 -0.84761731414E+01  0.22864360847E+02  0.00000000000E+00 0. -1.
          4    1    1    2  501    0  0.57571731908E+02  0.24563264288E+03 -0.12869983515E+04  0.13114932925E+04  0.00000000000E+00 0. -1.
<mgrwt>
<rscale>  4 0.28403157E+03</rscale>
<asrwt>0</asrwt>
<pdfrwt beam="1">  1       21 0.89748248E-02 0.28403157E+03</pdfrwt>
<pdfrwt beam="2">  1        4 0.28680272E+00 0.28403157E+03</pdfrwt>
<totfact> 0.17844259E+02</totfact>
</mgrwt>
</event>
<event>
 5    0  0.4115852E+000  0.2399707E+03  0.7546771E-02  0.1119812E+00
          1   -1    0    0  502    0 -0.00000000000E+00  0.00000000000E+00  0.55170286939E+03  0.55170286939E+03  0.00000000000E+00 0.  1.
         21   -1    0    0  503  502  0.00000000000E+00 -0.00000000000E+00 -0.31955430712E+03  0.31955430712E+03  0.00000000000E+00 0. -1.
         25    1    1    2    0    0  0.73842134662E+02 -0.20785855444E+03 -0.15612380866E+03  0.29775406485E+03  0.12500000000E+03 0.  0.
         21    1    1    2  503  501  0.91782234441E+01  0.22167507893E+02 -0.68988951861E+02  0.73041862453E+02  0.00000000000E+00 0. -1.
          1    1    1    2  501    0 -0.83020358106E+02  0.18569104655E+03  0.45726132279E+03  0.50046124920E+03  0.00000000000E+00 0.  1.
<mgrwt>
<rscale>  4 0.23997068E+03</rscale>
<asrwt>0</asrwt>
<pdfrwt beam="1">  1       21 0.49162201E-01 0.23997068E+03</pdfrwt>
<pdfrwt beam="2">  1        1 0.84877364E-01 0.23997068E+03</pdfrwt>
<totfact> 0.16929268E+03</totfact>
</mgrwt>
</event>
<event>
 5    0  0.4115852E+000  0.2192693E+03  0.7546771E-02  0.1134429E+00
         21   -1    0    0  503  502  0.00000000000E+00  0.00000000000E+00  0.46652953858E+03  0.46652953858E+03  0.00000000000E+00 0. -1.
          1   -1    0    0  502    0 -0.00000000000E+00 -0.00000000000E+00 -0.73628217383E+03  0.73628217383E+03  0.00000000000E+00 0. -1.
         25    1    1    2    0    0  0.22147664531E+03 -0.69071417546E+02 -0.41996933090E+03  0.49580440099E+03  0.12500000000E+03 0.  0.
         21    1    1    2  503  501 -0.69214408941E+02  0.57011862057E+02  0.40234841608E+03  0.41221988640E+03  0.00000000000E+00 0. -1.
          1    1    1    2  501    0 -0.15226223637E+03  0.12059555489E+02 -0.25213172044E+03  0.29478742503E+03  0.00000000000E+00 0. -1.
<mgrwt>
<rscale>  4 0.21926929E+03</rscale>
<asrwt>0</asrwt>
<pdfrwt beam="1">  1       21 0.71773776E-01 0.21926929E+03</pdfrwt>
<pdfrwt beam="2">  1        1 0.11327418E+00 0.21926929E+03</pdfrwt>
<totfact> 0.50303936E+02</totfact>
</mgrwt>
</event>
<event>
 5    0  0.4115852E+000  0.3154502E+03  0.7546771E-02  0.1077763E+00
          2   -1    0    0  502    0 -0.00000000000E+00  0.00000000000E+00  0.14679487108E+04  0.14679487108E+04  0.00000000000E+00 0. -1.
         21   -1    0    0  503  502  0.00000000000E+00 -0.00000000000E+00 -0.66699260019E+02  0.66699260019E+02  0.00000000000E+00 0. -1.
         25    1    1    2    0    0 -0.58092992384E+02 -0.28374110624E+03  0.74835415059E+03  0.81212237122E+03  0.12500000000E+03 0.  0.
         21    1    1    2  503  501  0.71556587652E+02  0.15853547747E+03  0.28729309076E+03  0.33584395610E+03  0.00000000000E+00 0. -1.
          2    1    1    2  501    0 -0.13463595268E+02  0.12520562877E+03  0.36560220944E+03  0.38668164350E+03  0.00000000000E+00 0. -1.
<mgrwt>
<rscale>  4 0.31545017E+03</rscale>
<asrwt>0</asrwt>
<pdfrwt beam="1">  1       21 0.10261426E-01 0.31545017E+03</pdfrwt>
<pdfrwt beam="2">  1        2 0.22583824E+00 0.31545017E+03</pdfrwt>
<totfact> 0.13690411E+04</totfact>
</mgrwt>
</event>
<event>
 5    0  0.4115852E+000  0.2372011E+03  0.7546771E-02  0.1121672E+00
          2   -1    0    0  502    0 -0.00000000000E+00  0.00000000000E+00  0.75821182952E+03  0.75821182952E+03  0.00000000000E+00 0.  1.
         21   -1    0    0  503  502  0.00000000000E+00 -0.00000000000E+00 -0.16388449307E+03  0.16388449307E+03  0.00000000000E+00 0.  1.
         25    1    1    2    0    0 -0.20298358780E+03  0.33400109273E+02 -0.41228486867E+02  0.24421853400E+03  0.12500000000E+03 0.  0.
         21    1    1    2  503  501  0.24588649336E+02 -0.30021141679E+02  0.38235871582E+02  0.54478000142E+02  0.00000000000E+00 0.  1.
          2    1    1    2  501    0  0.17839493847E+03 -0.33789675939E+01  0.59731995174E+03  0.62339978845E+03  0.00000000000E+00 0.  1.
<mgrwt>
<rscale>  4 0.23720106E+03</rscale>
<asrwt>0</asrwt>
<pdfrwt beam="1">  1       21 0.25212999E-01 0.23720106E+03</pdfrwt>
<pdfrwt beam="2">  1        2 0.11664797E+00 0.23720106E+03</pdfrwt>
<totfact> 0.70555702E+03</totfact>
</mgrwt>
</event>
<event>
 5    0  0.4115852E+000  0.1905808E+03  0.7546771E-02  0.1157939E+00
         21   -1    0    0  503  502  0.00000000000E+00  0.00000000000E+00  0.15857665536E+03  0.15857665536E+03  0.00000000000E+00 0. -1.
          2   -1    0    0  502    0 -0.00000000000E+00 -0.00000000000E+00 -0.63765961516E+03  0.63765961516E+03  0.00000000000E+00 0.  1.
         25    1    1    2    0    0 -0.20216483045E+03  0.97358142612E+02 -0.17442398770E+03  0.31048019919E+03  0.12500000000E+03 0.  0.
         21    1    1    2  503  501  0.82688871355E+02 -0.99908464818E+02  0.27658026015E+02  0.13260511752E+03  0.00000000000E+00 0. -1.
          2    1    1    2  501    0  0.11947595909E+03  0.25503222064E+01 -0.33231699811E+03  0.35315095381E+03  0.00000000000E+00 0.  1.
<mgrwt>
<rscale>  4 0.19058082E+03</rscale>
<asrwt>0</asrwt>
<pdfrwt beam="1">  1       21 0.24396408E-01 0.19058082E+03</pdfrwt>
<pdfrwt beam="2">  1        2 0.98101481E-01 0.19058082E+03</pdfrwt>
<totfact> 0.93827564E+03</totfact>
</mgrwt>
</event>
<event>
 5    0  0.4115852E+000  0.2830378E+03  0.7546771E-02  0.1094041E+00
          2   -1    0    0  502    0 -0.00000000000E+00  0.00000000000E+00  0.49093027796E+03  0.49093027796E+03  0.00000000000E+00 0. -1.
         21   -1    0    0  503  502  0.00000000000E+00 -0.00000000000E+00 -0.20388275824E+03  0.20388275824E+03  0.00000000000E+00 0.  1.
         25    1    1    2    0    0 -0.13295880699E+03 -0.20239213632E+03  0.70655804940E+02  0.28152773216E+03  0.12500000000E+03 0.  0.
         21    1    1    2  503  501  0.86073612679E+01 -0.26318969910E+02 -0.39505409676E+02  0.48243675635E+02  0.00000000000E+00 0. -1.
          2    1    1    2  501    0  0.12435144572E+03  0.22871110623E+03  0.25589712446E+03  0.36504162841E+03  0.00000000000E+00 0. -1.
<mgrwt>
<rscale>  4 0.28303776E+03</rscale>
<asrwt>0</asrwt>
<pdfrwt beam="1">  1       21 0.31366578E-01 0.28303776E+03</pdfrwt>
<pdfrwt beam="2">  1        2 0.75527735E-01 0.28303776E+03</pdfrwt>
<totfact> 0.76035303E+03</totfact>
</mgrwt>
</event>
<event>
 5    0  0.4115852E+000  0.3846920E+03  0.7546771E-02  0.1049213E+00
         21   -1    0    0  503  502  0.00000000000E+00  0.00000000000E+00  0.41131784801E+03  0.41131784801E+03  0.00000000000E+00 0.  1.
          2   -1    0    0  502    0 -0.00000000000E+00 -0.00000000000E+00 -0.54778793509E+03  0.54778793509E+03  0.00000000000E+00 0. -1.
         25    1    1    2    0    0  0.93919646328E+02 -0.34807994218E+03  0.15254611236E+03  0.41094508455E+03  0.12500000000E+03 0.  0.
         21    1    1    2  503  501  0.24390245018E+02  0.28601757093E+01  0.46402398965E+02  0.52499974160E+02  0.00000000000E+00 0.  1.
          2    1    1    2  501    0 -0.11830989135E+03  0.34521976647E+03 -0.33541859840E+03  0.49566072439E+03  0.00000000000E+00 0. -1.
<mgrwt>
<rscale>  4 0.38469197E+03</rscale>
<asrwt>0</asrwt>
<pdfrwt beam="1">  1       21 0.63279669E-01 0.38469197E+03</pdfrwt>
<pdfrwt beam="2">  1        2 0.84275067E-01 0.38469197E+03</pdfrwt>
<totfact> 0.15214192E+03</totfact>
</mgrwt>
</event>
<event>
 5    0  0.4115852E+000  0.2389043E+03  0.7546771E-02  0.1120525E+00
         21   -1    0    0  503  502  0.00000000000E+00  0.00000000000E+00  0.86199898689E+02  0.86199898689E+02  0.00000000000E+00 0. -1.
          1   -1    0    0  502    0 -0.00000000000E+00 -0.00000000000E+00 -0.69069930095E+03  0.69069930095E+03  0.00000000000E+00 0. -1.
         25    1    1    2    0    0 -0.19529698393E+03 -0.57527097762E+02 -0.16624475069E+03  0.29105428366E+03  0.12500000000E+03 0.  0.
         21    1    1    2  503  501  0.11417568265E+03  0.17890353486E+02 -0.19903989622E+03  0.23015870947E+03  0.00000000000E+00 0. -1.
          1    1    1    2  501    0  0.81121301282E+02  0.39636744276E+02 -0.23921475535E+03  0.25568620650E+03  0.00000000000E+00 0. -1.
<mgrwt>
<rscale>  4 0.23890433E+03</rscale>
<asrwt>0</asrwt>
<pdfrwt beam="1">  1       21 0.13261523E-01 0.23890433E+03</pdfrwt>
<pdfrwt beam="2">  1        1 0.10626143E+00 0.23890433E+03</pdfrwt>
<totfact> 0.15557146E+04</totfact>
</mgrwt>
</event>
<event>
 5    0  0.4115852E+000  0.2546306E+03  0.7546771E-02  0.1110413E+00
         21   -1    0    0  503  502  0.00000000000E+00  0.00000000000E+00  0.60589416223E+03  0.60589416223E+03  0.00000000000E+00 0.  1.
          1   -1    0    0  502    0 -0.00000000000E+00 -0.00000000000E+00 -0.30225565805E+03  0.30225565805E+03  0.00000000000E+00 0.  1.
         25    1    1    2    0    0 -0.15506343875E+03  0.15823241633E+03  0.51139666931E+03  0.57116873251E+03  0.12500000000E+03 0.  0.
         21    1    1    2  503  501  0.15936947592E+02  0.19420226252E+02  0.63581994204E+01  0.25914439722E+02  0.00000000000E+00 0.  1.
          1    1    1    2  501    0  0.13912649116E+03 -0.17765264258E+03 -0.21411636455E+03  0.31106664805E+03  0.00000000000E+00 0.  1.
<mgrwt>
<rscale>  4 0.25463055E+03</rscale>
<asrwt>0</asrwt>
<pdfrwt beam="1">  1       21 0.93214486E-01 0.25463055E+03</pdfrwt>
<pdfrwt beam="2">  1        1 0.46500871E-01 0.25463055E+03</pdfrwt>
<totfact> 0.89251423E+02</totfact>
</mgrwt>
</event>
<event>
 5    0  0.4115852E+000  0.5647598E+03  0.7546771E-02  0.9981342E-01
         21   -1    0    0  503  502  0.00000000000E+00  0.00000000000E+00  0.26373673474E+03  0.26373673474E+03  0.00000000000E+00 0.  1.
          1   -1    0    0  502    0 -0.00000000000E+00 -0.00000000000E+00 -0.15827178481E+04  0.15827178481E+04  0.00000000000E+00 0.  1.
         25    1    1    2    0    0 -0.33264013234E+03 -0.36845282636E+03 -0.56863048970E+03  0.76509644929E+03  0.12500000000E+03 0.  0.
         21    1    1    2  503  501 -0.12565644149E+03 -0.42456371348E+02 -0.34087051304E+02  0.13694528770E+03  0.00000000000E+00 0.  1.
          1    1    1    2  501    0  0.45829657383E+03  0.41090919770E+03 -0.71626357236E+03  0.94441284586E+03  0.00000000000E+00 0.  1.
<mgrwt>
<rscale>  4 0.56475975E+03</rscale>
<asrwt>0</asrwt>
<pdfrwt beam="1">  1       21 0.40574882E-01 0.56475975E+03</pdfrwt>
<pdfrwt beam="2">  1        1 0.24349506E+00 0.56475975E+03</pdfrwt>
<totfact> 0.36039874E+02</totfact>
</mgrwt>
</event>
<event>
 5    0  0.4115852E+000  0.3054627E+03  0.7546771E-02  0.1082541E+00
          2   -1    0    0  502    0 -0.00000000000E+00  0.00000000000E+00  0.33340906607E+04  0.33340906607E+04  0.00000000000E+00 0. -1.
         21   -1    0    0  503  502  0.00000000000E+00 -0.00000000000E+00 -0.44501357367E+03  0.44501357367E+03  0.00000000000E+00 0.  1.
         25    1    1    2    0    0 -0.14806959669E+02 -0.23606944604E+03  0.24519927870E+04  0.24665444770E+04  0.12500000000E+03 0.  0.
         21    1    1    2  503  501 -0.14062788042E+03  0.24238386679E+03 -0.38483382295E+03  0.47604958871E+03  0.00000000000E+00 0.  1.
          2    1    1    2  501    0  0.15543484008E+03 -0.63144207477E+01  0.82191812304E+03  0.83651016874E+03  0.00000000000E+00 0. -1.
<mgrwt>
<rscale>  4 0.30546268E+03</rscale>
<asrwt>0</asrwt>
<pdfrwt beam="1">  1       21 0.68463629E-01 0.30546268E+03</pdfrwt>
<pdfrwt beam="2">  1        2 0.51293701E+00 0.30546268E+03</pdfrwt>
<totfact> 0.29988261E+01</totfact>
</mgrwt>
</event>
<event>
 5    0  0.4115852E+000  0.2904033E+03  0.7546771E-02  0.1090139E+00
          2   -1    0    0  502    0 -0.00000000000E+00  0.00000000000E+00  0.27092342004E+04  0.27092342004E+04  0.00000000000E+00 0. -1.
         21   -1    0    0  503  502  0.00000000000E+00 -0.00000000000E+00 -0.43073387761E+02  0.43073387761E+02  0.00000000000E+00 0. -1.
         25    1    1    2    0    0 -0.11054706069E+03  0.19526578356E+03  0.95406611006E+03  0.98803670034E+03  0.12500000000E+03 0.  0.
         21    1    1    2  503  501 -0.64479379947E+02  0.38568267307E+02  0.95556547195E+02  0.12155721037E+03  0.00000000000E+00 0. -1.
          2    1    1    2  501    0  0.17502644064E+03 -0.23383405087E+03  0.16165381554E+04  0.16427136775E+04  0.00000000000E+00 0. -1.
<mgrwt>
<rscale>  4 0.29040331E+03</rscale>
<asrwt>0</asrwt>
<pdfrwt beam="1">  1       21 0.66266772E-02 0.29040331E+03</pdfrwt>
<pdfrwt beam="2">  1        2 0.41680513E+00 0.29040331E+03</pdfrwt>
<totfact> 0.64018260E+03</totfact>
</mgrwt>
</event>
<event>
 5    0  0.4115852E+000  0.2818255E+03  0.7546771E-02  0.1094696E+00
         21   -1    0    0  503  502  0.00000000000E+00  0.00000000000E+00  0.38576468579E+03  0.38576468579E+03  0.00000000000E+00 0.  1.
          2   -1    0    0  502    0 -0.00000000000E+00 -0.00000000000E+00 -0.92185957046E+03  0.92185957046E+03  0.00000000000E+00 0. -1.
         25    1    1    2    0    0 -0.69024796879E+02  0.19718431962E+03  0.16782003580E+03  0.29569349487E+03  0.12500000000E+03 0.  0.
         21    1    1    2  503  501 -0.58568538562E+02  0.25338594280E+02  0.12710412959E+03  0.14222439252E+03  0.00000000000E+00 0. -1.
          2    1    1    2  501    0  0.12759333544E+03 -0.22252291390E+03 -0.83101905007E+03  0.86970636886E+03  0.00000000000E+00 0. -1.
<mgrwt>
<rscale>  4 0.28182546E+03</rscale>
<asrwt>0</asrwt>
<pdfrwt beam="1">  1       21 0.59348414E-01 0.28182546E+03</pdfrwt>
<pdfrwt beam="2">  1        2 0.14182455E+00 0.28182546E+03</pdfrwt>
<totfact> 0.94689002E+02</totfact>
</mgrwt>
</event>
<event>
 5    0  0.4115852E+000  0.3171816E+03  0.7546771E-02  0.1076954E+00
         21   -1    0    0  501  502  0.00000000000E+00  0.00000000000E+00  0.50885273268E+03  0.50885273268E+03  0.00000000000E+00 0.  1.
         -1   -1    0    0    0  501 -0.00000000000E+00 -0.00000000000E+00 -0.43144946086E+03  0.43144946086E+03  0.00000000000E+00 0.  1.
         25    1    1    2    0    0  0.25825639860E+03 -0.16409060747E+03  0.30976632837E+03  0.45299257507E+03  0.12500000000E+03 0.  0.
         21    1    1    2  503  502  0.46191317443E+01  0.42532455380E+02  0.61367167111E+02  0.74808257151E+02  0.00000000000E+00 0. -1.
         -1    1    1    2    0  503 -0.26287553034E+03  0.12155815209E+03 -0.29373022367E+03  0.41250136131E+03  0.00000000000E+00 0.  1.
<mgrwt>
<rscale>  4 0.31718155E+03</rscale>
<asrwt>0</asrwt>
<pdfrwt beam="1">  1       21 0.78285036E-01 0.31718155E+03</pdfrwt>
<pdfrwt beam="2">  1       -1 0.66376840E-01 0.31718155E+03</pdfrwt>
<totfact> 0.30307950E+02</totfact>
</mgrwt>
</event>
<event>
 5    0  0.4115852E+000  0.3440369E+03  0.7546771E-02  0.1065089E+00
          2   -1    0    0  502    0 -0.00000000000E+00  0.00000000000E+00  0.13869583703E+03  0.13869583703E+03  0.00000000000E+00 0. -1.
         21   -1    0    0  503  502  0.00000000000E+00 -0.00000000000E+00 -0.27216716774E+04  0.27216716774E+04  0.00000000000E+00 0. -1.
         25    1    1    2    0    0 -0.52463950340E+01  0.29971522770E+03 -0.19524605529E+03  0.37894955401E+03  0.12500000000E+03 0.  0.
         21    1    1    2  503  501  0.33330206476E+02 -0.32134961013E+03 -0.24151110054E+04  0.24366242310E+04  0.00000000000E+00 0. -1.
          2    1    1    2  501    0 -0.28083811442E+02  0.21634382431E+02  0.27381220339E+02  0.44793729421E+02  0.00000000000E+00 0. -1.
<mgrwt>
<rscale>  4 0.34403693E+03</rscale>
<asrwt>0</asrwt>
<pdfrwt beam="1">  1       21 0.41871870E+00 0.34403693E+03</pdfrwt>
<pdfrwt beam="2">  1        2 0.21337822E-01 0.34403693E+03</pdfrwt>
<totfact> 0.17674845E+01</totfact>
</mgrwt>
</event>
<event>
 5    0  0.4115852E+000  0.2257621E+03  0.7546771E-02  0.1129659E+00
         21   -1    0    0  503  502  0.00000000000E+00  0.00000000000E+00  0.39369091757E+03  0.39369091757E+03  0.00000000000E+00 0. -1.
          2   -1    0    0  502    0 -0.00000000000E+00 -0.00000000000E+00 -0.21442881186E+04  0.21442881186E+04  0.00000000000E+00 0.  1.
         25    1    1    2    0    0 -0.10449103120E+03 -0.27057923343E+03 -0.22216864132E+03  0.38615463528E+03  0.12500000000E+03 0.  0.
         21    1    1    2  503  501  0.16899316368E+00  0.12054590114E+03  0.29530351314E+03  0.31896004093E+03  0.00000000000E+00 0. -1.
          2    1    1    2  501    0  0.10432203804E+03  0.15003333230E+03 -0.18237320728E+04  0.18328643599E+04  0.00000000000E+00 0.  1.
<mgrwt>
<rscale>  4 0.22576207E+03</rscale>
<asrwt>0</asrwt>
<pdfrwt beam="1">  1       21 0.60567834E-01 0.22576207E+03</pdfrwt>
<pdfrwt beam="2">  1        2 0.32989047E+00 0.22576207E+03</pdfrwt>
<totfact> 0.19994237E+02</totfact>
</mgrwt>
</event>
<event>
 5    0  0.4115852E+000  0.2938312E+03  0.7546771E-02  0.1088366E+00
          2   -1    0    0  502    0 -0.00000000000E+00  0.00000000000E+00  0.62898633266E+03  0.62898633266E+03  0.00000000000E+00 0. -1.
         21   -1    0    0  503  502  0.00000000000E+00 -0.00000000000E+00 -0.29520870430E+03  0.29520870430E+03  0.00000000000E+00 0.  1.
         25    1    1    2    0    0  0.69500291298E+02 -0.22934538020E+03 -0.12280494715E+03  0.29687648771E+03  0.12500000000E+03 0.  0.
         21    1    1    2  503  501  0.67011564957E+00 -0.31571614289E+02 -0.46537069759E+02  0.56239796813E+02  0.00000000000E+00 0. -1.
          2    1    1    2  501    0 -0.70170406948E+02  0.26091699449E+03  0.50311964527E+03  0.57107875243E+03  0.00000000000E+00 0. -1.
<mgrwt>
<rscale>  4 0.29383124E+03</rscale>
<asrwt>0</asrwt>
<pdfrwt beam="1">  1       21 0.45416724E-01 0.29383124E+03</pdfrwt>
<pdfrwt beam="2">  1        2 0.96767128E-01 0.29383124E+03</pdfrwt>
<totfact> 0.26940558E+03</totfact>
</mgrwt>
</event>
<event>
 5    0  0.4115852E+000  0.2626713E+03  0.7546771E-02  0.1105549E+00
         21   -1    0    0  503  502  0.00000000000E+00  0.00000000000E+00  0.40888647467E+03  0.40888647467E+03  0.00000000000E+00 0.  1.
          2   -1    0    0  502    0 -0.00000000000E+00 -0.00000000000E+00 -0.15544226278E+04  0.15544226278E+04  0.00000000000E+00 0.  1.
         25    1    1    2    0    0 -0.36422346451E+02  0.20626903389E+03  0.20665049841E+03  0.31969193008E+03  0.12500000000E+03 0.  0.
         21    1    1    2  503  501 -0.28120163313E+02  0.16361744181E+02  0.13480087695E+03  0.13867129005E+03  0.00000000000E+00 0.  1.
          2    1    1    2  501    0  0.64542509763E+02 -0.22263077807E+03 -0.14869875285E+04  0.15049458824E+04  0.00000000000E+00 0.  1.
<mgrwt>
<rscale>  4 0.26267132E+03</rscale>
<asrwt>0</asrwt>
<pdfrwt beam="1">  1       21 0.62905610E-01 0.26267132E+03</pdfrwt>
<pdfrwt beam="2">  1        2 0.23914195E+00 0.26267132E+03</pdfrwt>
<totfact> 0.36648839E+02</totfact>
</mgrwt>
</event>
<event>
 5    0  0.4115852E+000  0.2342900E+03  0.7546771E-02  0.1123656E+00
         21   -1    0    0  503  502  0.00000000000E+00  0.00000000000E+00  0.16322207605E+03  0.16322207605E+03  0.00000000000E+00 0.  1.
          1   -1    0    0  502    0 -0.00000000000E+00 -0.00000000000E+00 -0.84022138466E+03  0.84022138466E+03  0.00000000000E+00 0.  1.
         25    1    1    2    0    0  0.20532782283E+03 -0.12601809971E+03 -0.85103309754E+02  0.28444270005E+03  0.12500000000E+03 0.  0.
         21    1    1    2  503  501 -0.40624610929E+02  0.27316596646E+02  0.37051986487E+02  0.61395481658E+02  0.00000000000E+00 0. -1.
          1    1    1    2  501    0 -0.16470321190E+03  0.98701503064E+02 -0.62894798534E+03  0.65760527901E+03  0.00000000000E+00 0.  1.
<mgrwt>
<rscale>  4 0.23428995E+03</rscale>
<asrwt>0</asrwt>
<pdfrwt beam="1">  1       21 0.25111088E-01 0.23428995E+03</pdfrwt>
<pdfrwt beam="2">  1        1 0.12926483E+00 0.23428995E+03</pdfrwt>
<totfact> 0.35295425E+03</totfact>
</mgrwt>
</event>
<event>
 5    0  0.4115852E+000  0.4670880E+03  0.7546771E-02  0.1022745E+00
          2   -1    0    0  502    0 -0.00000000000E+00  0.00000000000E+00  0.14012372083E+04  0.14012372083E+04  0.00000000000E+00 0. -1.
         21   -1    0    0  503  502  0.00000000000E+00 -0.00000000000E+00 -0.18296562594E+03  0.18296562594E+03  0.00000000000E+00 0. -1.
         25    1    1    2    0    0 -0.23948552948E+03 -0.37238177766E+03  0.70251462395E+03  0.83974597589E+03  0.12500000000E+03 0.  0.
         21    1    1    2  503  501  0.15976306299E+02 -0.29235185268E+02 -0.19766949381E+02  0.38738491303E+02  0.00000000000E+00 0. -1.
          2    1    1    2  501    0  0.22350922318E+03  0.40161696293E+03  0.53552390779E+03  0.70571836704E+03  0.00000000000E+00 0. -1.
<mgrwt>
<rscale>  4 0.46708798E+03</rscale>
<asrwt>0</asrwt>
<pdfrwt beam="1">  1       21 0.28148559E-01 0.46708798E+03</pdfrwt>
<pdfrwt beam="2">  1        2 0.21557495E+00 0.46708798E+03</pdfrwt>
<totfact> 0.21757160E+03</totfact>
</mgrwt>
</event>
<event>
 5    0  0.4115852E+000  0.2629285E+03  0.7546771E-02  0.1105396E+00
         21   -1    0    0  503  502  0.00000000000E+00  0.00000000000E+00  0.74119480839E+03  0.74119480839E+03  0.00000000000E+00 0. -1.
          2   -1    0    0  502    0 -0.00000000000E+00 -0.00000000000E+00 -0.10152394764E+04  0.10152394764E+04  0.00000000000E+00 0.  1.
         25    1    1    2    0    0 -0.18257468461E+03  0.91942787141E+02  0.56573274175E+03  0.61438223173E+03  0.12500000000E+03 0.  0.
         21    1    1    2  503  501 -0.37928317472E+02 -0.19854066448E+02  0.13418163528E+03  0.14084549147E+03  0.00000000000E+00 0.  1.
          2    1    1    2  501    0  0.22050300208E+03 -0.72088720693E+02 -0.97395904505E+03  0.10012065616E+04  0.00000000000E+00 0.  1.
<mgrwt>
<rscale>  4 0.26292852E+03</rscale>
<asrwt>0</asrwt>
<pdfrwt beam="1">  1       21 0.11402997E+00 0.26292852E+03</pdfrwt>
<pdfrwt beam="2">  1        2 0.15619069E+00 0.26292852E+03</pdfrwt>
<totfact> 0.18592070E+02</totfact>
</mgrwt>
</event>
<event>
 5    0  0.4115852E+000  0.3442319E+03  0.7546771E-02  0.1065008E+00
          2   -1    0    0  502    0 -0.00000000000E+00  0.00000000000E+00  0.61636501862E+03  0.61636501862E+03  0.00000000000E+00 0. -1.
         21   -1    0    0  503  502  0.00000000000E+00 -0.00000000000E+00 -0.81252092966E+03  0.81252092966E+03  0.00000000000E+00 0. -1.
         25    1    1    2    0    0 -0.12382386816E+03 -0.31092839109E+03 -0.53943675883E+02  0.36130836536E+03  0.12500000000E+03 0.  0.
         21    1    1    2  503  501  0.50593732355E+02  0.16801700882E+01 -0.54902134362E+03  0.55135014689E+03  0.00000000000E+00 0. -1.
          2    1    1    2  501    0  0.73230135804E+02  0.30924822100E+03  0.40680910846E+03  0.51622743603E+03  0.00000000000E+00 0. -1.
<mgrwt>
<rscale>  4 0.34423191E+03</rscale>
<asrwt>0</asrwt>
<pdfrwt beam="1">  1       21 0.12500322E+00 0.34423191E+03</pdfrwt>
<pdfrwt beam="2">  1        2 0.94825388E-01 0.34423191E+03</pdfrwt>
<totfact> 0.26950614E+02</totfact>
</mgrwt>
</event>
<event>
 5    0  0.4115852E+000  0.2835026E+03  0.7546771E-02  0.1093791E+00
         21   -1    0    0  501  502  0.00000000000E+00  0.00000000000E+00  0.26279701142E+04  0.26279701142E+04  0.00000000000E+00 0. -1.
         -3   -1    0    0    0  501 -0.00000000000E+00 -0.00000000000E+00 -0.38561500304E+02  0.38561500304E+02  0.00000000000E+00 0. -1.
         25    1    1    2    0    0 -0.16979112217E+03 -0.15772030010E+03  0.11241538752E+04  0.11545785609E+04  0.12500000000E+03 0.  0.
         21    1    1    2  503  502 -0.76926450128E+02  0.30117531276E+02  0.52738723119E+03  0.53381835492E+03  0.00000000000E+00 0. -1.
         -3    1    1    2    0  503  0.24671757229E+03  0.12760276882E+03  0.93786750747E+03  0.97813469862E+03  0.00000000000E+00 0. -1.
<mgrwt>
<rscale>  4 0.28350259E+03</rscale>
<asrwt>0</asrwt>
<pdfrwt beam="1">  1       21 0.40430295E+00 0.28350259E+03</pdfrwt>
<pdfrwt beam="2">  1       -3 0.59325406E-02 0.28350259E+03</pdfrwt>
<totfact> 0.64469490E+01</totfact>
</mgrwt>
</event>
<event>
 5    0  0.4115852E+000  0.3215926E+03  0.7546771E-02  0.1074919E+00
         21   -1    0    0  503  502  0.00000000000E+00  0.00000000000E+00  0.12268906443E+04  0.12268906443E+04  0.00000000000E+00 0.  1.
          2   -1    0    0  502    0 -0.00000000000E+00 -0.00000000000E+00 -0.37973692421E+03  0.37973692421E+03  0.00000000000E+00 0.  1.
         25    1    1    2    0    0  0.23559277621E+03  0.10590252796E+03 -0.65650493855E+02  0.29437100566E+03  0.12500000000E+03 0.  0.
         21    1    1    2  503  501  0.72349379725E+02  0.54741545604E+02  0.95774794916E+03  0.96203544825E+03  0.00000000000E+00 0.  1.
          2    1    1    2  501    0 -0.30794215593E+03 -0.16064407356E+03 -0.44943735225E+02  0.35022111459E+03  0.00000000000E+00 0.  1.
<mgrwt>
<rscale>  4 0.32159261E+03</rscale>
<asrwt>0</asrwt>
<pdfrwt beam="1">  1       21 0.18875240E+00 0.32159261E+03</pdfrwt>
<pdfrwt beam="2">  1        2 0.58421066E-01 0.32159261E+03</pdfrwt>
<totfact> 0.15338064E+02</totfact>
</mgrwt>
</event>
<event>
 5    0  0.4115852E+000  0.2112241E+03  0.7546771E-02  0.1140600E+00
          2   -1    0    0  502    0 -0.00000000000E+00  0.00000000000E+00  0.73033986795E+03  0.73033986795E+03  0.00000000000E+00 0. -1.
         21   -1    0    0  503  502  0.00000000000E+00 -0.00000000000E+00 -0.19472752512E+03  0.19472752512E+03  0.00000000000E+00 0.  1.
         25    1    1    2    0    0  0.24424747478E+03 -0.10060935908E+03  0.21599295711E+03  0.36339651841E+03  0.12500000000E+03 0.  0.
         21    1    1    2  503  501 -0.15118854773E+03  0.28768852600E+02 -0.59301817469E+02  0.16493128690E+03  0.00000000000E+00 0.  1.
          2    1    1    2  501    0 -0.93058927056E+02  0.71840506483E+02  0.37892120318E+03  0.39673958776E+03  0.00000000000E+00 0. -1.
<mgrwt>
<rscale>  4 0.21122414E+03</rscale>
<asrwt>0</asrwt>
<pdfrwt beam="1">  1       21 0.29958081E-01 0.21122414E+03</pdfrwt>
<pdfrwt beam="2">  1        2 0.11235998E+00 0.21122414E+03</pdfrwt>
<totfact> 0.53340087E+03</totfact>
</mgrwt>
</event>
<event>
 5    0  0.4115852E+000  0.2723075E+03  0.7546771E-02  0.1099966E+00
          2   -1    0    0  502    0 -0.00000000000E+00  0.00000000000E+00  0.12832990084E+04  0.12832990084E+04  0.00000000000E+00 0. -1.
         21   -1    0    0  503  502  0.00000000000E+00 -0.00000000000E+00 -0.20050148081E+03  0.20050148081E+03  0.00000000000E+00 0. -1.
         25    1    1    2    0    0  0.16321845804E+03  0.17073741187E+03  0.35594230544E+03  0.44509712834E+03  0.12500000000E+03 0.  0.
         21    1    1    2  503  501 -0.84557497327E+01  0.18270561696E+02 -0.13828128118E+03  0.13973913501E+03  0.00000000000E+00 0. -1.
          2    1    1    2  501    0 -0.15476270831E+03 -0.18900797356E+03  0.86513650335E+03  0.89896422586E+03  0.00000000000E+00 0. -1.
<mgrwt>
<rscale>  4 0.27230747E+03</rscale>
<asrwt>0</asrwt>
<pdfrwt beam="1">  1       21 0.30846383E-01 0.27230747E+03</pdfrwt>
<pdfrwt beam="2">  1        2 0.19743061E+00 0.27230747E+03</pdfrwt>
<totfact> 0.22347390E+03</totfact>
</mgrwt>
</event>
<event>
 5    0  0.4115852E+000  0.3136103E+03  0.7546771E-02  0.1078628E+00
         21   -1    0    0  503  502  0.00000000000E+00  0.00000000000E+00  0.57437734943E+02  0.57437734943E+02  0.00000000000E+00 0.  1.
          2   -1    0    0  502    0 -0.00000000000E+00 -0.00000000000E+00 -0.26949124711E+04  0.26949124711E+04  0.00000000000E+00 0.  1.
         25    1    1    2    0    0 -0.28443290802E+03  0.11303881967E+03 -0.68368968654E+03  0.75943165683E+03  0.12500000000E+03 0.  0.
         21    1    1    2  503  501  0.27289871861E+02  0.44644200934E+01 -0.11145308303E+02  0.29814192093E+02  0.00000000000E+00 0.  1.
          2    1    1    2  501    0  0.25714303616E+03 -0.11750323977E+03 -0.19426397413E+04  0.19631043571E+04  0.00000000000E+00 0.  1.
<mgrwt>
<rscale>  4 0.31361026E+03</rscale>
<asrwt>0</asrwt>
<pdfrwt beam="1">  1       21 0.88365784E-02 0.31361026E+03</pdfrwt>
<pdfrwt beam="2">  1        2 0.41460174E+00 0.31361026E+03</pdfrwt>
<totfact> 0.39035814E+03</totfact>
</mgrwt>
</event>
<event>
 5    0  0.4115852E+000  0.2892904E+03  0.7546771E-02  0.1090720E+00
         21   -1    0    0  501  502  0.00000000000E+00  0.00000000000E+00  0.46283513562E+03  0.46283513562E+03  0.00000000000E+00 0.  1.
         -1   -1    0    0    0  501 -0.00000000000E+00 -0.00000000000E+00 -0.43165466608E+03  0.43165466608E+03  0.00000000000E+00 0.  1.
         25    1    1    2    0    0 -0.22734295388E+03  0.87786188927E+02 -0.12570417213E+03  0.30135987214E+03  0.12500000000E+03 0.  0.
         21    1    1    2  503  502 -0.96902356727E+01  0.64565009595E+02  0.27863310209E+03  0.28617992018E+03  0.00000000000E+00 0.  1.
         -1    1    1    2    0  503  0.23703318955E+03 -0.15235119852E+03 -0.12174846042E+03  0.30695000938E+03  0.00000000000E+00 0.  1.
<mgrwt>
<rscale>  4 0.28929042E+03</rscale>
<asrwt>0</asrwt>
<pdfrwt beam="1">  1       21 0.71205406E-01 0.28929042E+03</pdfrwt>
<pdfrwt beam="2">  1       -1 0.66408410E-01 0.28929042E+03</pdfrwt>
<totfact> 0.37879092E+02</totfact>
</mgrwt>
</event>
<event>
 5    0  0.4115852E+000  0.2927670E+03  0.7546771E-02  0.1088913E+00
          2   -1    0    0  502    0 -0.00000000000E+00  0.00000000000E+00  0.15149164075E+04  0.15149164075E+04  0.00000000000E+00 0. -1.
         21   -1    0    0  503  502  0.00000000000E+00 -0.00000000000E+00 -0.97117955613E+02  0.97117955613E+02  0.00000000000E+00 0. -1.
         25    1    1    2    0    0 -0.11783158787E+03  0.19732040048E+03  0.34666683198E+03  0.43430693748E+03  0.12500000000E+03 0.  0.
         21    1    1    2  503  501 -0.15368883875E+02  0.47581850418E+02 -0.18258653150E+02  0.53231696343E+02  0.00000000000E+00 0. -1.
          2    1    1    2  501    0  0.13320047175E+03 -0.24490225089E+03  0.10893902730E+04  0.11244957293E+04  0.00000000000E+00 0. -1.
<mgrwt>
<rscale>  4 0.29276700E+03</rscale>
<asrwt>0</asrwt>
<pdfrwt beam="1">  1       21 0.14941225E-01 0.29276700E+03</pdfrwt>
<pdfrwt beam="2">  1        2 0.23306405E+00 0.29276700E+03</pdfrwt>
<totfact> 0.65733641E+03</totfact>
</mgrwt>
</event>
<event>
 5    0  0.4115852E+000  0.1930689E+03  0.7546771E-02  0.1155722E+00
          2   -1    0    0  502    0 -0.00000000000E+00  0.00000000000E+00  0.13057488546E+04  0.13057488546E+04  0.00000000000E+00 0.  1.
         21   -1    0    0  503  502  0.00000000000E+00 -0.00000000000E+00 -0.75712583883E+03  0.75712583883E+03  0.00000000000E+00 0. -1.
         25    1    1    2    0    0  0.13706698108E+03  0.16189965038E+03 -0.66829839826E+02  0.25512757904E+03  0.12500000000E+03 0.  0.
         21    1    1    2  503  501 -0.92508070039E+02 -0.10687254659E+03 -0.58671218442E+03  0.60349869228E+03  0.00000000000E+00 0. -1.
          2    1    1    2  501    0 -0.44558911044E+02 -0.55027103792E+02  0.12021650400E+04  0.12042484221E+04  0.00000000000E+00 0.  1.
<mgrwt>
<rscale>  4 0.19306888E+03</rscale>
<asrwt>0</asrwt>
<pdfrwt beam="1">  1       21 0.11648090E+00 0.19306888E+03</pdfrwt>
<pdfrwt beam="2">  1        2 0.20088444E+00 0.19306888E+03</pdfrwt>
<totfact> 0.12675194E+02</totfact>
</mgrwt>
</event>
<event>
 5    0  0.4115852E+000  0.2379439E+03  0.7546771E-02  0.1121170E+00
         -2   -1    0    0    0  501 -0.00000000000E+00  0.00000000000E+00  0.62214036936E+03  0.62214036936E+03  0.00000000000E+00 0.  1.
         21   -1    0    0  501  502  0.00000000000E+00 -0.00000000000E+00 -0.57526356921E+03  0.57526356921E+03  0.00000000000E+00 0. -1.
         25    1    1    2    0    0  0.16968031877E+03 -0.14267428116E+03 -0.27631625821E+03  0.37566346061E+03  0.12500000000E+03 0.  0.
         21    1    1    2  503  502 -0.16797751275E+02  0.11536635844E+02 -0.23109420571E+03  0.23199092725E+03  0.00000000000E+00 0. -1.
         -2    1    1    2    0  503 -0.15288256749E+03  0.13113764531E+03  0.55428726407E+03  0.58974955072E+03  0.00000000000E+00 0.  1.
<mgrwt>
<rscale>  4 0.23794392E+03</rscale>
<asrwt>0</asrwt>
<pdfrwt beam="1">  1       21 0.88502087E-01 0.23794392E+03</pdfrwt>
<pdfrwt beam="2">  1       -2 0.95713903E-01 0.23794392E+03</pdfrwt>
<totfact> 0.82861775E+01</totfact>
</mgrwt>
</event>
<event>
 5    0  0.4115852E+000  0.2325312E+03  0.7546771E-02  0.1124871E+00
          2   -1    0    0  502    0 -0.00000000000E+00  0.00000000000E+00  0.32727671299E+03  0.32727671299E+03  0.00000000000E+00 0.  1.
         21   -1    0    0  503  502  0.00000000000E+00 -0.00000000000E+00 -0.30446906979E+03  0.30446906979E+03  0.00000000000E+00 0.  1.
         25    1    1    2    0    0  0.14007363337E+03 -0.18381510381E+03 -0.16269871502E+03  0.30903800255E+03  0.12500000000E+03 0.  0.
         21    1    1    2  503  501 -0.12287467384E+03  0.84641127473E+02  0.57579923666E+02  0.15993046471E+03  0.00000000000E+00 0.  1.
          2    1    1    2  501    0 -0.17198959522E+02  0.99173976338E+02  0.12792643455E+03  0.16277731552E+03  0.00000000000E+00 0.  1.
<mgrwt>
<rscale>  4 0.23253118E+03</rscale>
<asrwt>0</asrwt>
<pdfrwt beam="1">  1       21 0.46841395E-01 0.23253118E+03</pdfrwt>
<pdfrwt beam="2">  1        2 0.50350264E-01 0.23253118E+03</pdfrwt>
<totfact> 0.53280169E+03</totfact>
</mgrwt>
</event>
<event>
 5    0  0.4115852E+000  0.2419707E+03  0.7546771E-02  0.1118487E+00
         21   -1    0    0  503  502  0.00000000000E+00  0.00000000000E+00  0.81550614700E+03  0.81550614700E+03  0.00000000000E+00 0.  1.
          2   -1    0    0  502    0 -0.00000000000E+00 -0.00000000000E+00 -0.26410074190E+04  0.26410074190E+04  0.00000000000E+00 0.  1.
         25    1    1    2    0    0 -0.21301078006E+03 -0.98203412354E+02  0.28492139673E+03  0.38964433133E+03  0.12500000000E+03 0.  0.
         21    1    1    2  503  501  0.27779776181E+02  0.61385539467E+01  0.47366365770E+03  0.47451728993E+03  0.00000000000E+00 0.  1.
          2    1    1    2  501    0  0.18523100388E+03  0.92064858407E+02 -0.25840863265E+04  0.25923519448E+04  0.00000000000E+00 0.  1.
<mgrwt>
<rscale>  4 0.24197074E+03</rscale>
<asrwt>0</asrwt>
<pdfrwt beam="1">  1       21 0.12546249E+00 0.24197074E+03</pdfrwt>
<pdfrwt beam="2">  1        2 0.40630883E+00 0.24197074E+03</pdfrwt>
<totfact> 0.19596853E+01</totfact>
</mgrwt>
</event>
<event>
 5    0  0.4115852E+000  0.2883272E+03  0.7546771E-02  0.1091226E+00
          2   -1    0    0  502    0 -0.00000000000E+00  0.00000000000E+00  0.79195946419E+03  0.79195946419E+03  0.00000000000E+00 0.  1.
         21   -1    0    0  503  502  0.00000000000E+00 -0.00000000000E+00 -0.65163269906E+03  0.65163269906E+03  0.00000000000E+00 0.  1.
         25    1    1    2    0    0 -0.33803057122E+02 -0.21563396464E+03 -0.51690374064E+03  0.57485226838E+03  0.12500000000E+03 0.  0.
         21    1    1    2  503  501  0.10026859982E+02 -0.44844329206E+02 -0.76801344107E+02  0.89498593507E+02  0.00000000000E+00 0.  1.
          2    1    1    2  501    0  0.23776197140E+02  0.26047829384E+03  0.73403184987E+03  0.77924130136E+03  0.00000000000E+00 0.  1.
<mgrwt>
<rscale>  4 0.28832724E+03</rscale>
<asrwt>0</asrwt>
<pdfrwt beam="1">  1       21 0.10025118E+00 0.28832724E+03</pdfrwt>
<pdfrwt beam="2">  1        2 0.12183992E+00 0.28832724E+03</pdfrwt>
<totfact> 0.35041528E+02</totfact>
</mgrwt>
</event>
<event>
 5    0  0.4115852E+000  0.3126895E+03  0.7546771E-02  0.1079064E+00
         21   -1    0    0  503  502  0.00000000000E+00  0.00000000000E+00  0.22935711935E+03  0.22935711935E+03  0.00000000000E+00 0.  1.
          2   -1    0    0  502    0 -0.00000000000E+00 -0.00000000000E+00 -0.10463672104E+04  0.10463672104E+04  0.00000000000E+00 0. -1.
         25    1    1    2    0    0 -0.27653874137E+03  0.10444801663E+03 -0.63436982731E+01  0.32101138012E+03  0.12500000000E+03 0.  0.
         21    1    1    2  503  501  0.40417679346E+01 -0.19724239110E+02  0.46832920335E+02  0.50977484477E+02  0.00000000000E+00 0. -1.
          2    1    1    2  501    0  0.27249697344E+03 -0.84723777522E+02 -0.85749931311E+03  0.90373546517E+03  0.00000000000E+00 0. -1.
<mgrwt>
<rscale>  4 0.31268954E+03</rscale>
<asrwt>0</asrwt>
<pdfrwt beam="1">  1       21 0.35285710E-01 0.31268954E+03</pdfrwt>
<pdfrwt beam="2">  1        2 0.16097957E+00 0.31268954E+03</pdfrwt>
<totfact> 0.23129657E+03</totfact>
</mgrwt>
</event>
<event>
 5    0  0.4115852E+000  0.2743104E+03  0.7546771E-02  0.1098838E+00
         21   -1    0    0  503  502  0.00000000000E+00  0.00000000000E+00  0.22007538937E+03  0.22007538937E+03  0.00000000000E+00 0. -1.
          1   -1    0    0  502    0 -0.00000000000E+00 -0.00000000000E+00 -0.13391026521E+04  0.13391026521E+04  0.00000000000E+00 0.  1.
         25    1    1    2    0    0  0.30047016612E+03 -0.40000318418E+02 -0.67995526496E+03  0.75488178449E+03  0.12500000000E+03 0.  0.
         21    1    1    2  503  501 -0.85909344469E+02  0.73213341472E+02  0.14350483825E+03  0.18257668920E+03  0.00000000000E+00 0. -1.
          1    1    1    2  501    0 -0.21456082165E+03 -0.33213023054E+02 -0.58257683599E+03  0.62171956774E+03  0.00000000000E+00 0.  1.
<mgrwt>
<rscale>  4 0.27431044E+03</rscale>
<asrwt>0</asrwt>
<pdfrwt beam="1">  1       21 0.33857753E-01 0.27431044E+03</pdfrwt>
<pdfrwt beam="2">  1        1 0.20601579E+00 0.27431044E+03</pdfrwt>
<totfact> 0.83607133E+02</totfact>
</mgrwt>
</event>
<event>
 5    0  0.4115852E+000  0.1900495E+03  0.7546771E-02  0.1158417E+00
          2   -1    0    0  502    0 -0.00000000000E+00  0.00000000000E+00  0.24093928785E+04  0.24093928785E+04  0.00000000000E+00 0. -1.
         21   -1    0    0  503  502  0.00000000000E+00 -0.00000000000E+00 -0.39555686661E+02  0.39555686661E+02  0.00000000000E+00 0. -1.
         25    1    1    2    0    0  0.15632652302E+03 -0.13163432353E+03  0.13720476038E+04  0.13928047975E+04  0.12500000000E+03 0.  0.
         21    1    1    2  503  501 -0.60772309624E+02  0.57812012108E+02  0.43956088473E+02  0.94697624442E+02  0.00000000000E+00 0. -1.
          2    1    1    2  501    0 -0.95554213392E+02  0.73822311421E+02  0.95383349958E+03  0.96144614321E+03  0.00000000000E+00 0. -1.
<mgrwt>
<rscale>  4 0.19004952E+03</rscale>
<asrwt>0</asrwt>
<pdfrwt beam="1">  1       21 0.60854921E-02 0.19004952E+03</pdfrwt>
<pdfrwt beam="2">  1        2 0.37067571E+00 0.19004952E+03</pdfrwt>
<totfact> 0.11306912E+04</totfact>
</mgrwt>
</event>
<event>
 5    0  0.4115852E+000  0.2287025E+03  0.7546771E-02  0.1127556E+00
          1   -1    0    0  502    0 -0.00000000000E+00  0.00000000000E+00  0.21340053964E+04  0.21340053964E+04  0.00000000000E+00 0.  1.
         21   -1    0    0  503  502  0.00000000000E+00 -0.00000000000E+00 -0.50455510792E+02  0.50455510792E+02  0.00000000000E+00 0.  1.
         25    1    1    2    0    0  0.21297097355E+03 -0.13498866718E+03  0.49800583142E+03  0.57202568471E+03  0.12500000000E+03 0.  0.
         21    1    1    2  503  501 -0.65708268191E+02  0.27860070316E+02  0.15861058474E+03  0.17392836921E+03  0.00000000000E+00 0.  1.
          1    1    1    2  501    0 -0.14726270536E+03  0.10712859687E+03  0.14269334695E+04  0.14385068533E+04  0.00000000000E+00 0.  1.
<mgrwt>
<rscale>  4 0.22870253E+03</rscale>
<asrwt>0</asrwt>
<pdfrwt beam="1">  1       21 0.77623879E-02 0.22870253E+03</pdfrwt>
<pdfrwt beam="2">  1        1 0.32830845E+00 0.22870253E+03</pdfrwt>
<totfact> 0.39362965E+03</totfact>
</mgrwt>
</event>
<event>
 5    0  0.4115852E+000  0.3675958E+03  0.7546771E-02  0.1055616E+00
         21   -1    0    0  501  502  0.00000000000E+00  0.00000000000E+00  0.40493718800E+03  0.40493718800E+03  0.00000000000E+00 0.  1.
         -1   -1    0    0    0  501 -0.00000000000E+00 -0.00000000000E+00 -0.53318722650E+03  0.53318722650E+03  0.00000000000E+00 0.  1.
         25    1    1    2    0    0  0.33017568320E+03 -0.61258270888E+02  0.26544925285E+02  0.35930236652E+03  0.12500000000E+03 0.  0.
         21    1    1    2  503  502  0.18483185742E+02  0.26686665939E+02  0.12581431881E+03  0.12993478792E+03  0.00000000000E+00 0.  1.
         -1    1    1    2    0  503 -0.34865886895E+03  0.34571604949E+02 -0.28060928259E+03  0.44888726006E+03  0.00000000000E+00 0.  1.
<mgrwt>
<rscale>  4 0.36759582E+03</rscale>
<asrwt>0</asrwt>
<pdfrwt beam="1">  1       21 0.62298029E-01 0.36759582E+03</pdfrwt>
<pdfrwt beam="2">  1       -1 0.82028804E-01 0.36759582E+03</pdfrwt>
<totfact> 0.32250283E+02</totfact>
</mgrwt>
</event>
<event>
 5    0  0.4115852E+000  0.2428863E+03  0.7546771E-02  0.1117885E+00
          1   -1    0    0  502    0 -0.00000000000E+00  0.00000000000E+00  0.14718896294E+03  0.14718896294E+03  0.00000000000E+00 0. -1.
         21   -1    0    0  503  502  0.00000000000E+00 -0.00000000000E+00 -0.14075507575E+04  0.14075507575E+04  0.00000000000E+00 0. -1.
         25    1    1    2    0    0 -0.25323167003E+03 -0.45744506608E+02 -0.99528928613E+03  0.10355890120E+04  0.12500000000E+03 0.  0.
         21    1    1    2  503  501  0.49926742997E+02  0.25958670230E+02 -0.30574083445E+03  0.31087616518E+03  0.00000000000E+00 0. -1.
          1    1    1    2  501    0  0.20330492703E+03  0.19785836378E+02  0.40668325969E+02  0.20827454336E+03  0.00000000000E+00 0. -1.
<mgrwt>
<rscale>  4 0.24288631E+03</rscale>
<asrwt>0</asrwt>
<pdfrwt beam="1">  1       21 0.21654627E+00 0.24288631E+03</pdfrwt>
<pdfrwt beam="2">  1        1 0.22644456E-01 0.24288631E+03</pdfrwt>
<totfact> 0.23835418E+02</totfact>
</mgrwt>
</event>
<event>
 5    0  0.4115852E+000  0.2210733E+03  0.7546771E-02  0.1133085E+00
         21   -1    0    0  501  502  0.00000000000E+00  0.00000000000E+00  0.61493302134E+03  0.61493302134E+03  0.00000000000E+00 0.  1.
         -2   -1    0    0    0  501 -0.00000000000E+00 -0.00000000000E+00 -0.46580694731E+03  0.46580694731E+03  0.00000000000E+00 0. -1.
         25    1    1    2    0    0  0.19196739392E+03 -0.64149091039E+02  0.41164218183E+03  0.47543755854E+03  0.12500000000E+03 0.  0.
         21    1    1    2  503  502 -0.29594274256E+02 -0.17088709023E+02  0.15039926377E+03  0.15423288750E+03  0.00000000000E+00 0. -1.
         -2    1    1    2    0  503 -0.16237311966E+03  0.81237800063E+02 -0.41291537156E+03  0.45106952260E+03  0.00000000000E+00 0. -1.
<mgrwt>
<rscale>  4 0.22107333E+03</rscale>
<asrwt>0</asrwt>
<pdfrwt beam="1">  1       21 0.94605081E-01 0.22107333E+03</pdfrwt>
<pdfrwt beam="2">  1       -2 0.71662607E-01 0.22107333E+03</pdfrwt>
<totfact> 0.13622390E+02</totfact>
</mgrwt>
</event>
<event>
 5    0  0.4115852E+000  0.2456259E+03  0.7546771E-02  0.1116101E+00
          2   -1    0    0  502    0 -0.00000000000E+00  0.00000000000E+00  0.11524693340E+04  0.11524693340E+04  0.00000000000E+00 0.  1.
         21   -1    0    0  503  502  0.00000000000E+00 -0.00000000000E+00 -0.99751198194E+02  0.99751198194E+02  0.00000000000E+00 0.  1.
         25    1    1    2    0    0 -0.91788852391E+01  0.22643175261E+03  0.23036928851E+03  0.34648318807E+03  0.12500000000E+03 0.  0.
         21    1    1    2  503  501 -0.20445184659E+02 -0.20210165550E+02 -0.21914327717E+02  0.36148224390E+02  0.00000000000E+00 0.  1.
          2    1    1    2  501    0  0.29624069898E+02 -0.20622158706E+03  0.84426317504E+03  0.86958911977E+03  0.00000000000E+00 0.  1.
<mgrwt>
<rscale>  4 0.24562588E+03</rscale>
<asrwt>0</asrwt>
<pdfrwt beam="1">  1       21 0.15346339E-01 0.24562588E+03</pdfrwt>
<pdfrwt beam="2">  1        2 0.17730296E+00 0.24562588E+03</pdfrwt>
<totfact> 0.10060868E+04</totfact>
</mgrwt>
</event>
<event>
 5    0  0.4115852E+000  0.2273920E+03  0.7546771E-02  0.1128489E+00
         21   -1    0    0  503  502  0.00000000000E+00  0.00000000000E+00  0.79518626275E+03  0.79518626275E+03  0.00000000000E+00 0.  1.
          1   -1    0    0  502    0 -0.00000000000E+00 -0.00000000000E+00 -0.12207680611E+04  0.12207680611E+04  0.00000000000E+00 0. -1.
         25    1    1    2    0    0 -0.15975144091E+03 -0.24287804748E+03 -0.87881032444E+03  0.93404649518E+03  0.12500000000E+03 0.  0.
         21    1    1    2  503  501  0.16597165379E+03  0.90552471474E+02  0.73641196103E+03  0.76029528231E+03  0.00000000000E+00 0.  1.
          1    1    1    2  501    0 -0.62202128884E+01  0.15232557600E+03 -0.28318343498E+03  0.32161254640E+03  0.00000000000E+00 0. -1.
<mgrwt>
<rscale>  4 0.22739203E+03</rscale>
<asrwt>0</asrwt>
<pdfrwt beam="1">  1       21 0.12233635E+00 0.22739203E+03</pdfrwt>
<pdfrwt beam="2">  1        1 0.18781047E+00 0.22739203E+03</pdfrwt>
<totfact> 0.60982768E+01</totfact>
</mgrwt>
</event>
<event>
 5    0  0.4115852E+000  0.2915461E+03  0.7546771E-02  0.1089545E+00
         21   -1    0    0  503  502  0.00000000000E+00  0.00000000000E+00  0.35255804024E+02  0.35255804024E+02  0.00000000000E+00 0. -1.
          2   -1    0    0  502    0 -0.00000000000E+00 -0.00000000000E+00 -0.29452251093E+04  0.29452251093E+04  0.00000000000E+00 0.  1.
         25    1    1    2    0    0  0.21015089444E+03  0.19784374762E+03 -0.12126867387E+04  0.12528127047E+04  0.12500000000E+03 0.  0.
         21    1    1    2  503  501 -0.10893426874E+02 -0.44355329702E+02 -0.91063761317E+02  0.10187576084E+03  0.00000000000E+00 0.  1.
          2    1    1    2  501    0 -0.19925746756E+03 -0.15348841792E+03 -0.16062188053E+04  0.16257924478E+04  0.00000000000E+00 0.  1.
<mgrwt>
<rscale>  4 0.29154606E+03</rscale>
<asrwt>0</asrwt>
<pdfrwt beam="1">  1       21 0.54239695E-02 0.29154606E+03</pdfrwt>
<pdfrwt beam="2">  1        2 0.45311159E+00 0.29154606E+03</pdfrwt>
<totfact> 0.66118612E+03</totfact>
</mgrwt>
</event>
<event>
 5    0  0.4115852E+000  0.2661453E+03  0.7546771E-02  0.1103506E+00
         21   -1    0    0  503  502  0.00000000000E+00  0.00000000000E+00  0.89287094678E+03  0.89287094678E+03  0.00000000000E+00 0. -1.
          2   -1    0    0  502    0 -0.00000000000E+00 -0.00000000000E+00 -0.17190864215E+03  0.17190864215E+03  0.00000000000E+00 0. -1.
         25    1    1    2    0    0  0.19419429705E+03  0.10807068947E+03  0.61190241821E+02  0.26222117501E+03  0.12500000000E+03 0.  0.
         21    1    1    2  503  501  0.90603046138E+02 -0.10734267778E+03  0.37221056985E+03  0.39783422521E+03  0.00000000000E+00 0. -1.
          2    1    1    2  501    0 -0.28479734319E+03 -0.72801168967E+00  0.28756149297E+03  0.40472418871E+03  0.00000000000E+00 0. -1.
<mgrwt>
<rscale>  4 0.26614533E+03</rscale>
<asrwt>0</asrwt>
<pdfrwt beam="1">  1       21 0.13736476E+00 0.26614533E+03</pdfrwt>
<pdfrwt beam="2">  1        2 0.26447484E-01 0.26614533E+03</pdfrwt>
<totfact> 0.89939076E+02</totfact>
</mgrwt>
</event>
<event>
 5    0  0.4115852E+000  0.2384090E+03  0.7546771E-02  0.1120857E+00
          2   -1    0    0  502    0 -0.00000000000E+00  0.00000000000E+00  0.15246505237E+04  0.15246505237E+04  0.00000000000E+00 0.  1.
         21   -1    0    0  503  502  0.00000000000E+00 -0.00000000000E+00 -0.71515954272E+02  0.71515954272E+02  0.00000000000E+00 0.  1.
         25    1    1    2    0    0  0.16902574427E+03  0.14881524237E+03  0.22049113588E+03  0.33905312207E+03  0.12500000000E+03 0.  0.
         21    1    1    2  503  501 -0.11010837958E+02 -0.26331154767E+02  0.49016997583E+02  0.56720669213E+02  0.00000000000E+00 0.  1.
          2    1    1    2  501    0 -0.15801490631E+03 -0.12248408760E+03  0.11836264359E+04  0.12003926867E+04  0.00000000000E+00 0.  1.
<mgrwt>
<rscale>  4 0.23840896E+03</rscale>
<asrwt>0</asrwt>
<pdfrwt beam="1">  1       21 0.11002456E-01 0.23840896E+03</pdfrwt>
<pdfrwt beam="2">  1        2 0.23456159E+00 0.23840896E+03</pdfrwt>
<totfact> 0.11490883E+04</totfact>
</mgrwt>
</event>
<event>
 5    0  0.4115852E+000  0.2244087E+03  0.7546771E-02  0.1130638E+00
          2   -1    0    0  502    0 -0.00000000000E+00  0.00000000000E+00  0.98742614912E+03  0.98742614912E+03  0.00000000000E+00 0.  1.
         21   -1    0    0  503  502  0.00000000000E+00 -0.00000000000E+00 -0.25517164008E+03  0.25517164008E+03  0.00000000000E+00 0.  1.
         25    1    1    2    0    0 -0.58965568467E+02  0.21517117828E+03 -0.32139495181E+02  0.25774701041E+03  0.12500000000E+03 0.  0.
         21    1    1    2  503  501  0.18230451117E+03 -0.71584250661E+02 -0.15529176986E+01  0.19586130625E+03  0.00000000000E+00 0.  1.
          2    1    1    2  501    0 -0.12333894270E+03 -0.14358692762E+03  0.76594692191E+03  0.78898947253E+03  0.00000000000E+00 0.  1.
<mgrwt>
<rscale>  4 0.22440873E+03</rscale>
<asrwt>0</asrwt>
<pdfrwt beam="1">  1       21 0.39257176E-01 0.22440873E+03</pdfrwt>
<pdfrwt beam="2">  1        2 0.15191171E+00 0.22440873E+03</pdfrwt>
<totfact> 0.20938323E+03</totfact>
</mgrwt>
</event>
<event>
 5    0  0.4115852E+000  0.2419075E+03  0.7546771E-02  0.1118529E+00
         21   -1    0    0  503  502  0.00000000000E+00  0.00000000000E+00  0.44589149365E+02  0.44589149365E+02  0.00000000000E+00 0.  1.
          2   -1    0    0  502    0 -0.00000000000E+00 -0.00000000000E+00 -0.33606896491E+04  0.33606896491E+04  0.00000000000E+00 0. -1.
         25    1    1    2    0    0  0.19921212821E+03 -0.21438730991E+02 -0.46686089471E+03  0.52319134762E+03  0.12500000000E+03 0.  0.
         21    1    1    2  503  501  0.89020512863E+01  0.29797204167E+02 -0.65539565174E+01  0.31781665144E+02  0.00000000000E+00 0. -1.
          2    1    1    2  501    0 -0.20811417950E+03 -0.83584731761E+01 -0.28426856485E+04  0.28503057857E+04  0.00000000000E+00 0. -1.
<mgrwt>
<rscale>  4 0.24190751E+03</rscale>
<asrwt>0</asrwt>
<pdfrwt beam="1">  1       21 0.68598676E-02 0.24190751E+03</pdfrwt>
<pdfrwt beam="2">  1        2 0.51702929E+00 0.24190751E+03</pdfrwt>
<totfact> 0.25146235E+03</totfact>
</mgrwt>
</event>
<event>
 5    0  0.4115852E+000  0.2923034E+03  0.7546771E-02  0.1089153E+00
         21   -1    0    0  501  502  0.00000000000E+00  0.00000000000E+00  0.66027357523E+03  0.66027357523E+03  0.00000000000E+00 0.  1.
         -4   -1    0    0    0  501 -0.00000000000E+00 -0.00000000000E+00 -0.18752118435E+03  0.18752118435E+03  0.00000000000E+00 0. -1.
         25    1    1    2    0    0 -0.14080022895E+03 -0.22166128745E+03  0.47470893651E+03  0.55671537183E+03  0.12500000000E+03 0.  0.
         21    1    1    2  503  502  0.16687581060E+02 -0.12222474489E+02  0.15322145687E+02  0.25741647047E+02  0.00000000000E+00 0.  1.
         -4    1    1    2    0  503  0.12411264789E+03  0.23388376194E+03 -0.17278691311E+02  0.26533774070E+03  0.00000000000E+00 0. -1.
<mgrwt>
<rscale>  4 0.29230343E+03</rscale>
<asrwt>0</asrwt>
<pdfrwt beam="1">  1       21 0.10158055E+00 0.29230343E+03</pdfrwt>
<pdfrwt beam="2">  1       -4 0.28849413E-01 0.29230343E+03</pdfrwt>
<totfact> 0.37529309E+02</totfact>
</mgrwt>
</event>
<event>
 5    0  0.4115852E+000  0.3574776E+03  0.7546771E-02  0.1059587E+00
          2   -1    0    0  502    0 -0.00000000000E+00  0.00000000000E+00  0.23460952353E+04  0.23460952353E+04  0.00000000000E+00 0.  1.
         21   -1    0    0  503  502  0.00000000000E+00 -0.00000000000E+00 -0.15226319379E+03  0.15226319379E+03  0.00000000000E+00 0. -1.
         25    1    1    2    0    0  0.22361029153E+03 -0.31967543723E+03  0.20917923982E+03  0.45997271878E+03  0.12500000000E+03 0.  0.
         21    1    1    2  503  501 -0.26007582904E+02  0.56894678571E+02  0.62906108666E+02  0.88716274300E+02  0.00000000000E+00 0.  1.
          2    1    1    2  501    0 -0.19760270863E+03  0.26278075866E+03  0.19217466930E+04  0.19496694360E+04  0.00000000000E+00 0.  1.
<mgrwt>
<rscale>  4 0.35747756E+03</rscale>
<asrwt>0</asrwt>
<pdfrwt beam="1">  1       21 0.23425108E-01 0.35747756E+03</pdfrwt>
<pdfrwt beam="2">  1        2 0.36093770E+00 0.35747756E+03</pdfrwt>
<totfact> 0.99553578E+02</totfact>
</mgrwt>
</event>
<event>
 5    0  0.4115852E+000  0.3435050E+03  0.7546771E-02  0.1065313E+00
          2   -1    0    0  502    0 -0.00000000000E+00  0.00000000000E+00  0.20798592334E+04  0.20798592334E+04  0.00000000000E+00 0. -1.
         21   -1    0    0  503  502  0.00000000000E+00 -0.00000000000E+00 -0.48973498730E+03  0.48973498730E+03  0.00000000000E+00 0.  1.
         25    1    1    2    0    0  0.81613976777E+02 -0.29856631215E+03  0.54462166472E+03  0.63878043304E+03  0.12500000000E+03 0.  0.
         21    1    1    2  503  501 -0.24939822651E+02 -0.20666712673E+02 -0.42437144195E+03  0.42560571954E+03  0.00000000000E+00 0.  1.
          2    1    1    2  501    0 -0.56674154126E+02  0.31923302482E+03  0.14698740233E+04  0.15052080681E+04  0.00000000000E+00 0. -1.
<mgrwt>
<rscale>  4 0.34350503E+03</rscale>
<asrwt>0</asrwt>
<pdfrwt beam="1">  1       21 0.75343845E-01 0.34350503E+03</pdfrwt>
<pdfrwt beam="2">  1        2 0.31997834E+00 0.34350503E+03</pdfrwt>
<totfact> 0.12358102E+02</totfact>
</mgrwt>
</event>
<event>
 5    0  0.4115852E+000  0.3005777E+03  0.7546771E-02  0.1084952E+00
         21   -1    0    0  503  502  0.00000000000E+00  0.00000000000E+00  0.12493722431E+03  0.12493722431E+03  0.00000000000E+00 0.  1.
          2   -1    0    0  502    0 -0.00000000000E+00 -0.00000000000E+00 -0.15650234490E+04  0.15650234490E+04  0.00000000000E+00 0. -1.
         25    1    1    2    0    0  0.19344968090E+03 -0.16995748628E+03 -0.89782367381E+02  0.29999033264E+03  0.12500000000E+03 0.  0.
         21    1    1    2  503  501  0.36061991292E+01 -0.22605171599E+02 -0.17043031275E+02  0.28538804640E+02  0.00000000000E+00 0. -1.
          2    1    1    2  501    0 -0.19705588003E+03  0.19256265788E+03 -0.13332608260E+04  0.13614315360E+04  0.00000000000E+00 0. -1.
<mgrwt>
<rscale>  4 0.30057767E+03</rscale>
<asrwt>0</asrwt>
<pdfrwt beam="1">  1       21 0.19221111E-01 0.30057767E+03</pdfrwt>
<pdfrwt beam="2">  1        2 0.24077284E+00 0.30057767E+03</pdfrwt>
<totfact> 0.38605877E+03</totfact>
</mgrwt>
</event>
<event>
 5    0  0.4115852E+000  0.1732340E+03  0.7546771E-02  0.1174517E+00
         21   -1    0    0  503  502  0.00000000000E+00  0.00000000000E+00  0.47862879190E+03  0.47862879190E+03  0.00000000000E+00 0.  1.
          2   -1    0    0  502    0 -0.00000000000E+00 -0.00000000000E+00 -0.12399559205E+04  0.12399559205E+04  0.00000000000E+00 0. -1.
         25    1    1    2    0    0  0.18638493337E+03  0.84763034043E+02 -0.56329953890E+03  0.61225442902E+03  0.12500000000E+03 0.  0.
         21    1    1    2  503  501 -0.91397390867E+02 -0.39701231456E+02  0.44436018731E+03  0.45539614283E+03  0.00000000000E+00 0.  1.
          2    1    1    2  501    0 -0.94987542504E+02 -0.45061802587E+02 -0.64238777706E+03  0.65093414060E+03  0.00000000000E+00 0. -1.
<mgrwt>
<rscale>  4 0.17323404E+03</rscale>
<asrwt>0</asrwt>
<pdfrwt beam="1">  1       21 0.73635200E-01 0.17323404E+03</pdfrwt>
<pdfrwt beam="2">  1        2 0.19076245E+00 0.17323404E+03</pdfrwt>
<totfact> 0.40800074E+02</totfact>
</mgrwt>
</event>
<event>
 5    0  0.4115852E+000  0.3128991E+03  0.7546771E-02  0.1078965E+00
          2   -1    0    0  502    0 -0.00000000000E+00  0.00000000000E+00  0.90543413612E+03  0.90543413612E+03  0.00000000000E+00 0.  1.
         21   -1    0    0  503  502  0.00000000000E+00 -0.00000000000E+00 -0.15973442799E+03  0.15973442799E+03  0.00000000000E+00 0.  1.
         25    1    1    2    0    0 -0.25567562119E+03  0.19624019653E+03  0.15611370618E+03  0.37931085835E+03  0.12500000000E+03 0.  0.
         21    1    1    2  503  501  0.25788083632E+02 -0.41984659933E+02  0.21208813643E+02  0.53642806631E+02  0.00000000000E+00 0. -1.
          2    1    1    2  501    0  0.22988753756E+03 -0.15425553660E+03  0.56837718830E+03  0.63221489913E+03  0.00000000000E+00 0.  1.
<mgrwt>
<rscale>  4 0.31289912E+03</rscale>
<asrwt>0</asrwt>
<pdfrwt beam="1">  1       21 0.24574528E-01 0.31289912E+03</pdfrwt>
<pdfrwt beam="2">  1        2 0.13929756E+00 0.31289912E+03</pdfrwt>
<totfact> 0.57746858E+03</totfact>
</mgrwt>
</event>
<event>
 5    0  0.4115852E+000  0.2163128E+03  0.7546771E-02  0.1136662E+00
          1   -1    0    0  502    0 -0.00000000000E+00  0.00000000000E+00  0.73268813519E+03  0.73268813519E+03  0.00000000000E+00 0. -1.
         21   -1    0    0  503  502  0.00000000000E+00 -0.00000000000E+00 -0.17076139632E+03  0.17076139632E+03  0.00000000000E+00 0. -1.
         25    1    1    2    0    0  0.18251820636E+03  0.18112809258E+03  0.12757382386E+03  0.31308203735E+03  0.12500000000E+03 0.  0.
         21    1    1    2  503  501 -0.12076670036E+03 -0.26978796763E+02 -0.17109213590E+01  0.12375531763E+03  0.00000000000E+00 0. -1.
          1    1    1    2  501    0 -0.61751506002E+02 -0.15414929582E+03  0.43606383637E+03  0.46661217653E+03  0.00000000000E+00 0. -1.
<mgrwt>
<rscale>  4 0.21631282E+03</rscale>
<asrwt>0</asrwt>
<pdfrwt beam="1">  1       21 0.26270984E-01 0.21631282E+03</pdfrwt>
<pdfrwt beam="2">  1        1 0.11272125E+00 0.21631282E+03</pdfrwt>
<totfact> 0.40117879E+03</totfact>
</mgrwt>
</event>
<event>
 5    0  0.4115852E+000  0.2850111E+03  0.7546771E-02  0.1092983E+00
          1   -1    0    0  502    0 -0.00000000000E+00  0.00000000000E+00  0.64920846746E+03  0.64920846746E+03  0.00000000000E+00 0.  1.
         21   -1    0    0  503  502  0.00000000000E+00 -0.00000000000E+00 -0.14202692292E+03  0.14202692292E+03  0.00000000000E+00 0.  1.
         25    1    1    2    0    0  0.25356916735E+03 -0.36180285060E+02  0.39408520259E+03  0.48634810841E+03  0.12500000000E+03 0.  0.
         21    1    1    2  503  501 -0.84118684128E+02 -0.39212802673E+02  0.11785766910E+02  0.93554803269E+02  0.00000000000E+00 0.  1.
          1    1    1    2  501    0 -0.16945048322E+03  0.75393087733E+02  0.10131057503E+03  0.21133247870E+03  0.00000000000E+00 0.  1.
<mgrwt>
<rscale>  4 0.28501111E+03</rscale>
<asrwt>0</asrwt>
<pdfrwt beam="1">  1       21 0.21850296E-01 0.28501111E+03</pdfrwt>
<pdfrwt beam="2">  1        1 0.99878224E-01 0.28501111E+03</pdfrwt>
<totfact> 0.66761195E+03</totfact>
</mgrwt>
</event>
<event>
 5    0  0.4115852E+000  0.2363077E+03  0.7546771E-02  0.1122277E+00
          2   -1    0    0  502    0 -0.00000000000E+00  0.00000000000E+00  0.13313150737E+04  0.13313150737E+04  0.00000000000E+00 0.  1.
         21   -1    0    0  503  502  0.00000000000E+00 -0.00000000000E+00 -0.14209803129E+03  0.14209803129E+03  0.00000000000E+00 0. -1.
         25    1    1    2    0    0  0.23200459324E+03 -0.73467067708E+02  0.11174218777E+04  0.11504260924E+04  0.12500000000E+03 0.  0.
         21    1    1    2  503  501 -0.10334954634E+03  0.42509170700E+02 -0.67744171503E+02  0.13068064545E+03  0.00000000000E+00 0. -1.
          2    1    1    2  501    0 -0.12865504691E+03  0.30957897008E+02  0.13953933614E+03  0.19230636706E+03  0.00000000000E+00 0.  1.
<mgrwt>
<rscale>  4 0.23630775E+03</rscale>
<asrwt>0</asrwt>
<pdfrwt beam="1">  1       21 0.21861236E-01 0.23630775E+03</pdfrwt>
<pdfrwt beam="2">  1        2 0.20481770E+00 0.23630775E+03</pdfrwt>
<totfact> 0.41434897E+03</totfact>
</mgrwt>
</event>
<event>
 5    0  0.4115852E+000  0.3447357E+03  0.7546771E-02  0.1064797E+00
          1   -1    0    0  502    0 -0.00000000000E+00  0.00000000000E+00  0.20437313806E+04  0.20437313806E+04  0.00000000000E+00 0. -1.
         21   -1    0    0  503  502  0.00000000000E+00 -0.00000000000E+00 -0.32029834650E+03  0.32029834650E+03  0.00000000000E+00 0.  1.
         25    1    1    2    0    0 -0.31397749821E+03 -0.80680632001E+02 -0.13311616646E+03  0.37207008417E+03  0.12500000000E+03 0.  0.
         21    1    1    2  503  501 -0.76249910379E+01  0.78312511277E+02 -0.25436114331E+02  0.82692114637E+02  0.00000000000E+00 0.  1.
          1    1    1    2  501    0  0.32160248925E+03  0.23681207238E+01  0.18819853149E+04  0.19092675283E+04  0.00000000000E+00 0. -1.
<mgrwt>
<rscale>  4 0.34473575E+03</rscale>
<asrwt>0</asrwt>
<pdfrwt beam="1">  1       21 0.49276670E-01 0.34473575E+03</pdfrwt>
<pdfrwt beam="2">  1        1 0.31442020E+00 0.34473575E+03</pdfrwt>
<totfact> 0.12836953E+02</totfact>
</mgrwt>
</event>
<event>
 5    0  0.4115852E+000  0.4218670E+03  0.7546771E-02  0.1036460E+00
         21   -1    0    0  501  502  0.00000000000E+00  0.00000000000E+00  0.54330744329E+03  0.54330744329E+03  0.00000000000E+00 0.  1.
         -2   -1    0    0    0  501 -0.00000000000E+00 -0.00000000000E+00 -0.42824689089E+03  0.42824689089E+03  0.00000000000E+00 0. -1.
         25    1    1    2    0    0  0.11361010247E+03  0.40010543890E+03  0.25729424336E+03  0.50479396320E+03  0.12500000000E+03 0.  0.
         21    1    1    2  503  502  0.20861329609E+02 -0.24901430053E+02  0.18053439817E+02  0.37164539294E+02  0.00000000000E+00 0.  1.
         -2    1    1    2    0  503 -0.13447143208E+03 -0.37520400884E+03 -0.16028713078E+03  0.42959583168E+03  0.00000000000E+00 0. -1.
<mgrwt>
<rscale>  4 0.42186701E+03</rscale>
<asrwt>0</asrwt>
<pdfrwt beam="1">  1       21 0.83585761E-01 0.42186701E+03</pdfrwt>
<pdfrwt beam="2">  1       -2 0.65884137E-01 0.42186701E+03</pdfrwt>
<totfact> 0.20262148E+02</totfact>
</mgrwt>
</event>
<event>
 5    0  0.4115852E+000  0.2172032E+03  0.7546771E-02  0.1135986E+00
         21   -1    0    0  501  502  0.00000000000E+00  0.00000000000E+00  0.40429181839E+03  0.40429181839E+03  0.00000000000E+00 0.  1.
         -2   -1    0    0    0  501 -0.00000000000E+00 -0.00000000000E+00 -0.27842012631E+03  0.27842012631E+03  0.00000000000E+00 0.  1.
         25    1    1    2    0    0  0.63512857606E+02  0.20051160801E+03  0.23060942687E+03  0.33622090326E+03  0.12500000000E+03 0.  0.
         21    1    1    2  503  502 -0.23290717586E+02 -0.31479650517E+02  0.82336887717E+02  0.91174497538E+02  0.00000000000E+00 0.  1.
         -2    1    1    2    0  503 -0.40222140020E+02 -0.16903195749E+03 -0.18707462251E+03  0.25531654390E+03  0.00000000000E+00 0.  1.
<mgrwt>
<rscale>  4 0.21720316E+03</rscale>
<asrwt>0</asrwt>
<pdfrwt beam="1">  1       21 0.62198741E-01 0.21720316E+03</pdfrwt>
<pdfrwt beam="2">  1       -2 0.42833866E-01 0.21720316E+03</pdfrwt>
<totfact> 0.10025462E+03</totfact>
</mgrwt>
</event>
