<event>
 5    0  0.2345218E+001  0.2857421E+03  0.7546771E-02  0.1092593E+00
         21   -1    0    0  502  501  0.00000000000E+00  0.00000000000E+00  0.50838978659E+03  0.50838978659E+03  0.00000000000E+00 0. -1.
         21   -1    0    0  504  502 -0.00000000000E+00 -0.00000000000E+00 -0.28823449819E+03  0.28823449819E+03  0.00000000000E+00 0. -1.
         25    1    1    2    0    0 -0.26462189118E+03 -0.61851397400E+02 -0.14298115830E+03  0.33154027249E+03  0.12500000000E+03 0.  0.
         21    1    1    2  503  501  0.25089365250E+03  0.42714499665E+02  0.36064138938E+03  0.44140045886E+03  0.00000000000E+00 0. -1.
         21    1    1    2  504  503  0.13728238685E+02  0.19136897735E+02  0.24950573274E+01  0.23683553437E+02  0.00000000000E+00 0.  1.
<mgrwt>
<rscale>  4 0.28574207E+03</rscale>
<asrwt>0</asrwt>
<pdfrwt beam="1">  1       21 0.78213813E-01 0.28574207E+03</pdfrwt>
<pdfrwt beam="2">  1       21 0.44343769E-01 0.28574207E+03</pdfrwt>
<totfact> 0.66690557E+03</totfact>
</mgrwt>
</event>
<event>
 5    0  0.1911311E+001  0.2415486E+03  0.7546771E-02  0.1118765E+00
         21   -1    0    0  504  501  0.00000000000E+00  0.00000000000E+00  0.22687645736E+03  0.22687645736E+03  0.00000000000E+00 0.  1.
         21   -1    0    0  501  502 -0.00000000000E+00 -0.00000000000E+00 -0.27817346105E+03  0.27817346105E+03  0.00000000000E+00 0.  1.
         25    1    1    2    0    0  0.98946857128E+02  0.19587268269E+03  0.13943073215E+02  0.25293476956E+03  0.12500000000E+03 0.  0.
         21    1    1    2  503  502 -0.67652959109E+02 -0.18362766696E+03 -0.21375026856E+02  0.19685765091E+03  0.00000000000E+00 0.  1.
         21    1    1    2  504  503 -0.31293898020E+02 -0.12245015738E+02 -0.43865050043E+02  0.55257497943E+02  0.00000000000E+00 0.  1.
<mgrwt>
<rscale>  4 0.24154863E+03</rscale>
<asrwt>0</asrwt>
<pdfrwt beam="1">  1       21 0.34904070E-01 0.24154863E+03</pdfrwt>
<pdfrwt beam="2">  1       21 0.42795917E-01 0.24154863E+03</pdfrwt>
<totfact> 0.40597954E+04</totfact>
</mgrwt>
</event>
<event>
 5    0  0.1911311E+001  0.2504881E+03  0.7546771E-02  0.1112997E+00
         21   -1    0    0  502  501  0.00000000000E+00  0.00000000000E+00  0.19158186757E+03  0.19158186757E+03  0.00000000000E+00 0.  1.
         21   -1    0    0  504  502 -0.00000000000E+00 -0.00000000000E+00 -0.16801811184E+04  0.16801811184E+04  0.00000000000E+00 0.  1.
         25    1    1    2    0    0 -0.89737985308E+02  0.20108935223E+03  0.88205110205E+02  0.26813238345E+03  0.12500000000E+03 0.  0.
         21    1    1    2  503  501  0.42438777372E+02 -0.41402260318E+02 -0.91573597522E+02  0.10909134130E+03  0.00000000000E+00 0. -1.
         21    1    1    2  504  503  0.47299207936E+02 -0.15968709192E+03 -0.14852307635E+04  0.14945392612E+04  0.00000000000E+00 0.  1.
<mgrwt>
<rscale>  4 0.25048815E+03</rscale>
<asrwt>0</asrwt>
<pdfrwt beam="1">  1       21 0.29474133E-01 0.25048815E+03</pdfrwt>
<pdfrwt beam="2">  1       21 0.25848941E+00 0.25048815E+03</pdfrwt>
<totfact> 0.61165522E+02</totfact>
</mgrwt>
</event>
<event>
 5    0  0.1911311E+001  0.3992072E+03  0.7546771E-02  0.1044055E+00
         21   -1    0    0  504  501  0.00000000000E+00  0.00000000000E+00  0.83272394762E+03  0.83272394762E+03  0.00000000000E+00 0.  1.
         21   -1    0    0  503  502 -0.00000000000E+00 -0.00000000000E+00 -0.77688406378E+03  0.77688406378E+03  0.00000000000E+00 0.  1.
         25    1    1    2    0    0 -0.21918707730E+02 -0.52073767590E+03  0.42730715710E+03  0.68546667560E+03  0.12500000000E+03 0.  0.
         21    1    1    2  503  501  0.11703272549E+03  0.34755101294E+03 -0.54786167147E+03  0.65927291504E+03  0.00000000000E+00 0.  1.
         21    1    1    2  504  502 -0.95114017760E+02  0.17318666296E+03  0.17639439821E+03  0.26486842077E+03  0.00000000000E+00 0.  1.
<mgrwt>
<rscale>  4 0.39920725E+03</rscale>
<asrwt>0</asrwt>
<pdfrwt beam="1">  1       21 0.12811138E+00 0.39920725E+03</pdfrwt>
<pdfrwt beam="2">  1       21 0.11952063E+00 0.39920725E+03</pdfrwt>
<totfact> 0.20094549E+02</totfact>
</mgrwt>
</event>
