<event>
 4    0  0.1426692E-001  0.2723888E+03  0.7546771E-02  0.1099920E+00
         21   -1    0    0  501  502  0.00000000000E+00  0.00000000000E+00  0.20443422900E+03  0.20443422900E+03  0.00000000000E+00 0. -1.
          1   -1    0    0  502    0 -0.00000000000E+00 -0.00000000000E+00 -0.10766357804E+04  0.10766357804E+04  0.00000000000E+00 0.  1.
         25    1    1    2    0    0 -0.10518495573E+03  0.21796050610E+03  0.91576324784E+02  0.28737063245E+03  0.12500000000E+03 0.  0.
          1    1    1    2  501    0  0.10518495573E+03 -0.21796050610E+03 -0.96377787623E+03  0.99369937700E+03  0.00000000000E+00 0.  1.
<mgrwt>
<rscale>  3 0.27238880E+03</rscale>
<asrwt>0</asrwt>
<pdfrwt beam="1">  1       21 0.31451420E-01 0.27238880E+03</pdfrwt>
<pdfrwt beam="2">  1        1 0.16563627E+00 0.27238880E+03</pdfrwt>
<totfact> 0.14800020E+03</totfact>
</mgrwt>
</event>
<event>
 4    0  0.1426692E-001  0.3388623E+03  0.7546771E-02  0.1067282E+00
          1   -1    0    0  502    0 -0.00000000000E+00  0.00000000000E+00  0.13287146629E+04  0.13287146629E+04  0.00000000000E+00 0. -1.
         21   -1    0    0  501  502  0.00000000000E+00 -0.00000000000E+00 -0.23745555799E+04  0.23745555799E+04  0.00000000000E+00 0. -1.
         25    1    1    2    0    0 -0.72514043249E+02  0.30650342732E+03 -0.23435316039E+04  0.23679037176E+04  0.12500000000E+03 0.  0.
          1    1    1    2  501    0  0.72514043249E+02 -0.30650342732E+03  0.12976906870E+04  0.13353665251E+04  0.00000000000E+00 0. -1.
<mgrwt>
<rscale>  3 0.33886227E+03</rscale>
<asrwt>0</asrwt>
<pdfrwt beam="1">  1       21 0.36531624E+00 0.33886227E+03</pdfrwt>
<pdfrwt beam="2">  1        1 0.20441764E+00 0.33886227E+03</pdfrwt>
<totfact> 0.12176292E+00</totfact>
</mgrwt>
</event>
<event>
 4    0  0.1426692E-001  0.2504010E+03  0.7546771E-02  0.1113052E+00
         21   -1    0    0  501  502  0.00000000000E+00  0.00000000000E+00  0.22621711831E+03  0.22621711831E+03  0.00000000000E+00 0.  1.
          2   -1    0    0  502    0 -0.00000000000E+00 -0.00000000000E+00 -0.35837492946E+03  0.35837492946E+03  0.00000000000E+00 0.  1.
         25    1    1    2    0    0 -0.89941552178E+02  0.19744913468E+03  0.97443297002E+02  0.26869283527E+03  0.12500000000E+03 0.  0.
          2    1    1    2  501    0  0.89941552178E+02 -0.19744913468E+03 -0.22960110816E+03  0.31589921250E+03  0.00000000000E+00 0.  1.
<mgrwt>
<rscale>  3 0.25040097E+03</rscale>
<asrwt>0</asrwt>
<pdfrwt beam="1">  1       21 0.34802634E-01 0.25040097E+03</pdfrwt>
<pdfrwt beam="2">  1        2 0.55134604E-01 0.25040097E+03</pdfrwt>
<totfact> 0.88020540E+03</totfact>
</mgrwt>
</event>
<event>
 4    0  0.1426692E-001  0.2494776E+03  0.7546771E-02  0.1113635E+00
          1   -1    0    0  502    0 -0.00000000000E+00  0.00000000000E+00  0.65719663593E+03  0.65719663593E+03  0.00000000000E+00 0.  1.
         21   -1    0    0  501  502  0.00000000000E+00 -0.00000000000E+00 -0.95119374622E+02  0.95119374622E+02  0.00000000000E+00 0. -1.
         25    1    1    2    0    0  0.76346195283E+02  0.20195383927E+03  0.16129049075E+03  0.29707527184E+03  0.12500000000E+03 0.  0.
          1    1    1    2  501    0 -0.76346195283E+02 -0.20195383927E+03  0.40078677056E+03  0.45524073871E+03  0.00000000000E+00 0.  1.
<mgrwt>
<rscale>  3 0.24947764E+03</rscale>
<asrwt>0</asrwt>
<pdfrwt beam="1">  1       21 0.14633750E-01 0.24947764E+03</pdfrwt>
<pdfrwt beam="2">  1        1 0.10110717E+00 0.24947764E+03</pdfrwt>
<totfact> 0.13943599E+04</totfact>
</mgrwt>
</event>
<event>
 4    0  0.1426692E-001  0.2681591E+03  0.7546771E-02  0.1102338E+00
         -2   -1    0    0    0  501 -0.00000000000E+00  0.00000000000E+00  0.14244613270E+04  0.14244613270E+04  0.00000000000E+00 0.  1.
         21   -1    0    0  501  502  0.00000000000E+00 -0.00000000000E+00 -0.43768292785E+03  0.43768292785E+03  0.00000000000E+00 0.  1.
         25    1    1    2    0    0  0.40005077968E+02 -0.23384593324E+03 -0.38545244557E+03  0.46955608243E+03  0.12500000000E+03 0.  0.
         -2    1    1    2    0  502 -0.40005077968E+02  0.23384593324E+03  0.13722308447E+04  0.13925881724E+04  0.00000000000E+00 0.  1.
<mgrwt>
<rscale>  3 0.26815914E+03</rscale>
<asrwt>0</asrwt>
<pdfrwt beam="1">  1       21 0.67335836E-01 0.26815914E+03</pdfrwt>
<pdfrwt beam="2">  1       -2 0.21914789E+00 0.26815914E+03</pdfrwt>
<totfact> 0.17524006E+01</totfact>
</mgrwt>
</event>
<event>
 4    0  0.1426692E-001  0.2737319E+03  0.7546771E-02  0.1099163E+00
          3   -1    0    0  502    0 -0.00000000000E+00  0.00000000000E+00  0.97021360607E+03  0.97021360607E+03  0.00000000000E+00 0.  1.
         21   -1    0    0  501  502  0.00000000000E+00 -0.00000000000E+00 -0.37673192503E+03  0.37673192503E+03  0.00000000000E+00 0.  1.
         25    1    1    2    0    0 -0.20007312211E+03 -0.13883399275E+03 -0.30863667985E+03  0.41253573407E+03  0.12500000000E+03 0.  0.
          3    1    1    2  501    0  0.20007312211E+03  0.13883399275E+03  0.90211836089E+03  0.93440979703E+03  0.00000000000E+00 0.  1.
<mgrwt>
<rscale>  3 0.27373186E+03</rscale>
<asrwt>0</asrwt>
<pdfrwt beam="1">  1       21 0.57958758E-01 0.27373186E+03</pdfrwt>
<pdfrwt beam="2">  1        3 0.14926363E+00 0.27373186E+03</pdfrwt>
<totfact> 0.46533054E+01</totfact>
</mgrwt>
</event>
<event>
 4    0  0.1426692E-001  0.3667432E+03  0.7546771E-02  0.1055945E+00
          1   -1    0    0  502    0 -0.00000000000E+00  0.00000000000E+00  0.13736799167E+03  0.13736799167E+03  0.00000000000E+00 0.  1.
         21   -1    0    0  501  502  0.00000000000E+00 -0.00000000000E+00 -0.10520688748E+04  0.10520688748E+04  0.00000000000E+00 0.  1.
         25    1    1    2    0    0 -0.33491273437E+02  0.34315287425E+03 -0.67923670904E+03  0.77192167181E+03  0.12500000000E+03 0.  0.
          1    1    1    2  501    0  0.33491273437E+02 -0.34315287425E+03 -0.23546417414E+03  0.41751519470E+03  0.00000000000E+00 0.  1.
<mgrwt>
<rscale>  3 0.36674318E+03</rscale>
<asrwt>0</asrwt>
<pdfrwt beam="1">  1       21 0.16185675E+00 0.36674318E+03</pdfrwt>
<pdfrwt beam="2">  1        1 0.21133538E-01 0.36674318E+03</pdfrwt>
<totfact> 0.57701908E+02</totfact>
</mgrwt>
</event>
<event>
 4    0  0.1426692E-001  0.2473940E+03  0.7546771E-02  0.1114963E+00
          2   -1    0    0  502    0 -0.00000000000E+00  0.00000000000E+00  0.12478625126E+04  0.12478625126E+04  0.00000000000E+00 0.  1.
         21   -1    0    0  501  502  0.00000000000E+00 -0.00000000000E+00 -0.67958832934E+02  0.67958832934E+02  0.00000000000E+00 0. -1.
         25    1    1    2    0    0 -0.21035345141E+03 -0.36471918839E+02  0.21556807645E+03  0.32813620795E+03  0.12500000000E+03 0.  0.
          2    1    1    2  501    0  0.21035345141E+03  0.36471918839E+02  0.96433560323E+03  0.98768513760E+03  0.00000000000E+00 0.  1.
<mgrwt>
<rscale>  3 0.24739397E+03</rscale>
<asrwt>0</asrwt>
<pdfrwt beam="1">  1       21 0.10455206E-01 0.24739397E+03</pdfrwt>
<pdfrwt beam="2">  1        2 0.19197883E+00 0.24739397E+03</pdfrwt>
<totfact> 0.17761991E+04</totfact>
</mgrwt>
</event>
<event>
 4    0  0.1426692E-001  0.4678810E+03  0.7546771E-02  0.1022520E+00
         21   -1    0    0  501  502  0.00000000000E+00  0.00000000000E+00  0.93295097383E+02  0.93295097383E+02  0.00000000000E+00 0.  1.
          2   -1    0    0  502    0 -0.00000000000E+00 -0.00000000000E+00 -0.25873658190E+04  0.25873658190E+04  0.00000000000E+00 0.  1.
         25    1    1    2    0    0 -0.30296405676E+03 -0.33391676209E+03 -0.79194080951E+03  0.91982763030E+03  0.12500000000E+03 0.  0.
          2    1    1    2  501    0  0.30296405676E+03  0.33391676209E+03 -0.17021299121E+04  0.17608332861E+04  0.00000000000E+00 0.  1.
<mgrwt>
<rscale>  3 0.46788099E+03</rscale>
<asrwt>0</asrwt>
<pdfrwt beam="1">  1       21 0.14353093E-01 0.46788099E+03</pdfrwt>
<pdfrwt beam="2">  1        2 0.39805625E+00 0.46788099E+03</pdfrwt>
<totfact> 0.17764783E+03</totfact>
</mgrwt>
</event>
<event>
 4    0  0.1426692E-001  0.3680770E+03  0.7546771E-02  0.1055431E+00
          2   -1    0    0  502    0 -0.00000000000E+00  0.00000000000E+00  0.20958582442E+04  0.20958582442E+04  0.00000000000E+00 0.  1.
         21   -1    0    0  501  502  0.00000000000E+00 -0.00000000000E+00 -0.98064341128E+02  0.98064341128E+02  0.00000000000E+00 0.  1.
         25    1    1    2    0    0  0.56861211934E+02 -0.34150031858E+03  0.16933753008E+04  0.17329167823E+04  0.12500000000E+03 0.  0.
          2    1    1    2  501    0 -0.56861211934E+02  0.34150031858E+03  0.30441860227E+03  0.46100580302E+03  0.00000000000E+00 0.  1.
<mgrwt>
<rscale>  3 0.36807698E+03</rscale>
<asrwt>0</asrwt>
<pdfrwt beam="1">  1       21 0.15086823E-01 0.36807698E+03</pdfrwt>
<pdfrwt beam="2">  1        2 0.32243970E+00 0.36807698E+03</pdfrwt>
<totfact> 0.31002405E+03</totfact>
</mgrwt>
</event>
<event>
 4    0  0.1426692E-001  0.2375923E+03  0.7546771E-02  0.1121407E+00
          2   -1    0    0  502    0 -0.00000000000E+00  0.00000000000E+00  0.12390295711E+04  0.12390295711E+04  0.00000000000E+00 0. -1.
         21   -1    0    0  501  502  0.00000000000E+00 -0.00000000000E+00 -0.88269103359E+02  0.88269103359E+02  0.00000000000E+00 0. -1.
         25    1    1    2    0    0 -0.93357799324E+02  0.17919101440E+03  0.10082854227E+03  0.25810171110E+03  0.12500000000E+03 0.  0.
          2    1    1    2  501    0  0.93357799324E+02 -0.17919101440E+03  0.10499319255E+04  0.10691969634E+04  0.00000000000E+00 0. -1.
<mgrwt>
<rscale>  3 0.23759229E+03</rscale>
<asrwt>0</asrwt>
<pdfrwt beam="1">  1       21 0.13579863E-01 0.23759229E+03</pdfrwt>
<pdfrwt beam="2">  1        2 0.19061992E+00 0.23759229E+03</pdfrwt>
<totfact> 0.11254695E+04</totfact>
</mgrwt>
</event>
<event>
 4    0  0.1426692E-001  0.3046969E+03  0.7546771E-02  0.1082916E+00
          2   -1    0    0  502    0 -0.00000000000E+00  0.00000000000E+00  0.13436808776E+04  0.13436808776E+04  0.00000000000E+00 0. -1.
         21   -1    0    0  501  502  0.00000000000E+00 -0.00000000000E+00 -0.71613469114E+02  0.71613469114E+02  0.00000000000E+00 0. -1.
         25    1    1    2    0    0  0.13036368344E+02 -0.27757028345E+03  0.41874831557E+03  0.51787098871E+03  0.12500000000E+03 0.  0.
          2    1    1    2  501    0 -0.13036368344E+02  0.27757028345E+03  0.85331909288E+03  0.89742335797E+03  0.00000000000E+00 0. -1.
<mgrwt>
<rscale>  3 0.30469691E+03</rscale>
<asrwt>0</asrwt>
<pdfrwt beam="1">  1       21 0.11017458E-01 0.30469691E+03</pdfrwt>
<pdfrwt beam="2">  1        2 0.20672012E+00 0.30469691E+03</pdfrwt>
<totfact> 0.14126149E+04</totfact>
</mgrwt>
</event>
<event>
 4    0  0.1426692E-001  0.3195659E+03  0.7546771E-02  0.1075849E+00
          1   -1    0    0  502    0 -0.00000000000E+00  0.00000000000E+00  0.52513696181E+03  0.52513696181E+03  0.00000000000E+00 0. -1.
         21   -1    0    0  501  502  0.00000000000E+00 -0.00000000000E+00 -0.23185635656E+03  0.23185635656E+03  0.00000000000E+00 0.  1.
         25    1    1    2    0    0 -0.23492442454E+03 -0.17694026203E+03 -0.28769740357E+02  0.32085828575E+03  0.12500000000E+03 0.  0.
          1    1    1    2  501    0  0.23492442454E+03  0.17694026203E+03  0.32205034561E+03  0.43613503262E+03  0.00000000000E+00 0. -1.
<mgrwt>
<rscale>  3 0.31956586E+03</rscale>
<asrwt>0</asrwt>
<pdfrwt beam="1">  1       21 0.35670209E-01 0.31956586E+03</pdfrwt>
<pdfrwt beam="2">  1        1 0.80790301E-01 0.31956586E+03</pdfrwt>
<totfact> 0.34136522E+03</totfact>
</mgrwt>
</event>
<event>
 4    0  0.1426692E-001  0.2574110E+03  0.7546771E-02  0.1108709E+00
         21   -1    0    0  501  502  0.00000000000E+00  0.00000000000E+00  0.19545744618E+03  0.19545744618E+03  0.00000000000E+00 0.  1.
         -3   -1    0    0    0  501 -0.00000000000E+00 -0.00000000000E+00 -0.32191170041E+03  0.32191170041E+03  0.00000000000E+00 0.  1.
         25    1    1    2    0    0  0.15365798685E+02  0.22449793961E+03  0.36583167698E+01  0.25743701354E+03  0.12500000000E+03 0.  0.
         -3    1    1    2    0  502 -0.15365798685E+02 -0.22449793961E+03 -0.13011257100E+03  0.25993213305E+03  0.00000000000E+00 0.  1.
<mgrwt>
<rscale>  3 0.25741102E+03</rscale>
<asrwt>0</asrwt>
<pdfrwt beam="1">  1       21 0.30070377E-01 0.25741102E+03</pdfrwt>
<pdfrwt beam="2">  1       -3 0.49524877E-01 0.25741102E+03</pdfrwt>
<totfact> 0.21286952E+03</totfact>
</mgrwt>
</event>
<event>
 4    0  0.1426692E-001  0.4533309E+03  0.7546771E-02  0.1026733E+00
         21   -1    0    0  501  502  0.00000000000E+00  0.00000000000E+00  0.15581325665E+03  0.15581325665E+03  0.00000000000E+00 0.  1.
          2   -1    0    0  502    0 -0.00000000000E+00 -0.00000000000E+00 -0.16342798125E+04  0.16342798125E+04  0.00000000000E+00 0. -1.
         25    1    1    2    0    0  0.41913584804E+03 -0.11920157575E+03 -0.32708579324E+03  0.55901161966E+03  0.12500000000E+03 0.  0.
          2    1    1    2  501    0 -0.41913584804E+03  0.11920157575E+03 -0.11513807626E+04  0.12310814495E+04  0.00000000000E+00 0. -1.
<mgrwt>
<rscale>  3 0.45333087E+03</rscale>
<asrwt>0</asrwt>
<pdfrwt beam="1">  1       21 0.23971268E-01 0.45333087E+03</pdfrwt>
<pdfrwt beam="2">  1        2 0.25142768E+00 0.45333087E+03</pdfrwt>
<totfact> 0.22282565E+03</totfact>
</mgrwt>
</event>
<event>
 4    0  0.1426692E-001  0.3136171E+03  0.7546771E-02  0.1078625E+00
          2   -1    0    0  502    0 -0.00000000000E+00  0.00000000000E+00  0.68868702284E+03  0.68868702284E+03  0.00000000000E+00 0.  1.
         21   -1    0    0  501  502  0.00000000000E+00 -0.00000000000E+00 -0.13180201633E+03  0.13180201633E+03  0.00000000000E+00 0.  1.
         25    1    1    2    0    0  0.22866624172E+03  0.17447759410E+03  0.26335360477E+03  0.40952509336E+03  0.12500000000E+03 0.  0.
          2    1    1    2  501    0 -0.22866624172E+03 -0.17447759410E+03  0.29353140174E+03  0.41096394581E+03  0.00000000000E+00 0.  1.
<mgrwt>
<rscale>  3 0.31361709E+03</rscale>
<asrwt>0</asrwt>
<pdfrwt beam="1">  1       21 0.20277234E-01 0.31361709E+03</pdfrwt>
<pdfrwt beam="2">  1        2 0.10595185E+00 0.31361709E+03</pdfrwt>
<totfact> 0.11835526E+04</totfact>
</mgrwt>
</event>
<event>
 4    0  0.1426692E-001  0.2622492E+03  0.7546771E-02  0.1105799E+00
         -1   -1    0    0    0  501 -0.00000000000E+00  0.00000000000E+00  0.37207783497E+03  0.37207783497E+03  0.00000000000E+00 0. -1.
         21   -1    0    0  501  502  0.00000000000E+00 -0.00000000000E+00 -0.80934304275E+03  0.80934304275E+03  0.00000000000E+00 0. -1.
         25    1    1    2    0    0  0.52222871276E+02 -0.22454937254E+03 -0.74906578238E+03  0.79364613987E+03  0.12500000000E+03 0.  0.
         -1    1    1    2    0  502 -0.52222871276E+02  0.22454937254E+03  0.31180057460E+03  0.38777473785E+03  0.00000000000E+00 0. -1.
<mgrwt>
<rscale>  3 0.26224921E+03</rscale>
<asrwt>0</asrwt>
<pdfrwt beam="1">  1       21 0.12451431E+00 0.26224921E+03</pdfrwt>
<pdfrwt beam="2">  1       -1 0.57242744E-01 0.26224921E+03</pdfrwt>
<totfact> 0.13625295E+02</totfact>
</mgrwt>
</event>
<event>
 4    0  0.1426692E-001  0.2645004E+03  0.7546771E-02  0.1104469E+00
          1   -1    0    0  502    0 -0.00000000000E+00  0.00000000000E+00  0.45560202778E+03  0.45560202778E+03  0.00000000000E+00 0.  1.
         21   -1    0    0  501  502  0.00000000000E+00 -0.00000000000E+00 -0.24142513112E+03  0.24142513112E+03  0.00000000000E+00 0. -1.
         25    1    1    2    0    0  0.23290955237E+03 -0.94134214319E+01 -0.11929838337E+03  0.29015957051E+03  0.12500000000E+03 0.  0.
          1    1    1    2  501    0 -0.23290955237E+03  0.94134214319E+01  0.33347528003E+03  0.40686758839E+03  0.00000000000E+00 0.  1.
<mgrwt>
<rscale>  3 0.26450042E+03</rscale>
<asrwt>0</asrwt>
<pdfrwt beam="1">  1       21 0.37142328E-01 0.26450042E+03</pdfrwt>
<pdfrwt beam="2">  1        1 0.70092619E-01 0.26450042E+03</pdfrwt>
<totfact> 0.38544898E+03</totfact>
</mgrwt>
</event>
<event>
 4    0  0.1426692E-001  0.2915244E+03  0.7546771E-02  0.1089556E+00
         21   -1    0    0  501  502  0.00000000000E+00  0.00000000000E+00  0.15933256076E+04  0.15933256076E+04  0.00000000000E+00 0. -1.
          1   -1    0    0  502    0 -0.00000000000E+00 -0.00000000000E+00 -0.35021929173E+03  0.35021929173E+03  0.00000000000E+00 0. -1.
         25    1    1    2    0    0 -0.10592698506E+03  0.24112436210E+03  0.15280041262E+04  0.15555652007E+04  0.12500000000E+03 0.  0.
          1    1    1    2  501    0  0.10592698506E+03 -0.24112436210E+03 -0.28489781033E+03  0.38797969856E+03  0.00000000000E+00 0. -1.
<mgrwt>
<rscale>  3 0.29152441E+03</rscale>
<asrwt>0</asrwt>
<pdfrwt beam="1">  1       21 0.24512701E+00 0.29152441E+03</pdfrwt>
<pdfrwt beam="2">  1        1 0.53879892E-01 0.29152441E+03</pdfrwt>
<totfact> 0.51244034E+01</totfact>
</mgrwt>
</event>
<event>
 4    0  0.1426692E-001  0.2374086E+03  0.7546771E-02  0.1121531E+00
         21   -1    0    0  501  502  0.00000000000E+00  0.00000000000E+00  0.73792880142E+02  0.73792880142E+02  0.00000000000E+00 0.  1.
          1   -1    0    0  502    0 -0.00000000000E+00 -0.00000000000E+00 -0.20123977523E+04  0.20123977523E+04  0.00000000000E+00 0.  1.
         25    1    1    2    0    0 -0.14517142154E+03  0.14022511931E+03 -0.13859994309E+03  0.27490501985E+03  0.12500000000E+03 0.  0.
          1    1    1    2  501    0  0.14517142154E+03 -0.14022511931E+03 -0.18000049291E+04  0.18112856126E+04  0.00000000000E+00 0.  1.
<mgrwt>
<rscale>  3 0.23740856E+03</rscale>
<asrwt>0</asrwt>
<pdfrwt beam="1">  1       21 0.11352751E-01 0.23740856E+03</pdfrwt>
<pdfrwt beam="2">  1        1 0.30959964E+00 0.23740856E+03</pdfrwt>
<totfact> 0.24012837E+03</totfact>
</mgrwt>
</event>
<event>
 4    0  0.1426692E-001  0.2429393E+03  0.7546771E-02  0.1117850E+00
         21   -1    0    0  501  502  0.00000000000E+00  0.00000000000E+00  0.15587829111E+03  0.15587829111E+03  0.00000000000E+00 0.  1.
          2   -1    0    0  502    0 -0.00000000000E+00 -0.00000000000E+00 -0.41294529095E+03  0.41294529095E+03  0.00000000000E+00 0. -1.
         25    1    1    2    0    0  0.14762979940E+03  0.14696918573E+03 -0.65711565621E+01  0.24302814513E+03  0.12500000000E+03 0.  0.
          2    1    1    2  501    0 -0.14762979940E+03 -0.14696918573E+03 -0.25049584327E+03  0.32579543693E+03  0.00000000000E+00 0. -1.
<mgrwt>
<rscale>  3 0.24293929E+03</rscale>
<asrwt>0</asrwt>
<pdfrwt beam="1">  1       21 0.23981276E-01 0.24293929E+03</pdfrwt>
<pdfrwt beam="2">  1        2 0.63530043E-01 0.24293929E+03</pdfrwt>
<totfact> 0.15630757E+04</totfact>
</mgrwt>
</event>
<event>
 4    0  0.1426692E-001  0.4542550E+03  0.7546771E-02  0.1026461E+00
         21   -1    0    0  501  502  0.00000000000E+00  0.00000000000E+00  0.28531341793E+03  0.28531341793E+03  0.00000000000E+00 0. -1.
          2   -1    0    0  502    0 -0.00000000000E+00 -0.00000000000E+00 -0.69663391985E+03  0.69663391985E+03  0.00000000000E+00 0. -1.
         25    1    1    2    0    0 -0.26025430244E+03  0.35069971090E+03 -0.22879852343E+03  0.50862201436E+03  0.12500000000E+03 0.  0.
          2    1    1    2  501    0  0.26025430244E+03 -0.35069971090E+03 -0.18252197849E+03  0.47332532342E+03  0.00000000000E+00 0. -1.
<mgrwt>
<rscale>  3 0.45425498E+03</rscale>
<asrwt>0</asrwt>
<pdfrwt beam="1">  1       21 0.43894372E-01 0.45425498E+03</pdfrwt>
<pdfrwt beam="2">  1        2 0.10717445E+00 0.45425498E+03</pdfrwt>
<totfact> 0.24618537E+03</totfact>
</mgrwt>
</event>
<event>
 4    0  0.1426692E-001  0.3527879E+03  0.7546771E-02  0.1061477E+00
          1   -1    0    0  502    0 -0.00000000000E+00  0.00000000000E+00  0.80614040112E+03  0.80614040112E+03  0.00000000000E+00 0. -1.
         21   -1    0    0  501  502  0.00000000000E+00 -0.00000000000E+00 -0.14709874208E+03  0.14709874208E+03  0.00000000000E+00 0. -1.
         25    1    1    2    0    0  0.18402197349E+03 -0.27380691485E+03  0.27749347323E+03  0.44884511920E+03  0.12500000000E+03 0.  0.
          1    1    1    2  501    0 -0.18402197349E+03  0.27380691485E+03  0.38154818582E+03  0.50439402400E+03  0.00000000000E+00 0. -1.
<mgrwt>
<rscale>  3 0.35278792E+03</rscale>
<asrwt>0</asrwt>
<pdfrwt beam="1">  1       21 0.22630576E-01 0.35278792E+03</pdfrwt>
<pdfrwt beam="2">  1        1 0.12402160E+00 0.35278792E+03</pdfrwt>
<totfact> 0.44538072E+03</totfact>
</mgrwt>
</event>
<event>
 4    0  0.1426692E-001  0.2460682E+03  0.7546771E-02  0.1115815E+00
         21   -1    0    0  501  502  0.00000000000E+00  0.00000000000E+00  0.17350245786E+03  0.17350245786E+03  0.00000000000E+00 0.  1.
         -1   -1    0    0    0  501 -0.00000000000E+00 -0.00000000000E+00 -0.33020575461E+03  0.33020575461E+03  0.00000000000E+00 0.  1.
         25    1    1    2    0    0  0.17551732544E+03 -0.11882010030E+03 -0.15675108053E+03  0.29175408997E+03  0.12500000000E+03 0.  0.
         -1    1    1    2    0  502 -0.17551732544E+03  0.11882010030E+03  0.47783781213E-01  0.21195412251E+03  0.00000000000E+00 0.  1.
<mgrwt>
<rscale>  3 0.24606818E+03</rscale>
<asrwt>0</asrwt>
<pdfrwt beam="1">  1       21 0.26692686E-01 0.24606818E+03</pdfrwt>
<pdfrwt beam="2">  1       -1 0.50800885E-01 0.24606818E+03</pdfrwt>
<totfact> 0.48759786E+03</totfact>
</mgrwt>
</event>
<event>
 4    0  0.1426692E-001  0.2964593E+03  0.7546771E-02  0.1087024E+00
         21   -1    0    0  501  502  0.00000000000E+00  0.00000000000E+00  0.27213270021E+03  0.27213270021E+03  0.00000000000E+00 0. -1.
          1   -1    0    0  502    0 -0.00000000000E+00 -0.00000000000E+00 -0.30010021643E+03  0.30010021643E+03  0.00000000000E+00 0. -1.
         25    1    1    2    0    0 -0.71074551457E+02  0.25925186196E+03  0.27567774954E+02  0.29773831129E+03  0.12500000000E+03 0.  0.
          1    1    1    2  501    0  0.71074551457E+02 -0.25925186196E+03 -0.55535291176E+02  0.27449460534E+03  0.00000000000E+00 0. -1.
<mgrwt>
<rscale>  3 0.29645931E+03</rscale>
<asrwt>0</asrwt>
<pdfrwt beam="1">  1       21 0.41866569E-01 0.29645931E+03</pdfrwt>
<pdfrwt beam="2">  1        1 0.46169264E-01 0.29645931E+03</pdfrwt>
<totfact> 0.51252195E+03</totfact>
</mgrwt>
</event>
<event>
 4    0  0.1426692E-001  0.2648690E+03  0.7546771E-02  0.1104253E+00
         21   -1    0    0  501  502  0.00000000000E+00  0.00000000000E+00  0.80261395030E+02  0.80261395030E+02  0.00000000000E+00 0.  1.
          2   -1    0    0  502    0 -0.00000000000E+00 -0.00000000000E+00 -0.95214810271E+03  0.95214810271E+03  0.00000000000E+00 0.  1.
         25    1    1    2    0    0 -0.23121967878E+03 -0.32680686245E+02 -0.23510586140E+03  0.35416145072E+03  0.12500000000E+03 0.  0.
          2    1    1    2  501    0  0.23121967878E+03  0.32680686245E+02 -0.63678084628E+03  0.67824804702E+03  0.00000000000E+00 0.  1.
<mgrwt>
<rscale>  3 0.26486896E+03</rscale>
<asrwt>0</asrwt>
<pdfrwt beam="1">  1       21 0.12347907E-01 0.26486896E+03</pdfrwt>
<pdfrwt beam="2">  1        2 0.14648433E+00 0.26486896E+03</pdfrwt>
<totfact> 0.19628757E+04</totfact>
</mgrwt>
</event>
<event>
 4    0  0.1426692E-001  0.3427363E+03  0.7546771E-02  0.1065636E+00
          1   -1    0    0  502    0 -0.00000000000E+00  0.00000000000E+00  0.91889745355E+03  0.91889745355E+03  0.00000000000E+00 0.  1.
         21   -1    0    0  501  502  0.00000000000E+00 -0.00000000000E+00 -0.11939819871E+03  0.11939819871E+03  0.00000000000E+00 0.  1.
         25    1    1    2    0    0  0.52691125041E+02  0.31474876688E+03  0.39192038187E+03  0.52064356967E+03  0.12500000000E+03 0.  0.
          1    1    1    2  501    0 -0.52691125041E+02 -0.31474876688E+03  0.40757887298E+03  0.51765208259E+03  0.00000000000E+00 0.  1.
<mgrwt>
<rscale>  3 0.34273626E+03</rscale>
<asrwt>0</asrwt>
<pdfrwt beam="1">  1       21 0.18368954E-01 0.34273626E+03</pdfrwt>
<pdfrwt beam="2">  1        1 0.14136883E+00 0.34273626E+03</pdfrwt>
<totfact> 0.53686106E+03</totfact>
</mgrwt>
</event>
<event>
 4    0  0.1426692E-001  0.2988595E+03  0.7546771E-02  0.1085812E+00
         21   -1    0    0  501  502  0.00000000000E+00  0.00000000000E+00  0.87635572569E+03  0.87635572569E+03  0.00000000000E+00 0.  1.
          2   -1    0    0  502    0 -0.00000000000E+00 -0.00000000000E+00 -0.16357689853E+03  0.16357689853E+03  0.00000000000E+00 0.  1.
         25    1    1    2    0    0 -0.20081552438E+03 -0.18266129154E+03  0.24273455650E+02  0.29984366412E+03  0.12500000000E+03 0.  0.
          2    1    1    2  501    0  0.20081552438E+03  0.18266129154E+03  0.68850537152E+03  0.74008896010E+03  0.00000000000E+00 0.  1.
<mgrwt>
<rscale>  3 0.29885954E+03</rscale>
<asrwt>0</asrwt>
<pdfrwt beam="1">  1       21 0.13482395E+00 0.29885954E+03</pdfrwt>
<pdfrwt beam="2">  1        2 0.25165677E-01 0.29885954E+03</pdfrwt>
<totfact> 0.98550049E+02</totfact>
</mgrwt>
</event>
<event>
 4    0  0.1426692E-001  0.2565730E+03  0.7546771E-02  0.1109220E+00
          1   -1    0    0  502    0 -0.00000000000E+00  0.00000000000E+00  0.10122871013E+04  0.10122871013E+04  0.00000000000E+00 0. -1.
         21   -1    0    0  501  502  0.00000000000E+00 -0.00000000000E+00 -0.10085151434E+03  0.10085151434E+03  0.00000000000E+00 0.  1.
         25    1    1    2    0    0 -0.22406396328E+03  0.14827317436E+00  0.10684356999E+03  0.27793026117E+03  0.12500000000E+03 0.  0.
          1    1    1    2  501    0  0.22406396328E+03 -0.14827317436E+00  0.80459201699E+03  0.83520835450E+03  0.00000000000E+00 0. -1.
<mgrwt>
<rscale>  3 0.25657296E+03</rscale>
<asrwt>0</asrwt>
<pdfrwt beam="1">  1       21 0.15515618E-01 0.25657296E+03</pdfrwt>
<pdfrwt beam="2">  1        1 0.15573647E+00 0.25657296E+03</pdfrwt>
<totfact> 0.63624191E+03</totfact>
</mgrwt>
</event>
<event>
 4    0  0.1426692E-001  0.2674384E+03  0.7546771E-02  0.1102755E+00
          2   -1    0    0  502    0 -0.00000000000E+00  0.00000000000E+00  0.55760948519E+03  0.55760948519E+03  0.00000000000E+00 0. -1.
         21   -1    0    0  501  502  0.00000000000E+00 -0.00000000000E+00 -0.55376233312E+03  0.55376233312E+03  0.00000000000E+00 0. -1.
         25    1    1    2    0    0 -0.11683305968E+03  0.20554395823E+03 -0.49315278672E+03  0.56100174122E+03  0.12500000000E+03 0.  0.
          2    1    1    2  501    0  0.11683305968E+03 -0.20554395823E+03  0.49699993880E+03  0.55037007709E+03  0.00000000000E+00 0. -1.
<mgrwt>
<rscale>  3 0.26743837E+03</rscale>
<asrwt>0</asrwt>
<pdfrwt beam="1">  1       21 0.85194205E-01 0.26743837E+03</pdfrwt>
<pdfrwt beam="2">  1        2 0.85786075E-01 0.26743837E+03</pdfrwt>
<totfact> 0.79181972E+02</totfact>
</mgrwt>
</event>
<event>
 4    0  0.1426692E-001  0.3403110E+03  0.7546771E-02  0.1066664E+00
          2   -1    0    0  502    0 -0.00000000000E+00  0.00000000000E+00  0.10323916722E+04  0.10323916722E+04  0.00000000000E+00 0.  1.
         21   -1    0    0  501  502  0.00000000000E+00 -0.00000000000E+00 -0.10456621657E+03  0.10456621657E+03  0.00000000000E+00 0.  1.
         25    1    1    2    0    0 -0.40196130483E+02  0.31395995700E+03  0.49761223840E+03  0.60285116182E+03  0.12500000000E+03 0.  0.
          2    1    1    2  501    0  0.40196130483E+02 -0.31395995700E+03  0.43021321725E+03  0.53410672698E+03  0.00000000000E+00 0.  1.
<mgrwt>
<rscale>  3 0.34031101E+03</rscale>
<asrwt>0</asrwt>
<pdfrwt beam="1">  1       21 0.16087111E-01 0.34031101E+03</pdfrwt>
<pdfrwt beam="2">  1        2 0.15882948E+00 0.34031101E+03</pdfrwt>
<totfact> 0.10637781E+04</totfact>
</mgrwt>
</event>
<event>
 4    0  0.1426692E-001  0.2564697E+03  0.7546771E-02  0.1109283E+00
          2   -1    0    0  502    0 -0.00000000000E+00  0.00000000000E+00  0.86838923751E+03  0.86838923751E+03  0.00000000000E+00 0.  1.
         21   -1    0    0  501  502  0.00000000000E+00 -0.00000000000E+00 -0.12556348492E+03  0.12556348492E+03  0.00000000000E+00 0.  1.
         25    1    1    2    0    0  0.15470980760E+03 -0.16191539144E+03  0.44122330500E+02  0.26023738894E+03  0.12500000000E+03 0.  0.
          2    1    1    2  501    0 -0.15470980760E+03  0.16191539144E+03  0.69870342209E+03  0.73371533349E+03  0.00000000000E+00 0.  1.
<mgrwt>
<rscale>  3 0.25646972E+03</rscale>
<asrwt>0</asrwt>
<pdfrwt beam="1">  1       21 0.19317460E-01 0.25646972E+03</pdfrwt>
<pdfrwt beam="2">  1        2 0.13359834E+00 0.25646972E+03</pdfrwt>
<totfact> 0.97781436E+03</totfact>
</mgrwt>
</event>
<event>
 4    0  0.1426692E-001  0.2535935E+03  0.7546771E-02  0.1111055E+00
         21   -1    0    0  501  502  0.00000000000E+00  0.00000000000E+00  0.12298185295E+03  0.12298185295E+03  0.00000000000E+00 0.  1.
          2   -1    0    0  502    0 -0.00000000000E+00 -0.00000000000E+00 -0.80338065373E+03  0.80338065373E+03  0.00000000000E+00 0.  1.
         25    1    1    2    0    0 -0.54743179879E+02  0.21374720791E+03 -0.50014504598E+02  0.25847850066E+03  0.12500000000E+03 0.  0.
          2    1    1    2  501    0  0.54743179879E+02 -0.21374720791E+03 -0.63038429618E+03  0.66788400603E+03  0.00000000000E+00 0.  1.
<mgrwt>
<rscale>  3 0.25359354E+03</rscale>
<asrwt>0</asrwt>
<pdfrwt beam="1">  1       21 0.18920285E-01 0.25359354E+03</pdfrwt>
<pdfrwt beam="2">  1        2 0.12359703E+00 0.25359354E+03</pdfrwt>
<totfact> 0.11254212E+04</totfact>
</mgrwt>
</event>
<event>
 4    0  0.1426692E-001  0.3506360E+03  0.7546771E-02  0.1062354E+00
         -1   -1    0    0    0  501 -0.00000000000E+00  0.00000000000E+00  0.38745770357E+03  0.38745770357E+03  0.00000000000E+00 0.  1.
         21   -1    0    0  501  502  0.00000000000E+00 -0.00000000000E+00 -0.33120517493E+03  0.33120517493E+03  0.00000000000E+00 0.  1.
         25    1    1    2    0    0  0.18178824057E+03  0.27253191723E+03 -0.86758089305E+02  0.36120987857E+03  0.12500000000E+03 0.  0.
         -1    1    1    2    0  502 -0.18178824057E+03 -0.27253191723E+03  0.14301061795E+03  0.35745299993E+03  0.00000000000E+00 0.  1.
<mgrwt>
<rscale>  3 0.35063601E+03</rscale>
<asrwt>0</asrwt>
<pdfrwt beam="1">  1       21 0.50954642E-01 0.35063601E+03</pdfrwt>
<pdfrwt beam="2">  1       -1 0.59608877E-01 0.35063601E+03</pdfrwt>
<totfact> 0.95214536E+02</totfact>
</mgrwt>
</event>
<event>
 4    0  0.1426692E-001  0.7537874E+03  0.7546771E-02  0.9629427E-01
          2   -1    0    0  502    0 -0.00000000000E+00  0.00000000000E+00  0.27788968739E+04  0.27788968739E+04  0.00000000000E+00 0.  1.
         21   -1    0    0  501  502  0.00000000000E+00 -0.00000000000E+00 -0.22825325229E+03  0.22825325229E+03  0.00000000000E+00 0.  1.
         25    1    1    2    0    0  0.21981999367E+03  0.71010534260E+03  0.17965105798E+04  0.19482416920E+04  0.12500000000E+03 0.  0.
          2    1    1    2  501    0 -0.21981999367E+03 -0.71010534260E+03  0.75413304185E+03  0.10589084342E+04  0.00000000000E+00 0.  1.
<mgrwt>
<rscale>  3 0.75378739E+03</rscale>
<asrwt>0</asrwt>
<pdfrwt beam="1">  1       21 0.35115887E-01 0.75378739E+03</pdfrwt>
<pdfrwt beam="2">  1        2 0.42752257E+00 0.75378739E+03</pdfrwt>
<totfact> 0.22621465E+02</totfact>
</mgrwt>
</event>
<event>
 4    0  0.1426692E-001  0.2610855E+03  0.7546771E-02  0.1106493E+00
          2   -1    0    0  502    0 -0.00000000000E+00  0.00000000000E+00  0.84423409482E+03  0.84423409482E+03  0.00000000000E+00 0. -1.
         21   -1    0    0  501  502  0.00000000000E+00 -0.00000000000E+00 -0.44087154750E+03  0.44087154750E+03  0.00000000000E+00 0. -1.
         25    1    1    2    0    0 -0.22688634524E+03 -0.32607360988E+02 -0.38439491346E+03  0.46467741837E+03  0.12500000000E+03 0.  0.
          2    1    1    2  501    0  0.22688634524E+03  0.32607360988E+02  0.78775746078E+03  0.82042822395E+03  0.00000000000E+00 0. -1.
<mgrwt>
<rscale>  3 0.26108553E+03</rscale>
<asrwt>0</asrwt>
<pdfrwt beam="1">  1       21 0.67826392E-01 0.26108553E+03</pdfrwt>
<pdfrwt beam="2">  1        2 0.12988217E+00 0.26108553E+03</pdfrwt>
<totfact> 0.80230720E+02</totfact>
</mgrwt>
</event>
<event>
 4    0  0.1426692E-001  0.2533848E+03  0.7546771E-02  0.1111184E+00
         21   -1    0    0  501  502  0.00000000000E+00  0.00000000000E+00  0.59027582489E+03  0.59027582489E+03  0.00000000000E+00 0.  1.
          2   -1    0    0  502    0 -0.00000000000E+00 -0.00000000000E+00 -0.42052279436E+03  0.42052279436E+03  0.00000000000E+00 0.  1.
         25    1    1    2    0    0 -0.17409003940E+03 -0.13517214351E+03  0.53058114961E+03  0.58797976711E+03  0.12500000000E+03 0.  0.
          2    1    1    2  501    0  0.17409003940E+03  0.13517214351E+03 -0.36082811908E+03  0.42281885214E+03  0.00000000000E+00 0.  1.
<mgrwt>
<rscale>  3 0.25338479E+03</rscale>
<asrwt>0</asrwt>
<pdfrwt beam="1">  1       21 0.90811666E-01 0.25338479E+03</pdfrwt>
<pdfrwt beam="2">  1        2 0.64695814E-01 0.25338479E+03</pdfrwt>
<totfact> 0.94186985E+02</totfact>
</mgrwt>
</event>
<event>
 4    0  0.1426692E-001  0.2430853E+03  0.7546771E-02  0.1117754E+00
          2   -1    0    0  502    0 -0.00000000000E+00  0.00000000000E+00  0.34593559947E+03  0.34593559947E+03  0.00000000000E+00 0.  1.
         21   -1    0    0  501  502  0.00000000000E+00 -0.00000000000E+00 -0.14956955388E+03  0.14956955388E+03  0.00000000000E+00 0.  1.
         25    1    1    2    0    0  0.20844781135E+03  0.38700113142E+01  0.13558978032E+03  0.27834341301E+03  0.12500000000E+03 0.  0.
          2    1    1    2  501    0 -0.20844781135E+03 -0.38700113142E+01  0.60776265272E+02  0.21716174033E+03  0.00000000000E+00 0.  1.
<mgrwt>
<rscale>  3 0.24308531E+03</rscale>
<asrwt>0</asrwt>
<pdfrwt beam="1">  1       21 0.23010701E-01 0.24308531E+03</pdfrwt>
<pdfrwt beam="2">  1        2 0.53220861E-01 0.24308531E+03</pdfrwt>
<totfact> 0.20500268E+04</totfact>
</mgrwt>
</event>
<event>
 4    0  0.1426692E-001  0.2538488E+03  0.7546771E-02  0.1110896E+00
          2   -1    0    0  502    0 -0.00000000000E+00  0.00000000000E+00  0.12869692695E+04  0.12869692695E+04  0.00000000000E+00 0.  1.
         21   -1    0    0  501  502  0.00000000000E+00 -0.00000000000E+00 -0.90867470437E+02  0.90867470437E+02  0.00000000000E+00 0. -1.
         25    1    1    2    0    0 -0.20235678316E+03  0.88690208563E+02  0.12272756026E+03  0.28195970427E+03  0.12500000000E+03 0.  0.
          2    1    1    2  501    0  0.20235678316E+03 -0.88690208563E+02  0.10733742388E+04  0.10958770357E+04  0.00000000000E+00 0.  1.
<mgrwt>
<rscale>  3 0.25384881E+03</rscale>
<asrwt>0</asrwt>
<pdfrwt beam="1">  1       21 0.13979612E-01 0.25384881E+03</pdfrwt>
<pdfrwt beam="2">  1        2 0.19799526E+00 0.25384881E+03</pdfrwt>
<totfact> 0.99931394E+03</totfact>
</mgrwt>
</event>
<event>
 4    0  0.1426692E-001  0.4260934E+03  0.7546771E-02  0.1035101E+00
         21   -1    0    0  501  502  0.00000000000E+00  0.00000000000E+00  0.10544990568E+03  0.10544990568E+03  0.00000000000E+00 0.  1.
          1   -1    0    0  502    0 -0.00000000000E+00 -0.00000000000E+00 -0.17431626072E+04  0.17431626072E+04  0.00000000000E+00 0.  1.
         25    1    1    2    0    0 -0.84262825464E+01  0.40725858663E+03 -0.61899197260E+03  0.75146964061E+03  0.12500000000E+03 0.  0.
          1    1    1    2  501    0  0.84262825464E+01 -0.40725858663E+03 -0.10187207289E+04  0.10971428722E+04  0.00000000000E+00 0.  1.
<mgrwt>
<rscale>  3 0.42609337E+03</rscale>
<asrwt>0</asrwt>
<pdfrwt beam="1">  1       21 0.16223063E-01 0.42609337E+03</pdfrwt>
<pdfrwt beam="2">  1        1 0.26817886E+00 0.42609337E+03</pdfrwt>
<totfact> 0.17587577E+03</totfact>
</mgrwt>
</event>
<event>
 4    0  0.1426692E-001  0.2828267E+03  0.7546771E-02  0.1094155E+00
         21   -1    0    0  501  502  0.00000000000E+00  0.00000000000E+00  0.84940821759E+03  0.84940821759E+03  0.00000000000E+00 0. -1.
          4   -1    0    0  502    0 -0.00000000000E+00 -0.00000000000E+00 -0.11715055353E+03  0.11715055353E+03  0.00000000000E+00 0.  1.
         25    1    1    2    0    0 -0.25353211787E+03 -0.93483400553E+01  0.63448418314E+03  0.69466618236E+03  0.12500000000E+03 0.  0.
          4    1    1    2  501    0  0.25353211787E+03  0.93483400553E+01  0.97773480915E+02  0.27189258876E+03  0.00000000000E+00 0.  1.
<mgrwt>
<rscale>  3 0.28282667E+03</rscale>
<asrwt>0</asrwt>
<pdfrwt beam="1">  1       21 0.13067818E+00 0.28282667E+03</pdfrwt>
<pdfrwt beam="2">  1        4 0.18023163E-01 0.28282667E+03</pdfrwt>
<totfact> 0.48114709E+02</totfact>
</mgrwt>
</event>
<event>
 4    0  0.1426692E-001  0.2921984E+03  0.7546771E-02  0.1089207E+00
         -2   -1    0    0    0  501 -0.00000000000E+00  0.00000000000E+00  0.82736204895E+03  0.82736204895E+03  0.00000000000E+00 0.  1.
         21   -1    0    0  501  502  0.00000000000E+00 -0.00000000000E+00 -0.10595294219E+03  0.10595294219E+03  0.00000000000E+00 0.  1.
         25    1    1    2    0    0 -0.30753538867E+01  0.26409360184E+03  0.21706509610E+03  0.36400157181E+03  0.12500000000E+03 0.  0.
         -2    1    1    2    0  502  0.30753538867E+01 -0.26409360184E+03  0.50434401067E+03  0.56931341933E+03  0.00000000000E+00 0.  1.
<mgrwt>
<rscale>  3 0.29219837E+03</rscale>
<asrwt>0</asrwt>
<pdfrwt beam="1">  1       21 0.16300453E-01 0.29219837E+03</pdfrwt>
<pdfrwt beam="2">  1       -2 0.12728646E+00 0.29219837E+03</pdfrwt>
<totfact> 0.13059383E+03</totfact>
</mgrwt>
</event>
<event>
 4    0  0.1426692E-001  0.2383593E+03  0.7546771E-02  0.1120891E+00
          2   -1    0    0  502    0 -0.00000000000E+00  0.00000000000E+00  0.11335346500E+04  0.11335346500E+04  0.00000000000E+00 0.  1.
         21   -1    0    0  501  502  0.00000000000E+00 -0.00000000000E+00 -0.28776285880E+03  0.28776285880E+03  0.00000000000E+00 0. -1.
         25    1    1    2    0    0  0.18694654738E+03  0.79000855047E+02 -0.22720316615E+03  0.32929686513E+03  0.12500000000E+03 0.  0.
          2    1    1    2  501    0 -0.18694654738E+03 -0.79000855047E+02  0.10729749574E+04  0.10920006437E+04  0.00000000000E+00 0.  1.
<mgrwt>
<rscale>  3 0.23835928E+03</rscale>
<asrwt>0</asrwt>
<pdfrwt beam="1">  1       21 0.44271209E-01 0.23835928E+03</pdfrwt>
<pdfrwt beam="2">  1        2 0.17438994E+00 0.23835928E+03</pdfrwt>
<totfact> 0.13322491E+03</totfact>
</mgrwt>
</event>
<event>
 4    0  0.1426692E-001  0.2651442E+03  0.7546771E-02  0.1104091E+00
          1   -1    0    0  502    0 -0.00000000000E+00  0.00000000000E+00  0.30972019795E+03  0.30972019795E+03  0.00000000000E+00 0. -1.
         21   -1    0    0  501  502  0.00000000000E+00 -0.00000000000E+00 -0.40946163253E+03  0.40946163253E+03  0.00000000000E+00 0.  1.
         25    1    1    2    0    0  0.17706567219E+03  0.15272265822E+03 -0.30775395242E+03  0.40621910078E+03  0.12500000000E+03 0.  0.
          1    1    1    2  501    0 -0.17706567219E+03 -0.15272265822E+03  0.20801251784E+03  0.31296272970E+03  0.00000000000E+00 0. -1.
<mgrwt>
<rscale>  3 0.26514423E+03</rscale>
<asrwt>0</asrwt>
<pdfrwt beam="1">  1       21 0.62994097E-01 0.26514423E+03</pdfrwt>
<pdfrwt beam="2">  1        1 0.47649261E-01 0.26514423E+03</pdfrwt>
<totfact> 0.20919361E+03</totfact>
</mgrwt>
</event>
<event>
 4    0  0.1426692E-001  0.2498302E+03  0.7546771E-02  0.1113412E+00
          1   -1    0    0  502    0 -0.00000000000E+00  0.00000000000E+00  0.11137143195E+04  0.11137143195E+04  0.00000000000E+00 0.  1.
         21   -1    0    0  501  502  0.00000000000E+00 -0.00000000000E+00 -0.48793071796E+02  0.48793071796E+02  0.00000000000E+00 0.  1.
         25    1    1    2    0    0  0.11281648804E+02 -0.21601591022E+03  0.55967199056E+03  0.61290120418E+03  0.12500000000E+03 0.  0.
          1    1    1    2  501    0 -0.11281648804E+02  0.21601591022E+03  0.50524925712E+03  0.54960618709E+03  0.00000000000E+00 0.  1.
<mgrwt>
<rscale>  3 0.24983024E+03</rscale>
<asrwt>0</asrwt>
<pdfrwt beam="1">  1       21 0.75066272E-02 0.24983024E+03</pdfrwt>
<pdfrwt beam="2">  1        1 0.17134065E+00 0.24983024E+03</pdfrwt>
<totfact> 0.19682251E+04</totfact>
</mgrwt>
</event>
<event>
 4    0  0.1426692E-001  0.2798000E+03  0.7546771E-02  0.1095798E+00
         -1   -1    0    0    0  501 -0.00000000000E+00  0.00000000000E+00  0.18976664356E+04  0.18976664356E+04  0.00000000000E+00 0.  1.
         21   -1    0    0  501  502  0.00000000000E+00 -0.00000000000E+00 -0.11214172520E+03  0.11214172520E+03  0.00000000000E+00 0. -1.
         25    1    1    2    0    0 -0.23069320593E+03  0.97178625174E+02  0.87111946657E+02  0.29304697866E+03  0.12500000000E+03 0.  0.
         -1    1    1    2    0  502  0.23069320593E+03 -0.97178625174E+02  0.16984127638E+04  0.17167611822E+04  0.00000000000E+00 0.  1.
<mgrwt>
<rscale>  3 0.27980000E+03</rscale>
<asrwt>0</asrwt>
<pdfrwt beam="1">  1       21 0.17252574E-01 0.27980000E+03</pdfrwt>
<pdfrwt beam="2">  1       -1 0.29194866E+00 0.27980000E+03</pdfrwt>
<totfact> 0.12086298E+02</totfact>
</mgrwt>
</event>
<event>
 4    0  0.1426692E-001  0.2608233E+03  0.7546771E-02  0.1106650E+00
         21   -1    0    0  501  502  0.00000000000E+00  0.00000000000E+00  0.16613304386E+03  0.16613304386E+03  0.00000000000E+00 0.  1.
          1   -1    0    0  502    0 -0.00000000000E+00 -0.00000000000E+00 -0.43244553338E+03  0.43244553338E+03  0.00000000000E+00 0. -1.
         25    1    1    2    0    0 -0.17831181292E+03  0.14355725861E+03 -0.18899090889E+02  0.26150710270E+03  0.12500000000E+03 0.  0.
          1    1    1    2  501    0  0.17831181292E+03 -0.14355725861E+03 -0.24741339863E+03  0.33707147454E+03  0.00000000000E+00 0. -1.
<mgrwt>
<rscale>  3 0.26082329E+03</rscale>
<asrwt>0</asrwt>
<pdfrwt beam="1">  1       21 0.25558930E-01 0.26082329E+03</pdfrwt>
<pdfrwt beam="2">  1        1 0.66530082E-01 0.26082329E+03</pdfrwt>
<totfact> 0.86238158E+03</totfact>
</mgrwt>
</event>
<event>
 4    0  0.1426692E-001  0.4375855E+03  0.7546771E-02  0.1031490E+00
         21   -1    0    0  501  502  0.00000000000E+00  0.00000000000E+00  0.15303479651E+03  0.15303479651E+03  0.00000000000E+00 0.  1.
          2   -1    0    0  502    0 -0.00000000000E+00 -0.00000000000E+00 -0.16157850705E+04  0.16157850705E+04  0.00000000000E+00 0.  1.
         25    1    1    2    0    0 -0.50315037675E+02 -0.41632251641E+03 -0.29416766358E+03  0.52727189853E+03  0.12500000000E+03 0.  0.
          2    1    1    2  501    0  0.50315037675E+02  0.41632251641E+03 -0.11685826104E+04  0.12415479685E+04  0.00000000000E+00 0.  1.
<mgrwt>
<rscale>  3 0.43758547E+03</rscale>
<asrwt>0</asrwt>
<pdfrwt beam="1">  1       21 0.23543815E-01 0.43758547E+03</pdfrwt>
<pdfrwt beam="2">  1        2 0.24858232E+00 0.43758547E+03</pdfrwt>
<totfact> 0.23699006E+03</totfact>
</mgrwt>
</event>
<event>
 4    0  0.1426692E-001  0.2570264E+03  0.7546771E-02  0.1108943E+00
          2   -1    0    0  502    0 -0.00000000000E+00  0.00000000000E+00  0.10434972780E+04  0.10434972780E+04  0.00000000000E+00 0.  1.
         21   -1    0    0  501  502  0.00000000000E+00 -0.00000000000E+00 -0.11230325066E+03  0.11230325066E+03  0.00000000000E+00 0.  1.
         25    1    1    2    0    0 -0.11270734375E+03  0.19425401449E+03  0.70829393056E+02  0.26660714619E+03  0.12500000000E+03 0.  0.
          2    1    1    2  501    0  0.11270734375E+03 -0.19425401449E+03  0.86036463427E+03  0.88919338245E+03  0.00000000000E+00 0.  1.
<mgrwt>
<rscale>  3 0.25702639E+03</rscale>
<asrwt>0</asrwt>
<pdfrwt beam="1">  1       21 0.17277424E-01 0.25702639E+03</pdfrwt>
<pdfrwt beam="2">  1        2 0.16053804E+00 0.25702639E+03</pdfrwt>
<totfact> 0.93431797E+03</totfact>
</mgrwt>
</event>
<event>
 4    0  0.1426692E-001  0.3741966E+03  0.7546771E-02  0.1053100E+00
         -2   -1    0    0    0  501 -0.00000000000E+00  0.00000000000E+00  0.65526372527E+03  0.65526372527E+03  0.00000000000E+00 0. -1.
         21   -1    0    0  501  502  0.00000000000E+00 -0.00000000000E+00 -0.47657465509E+03  0.47657465509E+03  0.00000000000E+00 0. -1.
         25    1    1    2    0    0  0.13709774861E+03  0.32496509046E+03 -0.33933378034E+03  0.50514405586E+03  0.12500000000E+03 0.  0.
         -2    1    1    2    0  502 -0.13709774861E+03 -0.32496509046E+03  0.51802285052E+03  0.62669432449E+03  0.00000000000E+00 0. -1.
<mgrwt>
<rscale>  3 0.37419661E+03</rscale>
<asrwt>0</asrwt>
<pdfrwt beam="1">  1       21 0.73319178E-01 0.37419661E+03</pdfrwt>
<pdfrwt beam="2">  1       -2 0.10080980E+00 0.37419661E+03</pdfrwt>
<totfact> 0.10707637E+02</totfact>
</mgrwt>
</event>
<event>
 4    0  0.1426692E-001  0.3507125E+03  0.7546771E-02  0.1062323E+00
          1   -1    0    0  502    0 -0.00000000000E+00  0.00000000000E+00  0.95221313755E+03  0.95221313755E+03  0.00000000000E+00 0.  1.
         21   -1    0    0  501  502  0.00000000000E+00 -0.00000000000E+00 -0.18454743046E+04  0.18454743046E+04  0.00000000000E+00 0. -1.
         25    1    1    2    0    0 -0.20878605967E+03  0.25255226571E+03 -0.17998479272E+04  0.18336989466E+04  0.12500000000E+03 0.  0.
          1    1    1    2  501    0  0.20878605967E+03 -0.25255226571E+03  0.90658676023E+03  0.96398849549E+03  0.00000000000E+00 0.  1.
<mgrwt>
<rscale>  3 0.35071251E+03</rscale>
<asrwt>0</asrwt>
<pdfrwt beam="1">  1       21 0.28391912E+00 0.35071251E+03</pdfrwt>
<pdfrwt beam="2">  1        1 0.14649433E+00 0.35071251E+03</pdfrwt>
<totfact> 0.69388464E+00</totfact>
</mgrwt>
</event>
<event>
 4    0  0.1426692E-001  0.4731578E+03  0.7546771E-02  0.1021033E+00
         21   -1    0    0  501  502  0.00000000000E+00  0.00000000000E+00  0.75647262394E+02  0.75647262394E+02  0.00000000000E+00 0. -1.
          2   -1    0    0  502    0 -0.00000000000E+00 -0.00000000000E+00 -0.28818572460E+04  0.28818572460E+04  0.00000000000E+00 0. -1.
         25    1    1    2    0    0  0.36053867477E+03  0.27975915468E+03 -0.15701940667E+04  0.16399352816E+04  0.12500000000E+03 0.  0.
          2    1    1    2  501    0 -0.36053867477E+03 -0.27975915468E+03 -0.12360159169E+04  0.13175692268E+04  0.00000000000E+00 0. -1.
<mgrwt>
<rscale>  3 0.47315782E+03</rscale>
<asrwt>0</asrwt>
<pdfrwt beam="1">  1       21 0.11638039E-01 0.47315782E+03</pdfrwt>
<pdfrwt beam="2">  1        2 0.44336270E+00 0.47315782E+03</pdfrwt>
<totfact> 0.17621242E+03</totfact>
</mgrwt>
</event>
<event>
 4    0  0.1426692E-001  0.2792582E+03  0.7546771E-02  0.1096095E+00
          2   -1    0    0  502    0 -0.00000000000E+00  0.00000000000E+00  0.27791565893E+04  0.27791565893E+04  0.00000000000E+00 0.  1.
         21   -1    0    0  501  502  0.00000000000E+00 -0.00000000000E+00 -0.25283805156E+02  0.25283805156E+02  0.00000000000E+00 0.  1.
         25    1    1    2    0    0  0.20121831218E+03 -0.14788955594E+03  0.13600189694E+04  0.13883935778E+04  0.12500000000E+03 0.  0.
          2    1    1    2  501    0 -0.20121831218E+03  0.14788955594E+03  0.13938538148E+04  0.14160468166E+04  0.00000000000E+00 0.  1.
<mgrwt>
<rscale>  3 0.27925818E+03</rscale>
<asrwt>0</asrwt>
<pdfrwt beam="1">  1       21 0.38898184E-02 0.27925818E+03</pdfrwt>
<pdfrwt beam="2">  1        2 0.42756231E+00 0.27925818E+03</pdfrwt>
<totfact> 0.14596770E+04</totfact>
</mgrwt>
</event>
<event>
 4    0  0.1426692E-001  0.3408850E+03  0.7546771E-02  0.1066420E+00
          2   -1    0    0  502    0 -0.00000000000E+00  0.00000000000E+00  0.72620646418E+03  0.72620646418E+03  0.00000000000E+00 0. -1.
         21   -1    0    0  501  502  0.00000000000E+00 -0.00000000000E+00 -0.27451825380E+03  0.27451825380E+03  0.00000000000E+00 0. -1.
         25    1    1    2    0    0  0.31655076823E+03 -0.19317363806E+02 -0.10786807774E+03  0.35754450297E+03  0.12500000000E+03 0.  0.
          2    1    1    2  501    0 -0.31655076823E+03  0.19317363806E+02  0.55955628812E+03  0.64318021502E+03  0.00000000000E+00 0. -1.
<mgrwt>
<rscale>  3 0.34088495E+03</rscale>
<asrwt>0</asrwt>
<pdfrwt beam="1">  1       21 0.42233578E-01 0.34088495E+03</pdfrwt>
<pdfrwt beam="2">  1        2 0.11172407E+00 0.34088495E+03</pdfrwt>
<totfact> 0.25967257E+03</totfact>
</mgrwt>
</event>
<event>
 4    0  0.1426692E-001  0.2933420E+03  0.7546771E-02  0.1088617E+00
          2   -1    0    0  502    0 -0.00000000000E+00  0.00000000000E+00  0.18534223550E+03  0.18534223550E+03  0.00000000000E+00 0. -1.
         21   -1    0    0  501  502  0.00000000000E+00 -0.00000000000E+00 -0.77028688131E+03  0.77028688131E+03  0.00000000000E+00 0. -1.
         25    1    1    2    0    0 -0.26202703538E+03 -0.42028265687E+02 -0.62197761573E+03  0.68768139197E+03  0.12500000000E+03 0.  0.
          2    1    1    2  501    0  0.26202703538E+03  0.42028265687E+02  0.37032969926E+02  0.26794772484E+03  0.00000000000E+00 0. -1.
<mgrwt>
<rscale>  3 0.29334202E+03</rscale>
<asrwt>0</asrwt>
<pdfrwt beam="1">  1       21 0.11850567E+00 0.29334202E+03</pdfrwt>
<pdfrwt beam="2">  1        2 0.28514190E-01 0.29334202E+03</pdfrwt>
<totfact> 0.11921947E+03</totfact>
</mgrwt>
</event>
<event>
 4    0  0.1426692E-001  0.3656326E+03  0.7546771E-02  0.1056376E+00
          2   -1    0    0  502    0 -0.00000000000E+00  0.00000000000E+00  0.10254881635E+04  0.10254881635E+04  0.00000000000E+00 0. -1.
         21   -1    0    0  501  502  0.00000000000E+00 -0.00000000000E+00 -0.21168196040E+03  0.21168196040E+03  0.00000000000E+00 0.  1.
         25    1    1    2    0    0  0.32595620939E+03 -0.10869578621E+03  0.13115546545E+02  0.36586779298E+03  0.12500000000E+03 0.  0.
          2    1    1    2  501    0 -0.32595620939E+03  0.10869578621E+03  0.80069065657E+03  0.87130233093E+03  0.00000000000E+00 0. -1.
<mgrwt>
<rscale>  3 0.36563264E+03</rscale>
<asrwt>0</asrwt>
<pdfrwt beam="1">  1       21 0.32566456E-01 0.36563264E+03</pdfrwt>
<pdfrwt beam="2">  1        2 0.15776741E+00 0.36563264E+03</pdfrwt>
<totfact> 0.27557522E+03</totfact>
</mgrwt>
</event>
<event>
 4    0  0.1426692E-001  0.2905971E+03  0.7546771E-02  0.1090038E+00
         -1   -1    0    0    0  501 -0.00000000000E+00  0.00000000000E+00  0.16559266956E+04  0.16559266956E+04  0.00000000000E+00 0. -1.
         21   -1    0    0  501  502  0.00000000000E+00 -0.00000000000E+00 -0.97176146170E+02  0.97176146170E+02  0.00000000000E+00 0. -1.
         25    1    1    2    0    0 -0.18749130366E+03  0.18349027410E+03  0.16356371439E+03  0.33346627761E+03  0.12500000000E+03 0.  0.
         -1    1    1    2    0  502  0.18749130366E+03 -0.18349027410E+03  0.13951868350E+04  0.14196365641E+04  0.00000000000E+00 0. -1.
<mgrwt>
<rscale>  3 0.29059709E+03</rscale>
<asrwt>0</asrwt>
<pdfrwt beam="1">  1       21 0.14950178E-01 0.29059709E+03</pdfrwt>
<pdfrwt beam="2">  1       -1 0.25475793E+00 0.29059709E+03</pdfrwt>
<totfact> 0.26800257E+02</totfact>
</mgrwt>
</event>
<event>
 4    0  0.1426692E-001  0.2906470E+03  0.7546771E-02  0.1090012E+00
         21   -1    0    0  501  502  0.00000000000E+00  0.00000000000E+00  0.36158465588E+03  0.36158465588E+03  0.00000000000E+00 0. -1.
          2   -1    0    0  502    0 -0.00000000000E+00 -0.00000000000E+00 -0.39410819366E+03  0.39410819366E+03  0.00000000000E+00 0. -1.
         25    1    1    2    0    0 -0.52883232214E+02  0.25700975735E+03  0.24033289430E+03  0.37714128878E+03  0.12500000000E+03 0.  0.
          2    1    1    2  501    0  0.52883232214E+02 -0.25700975735E+03 -0.27285643208E+03  0.37855156075E+03  0.00000000000E+00 0. -1.
<mgrwt>
<rscale>  3 0.29064695E+03</rscale>
<asrwt>0</asrwt>
<pdfrwt beam="1">  1       21 0.55628409E-01 0.29064695E+03</pdfrwt>
<pdfrwt beam="2">  1        2 0.60632029E-01 0.29064695E+03</pdfrwt>
<totfact> 0.29840769E+03</totfact>
</mgrwt>
</event>
<event>
 4    0  0.1426692E-001  0.2466977E+03  0.7546771E-02  0.1115410E+00
         -3   -1    0    0    0  501 -0.00000000000E+00  0.00000000000E+00  0.16296317301E+03  0.16296317301E+03  0.00000000000E+00 0.  1.
         21   -1    0    0  501  502  0.00000000000E+00 -0.00000000000E+00 -0.85501558134E+03  0.85501558134E+03  0.00000000000E+00 0.  1.
         25    1    1    2    0    0 -0.12970837956E+03 -0.16855412814E+03 -0.75652868109E+03  0.79573576214E+03  0.12500000000E+03 0.  0.
         -3    1    1    2    0  502  0.12970837956E+03  0.16855412814E+03  0.64476272759E+02  0.22224299222E+03  0.00000000000E+00 0.  1.
<mgrwt>
<rscale>  3 0.24669771E+03</rscale>
<asrwt>0</asrwt>
<pdfrwt beam="1">  1       21 0.13154086E+00 0.24669771E+03</pdfrwt>
<pdfrwt beam="2">  1       -3 0.25071257E-01 0.24669771E+03</pdfrwt>
<totfact> 0.30405857E+02</totfact>
</mgrwt>
</event>
<event>
 4    0  0.1426692E-001  0.2388046E+03  0.7546771E-02  0.1120592E+00
          4   -1    0    0  502    0 -0.00000000000E+00  0.00000000000E+00  0.41170647794E+03  0.41170647794E+03  0.00000000000E+00 0.  1.
         21   -1    0    0  501  502  0.00000000000E+00 -0.00000000000E+00 -0.11914704677E+03  0.11914704677E+03  0.00000000000E+00 0.  1.
         25    1    1    2    0    0  0.19033883701E+03  0.71928826250E+02  0.14327295627E+03  0.27848656865E+03  0.12500000000E+03 0.  0.
          4    1    1    2  501    0 -0.19033883701E+03 -0.71928826250E+02  0.14928647490E+03  0.25236695606E+03  0.00000000000E+00 0.  1.
<mgrwt>
<rscale>  3 0.23880458E+03</rscale>
<asrwt>0</asrwt>
<pdfrwt beam="1">  1       21 0.18330315E-01 0.23880458E+03</pdfrwt>
<pdfrwt beam="2">  1        4 0.63339457E-01 0.23880458E+03</pdfrwt>
<totfact> 0.27143030E+03</totfact>
</mgrwt>
</event>
<event>
 4    0  0.1426692E-001  0.2372659E+03  0.7546771E-02  0.1121628E+00
         -1   -1    0    0    0  501 -0.00000000000E+00  0.00000000000E+00  0.13729449924E+04  0.13729449924E+04  0.00000000000E+00 0. -1.
         21   -1    0    0  501  502  0.00000000000E+00 -0.00000000000E+00 -0.35407016320E+02  0.35407016320E+02  0.00000000000E+00 0. -1.
         25    1    1    2    0    0  0.96218536507E+02 -0.17723457157E+03  0.65527310120E+03  0.69690597449E+03  0.12500000000E+03 0.  0.
         -1    1    1    2    0  502 -0.96218536507E+02  0.17723457157E+03  0.68226487490E+03  0.71144603425E+03  0.00000000000E+00 0. -1.
<mgrwt>
<rscale>  3 0.23726588E+03</rscale>
<asrwt>0</asrwt>
<pdfrwt beam="1">  1       21 0.54472344E-02 0.23726588E+03</pdfrwt>
<pdfrwt beam="2">  1       -1 0.21122226E+00 0.23726588E+03</pdfrwt>
<totfact> 0.30880446E+03</totfact>
</mgrwt>
</event>
<event>
 4    0  0.1426692E-001  0.3014487E+03  0.7546771E-02  0.1084519E+00
          1   -1    0    0  502    0 -0.00000000000E+00  0.00000000000E+00  0.13577221052E+04  0.13577221052E+04  0.00000000000E+00 0.  1.
         21   -1    0    0  501  502  0.00000000000E+00 -0.00000000000E+00 -0.76435592806E+02  0.76435592806E+02  0.00000000000E+00 0. -1.
         25    1    1    2    0    0  0.10611821569E+03 -0.25295305531E+03  0.34321471228E+03  0.45680155715E+03  0.12500000000E+03 0.  0.
          1    1    1    2  501    0 -0.10611821569E+03  0.25295305531E+03  0.93807180009E+03  0.97735614083E+03  0.00000000000E+00 0.  1.
<mgrwt>
<rscale>  3 0.30144871E+03</rscale>
<asrwt>0</asrwt>
<pdfrwt beam="1">  1       21 0.11759323E-01 0.30144871E+03</pdfrwt>
<pdfrwt beam="2">  1        1 0.20888031E+00 0.30144871E+03</pdfrwt>
<totfact> 0.59322014E+03</totfact>
</mgrwt>
</event>
<event>
 4    0  0.1426692E-001  0.2602862E+03  0.7546771E-02  0.1106971E+00
         21   -1    0    0  501  502  0.00000000000E+00  0.00000000000E+00  0.31350098647E+02  0.31350098647E+02  0.00000000000E+00 0.  1.
          2   -1    0    0  502    0 -0.00000000000E+00 -0.00000000000E+00 -0.30721374393E+04  0.30721374393E+04  0.00000000000E+00 0. -1.
         25    1    1    2    0    0  0.89248860943E+02 -0.21013940349E+03 -0.62634480347E+03  0.67827482698E+03  0.12500000000E+03 0.  0.
          2    1    1    2  501    0 -0.89248860943E+02  0.21013940349E+03 -0.24144425372E+04  0.24252127110E+04  0.00000000000E+00 0. -1.
<mgrwt>
<rscale>  3 0.26028624E+03</rscale>
<asrwt>0</asrwt>
<pdfrwt beam="1">  1       21 0.48230908E-02 0.26028624E+03</pdfrwt>
<pdfrwt beam="2">  1        2 0.47263666E+00 0.26028624E+03</pdfrwt>
<totfact> 0.68819428E+03</totfact>
</mgrwt>
</event>
<event>
 4    0  0.1426692E-001  0.3632017E+03  0.7546771E-02  0.1057323E+00
         21   -1    0    0  501  502  0.00000000000E+00  0.00000000000E+00  0.25266669179E+03  0.25266669179E+03  0.00000000000E+00 0.  1.
          2   -1    0    0  502    0 -0.00000000000E+00 -0.00000000000E+00 -0.51132447227E+03  0.51132447227E+03  0.00000000000E+00 0.  1.
         25    1    1    2    0    0  0.12700012777E+03 -0.31648295267E+03 -0.56530314913E+02  0.36757471117E+03  0.12500000000E+03 0.  0.
          2    1    1    2  501    0 -0.12700012777E+03  0.31648295267E+03 -0.20212746558E+03  0.39641645289E+03  0.00000000000E+00 0.  1.
<mgrwt>
<rscale>  3 0.36320172E+03</rscale>
<asrwt>0</asrwt>
<pdfrwt beam="1">  1       21 0.38871800E-01 0.36320172E+03</pdfrwt>
<pdfrwt beam="2">  1        2 0.78665302E-01 0.36320172E+03</pdfrwt>
<totfact> 0.46452257E+03</totfact>
</mgrwt>
</event>
<event>
 4    0  0.1426692E-001  0.2971798E+03  0.7546771E-02  0.1086659E+00
          4   -1    0    0  502    0 -0.00000000000E+00  0.00000000000E+00  0.20084475561E+03  0.20084475561E+03  0.00000000000E+00 0. -1.
         21   -1    0    0  501  502  0.00000000000E+00 -0.00000000000E+00 -0.72741885816E+03  0.72741885816E+03  0.00000000000E+00 0. -1.
         25    1    1    2    0    0  0.26737505339E+03  0.34661472315E+02 -0.58156945734E+03  0.65309943389E+03  0.12500000000E+03 0.  0.
          4    1    1    2  501    0 -0.26737505339E+03 -0.34661472315E+02  0.54995354795E+02  0.27516417987E+03  0.00000000000E+00 0. -1.
<mgrwt>
<rscale>  3 0.29717981E+03</rscale>
<asrwt>0</asrwt>
<pdfrwt beam="1">  1       21 0.11191059E+00 0.29717981E+03</pdfrwt>
<pdfrwt beam="2">  1        4 0.30899193E-01 0.29717981E+03</pdfrwt>
<totfact> 0.25961844E+02</totfact>
</mgrwt>
</event>
<event>
 4    0  0.1426692E-001  0.2401782E+03  0.7546771E-02  0.1119674E+00
         21   -1    0    0  501  502  0.00000000000E+00  0.00000000000E+00  0.64114917558E+03  0.64114917558E+03  0.00000000000E+00 0. -1.
          2   -1    0    0  502    0 -0.00000000000E+00 -0.00000000000E+00 -0.12533251765E+03  0.12533251765E+03  0.00000000000E+00 0. -1.
         25    1    1    2    0    0 -0.22663339011E+01 -0.20507426732E+03  0.50722448771E+03  0.56121499652E+03  0.12500000000E+03 0.  0.
          2    1    1    2  501    0  0.22663339011E+01  0.20507426732E+03  0.85921702279E+01  0.20526669671E+03  0.00000000000E+00 0. -1.
<mgrwt>
<rscale>  3 0.24017825E+03</rscale>
<asrwt>0</asrwt>
<pdfrwt beam="1">  1       21 0.98638332E-01 0.24017825E+03</pdfrwt>
<pdfrwt beam="2">  1        2 0.19281926E-01 0.24017825E+03</pdfrwt>
<totfact> 0.29540003E+03</totfact>
</mgrwt>
</event>
<event>
 4    0  0.1426692E-001  0.2958024E+03  0.7546771E-02  0.1087358E+00
          2   -1    0    0  502    0 -0.00000000000E+00  0.00000000000E+00  0.18498846700E+03  0.18498846700E+03  0.00000000000E+00 0.  1.
         21   -1    0    0  501  502  0.00000000000E+00 -0.00000000000E+00 -0.14701274426E+04  0.14701274426E+04  0.00000000000E+00 0.  1.
         25    1    1    2    0    0  0.24789848850E+03  0.10208021308E+03 -0.13477326657E+04  0.13798124397E+04  0.12500000000E+03 0.  0.
          2    1    1    2  501    0 -0.24789848850E+03 -0.10208021308E+03  0.62593690102E+02  0.27530346991E+03  0.00000000000E+00 0.  1.
<mgrwt>
<rscale>  3 0.29580235E+03</rscale>
<asrwt>0</asrwt>
<pdfrwt beam="1">  1       21 0.22617347E+00 0.29580235E+03</pdfrwt>
<pdfrwt beam="2">  1        2 0.28459763E-01 0.29580235E+03</pdfrwt>
<totfact> 0.19581190E+02</totfact>
</mgrwt>
</event>
<event>
 4    0  0.1426692E-001  0.2755330E+03  0.7546771E-02  0.1098154E+00
         -2   -1    0    0    0  501 -0.00000000000E+00  0.00000000000E+00  0.61266313722E+03  0.61266313722E+03  0.00000000000E+00 0.  1.
         21   -1    0    0  501  502  0.00000000000E+00 -0.00000000000E+00 -0.18388761785E+03  0.18388761785E+03  0.00000000000E+00 0.  1.
         25    1    1    2    0    0 -0.21496545980E+03  0.11867297048E+03 -0.29023511675E+02  0.27705737142E+03  0.12500000000E+03 0.  0.
         -2    1    1    2    0  502  0.21496545980E+03 -0.11867297048E+03  0.45779903104E+03  0.51949338365E+03  0.00000000000E+00 0.  1.
<mgrwt>
<rscale>  3 0.27553298E+03</rscale>
<asrwt>0</asrwt>
<pdfrwt beam="1">  1       21 0.28290403E-01 0.27553298E+03</pdfrwt>
<pdfrwt beam="2">  1       -2 0.94255866E-01 0.27553298E+03</pdfrwt>
<totfact> 0.94171801E+02</totfact>
</mgrwt>
</event>
<event>
 4    0  0.1426692E-001  0.3399184E+03  0.7546771E-02  0.1066831E+00
          2   -1    0    0  502    0 -0.00000000000E+00  0.00000000000E+00  0.43593583139E+04  0.43593583139E+04  0.00000000000E+00 0.  1.
         21   -1    0    0  501  502  0.00000000000E+00 -0.00000000000E+00 -0.50502299035E+02  0.50502299035E+02  0.00000000000E+00 0. -1.
         25    1    1    2    0    0  0.13721232782E+03  0.28476712815E+03  0.61651538591E+03  0.70401403484E+03  0.12500000000E+03 0.  0.
          2    1    1    2  501    0 -0.13721232782E+03 -0.28476712815E+03  0.36923406290E+04  0.37058465781E+04  0.00000000000E+00 0.  1.
<mgrwt>
<rscale>  3 0.33991843E+03</rscale>
<asrwt>0</asrwt>
<pdfrwt beam="1">  1       21 0.77695879E-02 0.33991843E+03</pdfrwt>
<pdfrwt beam="2">  1        2 0.67067021E+00 0.33991843E+03</pdfrwt>
<totfact> 0.34683479E+02</totfact>
</mgrwt>
</event>
<event>
 4    0  0.1426692E-001  0.2572540E+03  0.7546771E-02  0.1108804E+00
         21   -1    0    0  501  502  0.00000000000E+00  0.00000000000E+00  0.71143397831E+02  0.71143397831E+02  0.00000000000E+00 0.  1.
          1   -1    0    0  502    0 -0.00000000000E+00 -0.00000000000E+00 -0.12012224987E+04  0.12012224987E+04  0.00000000000E+00 0.  1.
         25    1    1    2    0    0  0.57473992153E+02 -0.21737376190E+03 -0.23149063974E+03  0.34607445503E+03  0.12500000000E+03 0.  0.
          1    1    1    2  501    0 -0.57473992153E+02  0.21737376190E+03 -0.89858846116E+03  0.92629144154E+03  0.00000000000E+00 0.  1.
<mgrwt>
<rscale>  3 0.25725398E+03</rscale>
<asrwt>0</asrwt>
<pdfrwt beam="1">  1       21 0.10945139E-01 0.25725398E+03</pdfrwt>
<pdfrwt beam="2">  1        1 0.18480345E+00 0.25725398E+03</pdfrwt>
<totfact> 0.87523372E+03</totfact>
</mgrwt>
</event>
<event>
 4    0  0.1426692E-001  0.2366727E+03  0.7546771E-02  0.1122029E+00
         21   -1    0    0  501  502  0.00000000000E+00  0.00000000000E+00  0.34706400592E+02  0.34706400592E+02  0.00000000000E+00 0. -1.
          2   -1    0    0  502    0 -0.00000000000E+00 -0.00000000000E+00 -0.17274266379E+04  0.17274266379E+04  0.00000000000E+00 0. -1.
         25    1    1    2    0    0  0.18938133968E+03 -0.67258132636E+02 -0.50722929752E+03  0.55972806655E+03  0.12500000000E+03 0.  0.
          2    1    1    2  501    0 -0.18938133968E+03  0.67258132636E+02 -0.11854909398E+04  0.12024049719E+04  0.00000000000E+00 0. -1.
<mgrwt>
<rscale>  3 0.23667266E+03</rscale>
<asrwt>0</asrwt>
<pdfrwt beam="1">  1       21 0.53394458E-02 0.23667266E+03</pdfrwt>
<pdfrwt beam="2">  1        2 0.26575797E+00 0.23667266E+03</pdfrwt>
<totfact> 0.31751178E+04</totfact>
</mgrwt>
</event>
<event>
 4    0  0.1426692E-001  0.2831814E+03  0.7546771E-02  0.1093964E+00
          3   -1    0    0  502    0 -0.00000000000E+00  0.00000000000E+00  0.21530959694E+03  0.21530959694E+03  0.00000000000E+00 0. -1.
         21   -1    0    0  501  502  0.00000000000E+00 -0.00000000000E+00 -0.61331793295E+03  0.61331793295E+03  0.00000000000E+00 0. -1.
         25    1    1    2    0    0 -0.42985723893E+02 -0.25043744341E+03 -0.48367477057E+03  0.56047566335E+03  0.12500000000E+03 0.  0.
          3    1    1    2  501    0  0.42985723893E+02  0.25043744341E+03  0.85666434562E+02  0.26815186654E+03  0.00000000000E+00 0. -1.
<mgrwt>
<rscale>  3 0.28318137E+03</rscale>
<asrwt>0</asrwt>
<pdfrwt beam="1">  1       21 0.94356605E-01 0.28318137E+03</pdfrwt>
<pdfrwt beam="2">  1        3 0.33124553E-01 0.28318137E+03</pdfrwt>
<totfact> 0.40546425E+02</totfact>
</mgrwt>
</event>
<event>
 4    0  0.1426692E-001  0.2765460E+03  0.7546771E-02  0.1097591E+00
          2   -1    0    0  502    0 -0.00000000000E+00  0.00000000000E+00  0.43117813029E+03  0.43117813029E+03  0.00000000000E+00 0. -1.
         21   -1    0    0  501  502  0.00000000000E+00 -0.00000000000E+00 -0.20780233248E+03  0.20780233248E+03  0.00000000000E+00 0. -1.
         25    1    1    2    0    0  0.69151401840E+02 -0.23679268316E+03 -0.38501522951E+02  0.27921328486E+03  0.12500000000E+03 0.  0.
          2    1    1    2  501    0 -0.69151401840E+02  0.23679268316E+03  0.26187732076E+03  0.35976717791E+03  0.00000000000E+00 0. -1.
<mgrwt>
<rscale>  3 0.27654600E+03</rscale>
<asrwt>0</asrwt>
<pdfrwt beam="1">  1       21 0.31969590E-01 0.27654600E+03</pdfrwt>
<pdfrwt beam="2">  1        2 0.66335097E-01 0.27654600E+03</pdfrwt>
<totfact> 0.84708163E+03</totfact>
</mgrwt>
</event>
<event>
 4    0  0.1426692E-001  0.2512468E+03  0.7546771E-02  0.1112519E+00
         -4   -1    0    0    0  501 -0.00000000000E+00  0.00000000000E+00  0.10504836814E+03  0.10504836814E+03  0.00000000000E+00 0. -1.
         21   -1    0    0  501  502  0.00000000000E+00 -0.00000000000E+00 -0.57076600508E+03  0.57076600508E+03  0.00000000000E+00 0. -1.
         25    1    1    2    0    0 -0.60727757878E+02 -0.20931332781E+03 -0.34462928879E+03  0.42649065226E+03  0.12500000000E+03 0.  0.
         -4    1    1    2    0  502  0.60727757878E+02  0.20931332781E+03 -0.12108834814E+03  0.24932372096E+03  0.00000000000E+00 0. -1.
<mgrwt>
<rscale>  3 0.25124675E+03</rscale>
<asrwt>0</asrwt>
<pdfrwt beam="1">  1       21 0.87810153E-01 0.25124675E+03</pdfrwt>
<pdfrwt beam="2">  1       -4 0.16161288E-01 0.25124675E+03</pdfrwt>
<totfact> 0.15441061E+03</totfact>
</mgrwt>
</event>
<event>
 4    0  0.1426692E-001  0.4485119E+03  0.7546771E-02  0.1028167E+00
          2   -1    0    0  502    0 -0.00000000000E+00  0.00000000000E+00  0.22565632495E+03  0.22565632495E+03  0.00000000000E+00 0.  1.
         21   -1    0    0  501  502  0.00000000000E+00 -0.00000000000E+00 -0.86808406462E+03  0.86808406462E+03  0.00000000000E+00 0.  1.
         25    1    1    2    0    0  0.40288326884E+03  0.15239107760E+03 -0.39081758533E+03  0.59489608660E+03  0.12500000000E+03 0.  0.
          2    1    1    2  501    0 -0.40288326884E+03 -0.15239107760E+03 -0.25161015434E+03  0.49884430297E+03  0.00000000000E+00 0.  1.
<mgrwt>
<rscale>  3 0.44851195E+03</rscale>
<asrwt>0</asrwt>
<pdfrwt beam="1">  1       21 0.13355139E+00 0.44851195E+03</pdfrwt>
<pdfrwt beam="2">  1        2 0.34716358E-01 0.44851195E+03</pdfrwt>
<totfact> 0.67453414E+02</totfact>
</mgrwt>
</event>
<event>
 4    0  0.1426692E-001  0.2603596E+03  0.7546771E-02  0.1106927E+00
         -4   -1    0    0    0  501 -0.00000000000E+00  0.00000000000E+00  0.21147269844E+03  0.21147269844E+03  0.00000000000E+00 0.  1.
         21   -1    0    0  501  502  0.00000000000E+00 -0.00000000000E+00 -0.57026215219E+03  0.57026215219E+03  0.00000000000E+00 0.  1.
         25    1    1    2    0    0 -0.22156964594E+03  0.55398602927E+02 -0.46261853925E+03  0.53085122781E+03  0.12500000000E+03 0.  0.
         -4    1    1    2    0  502  0.22156964594E+03 -0.55398602927E+02  0.10382908550E+03  0.25088362283E+03  0.00000000000E+00 0.  1.
<mgrwt>
<rscale>  3 0.26035958E+03</rscale>
<asrwt>0</asrwt>
<pdfrwt beam="1">  1       21 0.87732639E-01 0.26035958E+03</pdfrwt>
<pdfrwt beam="2">  1       -4 0.32534261E-01 0.26035958E+03</pdfrwt>
<totfact> 0.42293483E+02</totfact>
</mgrwt>
</event>
<event>
 4    0  0.1426692E-001  0.2622986E+03  0.7546771E-02  0.1105770E+00
          2   -1    0    0  502    0 -0.00000000000E+00  0.00000000000E+00  0.31955272303E+03  0.31955272303E+03  0.00000000000E+00 0. -1.
         21   -1    0    0  501  502  0.00000000000E+00 -0.00000000000E+00 -0.19012990365E+03  0.19012990365E+03  0.00000000000E+00 0.  1.
         25    1    1    2    0    0  0.22965908990E+03 -0.20790361780E+02  0.64290256540E+02  0.27006253683E+03  0.12500000000E+03 0.  0.
          2    1    1    2  501    0 -0.22965908990E+03  0.20790361780E+02  0.65132562835E+02  0.23962008984E+03  0.00000000000E+00 0. -1.
<mgrwt>
<rscale>  3 0.26229856E+03</rscale>
<asrwt>0</asrwt>
<pdfrwt beam="1">  1       21 0.29250754E-01 0.26229856E+03</pdfrwt>
<pdfrwt beam="2">  1        2 0.49161957E-01 0.26229856E+03</pdfrwt>
<totfact> 0.14021729E+04</totfact>
</mgrwt>
</event>
<event>
 4    0  0.1426692E-001  0.3395366E+03  0.7546771E-02  0.1066993E+00
          2   -1    0    0  502    0 -0.00000000000E+00  0.00000000000E+00  0.29210164513E+04  0.29210164513E+04  0.00000000000E+00 0.  1.
         21   -1    0    0  501  502  0.00000000000E+00 -0.00000000000E+00 -0.84295552463E+02  0.84295552463E+02  0.00000000000E+00 0. -1.
         25    1    1    2    0    0 -0.29758893924E+03 -0.10536096033E+03  0.31259130655E+03  0.46151753342E+03  0.12500000000E+03 0.  0.
          2    1    1    2  501    0  0.29758893924E+03  0.10536096033E+03  0.25241295923E+04  0.25437944703E+04  0.00000000000E+00 0.  1.
<mgrwt>
<rscale>  3 0.33953661E+03</rscale>
<asrwt>0</asrwt>
<pdfrwt beam="1">  1       21 0.12968549E-01 0.33953661E+03</pdfrwt>
<pdfrwt beam="2">  1        2 0.44938707E+00 0.33953661E+03</pdfrwt>
<totfact> 0.14364054E+03</totfact>
</mgrwt>
</event>
<event>
 4    0  0.1426692E-001  0.2592809E+03  0.7546771E-02  0.1107576E+00
         -2   -1    0    0    0  501 -0.00000000000E+00  0.00000000000E+00  0.72712492586E+03  0.72712492586E+03  0.00000000000E+00 0. -1.
         21   -1    0    0  501  502  0.00000000000E+00 -0.00000000000E+00 -0.21060986755E+03  0.21060986755E+03  0.00000000000E+00 0. -1.
         25    1    1    2    0    0  0.19607062598E+02  0.22631210359E+03 -0.10215480704E+03  0.27867940315E+03  0.12500000000E+03 0.  0.
         -2    1    1    2    0  502 -0.19607062598E+02 -0.22631210359E+03  0.61866986535E+03  0.65905539026E+03  0.00000000000E+00 0. -1.
<mgrwt>
<rscale>  3 0.25928094E+03</rscale>
<asrwt>0</asrwt>
<pdfrwt beam="1">  1       21 0.32401518E-01 0.25928094E+03</pdfrwt>
<pdfrwt beam="2">  1       -2 0.11186537E+00 0.25928094E+03</pdfrwt>
<totfact> 0.48470800E+02</totfact>
</mgrwt>
</event>
<event>
 4    0  0.1426692E-001  0.7450067E+03  0.7546771E-02  0.9643217E-01
         21   -1    0    0  501  502  0.00000000000E+00  0.00000000000E+00  0.11244431797E+04  0.11244431797E+04  0.00000000000E+00 0.  1.
         -2   -1    0    0    0  501 -0.00000000000E+00 -0.00000000000E+00 -0.48814893828E+03  0.48814893828E+03  0.00000000000E+00 0.  1.
         25    1    1    2    0    0  0.72658227977E+03 -0.10718286037E+03  0.36529719372E+03  0.82974515037E+03  0.12500000000E+03 0.  0.
         -2    1    1    2    0  502 -0.72658227977E+03  0.10718286037E+03  0.27099704770E+03  0.78284696761E+03  0.00000000000E+00 0.  1.
<mgrwt>
<rscale>  3 0.74500669E+03</rscale>
<asrwt>0</asrwt>
<pdfrwt beam="1">  1       21 0.17299126E+00 0.74500669E+03</pdfrwt>
<pdfrwt beam="2">  1       -2 0.75099837E-01 0.74500669E+03</pdfrwt>
<totfact> 0.21655629E+01</totfact>
</mgrwt>
</event>
<event>
 4    0  0.1426692E-001  0.2388177E+03  0.7546771E-02  0.1120583E+00
         21   -1    0    0  501  502  0.00000000000E+00  0.00000000000E+00  0.25447060080E+02  0.25447060080E+02  0.00000000000E+00 0.  1.
          2   -1    0    0  502    0 -0.00000000000E+00 -0.00000000000E+00 -0.19287842984E+04  0.19287842984E+04  0.00000000000E+00 0.  1.
         25    1    1    2    0    0 -0.20273025290E+03  0.17587550843E+02 -0.96966715567E+03  0.99864321465E+03  0.12500000000E+03 0.  0.
          2    1    1    2  501    0  0.20273025290E+03 -0.17587550843E+02 -0.93367008261E+03  0.95558814379E+03  0.00000000000E+00 0.  1.
<mgrwt>
<rscale>  3 0.23881767E+03</rscale>
<asrwt>0</asrwt>
<pdfrwt beam="1">  1       21 0.39149313E-02 0.23881767E+03</pdfrwt>
<pdfrwt beam="2">  1        2 0.29673612E+00 0.23881767E+03</pdfrwt>
<totfact> 0.42146403E+04</totfact>
</mgrwt>
</event>
<event>
 4    0  0.1426692E-001  0.2457981E+03  0.7546771E-02  0.1115989E+00
         21   -1    0    0  501  502  0.00000000000E+00  0.00000000000E+00  0.10593045530E+03  0.10593045530E+03  0.00000000000E+00 0. -1.
         -1   -1    0    0    0  501 -0.00000000000E+00 -0.00000000000E+00 -0.50244207680E+03  0.50244207680E+03  0.00000000000E+00 0. -1.
         25    1    1    2    0    0 -0.12746203404E+03 -0.16895309866E+03 -0.17311065394E+03  0.30063934901E+03  0.12500000000E+03 0.  0.
         -1    1    1    2    0  502  0.12746203404E+03  0.16895309866E+03 -0.22340096756E+03  0.30773318309E+03  0.00000000000E+00 0. -1.
<mgrwt>
<rscale>  3 0.24579813E+03</rscale>
<asrwt>0</asrwt>
<pdfrwt beam="1">  1       21 0.16296993E-01 0.24579813E+03</pdfrwt>
<pdfrwt beam="2">  1       -1 0.77298781E-01 0.24579813E+03</pdfrwt>
<totfact> 0.54580326E+03</totfact>
</mgrwt>
</event>
<event>
 4    0  0.1426692E-001  0.2420804E+03  0.7546771E-02  0.1118415E+00
         -1   -1    0    0    0  501 -0.00000000000E+00  0.00000000000E+00  0.15307003809E+03  0.15307003809E+03  0.00000000000E+00 0. -1.
         21   -1    0    0  501  502  0.00000000000E+00 -0.00000000000E+00 -0.35109744311E+03  0.35109744311E+03  0.00000000000E+00 0. -1.
         25    1    1    2    0    0  0.20615532183E+03  0.21860803419E+02 -0.16806776760E+03  0.29470270774E+03  0.12500000000E+03 0.  0.
         -1    1    1    2    0  502 -0.20615532183E+03 -0.21860803419E+02 -0.29959637415E+02  0.20946477346E+03  0.00000000000E+00 0. -1.
<mgrwt>
<rscale>  3 0.24208038E+03</rscale>
<asrwt>0</asrwt>
<pdfrwt beam="1">  1       21 0.54014991E-01 0.24208038E+03</pdfrwt>
<pdfrwt beam="2">  1       -1 0.23549237E-01 0.24208038E+03</pdfrwt>
<totfact> 0.44859877E+03</totfact>
</mgrwt>
</event>
<event>
 4    0  0.1426692E-001  0.3149775E+03  0.7546771E-02  0.1077984E+00
          4   -1    0    0  502    0 -0.00000000000E+00  0.00000000000E+00  0.59264691710E+03  0.59264691710E+03  0.00000000000E+00 0.  1.
         21   -1    0    0  501  502  0.00000000000E+00 -0.00000000000E+00 -0.15970659912E+03  0.15970659912E+03  0.00000000000E+00 0.  1.
         25    1    1    2    0    0 -0.18241371119E+03  0.22430127100E+03  0.29683223306E+03  0.43280503323E+03  0.12500000000E+03 0.  0.
          4    1    1    2  501    0  0.18241371119E+03 -0.22430127100E+03  0.13610808492E+03  0.31954848299E+03  0.00000000000E+00 0.  1.
<mgrwt>
<rscale>  3 0.31497749E+03</rscale>
<asrwt>0</asrwt>
<pdfrwt beam="1">  1       21 0.24570246E-01 0.31497749E+03</pdfrwt>
<pdfrwt beam="2">  1        4 0.91176447E-01 0.31497749E+03</pdfrwt>
<totfact> 0.69410814E+02</totfact>
</mgrwt>
</event>
<event>
 4    0  0.1426692E-001  0.2740739E+03  0.7546771E-02  0.1098970E+00
          2   -1    0    0  502    0 -0.00000000000E+00  0.00000000000E+00  0.14464857900E+04  0.14464857900E+04  0.00000000000E+00 0.  1.
         21   -1    0    0  501  502  0.00000000000E+00 -0.00000000000E+00 -0.95858225054E+02  0.95858225054E+02  0.00000000000E+00 0. -1.
         25    1    1    2    0    0  0.23660547190E+03  0.59239885023E+02  0.14070575086E+03  0.30808216702E+03  0.12500000000E+03 0.  0.
          2    1    1    2  501    0 -0.23660547190E+03 -0.59239885023E+02  0.12099218141E+04  0.12342618480E+04  0.00000000000E+00 0.  1.
<mgrwt>
<rscale>  3 0.27407392E+03</rscale>
<asrwt>0</asrwt>
<pdfrwt beam="1">  1       21 0.14747420E-01 0.27407392E+03</pdfrwt>
<pdfrwt beam="2">  1        2 0.22253626E+00 0.27407392E+03</pdfrwt>
<totfact> 0.73693478E+03</totfact>
</mgrwt>
</event>
<event>
 4    0  0.1426692E-001  0.2388639E+03  0.7546771E-02  0.1120552E+00
          1   -1    0    0  502    0 -0.00000000000E+00  0.00000000000E+00  0.27401717255E+04  0.27401717255E+04  0.00000000000E+00 0.  1.
         21   -1    0    0  501  502  0.00000000000E+00 -0.00000000000E+00 -0.18567124232E+02  0.18567124232E+02  0.00000000000E+00 0.  1.
         25    1    1    2    0    0  0.16767669814E+03 -0.11539267834E+03  0.11963763269E+04  0.12199886314E+04  0.12500000000E+03 0.  0.
          1    1    1    2  501    0 -0.16767669814E+03  0.11539267834E+03  0.15252282744E+04  0.15387502183E+04  0.00000000000E+00 0.  1.
<mgrwt>
<rscale>  3 0.23886386E+03</rscale>
<asrwt>0</asrwt>
<pdfrwt beam="1">  1       21 0.28564828E-02 0.23886386E+03</pdfrwt>
<pdfrwt beam="2">  1        1 0.42156456E+00 0.23886386E+03</pdfrwt>
<totfact> 0.85187501E+03</totfact>
</mgrwt>
</event>
<event>
 4    0  0.1426692E-001  0.2961930E+03  0.7546771E-02  0.1087159E+00
         21   -1    0    0  501  502  0.00000000000E+00  0.00000000000E+00  0.80154285146E+03  0.80154285146E+03  0.00000000000E+00 0.  1.
          1   -1    0    0  502    0 -0.00000000000E+00 -0.00000000000E+00 -0.16172119980E+03  0.16172119980E+03  0.00000000000E+00 0. -1.
         25    1    1    2    0    0 -0.73156278759E+02 -0.25836695080E+03  0.62815693510E+03  0.69448647035E+03  0.12500000000E+03 0.  0.
          1    1    1    2  501    0  0.73156278759E+02  0.25836695080E+03  0.11664716570E+02  0.26877758091E+03  0.00000000000E+00 0. -1.
<mgrwt>
<rscale>  3 0.29619305E+03</rscale>
<asrwt>0</asrwt>
<pdfrwt beam="1">  1       21 0.12331428E+00 0.29619305E+03</pdfrwt>
<pdfrwt beam="2">  1        1 0.24880185E-01 0.29619305E+03</pdfrwt>
<totfact> 0.98166546E+02</totfact>
</mgrwt>
</event>
<event>
 4    0  0.1426692E-001  0.2410452E+03  0.7546771E-02  0.1119098E+00
         21   -1    0    0  501  502  0.00000000000E+00  0.00000000000E+00  0.98091648771E+02  0.98091648771E+02  0.00000000000E+00 0.  1.
          1   -1    0    0  502    0 -0.00000000000E+00 -0.00000000000E+00 -0.13150203494E+04  0.13150203494E+04  0.00000000000E+00 0. -1.
         25    1    1    2    0    0  0.12841964319E+03  0.16120236309E+03 -0.74579036656E+02  0.25231892385E+03  0.12500000000E+03 0.  0.
          1    1    1    2  501    0 -0.12841964319E+03 -0.16120236309E+03 -0.11423496640E+04  0.11607930743E+04  0.00000000000E+00 0. -1.
<mgrwt>
<rscale>  3 0.24104524E+03</rscale>
<asrwt>0</asrwt>
<pdfrwt beam="1">  1       21 0.15091024E-01 0.24104524E+03</pdfrwt>
<pdfrwt beam="2">  1        1 0.20231081E+00 0.24104524E+03</pdfrwt>
<totfact> 0.41058206E+03</totfact>
</mgrwt>
</event>
<event>
 4    0  0.1426692E-001  0.2383719E+03  0.7546771E-02  0.1120882E+00
          2   -1    0    0  502    0 -0.00000000000E+00  0.00000000000E+00  0.91335550303E+03  0.91335550303E+03  0.00000000000E+00 0. -1.
         21   -1    0    0  501  502  0.00000000000E+00 -0.00000000000E+00 -0.54822526577E+02  0.54822526577E+02  0.00000000000E+00 0. -1.
         25    1    1    2    0    0 -0.24289250364E+02  0.20150977909E+03  0.38272432994E+03  0.45088698305E+03  0.12500000000E+03 0.  0.
          2    1    1    2  501    0  0.24289250364E+02 -0.20150977909E+03  0.47580864651E+03  0.51729104656E+03  0.00000000000E+00 0. -1.
<mgrwt>
<rscale>  3 0.23837189E+03</rscale>
<asrwt>0</asrwt>
<pdfrwt beam="1">  1       21 0.84342355E-02 0.23837189E+03</pdfrwt>
<pdfrwt beam="2">  1        2 0.14051622E+00 0.23837189E+03</pdfrwt>
<totfact> 0.41108314E+04</totfact>
</mgrwt>
</event>
<event>
 4    0  0.1426692E-001  0.2640413E+03  0.7546771E-02  0.1104739E+00
         21   -1    0    0  501  502  0.00000000000E+00  0.00000000000E+00  0.25310508483E+03  0.25310508483E+03  0.00000000000E+00 0.  1.
         -3   -1    0    0    0  501 -0.00000000000E+00 -0.00000000000E+00 -0.24426712784E+03  0.24426712784E+03  0.00000000000E+00 0.  1.
         25    1    1    2    0    0 -0.22040538105E+03  0.74258242441E+02  0.17612950865E+02  0.26462810623E+03  0.12500000000E+03 0.  0.
         -3    1    1    2    0  502  0.22040538105E+03 -0.74258242441E+02 -0.87749938801E+01  0.23274410644E+03  0.00000000000E+00 0.  1.
<mgrwt>
<rscale>  3 0.26404132E+03</rscale>
<asrwt>0</asrwt>
<pdfrwt beam="1">  1       21 0.38939244E-01 0.26404132E+03</pdfrwt>
<pdfrwt beam="2">  1       -3 0.37579558E-01 0.26404132E+03</pdfrwt>
<totfact> 0.21927724E+03</totfact>
</mgrwt>
</event>
<event>
 4    0  0.1426692E-001  0.3888683E+03  0.7546771E-02  0.1047704E+00
         21   -1    0    0  501  502  0.00000000000E+00  0.00000000000E+00  0.49188387628E+03  0.49188387628E+03  0.00000000000E+00 0. -1.
          3   -1    0    0  502    0 -0.00000000000E+00 -0.00000000000E+00 -0.58175050807E+03  0.58175050807E+03  0.00000000000E+00 0. -1.
         25    1    1    2    0    0 -0.26477028773E+03  0.25591068674E+03  0.33367420151E+03  0.51240321779E+03  0.12500000000E+03 0.  0.
          3    1    1    2  501    0  0.26477028773E+03 -0.25591068674E+03 -0.42354083329E+03  0.56123116656E+03  0.00000000000E+00 0. -1.
<mgrwt>
<rscale>  3 0.38886834E+03</rscale>
<asrwt>0</asrwt>
<pdfrwt beam="1">  1       21 0.75674443E-01 0.38886834E+03</pdfrwt>
<pdfrwt beam="2">  1        3 0.89500078E-01 0.38886834E+03</pdfrwt>
<totfact> 0.84768341E+01</totfact>
</mgrwt>
</event>
<event>
 4    0  0.1426692E-001  0.3406369E+03  0.7546771E-02  0.1066525E+00
         -3   -1    0    0    0  501 -0.00000000000E+00  0.00000000000E+00  0.16881690233E+03  0.16881690233E+03  0.00000000000E+00 0.  1.
         21   -1    0    0  501  502  0.00000000000E+00 -0.00000000000E+00 -0.93178107199E+03  0.93178107199E+03  0.00000000000E+00 0.  1.
         25    1    1    2    0    0 -0.22402394939E+03 -0.22410214380E+03 -0.69864458904E+03  0.77726299445E+03  0.12500000000E+03 0.  0.
         -3    1    1    2    0  502  0.22402394939E+03  0.22410214380E+03 -0.64319580624E+02  0.32333497987E+03  0.00000000000E+00 0.  1.
<mgrwt>
<rscale>  3 0.34063690E+03</rscale>
<asrwt>0</asrwt>
<pdfrwt beam="1">  1       21 0.14335093E+00 0.34063690E+03</pdfrwt>
<pdfrwt beam="2">  1       -3 0.25971831E-01 0.34063690E+03</pdfrwt>
<totfact> 0.22236869E+02</totfact>
</mgrwt>
</event>
<event>
 4    0  0.1426692E-001  0.3843964E+03  0.7546771E-02  0.1049321E+00
         -1   -1    0    0    0  501 -0.00000000000E+00  0.00000000000E+00  0.10233274480E+04  0.10233274480E+04  0.00000000000E+00 0. -1.
         21   -1    0    0  501  502  0.00000000000E+00 -0.00000000000E+00 -0.25599690893E+03  0.25599690893E+03  0.00000000000E+00 0. -1.
         25    1    1    2    0    0  0.24541611104E+03 -0.26815392624E+03  0.82604891050E+03  0.91110778630E+03  0.12500000000E+03 0.  0.
         -1    1    1    2    0  502 -0.24541611104E+03  0.26815392624E+03 -0.58718371467E+02  0.36821657060E+03  0.00000000000E+00 0. -1.
<mgrwt>
<rscale>  3 0.38439640E+03</rscale>
<asrwt>0</asrwt>
<pdfrwt beam="1">  1       21 0.39384140E-01 0.38439640E+03</pdfrwt>
<pdfrwt beam="2">  1       -1 0.15743499E+00 0.38439640E+03</pdfrwt>
<totfact> 0.18047046E+02</totfact>
</mgrwt>
</event>
<event>
 4    0  0.1426692E-001  0.2770344E+03  0.7546771E-02  0.1097320E+00
         21   -1    0    0  501  502  0.00000000000E+00  0.00000000000E+00  0.28575085381E+03  0.28575085381E+03  0.00000000000E+00 0. -1.
          1   -1    0    0  502    0 -0.00000000000E+00 -0.00000000000E+00 -0.14401753672E+04  0.14401753672E+04  0.00000000000E+00 0.  1.
         25    1    1    2    0    0  0.11816484154E+03 -0.21716377105E+03  0.20472677455E+03  0.34447218386E+03  0.12500000000E+03 0.  0.
          1    1    1    2  501    0 -0.11816484154E+03  0.21716377105E+03 -0.13591512880E+04  0.13814540372E+04  0.00000000000E+00 0.  1.
<mgrwt>
<rscale>  3 0.27703435E+03</rscale>
<asrwt>0</asrwt>
<pdfrwt beam="1">  1       21 0.43961671E-01 0.27703435E+03</pdfrwt>
<pdfrwt beam="2">  1        1 0.22156543E+00 0.27703435E+03</pdfrwt>
<totfact> 0.42020949E+02</totfact>
</mgrwt>
</event>
<event>
 4    0  0.1426692E-001  0.2723814E+03  0.7546771E-02  0.1099924E+00
         21   -1    0    0  501  502  0.00000000000E+00  0.00000000000E+00  0.15657897494E+03  0.15657897494E+03  0.00000000000E+00 0.  1.
          1   -1    0    0  502    0 -0.00000000000E+00 -0.00000000000E+00 -0.44808000454E+03  0.44808000454E+03  0.00000000000E+00 0.  1.
         25    1    1    2    0    0  0.19096966631E+03  0.14865140422E+03 -0.22603766058E+03  0.35395575631E+03  0.12500000000E+03 0.  0.
          1    1    1    2  501    0 -0.19096966631E+03 -0.14865140422E+03 -0.65463369018E+02  0.25070322317E+03  0.00000000000E+00 0.  1.
<mgrwt>
<rscale>  3 0.27238145E+03</rscale>
<asrwt>0</asrwt>
<pdfrwt beam="1">  1       21 0.24089073E-01 0.27238145E+03</pdfrwt>
<pdfrwt beam="2">  1        1 0.68935384E-01 0.27238145E+03</pdfrwt>
<totfact> 0.92060891E+03</totfact>
</mgrwt>
</event>
<event>
 4    0  0.1426692E-001  0.6398929E+03  0.7546771E-02  0.9825931E-01
          1   -1    0    0  502    0 -0.00000000000E+00  0.00000000000E+00  0.76561974012E+03  0.76561974012E+03  0.00000000000E+00 0.  1.
         21   -1    0    0  501  502  0.00000000000E+00 -0.00000000000E+00 -0.56399843418E+03  0.56399843418E+03  0.00000000000E+00 0.  1.
         25    1    1    2    0    0  0.59994914929E+03  0.18411672659E+03 -0.74072241928E+02  0.64416585424E+03  0.12500000000E+03 0.  0.
          1    1    1    2  501    0 -0.59994914929E+03 -0.18411672659E+03  0.27569354787E+03  0.68545232006E+03  0.00000000000E+00 0.  1.
<mgrwt>
<rscale>  3 0.63989292E+03</rscale>
<asrwt>0</asrwt>
<pdfrwt beam="1">  1       21 0.86768990E-01 0.63989292E+03</pdfrwt>
<pdfrwt beam="2">  1        1 0.11778765E+00 0.63989292E+03</pdfrwt>
<totfact> 0.26700377E+02</totfact>
</mgrwt>
</event>
<event>
 4    0  0.1426692E-001  0.2509302E+03  0.7546771E-02  0.1112718E+00
         21   -1    0    0  501  502  0.00000000000E+00  0.00000000000E+00  0.53883580582E+02  0.53883580582E+02  0.00000000000E+00 0. -1.
          1   -1    0    0  502    0 -0.00000000000E+00 -0.00000000000E+00 -0.13127442829E+04  0.13127442829E+04  0.00000000000E+00 0. -1.
         25    1    1    2    0    0 -0.17147503043E+02 -0.21690302649E+03 -0.98711178669E+03  0.10185065730E+04  0.12500000000E+03 0.  0.
          1    1    1    2  501    0  0.17147503043E+02  0.21690302649E+03 -0.27174891560E+03  0.34812129049E+03  0.00000000000E+00 0. -1.
<mgrwt>
<rscale>  3 0.25093019E+03</rscale>
<asrwt>0</asrwt>
<pdfrwt beam="1">  1       21 0.82897822E-02 0.25093019E+03</pdfrwt>
<pdfrwt beam="2">  1        1 0.20196065E+00 0.25093019E+03</pdfrwt>
<totfact> 0.12013893E+04</totfact>
</mgrwt>
</event>
<event>
 4    0  0.1426692E-001  0.2702150E+03  0.7546771E-02  0.1101157E+00
         21   -1    0    0  501  502  0.00000000000E+00  0.00000000000E+00  0.56870916419E+03  0.56870916419E+03  0.00000000000E+00 0. -1.
         -1   -1    0    0    0  501 -0.00000000000E+00 -0.00000000000E+00 -0.12460763008E+03  0.12460763008E+03  0.00000000000E+00 0.  1.
         25    1    1    2    0    0 -0.44155633677E+01 -0.23952375580E+03  0.33412255489E+03  0.42971386815E+03  0.12500000000E+03 0.  0.
         -1    1    1    2    0  502  0.44155633677E+01  0.23952375580E+03  0.10997897922E+03  0.26360292612E+03  0.00000000000E+00 0.  1.
<mgrwt>
<rscale>  3 0.27021496E+03</rscale>
<asrwt>0</asrwt>
<pdfrwt beam="1">  1       21 0.87493716E-01 0.27021496E+03</pdfrwt>
<pdfrwt beam="2">  1       -1 0.19170405E-01 0.27021496E+03</pdfrwt>
<totfact> 0.21440786E+03</totfact>
</mgrwt>
</event>
<event>
 4    0  0.1426692E-001  0.2845800E+03  0.7546771E-02  0.1093213E+00
         21   -1    0    0  501  502  0.00000000000E+00  0.00000000000E+00  0.40729091492E+03  0.40729091492E+03  0.00000000000E+00 0.  1.
          1   -1    0    0  502    0 -0.00000000000E+00 -0.00000000000E+00 -0.32808776372E+03  0.32808776372E+03  0.00000000000E+00 0.  1.
         25    1    1    2    0    0 -0.22354676169E+03  0.12404686408E+03  0.28830501858E+03  0.40509944815E+03  0.12500000000E+03 0.  0.
          1    1    1    2  501    0  0.22354676169E+03 -0.12404686408E+03 -0.20910186739E+03  0.33027923049E+03  0.00000000000E+00 0.  1.
<mgrwt>
<rscale>  3 0.28458000E+03</rscale>
<asrwt>0</asrwt>
<pdfrwt beam="1">  1       21 0.62660141E-01 0.28458000E+03</pdfrwt>
<pdfrwt beam="2">  1        1 0.50475040E-01 0.28458000E+03</pdfrwt>
<totfact> 0.19557782E+03</totfact>
</mgrwt>
</event>
<event>
 4    0  0.1426692E-001  0.2394679E+03  0.7546771E-02  0.1120148E+00
         21   -1    0    0  501  502  0.00000000000E+00  0.00000000000E+00  0.11433882186E+03  0.11433882186E+03  0.00000000000E+00 0. -1.
          2   -1    0    0  502    0 -0.00000000000E+00 -0.00000000000E+00 -0.60863059342E+03  0.60863059342E+03  0.00000000000E+00 0. -1.
         25    1    1    2    0    0 -0.74652192506E+02  0.19012345155E+03 -0.65891468021E+02  0.24836779629E+03  0.12500000000E+03 0.  0.
          2    1    1    2  501    0  0.74652192506E+02 -0.19012345155E+03 -0.42840030354E+03  0.47460161899E+03  0.00000000000E+00 0. -1.
<mgrwt>
<rscale>  3 0.23946790E+03</rscale>
<asrwt>0</asrwt>
<pdfrwt beam="1">  1       21 0.17590588E-01 0.23946790E+03</pdfrwt>
<pdfrwt beam="2">  1        2 0.93635476E-01 0.23946790E+03</pdfrwt>
<totfact> 0.18122440E+04</totfact>
</mgrwt>
</event>
<event>
 4    0  0.1426692E-001  0.2481355E+03  0.7546771E-02  0.1114489E+00
          2   -1    0    0  502    0 -0.00000000000E+00  0.00000000000E+00  0.15737413497E+04  0.15737413497E+04  0.00000000000E+00 0. -1.
         21   -1    0    0  501  502  0.00000000000E+00 -0.00000000000E+00 -0.17995832508E+03  0.17995832508E+03  0.00000000000E+00 0. -1.
         25    1    1    2    0    0  0.21311139794E+03 -0.23016058925E+02 -0.82841215382E+02  0.26159868858E+03  0.12500000000E+03 0.  0.
          2    1    1    2  501    0 -0.21311139794E+03  0.23016058925E+02  0.14766242400E+04  0.14921009862E+04  0.00000000000E+00 0. -1.
<mgrwt>
<rscale>  3 0.24813546E+03</rscale>
<asrwt>0</asrwt>
<pdfrwt beam="1">  1       21 0.27685897E-01 0.24813546E+03</pdfrwt>
<pdfrwt beam="2">  1        2 0.24211404E+00 0.24813546E+03</pdfrwt>
<totfact> 0.19414772E+03</totfact>
</mgrwt>
</event>
<event>
 4    0  0.1426692E-001  0.2559893E+03  0.7546771E-02  0.1109577E+00
         21   -1    0    0  501  502  0.00000000000E+00  0.00000000000E+00  0.15527043472E+03  0.15527043472E+03  0.00000000000E+00 0.  1.
          2   -1    0    0  502    0 -0.00000000000E+00 -0.00000000000E+00 -0.11073672019E+04  0.11073672019E+04  0.00000000000E+00 0. -1.
         25    1    1    2    0    0  0.20332394765E+03 -0.92546839683E+02  0.27896280660E+02  0.25750484985E+03  0.12500000000E+03 0.  0.
          2    1    1    2  501    0 -0.20332394765E+03  0.92546839683E+02 -0.97999304786E+03  0.10051327868E+04  0.00000000000E+00 0. -1.
<mgrwt>
<rscale>  3 0.25598935E+03</rscale>
<asrwt>0</asrwt>
<pdfrwt beam="1">  1       21 0.23887759E-01 0.25598935E+03</pdfrwt>
<pdfrwt beam="2">  1        2 0.17036419E+00 0.25598935E+03</pdfrwt>
<totfact> 0.46528849E+03</totfact>
</mgrwt>
</event>
<event>
 4    0  0.1426692E-001  0.2418251E+03  0.7546771E-02  0.1118583E+00
         21   -1    0    0  501  502  0.00000000000E+00  0.00000000000E+00  0.68142284017E+03  0.68142284017E+03  0.00000000000E+00 0. -1.
          1   -1    0    0  502    0 -0.00000000000E+00 -0.00000000000E+00 -0.14685706359E+04  0.14685706359E+04  0.00000000000E+00 0. -1.
         25    1    1    2    0    0 -0.15284824687E+03  0.13961293984E+03  0.65232765455E+03  0.69570879572E+03  0.12500000000E+03 0.  0.
          1    1    1    2  501    0  0.15284824687E+03 -0.13961293984E+03 -0.14394754503E+04  0.14542846804E+04  0.00000000000E+00 0. -1.
<mgrwt>
<rscale>  3 0.24182506E+03</rscale>
<asrwt>0</asrwt>
<pdfrwt beam="1">  1       21 0.10483428E+00 0.24182506E+03</pdfrwt>
<pdfrwt beam="2">  1        1 0.22593394E+00 0.24182506E+03</pdfrwt>
<totfact> 0.59810089E+01</totfact>
</mgrwt>
</event>
<event>
 4    0  0.1426692E-001  0.3496787E+03  0.7546771E-02  0.1062747E+00
         21   -1    0    0  501  502  0.00000000000E+00  0.00000000000E+00  0.11467362739E+04  0.11467362739E+04  0.00000000000E+00 0.  1.
          2   -1    0    0  502    0 -0.00000000000E+00 -0.00000000000E+00 -0.10600496317E+03  0.10600496317E+03  0.00000000000E+00 0.  1.
         25    1    1    2    0    0  0.14420938093E+03 -0.29300822715E+03  0.68976764024E+03  0.77333987628E+03  0.12500000000E+03 0.  0.
          2    1    1    2  501    0 -0.14420938093E+03  0.29300822715E+03  0.35096367049E+03  0.47940136079E+03  0.00000000000E+00 0.  1.
<mgrwt>
<rscale>  3 0.34967866E+03</rscale>
<asrwt>0</asrwt>
<pdfrwt beam="1">  1       21 0.17642096E+00 0.34967866E+03</pdfrwt>
<pdfrwt beam="2">  1        2 0.16308457E-01 0.34967866E+03</pdfrwt>
<totfact> 0.76957681E+02</totfact>
</mgrwt>
</event>
<event>
 4    0  0.1426692E-001  0.2836914E+03  0.7546771E-02  0.1093690E+00
          3   -1    0    0  502    0 -0.00000000000E+00  0.00000000000E+00  0.12499669739E+03  0.12499669739E+03  0.00000000000E+00 0.  1.
         21   -1    0    0  501  502  0.00000000000E+00 -0.00000000000E+00 -0.68242413227E+03  0.68242413227E+03  0.00000000000E+00 0.  1.
         25    1    1    2    0    0  0.18001680107E+03 -0.18013824565E+03 -0.44793237803E+03  0.53021151581E+03  0.12500000000E+03 0.  0.
          3    1    1    2  501    0 -0.18001680107E+03  0.18013824565E+03 -0.10949505685E+03  0.27720931385E+03  0.00000000000E+00 0.  1.
<mgrwt>
<rscale>  3 0.28369145E+03</rscale>
<asrwt>0</asrwt>
<pdfrwt beam="1">  1       21 0.10498833E+00 0.28369145E+03</pdfrwt>
<pdfrwt beam="2">  1        3 0.19230261E-01 0.28369145E+03</pdfrwt>
<totfact> 0.85276774E+02</totfact>
</mgrwt>
</event>
<event>
 4    0  0.1426692E-001  0.2979634E+03  0.7546771E-02  0.1086263E+00
          2   -1    0    0  502    0 -0.00000000000E+00  0.00000000000E+00  0.23376463983E+04  0.23376463983E+04  0.00000000000E+00 0.  1.
         21   -1    0    0  501  502  0.00000000000E+00 -0.00000000000E+00 -0.54313891155E+02  0.54313891155E+02  0.00000000000E+00 0.  1.
         25    1    1    2    0    0 -0.35178282865E+02  0.26817842475E+03  0.45599790192E+03  0.54471668383E+03  0.12500000000E+03 0.  0.
          2    1    1    2  501    0  0.35178282865E+02 -0.26817842475E+03  0.18273346053E+04  0.18472436057E+04  0.00000000000E+00 0.  1.
<mgrwt>
<rscale>  3 0.29796339E+03</rscale>
<asrwt>0</asrwt>
<pdfrwt beam="1">  1       21 0.83559851E-02 0.29796339E+03</pdfrwt>
<pdfrwt beam="2">  1        2 0.35963783E+00 0.29796339E+03</pdfrwt>
<totfact> 0.68238031E+03</totfact>
</mgrwt>
</event>
<event>
 4    0  0.1426692E-001  0.2657496E+03  0.7546771E-02  0.1103737E+00
          2   -1    0    0  502    0 -0.00000000000E+00  0.00000000000E+00  0.34508074075E+03  0.34508074075E+03  0.00000000000E+00 0.  1.
         21   -1    0    0  501  502  0.00000000000E+00 -0.00000000000E+00 -0.26915887457E+03  0.26915887457E+03  0.00000000000E+00 0. -1.
         25    1    1    2    0    0 -0.12393920668E+02 -0.23418846708E+03 -0.13566977925E+03  0.29837750649E+03  0.12500000000E+03 0.  0.
          2    1    1    2  501    0  0.12393920668E+02  0.23418846708E+03  0.21159164543E+03  0.31586210883E+03  0.00000000000E+00 0.  1.
<mgrwt>
<rscale>  3 0.26574960E+03</rscale>
<asrwt>0</asrwt>
<pdfrwt beam="1">  1       21 0.41409058E-01 0.26574960E+03</pdfrwt>
<pdfrwt beam="2">  1        2 0.53089345E-01 0.26574960E+03</pdfrwt>
<totfact> 0.64343831E+03</totfact>
</mgrwt>
</event>
<event>
 4    0  0.1426692E-001  0.2594403E+03  0.7546771E-02  0.1107480E+00
         21   -1    0    0  501  502  0.00000000000E+00  0.00000000000E+00  0.85931396005E+03  0.85931396005E+03  0.00000000000E+00 0.  1.
          1   -1    0    0  502    0 -0.00000000000E+00 -0.00000000000E+00 -0.71584674113E+02  0.71584674113E+02  0.00000000000E+00 0.  1.
         25    1    1    2    0    0  0.12115509713E+03 -0.19236871737E+03  0.50818976496E+03  0.57058401502E+03  0.12500000000E+03 0.  0.
          1    1    1    2  501    0 -0.12115509713E+03  0.19236871737E+03  0.27953952098E+03  0.36031461915E+03  0.00000000000E+00 0.  1.
<mgrwt>
<rscale>  3 0.25944032E+03</rscale>
<asrwt>0</asrwt>
<pdfrwt beam="1">  1       21 0.13220214E+00 0.25944032E+03</pdfrwt>
<pdfrwt beam="2">  1        1 0.11013027E-01 0.25944032E+03</pdfrwt>
<totfact> 0.24245901E+03</totfact>
</mgrwt>
</event>
<event>
 4    0  0.1426692E-001  0.2428171E+03  0.7546771E-02  0.1117930E+00
         21   -1    0    0  501  502  0.00000000000E+00  0.00000000000E+00  0.82904751052E+02  0.82904751052E+02  0.00000000000E+00 0. -1.
          2   -1    0    0  502    0 -0.00000000000E+00 -0.00000000000E+00 -0.61466336342E+03  0.61466336342E+03  0.00000000000E+00 0.  1.
         25    1    1    2    0    0  0.22791348956E+02  0.20691952590E+03 -0.30248827876E+03  0.38789082816E+03  0.12500000000E+03 0.  0.
          2    1    1    2  501    0 -0.22791348956E+02 -0.20691952590E+03 -0.22927033361E+03  0.30967728631E+03  0.00000000000E+00 0.  1.
<mgrwt>
<rscale>  3 0.24281708E+03</rscale>
<asrwt>0</asrwt>
<pdfrwt beam="1">  1       21 0.12754577E-01 0.24281708E+03</pdfrwt>
<pdfrwt beam="2">  1        2 0.94563597E-01 0.24281708E+03</pdfrwt>
<totfact> 0.32252810E+04</totfact>
</mgrwt>
</event>
<event>
 4    0  0.1426692E-001  0.2562013E+03  0.7546771E-02  0.1109447E+00
          3   -1    0    0  502    0 -0.00000000000E+00  0.00000000000E+00  0.34379924076E+03  0.34379924076E+03  0.00000000000E+00 0. -1.
         21   -1    0    0  501  502  0.00000000000E+00 -0.00000000000E+00 -0.36645685883E+03  0.36645685883E+03  0.00000000000E+00 0. -1.
         25    1    1    2    0    0 -0.79224425123E+02 -0.20913539826E+03 -0.27312151916E+03  0.37447895611E+03  0.12500000000E+03 0.  0.
          3    1    1    2  501    0  0.79224425123E+02  0.20913539826E+03  0.25046390108E+03  0.33577714348E+03  0.00000000000E+00 0. -1.
<mgrwt>
<rscale>  3 0.25620134E+03</rscale>
<asrwt>0</asrwt>
<pdfrwt beam="1">  1       21 0.56377978E-01 0.25620134E+03</pdfrwt>
<pdfrwt beam="2">  1        3 0.52892191E-01 0.25620134E+03</pdfrwt>
<totfact> 0.51540000E+02</totfact>
</mgrwt>
</event>
<event>
 4    0  0.1426692E-001  0.2490391E+03  0.7546771E-02  0.1113914E+00
         21   -1    0    0  501  502  0.00000000000E+00  0.00000000000E+00  0.27481961173E+03  0.27481961173E+03  0.00000000000E+00 0.  1.
         -4   -1    0    0    0  501 -0.00000000000E+00 -0.00000000000E+00 -0.11706997613E+04  0.11706997613E+04  0.00000000000E+00 0. -1.
         25    1    1    2    0    0  0.40028212828E+02  0.21164408051E+03  0.20574449907E+03  0.32303447731E+03  0.12500000000E+03 0.  0.
         -4    1    1    2    0  502 -0.40028212828E+02 -0.21164408051E+03 -0.11016246486E+04  0.11224848957E+04  0.00000000000E+00 0. -1.
<mgrwt>
<rscale>  3 0.24903910E+03</rscale>
<asrwt>0</asrwt>
<pdfrwt beam="1">  1       21 0.42279940E-01 0.24903910E+03</pdfrwt>
<pdfrwt beam="2">  1       -4 0.18010766E+00 0.24903910E+03</pdfrwt>
<totfact> 0.43347203E+01</totfact>
</mgrwt>
</event>
<event>
 4    0  0.1426692E-001  0.2653983E+03  0.7546771E-02  0.1103943E+00
          2   -1    0    0  502    0 -0.00000000000E+00  0.00000000000E+00  0.26698981400E+03  0.26698981400E+03  0.00000000000E+00 0.  1.
         21   -1    0    0  501  502  0.00000000000E+00 -0.00000000000E+00 -0.41773003672E+03  0.41773003672E+03  0.00000000000E+00 0. -1.
         25    1    1    2    0    0 -0.21390380818E+03 -0.95165162501E+02 -0.30503561102E+03  0.40433027502E+03  0.12500000000E+03 0.  0.
          2    1    1    2  501    0  0.21390380818E+03  0.95165162501E+02  0.15429538829E+03  0.28038957570E+03  0.00000000000E+00 0.  1.
<mgrwt>
<rscale>  3 0.26539828E+03</rscale>
<asrwt>0</asrwt>
<pdfrwt beam="1">  1       21 0.64266159E-01 0.26539828E+03</pdfrwt>
<pdfrwt beam="2">  1        2 0.41075356E-01 0.26539828E+03</pdfrwt>
<totfact> 0.33546519E+03</totfact>
</mgrwt>
</event>
<event>
 4    0  0.1426692E-001  0.2777271E+03  0.7546771E-02  0.1096937E+00
         -1   -1    0    0    0  501 -0.00000000000E+00  0.00000000000E+00  0.49078181079E+02  0.49078181079E+02  0.00000000000E+00 0. -1.
         21   -1    0    0  501  502  0.00000000000E+00 -0.00000000000E+00 -0.14190499518E+04  0.14190499518E+04  0.00000000000E+00 0. -1.
         25    1    1    2    0    0  0.21399937299E+03  0.12534587283E+03 -0.78826278573E+03  0.83575746413E+03  0.12500000000E+03 0.  0.
         -1    1    1    2    0  502 -0.21399937299E+03 -0.12534587283E+03 -0.58170898494E+03  0.63237066871E+03  0.00000000000E+00 0. -1.
<mgrwt>
<rscale>  3 0.27772706E+03</rscale>
<asrwt>0</asrwt>
<pdfrwt beam="1">  1       21 0.21831535E+00 0.27772706E+03</pdfrwt>
<pdfrwt beam="2">  1       -1 0.75504904E-02 0.27772706E+03</pdfrwt>
<totfact> 0.82349343E+02</totfact>
</mgrwt>
</event>
<event>
 4    0  0.1426692E-001  0.2828801E+03  0.7546771E-02  0.1094126E+00
         21   -1    0    0  501  502  0.00000000000E+00  0.00000000000E+00  0.82311059657E+03  0.82311059657E+03  0.00000000000E+00 0. -1.
         -1   -1    0    0    0  501 -0.00000000000E+00 -0.00000000000E+00 -0.94624561218E+02  0.94624561218E+02  0.00000000000E+00 0. -1.
         25    1    1    2    0    0  0.22984539899E+03  0.10755123262E+03  0.50852318943E+03  0.58190807630E+03  0.12500000000E+03 0.  0.
         -1    1    1    2    0  502 -0.22984539899E+03 -0.10755123262E+03  0.21996284592E+03  0.33582708149E+03  0.00000000000E+00 0. -1.
<mgrwt>
<rscale>  3 0.28288014E+03</rscale>
<asrwt>0</asrwt>
<pdfrwt beam="1">  1       21 0.12663239E+00 0.28288014E+03</pdfrwt>
<pdfrwt beam="2">  1       -1 0.14557625E-01 0.28288014E+03</pdfrwt>
<totfact> 0.13561229E+03</totfact>
</mgrwt>
</event>
<event>
 4    0  0.1426692E-001  0.2388659E+03  0.7546771E-02  0.1120551E+00
          1   -1    0    0  502    0 -0.00000000000E+00  0.00000000000E+00  0.17379728567E+03  0.17379728567E+03  0.00000000000E+00 0. -1.
         21   -1    0    0  501  502  0.00000000000E+00 -0.00000000000E+00 -0.28326119557E+03  0.28326119557E+03  0.00000000000E+00 0. -1.
         25    1    1    2    0    0  0.96807661375E+02 -0.17905356858E+03 -0.41367218701E+02  0.24242143161E+03  0.12500000000E+03 0.  0.
          1    1    1    2  501    0 -0.96807661375E+02  0.17905356858E+03 -0.68096691194E+02  0.21463704963E+03  0.00000000000E+00 0. -1.
<mgrwt>
<rscale>  3 0.23886587E+03</rscale>
<asrwt>0</asrwt>
<pdfrwt beam="1">  1       21 0.43578645E-01 0.23886587E+03</pdfrwt>
<pdfrwt beam="2">  1        1 0.26738044E-01 0.23886587E+03</pdfrwt>
<totfact> 0.95214438E+03</totfact>
</mgrwt>
</event>
<event>
 4    0  0.1426692E-001  0.3780142E+03  0.7546771E-02  0.1051670E+00
         21   -1    0    0  501  502  0.00000000000E+00  0.00000000000E+00  0.70370048987E+02  0.70370048987E+02  0.00000000000E+00 0.  1.
          2   -1    0    0  502    0 -0.00000000000E+00 -0.00000000000E+00 -0.19185507913E+04  0.19185507913E+04  0.00000000000E+00 0.  1.
         25    1    1    2    0    0  0.29869779335E+03 -0.19506245183E+03 -0.93386000074E+03  0.10074667403E+04  0.12500000000E+03 0.  0.
          2    1    1    2  501    0 -0.29869779335E+03  0.19506245183E+03 -0.91432074152E+03  0.98145409992E+03  0.00000000000E+00 0.  1.
<mgrwt>
<rscale>  3 0.37801420E+03</rscale>
<asrwt>0</asrwt>
<pdfrwt beam="1">  1       21 0.10826161E-01 0.37801420E+03</pdfrwt>
<pdfrwt beam="2">  1        2 0.29516168E+00 0.37801420E+03</pdfrwt>
<totfact> 0.70425099E+03</totfact>
</mgrwt>
</event>
<event>
 4    0  0.1426692E-001  0.2637313E+03  0.7546771E-02  0.1104922E+00
         21   -1    0    0  501  502  0.00000000000E+00  0.00000000000E+00  0.24511515654E+03  0.24511515654E+03  0.00000000000E+00 0.  1.
          1   -1    0    0  502    0 -0.00000000000E+00 -0.00000000000E+00 -0.23759329140E+04  0.23759329140E+04  0.00000000000E+00 0. -1.
         25    1    1    2    0    0  0.73857441894E+02  0.22016875907E+03  0.16658567281E+03  0.31193747864E+03  0.12500000000E+03 0.  0.
          1    1    1    2  501    0 -0.73857441894E+02 -0.22016875907E+03 -0.22974034303E+04  0.23091105919E+04  0.00000000000E+00 0. -1.
<mgrwt>
<rscale>  3 0.26373131E+03</rscale>
<asrwt>0</asrwt>
<pdfrwt beam="1">  1       21 0.37710022E-01 0.26373131E+03</pdfrwt>
<pdfrwt beam="2">  1        1 0.36552816E+00 0.26373131E+03</pdfrwt>
<totfact> 0.14145340E+02</totfact>
</mgrwt>
</event>
<event>
 4    0  0.1426692E-001  0.2649074E+03  0.7546771E-02  0.1104230E+00
         21   -1    0    0  501  502  0.00000000000E+00  0.00000000000E+00  0.13080107251E+04  0.13080107251E+04  0.00000000000E+00 0.  1.
         -3   -1    0    0    0  501 -0.00000000000E+00 -0.00000000000E+00 -0.52306224125E+02  0.52306224125E+02  0.00000000000E+00 0.  1.
         25    1    1    2    0    0 -0.11837455344E+03 -0.20134150156E+03  0.45768691871E+03  0.52882251343E+03  0.12500000000E+03 0.  0.
         -3    1    1    2    0  502  0.11837455344E+03  0.20134150156E+03  0.79801758222E+03  0.83149443575E+03  0.00000000000E+00 0.  1.
<mgrwt>
<rscale>  3 0.26490741E+03</rscale>
<asrwt>0</asrwt>
<pdfrwt beam="1">  1       21 0.20123239E+00 0.26490741E+03</pdfrwt>
<pdfrwt beam="2">  1       -3 0.80471124E-02 0.26490741E+03</pdfrwt>
<totfact> 0.66936882E+02</totfact>
</mgrwt>
</event>
<event>
 4    0  0.1426692E-001  0.2435483E+03  0.7546771E-02  0.1117451E+00
          2   -1    0    0  502    0 -0.00000000000E+00  0.00000000000E+00  0.25744586675E+04  0.25744586675E+04  0.00000000000E+00 0. -1.
         21   -1    0    0  501  502  0.00000000000E+00 -0.00000000000E+00 -0.21827760975E+03  0.21827760975E+03  0.00000000000E+00 0.  1.
         25    1    1    2    0    0 -0.16080033913E+03  0.13354413535E+03 -0.14459662345E+03  0.28323836016E+03  0.12500000000E+03 0.  0.
          2    1    1    2  501    0  0.16080033913E+03 -0.13354413535E+03  0.25007776812E+04  0.25094979171E+04  0.00000000000E+00 0. -1.
<mgrwt>
<rscale>  3 0.24354832E+03</rscale>
<asrwt>0</asrwt>
<pdfrwt beam="1">  1       21 0.33581172E-01 0.24354832E+03</pdfrwt>
<pdfrwt beam="2">  1        2 0.39607054E+00 0.24354832E+03</pdfrwt>
<totfact> 0.39202140E+02</totfact>
</mgrwt>
</event>
<event>
 4    0  0.1426692E-001  0.2370914E+03  0.7546771E-02  0.1121746E+00
         21   -1    0    0  501  502  0.00000000000E+00  0.00000000000E+00  0.13140139802E+03  0.13140139802E+03  0.00000000000E+00 0. -1.
          2   -1    0    0  502    0 -0.00000000000E+00 -0.00000000000E+00 -0.39113360659E+03  0.39113360659E+03  0.00000000000E+00 0. -1.
         25    1    1    2    0    0 -0.19846820113E+03  0.34608182221E+02 -0.73607968100E+02  0.24825488133E+03  0.12500000000E+03 0.  0.
          2    1    1    2  501    0  0.19846820113E+03 -0.34608182221E+02 -0.18612424048E+03  0.27428012328E+03  0.00000000000E+00 0. -1.
<mgrwt>
<rscale>  3 0.23709144E+03</rscale>
<asrwt>0</asrwt>
<pdfrwt beam="1">  1       21 0.20215600E-01 0.23709144E+03</pdfrwt>
<pdfrwt beam="2">  1        2 0.60174400E-01 0.23709144E+03</pdfrwt>
<totfact> 0.22941088E+04</totfact>
</mgrwt>
</event>
<event>
 4    0  0.1426692E-001  0.2619372E+03  0.7546771E-02  0.1105985E+00
         -4   -1    0    0    0  501 -0.00000000000E+00  0.00000000000E+00  0.13945617443E+04  0.13945617443E+04  0.00000000000E+00 0.  1.
         21   -1    0    0  501  502  0.00000000000E+00 -0.00000000000E+00 -0.44714725322E+02  0.44714725322E+02  0.00000000000E+00 0. -1.
         25    1    1    2    0    0  0.21426531540E+03  0.84121797196E+02  0.59481625225E+03  0.64993651697E+03  0.12500000000E+03 0.  0.
         -4    1    1    2    0  502 -0.21426531540E+03 -0.84121797196E+02  0.75503076671E+03  0.78933995263E+03  0.00000000000E+00 0.  1.
<mgrwt>
<rscale>  3 0.26193721E+03</rscale>
<asrwt>0</asrwt>
<pdfrwt beam="1">  1       21 0.68791896E-02 0.26193721E+03</pdfrwt>
<pdfrwt beam="2">  1       -4 0.21454793E+00 0.26193721E+03</pdfrwt>
<totfact> 0.77026703E+02</totfact>
</mgrwt>
</event>
<event>
 4    0  0.1426692E-001  0.2600504E+03  0.7546771E-02  0.1107113E+00
         21   -1    0    0  501  502  0.00000000000E+00  0.00000000000E+00  0.15799477917E+03  0.15799477917E+03  0.00000000000E+00 0. -1.
          1   -1    0    0  502    0 -0.00000000000E+00 -0.00000000000E+00 -0.37737368553E+03  0.37737368553E+03  0.00000000000E+00 0. -1.
         25    1    1    2    0    0  0.17622644468E+03 -0.14472541454E+03 -0.12573374158E+03  0.28885148293E+03  0.12500000000E+03 0.  0.
          1    1    1    2  501    0 -0.17622644468E+03  0.14472541454E+03 -0.93645164769E+02  0.24651698177E+03  0.00000000000E+00 0. -1.
<mgrwt>
<rscale>  3 0.26005039E+03</rscale>
<asrwt>0</asrwt>
<pdfrwt beam="1">  1       21 0.24306889E-01 0.26005039E+03</pdfrwt>
<pdfrwt beam="2">  1        1 0.58057490E-01 0.26005039E+03</pdfrwt>
<totfact> 0.11323207E+04</totfact>
</mgrwt>
</event>
<event>
 4    0  0.1426692E-001  0.3355836E+03  0.7546771E-02  0.1068693E+00
         21   -1    0    0  501  502  0.00000000000E+00  0.00000000000E+00  0.13737985274E+03  0.13737985274E+03  0.00000000000E+00 0.  1.
          2   -1    0    0  502    0 -0.00000000000E+00 -0.00000000000E+00 -0.19686740198E+04  0.19686740198E+04  0.00000000000E+00 0.  1.
         25    1    1    2    0    0  0.13387702451E+03  0.28119084582E+03 -0.10461289167E+03  0.35151131784E+03  0.12500000000E+03 0.  0.
          2    1    1    2  501    0 -0.13387702451E+03 -0.28119084582E+03 -0.17266812754E+04  0.17545425547E+04  0.00000000000E+00 0.  1.
<mgrwt>
<rscale>  3 0.33558360E+03</rscale>
<asrwt>0</asrwt>
<pdfrwt beam="1">  1       21 0.21135363E-01 0.33558360E+03</pdfrwt>
<pdfrwt beam="2">  1        2 0.30287292E+00 0.33558360E+03</pdfrwt>
<totfact> 0.19470484E+03</totfact>
</mgrwt>
</event>
<event>
 4    0  0.1426692E-001  0.2890346E+03  0.7546771E-02  0.1090854E+00
         21   -1    0    0  501  502  0.00000000000E+00  0.00000000000E+00  0.60067972338E+02  0.60067972338E+02  0.00000000000E+00 0. -1.
          1   -1    0    0  502    0 -0.00000000000E+00 -0.00000000000E+00 -0.13163609342E+04  0.13163609342E+04  0.00000000000E+00 0. -1.
         25    1    1    2    0    0 -0.47901372558E+02 -0.25616680756E+03 -0.51364938460E+03  0.58938668554E+03  0.12500000000E+03 0.  0.
          1    1    1    2  501    0  0.47901372558E+02  0.25616680756E+03 -0.74264357731E+03  0.78704222104E+03  0.00000000000E+00 0. -1.
<mgrwt>
<rscale>  3 0.28903456E+03</rscale>
<asrwt>0</asrwt>
<pdfrwt beam="1">  1       21 0.92412264E-02 0.28903456E+03</pdfrwt>
<pdfrwt beam="2">  1        1 0.20251707E+00 0.28903456E+03</pdfrwt>
<totfact> 0.97715798E+03</totfact>
</mgrwt>
</event>
<event>
 4    0  0.1426692E-001  0.2445631E+03  0.7546771E-02  0.1116790E+00
          2   -1    0    0  502    0 -0.00000000000E+00  0.00000000000E+00  0.34741569884E+04  0.34741569884E+04  0.00000000000E+00 0. -1.
         21   -1    0    0  501  502  0.00000000000E+00 -0.00000000000E+00 -0.30288930746E+02  0.30288930746E+02  0.00000000000E+00 0. -1.
         25    1    1    2    0    0  0.20527618062E+03  0.45252743501E+02  0.53792230051E+03  0.59090737219E+03  0.12500000000E+03 0.  0.
          2    1    1    2  501    0 -0.20527618062E+03 -0.45252743501E+02  0.29059457571E+04  0.29135385469E+04  0.00000000000E+00 0. -1.
<mgrwt>
<rscale>  3 0.24456312E+03</rscale>
<asrwt>0</asrwt>
<pdfrwt beam="1">  1       21 0.46598382E-02 0.24456312E+03</pdfrwt>
<pdfrwt beam="2">  1        2 0.53448538E+00 0.24456312E+03</pdfrwt>
<totfact> 0.41168340E+03</totfact>
</mgrwt>
</event>
<event>
 4    0  0.1426692E-001  0.2773966E+03  0.7546771E-02  0.1097119E+00
          1   -1    0    0  502    0 -0.00000000000E+00  0.00000000000E+00  0.86393982517E+03  0.86393982517E+03  0.00000000000E+00 0.  1.
         21   -1    0    0  501  502  0.00000000000E+00 -0.00000000000E+00 -0.10685811456E+03  0.10685811456E+03  0.00000000000E+00 0.  1.
         25    1    1    2    0    0 -0.21745658188E+03  0.11847581221E+03  0.15045264723E+03  0.31557072447E+03  0.12500000000E+03 0.  0.
          1    1    1    2  501    0  0.21745658188E+03 -0.11847581221E+03  0.60662906338E+03  0.65522721527E+03  0.00000000000E+00 0.  1.
<mgrwt>
<rscale>  3 0.27739662E+03</rscale>
<asrwt>0</asrwt>
<pdfrwt beam="1">  1       21 0.16439711E-01 0.27739662E+03</pdfrwt>
<pdfrwt beam="2">  1        1 0.13291381E+00 0.27739662E+03</pdfrwt>
<totfact> 0.74078238E+03</totfact>
</mgrwt>
</event>
<event>
 4    0  0.1426692E-001  0.2827328E+03  0.7546771E-02  0.1094206E+00
          2   -1    0    0  502    0 -0.00000000000E+00  0.00000000000E+00  0.23550303415E+04  0.23550303415E+04  0.00000000000E+00 0.  1.
         21   -1    0    0  501  502  0.00000000000E+00 -0.00000000000E+00 -0.50489981791E+02  0.50489981791E+02  0.00000000000E+00 0.  1.
         25    1    1    2    0    0 -0.18696370823E+03 -0.17134009381E+03  0.43467807118E+03  0.51853918030E+03  0.12500000000E+03 0.  0.
          2    1    1    2  501    0  0.18696370823E+03  0.17134009381E+03  0.18698622885E+04  0.18869811430E+04  0.00000000000E+00 0.  1.
<mgrwt>
<rscale>  3 0.28273283E+03</rscale>
<asrwt>0</asrwt>
<pdfrwt beam="1">  1       21 0.77676914E-02 0.28273283E+03</pdfrwt>
<pdfrwt beam="2">  1        2 0.36231227E+00 0.28273283E+03</pdfrwt>
<totfact> 0.76313298E+03</totfact>
</mgrwt>
</event>
<event>
 4    0  0.1426692E-001  0.2963206E+03  0.7546771E-02  0.1087094E+00
         21   -1    0    0  501  502  0.00000000000E+00  0.00000000000E+00  0.37935095144E+03  0.37935095144E+03  0.00000000000E+00 0. -1.
          1   -1    0    0  502    0 -0.00000000000E+00 -0.00000000000E+00 -0.21903386779E+03  0.21903386779E+03  0.00000000000E+00 0. -1.
         25    1    1    2    0    0 -0.26300881456E+03 -0.54838630657E+02  0.14337985521E+03  0.32918641349E+03  0.12500000000E+03 0.  0.
          1    1    1    2  501    0  0.26300881456E+03  0.54838630657E+02  0.16937228432E+02  0.26919840574E+03  0.00000000000E+00 0. -1.
<mgrwt>
<rscale>  3 0.29632062E+03</rscale>
<asrwt>0</asrwt>
<pdfrwt beam="1">  1       21 0.58361685E-01 0.29632062E+03</pdfrwt>
<pdfrwt beam="2">  1        1 0.33697518E-01 0.29632062E+03</pdfrwt>
<totfact> 0.37943724E+03</totfact>
</mgrwt>
</event>
<event>
 4    0  0.1426692E-001  0.2421281E+03  0.7546771E-02  0.1118383E+00
         21   -1    0    0  501  502  0.00000000000E+00  0.00000000000E+00  0.26951895267E+03  0.26951895267E+03  0.00000000000E+00 0. -1.
          2   -1    0    0  502    0 -0.00000000000E+00 -0.00000000000E+00 -0.17410856281E+04  0.17410856281E+04  0.00000000000E+00 0.  1.
         25    1    1    2    0    0 -0.85160808647E+02  0.18907309004E+03  0.20744205932E+03  0.31883883810E+03  0.12500000000E+03 0.  0.
          2    1    1    2  501    0  0.85160808647E+02 -0.18907309004E+03 -0.16790087347E+04  0.16917657426E+04  0.00000000000E+00 0.  1.
<mgrwt>
<rscale>  3 0.24212806E+03</rscale>
<asrwt>0</asrwt>
<pdfrwt beam="1">  1       21 0.41464453E-01 0.24212806E+03</pdfrwt>
<pdfrwt beam="2">  1        2 0.26785933E+00 0.24212806E+03</pdfrwt>
<totfact> 0.71169222E+02</totfact>
</mgrwt>
</event>
<event>
 4    0  0.1426692E-001  0.2940256E+03  0.7546771E-02  0.1088266E+00
          3   -1    0    0  502    0 -0.00000000000E+00  0.00000000000E+00  0.61556419733E+03  0.61556419733E+03  0.00000000000E+00 0.  1.
         21   -1    0    0  501  502  0.00000000000E+00 -0.00000000000E+00 -0.47777224752E+03  0.47777224752E+03  0.00000000000E+00 0. -1.
         25    1    1    2    0    0  0.25021077941E+03  0.90667572105E+02 -0.39815382141E+03  0.49495202623E+03  0.12500000000E+03 0.  0.
          3    1    1    2  501    0 -0.25021077941E+03 -0.90667572105E+02  0.53594577122E+03  0.59838441862E+03  0.00000000000E+00 0.  1.
<mgrwt>
<rscale>  3 0.29402558E+03</rscale>
<asrwt>0</asrwt>
<pdfrwt beam="1">  1       21 0.73503423E-01 0.29402558E+03</pdfrwt>
<pdfrwt beam="2">  1        3 0.94702184E-01 0.29402558E+03</pdfrwt>
<totfact> 0.81508966E+01</totfact>
</mgrwt>
</event>
<event>
 4    0  0.1426692E-001  0.2458030E+03  0.7546771E-02  0.1115986E+00
          2   -1    0    0  502    0 -0.00000000000E+00  0.00000000000E+00  0.46858539498E+03  0.46858539498E+03  0.00000000000E+00 0. -1.
         21   -1    0    0  501  502  0.00000000000E+00 -0.00000000000E+00 -0.43560611818E+03  0.43560611818E+03  0.00000000000E+00 0. -1.
         25    1    1    2    0    0  0.20014213567E+03 -0.68827626125E+02 -0.37279553212E+03  0.44653737285E+03  0.12500000000E+03 0.  0.
          2    1    1    2  501    0 -0.20014213567E+03  0.68827626125E+02  0.40577480892E+03  0.45765414031E+03  0.00000000000E+00 0. -1.
<mgrwt>
<rscale>  3 0.24580300E+03</rscale>
<asrwt>0</asrwt>
<pdfrwt beam="1">  1       21 0.67016326E-01 0.24580300E+03</pdfrwt>
<pdfrwt beam="2">  1        2 0.72090061E-01 0.24580300E+03</pdfrwt>
<totfact> 0.16693631E+03</totfact>
</mgrwt>
</event>
<event>
 4    0  0.1426692E-001  0.2412678E+03  0.7546771E-02  0.1118951E+00
         21   -1    0    0  501  502  0.00000000000E+00  0.00000000000E+00  0.21051805820E+04  0.21051805820E+04  0.00000000000E+00 0.  1.
          1   -1    0    0  502    0 -0.00000000000E+00 -0.00000000000E+00 -0.32272725189E+02  0.32272725189E+02  0.00000000000E+00 0. -1.
         25    1    1    2    0    0  0.58934360226E+02 -0.19776727912E+03  0.16425697020E+04  0.16601943806E+04  0.12500000000E+03 0.  0.
          1    1    1    2  501    0 -0.58934360226E+02  0.19776727912E+03  0.43033815481E+03  0.47725892657E+03  0.00000000000E+00 0. -1.
<mgrwt>
<rscale>  3 0.24126781E+03</rscale>
<asrwt>0</asrwt>
<pdfrwt beam="1">  1       21 0.32387383E+00 0.24126781E+03</pdfrwt>
<pdfrwt beam="2">  1        1 0.49650363E-02 0.24126781E+03</pdfrwt>
<totfact> 0.42108208E+02</totfact>
</mgrwt>
</event>
<event>
 4    0  0.1426692E-001  0.2651071E+03  0.7546771E-02  0.1104113E+00
         21   -1    0    0  501  502  0.00000000000E+00  0.00000000000E+00  0.31879982963E+03  0.31879982963E+03  0.00000000000E+00 0.  1.
          4   -1    0    0  502    0 -0.00000000000E+00 -0.00000000000E+00 -0.21115333621E+03  0.21115333621E+03  0.00000000000E+00 0.  1.
         25    1    1    2    0    0  0.20195993647E+03  0.11776651751E+03 -0.15795283772E+02  0.26557721961E+03  0.12500000000E+03 0.  0.
          4    1    1    2  501    0 -0.20195993647E+03 -0.11776651751E+03  0.12344177719E+03  0.26437594622E+03  0.00000000000E+00 0.  1.
<mgrwt>
<rscale>  3 0.26510709E+03</rscale>
<asrwt>0</asrwt>
<pdfrwt beam="1">  1       21 0.49046128E-01 0.26510709E+03</pdfrwt>
<pdfrwt beam="2">  1        4 0.32485129E-01 0.26510709E+03</pdfrwt>
<totfact> 0.15249267E+03</totfact>
</mgrwt>
</event>
<event>
 4    0  0.1426692E-001  0.2984649E+03  0.7546771E-02  0.1086011E+00
          2   -1    0    0  502    0 -0.00000000000E+00  0.00000000000E+00  0.93464127672E+03  0.93464127672E+03  0.00000000000E+00 0. -1.
         21   -1    0    0  501  502  0.00000000000E+00 -0.00000000000E+00 -0.90122248013E+02  0.90122248013E+02  0.00000000000E+00 0. -1.
         25    1    1    2    0    0 -0.12304416146E+03  0.24148796782E+03  0.34284554530E+03  0.45455953648E+03  0.12500000000E+03 0.  0.
          2    1    1    2  501    0  0.12304416146E+03 -0.24148796782E+03  0.50167348341E+03  0.57020398826E+03  0.00000000000E+00 0. -1.
<mgrwt>
<rscale>  3 0.29846491E+03</rscale>
<asrwt>0</asrwt>
<pdfrwt beam="1">  1       21 0.13864962E-01 0.29846491E+03</pdfrwt>
<pdfrwt beam="2">  1        2 0.14379096E+00 0.29846491E+03</pdfrwt>
<totfact> 0.16218070E+04</totfact>
</mgrwt>
</event>
<event>
 4    0  0.1426692E-001  0.3616607E+03  0.7546771E-02  0.1057928E+00
         21   -1    0    0  501  502  0.00000000000E+00  0.00000000000E+00  0.16222408765E+03  0.16222408765E+03  0.00000000000E+00 0. -1.
         -1   -1    0    0    0  501 -0.00000000000E+00 -0.00000000000E+00 -0.15131570370E+04  0.15131570370E+04  0.00000000000E+00 0.  1.
         25    1    1    2    0    0  0.33579947909E+03  0.49113583614E+02 -0.94333778210E+02  0.37376101451E+03  0.12500000000E+03 0.  0.
         -1    1    1    2    0  502 -0.33579947909E+03 -0.49113583614E+02 -0.12565991712E+04  0.13016201102E+04  0.00000000000E+00 0.  1.
<mgrwt>
<rscale>  3 0.36166066E+03</rscale>
<asrwt>0</asrwt>
<pdfrwt beam="1">  1       21 0.24957551E-01 0.36166066E+03</pdfrwt>
<pdfrwt beam="2">  1       -1 0.23279340E+00 0.36166066E+03</pdfrwt>
<totfact> 0.13718474E+02</totfact>
</mgrwt>
</event>
<event>
 4    0  0.1426692E-001  0.2995384E+03  0.7546771E-02  0.1085472E+00
         21   -1    0    0  501  502  0.00000000000E+00  0.00000000000E+00  0.26118872289E+03  0.26118872289E+03  0.00000000000E+00 0.  1.
          2   -1    0    0  502    0 -0.00000000000E+00 -0.00000000000E+00 -0.54835714243E+03  0.54835714243E+03  0.00000000000E+00 0.  1.
         25    1    1    2    0    0  0.13655612268E+03 -0.23547970737E+03  0.11756881749E+03  0.32178516758E+03  0.12500000000E+03 0.  0.
          2    1    1    2  501    0 -0.13655612268E+03  0.23547970737E+03 -0.40473723703E+03  0.48776069774E+03  0.00000000000E+00 0.  1.
<mgrwt>
<rscale>  3 0.29953842E+03</rscale>
<asrwt>0</asrwt>
<pdfrwt beam="1">  1       21 0.40182881E-01 0.29953842E+03</pdfrwt>
<pdfrwt beam="2">  1        2 0.84362637E-01 0.29953842E+03</pdfrwt>
<totfact> 0.40623397E+03</totfact>
</mgrwt>
</event>
<event>
 4    0  0.1426692E-001  0.2479998E+03  0.7546771E-02  0.1114575E+00
          2   -1    0    0  502    0 -0.00000000000E+00  0.00000000000E+00  0.13577717679E+04  0.13577717679E+04  0.00000000000E+00 0. -1.
         21   -1    0    0  501  502  0.00000000000E+00 -0.00000000000E+00 -0.48969636362E+03  0.48969636362E+03  0.00000000000E+00 0.  1.
         25    1    1    2    0    0  0.20590121200E+03 -0.59022163162E+02 -0.44908154809E+03  0.51300892944E+03  0.12500000000E+03 0.  0.
          2    1    1    2  501    0 -0.20590121200E+03  0.59022163162E+02  0.13171569524E+04  0.13344592021E+04  0.00000000000E+00 0. -1.
<mgrwt>
<rscale>  3 0.24799985E+03</rscale>
<asrwt>0</asrwt>
<pdfrwt beam="1">  1       21 0.75337903E-01 0.24799985E+03</pdfrwt>
<pdfrwt beam="2">  1        2 0.20888796E+00 0.24799985E+03</pdfrwt>
<totfact> 0.31647912E+02</totfact>
</mgrwt>
</event>
<event>
 4    0  0.1426692E-001  0.2750910E+03  0.7546771E-02  0.1098401E+00
         21   -1    0    0  501  502  0.00000000000E+00  0.00000000000E+00  0.11802288509E+04  0.11802288509E+04  0.00000000000E+00 0.  1.
         -1   -1    0    0    0  501 -0.00000000000E+00 -0.00000000000E+00 -0.67226767018E+02  0.67226767018E+02  0.00000000000E+00 0.  1.
         25    1    1    2    0    0 -0.17483754172E+02  0.24442660612E+03  0.82313534364E+03  0.86788642194E+03  0.12500000000E+03 0.  0.
         -1    1    1    2    0  502  0.17483754172E+02 -0.24442660612E+03  0.28986674026E+03  0.37956919600E+03  0.00000000000E+00 0.  1.
<mgrwt>
<rscale>  3 0.27509098E+03</rscale>
<asrwt>0</asrwt>
<pdfrwt beam="1">  1       21 0.18157365E+00 0.27509098E+03</pdfrwt>
<pdfrwt beam="2">  1       -1 0.10342580E-01 0.27509098E+03</pdfrwt>
<totfact> 0.88272939E+02</totfact>
</mgrwt>
</event>
<event>
 4    0  0.1426692E-001  0.2398311E+03  0.7546771E-02  0.1119905E+00
         21   -1    0    0  501  502  0.00000000000E+00  0.00000000000E+00  0.98043288827E+02  0.98043288827E+02  0.00000000000E+00 0. -1.
         -2   -1    0    0    0  501 -0.00000000000E+00 -0.00000000000E+00 -0.68567309725E+03  0.68567309725E+03  0.00000000000E+00 0. -1.
         25    1    1    2    0    0 -0.10331584269E+02 -0.20441919463E+03 -0.10955500102E+03  0.26366882071E+03  0.12500000000E+03 0.  0.
         -2    1    1    2    0  502  0.10331584269E+02  0.20441919463E+03 -0.47807480741E+03  0.52004756537E+03  0.00000000000E+00 0. -1.
<mgrwt>
<rscale>  3 0.23983108E+03</rscale>
<asrwt>0</asrwt>
<pdfrwt beam="1">  1       21 0.15083583E-01 0.23983108E+03</pdfrwt>
<pdfrwt beam="2">  1       -2 0.10548817E+00 0.23983108E+03</pdfrwt>
<totfact> 0.23927867E+03</totfact>
</mgrwt>
</event>
<event>
 4    0  0.1426692E-001  0.2823064E+03  0.7546771E-02  0.1094436E+00
          2   -1    0    0  502    0 -0.00000000000E+00  0.00000000000E+00  0.12382529290E+04  0.12382529290E+04  0.00000000000E+00 0. -1.
         21   -1    0    0  501  502  0.00000000000E+00 -0.00000000000E+00 -0.58135412348E+02  0.58135412348E+02  0.00000000000E+00 0. -1.
         25    1    1    2    0    0  0.24479182942E+03 -0.64411540512E+02  0.57927263638E+03  0.64440179512E+03  0.12500000000E+03 0.  0.
          2    1    1    2  501    0 -0.24479182942E+03  0.64411540512E+02  0.60084488027E+03  0.65198654622E+03  0.00000000000E+00 0. -1.
<mgrwt>
<rscale>  3 0.28230637E+03</rscale>
<asrwt>0</asrwt>
<pdfrwt beam="1">  1       21 0.89439105E-02 0.28230637E+03</pdfrwt>
<pdfrwt beam="2">  1        2 0.19050043E+00 0.28230637E+03</pdfrwt>
<totfact> 0.23562179E+04</totfact>
</mgrwt>
</event>
<event>
 4    0  0.1426692E-001  0.6277183E+03  0.7546771E-02  0.9849511E-01
          2   -1    0    0  502    0 -0.00000000000E+00  0.00000000000E+00  0.79977690233E+03  0.79977690233E+03  0.00000000000E+00 0. -1.
         21   -1    0    0  501  502  0.00000000000E+00 -0.00000000000E+00 -0.24535715592E+04  0.24535715592E+04  0.00000000000E+00 0. -1.
         25    1    1    2    0    0  0.16925100310E+03 -0.59140461070E+03 -0.22863793252E+04  0.23709830734E+04  0.12500000000E+03 0.  0.
          2    1    1    2  501    0 -0.16925100310E+03  0.59140461070E+03  0.63258466832E+03  0.88236538815E+03  0.00000000000E+00 0. -1.
<mgrwt>
<rscale>  3 0.62771834E+03</rscale>
<asrwt>0</asrwt>
<pdfrwt beam="1">  1       21 0.37747255E+00 0.62771834E+03</pdfrwt>
<pdfrwt beam="2">  1        2 0.12304260E+00 0.62771834E+03</pdfrwt>
<totfact> 0.36880673E+00</totfact>
</mgrwt>
</event>
<event>
 4    0  0.1426692E-001  0.2672682E+03  0.7546771E-02  0.1102853E+00
          2   -1    0    0  502    0 -0.00000000000E+00  0.00000000000E+00  0.14669816051E+04  0.14669816051E+04  0.00000000000E+00 0.  1.
         21   -1    0    0  501  502  0.00000000000E+00 -0.00000000000E+00 -0.91216084784E+02  0.91216084784E+02  0.00000000000E+00 0.  1.
         25    1    1    2    0    0  0.58190737621E+02  0.22895655192E+03  0.14323128492E+03  0.30322840499E+03  0.12500000000E+03 0.  0.
          2    1    1    2  501    0 -0.58190737621E+02 -0.22895655192E+03  0.12325342354E+04  0.12549692849E+04  0.00000000000E+00 0.  1.
<mgrwt>
<rscale>  3 0.26726815E+03</rscale>
<asrwt>0</asrwt>
<pdfrwt beam="1">  1       21 0.14033245E-01 0.26726815E+03</pdfrwt>
<pdfrwt beam="2">  1        2 0.22568946E+00 0.26726815E+03</pdfrwt>
<totfact> 0.78828025E+03</totfact>
</mgrwt>
</event>
<event>
 4    0  0.1426692E-001  0.2447639E+03  0.7546771E-02  0.1116659E+00
         21   -1    0    0  501  502  0.00000000000E+00  0.00000000000E+00  0.76619092869E+03  0.76619092869E+03  0.00000000000E+00 0. -1.
          2   -1    0    0  502    0 -0.00000000000E+00 -0.00000000000E+00 -0.76104264365E+02  0.76104264365E+02  0.00000000000E+00 0. -1.
         25    1    1    2    0    0  0.20890671235E+03 -0.25344702998E+02  0.50850020074E+03  0.56434193764E+03  0.12500000000E+03 0.  0.
          2    1    1    2  501    0 -0.20890671235E+03  0.25344702998E+02  0.18158646359E+03  0.27795325541E+03  0.00000000000E+00 0. -1.
<mgrwt>
<rscale>  3 0.24476390E+03</rscale>
<asrwt>0</asrwt>
<pdfrwt beam="1">  1       21 0.11787552E+00 0.24476390E+03</pdfrwt>
<pdfrwt beam="2">  1        2 0.11708349E-01 0.24476390E+03</pdfrwt>
<totfact> 0.34642980E+03</totfact>
</mgrwt>
</event>
<event>
 4    0  0.1426692E-001  0.4007600E+03  0.7546771E-02  0.1043517E+00
         21   -1    0    0  501  502  0.00000000000E+00  0.00000000000E+00  0.50463388610E+03  0.50463388610E+03  0.00000000000E+00 0. -1.
          2   -1    0    0  502    0 -0.00000000000E+00 -0.00000000000E+00 -0.89158183361E+03  0.89158183361E+03  0.00000000000E+00 0. -1.
         25    1    1    2    0    0  0.32837572656E+03  0.19275104181E+03  0.37219367095E+03  0.54693391795E+03  0.12500000000E+03 0.  0.
          2    1    1    2  501    0 -0.32837572656E+03 -0.19275104181E+03 -0.75914161846E+03  0.84928180176E+03  0.00000000000E+00 0. -1.
<mgrwt>
<rscale>  3 0.40076001E+03</rscale>
<asrwt>0</asrwt>
<pdfrwt beam="1">  1       21 0.77635983E-01 0.40076001E+03</pdfrwt>
<pdfrwt beam="2">  1        2 0.13716643E+00 0.40076001E+03</pdfrwt>
<totfact> 0.52228514E+02</totfact>
</mgrwt>
</event>
<event>
 4    0  0.1426692E-001  0.2544646E+03  0.7546771E-02  0.1110515E+00
          2   -1    0    0  502    0 -0.00000000000E+00  0.00000000000E+00  0.16474055511E+03  0.16474055511E+03  0.00000000000E+00 0. -1.
         21   -1    0    0  501  502  0.00000000000E+00 -0.00000000000E+00 -0.18400381636E+04  0.18400381636E+04  0.00000000000E+00 0. -1.
         25    1    1    2    0    0 -0.21938284280E+03 -0.31597819302E+02 -0.17518879104E+04  0.17702721555E+04  0.12500000000E+03 0.  0.
          2    1    1    2  501    0  0.21938284280E+03  0.31597819302E+02  0.76590301832E+02  0.23450656330E+03  0.00000000000E+00 0. -1.
<mgrwt>
<rscale>  3 0.25446464E+03</rscale>
<asrwt>0</asrwt>
<pdfrwt beam="1">  1       21 0.28308278E+00 0.25446464E+03</pdfrwt>
<pdfrwt beam="2">  1        2 0.25344702E-01 0.25446464E+03</pdfrwt>
<totfact> 0.10467486E+02</totfact>
</mgrwt>
</event>
<event>
 4    0  0.1426692E-001  0.3324892E+03  0.7546771E-02  0.1070041E+00
          2   -1    0    0  502    0 -0.00000000000E+00  0.00000000000E+00  0.25861061734E+04  0.25861061734E+04  0.00000000000E+00 0. -1.
         21   -1    0    0  501  502  0.00000000000E+00 -0.00000000000E+00 -0.64066701973E+02  0.64066701973E+02  0.00000000000E+00 0. -1.
         25    1    1    2    0    0 -0.25393967211E+03  0.17446686730E+03  0.47339859930E+03  0.57849397463E+03  0.12500000000E+03 0.  0.
          2    1    1    2  501    0  0.25393967211E+03 -0.17446686730E+03  0.20486408722E+04  0.20716789008E+04  0.00000000000E+00 0. -1.
<mgrwt>
<rscale>  3 0.33248917E+03</rscale>
<asrwt>0</asrwt>
<pdfrwt beam="1">  1       21 0.98564177E-02 0.33248917E+03</pdfrwt>
<pdfrwt beam="2">  1        2 0.39786241E+00 0.33248917E+03</pdfrwt>
<totfact> 0.36746151E+03</totfact>
</mgrwt>
</event>
<event>
 4    0  0.1426692E-001  0.3302432E+03  0.7546771E-02  0.1071029E+00
         21   -1    0    0  501  502  0.00000000000E+00  0.00000000000E+00  0.25070868917E+03  0.25070868917E+03  0.00000000000E+00 0. -1.
          1   -1    0    0  502    0 -0.00000000000E+00 -0.00000000000E+00 -0.11204912790E+04  0.11204912790E+04  0.00000000000E+00 0.  1.
         25    1    1    2    0    0  0.12752016274E+03  0.27780244915E+03  0.10744421296E+03  0.34728209219E+03  0.12500000000E+03 0.  0.
          1    1    1    2  501    0 -0.12752016274E+03 -0.27780244915E+03 -0.97722680279E+03  0.10239178760E+04  0.00000000000E+00 0.  1.
<mgrwt>
<rscale>  3 0.33024323E+03</rscale>
<asrwt>0</asrwt>
<pdfrwt beam="1">  1       21 0.38570567E-01 0.33024323E+03</pdfrwt>
<pdfrwt beam="2">  1        1 0.17238327E+00 0.33024323E+03</pdfrwt>
<totfact> 0.89432218E+02</totfact>
</mgrwt>
</event>
<event>
 4    0  0.1426692E-001  0.3403293E+03  0.7546771E-02  0.1066656E+00
          2   -1    0    0  502    0 -0.00000000000E+00  0.00000000000E+00  0.10163994822E+04  0.10163994822E+04  0.00000000000E+00 0.  1.
         21   -1    0    0  501  502  0.00000000000E+00 -0.00000000000E+00 -0.19716147710E+03  0.19716147710E+03  0.00000000000E+00 0.  1.
         25    1    1    2    0    0  0.65951560950E+02  0.30959558663E+03  0.54453961437E+01  0.34037286612E+03  0.12500000000E+03 0.  0.
          2    1    1    2  501    0 -0.65951560950E+02 -0.30959558663E+03  0.81379260893E+03  0.87318809314E+03  0.00000000000E+00 0.  1.
<mgrwt>
<rscale>  3 0.34032930E+03</rscale>
<asrwt>0</asrwt>
<pdfrwt beam="1">  1       21 0.30332536E-01 0.34032930E+03</pdfrwt>
<pdfrwt beam="2">  1        2 0.15636915E+00 0.34032930E+03</pdfrwt>
<totfact> 0.32357637E+03</totfact>
</mgrwt>
</event>
<event>
 4    0  0.1426692E-001  0.5121538E+03  0.7546771E-02  0.1010654E+00
          2   -1    0    0  502    0 -0.00000000000E+00  0.00000000000E+00  0.12075579686E+04  0.12075579686E+04  0.00000000000E+00 0.  1.
         21   -1    0    0  501  502  0.00000000000E+00 -0.00000000000E+00 -0.49892727331E+03  0.49892727331E+03  0.00000000000E+00 0. -1.
         25    1    1    2    0    0 -0.47898635079E+03  0.13133397435E+03 -0.29187544440E+03  0.58948520940E+03  0.12500000000E+03 0.  0.
          2    1    1    2  501    0  0.47898635079E+03 -0.13133397435E+03  0.10005061397E+04  0.11170000325E+04  0.00000000000E+00 0.  1.
<mgrwt>
<rscale>  3 0.51215382E+03</rscale>
<asrwt>0</asrwt>
<pdfrwt beam="1">  1       21 0.76758042E-01 0.51215382E+03</pdfrwt>
<pdfrwt beam="2">  1        2 0.18577815E+00 0.51215382E+03</pdfrwt>
<totfact> 0.33134766E+02</totfact>
</mgrwt>
</event>
<event>
 4    0  0.1426692E-001  0.6907297E+03  0.7546771E-02  0.9733218E-01
         21   -1    0    0  501  502  0.00000000000E+00  0.00000000000E+00  0.52481422865E+03  0.52481422865E+03  0.00000000000E+00 0.  1.
         -1   -1    0    0    0  501 -0.00000000000E+00 -0.00000000000E+00 -0.10623276527E+04  0.10623276527E+04  0.00000000000E+00 0.  1.
         25    1    1    2    0    0  0.29202258593E+03 -0.61335573725E+03  0.45099465599E+02  0.69220041383E+03  0.12500000000E+03 0.  0.
         -1    1    1    2    0  502 -0.29202258593E+03  0.61335573725E+03 -0.58261288965E+03  0.89494146752E+03  0.00000000000E+00 0.  1.
<mgrwt>
<rscale>  3 0.69072965E+03</rscale>
<asrwt>0</asrwt>
<pdfrwt beam="1">  1       21 0.80740651E-01 0.69072965E+03</pdfrwt>
<pdfrwt beam="2">  1       -1 0.16343502E+00 0.69072965E+03</pdfrwt>
<totfact> 0.31455411E+01</totfact>
</mgrwt>
</event>
<event>
 4    0  0.1426692E-001  0.2395529E+03  0.7546771E-02  0.1120091E+00
          2   -1    0    0  502    0 -0.00000000000E+00  0.00000000000E+00  0.36542483723E+03  0.36542483723E+03  0.00000000000E+00 0.  1.
         21   -1    0    0  501  502  0.00000000000E+00 -0.00000000000E+00 -0.21994917588E+03  0.21994917588E+03  0.00000000000E+00 0. -1.
         25    1    1    2    0    0  0.92597194614E+02  0.18217116728E+03 -0.10547342530E+03  0.26174456648E+03  0.12500000000E+03 0.  0.
          2    1    1    2  501    0 -0.92597194614E+02 -0.18217116728E+03  0.25094908665E+03  0.32362944663E+03  0.00000000000E+00 0.  1.
<mgrwt>
<rscale>  3 0.23955286E+03</rscale>
<asrwt>0</asrwt>
<pdfrwt beam="1">  1       21 0.33838335E-01 0.23955286E+03</pdfrwt>
<pdfrwt beam="2">  1        2 0.56219206E-01 0.23955286E+03</pdfrwt>
<totfact> 0.91343621E+03</totfact>
</mgrwt>
</event>
<event>
 4    0  0.1426692E-001  0.2493608E+03  0.7546771E-02  0.1113709E+00
          2   -1    0    0  502    0 -0.00000000000E+00  0.00000000000E+00  0.86238456318E+03  0.86238456318E+03  0.00000000000E+00 0. -1.
         21   -1    0    0  501  502  0.00000000000E+00 -0.00000000000E+00 -0.27598458415E+03  0.27598458415E+03  0.00000000000E+00 0. -1.
         25    1    1    2    0    0  0.16902940669E+03  0.13410762542E+03 -0.20204034642E+03  0.32093783994E+03  0.12500000000E+03 0.  0.
          2    1    1    2  501    0 -0.16902940669E+03 -0.13410762542E+03  0.78844032544E+03  0.81743130739E+03  0.00000000000E+00 0. -1.
<mgrwt>
<rscale>  3 0.24936077E+03</rscale>
<asrwt>0</asrwt>
<pdfrwt beam="1">  1       21 0.42459167E-01 0.24936077E+03</pdfrwt>
<pdfrwt beam="2">  1        2 0.13267455E+00 0.24936077E+03</pdfrwt>
<totfact> 0.21218885E+03</totfact>
</mgrwt>
</event>
<event>
 4    0  0.1426692E-001  0.2414903E+03  0.7546771E-02  0.1118804E+00
          2   -1    0    0  502    0 -0.00000000000E+00  0.00000000000E+00  0.18745369382E+03  0.18745369382E+03  0.00000000000E+00 0. -1.
         21   -1    0    0  501  502  0.00000000000E+00 -0.00000000000E+00 -0.28388406157E+03  0.28388406157E+03  0.00000000000E+00 0. -1.
         25    1    1    2    0    0 -0.57671165297E+02  0.19841017027E+03 -0.10768034692E+03  0.26440993946E+03  0.12500000000E+03 0.  0.
          2    1    1    2  501    0  0.57671165297E+02 -0.19841017027E+03  0.11249979166E+02  0.20692781593E+03  0.00000000000E+00 0. -1.
<mgrwt>
<rscale>  3 0.24149029E+03</rscale>
<asrwt>0</asrwt>
<pdfrwt beam="1">  1       21 0.43674471E-01 0.24149029E+03</pdfrwt>
<pdfrwt beam="2">  1        2 0.28839030E-01 0.24149029E+03</pdfrwt>
<totfact> 0.11257213E+04</totfact>
</mgrwt>
</event>
<event>
 4    0  0.1426692E-001  0.4772445E+03  0.7546771E-02  0.1019895E+00
         21   -1    0    0  501  502  0.00000000000E+00  0.00000000000E+00  0.20767694632E+03  0.20767694632E+03  0.00000000000E+00 0.  1.
          1   -1    0    0  502    0 -0.00000000000E+00 -0.00000000000E+00 -0.19869427436E+04  0.19869427436E+04  0.00000000000E+00 0. -1.
         25    1    1    2    0    0  0.32491495167E+03 -0.32644698470E+03 -0.14813210903E+03  0.49970539457E+03  0.12500000000E+03 0.  0.
          1    1    1    2  501    0 -0.32491495167E+03  0.32644698470E+03 -0.16311336883E+04  0.16949142954E+04  0.00000000000E+00 0. -1.
<mgrwt>
<rscale>  3 0.47724455E+03</rscale>
<asrwt>0</asrwt>
<pdfrwt beam="1">  1       21 0.31950299E-01 0.47724455E+03</pdfrwt>
<pdfrwt beam="2">  1        1 0.30568350E+00 0.47724455E+03</pdfrwt>
<totfact> 0.32354727E+02</totfact>
</mgrwt>
</event>
<event>
 4    0  0.1426692E-001  0.2840079E+03  0.7546771E-02  0.1093520E+00
         21   -1    0    0  501  502  0.00000000000E+00  0.00000000000E+00  0.82512357459E+02  0.82512357459E+02  0.00000000000E+00 0.  1.
         -1   -1    0    0    0  501 -0.00000000000E+00 -0.00000000000E+00 -0.17007812377E+04  0.17007812377E+04  0.00000000000E+00 0.  1.
         25    1    1    2    0    0  0.22816291171E+03  0.11391736606E+03 -0.21282823094E+03  0.35490327760E+03  0.12500000000E+03 0.  0.
         -1    1    1    2    0  502 -0.22816291171E+03 -0.11391736606E+03 -0.14054406493E+04  0.14283903175E+04  0.00000000000E+00 0.  1.
<mgrwt>
<rscale>  3 0.28400789E+03</rscale>
<asrwt>0</asrwt>
<pdfrwt beam="1">  1       21 0.12694211E-01 0.28400789E+03</pdfrwt>
<pdfrwt beam="2">  1       -1 0.26165862E+00 0.28400789E+03</pdfrwt>
<totfact> 0.32771495E+02</totfact>
</mgrwt>
</event>
<event>
 4    0  0.1426692E-001  0.2682700E+03  0.7546771E-02  0.1102274E+00
          2   -1    0    0  502    0 -0.00000000000E+00  0.00000000000E+00  0.97682169654E+02  0.97682169654E+02  0.00000000000E+00 0.  1.
         21   -1    0    0  501  502  0.00000000000E+00 -0.00000000000E+00 -0.10983156950E+04  0.10983156950E+04  0.00000000000E+00 0.  1.
         25    1    1    2    0    0  0.66301004425E+02  0.22792095282E+03 -0.89831278323E+03  0.93751514144E+03  0.12500000000E+03 0.  0.
          2    1    1    2  501    0 -0.66301004425E+02 -0.22792095282E+03 -0.10232074208E+03  0.25848272317E+03  0.00000000000E+00 0.  1.
<mgrwt>
<rscale>  3 0.26826998E+03</rscale>
<asrwt>0</asrwt>
<pdfrwt beam="1">  1       21 0.16897164E+00 0.26826998E+03</pdfrwt>
<pdfrwt beam="2">  1        2 0.15028026E-01 0.26826998E+03</pdfrwt>
<totfact> 0.98869954E+02</totfact>
</mgrwt>
</event>
<event>
 4    0  0.1426692E-001  0.2944639E+03  0.7546771E-02  0.1088041E+00
         21   -1    0    0  501  502  0.00000000000E+00  0.00000000000E+00  0.46128326560E+03  0.46128326560E+03  0.00000000000E+00 0. -1.
          2   -1    0    0  502    0 -0.00000000000E+00 -0.00000000000E+00 -0.11884817558E+04  0.11884817558E+04  0.00000000000E+00 0. -1.
         25    1    1    2    0    0  0.23747813145E+03 -0.12119456942E+03  0.39705532538E+03  0.49432976644E+03  0.12500000000E+03 0.  0.
          2    1    1    2  501    0 -0.23747813145E+03  0.12119456942E+03 -0.11242538156E+04  0.11554352550E+04  0.00000000000E+00 0. -1.
<mgrwt>
<rscale>  3 0.29446390E+03</rscale>
<asrwt>0</asrwt>
<pdfrwt beam="1">  1       21 0.70966657E-01 0.29446390E+03</pdfrwt>
<pdfrwt beam="2">  1        2 0.18284335E+00 0.29446390E+03</pdfrwt>
<totfact> 0.43879400E+02</totfact>
</mgrwt>
</event>
<event>
 4    0  0.1426692E-001  0.2461197E+03  0.7546771E-02  0.1115782E+00
         21   -1    0    0  501  502  0.00000000000E+00  0.00000000000E+00  0.29463403372E+03  0.29463403372E+03  0.00000000000E+00 0. -1.
         -2   -1    0    0    0  501 -0.00000000000E+00 -0.00000000000E+00 -0.19475851318E+03  0.19475851318E+03  0.00000000000E+00 0. -1.
         25    1    1    2    0    0  0.17352974549E+03  0.12180866637E+03  0.12473970766E+03  0.27592556685E+03  0.12500000000E+03 0.  0.
         -2    1    1    2    0  502 -0.17352974549E+03 -0.12180866637E+03 -0.24864187124E+02  0.21346698006E+03  0.00000000000E+00 0. -1.
<mgrwt>
<rscale>  3 0.24611973E+03</rscale>
<asrwt>0</asrwt>
<pdfrwt beam="1">  1       21 0.45328313E-01 0.24611973E+03</pdfrwt>
<pdfrwt beam="2">  1       -2 0.29962848E-01 0.24611973E+03</pdfrwt>
<totfact> 0.37971149E+03</totfact>
</mgrwt>
</event>
<event>
 4    0  0.1426692E-001  0.2793786E+03  0.7546771E-02  0.1096029E+00
          1   -1    0    0  502    0 -0.00000000000E+00  0.00000000000E+00  0.91325954600E+03  0.91325954600E+03  0.00000000000E+00 0.  1.
         21   -1    0    0  501  502  0.00000000000E+00 -0.00000000000E+00 -0.15557467106E+03  0.15557467106E+03  0.00000000000E+00 0.  1.
         25    1    1    2    0    0  0.48392534095E+02 -0.24512355034E+03  0.89620104126E+01  0.27952228877E+03  0.12500000000E+03 0.  0.
          1    1    1    2  501    0 -0.48392534095E+02  0.24512355034E+03  0.74872286453E+03  0.78931192830E+03  0.00000000000E+00 0.  1.
<mgrwt>
<rscale>  3 0.27937858E+03</rscale>
<asrwt>0</asrwt>
<pdfrwt beam="1">  1       21 0.23934565E-01 0.27937858E+03</pdfrwt>
<pdfrwt beam="2">  1        1 0.14050147E+00 0.27937858E+03</pdfrwt>
<totfact> 0.33356325E+03</totfact>
</mgrwt>
</event>
<event>
 4    0  0.1426692E-001  0.4084699E+03  0.7546771E-02  0.1040886E+00
         21   -1    0    0  501  502  0.00000000000E+00  0.00000000000E+00  0.34029727845E+03  0.34029727845E+03  0.00000000000E+00 0.  1.
          2   -1    0    0  502    0 -0.00000000000E+00 -0.00000000000E+00 -0.50110495274E+03  0.50110495274E+03  0.00000000000E+00 0. -1.
         25    1    1    2    0    0 -0.11160926586E+02 -0.38871337977E+03  0.27380729084E+02  0.40938656820E+03  0.12500000000E+03 0.  0.
          2    1    1    2  501    0  0.11160926586E+02  0.38871337977E+03 -0.18818840337E+03  0.43201566298E+03  0.00000000000E+00 0. -1.
<mgrwt>
<rscale>  3 0.40846990E+03</rscale>
<asrwt>0</asrwt>
<pdfrwt beam="1">  1       21 0.52353427E-01 0.40846990E+03</pdfrwt>
<pdfrwt beam="2">  1        2 0.77093070E-01 0.40846990E+03</pdfrwt>
<totfact> 0.25293917E+03</totfact>
</mgrwt>
</event>
<event>
 4    0  0.1426692E-001  0.2498185E+03  0.7546771E-02  0.1113420E+00
         21   -1    0    0  501  502  0.00000000000E+00  0.00000000000E+00  0.78499136532E+03  0.78499136532E+03  0.00000000000E+00 0. -1.
          1   -1    0    0  502    0 -0.00000000000E+00 -0.00000000000E+00 -0.41945759471E+03  0.41945759471E+03  0.00000000000E+00 0.  1.
         25    1    1    2    0    0 -0.25519510201E+02 -0.21478601664E+03  0.73501680769E+03  0.77631113990E+03  0.12500000000E+03 0.  0.
          1    1    1    2  501    0  0.25519510201E+02  0.21478601664E+03 -0.36948303708E+03  0.42813782014E+03  0.00000000000E+00 0.  1.
<mgrwt>
<rscale>  3 0.24981849E+03</rscale>
<asrwt>0</asrwt>
<pdfrwt beam="1">  1       21 0.12076790E+00 0.24981849E+03</pdfrwt>
<pdfrwt beam="2">  1        1 0.64531938E-01 0.24981849E+03</pdfrwt>
<totfact> 0.31462851E+02</totfact>
</mgrwt>
</event>
<event>
 4    0  0.1426692E-001  0.2764941E+03  0.7546771E-02  0.1097619E+00
          2   -1    0    0  502    0 -0.00000000000E+00  0.00000000000E+00  0.10678954047E+04  0.10678954047E+04  0.00000000000E+00 0.  1.
         21   -1    0    0  501  502  0.00000000000E+00 -0.00000000000E+00 -0.28548139842E+03  0.28548139842E+03  0.00000000000E+00 0.  1.
         25    1    1    2    0    0  0.22962589371E+03  0.89977295653E+02 -0.19950701416E+03  0.34095749514E+03  0.12500000000E+03 0.  0.
          2    1    1    2  501    0 -0.22962589371E+03 -0.89977295653E+02  0.98192102042E+03  0.10124193080E+04  0.00000000000E+00 0.  1.
<mgrwt>
<rscale>  3 0.27649406E+03</rscale>
<asrwt>0</asrwt>
<pdfrwt beam="1">  1       21 0.43920216E-01 0.27649406E+03</pdfrwt>
<pdfrwt beam="2">  1        2 0.16429160E+00 0.27649406E+03</pdfrwt>
<totfact> 0.14558813E+03</totfact>
</mgrwt>
</event>
<event>
 4    0  0.1426692E-001  0.2722716E+03  0.7546771E-02  0.1099986E+00
         -2   -1    0    0    0  501 -0.00000000000E+00  0.00000000000E+00  0.27600591907E+03  0.27600591907E+03  0.00000000000E+00 0. -1.
         21   -1    0    0  501  502  0.00000000000E+00 -0.00000000000E+00 -0.41930761438E+03  0.41930761438E+03  0.00000000000E+00 0. -1.
         25    1    1    2    0    0 -0.21305652658E+03 -0.11451532894E+03  0.15339865646E+03  0.31251078683E+03  0.12500000000E+03 0.  0.
         -2    1    1    2    0  502  0.21305652658E+03  0.11451532894E+03 -0.29670035178E+03  0.38280274663E+03  0.00000000000E+00 0. -1.
<mgrwt>
<rscale>  3 0.27227164E+03</rscale>
<asrwt>0</asrwt>
<pdfrwt beam="1">  1       21 0.64508864E-01 0.27227164E+03</pdfrwt>
<pdfrwt beam="2">  1       -2 0.42462449E-01 0.27227164E+03</pdfrwt>
<totfact> 0.92557438E+02</totfact>
</mgrwt>
</event>
<event>
 4    0  0.1426692E-001  0.5455225E+03  0.7546771E-02  0.1002536E+00
         21   -1    0    0  501  502  0.00000000000E+00  0.00000000000E+00  0.72624501684E+03  0.72624501684E+03  0.00000000000E+00 0.  1.
         -1   -1    0    0    0  501 -0.00000000000E+00 -0.00000000000E+00 -0.68356061682E+03  0.68356061682E+03  0.00000000000E+00 0. -1.
         25    1    1    2    0    0  0.48715508183E+03 -0.21130471968E+03  0.47634043804E+03  0.72422025049E+03  0.12500000000E+03 0.  0.
         -1    1    1    2    0  502 -0.48715508183E+03  0.21130471968E+03 -0.43365603802E+03  0.68558538317E+03  0.00000000000E+00 0. -1.
<mgrwt>
<rscale>  3 0.54552246E+03</rscale>
<asrwt>0</asrwt>
<pdfrwt beam="1">  1       21 0.11173000E+00 0.54552246E+03</pdfrwt>
<pdfrwt beam="2">  1       -1 0.10516317E+00 0.54552246E+03</pdfrwt>
<totfact> 0.45268151E+01</totfact>
</mgrwt>
</event>
<event>
 4    0  0.1426692E-001  0.4309653E+03  0.7546771E-02  0.1033555E+00
          1   -1    0    0  502    0 -0.00000000000E+00  0.00000000000E+00  0.55928582116E+03  0.55928582116E+03  0.00000000000E+00 0. -1.
         21   -1    0    0  501  502  0.00000000000E+00 -0.00000000000E+00 -0.39965576989E+03  0.39965576989E+03  0.00000000000E+00 0. -1.
         25    1    1    2    0    0  0.14414284064E+03 -0.38643104994E+03 -0.13552293183E+03  0.45177160150E+03  0.12500000000E+03 0.  0.
          1    1    1    2  501    0 -0.14414284064E+03  0.38643104994E+03  0.29515298310E+03  0.50716998955E+03  0.00000000000E+00 0. -1.
<mgrwt>
<rscale>  3 0.43096533E+03</rscale>
<asrwt>0</asrwt>
<pdfrwt beam="1">  1       21 0.61485503E-01 0.43096533E+03</pdfrwt>
<pdfrwt beam="2">  1        1 0.86043972E-01 0.43096533E+03</pdfrwt>
<totfact> 0.97174531E+02</totfact>
</mgrwt>
</event>
<event>
 4    0  0.1426692E-001  0.3281147E+03  0.7546771E-02  0.1071974E+00
         21   -1    0    0  501  502  0.00000000000E+00  0.00000000000E+00  0.41727000865E+03  0.41727000865E+03  0.00000000000E+00 0. -1.
          2   -1    0    0  502    0 -0.00000000000E+00 -0.00000000000E+00 -0.10131197429E+04  0.10131197429E+04  0.00000000000E+00 0. -1.
         25    1    1    2    0    0  0.24030564548E+03  0.18516873988E+03  0.32441170818E+03  0.46141328750E+03  0.12500000000E+03 0.  0.
          2    1    1    2  501    0 -0.24030564548E+03 -0.18516873988E+03 -0.92026144245E+03  0.96897646408E+03  0.00000000000E+00 0. -1.
<mgrwt>
<rscale>  3 0.32811471E+03</rscale>
<asrwt>0</asrwt>
<pdfrwt beam="1">  1       21 0.64195386E-01 0.32811471E+03</pdfrwt>
<pdfrwt beam="2">  1        2 0.15586457E+00 0.32811471E+03</pdfrwt>
<totfact> 0.68650524E+02</totfact>
</mgrwt>
</event>
<event>
 4    0  0.1426692E-001  0.2374348E+03  0.7546771E-02  0.1121514E+00
         21   -1    0    0  501  502  0.00000000000E+00  0.00000000000E+00  0.23072567557E+03  0.23072567557E+03  0.00000000000E+00 0.  1.
          1   -1    0    0  502    0 -0.00000000000E+00 -0.00000000000E+00 -0.23891609510E+03  0.23891609510E+03  0.00000000000E+00 0.  1.
         25    1    1    2    0    0  0.12190868647E+03 -0.16089917431E+03  0.78320055975E+02  0.25001860590E+03  0.12500000000E+03 0.  0.
          1    1    1    2  501    0 -0.12190868647E+03  0.16089917431E+03 -0.86510475496E+02  0.21962316476E+03  0.00000000000E+00 0.  1.
<mgrwt>
<rscale>  3 0.23743477E+03</rscale>
<asrwt>0</asrwt>
<pdfrwt beam="1">  1       21 0.35496258E-01 0.23743477E+03</pdfrwt>
<pdfrwt beam="2">  1        1 0.36756322E-01 0.23743477E+03</pdfrwt>
<totfact> 0.96561439E+03</totfact>
</mgrwt>
</event>
<event>
 4    0  0.1426692E-001  0.3221433E+03  0.7546771E-02  0.1074667E+00
         21   -1    0    0  501  502  0.00000000000E+00  0.00000000000E+00  0.69233883939E+02  0.69233883939E+02  0.00000000000E+00 0. -1.
          2   -1    0    0  502    0 -0.00000000000E+00 -0.00000000000E+00 -0.14267787794E+04  0.14267787794E+04  0.00000000000E+00 0. -1.
         25    1    1    2    0    0 -0.24110377566E+03 -0.17326357579E+03 -0.57586628155E+03  0.65984715773E+03  0.12500000000E+03 0.  0.
          2    1    1    2  501    0  0.24110377566E+03  0.17326357579E+03 -0.78167861394E+03  0.83616550564E+03  0.00000000000E+00 0. -1.
<mgrwt>
<rscale>  3 0.32214329E+03</rscale>
<asrwt>0</asrwt>
<pdfrwt beam="1">  1       21 0.10651367E-01 0.32214329E+03</pdfrwt>
<pdfrwt beam="2">  1        2 0.21950443E+00 0.32214329E+03</pdfrwt>
<totfact> 0.13463631E+04</totfact>
</mgrwt>
</event>
<event>
 4    0  0.1426692E-001  0.2672805E+03  0.7546771E-02  0.1102846E+00
         21   -1    0    0  501  502  0.00000000000E+00  0.00000000000E+00  0.58273521447E+02  0.58273521447E+02  0.00000000000E+00 0.  1.
          2   -1    0    0  502    0 -0.00000000000E+00 -0.00000000000E+00 -0.12647401098E+04  0.12647401098E+04  0.00000000000E+00 0.  1.
         25    1    1    2    0    0  0.12845202913E+03 -0.19827747419E+03 -0.38813175236E+03  0.47125909832E+03  0.12500000000E+03 0.  0.
          2    1    1    2  501    0 -0.12845202913E+03  0.19827747419E+03 -0.81833483595E+03  0.85175453288E+03  0.00000000000E+00 0.  1.
<mgrwt>
<rscale>  3 0.26728053E+03</rscale>
<asrwt>0</asrwt>
<pdfrwt beam="1">  1       21 0.89651570E-02 0.26728053E+03</pdfrwt>
<pdfrwt beam="2">  1        2 0.19457540E+00 0.26728053E+03</pdfrwt>
<totfact> 0.22735914E+04</totfact>
</mgrwt>
</event>
<event>
 4    0  0.1426692E-001  0.2395702E+03  0.7546771E-02  0.1120079E+00
         -2   -1    0    0    0  501 -0.00000000000E+00  0.00000000000E+00  0.99089363527E+03  0.99089363527E+03  0.00000000000E+00 0. -1.
         21   -1    0    0  501  502  0.00000000000E+00 -0.00000000000E+00 -0.21550344996E+03  0.21550344996E+03  0.00000000000E+00 0. -1.
         25    1    1    2    0    0  0.15612828142E+03 -0.13188196661E+03 -0.13388050261E+03  0.27444103621E+03  0.12500000000E+03 0.  0.
         -2    1    1    2    0  502 -0.15612828142E+03  0.13188196661E+03  0.90927068792E+03  0.93195604901E+03  0.00000000000E+00 0. -1.
<mgrwt>
<rscale>  3 0.23957023E+03</rscale>
<asrwt>0</asrwt>
<pdfrwt beam="1">  1       21 0.33154377E-01 0.23957023E+03</pdfrwt>
<pdfrwt beam="2">  1       -2 0.15244517E+00 0.23957023E+03</pdfrwt>
<totfact> 0.21589312E+02</totfact>
</mgrwt>
</event>
<event>
 4    0  0.1426692E-001  0.6022039E+03  0.7546771E-02  0.9900844E-01
          2   -1    0    0  502    0 -0.00000000000E+00  0.00000000000E+00  0.16333253418E+04  0.16333253418E+04  0.00000000000E+00 0.  1.
         21   -1    0    0  501  502  0.00000000000E+00 -0.00000000000E+00 -0.25574812199E+03  0.25574812199E+03  0.00000000000E+00 0.  1.
         25    1    1    2    0    0 -0.46384184036E+03 -0.36314636246E+03  0.32864994167E+03  0.68604687711E+03  0.12500000000E+03 0.  0.
          2    1    1    2  501    0  0.46384184036E+03  0.36314636246E+03  0.10489272781E+04  0.12030265867E+04  0.00000000000E+00 0.  1.
<mgrwt>
<rscale>  3 0.60220390E+03</rscale>
<asrwt>0</asrwt>
<pdfrwt beam="1">  1       21 0.39345866E-01 0.60220390E+03</pdfrwt>
<pdfrwt beam="2">  1        2 0.25128081E+00 0.60220390E+03</pdfrwt>
<totfact> 0.80091366E+02</totfact>
</mgrwt>
</event>
<event>
 4    0  0.1426692E-001  0.2638999E+03  0.7546771E-02  0.1104822E+00
         21   -1    0    0  501  502  0.00000000000E+00  0.00000000000E+00  0.16108756964E+03  0.16108756964E+03  0.00000000000E+00 0. -1.
          2   -1    0    0  502    0 -0.00000000000E+00 -0.00000000000E+00 -0.45991953015E+03  0.45991953015E+03  0.00000000000E+00 0. -1.
         25    1    1    2    0    0 -0.74467239543E+02  0.22016540704E+03 -0.29943927889E+02  0.26559332642E+03  0.12500000000E+03 0.  0.
          2    1    1    2  501    0  0.74467239543E+02 -0.22016540704E+03 -0.26888803262E+03  0.35541377338E+03  0.00000000000E+00 0. -1.
<mgrwt>
<rscale>  3 0.26389994E+03</rscale>
<asrwt>0</asrwt>
<pdfrwt beam="1">  1       21 0.24782703E-01 0.26389994E+03</pdfrwt>
<pdfrwt beam="2">  1        2 0.70756851E-01 0.26389994E+03</pdfrwt>
<totfact> 0.12989795E+04</totfact>
</mgrwt>
</event>
<event>
 4    0  0.1426692E-001  0.2841452E+03  0.7546771E-02  0.1093446E+00
         21   -1    0    0  501  502  0.00000000000E+00  0.00000000000E+00  0.77360320614E+03  0.77360320614E+03  0.00000000000E+00 0.  1.
         -2   -1    0    0    0  501 -0.00000000000E+00 -0.00000000000E+00 -0.94270587329E+02  0.94270587329E+02  0.00000000000E+00 0. -1.
         25    1    1    2    0    0  0.23634859926E+03 -0.96191545615E+02  0.38121673332E+03  0.47546258695E+03  0.12500000000E+03 0.  0.
         -2    1    1    2    0  502 -0.23634859926E+03  0.96191545615E+02  0.29811588549E+03  0.39241120652E+03  0.00000000000E+00 0. -1.
<mgrwt>
<rscale>  3 0.28414516E+03</rscale>
<asrwt>0</asrwt>
<pdfrwt beam="1">  1       21 0.11901587E+00 0.28414516E+03</pdfrwt>
<pdfrwt beam="2">  1       -2 0.14503168E-01 0.28414516E+03</pdfrwt>
<totfact> 0.14956968E+03</totfact>
</mgrwt>
</event>
<event>
 4    0  0.1426692E-001  0.2669717E+03  0.7546771E-02  0.1103025E+00
          2   -1    0    0  502    0 -0.00000000000E+00  0.00000000000E+00  0.25563451192E+04  0.25563451192E+04  0.00000000000E+00 0. -1.
         21   -1    0    0  501  502  0.00000000000E+00 -0.00000000000E+00 -0.33557749669E+02  0.33557749669E+02  0.00000000000E+00 0.  1.
         25    1    1    2    0    0  0.19182683906E+03  0.13730027947E+03  0.65561617903E+03  0.70788874630E+03  0.12500000000E+03 0.  0.
          2    1    1    2  501    0 -0.19182683906E+03 -0.13730027947E+03  0.18671711905E+04  0.18820141225E+04  0.00000000000E+00 0. -1.
<mgrwt>
<rscale>  3 0.26697173E+03</rscale>
<asrwt>0</asrwt>
<pdfrwt beam="1">  1       21 0.51627328E-02 0.26697173E+03</pdfrwt>
<pdfrwt beam="2">  1        2 0.39328371E+00 0.26697173E+03</pdfrwt>
<totfact> 0.12083816E+04</totfact>
</mgrwt>
</event>
<event>
 4    0  0.1426692E-001  0.2362287E+03  0.7546771E-02  0.1122331E+00
         21   -1    0    0  501  502  0.00000000000E+00  0.00000000000E+00  0.12808074914E+03  0.12808074914E+03  0.00000000000E+00 0. -1.
         -3   -1    0    0    0  501 -0.00000000000E+00 -0.00000000000E+00 -0.10231547279E+04  0.10231547279E+04  0.00000000000E+00 0.  1.
         25    1    1    2    0    0 -0.19888652143E+03  0.24962904382E+02 -0.23042118962E+01  0.23623992972E+03  0.12500000000E+03 0.  0.
         -3    1    1    2    0  502  0.19888652143E+03 -0.24962904382E+02 -0.89276976686E+03  0.91499554733E+03  0.00000000000E+00 0.  1.
<mgrwt>
<rscale>  3 0.23622869E+03</rscale>
<asrwt>0</asrwt>
<pdfrwt beam="1">  1       21 0.19704732E-01 0.23622869E+03</pdfrwt>
<pdfrwt beam="2">  1       -3 0.15740841E+00 0.23622869E+03</pdfrwt>
<totfact> 0.35285759E+02</totfact>
</mgrwt>
</event>
<event>
 4    0  0.1426692E-001  0.2411101E+03  0.7546771E-02  0.1119056E+00
         21   -1    0    0  501  502  0.00000000000E+00  0.00000000000E+00  0.26401137736E+03  0.26401137736E+03  0.00000000000E+00 0. -1.
          2   -1    0    0  502    0 -0.00000000000E+00 -0.00000000000E+00 -0.63470611679E+03  0.63470611679E+03  0.00000000000E+00 0.  1.
         25    1    1    2    0    0  0.49839660194E+01 -0.20611705318E+03  0.18635715273E+03  0.30473442192E+03  0.12500000000E+03 0.  0.
          2    1    1    2  501    0 -0.49839660194E+01  0.20611705318E+03 -0.55705189217E+03  0.59398307223E+03  0.00000000000E+00 0.  1.
<mgrwt>
<rscale>  3 0.24111010E+03</rscale>
<asrwt>0</asrwt>
<pdfrwt beam="1">  1       21 0.40617136E-01 0.24111010E+03</pdfrwt>
<pdfrwt beam="2">  1        2 0.97647093E-01 0.24111010E+03</pdfrwt>
<totfact> 0.34085142E+03</totfact>
</mgrwt>
</event>
<event>
 4    0  0.1426692E-001  0.3197788E+03  0.7546771E-02  0.1075751E+00
         21   -1    0    0  501  502  0.00000000000E+00  0.00000000000E+00  0.17439395810E+04  0.17439395810E+04  0.00000000000E+00 0.  1.
         -3   -1    0    0    0  501 -0.00000000000E+00 -0.00000000000E+00 -0.63373381637E+02  0.63373381637E+02  0.00000000000E+00 0.  1.
         25    1    1    2    0    0 -0.92965719558E+02 -0.27926848395E+03  0.12160768163E+04  0.12574185199E+04  0.12500000000E+03 0.  0.
         -3    1    1    2    0  502  0.92965719558E+02  0.27926848395E+03  0.46448938313E+03  0.54989444277E+03  0.00000000000E+00 0.  1.
<mgrwt>
<rscale>  3 0.31977885E+03</rscale>
<asrwt>0</asrwt>
<pdfrwt beam="1">  1       21 0.26829836E+00 0.31977885E+03</pdfrwt>
<pdfrwt beam="2">  1       -3 0.97497524E-02 0.31977885E+03</pdfrwt>
<totfact> 0.18428235E+02</totfact>
</mgrwt>
</event>
<event>
 4    0  0.1426692E-001  0.4056621E+03  0.7546771E-02  0.1041837E+00
         21   -1    0    0  501  502  0.00000000000E+00  0.00000000000E+00  0.20649688446E+03  0.20649688446E+03  0.00000000000E+00 0. -1.
          1   -1    0    0  502    0 -0.00000000000E+00 -0.00000000000E+00 -0.15803039591E+04  0.15803039591E+04  0.00000000000E+00 0.  1.
         25    1    1    2    0    0  0.35895891141E+03 -0.14172248028E+03 -0.51009449803E+02  0.40885660747E+03  0.12500000000E+03 0.  0.
          1    1    1    2  501    0 -0.35895891141E+03  0.14172248028E+03 -0.13227976249E+04  0.13779442361E+04  0.00000000000E+00 0.  1.
<mgrwt>
<rscale>  3 0.40566213E+03</rscale>
<asrwt>0</asrwt>
<pdfrwt beam="1">  1       21 0.31768751E-01 0.40566213E+03</pdfrwt>
<pdfrwt beam="2">  1        1 0.24312369E+00 0.40566213E+03</pdfrwt>
<totfact> 0.62186317E+02</totfact>
</mgrwt>
</event>
<event>
 4    0  0.1426692E-001  0.2405258E+03  0.7546771E-02  0.1119443E+00
         21   -1    0    0  501  502  0.00000000000E+00  0.00000000000E+00  0.40046915931E+03  0.40046915931E+03  0.00000000000E+00 0.  1.
         -2   -1    0    0    0  501 -0.00000000000E+00 -0.00000000000E+00 -0.41008864871E+03  0.41008864871E+03  0.00000000000E+00 0.  1.
         25    1    1    2    0    0  0.11860047730E+03 -0.16781417690E+03  0.33315379571E+03  0.41090646476E+03  0.12500000000E+03 0.  0.
         -2    1    1    2    0  502 -0.11860047730E+03  0.16781417690E+03 -0.34277328510E+03  0.39965134326E+03  0.00000000000E+00 0.  1.
<mgrwt>
<rscale>  3 0.24052582E+03</rscale>
<asrwt>0</asrwt>
<pdfrwt beam="1">  1       21 0.61610640E-01 0.24052582E+03</pdfrwt>
<pdfrwt beam="2">  1       -2 0.63090561E-01 0.24052582E+03</pdfrwt>
<totfact> 0.46535757E+02</totfact>
</mgrwt>
</event>
<event>
 4    0  0.1426692E-001  0.2545635E+03  0.7546771E-02  0.1110454E+00
         21   -1    0    0  501  502  0.00000000000E+00  0.00000000000E+00  0.62529415255E+03  0.62529415255E+03  0.00000000000E+00 0. -1.
         -1   -1    0    0    0  501 -0.00000000000E+00 -0.00000000000E+00 -0.96597411697E+02  0.96597411697E+02  0.00000000000E+00 0. -1.
         25    1    1    2    0    0  0.21888179848E+03 -0.35613627216E+02  0.19254130046E+03  0.31917820184E+03  0.12500000000E+03 0.  0.
         -1    1    1    2    0  502 -0.21888179848E+03  0.35613627216E+02  0.33615544039E+03  0.40271336240E+03  0.00000000000E+00 0. -1.
<mgrwt>
<rscale>  3 0.25456349E+03</rscale>
<asrwt>0</asrwt>
<pdfrwt beam="1">  1       21 0.96199098E-01 0.25456349E+03</pdfrwt>
<pdfrwt beam="2">  1       -1 0.14861141E-01 0.25456349E+03</pdfrwt>
<totfact> 0.25949665E+03</totfact>
</mgrwt>
</event>
<event>
 4    0  0.1426692E-001  0.2562476E+03  0.7546771E-02  0.1109419E+00
         21   -1    0    0  501  502  0.00000000000E+00  0.00000000000E+00  0.35169545511E+03  0.35169545511E+03  0.00000000000E+00 0.  1.
         -2   -1    0    0    0  501 -0.00000000000E+00 -0.00000000000E+00 -0.20064218610E+03  0.20064218610E+03  0.00000000000E+00 0.  1.
         25    1    1    2    0    0 -0.43124471154E+02 -0.21949508796E+03 -0.38513279680E+02  0.25912561888E+03  0.12500000000E+03 0.  0.
         -2    1    1    2    0  502  0.43124471154E+02  0.21949508796E+03  0.18956654869E+03  0.29321202232E+03  0.00000000000E+00 0.  1.
<mgrwt>
<rscale>  3 0.25624756E+03</rscale>
<asrwt>0</asrwt>
<pdfrwt beam="1">  1       21 0.54106993E-01 0.25624756E+03</pdfrwt>
<pdfrwt beam="2">  1       -2 0.30868029E-01 0.25624756E+03</pdfrwt>
<totfact> 0.24762783E+03</totfact>
</mgrwt>
</event>
<event>
 4    0  0.1426692E-001  0.2475382E+03  0.7546771E-02  0.1114871E+00
         21   -1    0    0  501  502  0.00000000000E+00  0.00000000000E+00  0.32285103639E+02  0.32285103639E+02  0.00000000000E+00 0.  1.
          2   -1    0    0  502    0 -0.00000000000E+00 -0.00000000000E+00 -0.16576111064E+04  0.16576111064E+04  0.00000000000E+00 0.  1.
         25    1    1    2    0    0  0.56795931930E+02 -0.20597175934E+03 -0.93919321607E+03  0.97126671961E+03  0.12500000000E+03 0.  0.
          2    1    1    2  501    0 -0.56795931930E+02  0.20597175934E+03 -0.68613278668E+03  0.71862949040E+03  0.00000000000E+00 0.  1.
<mgrwt>
<rscale>  3 0.24753817E+03</rscale>
<asrwt>0</asrwt>
<pdfrwt beam="1">  1       21 0.49669389E-02 0.24753817E+03</pdfrwt>
<pdfrwt beam="2">  1        2 0.25501710E+00 0.24753817E+03</pdfrwt>
<totfact> 0.38996011E+04</totfact>
</mgrwt>
</event>
<event>
 4    0  0.1426692E-001  0.2413612E+03  0.7546771E-02  0.1118889E+00
         21   -1    0    0  501  502  0.00000000000E+00  0.00000000000E+00  0.11559526880E+03  0.11559526880E+03  0.00000000000E+00 0.  1.
          2   -1    0    0  502    0 -0.00000000000E+00 -0.00000000000E+00 -0.16129898037E+04  0.16129898037E+04  0.00000000000E+00 0. -1.
         25    1    1    2    0    0 -0.51230786154E+02  0.20001411677E+03 -0.25980479783E+02  0.24275548539E+03  0.12500000000E+03 0.  0.
          2    1    1    2  501    0  0.51230786154E+02 -0.20001411677E+03 -0.14714140552E+04  0.14858295872E+04  0.00000000000E+00 0. -1.
<mgrwt>
<rscale>  3 0.24136122E+03</rscale>
<asrwt>0</asrwt>
<pdfrwt beam="1">  1       21 0.17783888E-01 0.24136122E+03</pdfrwt>
<pdfrwt beam="2">  1        2 0.24815227E+00 0.24136122E+03</pdfrwt>
<totfact> 0.43000195E+03</totfact>
</mgrwt>
</event>
<event>
 4    0  0.1426692E-001  0.2593958E+03  0.7546771E-02  0.1107507E+00
          2   -1    0    0  502    0 -0.00000000000E+00  0.00000000000E+00  0.12322088271E+04  0.12322088271E+04  0.00000000000E+00 0. -1.
         21   -1    0    0  501  502  0.00000000000E+00 -0.00000000000E+00 -0.80193625544E+02  0.80193625544E+02  0.00000000000E+00 0.  1.
         25    1    1    2    0    0  0.86470815280E+02  0.21019980329E+03  0.18391743428E+03  0.31798078846E+03  0.12500000000E+03 0.  0.
          2    1    1    2  501    0 -0.86470815280E+02 -0.21019980329E+03  0.96809776724E+03  0.99442166415E+03  0.00000000000E+00 0. -1.
<mgrwt>
<rscale>  3 0.25939576E+03</rscale>
<asrwt>0</asrwt>
<pdfrwt beam="1">  1       21 0.12337482E-01 0.25939576E+03</pdfrwt>
<pdfrwt beam="2">  1        2 0.18957058E+00 0.25939576E+03</pdfrwt>
<totfact> 0.13432096E+04</totfact>
</mgrwt>
</event>
<event>
 4    0  0.1426692E-001  0.3081683E+03  0.7546771E-02  0.1081227E+00
         21   -1    0    0  501  502  0.00000000000E+00  0.00000000000E+00  0.79343650904E+03  0.79343650904E+03  0.00000000000E+00 0.  1.
          1   -1    0    0  502    0 -0.00000000000E+00 -0.00000000000E+00 -0.10553765101E+04  0.10553765101E+04  0.00000000000E+00 0.  1.
         25    1    1    2    0    0 -0.16414098192E+03  0.22891140743E+03  0.74340788059E+03  0.80475025401E+03  0.12500000000E+03 0.  0.
          1    1    1    2  501    0  0.16414098192E+03 -0.22891140743E+03 -0.10053478816E+04  0.10440627651E+04  0.00000000000E+00 0.  1.
<mgrwt>
<rscale>  3 0.30816829E+03</rscale>
<asrwt>0</asrwt>
<pdfrwt beam="1">  1       21 0.12206715E+00 0.30816829E+03</pdfrwt>
<pdfrwt beam="2">  1        1 0.16236562E+00 0.30816829E+03</pdfrwt>
<totfact> 0.76058295E+01</totfact>
</mgrwt>
</event>
<event>
 4    0  0.1426692E-001  0.2752778E+03  0.7546771E-02  0.1098296E+00
          2   -1    0    0  502    0 -0.00000000000E+00  0.00000000000E+00  0.15654028462E+03  0.15654028462E+03  0.00000000000E+00 0. -1.
         21   -1    0    0  501  502  0.00000000000E+00 -0.00000000000E+00 -0.80632608893E+03  0.80632608893E+03  0.00000000000E+00 0. -1.
         25    1    1    2    0    0 -0.23128862629E+03  0.81599372931E+02 -0.66235772599E+03  0.71728351681E+03  0.12500000000E+03 0.  0.
          2    1    1    2  501    0  0.23128862629E+03 -0.81599372931E+02  0.12571921678E+02  0.24558285675E+03  0.00000000000E+00 0. -1.
<mgrwt>
<rscale>  3 0.27527783E+03</rscale>
<asrwt>0</asrwt>
<pdfrwt beam="1">  1       21 0.12405016E+00 0.27527783E+03</pdfrwt>
<pdfrwt beam="2">  1        2 0.24083121E-01 0.27527783E+03</pdfrwt>
<totfact> 0.12920398E+03</totfact>
</mgrwt>
</event>
<event>
 4    0  0.1426692E-001  0.3146083E+03  0.7546771E-02  0.1078158E+00
         21   -1    0    0  501  502  0.00000000000E+00  0.00000000000E+00  0.93695133395E+02  0.93695133395E+02  0.00000000000E+00 0.  1.
         -3   -1    0    0    0  501 -0.00000000000E+00 -0.00000000000E+00 -0.11980938107E+04  0.11980938107E+04  0.00000000000E+00 0.  1.
         25    1    1    2    0    0  0.24237053347E+03 -0.15687541157E+03 -0.29055602262E+03  0.42825363108E+03  0.12500000000E+03 0.  0.
         -3    1    1    2    0  502 -0.24237053347E+03  0.15687541157E+03 -0.81384265472E+03  0.86353531305E+03  0.00000000000E+00 0.  1.
<mgrwt>
<rscale>  3 0.31460828E+03</rscale>
<asrwt>0</asrwt>
<pdfrwt beam="1">  1       21 0.14414636E-01 0.31460828E+03</pdfrwt>
<pdfrwt beam="2">  1       -3 0.18432213E+00 0.31460828E+03</pdfrwt>
<totfact> 0.40930147E+02</totfact>
</mgrwt>
</event>
<event>
 4    0  0.1426692E-001  0.2400486E+03  0.7546771E-02  0.1119760E+00
         21   -1    0    0  501  502  0.00000000000E+00  0.00000000000E+00  0.10898091133E+03  0.10898091133E+03  0.00000000000E+00 0. -1.
         -3   -1    0    0    0  501 -0.00000000000E+00 -0.00000000000E+00 -0.48802540266E+03  0.48802540266E+03  0.00000000000E+00 0.  1.
         25    1    1    2    0    0  0.13588070026E+03 -0.15341050288E+03 -0.12512014038E+03  0.27069982753E+03  0.12500000000E+03 0.  0.
         -3    1    1    2    0  502 -0.13588070026E+03  0.15341050288E+03 -0.25392435095E+03  0.32630648646E+03  0.00000000000E+00 0.  1.
<mgrwt>
<rscale>  3 0.24004863E+03</rscale>
<asrwt>0</asrwt>
<pdfrwt beam="1">  1       21 0.16766294E-01 0.24004863E+03</pdfrwt>
<pdfrwt beam="2">  1       -3 0.75080831E-01 0.24004863E+03</pdfrwt>
<totfact> 0.27079290E+03</totfact>
</mgrwt>
</event>
<event>
 4    0  0.1426692E-001  0.2501846E+03  0.7546771E-02  0.1113188E+00
          2   -1    0    0  502    0 -0.00000000000E+00  0.00000000000E+00  0.96608478797E+03  0.96608478797E+03  0.00000000000E+00 0.  1.
         21   -1    0    0  501  502  0.00000000000E+00 -0.00000000000E+00 -0.95418356809E+02  0.95418356809E+02  0.00000000000E+00 0.  1.
         25    1    1    2    0    0  0.21264652361E+03  0.41818734803E+02  0.11495503320E+03  0.27533072884E+03  0.12500000000E+03 0.  0.
          2    1    1    2  501    0 -0.21264652361E+03 -0.41818734803E+02  0.75571139796E+03  0.78617241594E+03  0.00000000000E+00 0.  1.
<mgrwt>
<rscale>  3 0.25018463E+03</rscale>
<asrwt>0</asrwt>
<pdfrwt beam="1">  1       21 0.14679748E-01 0.25018463E+03</pdfrwt>
<pdfrwt beam="2">  1        2 0.14862842E+00 0.25018463E+03</pdfrwt>
<totfact> 0.14089467E+04</totfact>
</mgrwt>
</event>
<event>
 4    0  0.1426692E-001  0.2887692E+03  0.7546771E-02  0.1090994E+00
          2   -1    0    0  502    0 -0.00000000000E+00  0.00000000000E+00  0.38444147810E+03  0.38444147810E+03  0.00000000000E+00 0.  1.
         21   -1    0    0  501  502  0.00000000000E+00 -0.00000000000E+00 -0.30532850048E+03  0.30532850048E+03  0.00000000000E+00 0. -1.
         25    1    1    2    0    0  0.37555594022E+02 -0.25758921524E+03 -0.16526985593E+03  0.33271872765E+03  0.12500000000E+03 0.  0.
          2    1    1    2  501    0 -0.37555594022E+02  0.25758921524E+03  0.24438283356E+03  0.35705125093E+03  0.00000000000E+00 0.  1.
<mgrwt>
<rscale>  3 0.28876916E+03</rscale>
<asrwt>0</asrwt>
<pdfrwt beam="1">  1       21 0.46973615E-01 0.28876916E+03</pdfrwt>
<pdfrwt beam="2">  1        2 0.59144843E-01 0.28876916E+03</pdfrwt>
<totfact> 0.43854929E+03</totfact>
</mgrwt>
</event>
<event>
 4    0  0.1426692E-001  0.3093202E+03  0.7546771E-02  0.1080672E+00
          1   -1    0    0  502    0 -0.00000000000E+00  0.00000000000E+00  0.40063754449E+04  0.40063754449E+04  0.00000000000E+00 0. -1.
         21   -1    0    0  501  502  0.00000000000E+00 -0.00000000000E+00 -0.15914651682E+03  0.15914651682E+03  0.00000000000E+00 0. -1.
         25    1    1    2    0    0  0.11116760172E+03 -0.26018403688E+03  0.14243329369E+01  0.30932345117E+03  0.12500000000E+03 0.  0.
          1    1    1    2  501    0 -0.11116760172E+03  0.26018403688E+03  0.38458045951E+04  0.38561985105E+04  0.00000000000E+00 0. -1.
<mgrwt>
<rscale>  3 0.30932017E+03</rscale>
<asrwt>0</asrwt>
<pdfrwt beam="1">  1       21 0.24484083E-01 0.30932017E+03</pdfrwt>
<pdfrwt beam="2">  1        1 0.61636538E+00 0.30932017E+03</pdfrwt>
<totfact> 0.20681811E+01</totfact>
</mgrwt>
</event>
<event>
 4    0  0.1426692E-001  0.2610570E+03  0.7546771E-02  0.1106510E+00
         21   -1    0    0  501  502  0.00000000000E+00  0.00000000000E+00  0.60212366211E+03  0.60212366211E+03  0.00000000000E+00 0. -1.
         -1   -1    0    0    0  501 -0.00000000000E+00 -0.00000000000E+00 -0.16171564746E+03  0.16171564746E+03  0.00000000000E+00 0. -1.
         25    1    1    2    0    0 -0.20236400693E+03  0.10758519387E+03  0.46507126546E+03  0.53333108591E+03  0.12500000000E+03 0.  0.
         -1    1    1    2    0  502  0.20236400693E+03 -0.10758519387E+03 -0.24663250808E+02  0.23050822367E+03  0.00000000000E+00 0. -1.
<mgrwt>
<rscale>  3 0.26105702E+03</rscale>
<asrwt>0</asrwt>
<pdfrwt beam="1">  1       21 0.92634409E-01 0.26105702E+03</pdfrwt>
<pdfrwt beam="2">  1       -1 0.24879331E-01 0.26105702E+03</pdfrwt>
<totfact> 0.12249635E+03</totfact>
</mgrwt>
</event>
<event>
 4    0  0.1426692E-001  0.2521687E+03  0.7546771E-02  0.1111942E+00
         21   -1    0    0  501  502  0.00000000000E+00  0.00000000000E+00  0.30742191751E+02  0.30742191751E+02  0.00000000000E+00 0.  1.
          2   -1    0    0  502    0 -0.00000000000E+00 -0.00000000000E+00 -0.26854679796E+04  0.26854679796E+04  0.00000000000E+00 0.  1.
         25    1    1    2    0    0 -0.11959529307E+03  0.18346937436E+03 -0.61399266529E+03  0.66375902139E+03  0.12500000000E+03 0.  0.
          2    1    1    2  501    0  0.11959529307E+03 -0.18346937436E+03 -0.20407331225E+04  0.20524511499E+04  0.00000000000E+00 0.  1.
<mgrwt>
<rscale>  3 0.25216868E+03</rscale>
<asrwt>0</asrwt>
<pdfrwt beam="1">  1       21 0.47295673E-02 0.25216868E+03</pdfrwt>
<pdfrwt beam="2">  1        2 0.41314898E+00 0.25216868E+03</pdfrwt>
<totfact> 0.11957297E+04</totfact>
</mgrwt>
</event>
<event>
 4    0  0.1426692E-001  0.2370099E+03  0.7546771E-02  0.1121801E+00
          2   -1    0    0  502    0 -0.00000000000E+00  0.00000000000E+00  0.11084121593E+03  0.11084121593E+03  0.00000000000E+00 0. -1.
         21   -1    0    0  501  502  0.00000000000E+00 -0.00000000000E+00 -0.45377507911E+03  0.45377507911E+03  0.00000000000E+00 0. -1.
         25    1    1    2    0    0 -0.19685749402E+03  0.42377081300E+02 -0.24434929153E+03  0.34041190673E+03  0.12500000000E+03 0.  0.
          2    1    1    2  501    0  0.19685749402E+03 -0.42377081300E+02 -0.98584571648E+02  0.22420438831E+03  0.00000000000E+00 0. -1.
<mgrwt>
<rscale>  3 0.23700989E+03</rscale>
<asrwt>0</asrwt>
<pdfrwt beam="1">  1       21 0.69811553E-01 0.23700989E+03</pdfrwt>
<pdfrwt beam="2">  1        2 0.17052494E-01 0.23700989E+03</pdfrwt>
<totfact> 0.75310529E+03</totfact>
</mgrwt>
</event>
<event>
 4    0  0.1426692E-001  0.2731795E+03  0.7546771E-02  0.1099474E+00
         -1   -1    0    0    0  501 -0.00000000000E+00  0.00000000000E+00  0.24438121372E+03  0.24438121372E+03  0.00000000000E+00 0.  1.
         21   -1    0    0  501  502  0.00000000000E+00 -0.00000000000E+00 -0.64736182144E+03  0.64736182144E+03  0.00000000000E+00 0. -1.
         25    1    1    2    0    0  0.23400729748E+03  0.65135424209E+02 -0.54552585900E+03  0.61010286149E+03  0.12500000000E+03 0.  0.
         -1    1    1    2    0  502 -0.23400729748E+03 -0.65135424209E+02  0.14254525128E+03  0.28164017367E+03  0.00000000000E+00 0.  1.
<mgrwt>
<rscale>  3 0.27317950E+03</rscale>
<asrwt>0</asrwt>
<pdfrwt beam="1">  1       21 0.99594126E-01 0.27317950E+03</pdfrwt>
<pdfrwt beam="2">  1       -1 0.37597110E-01 0.27317950E+03</pdfrwt>
<totfact> 0.50653634E+02</totfact>
</mgrwt>
</event>
<event>
 4    0  0.1426692E-001  0.2574430E+03  0.7546771E-02  0.1108689E+00
          1   -1    0    0  502    0 -0.00000000000E+00  0.00000000000E+00  0.30792194411E+03  0.30792194411E+03  0.00000000000E+00 0.  1.
         21   -1    0    0  501  502  0.00000000000E+00 -0.00000000000E+00 -0.18959368841E+03  0.18959368841E+03  0.00000000000E+00 0.  1.
         25    1    1    2    0    0  0.20946922920E+03  0.82307502812E+02  0.49423959310E+02  0.26214425562E+03  0.12500000000E+03 0.  0.
          1    1    1    2  501    0 -0.20946922920E+03 -0.82307502812E+02  0.68904296395E+02  0.23537137690E+03  0.00000000000E+00 0.  1.
<mgrwt>
<rscale>  3 0.25744297E+03</rscale>
<asrwt>0</asrwt>
<pdfrwt beam="1">  1       21 0.29168260E-01 0.25744297E+03</pdfrwt>
<pdfrwt beam="2">  1        1 0.47372607E-01 0.25744297E+03</pdfrwt>
<totfact> 0.10306686E+04</totfact>
</mgrwt>
</event>
<event>
 4    0  0.1426692E-001  0.3964266E+03  0.7546771E-02  0.1045024E+00
         21   -1    0    0  501  502  0.00000000000E+00  0.00000000000E+00  0.13221309775E+03  0.13221309775E+03  0.00000000000E+00 0. -1.
          2   -1    0    0  502    0 -0.00000000000E+00 -0.00000000000E+00 -0.18571466867E+04  0.18571466867E+04  0.00000000000E+00 0. -1.
         25    1    1    2    0    0  0.52876881905E+02  0.37246890574E+03 -0.25339244950E+03  0.47049100294E+03  0.12500000000E+03 0.  0.
          2    1    1    2  501    0 -0.52876881905E+02 -0.37246890574E+03 -0.14715411394E+04  0.15188687815E+04  0.00000000000E+00 0. -1.
<mgrwt>
<rscale>  3 0.39642660E+03</rscale>
<asrwt>0</asrwt>
<pdfrwt beam="1">  1       21 0.20340479E-01 0.39642660E+03</pdfrwt>
<pdfrwt beam="2">  1        2 0.28571485E+00 0.39642660E+03</pdfrwt>
<totfact> 0.23545599E+03</totfact>
</mgrwt>
</event>
<event>
 4    0  0.1426692E-001  0.2826659E+03  0.7546771E-02  0.1094242E+00
          2   -1    0    0  502    0 -0.00000000000E+00  0.00000000000E+00  0.18614526134E+04  0.18614526134E+04  0.00000000000E+00 0.  1.
         21   -1    0    0  501  502  0.00000000000E+00 -0.00000000000E+00 -0.53302961383E+02  0.53302961383E+02  0.00000000000E+00 0.  1.
         25    1    1    2    0    0  0.13786257278E+03 -0.21276496947E+03  0.14417339697E+04  0.14691823783E+04  0.12500000000E+03 0.  0.
          2    1    1    2  501    0 -0.13786257278E+03  0.21276496947E+03  0.36641568229E+03  0.44557319649E+03  0.00000000000E+00 0.  1.
<mgrwt>
<rscale>  3 0.28266592E+03</rscale>
<asrwt>0</asrwt>
<pdfrwt beam="1">  1       21 0.82004570E-02 0.28266592E+03</pdfrwt>
<pdfrwt beam="2">  1        2 0.28637728E+00 0.28266592E+03</pdfrwt>
<totfact> 0.12687486E+04</totfact>
</mgrwt>
</event>
<event>
 4    0  0.1426692E-001  0.3075291E+03  0.7546771E-02  0.1081536E+00
         21   -1    0    0  501  502  0.00000000000E+00  0.00000000000E+00  0.10941472373E+03  0.10941472373E+03  0.00000000000E+00 0.  1.
          1   -1    0    0  502    0 -0.00000000000E+00 -0.00000000000E+00 -0.17092425722E+04  0.17092425722E+04  0.00000000000E+00 0.  1.
         25    1    1    2    0    0  0.19135954345E+03  0.20574422739E+03 -0.14826768090E+04  0.15142340248E+04  0.12500000000E+03 0.  0.
          1    1    1    2  501    0 -0.19135954345E+03 -0.20574422739E+03 -0.11715103954E+03  0.30442327118E+03  0.00000000000E+00 0.  1.
<mgrwt>
<rscale>  3 0.30752912E+03</rscale>
<asrwt>0</asrwt>
<pdfrwt beam="1">  1       21 0.16833035E-01 0.30752912E+03</pdfrwt>
<pdfrwt beam="2">  1        1 0.26296039E+00 0.30752912E+03</pdfrwt>
<totfact> 0.17919617E+03</totfact>
</mgrwt>
</event>
<event>
 4    0  0.1426692E-001  0.2365269E+03  0.7546771E-02  0.1122128E+00
          1   -1    0    0  502    0 -0.00000000000E+00  0.00000000000E+00  0.18411037751E+04  0.18411037751E+04  0.00000000000E+00 0.  1.
         21   -1    0    0  501  502  0.00000000000E+00 -0.00000000000E+00 -0.68822757005E+02  0.68822757005E+02  0.00000000000E+00 0. -1.
         25    1    1    2    0    0 -0.76244743056E+02  0.18575982635E+03  0.16086124445E+03  0.28604425164E+03  0.12500000000E+03 0.  0.
          1    1    1    2  501    0  0.76244743056E+02 -0.18575982635E+03  0.16114197737E+04  0.16238822805E+04  0.00000000000E+00 0.  1.
<mgrwt>
<rscale>  3 0.23652690E+03</rscale>
<asrwt>0</asrwt>
<pdfrwt beam="1">  1       21 0.10588118E-01 0.23652690E+03</pdfrwt>
<pdfrwt beam="2">  1        1 0.28324670E+00 0.23652690E+03</pdfrwt>
<totfact> 0.35118639E+03</totfact>
</mgrwt>
</event>
<event>
 4    0  0.1426692E-001  0.4020814E+03  0.7546771E-02  0.1043061E+00
         21   -1    0    0  501  502  0.00000000000E+00  0.00000000000E+00  0.52208990180E+02  0.52208990180E+02  0.00000000000E+00 0. -1.
          2   -1    0    0  502    0 -0.00000000000E+00 -0.00000000000E+00 -0.30562074692E+04  0.30562074692E+04  0.00000000000E+00 0. -1.
         25    1    1    2    0    0 -0.38199864453E+03 -0.11021798993E+02 -0.12424462891E+04  0.13058875242E+04  0.12500000000E+03 0.  0.
          2    1    1    2  501    0  0.38199864453E+03  0.11021798993E+02 -0.17615521899E+04  0.18025289352E+04  0.00000000000E+00 0. -1.
<mgrwt>
<rscale>  3 0.40208139E+03</rscale>
<asrwt>0</asrwt>
<pdfrwt beam="1">  1       21 0.80321494E-02 0.40208139E+03</pdfrwt>
<pdfrwt beam="2">  1        2 0.47018594E+00 0.40208139E+03</pdfrwt>
<totfact> 0.27537185E+03</totfact>
</mgrwt>
</event>
<event>
 4    0  0.1426692E-001  0.3779016E+03  0.7546771E-02  0.1051712E+00
         21   -1    0    0  501  502  0.00000000000E+00  0.00000000000E+00  0.85097877725E+03  0.85097877725E+03  0.00000000000E+00 0. -1.
         -1   -1    0    0    0  501 -0.00000000000E+00 -0.00000000000E+00 -0.17871276725E+03  0.17871276725E+03  0.00000000000E+00 0. -1.
         25    1    1    2    0    0 -0.35370103342E+03  0.45609194805E+02  0.51782879606E+03  0.64105871940E+03  0.12500000000E+03 0.  0.
         -1    1    1    2    0  502  0.35370103342E+03 -0.45609194805E+02  0.15443721394E+03  0.38863282510E+03  0.00000000000E+00 0. -1.
<mgrwt>
<rscale>  3 0.37790160E+03</rscale>
<asrwt>0</asrwt>
<pdfrwt beam="1">  1       21 0.13091981E+00 0.37790160E+03</pdfrwt>
<pdfrwt beam="2">  1       -1 0.27494272E-01 0.37790160E+03</pdfrwt>
<totfact> 0.42617227E+02</totfact>
</mgrwt>
</event>
<event>
 4    0  0.1426692E-001  0.2676614E+03  0.7546771E-02  0.1102626E+00
          2   -1    0    0  502    0 -0.00000000000E+00  0.00000000000E+00  0.76371032673E+03  0.76371032673E+03  0.00000000000E+00 0. -1.
         21   -1    0    0  501  502  0.00000000000E+00 -0.00000000000E+00 -0.10317112145E+03  0.10317112145E+03  0.00000000000E+00 0. -1.
         25    1    1    2    0    0  0.83101508601E+02  0.22161179907E+03  0.15654240835E+03  0.31007769321E+03  0.12500000000E+03 0.  0.
          2    1    1    2  501    0 -0.83101508601E+02 -0.22161179907E+03  0.50399679693E+03  0.55680375496E+03  0.00000000000E+00 0. -1.
<mgrwt>
<rscale>  3 0.26766145E+03</rscale>
<asrwt>0</asrwt>
<pdfrwt beam="1">  1       21 0.15872481E-01 0.26766145E+03</pdfrwt>
<pdfrwt beam="2">  1        2 0.11749389E+00 0.26766145E+03</pdfrwt>
<totfact> 0.16578869E+04</totfact>
</mgrwt>
</event>
<event>
 4    0  0.1426692E-001  0.2912005E+03  0.7546771E-02  0.1089724E+00
          2   -1    0    0  502    0 -0.00000000000E+00  0.00000000000E+00  0.22400852702E+04  0.22400852702E+04  0.00000000000E+00 0. -1.
         21   -1    0    0  501  502  0.00000000000E+00 -0.00000000000E+00 -0.37156441591E+02  0.37156441591E+02  0.00000000000E+00 0.  1.
         25    1    1    2    0    0  0.26258959891E+03  0.14814208897E+02  0.83664447914E+03  0.88587343493E+03  0.12500000000E+03 0.  0.
          2    1    1    2  501    0 -0.26258959891E+03 -0.14814208897E+02  0.13662843495E+04  0.13913682769E+04  0.00000000000E+00 0. -1.
<mgrwt>
<rscale>  3 0.29120055E+03</rscale>
<asrwt>0</asrwt>
<pdfrwt beam="1">  1       21 0.57163774E-02 0.29120055E+03</pdfrwt>
<pdfrwt beam="2">  1        2 0.34462840E+00 0.29120055E+03</pdfrwt>
<totfact> 0.14949431E+04</totfact>
</mgrwt>
</event>
<event>
 4    0  0.1426692E-001  0.3012302E+03  0.7546771E-02  0.1084627E+00
         -1   -1    0    0    0  501 -0.00000000000E+00  0.00000000000E+00  0.16876307914E+04  0.16876307914E+04  0.00000000000E+00 0.  1.
         21   -1    0    0  501  502  0.00000000000E+00 -0.00000000000E+00 -0.22491327829E+03  0.22491327829E+03  0.00000000000E+00 0.  1.
         25    1    1    2    0    0  0.92191830147E+02 -0.25809936978E+03 -0.10655311396E+03  0.31952024086E+03  0.12500000000E+03 0.  0.
         -1    1    1    2    0  502 -0.92191830147E+02  0.25809936978E+03  0.15692706270E+04  0.15930238288E+04  0.00000000000E+00 0.  1.
<mgrwt>
<rscale>  3 0.30123017E+03</rscale>
<asrwt>0</asrwt>
<pdfrwt beam="1">  1       21 0.34602044E-01 0.30123017E+03</pdfrwt>
<pdfrwt beam="2">  1       -1 0.25963550E+00 0.30123017E+03</pdfrwt>
<totfact> 0.49896138E+01</totfact>
</mgrwt>
</event>
<event>
 4    0  0.1426692E-001  0.2715166E+03  0.7546771E-02  0.1100415E+00
          2   -1    0    0  502    0 -0.00000000000E+00  0.00000000000E+00  0.31281973101E+03  0.31281973101E+03  0.00000000000E+00 0. -1.
         21   -1    0    0  501  502  0.00000000000E+00 -0.00000000000E+00 -0.20996260453E+03  0.20996260453E+03  0.00000000000E+00 0. -1.
         25    1    1    2    0    0  0.23407568790E+03  0.57487898335E+02  0.56521443907E+02  0.27733726714E+03  0.12500000000E+03 0.  0.
          2    1    1    2  501    0 -0.23407568790E+03 -0.57487898335E+02  0.46335682574E+02  0.24544506840E+03  0.00000000000E+00 0. -1.
<mgrwt>
<rscale>  3 0.27151664E+03</rscale>
<asrwt>0</asrwt>
<pdfrwt beam="1">  1       21 0.32301939E-01 0.27151664E+03</pdfrwt>
<pdfrwt beam="2">  1        2 0.48126112E-01 0.27151664E+03</pdfrwt>
<totfact> 0.11784703E+04</totfact>
</mgrwt>
</event>
<event>
 4    0  0.1426692E-001  0.2647291E+03  0.7546771E-02  0.1104335E+00
         21   -1    0    0  501  502  0.00000000000E+00  0.00000000000E+00  0.12041132164E+03  0.12041132164E+03  0.00000000000E+00 0. -1.
          2   -1    0    0  502    0 -0.00000000000E+00 -0.00000000000E+00 -0.88500794880E+03  0.88500794880E+03  0.00000000000E+00 0.  1.
         25    1    1    2    0    0 -0.23285017303E+03  0.15404365334E+02 -0.71678668076E+02  0.27426142457E+03  0.12500000000E+03 0.  0.
          2    1    1    2  501    0  0.23285017303E+03 -0.15404365334E+02 -0.69291795909E+03  0.73115784587E+03  0.00000000000E+00 0.  1.
<mgrwt>
<rscale>  3 0.26472910E+03</rscale>
<asrwt>0</asrwt>
<pdfrwt beam="1">  1       21 0.18524819E-01 0.26472910E+03</pdfrwt>
<pdfrwt beam="2">  1        2 0.13615507E+00 0.26472910E+03</pdfrwt>
<totfact> 0.10293253E+04</totfact>
</mgrwt>
</event>
<event>
 4    0  0.1426692E-001  0.2529243E+03  0.7546771E-02  0.1111471E+00
         21   -1    0    0  501  502  0.00000000000E+00  0.00000000000E+00  0.89548402515E+02  0.89548402515E+02  0.00000000000E+00 0. -1.
          1   -1    0    0  502    0 -0.00000000000E+00 -0.00000000000E+00 -0.11062433601E+04  0.11062433601E+04  0.00000000000E+00 0. -1.
         25    1    1    2    0    0  0.21807857807E+03 -0.28061516789E+02 -0.13420880035E+03  0.28632624230E+03  0.12500000000E+03 0.  0.
          1    1    1    2  501    0 -0.21807857807E+03  0.28061516789E+02 -0.88248615726E+03  0.90946552034E+03  0.00000000000E+00 0. -1.
<mgrwt>
<rscale>  3 0.25292433E+03</rscale>
<asrwt>0</asrwt>
<pdfrwt beam="1">  1       21 0.13776677E-01 0.25292433E+03</pdfrwt>
<pdfrwt beam="2">  1        1 0.17019129E+00 0.25292433E+03</pdfrwt>
<totfact> 0.67565759E+03</totfact>
</mgrwt>
</event>
<event>
 4    0  0.1426692E-001  0.3025204E+03  0.7546771E-02  0.1083987E+00
          2   -1    0    0  502    0 -0.00000000000E+00  0.00000000000E+00  0.20789436831E+04  0.20789436831E+04  0.00000000000E+00 0. -1.
         21   -1    0    0  501  502  0.00000000000E+00 -0.00000000000E+00 -0.41541922264E+02  0.41541922264E+02  0.00000000000E+00 0. -1.
         25    1    1    2    0    0  0.14869816290E+02  0.27508634115E+03  0.87271920381E+03  0.92366520733E+03  0.12500000000E+03 0.  0.
          2    1    1    2  501    0 -0.14869816290E+02 -0.27508634115E+03  0.11646825570E+04  0.11968203980E+04  0.00000000000E+00 0. -1.
<mgrwt>
<rscale>  3 0.30252042E+03</rscale>
<asrwt>0</asrwt>
<pdfrwt beam="1">  1       21 0.63910666E-02 0.30252042E+03</pdfrwt>
<pdfrwt beam="2">  1        2 0.31983741E+00 0.30252042E+03</pdfrwt>
<totfact> 0.14974904E+04</totfact>
</mgrwt>
</event>
<event>
 4    0  0.1426692E-001  0.2460036E+03  0.7546771E-02  0.1115857E+00
         21   -1    0    0  501  502  0.00000000000E+00  0.00000000000E+00  0.57043718876E+02  0.57043718876E+02  0.00000000000E+00 0.  1.
         -3   -1    0    0    0  501 -0.00000000000E+00 -0.00000000000E+00 -0.10795280339E+04  0.10795280339E+04  0.00000000000E+00 0.  1.
         25    1    1    2    0    0  0.17829606799E+03  0.11446965111E+03 -0.32494124645E+03  0.40755932394E+03  0.12500000000E+03 0.  0.
         -3    1    1    2    0  502 -0.17829606799E+03 -0.11446965111E+03 -0.69754306862E+03  0.72901242888E+03  0.00000000000E+00 0.  1.
<mgrwt>
<rscale>  3 0.24600364E+03</rscale>
<asrwt>0</asrwt>
<pdfrwt beam="1">  1       21 0.87759567E-02 0.24600364E+03</pdfrwt>
<pdfrwt beam="2">  1       -3 0.16608124E+00 0.24600364E+03</pdfrwt>
<totfact> 0.13292299E+03</totfact>
</mgrwt>
</event>
<event>
 4    0  0.1426692E-001  0.3895265E+03  0.7546771E-02  0.1047468E+00
         21   -1    0    0  501  502  0.00000000000E+00  0.00000000000E+00  0.84784716294E+02  0.84784716294E+02  0.00000000000E+00 0. -1.
          2   -1    0    0  502    0 -0.00000000000E+00 -0.00000000000E+00 -0.32282735107E+04  0.32282735107E+04  0.00000000000E+00 0. -1.
         25    1    1    2    0    0  0.36794635074E+03  0.26858562529E+02 -0.45322006413E+03  0.59761135024E+03  0.12500000000E+03 0.  0.
          2    1    1    2  501    0 -0.36794635074E+03 -0.26858562529E+02 -0.26902687303E+04  0.27154468768E+04  0.00000000000E+00 0. -1.
<mgrwt>
<rscale>  3 0.38952651E+03</rscale>
<asrwt>0</asrwt>
<pdfrwt beam="1">  1       21 0.13043802E-01 0.38952651E+03</pdfrwt>
<pdfrwt beam="2">  1        2 0.49665748E+00 0.38952651E+03</pdfrwt>
<totfact> 0.90603908E+02</totfact>
</mgrwt>
</event>
<event>
 4    0  0.1426692E-001  0.2593322E+03  0.7546771E-02  0.1107545E+00
          2   -1    0    0  502    0 -0.00000000000E+00  0.00000000000E+00  0.83222357615E+03  0.83222357615E+03  0.00000000000E+00 0.  1.
         21   -1    0    0  501  502  0.00000000000E+00 -0.00000000000E+00 -0.37221269918E+03  0.37221269918E+03  0.00000000000E+00 0.  1.
         25    1    1    2    0    0  0.13306996172E+03  0.18417532705E+03 -0.30851097164E+03  0.40302876501E+03  0.12500000000E+03 0.  0.
          2    1    1    2  501    0 -0.13306996172E+03 -0.18417532705E+03  0.76852184861E+03  0.80140751032E+03  0.00000000000E+00 0.  1.
<mgrwt>
<rscale>  3 0.25933215E+03</rscale>
<asrwt>0</asrwt>
<pdfrwt beam="1">  1       21 0.57263492E-01 0.25933215E+03</pdfrwt>
<pdfrwt beam="2">  1        2 0.12803440E+00 0.25933215E+03</pdfrwt>
<totfact> 0.11827339E+03</totfact>
</mgrwt>
</event>
<event>
 4    0  0.1426692E-001  0.2512103E+03  0.7546771E-02  0.1112542E+00
         21   -1    0    0  501  502  0.00000000000E+00  0.00000000000E+00  0.18239602310E+04  0.18239602310E+04  0.00000000000E+00 0. -1.
          3   -1    0    0  502    0 -0.00000000000E+00 -0.00000000000E+00 -0.34173880553E+02  0.34173880553E+02  0.00000000000E+00 0. -1.
         25    1    1    2    0    0 -0.37600121027E+02 -0.21463420141E+03  0.12685395732E+04  0.12931741020E+04  0.12500000000E+03 0.  0.
          3    1    1    2  501    0  0.37600121027E+02  0.21463420141E+03  0.52124677731E+03  0.56496000953E+03  0.00000000000E+00 0. -1.
<mgrwt>
<rscale>  3 0.25121029E+03</rscale>
<asrwt>0</asrwt>
<pdfrwt beam="1">  1       21 0.28060919E+00 0.25121029E+03</pdfrwt>
<pdfrwt beam="2">  1        3 0.52575215E-02 0.25121029E+03</pdfrwt>
<totfact> 0.44270328E+02</totfact>
</mgrwt>
</event>
<event>
 4    0  0.1426692E-001  0.2376656E+03  0.7546771E-02  0.1121358E+00
         21   -1    0    0  501  502  0.00000000000E+00  0.00000000000E+00  0.20965607659E+02  0.20965607659E+02  0.00000000000E+00 0. -1.
         -1   -1    0    0    0  501 -0.00000000000E+00 -0.00000000000E+00 -0.26695950120E+04  0.26695950120E+04  0.00000000000E+00 0. -1.
         25    1    1    2    0    0  0.20207477337E+03 -0.50704980594E+01 -0.19114860978E+04  0.19262045650E+04  0.12500000000E+03 0.  0.
         -1    1    1    2    0  502 -0.20207477337E+03  0.50704980594E+01 -0.73714330657E+03  0.76435605473E+03  0.00000000000E+00 0. -1.
<mgrwt>
<rscale>  3 0.23766557E+03</rscale>
<asrwt>0</asrwt>
<pdfrwt beam="1">  1       21 0.32254761E-02 0.23766557E+03</pdfrwt>
<pdfrwt beam="2">  1       -1 0.41070718E+00 0.23766557E+03</pdfrwt>
<totfact> 0.39902513E+02</totfact>
</mgrwt>
</event>
<event>
 4    0  0.1426692E-001  0.3961654E+03  0.7546771E-02  0.1045116E+00
         21   -1    0    0  501  502  0.00000000000E+00  0.00000000000E+00  0.70880500259E+03  0.70880500259E+03  0.00000000000E+00 0. -1.
          1   -1    0    0  502    0 -0.00000000000E+00 -0.00000000000E+00 -0.24302100678E+03  0.24302100678E+03  0.00000000000E+00 0.  1.
         25    1    1    2    0    0 -0.17603358966E+02 -0.37551588122E+03  0.41286256270E+03  0.57219100917E+03  0.12500000000E+03 0.  0.
          1    1    1    2  501    0  0.17603358966E+02  0.37551588122E+03  0.52921433116E+02  0.37963500020E+03  0.00000000000E+00 0.  1.
<mgrwt>
<rscale>  3 0.39616544E+03</rscale>
<asrwt>0</asrwt>
<pdfrwt beam="1">  1       21 0.10904692E+00 0.39616544E+03</pdfrwt>
<pdfrwt beam="2">  1        1 0.37387847E-01 0.39616544E+03</pdfrwt>
<totfact> 0.76946427E+02</totfact>
</mgrwt>
</event>
<event>
 4    0  0.1426692E-001  0.2589837E+03  0.7546771E-02  0.1107755E+00
          1   -1    0    0  502    0 -0.00000000000E+00  0.00000000000E+00  0.75520289882E+03  0.75520289882E+03  0.00000000000E+00 0. -1.
         21   -1    0    0  501  502  0.00000000000E+00 -0.00000000000E+00 -0.40842184089E+03  0.40842184089E+03  0.00000000000E+00 0. -1.
         25    1    1    2    0    0  0.21888916061E+03 -0.59456723641E+02 -0.34740848916E+03  0.43331884907E+03  0.12500000000E+03 0.  0.
          1    1    1    2  501    0 -0.21888916061E+03  0.59456723641E+02  0.69418954708E+03  0.73030589064E+03  0.00000000000E+00 0. -1.
<mgrwt>
<rscale>  3 0.25898372E+03</rscale>
<asrwt>0</asrwt>
<pdfrwt beam="1">  1       21 0.62834129E-01 0.25898372E+03</pdfrwt>
<pdfrwt beam="2">  1        1 0.11618506E+00 0.25898372E+03</pdfrwt>
<totfact> 0.63590254E+02</totfact>
</mgrwt>
</event>
<event>
 4    0  0.1426692E-001  0.2387161E+03  0.7546771E-02  0.1120651E+00
          1   -1    0    0  502    0 -0.00000000000E+00  0.00000000000E+00  0.11497458579E+03  0.11497458579E+03  0.00000000000E+00 0.  1.
         21   -1    0    0  501  502  0.00000000000E+00 -0.00000000000E+00 -0.42733754321E+03  0.42733754321E+03  0.00000000000E+00 0.  1.
         25    1    1    2    0    0 -0.88138563921E+00  0.20337059585E+03 -0.18872323088E+03  0.30430549448E+03  0.12500000000E+03 0.  0.
          1    1    1    2  501    0  0.88138563921E+00 -0.20337059585E+03 -0.12363972654E+03  0.23800663452E+03  0.00000000000E+00 0.  1.
<mgrwt>
<rscale>  3 0.23871610E+03</rscale>
<asrwt>0</asrwt>
<pdfrwt beam="1">  1       21 0.65744238E-01 0.23871610E+03</pdfrwt>
<pdfrwt beam="2">  1        1 0.17688398E-01 0.23871610E+03</pdfrwt>
<totfact> 0.67712382E+03</totfact>
</mgrwt>
</event>
<event>
 4    0  0.1426692E-001  0.2408077E+03  0.7546771E-02  0.1119256E+00
          1   -1    0    0  502    0 -0.00000000000E+00  0.00000000000E+00  0.70613295209E+03  0.70613295209E+03  0.00000000000E+00 0. -1.
         21   -1    0    0  501  502  0.00000000000E+00 -0.00000000000E+00 -0.72712319518E+02  0.72712319518E+02  0.00000000000E+00 0. -1.
         25    1    1    2    0    0  0.20469833013E+03 -0.21493234279E+02  0.27500569850E+03  0.36553590752E+03  0.12500000000E+03 0.  0.
          1    1    1    2  501    0 -0.20469833013E+03  0.21493234279E+02  0.35841493408E+03  0.41330936409E+03  0.00000000000E+00 0. -1.
<mgrwt>
<rscale>  3 0.24080774E+03</rscale>
<asrwt>0</asrwt>
<pdfrwt beam="1">  1       21 0.11186511E-01 0.24080774E+03</pdfrwt>
<pdfrwt beam="2">  1        1 0.10863583E+00 0.24080774E+03</pdfrwt>
<totfact> 0.20456682E+04</totfact>
</mgrwt>
</event>
<event>
 4    0  0.1426692E-001  0.2375138E+03  0.7546771E-02  0.1121460E+00
          1   -1    0    0  502    0 -0.00000000000E+00  0.00000000000E+00  0.29932126602E+04  0.29932126602E+04  0.00000000000E+00 0.  1.
         21   -1    0    0  501  502  0.00000000000E+00 -0.00000000000E+00 -0.81795149281E+02  0.81795149281E+02  0.00000000000E+00 0.  1.
         25    1    1    2    0    0  0.52111242423E+02 -0.19512100557E+03  0.10224717131E+03  0.25858706936E+03  0.12500000000E+03 0.  0.
          1    1    1    2  501    0 -0.52111242423E+02  0.19512100557E+03  0.28091703396E+04  0.28164207401E+04  0.00000000000E+00 0.  1.
<mgrwt>
<rscale>  3 0.23751376E+03</rscale>
<asrwt>0</asrwt>
<pdfrwt beam="1">  1       21 0.12583871E-01 0.23751376E+03</pdfrwt>
<pdfrwt beam="2">  1        1 0.46049417E+00 0.23751376E+03</pdfrwt>
<totfact> 0.44333467E+02</totfact>
</mgrwt>
</event>
<event>
 4    0  0.1426692E-001  0.4609707E+03  0.7546771E-02  0.1024500E+00
         21   -1    0    0  501  502  0.00000000000E+00  0.00000000000E+00  0.10001796249E+04  0.10001796249E+04  0.00000000000E+00 0.  1.
          2   -1    0    0  502    0 -0.00000000000E+00 -0.00000000000E+00 -0.24275291244E+04  0.24275291244E+04  0.00000000000E+00 0.  1.
         25    1    1    2    0    0  0.21994840317E+03 -0.38534614786E+03  0.92520310753E+03  0.10336801942E+04  0.12500000000E+03 0.  0.
          2    1    1    2  501    0 -0.21994840317E+03  0.38534614786E+03 -0.23525526070E+04  0.23940285551E+04  0.00000000000E+00 0.  1.
<mgrwt>
<rscale>  3 0.46097066E+03</rscale>
<asrwt>0</asrwt>
<pdfrwt beam="1">  1       21 0.15387379E+00 0.46097066E+03</pdfrwt>
<pdfrwt beam="2">  1        2 0.37346602E+00 0.46097066E+03</pdfrwt>
<totfact> 0.12838877E+01</totfact>
</mgrwt>
</event>
<event>
 4    0  0.1426692E-001  0.3223038E+03  0.7546771E-02  0.1074594E+00
         -3   -1    0    0    0  501 -0.00000000000E+00  0.00000000000E+00  0.31221282265E+03  0.31221282265E+03  0.00000000000E+00 0.  1.
         21   -1    0    0  501  502  0.00000000000E+00 -0.00000000000E+00 -0.62055303372E+03  0.62055303372E+03  0.00000000000E+00 0. -1.
         25    1    1    2    0    0  0.20713641096E+03 -0.21295364198E+03 -0.48856196697E+03  0.58529696902E+03  0.12500000000E+03 0.  0.
         -3    1    1    2    0  502 -0.20713641096E+03  0.21295364198E+03  0.18022175589E+03  0.34746888735E+03  0.00000000000E+00 0.  1.
<mgrwt>
<rscale>  3 0.32230381E+03</rscale>
<asrwt>0</asrwt>
<pdfrwt beam="1">  1       21 0.95469697E-01 0.32230381E+03</pdfrwt>
<pdfrwt beam="2">  1       -3 0.48032742E-01 0.32230381E+03</pdfrwt>
<totfact> 0.18891410E+02</totfact>
</mgrwt>
</event>
<event>
 4    0  0.1426692E-001  0.2619026E+03  0.7546771E-02  0.1106005E+00
          2   -1    0    0  502    0 -0.00000000000E+00  0.00000000000E+00  0.13368135549E+04  0.13368135549E+04  0.00000000000E+00 0.  1.
         21   -1    0    0  501  502  0.00000000000E+00 -0.00000000000E+00 -0.35946296382E+03  0.35946296382E+03  0.00000000000E+00 0.  1.
         25    1    1    2    0    0  0.21256002786E+03  0.88239482136E+02 -0.30006944435E+03  0.39828964722E+03  0.12500000000E+03 0.  0.
          2    1    1    2  501    0 -0.21256002786E+03 -0.88239482136E+02  0.12774200355E+04  0.12979868715E+04  0.00000000000E+00 0.  1.
<mgrwt>
<rscale>  3 0.26190260E+03</rscale>
<asrwt>0</asrwt>
<pdfrwt beam="1">  1       21 0.55301995E-01 0.26190260E+03</pdfrwt>
<pdfrwt beam="2">  1        2 0.20566362E+00 0.26190260E+03</pdfrwt>
<totfact> 0.63462101E+02</totfact>
</mgrwt>
</event>
<event>
 4    0  0.1426692E-001  0.2676489E+03  0.7546771E-02  0.1102633E+00
         21   -1    0    0  501  502  0.00000000000E+00  0.00000000000E+00  0.32988395417E+03  0.32988395417E+03  0.00000000000E+00 0.  1.
          2   -1    0    0  502    0 -0.00000000000E+00 -0.00000000000E+00 -0.82721579369E+03  0.82721579369E+03  0.00000000000E+00 0. -1.
         25    1    1    2    0    0  0.53583565720E+02  0.23052059007E+03  0.25423572983E+03  0.36915003357E+03  0.12500000000E+03 0.  0.
          2    1    1    2  501    0 -0.53583565720E+02 -0.23052059007E+03 -0.75156756934E+03  0.78794971429E+03  0.00000000000E+00 0. -1.
<mgrwt>
<rscale>  3 0.26764891E+03</rscale>
<asrwt>0</asrwt>
<pdfrwt beam="1">  1       21 0.50751379E-01 0.26764891E+03</pdfrwt>
<pdfrwt beam="2">  1        2 0.12726397E+00 0.26764891E+03</pdfrwt>
<totfact> 0.15355832E+03</totfact>
</mgrwt>
</event>
<event>
 4    0  0.1426692E-001  0.3132297E+03  0.7546771E-02  0.1078808E+00
          2   -1    0    0  502    0 -0.00000000000E+00  0.00000000000E+00  0.14681837031E+04  0.14681837031E+04  0.00000000000E+00 0.  1.
         21   -1    0    0  501  502  0.00000000000E+00 -0.00000000000E+00 -0.45077674154E+03  0.45077674154E+03  0.00000000000E+00 0. -1.
         25    1    1    2    0    0 -0.10118047155E+03 -0.26879421777E+03 -0.37993618438E+03  0.49240666479E+03  0.12500000000E+03 0.  0.
          2    1    1    2  501    0  0.10118047155E+03  0.26879421777E+03  0.13973431459E+04  0.14265537798E+04  0.00000000000E+00 0.  1.
<mgrwt>
<rscale>  3 0.31322966E+03</rscale>
<asrwt>0</asrwt>
<pdfrwt beam="1">  1       21 0.69350269E-01 0.31322966E+03</pdfrwt>
<pdfrwt beam="2">  1        2 0.22587441E+00 0.31322966E+03</pdfrwt>
<totfact> 0.32010840E+02</totfact>
</mgrwt>
</event>
<event>
 4    0  0.1426692E-001  0.3717829E+03  0.7546771E-02  0.1054013E+00
          1   -1    0    0  502    0 -0.00000000000E+00  0.00000000000E+00  0.12195984605E+04  0.12195984605E+04  0.00000000000E+00 0.  1.
         21   -1    0    0  501  502  0.00000000000E+00 -0.00000000000E+00 -0.38166402647E+03  0.38166402647E+03  0.00000000000E+00 0.  1.
         25    1    1    2    0    0 -0.78054717776E+02 -0.34132826588E+03 -0.25683066083E+03  0.45186780412E+03  0.12500000000E+03 0.  0.
          1    1    1    2  501    0  0.78054717776E+02  0.34132826588E+03  0.10947650949E+04  0.11493946829E+04  0.00000000000E+00 0.  1.
<mgrwt>
<rscale>  3 0.37178290E+03</rscale>
<asrwt>0</asrwt>
<pdfrwt beam="1">  1       21 0.58717543E-01 0.37178290E+03</pdfrwt>
<pdfrwt beam="2">  1        1 0.18763053E+00 0.37178290E+03</pdfrwt>
<totfact> 0.30947583E+02</totfact>
</mgrwt>
</event>
<event>
 4    0  0.1426692E-001  0.2471687E+03  0.7546771E-02  0.1115107E+00
          2   -1    0    0  502    0 -0.00000000000E+00  0.00000000000E+00  0.18073994709E+04  0.18073994709E+04  0.00000000000E+00 0.  1.
         21   -1    0    0  501  502  0.00000000000E+00 -0.00000000000E+00 -0.15707004482E+03  0.15707004482E+03  0.00000000000E+00 0.  1.
         25    1    1    2    0    0 -0.20157626279E+03  0.69529809492E+02 -0.48861233726E+02  0.25195198806E+03  0.12500000000E+03 0.  0.
          2    1    1    2  501    0  0.20157626279E+03 -0.69529809492E+02  0.16991906598E+04  0.17125175276E+04  0.00000000000E+00 0.  1.
<mgrwt>
<rscale>  3 0.24716874E+03</rscale>
<asrwt>0</asrwt>
<pdfrwt beam="1">  1       21 0.24164624E-01 0.24716874E+03</pdfrwt>
<pdfrwt beam="2">  1        2 0.27806144E+00 0.24716874E+03</pdfrwt>
<totfact> 0.19022751E+03</totfact>
</mgrwt>
</event>
<event>
 4    0  0.1426692E-001  0.3598245E+03  0.7546771E-02  0.1058653E+00
          2   -1    0    0  502    0 -0.00000000000E+00  0.00000000000E+00  0.59957118129E+03  0.59957118129E+03  0.00000000000E+00 0. -1.
         21   -1    0    0  501  502  0.00000000000E+00 -0.00000000000E+00 -0.23525451038E+03  0.23525451038E+03  0.00000000000E+00 0. -1.
         25    1    1    2    0    0  0.39134422861E+02  0.33513758417E+03  0.32007022835E+02  0.36124528078E+03  0.12500000000E+03 0.  0.
          2    1    1    2  501    0 -0.39134422861E+02 -0.33513758417E+03  0.33230964808E+03  0.47358041089E+03  0.00000000000E+00 0. -1.
<mgrwt>
<rscale>  3 0.35982455E+03</rscale>
<asrwt>0</asrwt>
<pdfrwt beam="1">  1       21 0.36193002E-01 0.35982455E+03</pdfrwt>
<pdfrwt beam="2">  1        2 0.92241719E-01 0.35982455E+03</pdfrwt>
<totfact> 0.44686872E+03</totfact>
</mgrwt>
</event>
<event>
 4    0  0.1426692E-001  0.2621245E+03  0.7546771E-02  0.1105873E+00
         21   -1    0    0  501  502  0.00000000000E+00  0.00000000000E+00  0.52532614886E+03  0.52532614886E+03  0.00000000000E+00 0.  1.
          3   -1    0    0  502    0 -0.00000000000E+00 -0.00000000000E+00 -0.13262824550E+03  0.13262824550E+03  0.00000000000E+00 0. -1.
         25    1    1    2    0    0  0.22263412796E+03  0.59315038798E+02  0.32556417420E+03  0.41797279849E+03  0.12500000000E+03 0.  0.
          3    1    1    2  501    0 -0.22263412796E+03 -0.59315038798E+02  0.67133729164E+02  0.23998159586E+03  0.00000000000E+00 0. -1.
<mgrwt>
<rscale>  3 0.26212445E+03</rscale>
<asrwt>0</asrwt>
<pdfrwt beam="1">  1       21 0.80819406E-01 0.26212445E+03</pdfrwt>
<pdfrwt beam="2">  1        3 0.20404346E-01 0.26212445E+03</pdfrwt>
<totfact> 0.14235101E+03</totfact>
</mgrwt>
</event>
<event>
 4    0  0.1426692E-001  0.3094359E+03  0.7546771E-02  0.1080617E+00
         21   -1    0    0  501  502  0.00000000000E+00  0.00000000000E+00  0.33680786558E+03  0.33680786558E+03  0.00000000000E+00 0. -1.
         -2   -1    0    0    0  501 -0.00000000000E+00 -0.00000000000E+00 -0.34011198363E+03  0.34011198363E+03  0.00000000000E+00 0. -1.
         25    1    1    2    0    0 -0.92935273798E+02  0.26737354247E+03  0.16184023992E+03  0.34920314946E+03  0.12500000000E+03 0.  0.
         -2    1    1    2    0  502  0.92935273798E+02 -0.26737354247E+03 -0.16514435797E+03  0.32771669976E+03  0.00000000000E+00 0. -1.
<mgrwt>
<rscale>  3 0.30943590E+03</rscale>
<asrwt>0</asrwt>
<pdfrwt beam="1">  1       21 0.51816595E-01 0.30943590E+03</pdfrwt>
<pdfrwt beam="2">  1       -2 0.52324920E-01 0.30943590E+03</pdfrwt>
<totfact> 0.97184014E+02</totfact>
</mgrwt>
</event>
<event>
 4    0  0.1426692E-001  0.2879963E+03  0.7546771E-02  0.1091400E+00
         21   -1    0    0  501  502  0.00000000000E+00  0.00000000000E+00  0.25138568106E+03  0.25138568106E+03  0.00000000000E+00 0.  1.
          2   -1    0    0  502    0 -0.00000000000E+00 -0.00000000000E+00 -0.22001680127E+04  0.22001680127E+04  0.00000000000E+00 0.  1.
         25    1    1    2    0    0  0.97492630922E+02  0.24044139317E+03  0.15824763117E+03  0.32860947857E+03  0.12500000000E+03 0.  0.
          2    1    1    2  501    0 -0.97492630922E+02 -0.24044139317E+03 -0.21070299628E+04  0.21229442152E+04  0.00000000000E+00 0.  1.
<mgrwt>
<rscale>  3 0.28799631E+03</rscale>
<asrwt>0</asrwt>
<pdfrwt beam="1">  1       21 0.38674722E-01 0.28799631E+03</pdfrwt>
<pdfrwt beam="2">  1        2 0.33848737E+00 0.28799631E+03</pdfrwt>
<totfact> 0.45794414E+02</totfact>
</mgrwt>
</event>
<event>
 4    0  0.1426692E-001  0.2836690E+03  0.7546771E-02  0.1093702E+00
          2   -1    0    0  502    0 -0.00000000000E+00  0.00000000000E+00  0.78075267262E+03  0.78075267262E+03  0.00000000000E+00 0. -1.
         21   -1    0    0  501  502  0.00000000000E+00 -0.00000000000E+00 -0.13114830653E+03  0.13114830653E+03  0.00000000000E+00 0. -1.
         25    1    1    2    0    0  0.25289359287E+03 -0.29798487555E+02  0.90857858909E+02  0.29786451568E+03  0.12500000000E+03 0.  0.
          2    1    1    2  501    0 -0.25289359287E+03  0.29798487555E+02  0.55874650718E+03  0.61403646346E+03  0.00000000000E+00 0. -1.
<mgrwt>
<rscale>  3 0.28366903E+03</rscale>
<asrwt>0</asrwt>
<pdfrwt beam="1">  1       21 0.20176663E-01 0.28366903E+03</pdfrwt>
<pdfrwt beam="2">  1        2 0.12011579E+00 0.28366903E+03</pdfrwt>
<totfact> 0.10278083E+04</totfact>
</mgrwt>
</event>
<event>
 4    0  0.1426692E-001  0.3616175E+03  0.7546771E-02  0.1057945E+00
          2   -1    0    0  502    0 -0.00000000000E+00  0.00000000000E+00  0.11608757653E+04  0.11608757653E+04  0.00000000000E+00 0.  1.
         21   -1    0    0  501  502  0.00000000000E+00 -0.00000000000E+00 -0.10709997873E+03  0.10709997873E+03  0.00000000000E+00 0.  1.
         25    1    1    2    0    0  0.11675791780E+03 -0.31860603381E+03  0.47385657051E+03  0.59607656015E+03  0.12500000000E+03 0.  0.
          2    1    1    2  501    0 -0.11675791780E+03  0.31860603381E+03  0.57991921609E+03  0.67189918391E+03  0.00000000000E+00 0.  1.
<mgrwt>
<rscale>  3 0.36161750E+03</rscale>
<asrwt>0</asrwt>
<pdfrwt beam="1">  1       21 0.16476921E-01 0.36161750E+03</pdfrwt>
<pdfrwt beam="2">  1        2 0.17859626E+00 0.36161750E+03</pdfrwt>
<totfact> 0.84939865E+03</totfact>
</mgrwt>
</event>
<event>
 4    0  0.1426692E-001  0.2762630E+03  0.7546771E-02  0.1097748E+00
         21   -1    0    0  501  502  0.00000000000E+00  0.00000000000E+00  0.22087927440E+03  0.22087927440E+03  0.00000000000E+00 0. -1.
          2   -1    0    0  502    0 -0.00000000000E+00 -0.00000000000E+00 -0.27805879273E+04  0.27805879273E+04  0.00000000000E+00 0.  1.
         25    1    1    2    0    0  0.24329371173E+03 -0.38786810552E+02  0.12659674824E+03  0.30388811017E+03  0.12500000000E+03 0.  0.
          2    1    1    2  501    0 -0.24329371173E+03  0.38786810552E+02 -0.26863054012E+04  0.26975790916E+04  0.00000000000E+00 0.  1.
<mgrwt>
<rscale>  3 0.27626300E+03</rscale>
<asrwt>0</asrwt>
<pdfrwt beam="1">  1       21 0.33981424E-01 0.27626300E+03</pdfrwt>
<pdfrwt beam="2">  1        2 0.42778279E+00 0.27626300E+03</pdfrwt>
<totfact> 0.28701620E+02</totfact>
</mgrwt>
</event>
<event>
 4    0  0.1426692E-001  0.2616325E+03  0.7546771E-02  0.1106166E+00
         21   -1    0    0  501  502  0.00000000000E+00  0.00000000000E+00  0.17381207392E+03  0.17381207392E+03  0.00000000000E+00 0.  1.
          2   -1    0    0  502    0 -0.00000000000E+00 -0.00000000000E+00 -0.41724449159E+03  0.41724449159E+03  0.00000000000E+00 0. -1.
         25    1    1    2    0    0  0.13385237347E+03  0.18684241936E+03 -0.75910254981E+01  0.26174256670E+03  0.12500000000E+03 0.  0.
          2    1    1    2  501    0 -0.13385237347E+03 -0.18684241936E+03 -0.23584139217E+03  0.32931399881E+03  0.00000000000E+00 0. -1.
<mgrwt>
<rscale>  3 0.26163247E+03</rscale>
<asrwt>0</asrwt>
<pdfrwt beam="1">  1       21 0.26740319E-01 0.26163247E+03</pdfrwt>
<pdfrwt beam="2">  1        2 0.64191460E-01 0.26163247E+03</pdfrwt>
<totfact> 0.12494925E+04</totfact>
</mgrwt>
</event>
<event>
 4    0  0.1426692E-001  0.3371837E+03  0.7546771E-02  0.1068002E+00
         21   -1    0    0  501  502  0.00000000000E+00  0.00000000000E+00  0.10721762488E+03  0.10721762488E+03  0.00000000000E+00 0. -1.
          2   -1    0    0  502    0 -0.00000000000E+00 -0.00000000000E+00 -0.10578657600E+04  0.10578657600E+04  0.00000000000E+00 0. -1.
         25    1    1    2    0    0  0.30486752831E+03  0.71579779774E+02 -0.34014755230E+03  0.47895013522E+03  0.12500000000E+03 0.  0.
          2    1    1    2  501    0 -0.30486752831E+03 -0.71579779774E+02 -0.61050058285E+03  0.68613324971E+03  0.00000000000E+00 0. -1.
<mgrwt>
<rscale>  3 0.33718374E+03</rscale>
<asrwt>0</asrwt>
<pdfrwt beam="1">  1       21 0.16495019E-01 0.33718374E+03</pdfrwt>
<pdfrwt beam="2">  1        2 0.16274858E+00 0.33718374E+03</pdfrwt>
<totfact> 0.98047114E+03</totfact>
</mgrwt>
</event>
<event>
 4    0  0.1426692E-001  0.2852913E+03  0.7546771E-02  0.1092834E+00
         21   -1    0    0  501  502  0.00000000000E+00  0.00000000000E+00  0.20790007504E+04  0.20790007504E+04  0.00000000000E+00 0. -1.
          3   -1    0    0  502    0 -0.00000000000E+00 -0.00000000000E+00 -0.83521122682E+02  0.83521122682E+02  0.00000000000E+00 0. -1.
         25    1    1    2    0    0  0.38499944522E+02  0.25354268479E+03  0.18413491311E+04  0.18633190176E+04  0.12500000000E+03 0.  0.
          3    1    1    2  501    0 -0.38499944522E+02 -0.25354268479E+03  0.15413049660E+03  0.29920285547E+03  0.00000000000E+00 0. -1.
<mgrwt>
<rscale>  3 0.28529132E+03</rscale>
<asrwt>0</asrwt>
<pdfrwt beam="1">  1       21 0.31984623E+00 0.28529132E+03</pdfrwt>
<pdfrwt beam="2">  1        3 0.12849405E-01 0.28529132E+03</pdfrwt>
<totfact> 0.58238647E+01</totfact>
</mgrwt>
</event>
<event>
 4    0  0.1426692E-001  0.2555642E+03  0.7546771E-02  0.1109838E+00
          4   -1    0    0  502    0 -0.00000000000E+00  0.00000000000E+00  0.15559570828E+03  0.15559570828E+03  0.00000000000E+00 0.  1.
         21   -1    0    0  501  502  0.00000000000E+00 -0.00000000000E+00 -0.73784376787E+03  0.73784376787E+03  0.00000000000E+00 0. -1.
         25    1    1    2    0    0  0.21239335404E+03 -0.67654436585E+02 -0.61700439728E+03  0.66783791888E+03  0.12500000000E+03 0.  0.
          4    1    1    2  501    0 -0.21239335404E+03  0.67654436585E+02  0.34756337687E+02  0.22560155727E+03  0.00000000000E+00 0.  1.
<mgrwt>
<rscale>  3 0.25556420E+03</rscale>
<asrwt>0</asrwt>
<pdfrwt beam="1">  1       21 0.11351443E+00 0.25556420E+03</pdfrwt>
<pdfrwt beam="2">  1        4 0.23937801E-01 0.25556420E+03</pdfrwt>
<totfact> 0.40906793E+02</totfact>
</mgrwt>
</event>
<event>
 4    0  0.1426692E-001  0.2548397E+03  0.7546771E-02  0.1110284E+00
         21   -1    0    0  501  502  0.00000000000E+00  0.00000000000E+00  0.54412238854E+02  0.54412238854E+02  0.00000000000E+00 0. -1.
          1   -1    0    0  502    0 -0.00000000000E+00 -0.00000000000E+00 -0.11259064047E+04  0.11259064047E+04  0.00000000000E+00 0. -1.
         25    1    1    2    0    0 -0.18974312242E+03  0.11539424385E+03 -0.41208261868E+03  0.48451560206E+03  0.12500000000E+03 0.  0.
          1    1    1    2  501    0  0.18974312242E+03 -0.11539424385E+03 -0.65941154720E+03  0.69580304153E+03  0.00000000000E+00 0. -1.
<mgrwt>
<rscale>  3 0.25483972E+03</rscale>
<asrwt>0</asrwt>
<pdfrwt beam="1">  1       21 0.83711136E-02 0.25483972E+03</pdfrwt>
<pdfrwt beam="2">  1        1 0.17321637E+00 0.25483972E+03</pdfrwt>
<totfact> 0.15923891E+04</totfact>
</mgrwt>
</event>
<event>
 4    0  0.1426692E-001  0.4032475E+03  0.7546771E-02  0.1042661E+00
         21   -1    0    0  501  502  0.00000000000E+00  0.00000000000E+00  0.22197588730E+03  0.22197588730E+03  0.00000000000E+00 0. -1.
          2   -1    0    0  502    0 -0.00000000000E+00 -0.00000000000E+00 -0.23904954913E+04  0.23904954913E+04  0.00000000000E+00 0.  1.
         25    1    1    2    0    0  0.35644849654E+03  0.14116665859E+03  0.71202575960E+01  0.40331036964E+03  0.12500000000E+03 0.  0.
          2    1    1    2  501    0 -0.35644849654E+03 -0.14116665859E+03 -0.21756398616E+04  0.22091610090E+04  0.00000000000E+00 0.  1.
<mgrwt>
<rscale>  3 0.40324751E+03</rscale>
<asrwt>0</asrwt>
<pdfrwt beam="1">  1       21 0.34150136E-01 0.40324751E+03</pdfrwt>
<pdfrwt beam="2">  1        2 0.36776854E+00 0.40324751E+03</pdfrwt>
<totfact> 0.44054185E+02</totfact>
</mgrwt>
</event>
<event>
 4    0  0.1426692E-001  0.6354364E+03  0.7546771E-02  0.9834497E-01
          2   -1    0    0  502    0 -0.00000000000E+00  0.00000000000E+00  0.30615530590E+04  0.30615530590E+04  0.00000000000E+00 0. -1.
         21   -1    0    0  501  502  0.00000000000E+00 -0.00000000000E+00 -0.13467093721E+03  0.13467093721E+03  0.00000000000E+00 0.  1.
         25    1    1    2    0    0 -0.31115872025E+03  0.53975426899E+03  0.11588464600E+04  0.13216295010E+04  0.12500000000E+03 0.  0.
          2    1    1    2  501    0  0.31115872025E+03 -0.53975426899E+03  0.17680356618E+04  0.18745944952E+04  0.00000000000E+00 0. -1.
<mgrwt>
<rscale>  3 0.63543640E+03</rscale>
<asrwt>0</asrwt>
<pdfrwt beam="1">  1       21 0.20718608E-01 0.63543640E+03</pdfrwt>
<pdfrwt beam="2">  1        2 0.47100811E+00 0.63543640E+03</pdfrwt>
<totfact> 0.44726633E+02</totfact>
</mgrwt>
</event>
<event>
 4    0  0.1426692E-001  0.3483999E+03  0.7546771E-02  0.1063274E+00
          1   -1    0    0  502    0 -0.00000000000E+00  0.00000000000E+00  0.31703592019E+03  0.31703592019E+03  0.00000000000E+00 0. -1.
         21   -1    0    0  501  502  0.00000000000E+00 -0.00000000000E+00 -0.21685799895E+04  0.21685799895E+04  0.00000000000E+00 0. -1.
         25    1    1    2    0    0  0.50995248215E+02  0.32118057801E+03 -0.20665829841E+04  0.20957451441E+04  0.12500000000E+03 0.  0.
          1    1    1    2  501    0 -0.50995248215E+02 -0.32118057801E+03  0.21503891473E+03  0.38987076562E+03  0.00000000000E+00 0. -1.
<mgrwt>
<rscale>  3 0.34839988E+03</rscale>
<asrwt>0</asrwt>
<pdfrwt beam="1">  1       21 0.33362770E+00 0.34839988E+03</pdfrwt>
<pdfrwt beam="2">  1        1 0.48774755E-01 0.34839988E+03</pdfrwt>
<totfact> 0.16580126E+01</totfact>
</mgrwt>
</event>
<event>
 4    0  0.1426692E-001  0.3880097E+03  0.7546771E-02  0.1048012E+00
         21   -1    0    0  501  502  0.00000000000E+00  0.00000000000E+00  0.99318998417E+02  0.99318998417E+02  0.00000000000E+00 0. -1.
          2   -1    0    0  502    0 -0.00000000000E+00 -0.00000000000E+00 -0.27541033077E+04  0.27541033077E+04  0.00000000000E+00 0. -1.
         25    1    1    2    0    0  0.22421214804E+03 -0.29095601807E+03 -0.23331256884E+04  0.23651695435E+04  0.12500000000E+03 0.  0.
          2    1    1    2  501    0 -0.22421214804E+03  0.29095601807E+03 -0.32165862087E+03  0.48825276257E+03  0.00000000000E+00 0. -1.
<mgrwt>
<rscale>  3 0.38800965E+03</rscale>
<asrwt>0</asrwt>
<pdfrwt beam="1">  1       21 0.15279847E-01 0.38800965E+03</pdfrwt>
<pdfrwt beam="2">  1        2 0.42370818E+00 0.38800965E+03</pdfrwt>
<totfact> 0.13040250E+03</totfact>
</mgrwt>
</event>
<event>
 4    0  0.1426692E-001  0.2776316E+03  0.7546771E-02  0.1096990E+00
          2   -1    0    0  502    0 -0.00000000000E+00  0.00000000000E+00  0.10757167240E+04  0.10757167240E+04  0.00000000000E+00 0.  1.
         21   -1    0    0  501  502  0.00000000000E+00 -0.00000000000E+00 -0.52341215311E+03  0.52341215311E+03  0.00000000000E+00 0.  1.
         25    1    1    2    0    0 -0.17760400701E+03 -0.17294829137E+03 -0.47072125480E+03  0.54649592360E+03  0.12500000000E+03 0.  0.
          2    1    1    2  501    0  0.17760400701E+03  0.17294829137E+03  0.10230258257E+04  0.10526329535E+04  0.00000000000E+00 0.  1.
<mgrwt>
<rscale>  3 0.27763158E+03</rscale>
<asrwt>0</asrwt>
<pdfrwt beam="1">  1       21 0.80524947E-01 0.27763158E+03</pdfrwt>
<pdfrwt beam="2">  1        2 0.16549488E+00 0.27763158E+03</pdfrwt>
<totfact> 0.38700437E+02</totfact>
</mgrwt>
</event>
<event>
 4    0  0.1426692E-001  0.2401422E+03  0.7546771E-02  0.1119698E+00
         21   -1    0    0  501  502  0.00000000000E+00  0.00000000000E+00  0.65504540169E+03  0.65504540169E+03  0.00000000000E+00 0. -1.
          1   -1    0    0  502    0 -0.00000000000E+00 -0.00000000000E+00 -0.30424877605E+03  0.30424877605E+03  0.00000000000E+00 0.  1.
         25    1    1    2    0    0 -0.14120236907E+03 -0.14867804903E+03  0.59428521156E+03  0.64097050164E+03  0.12500000000E+03 0.  0.
          1    1    1    2  501    0  0.14120236907E+03  0.14867804903E+03 -0.24348858593E+03  0.31832367610E+03  0.00000000000E+00 0.  1.
<mgrwt>
<rscale>  3 0.24014219E+03</rscale>
<asrwt>0</asrwt>
<pdfrwt beam="1">  1       21 0.10077622E+00 0.24014219E+03</pdfrwt>
<pdfrwt beam="2">  1        1 0.46807504E-01 0.24014219E+03</pdfrwt>
<totfact> 0.74038045E+02</totfact>
</mgrwt>
</event>
<event>
 4    0  0.1426692E-001  0.2799915E+03  0.7546771E-02  0.1095694E+00
          3   -1    0    0  502    0 -0.00000000000E+00  0.00000000000E+00  0.21099578917E+03  0.21099578917E+03  0.00000000000E+00 0.  1.
         21   -1    0    0  501  502  0.00000000000E+00 -0.00000000000E+00 -0.67623897064E+03  0.67623897064E+03  0.00000000000E+00 0.  1.
         25    1    1    2    0    0  0.24131856056E+03 -0.67346899952E+02 -0.55457300901E+03  0.62124590536E+03  0.12500000000E+03 0.  0.
          3    1    1    2  501    0 -0.24131856056E+03  0.67346899952E+02  0.89329827540E+02  0.26598885445E+03  0.00000000000E+00 0.  1.
<mgrwt>
<rscale>  3 0.27999152E+03</rscale>
<asrwt>0</asrwt>
<pdfrwt beam="1">  1       21 0.10403676E+00 0.27999152E+03</pdfrwt>
<pdfrwt beam="2">  1        3 0.32460891E-01 0.27999152E+03</pdfrwt>
<totfact> 0.33374740E+02</totfact>
</mgrwt>
</event>
<event>
 4    0  0.1426692E-001  0.2943434E+03  0.7546771E-02  0.1088103E+00
         -4   -1    0    0    0  501 -0.00000000000E+00  0.00000000000E+00  0.53123564347E+03  0.53123564347E+03  0.00000000000E+00 0. -1.
         21   -1    0    0  501  502  0.00000000000E+00 -0.00000000000E+00 -0.17570388945E+03  0.17570388945E+03  0.00000000000E+00 0. -1.
         25    1    1    2    0    0  0.14860861304E+03  0.22119793395E+03  0.45036020421E+02  0.29776885161E+03  0.12500000000E+03 0.  0.
         -4    1    1    2    0  502 -0.14860861304E+03 -0.22119793395E+03  0.31049573360E+03  0.40917068131E+03  0.00000000000E+00 0. -1.
<mgrwt>
<rscale>  3 0.29434341E+03</rscale>
<asrwt>0</asrwt>
<pdfrwt beam="1">  1       21 0.27031368E-01 0.29434341E+03</pdfrwt>
<pdfrwt beam="2">  1       -4 0.81728560E-01 0.29434341E+03</pdfrwt>
<totfact> 0.74116265E+02</totfact>
</mgrwt>
</event>
<event>
 4    0  0.1426692E-001  0.2402703E+03  0.7546771E-02  0.1119613E+00
         -3   -1    0    0    0  501 -0.00000000000E+00  0.00000000000E+00  0.30475476802E+03  0.30475476802E+03  0.00000000000E+00 0. -1.
         21   -1    0    0  501  502  0.00000000000E+00 -0.00000000000E+00 -0.28264179426E+03  0.28264179426E+03  0.00000000000E+00 0. -1.
         25    1    1    2    0    0  0.12126706553E+02  0.20483597316E+03 -0.17935544333E+03  0.29983029861E+03  0.12500000000E+03 0.  0.
         -3    1    1    2    0  502 -0.12126706553E+02 -0.20483597316E+03  0.20146841709E+03  0.28756626367E+03  0.00000000000E+00 0. -1.
<mgrwt>
<rscale>  3 0.24027033E+03</rscale>
<asrwt>0</asrwt>
<pdfrwt beam="1">  1       21 0.43483353E-01 0.24027033E+03</pdfrwt>
<pdfrwt beam="2">  1       -3 0.46885349E-01 0.24027033E+03</pdfrwt>
<totfact> 0.11348677E+03</totfact>
</mgrwt>
</event>
<event>
 4    0  0.1426692E-001  0.2389745E+03  0.7546771E-02  0.1120478E+00
          2   -1    0    0  502    0 -0.00000000000E+00  0.00000000000E+00  0.93727038177E+02  0.93727038177E+02  0.00000000000E+00 0. -1.
         21   -1    0    0  501  502  0.00000000000E+00 -0.00000000000E+00 -0.56755648165E+03  0.56755648165E+03  0.00000000000E+00 0. -1.
         25    1    1    2    0    0 -0.16993644958E+03 -0.11227384000E+03 -0.34706235561E+03  0.42137998378E+03  0.12500000000E+03 0.  0.
          2    1    1    2  501    0  0.16993644958E+03  0.11227384000E+03 -0.12676708786E+03  0.23990353605E+03  0.00000000000E+00 0. -1.
<mgrwt>
<rscale>  3 0.23897450E+03</rscale>
<asrwt>0</asrwt>
<pdfrwt beam="1">  1       21 0.87316379E-01 0.23897450E+03</pdfrwt>
<pdfrwt beam="2">  1        2 0.14419545E-01 0.23897450E+03</pdfrwt>
<totfact> 0.55318075E+03</totfact>
</mgrwt>
</event>
<event>
 4    0  0.1426692E-001  0.2390419E+03  0.7546771E-02  0.1120433E+00
          3   -1    0    0  502    0 -0.00000000000E+00  0.00000000000E+00  0.22224423393E+04  0.22224423393E+04  0.00000000000E+00 0.  1.
         21   -1    0    0  501  502  0.00000000000E+00 -0.00000000000E+00 -0.63795183718E+02  0.63795183718E+02  0.00000000000E+00 0.  1.
         25    1    1    2    0    0 -0.17806593699E+03  0.99038098505E+02  0.18543817047E+03  0.30253650679E+03  0.12500000000E+03 0.  0.
          3    1    1    2  501    0  0.17806593699E+03 -0.99038098505E+02  0.19732089851E+04  0.19837010163E+04  0.00000000000E+00 0.  1.
<mgrwt>
<rscale>  3 0.23904189E+03</rscale>
<asrwt>0</asrwt>
<pdfrwt beam="1">  1       21 0.98146454E-02 0.23904189E+03</pdfrwt>
<pdfrwt beam="2">  1        3 0.34191415E+00 0.23904189E+03</pdfrwt>
<totfact> 0.11158836E+02</totfact>
</mgrwt>
</event>
<event>
 4    0  0.1426692E-001  0.2733296E+03  0.7546771E-02  0.1099389E+00
          1   -1    0    0  502    0 -0.00000000000E+00  0.00000000000E+00  0.10704043751E+04  0.10704043751E+04  0.00000000000E+00 0. -1.
         21   -1    0    0  501  502  0.00000000000E+00 -0.00000000000E+00 -0.78392850644E+02  0.78392850644E+02  0.00000000000E+00 0. -1.
         25    1    1    2    0    0 -0.23749905116E+03  0.51752048230E+02  0.25906081081E+03  0.37659205713E+03  0.12500000000E+03 0.  0.
          1    1    1    2  501    0  0.23749905116E+03 -0.51752048230E+02  0.73295071360E+03  0.77220516857E+03  0.00000000000E+00 0. -1.
<mgrwt>
<rscale>  3 0.27332961E+03</rscale>
<asrwt>0</asrwt>
<pdfrwt beam="1">  1       21 0.12060439E-01 0.27332961E+03</pdfrwt>
<pdfrwt beam="2">  1        1 0.16467759E+00 0.27332961E+03</pdfrwt>
<totfact> 0.90803512E+03</totfact>
</mgrwt>
</event>
<event>
 4    0  0.1426692E-001  0.2594041E+03  0.7546771E-02  0.1107502E+00
         21   -1    0    0  501  502  0.00000000000E+00  0.00000000000E+00  0.14472662103E+03  0.14472662103E+03  0.00000000000E+00 0. -1.
          2   -1    0    0  502    0 -0.00000000000E+00 -0.00000000000E+00 -0.62184949784E+03  0.62184949784E+03  0.00000000000E+00 0.  1.
         25    1    1    2    0    0 -0.19529544211E+03 -0.11629783129E+03 -0.25092756754E+02  0.26061492995E+03  0.12500000000E+03 0.  0.
          2    1    1    2  501    0  0.19529544211E+03  0.11629783129E+03 -0.45203012005E+03  0.50596118892E+03  0.00000000000E+00 0.  1.
<mgrwt>
<rscale>  3 0.25940412E+03</rscale>
<asrwt>0</asrwt>
<pdfrwt beam="1">  1       21 0.22265634E-01 0.25940412E+03</pdfrwt>
<pdfrwt beam="2">  1        2 0.95669154E-01 0.25940412E+03</pdfrwt>
<totfact> 0.11312229E+04</totfact>
</mgrwt>
</event>
<event>
 4    0  0.1426692E-001  0.2371645E+03  0.7546771E-02  0.1121696E+00
          2   -1    0    0  502    0 -0.00000000000E+00  0.00000000000E+00  0.18924808932E+04  0.18924808932E+04  0.00000000000E+00 0. -1.
         21   -1    0    0  501  502  0.00000000000E+00 -0.00000000000E+00 -0.71053486218E+02  0.71053486218E+02  0.00000000000E+00 0.  1.
         25    1    1    2    0    0 -0.18702656905E+03  0.75120270887E+02  0.15135803231E+03  0.28134719934E+03  0.12500000000E+03 0.  0.
          2    1    1    2  501    0  0.18702656905E+03 -0.75120270887E+02  0.16700693747E+04  0.16821871801E+04  0.00000000000E+00 0. -1.
<mgrwt>
<rscale>  3 0.23716448E+03</rscale>
<asrwt>0</asrwt>
<pdfrwt beam="1">  1       21 0.10931307E-01 0.23716448E+03</pdfrwt>
<pdfrwt beam="2">  1        2 0.29115087E+00 0.23716448E+03</pdfrwt>
<totfact> 0.74525721E+03</totfact>
</mgrwt>
</event>
<event>
 4    0  0.1426692E-001  0.2728964E+03  0.7546771E-02  0.1099633E+00
          1   -1    0    0  502    0 -0.00000000000E+00  0.00000000000E+00  0.51421471950E+02  0.51421471950E+02  0.00000000000E+00 0.  1.
         21   -1    0    0  501  502  0.00000000000E+00 -0.00000000000E+00 -0.16944247273E+04  0.16944247273E+04  0.00000000000E+00 0.  1.
         25    1    1    2    0    0 -0.15798477993E+03  0.18408766931E+03 -0.12832444367E+04  0.13119408313E+04  0.12500000000E+03 0.  0.
          1    1    1    2  501    0  0.15798477993E+03 -0.18408766931E+03 -0.35975881865E+03  0.43390536789E+03  0.00000000000E+00 0.  1.
<mgrwt>
<rscale>  3 0.27289643E+03</rscale>
<asrwt>0</asrwt>
<pdfrwt beam="1">  1       21 0.26068073E+00 0.27289643E+03</pdfrwt>
<pdfrwt beam="2">  1        1 0.79109955E-02 0.27289643E+03</pdfrwt>
<totfact> 0.50911205E+02</totfact>
</mgrwt>
</event>
<event>
 4    0  0.1426692E-001  0.2462980E+03  0.7546771E-02  0.1115667E+00
         21   -1    0    0  501  502  0.00000000000E+00  0.00000000000E+00  0.83421838569E+02  0.83421838569E+02  0.00000000000E+00 0.  1.
          2   -1    0    0  502    0 -0.00000000000E+00 -0.00000000000E+00 -0.92482136941E+03  0.92482136941E+03  0.00000000000E+00 0. -1.
         25    1    1    2    0    0  0.21215723619E+03 -0.51995400205E+01 -0.15792715296E+03  0.29258112333E+03  0.12500000000E+03 0.  0.
          2    1    1    2  501    0 -0.21215723619E+03  0.51995400205E+01 -0.68347237788E+03  0.71566208465E+03  0.00000000000E+00 0. -1.
<mgrwt>
<rscale>  3 0.24629805E+03</rscale>
<asrwt>0</asrwt>
<pdfrwt beam="1">  1       21 0.12834129E-01 0.24629805E+03</pdfrwt>
<pdfrwt beam="2">  1        2 0.14228021E+00 0.24629805E+03</pdfrwt>
<totfact> 0.19114791E+04</totfact>
</mgrwt>
</event>
<event>
 4    0  0.1426692E-001  0.2592968E+03  0.7546771E-02  0.1107566E+00
         21   -1    0    0  501  502  0.00000000000E+00  0.00000000000E+00  0.54749337372E+02  0.54749337372E+02  0.00000000000E+00 0. -1.
          2   -1    0    0  502    0 -0.00000000000E+00 -0.00000000000E+00 -0.17436074035E+04  0.17436074035E+04  0.00000000000E+00 0. -1.
         25    1    1    2    0    0 -0.81806576043E+01 -0.22703058864E+03 -0.32527629452E+03  0.41598014269E+03  0.12500000000E+03 0.  0.
          2    1    1    2  501    0  0.81806576043E+01  0.22703058864E+03 -0.13635817716E+04  0.13823765982E+04  0.00000000000E+00 0. -1.
<mgrwt>
<rscale>  3 0.25929676E+03</rscale>
<asrwt>0</asrwt>
<pdfrwt beam="1">  1       21 0.84229747E-02 0.25929676E+03</pdfrwt>
<pdfrwt beam="2">  1        2 0.26824730E+00 0.25929676E+03</pdfrwt>
<totfact> 0.14051423E+04</totfact>
</mgrwt>
</event>
<event>
 4    0  0.1426692E-001  0.2444135E+03  0.7546771E-02  0.1116887E+00
          2   -1    0    0  502    0 -0.00000000000E+00  0.00000000000E+00  0.90718875696E+03  0.90718875696E+03  0.00000000000E+00 0.  1.
         21   -1    0    0  501  502  0.00000000000E+00 -0.00000000000E+00 -0.61884120187E+02  0.61884120187E+02  0.00000000000E+00 0.  1.
         25    1    1    2    0    0 -0.82094231807E+02  0.19332224422E+03  0.31507878495E+03  0.39876383202E+03  0.12500000000E+03 0.  0.
          2    1    1    2  501    0  0.82094231807E+02 -0.19332224422E+03  0.53022585182E+03  0.57030904512E+03  0.00000000000E+00 0.  1.
<mgrwt>
<rscale>  3 0.24441349E+03</rscale>
<asrwt>0</asrwt>
<pdfrwt beam="1">  1       21 0.95206345E-02 0.24441349E+03</pdfrwt>
<pdfrwt beam="2">  1        2 0.13956749E+00 0.24441349E+03</pdfrwt>
<totfact> 0.33480796E+04</totfact>
</mgrwt>
</event>
<event>
 4    0  0.1426692E-001  0.3452714E+03  0.7546771E-02  0.1064573E+00
          2   -1    0    0  502    0 -0.00000000000E+00  0.00000000000E+00  0.35949329594E+03  0.35949329594E+03  0.00000000000E+00 0.  1.
         21   -1    0    0  501  502  0.00000000000E+00 -0.00000000000E+00 -0.74753495299E+03  0.74753495299E+03  0.00000000000E+00 0.  1.
         25    1    1    2    0    0 -0.24433513985E+03  0.20949393977E+03 -0.62044219783E+03  0.71004288054E+03  0.12500000000E+03 0.  0.
          2    1    1    2  501    0  0.24433513985E+03 -0.20949393977E+03  0.23240054077E+03  0.39698536839E+03  0.00000000000E+00 0.  1.
<mgrwt>
<rscale>  3 0.34527145E+03</rscale>
<asrwt>0</asrwt>
<pdfrwt beam="1">  1       21 0.11500538E+00 0.34527145E+03</pdfrwt>
<pdfrwt beam="2">  1        2 0.55306661E-01 0.34527145E+03</pdfrwt>
<totfact> 0.61086888E+02</totfact>
</mgrwt>
</event>
<event>
 4    0  0.1426692E-001  0.2755051E+03  0.7546771E-02  0.1098170E+00
          3   -1    0    0  502    0 -0.00000000000E+00  0.00000000000E+00  0.20779489518E+04  0.20779489518E+04  0.00000000000E+00 0. -1.
         21   -1    0    0  501  502  0.00000000000E+00 -0.00000000000E+00 -0.42688185655E+02  0.42688185655E+02  0.00000000000E+00 0.  1.
         25    1    1    2    0    0 -0.89738134355E+02 -0.22852818477E+03  0.54917655627E+03  0.61440862132E+03  0.12500000000E+03 0.  0.
          3    1    1    2  501    0  0.89738134355E+02  0.22852818477E+03  0.14860842099E+04  0.15062285161E+04  0.00000000000E+00 0. -1.
<mgrwt>
<rscale>  3 0.27550511E+03</rscale>
<asrwt>0</asrwt>
<pdfrwt beam="1">  1       21 0.65674148E-02 0.27550511E+03</pdfrwt>
<pdfrwt beam="2">  1        3 0.31968438E+00 0.27550511E+03</pdfrwt>
<totfact> 0.29146840E+02</totfact>
</mgrwt>
</event>
<event>
 4    0  0.1426692E-001  0.2599769E+03  0.7546771E-02  0.1107157E+00
         21   -1    0    0  501  502  0.00000000000E+00  0.00000000000E+00  0.12612685674E+03  0.12612685674E+03  0.00000000000E+00 0.  1.
          1   -1    0    0  502    0 -0.00000000000E+00 -0.00000000000E+00 -0.10824673788E+04  0.10824673788E+04  0.00000000000E+00 0.  1.
         25    1    1    2    0    0  0.22793623199E+03  0.28369157552E+01 -0.38429717292E+02  0.26280185904E+03  0.12500000000E+03 0.  0.
          1    1    1    2  501    0 -0.22793623199E+03 -0.28369157552E+01 -0.91791080477E+03  0.94579237650E+03  0.00000000000E+00 0.  1.
<mgrwt>
<rscale>  3 0.25997687E+03</rscale>
<asrwt>0</asrwt>
<pdfrwt beam="1">  1       21 0.19404131E-01 0.25997687E+03</pdfrwt>
<pdfrwt beam="2">  1        1 0.16653345E+00 0.25997687E+03</pdfrwt>
<totfact> 0.37265464E+03</totfact>
</mgrwt>
</event>
<event>
 4    0  0.1426692E-001  0.2881789E+03  0.7546771E-02  0.1091304E+00
         21   -1    0    0  501  502  0.00000000000E+00  0.00000000000E+00  0.10199442842E+03  0.10199442842E+03  0.00000000000E+00 0. -1.
          2   -1    0    0  502    0 -0.00000000000E+00 -0.00000000000E+00 -0.14086374632E+04  0.14086374632E+04  0.00000000000E+00 0. -1.
         25    1    1    2    0    0 -0.21617969359E+03  0.14383473617E+03 -0.14937567655E+03  0.32459233508E+03  0.12500000000E+03 0.  0.
          2    1    1    2  501    0  0.21617969359E+03 -0.14383473617E+03 -0.11572673582E+04  0.11860395565E+04  0.00000000000E+00 0. -1.
<mgrwt>
<rscale>  3 0.28817892E+03</rscale>
<asrwt>0</asrwt>
<pdfrwt beam="1">  1       21 0.15691451E-01 0.28817892E+03</pdfrwt>
<pdfrwt beam="2">  1        2 0.21671344E+00 0.28817892E+03</pdfrwt>
<totfact> 0.68651764E+03</totfact>
</mgrwt>
</event>
<event>
 4    0  0.1426692E-001  0.2952373E+03  0.7546771E-02  0.1087646E+00
         21   -1    0    0  501  502  0.00000000000E+00  0.00000000000E+00  0.67500458917E+02  0.67500458917E+02  0.00000000000E+00 0. -1.
          2   -1    0    0  502    0 -0.00000000000E+00 -0.00000000000E+00 -0.14986657291E+04  0.14986657291E+04  0.00000000000E+00 0. -1.
         25    1    1    2    0    0  0.24318085073E+03 -0.11136941267E+03 -0.37837031786E+03  0.47992621275E+03  0.12500000000E+03 0.  0.
          2    1    1    2  501    0 -0.24318085073E+03  0.11136941267E+03 -0.10527949523E+04  0.10862399752E+04  0.00000000000E+00 0. -1.
<mgrwt>
<rscale>  3 0.29523732E+03</rscale>
<asrwt>0</asrwt>
<pdfrwt beam="1">  1       21 0.10384686E-01 0.29523732E+03</pdfrwt>
<pdfrwt beam="2">  1        2 0.23056397E+00 0.29523732E+03</pdfrwt>
<totfact> 0.12957685E+04</totfact>
</mgrwt>
</event>
<event>
 4    0  0.1426692E-001  0.2923987E+03  0.7546771E-02  0.1089103E+00
          1   -1    0    0  502    0 -0.00000000000E+00  0.00000000000E+00  0.25917030573E+04  0.25917030573E+04  0.00000000000E+00 0. -1.
         21   -1    0    0  501  502  0.00000000000E+00 -0.00000000000E+00 -0.72389600642E+02  0.72389600642E+02  0.00000000000E+00 0.  1.
         25    1    1    2    0    0  0.22941477860E+03 -0.13130447865E+03  0.26587705222E+03  0.39520578646E+03  0.12500000000E+03 0.  0.
          1    1    1    2  501    0 -0.22941477860E+03  0.13130447865E+03  0.22534364045E+04  0.22688868715E+04  0.00000000000E+00 0. -1.
<mgrwt>
<rscale>  3 0.29239871E+03</rscale>
<asrwt>0</asrwt>
<pdfrwt beam="1">  1       21 0.11136864E-01 0.29239871E+03</pdfrwt>
<pdfrwt beam="2">  1        1 0.39872348E+00 0.29239871E+03</pdfrwt>
<totfact> 0.10084495E+03</totfact>
</mgrwt>
</event>
<event>
 4    0  0.1426692E-001  0.3001580E+03  0.7546771E-02  0.1085162E+00
         21   -1    0    0  501  502  0.00000000000E+00  0.00000000000E+00  0.61680997272E+03  0.61680997272E+03  0.00000000000E+00 0. -1.
          2   -1    0    0  502    0 -0.00000000000E+00 -0.00000000000E+00 -0.14792878529E+03  0.14792878529E+03  0.00000000000E+00 0. -1.
         25    1    1    2    0    0 -0.79321086574E+02 -0.26110910973E+03  0.36542276352E+03  0.47289385496E+03  0.12500000000E+03 0.  0.
          2    1    1    2  501    0  0.79321086574E+02  0.26110910973E+03  0.10345842392E+03  0.29184490305E+03  0.00000000000E+00 0. -1.
<mgrwt>
<rscale>  3 0.30015796E+03</rscale>
<asrwt>0</asrwt>
<pdfrwt beam="1">  1       21 0.94893840E-01 0.30015796E+03</pdfrwt>
<pdfrwt beam="2">  1        2 0.22758275E-01 0.30015796E+03</pdfrwt>
<totfact> 0.26325392E+03</totfact>
</mgrwt>
</event>
<event>
 4    0  0.1426692E-001  0.2575362E+03  0.7546771E-02  0.1108633E+00
         21   -1    0    0  501  502  0.00000000000E+00  0.00000000000E+00  0.37869726318E+03  0.37869726318E+03  0.00000000000E+00 0. -1.
          2   -1    0    0  502    0 -0.00000000000E+00 -0.00000000000E+00 -0.70242209531E+03  0.70242209531E+03  0.00000000000E+00 0. -1.
         25    1    1    2    0    0  0.90357554231E+02 -0.20624119341E+03  0.31324609914E+03  0.40552193047E+03  0.12500000000E+03 0.  0.
          2    1    1    2  501    0 -0.90357554231E+02  0.20624119341E+03 -0.63697093127E+03  0.67559742802E+03  0.00000000000E+00 0. -1.
<mgrwt>
<rscale>  3 0.25753624E+03</rscale>
<asrwt>0</asrwt>
<pdfrwt beam="1">  1       21 0.58261118E-01 0.25753624E+03</pdfrwt>
<pdfrwt beam="2">  1        2 0.10806494E+00 0.25753624E+03</pdfrwt>
<totfact> 0.14111234E+03</totfact>
</mgrwt>
</event>
<event>
 4    0  0.1426692E-001  0.2417093E+03  0.7546771E-02  0.1118659E+00
          3   -1    0    0  502    0 -0.00000000000E+00  0.00000000000E+00  0.73818287817E+03  0.73818287817E+03  0.00000000000E+00 0.  1.
         21   -1    0    0  501  502  0.00000000000E+00 -0.00000000000E+00 -0.71475961529E+02  0.71475961529E+02  0.00000000000E+00 0.  1.
         25    1    1    2    0    0 -0.20670907852E+03 -0.83520765227E+01  0.27096473979E+03  0.36310506818E+03  0.12500000000E+03 0.  0.
          3    1    1    2  501    0  0.20670907852E+03  0.83520765227E+01  0.39574217685E+03  0.44655377153E+03  0.00000000000E+00 0.  1.
<mgrwt>
<rscale>  3 0.24170933E+03</rscale>
<asrwt>0</asrwt>
<pdfrwt beam="1">  1       21 0.10996302E-01 0.24170933E+03</pdfrwt>
<pdfrwt beam="2">  1        3 0.11356659E+00 0.24170933E+03</pdfrwt>
<totfact> 0.22896340E+03</totfact>
</mgrwt>
</event>
<event>
 4    0  0.1426692E-001  0.2520767E+03  0.7546771E-02  0.1111999E+00
         21   -1    0    0  501  502  0.00000000000E+00  0.00000000000E+00  0.16617400826E+03  0.16617400826E+03  0.00000000000E+00 0. -1.
          2   -1    0    0  502    0 -0.00000000000E+00 -0.00000000000E+00 -0.90633310740E+03  0.90633310740E+03  0.00000000000E+00 0. -1.
         25    1    1    2    0    0 -0.18971912871E+03 -0.10919853085E+03  0.46176340731E+02  0.25627118719E+03  0.12500000000E+03 0.  0.
          2    1    1    2  501    0  0.18971912871E+03  0.10919853085E+03 -0.78633543987E+03  0.81623592847E+03  0.00000000000E+00 0. -1.
<mgrwt>
<rscale>  3 0.25207671E+03</rscale>
<asrwt>0</asrwt>
<pdfrwt beam="1">  1       21 0.25565232E-01 0.25207671E+03</pdfrwt>
<pdfrwt beam="2">  1        2 0.13943586E+00 0.25207671E+03</pdfrwt>
<totfact> 0.54307177E+03</totfact>
</mgrwt>
</event>
<event>
 4    0  0.1426692E-001  0.2379436E+03  0.7546771E-02  0.1121170E+00
          3   -1    0    0  502    0 -0.00000000000E+00  0.00000000000E+00  0.43377813835E+03  0.43377813835E+03  0.00000000000E+00 0.  1.
         21   -1    0    0  501  502  0.00000000000E+00 -0.00000000000E+00 -0.44993910842E+03  0.44993910842E+03  0.00000000000E+00 0.  1.
         25    1    1    2    0    0 -0.89387287092E+01 -0.20226781426E+03 -0.39099049881E+03  0.45770158370E+03  0.12500000000E+03 0.  0.
          3    1    1    2  501    0  0.89387287092E+01  0.20226781426E+03  0.37482952875E+03  0.42601566307E+03  0.00000000000E+00 0.  1.
<mgrwt>
<rscale>  3 0.23794363E+03</rscale>
<asrwt>0</asrwt>
<pdfrwt beam="1">  1       21 0.69221402E-01 0.23794363E+03</pdfrwt>
<pdfrwt beam="2">  1        3 0.66735098E-01 0.23794363E+03</pdfrwt>
<totfact> 0.20413401E+02</totfact>
</mgrwt>
</event>
<event>
 4    0  0.1426692E-001  0.2442512E+03  0.7546771E-02  0.1116993E+00
          2   -1    0    0  502    0 -0.00000000000E+00  0.00000000000E+00  0.14103647580E+04  0.14103647580E+04  0.00000000000E+00 0.  1.
         21   -1    0    0  501  502  0.00000000000E+00 -0.00000000000E+00 -0.36920063553E+02  0.36920063553E+02  0.00000000000E+00 0. -1.
         25    1    1    2    0    0 -0.20861839779E+03  0.22628071953E+02  0.66608885507E+03  0.70945967355E+03  0.12500000000E+03 0.  0.
          2    1    1    2  501    0  0.20861839779E+03 -0.22628071953E+02  0.70735583938E+03  0.73782514801E+03  0.00000000000E+00 0.  1.
<mgrwt>
<rscale>  3 0.24425123E+03</rscale>
<asrwt>0</asrwt>
<pdfrwt beam="1">  1       21 0.56800109E-02 0.24425123E+03</pdfrwt>
<pdfrwt beam="2">  1        2 0.21697915E+00 0.24425123E+03</pdfrwt>
<totfact> 0.42013816E+04</totfact>
</mgrwt>
</event>
<event>
 4    0  0.1426692E-001  0.2516966E+03  0.7546771E-02  0.1112237E+00
          2   -1    0    0  502    0 -0.00000000000E+00  0.00000000000E+00  0.38841004150E+03  0.38841004150E+03  0.00000000000E+00 0.  1.
         21   -1    0    0  501  502  0.00000000000E+00 -0.00000000000E+00 -0.14717434869E+03  0.14717434869E+03  0.00000000000E+00 0.  1.
         25    1    1    2    0    0  0.21801890451E+03  0.13926798537E+02  0.80138373130E+02  0.26414646938E+03  0.12500000000E+03 0.  0.
          2    1    1    2  501    0 -0.21801890451E+03 -0.13926798537E+02  0.16109731968E+03  0.27143792080E+03  0.00000000000E+00 0.  1.
<mgrwt>
<rscale>  3 0.25169664E+03</rscale>
<asrwt>0</asrwt>
<pdfrwt beam="1">  1       21 0.22642208E-01 0.25169664E+03</pdfrwt>
<pdfrwt beam="2">  1        2 0.59755390E-01 0.25169664E+03</pdfrwt>
<totfact> 0.18621817E+04</totfact>
</mgrwt>
</event>
<event>
 4    0  0.1426692E-001  0.2754047E+03  0.7546771E-02  0.1098226E+00
         21   -1    0    0  501  502  0.00000000000E+00  0.00000000000E+00  0.56286379739E+02  0.56286379739E+02  0.00000000000E+00 0. -1.
          2   -1    0    0  502    0 -0.00000000000E+00 -0.00000000000E+00 -0.12885498119E+04  0.12885498119E+04  0.00000000000E+00 0. -1.
         25    1    1    2    0    0 -0.16278067966E+03 -0.18364414739E+03 -0.82054307285E+03  0.86552796427E+03  0.12500000000E+03 0.  0.
          2    1    1    2  501    0  0.16278067966E+03  0.18364414739E+03 -0.41172035930E+03  0.47930822735E+03  0.00000000000E+00 0. -1.
<mgrwt>
<rscale>  3 0.27540465E+03</rscale>
<asrwt>0</asrwt>
<pdfrwt beam="1">  1       21 0.86594429E-02 0.27540465E+03</pdfrwt>
<pdfrwt beam="2">  1        2 0.19823844E+00 0.27540465E+03</pdfrwt>
<totfact> 0.23406588E+04</totfact>
</mgrwt>
</event>
<event>
 4    0  0.1426692E-001  0.2790828E+03  0.7546771E-02  0.1096191E+00
         21   -1    0    0  501  502  0.00000000000E+00  0.00000000000E+00  0.35397184697E+02  0.35397184697E+02  0.00000000000E+00 0.  1.
          2   -1    0    0  502    0 -0.00000000000E+00 -0.00000000000E+00 -0.19772820139E+04  0.19772820139E+04  0.00000000000E+00 0.  1.
         25    1    1    2    0    0  0.14055070260E+03  0.20617393809E+03 -0.10690889174E+04  0.11049155199E+04  0.12500000000E+03 0.  0.
          2    1    1    2  501    0 -0.14055070260E+03 -0.20617393809E+03 -0.87279591185E+03  0.90776367877E+03  0.00000000000E+00 0.  1.
<mgrwt>
<rscale>  3 0.27908277E+03</rscale>
<asrwt>0</asrwt>
<pdfrwt beam="1">  1       21 0.54457201E-02 0.27908277E+03</pdfrwt>
<pdfrwt beam="2">  1        2 0.30419727E+00 0.27908277E+03</pdfrwt>
<totfact> 0.22470686E+04</totfact>
</mgrwt>
</event>
<event>
 4    0  0.1426692E-001  0.3448009E+03  0.7546771E-02  0.1064769E+00
         21   -1    0    0  501  502  0.00000000000E+00  0.00000000000E+00  0.14769561022E+03  0.14769561022E+03  0.00000000000E+00 0. -1.
          2   -1    0    0  502    0 -0.00000000000E+00 -0.00000000000E+00 -0.13183236071E+04  0.13183236071E+04  0.00000000000E+00 0. -1.
         25    1    1    2    0    0 -0.27945432918E+03 -0.15864397255E+03 -0.11642355823E+03  0.36392592245E+03  0.12500000000E+03 0.  0.
          2    1    1    2  501    0  0.27945432918E+03  0.15864397255E+03 -0.10542044386E+04  0.11020932949E+04  0.00000000000E+00 0. -1.
<mgrwt>
<rscale>  3 0.34480086E+03</rscale>
<asrwt>0</asrwt>
<pdfrwt beam="1">  1       21 0.22722401E-01 0.34480086E+03</pdfrwt>
<pdfrwt beam="2">  1        2 0.20281902E+00 0.34480086E+03</pdfrwt>
<totfact> 0.37803449E+03</totfact>
</mgrwt>
</event>
<event>
 4    0  0.1426692E-001  0.2624961E+03  0.7546771E-02  0.1105653E+00
         21   -1    0    0  501  502  0.00000000000E+00  0.00000000000E+00  0.16485965198E+03  0.16485965198E+03  0.00000000000E+00 0. -1.
          2   -1    0    0  502    0 -0.00000000000E+00 -0.00000000000E+00 -0.57884621460E+03  0.57884621460E+03  0.00000000000E+00 0. -1.
         25    1    1    2    0    0 -0.50903449085E+02  0.22514004509E+03  0.81072577123E+01  0.26262126468E+03  0.12500000000E+03 0.  0.
          2    1    1    2  501    0  0.50903449085E+02 -0.22514004509E+03 -0.42209382033E+03  0.48108460191E+03  0.00000000000E+00 0. -1.
<mgrwt>
<rscale>  3 0.26249610E+03</rscale>
<asrwt>0</asrwt>
<pdfrwt beam="1">  1       21 0.25363023E-01 0.26249610E+03</pdfrwt>
<pdfrwt beam="2">  1        2 0.89053266E-01 0.26249610E+03</pdfrwt>
<totfact> 0.95801296E+03</totfact>
</mgrwt>
</event>
<event>
 4    0  0.1426692E-001  0.2856168E+03  0.7546771E-02  0.1092660E+00
          2   -1    0    0  502    0 -0.00000000000E+00  0.00000000000E+00  0.50442227672E+03  0.50442227672E+03  0.00000000000E+00 0.  1.
         21   -1    0    0  501  502  0.00000000000E+00 -0.00000000000E+00 -0.27970179681E+03  0.27970179681E+03  0.00000000000E+00 0. -1.
         25    1    1    2    0    0 -0.25364874616E+03 -0.40178191234E+02 -0.15557389781E+03  0.32523869874E+03  0.12500000000E+03 0.  0.
          2    1    1    2  501    0  0.25364874616E+03  0.40178191234E+02  0.38029437771E+03  0.45888537479E+03  0.00000000000E+00 0.  1.
<mgrwt>
<rscale>  3 0.28561683E+03</rscale>
<asrwt>0</asrwt>
<pdfrwt beam="1">  1       21 0.43031046E-01 0.28561683E+03</pdfrwt>
<pdfrwt beam="2">  1        2 0.77603427E-01 0.28561683E+03</pdfrwt>
<totfact> 0.38954364E+03</totfact>
</mgrwt>
</event>
<event>
 4    0  0.1426692E-001  0.3334045E+03  0.7546771E-02  0.1069640E+00
          2   -1    0    0  502    0 -0.00000000000E+00  0.00000000000E+00  0.18759645828E+04  0.18759645828E+04  0.00000000000E+00 0.  1.
         21   -1    0    0  501  502  0.00000000000E+00 -0.00000000000E+00 -0.15103321105E+03  0.15103321105E+03  0.00000000000E+00 0.  1.
         25    1    1    2    0    0  0.25940788680E+03 -0.16805089358E+03  0.66451589313E+02  0.33996230422E+03  0.12500000000E+03 0.  0.
          2    1    1    2  501    0 -0.25940788680E+03  0.16805089358E+03  0.16584797825E+04  0.16870354897E+04  0.00000000000E+00 0.  1.
<mgrwt>
<rscale>  3 0.33340449E+03</rscale>
<asrwt>0</asrwt>
<pdfrwt beam="1">  1       21 0.23235880E-01 0.33340449E+03</pdfrwt>
<pdfrwt beam="2">  1        2 0.28860992E+00 0.33340449E+03</pdfrwt>
<totfact> 0.18206711E+03</totfact>
</mgrwt>
</event>
<event>
 4    0  0.1426692E-001  0.3480499E+03  0.7546771E-02  0.1063418E+00
          3   -1    0    0  502    0 -0.00000000000E+00  0.00000000000E+00  0.77788555535E+03  0.77788555535E+03  0.00000000000E+00 0. -1.
         21   -1    0    0  501  502  0.00000000000E+00 -0.00000000000E+00 -0.15783960785E+03  0.15783960785E+03  0.00000000000E+00 0. -1.
         25    1    1    2    0    0 -0.18709345939E+03 -0.26553675478E+03  0.18920390158E+03  0.39615255528E+03  0.12500000000E+03 0.  0.
          3    1    1    2  501    0  0.18709345939E+03  0.26553675478E+03  0.43084204591E+03  0.53957260792E+03  0.00000000000E+00 0. -1.
<mgrwt>
<rscale>  3 0.34804990E+03</rscale>
<asrwt>0</asrwt>
<pdfrwt beam="1">  1       21 0.24283017E-01 0.34804990E+03</pdfrwt>
<pdfrwt beam="2">  1        3 0.11967470E+00 0.34804990E+03</pdfrwt>
<totfact> 0.46185156E+02</totfact>
</mgrwt>
</event>
<event>
 4    0  0.1426692E-001  0.2876767E+03  0.7546771E-02  0.1091568E+00
          2   -1    0    0  502    0 -0.00000000000E+00  0.00000000000E+00  0.80429434612E+03  0.80429434612E+03  0.00000000000E+00 0. -1.
         21   -1    0    0  501  502  0.00000000000E+00 -0.00000000000E+00 -0.16586731712E+03  0.16586731712E+03  0.00000000000E+00 0.  1.
         25    1    1    2    0    0 -0.24073617856E+03 -0.95806939556E+02  0.71329747122E+01  0.28776510675E+03  0.12500000000E+03 0.  0.
          2    1    1    2  501    0  0.24073617856E+03  0.95806939556E+02  0.63129405429E+03  0.68239655650E+03  0.00000000000E+00 0. -1.
<mgrwt>
<rscale>  3 0.28767669E+03</rscale>
<asrwt>0</asrwt>
<pdfrwt beam="1">  1       21 0.25518049E-01 0.28767669E+03</pdfrwt>
<pdfrwt beam="2">  1        2 0.12373759E+00 0.28767669E+03</pdfrwt>
<totfact> 0.63155198E+03</totfact>
</mgrwt>
</event>
<event>
 4    0  0.1426692E-001  0.4138129E+03  0.7546771E-02  0.1039099E+00
          2   -1    0    0  502    0 -0.00000000000E+00  0.00000000000E+00  0.75472041129E+03  0.75472041129E+03  0.00000000000E+00 0. -1.
         21   -1    0    0  501  502  0.00000000000E+00 -0.00000000000E+00 -0.27191358592E+03  0.27191358592E+03  0.00000000000E+00 0. -1.
         25    1    1    2    0    0 -0.80807726243E+02  0.38611687457E+03  0.14152276974E+02  0.41405484708E+03  0.12500000000E+03 0.  0.
          2    1    1    2  501    0  0.80807726243E+02 -0.38611687457E+03  0.46865454840E+03  0.61257915013E+03  0.00000000000E+00 0. -1.
<mgrwt>
<rscale>  3 0.41381292E+03</rscale>
<asrwt>0</asrwt>
<pdfrwt beam="1">  1       21 0.41832860E-01 0.41381292E+03</pdfrwt>
<pdfrwt beam="2">  1        2 0.11611083E+00 0.41381292E+03</pdfrwt>
<totfact> 0.24806862E+03</totfact>
</mgrwt>
</event>
<event>
 4    0  0.1426692E-001  0.3021252E+03  0.7546771E-02  0.1084183E+00
         21   -1    0    0  501  502  0.00000000000E+00  0.00000000000E+00  0.16995881969E+03  0.16995881969E+03  0.00000000000E+00 0. -1.
          2   -1    0    0  502    0 -0.00000000000E+00 -0.00000000000E+00 -0.13174900422E+04  0.13174900422E+04  0.00000000000E+00 0. -1.
         25    1    1    2    0    0  0.27009682080E+03  0.51984267813E+02  0.53883534566E+01  0.30217327986E+03  0.12500000000E+03 0.  0.
          2    1    1    2  501    0 -0.27009682080E+03 -0.51984267813E+02 -0.11529195760E+04  0.11852755821E+04  0.00000000000E+00 0. -1.
<mgrwt>
<rscale>  3 0.30212523E+03</rscale>
<asrwt>0</asrwt>
<pdfrwt beam="1">  1       21 0.26147510E-01 0.30212523E+03</pdfrwt>
<pdfrwt beam="2">  1        2 0.20269078E+00 0.30212523E+03</pdfrwt>
<totfact> 0.29238671E+03</totfact>
</mgrwt>
</event>
<event>
 4    0  0.1426692E-001  0.2799168E+03  0.7546771E-02  0.1095734E+00
          1   -1    0    0  502    0 -0.00000000000E+00  0.00000000000E+00  0.18356508557E+04  0.18356508557E+04  0.00000000000E+00 0. -1.
         21   -1    0    0  501  502  0.00000000000E+00 -0.00000000000E+00 -0.55937509428E+02  0.55937509428E+02  0.00000000000E+00 0. -1.
         25    1    1    2    0    0  0.17661501253E+03  0.17758251987E+03  0.39333735161E+03  0.48277084231E+03  0.12500000000E+03 0.  0.
          1    1    1    2  501    0 -0.17661501253E+03 -0.17758251987E+03  0.13863759946E+04  0.14088175228E+04  0.00000000000E+00 0. -1.
<mgrwt>
<rscale>  3 0.27991680E+03</rscale>
<asrwt>0</asrwt>
<pdfrwt beam="1">  1       21 0.86057721E-02 0.27991680E+03</pdfrwt>
<pdfrwt beam="2">  1        1 0.28240778E+00 0.27991680E+03</pdfrwt>
<totfact> 0.50320569E+03</totfact>
</mgrwt>
</event>
<event>
 4    0  0.1426692E-001  0.3154013E+03  0.7546771E-02  0.1077785E+00
         21   -1    0    0  501  502  0.00000000000E+00  0.00000000000E+00  0.21457598363E+04  0.21457598363E+04  0.00000000000E+00 0.  1.
          2   -1    0    0  502    0 -0.00000000000E+00 -0.00000000000E+00 -0.34628915635E+03  0.34628915635E+03  0.00000000000E+00 0. -1.
         25    1    1    2    0    0  0.10189575544E+03  0.27105392587E+03  0.20711224645E+04  0.20950002956E+04  0.12500000000E+03 0.  0.
          2    1    1    2  501    0 -0.10189575544E+03 -0.27105392587E+03 -0.27165178460E+03  0.39704869699E+03  0.00000000000E+00 0. -1.
<mgrwt>
<rscale>  3 0.31540129E+03</rscale>
<asrwt>0</asrwt>
<pdfrwt beam="1">  1       21 0.33011689E+00 0.31540129E+03</pdfrwt>
<pdfrwt beam="2">  1        2 0.53275256E-01 0.31540129E+03</pdfrwt>
<totfact> 0.23283452E+01</totfact>
</mgrwt>
</event>
<event>
 4    0  0.1426692E-001  0.2792991E+03  0.7546771E-02  0.1096072E+00
         21   -1    0    0  501  502  0.00000000000E+00  0.00000000000E+00  0.44344999725E+02  0.44344999725E+02  0.00000000000E+00 0.  1.
          2   -1    0    0  502    0 -0.00000000000E+00 -0.00000000000E+00 -0.17687940079E+04  0.17687940079E+04  0.00000000000E+00 0.  1.
         25    1    1    2    0    0 -0.11717606001E+03 -0.22057373772E+03 -0.60785133127E+03  0.66894786324E+03  0.12500000000E+03 0.  0.
          2    1    1    2  501    0  0.11717606001E+03  0.22057373772E+03 -0.11165976769E+04  0.11441911444E+04  0.00000000000E+00 0.  1.
<mgrwt>
<rscale>  3 0.27929913E+03</rscale>
<asrwt>0</asrwt>
<pdfrwt beam="1">  1       21 0.68223080E-02 0.27929913E+03</pdfrwt>
<pdfrwt beam="2">  1        2 0.27212214E+00 0.27929913E+03</pdfrwt>
<totfact> 0.19598882E+04</totfact>
</mgrwt>
</event>
<event>
 4    0  0.1426692E-001  0.7107241E+03  0.7546771E-02  0.9699066E-01
          2   -1    0    0  502    0 -0.00000000000E+00  0.00000000000E+00  0.72567140787E+03  0.72567140787E+03  0.00000000000E+00 0. -1.
         21   -1    0    0  501  502  0.00000000000E+00 -0.00000000000E+00 -0.17275593265E+04  0.17275593265E+04  0.00000000000E+00 0. -1.
         25    1    1    2    0    0  0.69210612112E+03 -0.10243480086E+03 -0.14552558013E+04  0.16195364209E+04  0.12500000000E+03 0.  0.
          2    1    1    2  501    0 -0.69210612112E+03  0.10243480086E+03  0.45336788268E+03  0.83369431350E+03  0.00000000000E+00 0. -1.
<mgrwt>
<rscale>  3 0.71072412E+03</rscale>
<asrwt>0</asrwt>
<pdfrwt beam="1">  1       21 0.26577836E+00 0.71072412E+03</pdfrwt>
<pdfrwt beam="2">  1        2 0.11164175E+00 0.71072412E+03</pdfrwt>
<totfact> 0.19865734E+01</totfact>
</mgrwt>
</event>
<event>
 4    0  0.1426692E-001  0.2638483E+03  0.7546771E-02  0.1104853E+00
         21   -1    0    0  501  502  0.00000000000E+00  0.00000000000E+00  0.12480097430E+03  0.12480097430E+03  0.00000000000E+00 0.  1.
          1   -1    0    0  502    0 -0.00000000000E+00 -0.00000000000E+00 -0.56093723551E+03  0.56093723551E+03  0.00000000000E+00 0.  1.
         25    1    1    2    0    0  0.65488867433E+02  0.22293973956E+03 -0.11132575841E+03  0.28637273564E+03  0.12500000000E+03 0.  0.
          1    1    1    2  501    0 -0.65488867433E+02 -0.22293973956E+03 -0.32481050280E+03  0.39936547418E+03  0.00000000000E+00 0.  1.
<mgrwt>
<rscale>  3 0.26384829E+03</rscale>
<asrwt>0</asrwt>
<pdfrwt beam="1">  1       21 0.19200150E-01 0.26384829E+03</pdfrwt>
<pdfrwt beam="2">  1        1 0.86298037E-01 0.26384829E+03</pdfrwt>
<totfact> 0.10498502E+04</totfact>
</mgrwt>
</event>
<event>
 4    0  0.1426692E-001  0.2781201E+03  0.7546771E-02  0.1096720E+00
          2   -1    0    0  502    0 -0.00000000000E+00  0.00000000000E+00  0.20106109156E+03  0.20106109156E+03  0.00000000000E+00 0.  1.
         21   -1    0    0  501  502  0.00000000000E+00 -0.00000000000E+00 -0.34539936552E+03  0.34539936552E+03  0.00000000000E+00 0. -1.
         25    1    1    2    0    0 -0.24843754222E+03  0.21430448777E+01 -0.64507920392E+02  0.28550319932E+03  0.12500000000E+03 0.  0.
          2    1    1    2  501    0  0.24843754222E+03 -0.21430448777E+01 -0.79830353572E+02  0.26095725776E+03  0.00000000000E+00 0.  1.
<mgrwt>
<rscale>  3 0.27812013E+03</rscale>
<asrwt>0</asrwt>
<pdfrwt beam="1">  1       21 0.53138364E-01 0.27812013E+03</pdfrwt>
<pdfrwt beam="2">  1        2 0.30932476E-01 0.27812013E+03</pdfrwt>
<totfact> 0.68699379E+03</totfact>
</mgrwt>
</event>
<event>
 4    0  0.1426692E-001  0.2597937E+03  0.7546771E-02  0.1107267E+00
         21   -1    0    0  501  502  0.00000000000E+00  0.00000000000E+00  0.16823830400E+04  0.16823830400E+04  0.00000000000E+00 0. -1.
          2   -1    0    0  502    0 -0.00000000000E+00 -0.00000000000E+00 -0.22228868265E+04  0.22228868265E+04  0.00000000000E+00 0. -1.
         25    1    1    2    0    0  0.15249599717E+03 -0.16915302678E+03  0.16664587317E+04  0.16865875251E+04  0.12500000000E+03 0.  0.
          2    1    1    2  501    0 -0.15249599717E+03  0.16915302678E+03 -0.22069625181E+04  0.22186823414E+04  0.00000000000E+00 0. -1.
<mgrwt>
<rscale>  3 0.25979372E+03</rscale>
<asrwt>0</asrwt>
<pdfrwt beam="1">  1       21 0.25882816E+00 0.25979372E+03</pdfrwt>
<pdfrwt beam="2">  1        2 0.34198259E+00 0.25979372E+03</pdfrwt>
<totfact> 0.39456821E+00</totfact>
</mgrwt>
</event>
<event>
 4    0  0.1426692E-001  0.4397821E+03  0.7546771E-02  0.1030814E+00
         21   -1    0    0  501  502  0.00000000000E+00  0.00000000000E+00  0.43652045119E+03  0.43652045119E+03  0.00000000000E+00 0.  1.
          2   -1    0    0  502    0 -0.00000000000E+00 -0.00000000000E+00 -0.52780593361E+03  0.52780593361E+03  0.00000000000E+00 0.  1.
         25    1    1    2    0    0  0.37037716011E+03 -0.20150449702E+03  0.16636078832E+03  0.47019593251E+03  0.12500000000E+03 0.  0.
          2    1    1    2  501    0 -0.37037716011E+03  0.20150449702E+03 -0.25764627075E+03  0.49413045230E+03  0.00000000000E+00 0.  1.
<mgrwt>
<rscale>  3 0.43978211E+03</rscale>
<asrwt>0</asrwt>
<pdfrwt beam="1">  1       21 0.67156993E-01 0.43978211E+03</pdfrwt>
<pdfrwt beam="2">  1        2 0.81200912E-01 0.43978211E+03</pdfrwt>
<totfact> 0.13741788E+03</totfact>
</mgrwt>
</event>
<event>
 4    0  0.1426692E-001  0.3363931E+03  0.7546771E-02  0.1068343E+00
         21   -1    0    0  501  502  0.00000000000E+00  0.00000000000E+00  0.30695420744E+03  0.30695420744E+03  0.00000000000E+00 0. -1.
          2   -1    0    0  502    0 -0.00000000000E+00 -0.00000000000E+00 -0.12490559368E+04  0.12490559368E+04  0.00000000000E+00 0. -1.
         25    1    1    2    0    0  0.31009436427E+03  0.37105181123E+02  0.18674962162E+03  0.38475411680E+03  0.12500000000E+03 0.  0.
          2    1    1    2  501    0 -0.31009436427E+03 -0.37105181123E+02 -0.11288513510E+04  0.11712560275E+04  0.00000000000E+00 0. -1.
<mgrwt>
<rscale>  3 0.33639309E+03</rscale>
<asrwt>0</asrwt>
<pdfrwt beam="1">  1       21 0.47223725E-01 0.33639309E+03</pdfrwt>
<pdfrwt beam="2">  1        2 0.19216245E+00 0.33639309E+03</pdfrwt>
<totfact> 0.96064039E+02</totfact>
</mgrwt>
</event>
<event>
 4    0  0.1426692E-001  0.5068040E+03  0.7546771E-02  0.1012018E+00
         21   -1    0    0  501  502  0.00000000000E+00  0.00000000000E+00  0.27211778417E+03  0.27211778417E+03  0.00000000000E+00 0. -1.
          2   -1    0    0  502    0 -0.00000000000E+00 -0.00000000000E+00 -0.14913858608E+04  0.14913858608E+04  0.00000000000E+00 0.  1.
         25    1    1    2    0    0  0.13683943566E+03 -0.47169929583E+03 -0.67362726699E+02  0.51126117962E+03  0.12500000000E+03 0.  0.
          2    1    1    2  501    0 -0.13683943566E+03  0.47169929583E+03 -0.11519053499E+04  0.12522424653E+04  0.00000000000E+00 0.  1.
<mgrwt>
<rscale>  3 0.50680396E+03</rscale>
<asrwt>0</asrwt>
<pdfrwt beam="1">  1       21 0.41864275E-01 0.50680396E+03</pdfrwt>
<pdfrwt beam="2">  1        2 0.22944398E+00 0.50680396E+03</pdfrwt>
<totfact> 0.86071588E+02</totfact>
</mgrwt>
</event>
<event>
 4    0  0.1426692E-001  0.2412772E+03  0.7546771E-02  0.1118945E+00
         -3   -1    0    0    0  501 -0.00000000000E+00  0.00000000000E+00  0.10407634203E+03  0.10407634203E+03  0.00000000000E+00 0.  1.
         21   -1    0    0  501  502  0.00000000000E+00 -0.00000000000E+00 -0.99552091450E+03  0.99552091450E+03  0.00000000000E+00 0. -1.
         25    1    1    2    0    0 -0.20536943155E+03 -0.20324825773E+02 -0.85706661386E+03  0.89038075145E+03  0.12500000000E+03 0.  0.
         -3    1    1    2    0  502  0.20536943155E+03  0.20324825773E+02 -0.34377958610E+02  0.20921650508E+03  0.00000000000E+00 0.  1.
<mgrwt>
<rscale>  3 0.24127723E+03</rscale>
<asrwt>0</asrwt>
<pdfrwt beam="1">  1       21 0.15315706E+00 0.24127723E+03</pdfrwt>
<pdfrwt beam="2">  1       -3 0.16011746E-01 0.24127723E+03</pdfrwt>
<totfact> 0.45535257E+02</totfact>
</mgrwt>
</event>
<event>
 4    0  0.1426692E-001  0.2470025E+03  0.7546771E-02  0.1115214E+00
          1   -1    0    0  502    0 -0.00000000000E+00  0.00000000000E+00  0.13363392373E+04  0.13363392373E+04  0.00000000000E+00 0.  1.
         21   -1    0    0  501  502  0.00000000000E+00 -0.00000000000E+00 -0.60668909516E+02  0.60668909516E+02  0.00000000000E+00 0.  1.
         25    1    1    2    0    0  0.15046746602E+03  0.15081376132E+03  0.25759907081E+03  0.35688587842E+03  0.12500000000E+03 0.  0.
          1    1    1    2  501    0 -0.15046746602E+03 -0.15081376132E+03  0.10180712570E+04  0.10401222684E+04  0.00000000000E+00 0.  1.
<mgrwt>
<rscale>  3 0.24700253E+03</rscale>
<asrwt>0</asrwt>
<pdfrwt beam="1">  1       21 0.93336794E-02 0.24700253E+03</pdfrwt>
<pdfrwt beam="2">  1        1 0.20559063E+00 0.24700253E+03</pdfrwt>
<totfact> 0.94049588E+03</totfact>
</mgrwt>
</event>
<event>
 4    0  0.1426692E-001  0.2911163E+03  0.7546771E-02  0.1089768E+00
         21   -1    0    0  501  502  0.00000000000E+00  0.00000000000E+00  0.15468376104E+04  0.15468376104E+04  0.00000000000E+00 0. -1.
         -3   -1    0    0    0  501 -0.00000000000E+00 -0.00000000000E+00 -0.11498045336E+03  0.11498045336E+03  0.00000000000E+00 0.  1.
         25    1    1    2    0    0  0.95837113677E+02  0.24482432083E+03  0.13578221532E+04  0.13886791207E+04  0.12500000000E+03 0.  0.
         -3    1    1    2    0  502 -0.95837113677E+02 -0.24482432083E+03  0.74035003811E+02  0.27313894306E+03  0.00000000000E+00 0.  1.
<mgrwt>
<rscale>  3 0.29111630E+03</rscale>
<asrwt>0</asrwt>
<pdfrwt beam="1">  1       21 0.23797500E+00 0.29111630E+03</pdfrwt>
<pdfrwt beam="2">  1       -3 0.17689302E-01 0.29111630E+03</pdfrwt>
<totfact> 0.10193846E+02</totfact>
</mgrwt>
</event>
<event>
 4    0  0.1426692E-001  0.3121256E+03  0.7546771E-02  0.1079331E+00
         21   -1    0    0  501  502  0.00000000000E+00  0.00000000000E+00  0.40984543232E+03  0.40984543232E+03  0.00000000000E+00 0.  1.
          2   -1    0    0  502    0 -0.00000000000E+00 -0.00000000000E+00 -0.51813879646E+03  0.51813879646E+03  0.00000000000E+00 0. -1.
         25    1    1    2    0    0 -0.11373216105E+03  0.26241643298E+03  0.29772336647E+03  0.43134857331E+03  0.12500000000E+03 0.  0.
          2    1    1    2  501    0  0.11373216105E+03 -0.26241643298E+03 -0.40601673060E+03  0.49663565547E+03  0.00000000000E+00 0. -1.
<mgrwt>
<rscale>  3 0.31212560E+03</rscale>
<asrwt>0</asrwt>
<pdfrwt beam="1">  1       21 0.63053144E-01 0.31212560E+03</pdfrwt>
<pdfrwt beam="2">  1        2 0.79713661E-01 0.31212560E+03</pdfrwt>
<totfact> 0.16670960E+03</totfact>
</mgrwt>
</event>
<event>
 4    0  0.1426692E-001  0.6021960E+03  0.7546771E-02  0.9900860E-01
          2   -1    0    0  502    0 -0.00000000000E+00  0.00000000000E+00  0.30986852553E+04  0.30986852553E+04  0.00000000000E+00 0.  1.
         21   -1    0    0  501  502  0.00000000000E+00 -0.00000000000E+00 -0.19097892443E+03  0.19097892443E+03  0.00000000000E+00 0. -1.
         25    1    1    2    0    0  0.47794822072E+03  0.34435529819E+03  0.42257710922E+03  0.73567077305E+03  0.12500000000E+03 0.  0.
          2    1    1    2  501    0 -0.47794822072E+03 -0.34435529819E+03  0.24851292217E+04  0.25539934067E+04  0.00000000000E+00 0.  1.
<mgrwt>
<rscale>  3 0.60219604E+03</rscale>
<asrwt>0</asrwt>
<pdfrwt beam="1">  1       21 0.29381375E-01 0.60219604E+03</pdfrwt>
<pdfrwt beam="2">  1        2 0.47672077E+00 0.60219604E+03</pdfrwt>
<totfact> 0.21610274E+02</totfact>
</mgrwt>
</event>
<event>
 4    0  0.1426692E-001  0.2876919E+03  0.7546771E-02  0.1091560E+00
         21   -1    0    0  501  502  0.00000000000E+00  0.00000000000E+00  0.13011527031E+04  0.13011527031E+04  0.00000000000E+00 0.  1.
          1   -1    0    0  502    0 -0.00000000000E+00 -0.00000000000E+00 -0.87369717853E+02  0.87369717853E+02  0.00000000000E+00 0.  1.
         25    1    1    2    0    0  0.12647098694E+03  0.22615643637E+03  0.10336625241E+04  0.10729514705E+04  0.12500000000E+03 0.  0.
          1    1    1    2  501    0 -0.12647098694E+03 -0.22615643637E+03  0.18012046107E+03  0.31557095041E+03  0.00000000000E+00 0.  1.
<mgrwt>
<rscale>  3 0.28769193E+03</rscale>
<asrwt>0</asrwt>
<pdfrwt beam="1">  1       21 0.20017733E+00 0.28769193E+03</pdfrwt>
<pdfrwt beam="2">  1        1 0.13441496E-01 0.28769193E+03</pdfrwt>
<totfact> 0.58429238E+02</totfact>
</mgrwt>
</event>
<event>
 4    0  0.1426692E-001  0.2836323E+03  0.7546771E-02  0.1093721E+00
          4   -1    0    0  502    0 -0.00000000000E+00  0.00000000000E+00  0.19866226270E+03  0.19866226270E+03  0.00000000000E+00 0.  1.
         21   -1    0    0  501  502  0.00000000000E+00 -0.00000000000E+00 -0.59135348085E+03  0.59135348085E+03  0.00000000000E+00 0.  1.
         25    1    1    2    0    0 -0.18231090949E+03  0.17772175524E+03 -0.44727840457E+03  0.52962747399E+03  0.12500000000E+03 0.  0.
          4    1    1    2  501    0  0.18231090949E+03 -0.17772175524E+03  0.54587186425E+02  0.26038826957E+03  0.00000000000E+00 0.  1.
<mgrwt>
<rscale>  3 0.28363231E+03</rscale>
<asrwt>0</asrwt>
<pdfrwt beam="1">  1       21 0.90977458E-01 0.28363231E+03</pdfrwt>
<pdfrwt beam="2">  1        4 0.30563425E-01 0.28363231E+03</pdfrwt>
<totfact> 0.43713039E+02</totfact>
</mgrwt>
</event>
<event>
 4    0  0.1426692E-001  0.2446079E+03  0.7546771E-02  0.1116761E+00
         21   -1    0    0  501  502  0.00000000000E+00  0.00000000000E+00  0.24602707536E+04  0.24602707536E+04  0.00000000000E+00 0. -1.
          2   -1    0    0  502    0 -0.00000000000E+00 -0.00000000000E+00 -0.28261853844E+02  0.28261853844E+02  0.00000000000E+00 0.  1.
         25    1    1    2    0    0  0.20816229262E+03  0.29605866222E+02  0.19126442694E+04  0.19282222768E+04  0.12500000000E+03 0.  0.
          2    1    1    2  501    0 -0.20816229262E+03 -0.29605866222E+02  0.51936463031E+03  0.56031033062E+03  0.00000000000E+00 0.  1.
<mgrwt>
<rscale>  3 0.24460795E+03</rscale>
<asrwt>0</asrwt>
<pdfrwt beam="1">  1       21 0.37850302E+00 0.24460795E+03</pdfrwt>
<pdfrwt beam="2">  1        2 0.43479794E-02 0.24460795E+03</pdfrwt>
<totfact> 0.25371354E+02</totfact>
</mgrwt>
</event>
<event>
 4    0  0.1426692E-001  0.2381890E+03  0.7546771E-02  0.1121005E+00
         21   -1    0    0  501  502  0.00000000000E+00  0.00000000000E+00  0.34973547427E+03  0.34973547427E+03  0.00000000000E+00 0.  1.
         -2   -1    0    0    0  501 -0.00000000000E+00 -0.00000000000E+00 -0.42908494871E+03  0.42908494871E+03  0.00000000000E+00 0.  1.
         25    1    1    2    0    0  0.20251659291E+03 -0.98005004366E+01  0.27914934766E+03  0.36695827898E+03  0.12500000000E+03 0.  0.
         -2    1    1    2    0  502 -0.20251659291E+03  0.98005004366E+01 -0.35849882210E+03  0.41186214400E+03  0.00000000000E+00 0.  1.
<mgrwt>
<rscale>  3 0.23818904E+03</rscale>
<asrwt>0</asrwt>
<pdfrwt beam="1">  1       21 0.53805458E-01 0.23818904E+03</pdfrwt>
<pdfrwt beam="2">  1       -2 0.66013069E-01 0.23818904E+03</pdfrwt>
<totfact> 0.56603360E+02</totfact>
</mgrwt>
</event>
<event>
 4    0  0.1426692E-001  0.2753615E+03  0.7546771E-02  0.1098250E+00
         21   -1    0    0  501  502  0.00000000000E+00  0.00000000000E+00  0.16387967547E+04  0.16387967547E+04  0.00000000000E+00 0. -1.
         -3   -1    0    0    0  501 -0.00000000000E+00 -0.00000000000E+00 -0.49711940407E+02  0.49711940407E+02  0.00000000000E+00 0. -1.
         25    1    1    2    0    0 -0.19616603649E+03  0.14736970726E+03  0.48714170816E+03  0.55958108289E+03  0.12500000000E+03 0.  0.
         -3    1    1    2    0  502  0.19616603649E+03 -0.14736970726E+03  0.11019431061E+04  0.11289276122E+04  0.00000000000E+00 0. -1.
<mgrwt>
<rscale>  3 0.27536148E+03</rscale>
<asrwt>0</asrwt>
<pdfrwt beam="1">  1       21 0.25212254E+00 0.27536148E+03</pdfrwt>
<pdfrwt beam="2">  1       -3 0.76479921E-02 0.27536148E+03</pdfrwt>
<totfact> 0.35089676E+02</totfact>
</mgrwt>
</event>
<event>
 4    0  0.1426692E-001  0.2905840E+03  0.7546771E-02  0.1090045E+00
          2   -1    0    0  502    0 -0.00000000000E+00  0.00000000000E+00  0.17266426465E+04  0.17266426465E+04  0.00000000000E+00 0. -1.
         21   -1    0    0  501  502  0.00000000000E+00 -0.00000000000E+00 -0.21495314068E+03  0.21495314068E+03  0.00000000000E+00 0. -1.
         25    1    1    2    0    0  0.62813396977E+02 -0.25469301062E+03 -0.10105637355E+03  0.30765474665E+03  0.12500000000E+03 0.  0.
          2    1    1    2  501    0 -0.62813396977E+02  0.25469301062E+03  0.16127458794E+04  0.16339410405E+04  0.00000000000E+00 0. -1.
<mgrwt>
<rscale>  3 0.29058399E+03</rscale>
<asrwt>0</asrwt>
<pdfrwt beam="1">  1       21 0.33069715E-01 0.29058399E+03</pdfrwt>
<pdfrwt beam="2">  1        2 0.26563732E+00 0.29058399E+03</pdfrwt>
<totfact> 0.11146967E+03</totfact>
</mgrwt>
</event>
<event>
 4    0  0.1426692E-001  0.3834713E+03  0.7546771E-02  0.1049658E+00
         -1   -1    0    0    0  501 -0.00000000000E+00  0.00000000000E+00  0.27247340356E+03  0.27247340356E+03  0.00000000000E+00 0. -1.
         21   -1    0    0  501  502  0.00000000000E+00 -0.00000000000E+00 -0.78911822584E+03  0.78911822584E+03  0.00000000000E+00 0.  1.
         25    1    1    2    0    0 -0.26251945561E+03  0.25001761017E+03 -0.57827148652E+03  0.69386467131E+03  0.12500000000E+03 0.  0.
         -1    1    1    2    0  502  0.26251945561E+03 -0.25001761017E+03  0.61626664235E+02  0.36772695810E+03  0.00000000000E+00 0. -1.
<mgrwt>
<rscale>  3 0.38347134E+03</rscale>
<asrwt>0</asrwt>
<pdfrwt beam="1">  1       21 0.12140280E+00 0.38347134E+03</pdfrwt>
<pdfrwt beam="2">  1       -1 0.41918986E-01 0.38347134E+03</pdfrwt>
<totfact> 0.24663149E+02</totfact>
</mgrwt>
</event>
<event>
 4    0  0.1426692E-001  0.2600349E+03  0.7546771E-02  0.1107122E+00
          2   -1    0    0  502    0 -0.00000000000E+00  0.00000000000E+00  0.21036603507E+04  0.21036603507E+04  0.00000000000E+00 0.  1.
         21   -1    0    0  501  502  0.00000000000E+00 -0.00000000000E+00 -0.24897477513E+03  0.24897477513E+03  0.00000000000E+00 0.  1.
         25    1    1    2    0    0 -0.19368447332E+03  0.12033064996E+03 -0.17289896359E+03  0.31226942235E+03  0.12500000000E+03 0.  0.
          2    1    1    2  501    0  0.19368447332E+03 -0.12033064996E+03  0.20275845392E+04  0.20403657035E+04  0.00000000000E+00 0.  1.
<mgrwt>
<rscale>  3 0.26003488E+03</rscale>
<asrwt>0</asrwt>
<pdfrwt beam="1">  1       21 0.38303813E-01 0.26003488E+03</pdfrwt>
<pdfrwt beam="2">  1        2 0.32364004E+00 0.26003488E+03</pdfrwt>
<totfact> 0.53389447E+02</totfact>
</mgrwt>
</event>
<event>
 4    0  0.1426692E-001  0.2977678E+03  0.7546771E-02  0.1086362E+00
         21   -1    0    0  501  502  0.00000000000E+00  0.00000000000E+00  0.23469908605E+03  0.23469908605E+03  0.00000000000E+00 0. -1.
         -1   -1    0    0    0  501 -0.00000000000E+00 -0.00000000000E+00 -0.36244963668E+03  0.36244963668E+03  0.00000000000E+00 0. -1.
         25    1    1    2    0    0 -0.60520262938E+02  0.26339698530E+03  0.10406083808E+01  0.29776963740E+03  0.12500000000E+03 0.  0.
         -1    1    1    2    0  502  0.60520262938E+02 -0.26339698530E+03 -0.12879115901E+03  0.29937908533E+03  0.00000000000E+00 0. -1.
<mgrwt>
<rscale>  3 0.29776782E+03</rscale>
<asrwt>0</asrwt>
<pdfrwt beam="1">  1       21 0.36107552E-01 0.29776782E+03</pdfrwt>
<pdfrwt beam="2">  1       -1 0.55761482E-01 0.29776782E+03</pdfrwt>
<totfact> 0.22315651E+03</totfact>
</mgrwt>
</event>
<event>
 4    0  0.1426692E-001  0.2538085E+03  0.7546771E-02  0.1110921E+00
          2   -1    0    0  502    0 -0.00000000000E+00  0.00000000000E+00  0.31171014481E+04  0.31171014481E+04  0.00000000000E+00 0.  1.
         21   -1    0    0  501  502  0.00000000000E+00 -0.00000000000E+00 -0.57980054280E+02  0.57980054280E+02  0.00000000000E+00 0. -1.
         25    1    1    2    0    0 -0.18639460577E+03  0.11853616935E+03  0.24653308992E+03  0.35383235710E+03  0.12500000000E+03 0.  0.
          2    1    1    2  501    0  0.18639460577E+03 -0.11853616935E+03  0.28125883039E+04  0.28212491452E+04  0.00000000000E+00 0.  1.
<mgrwt>
<rscale>  3 0.25380854E+03</rscale>
<asrwt>0</asrwt>
<pdfrwt beam="1">  1       21 0.89200108E-02 0.25380854E+03</pdfrwt>
<pdfrwt beam="2">  1        2 0.47955394E+00 0.25380854E+03</pdfrwt>
<totfact> 0.22358194E+03</totfact>
</mgrwt>
</event>
<event>
 4    0  0.1426692E-001  0.2374433E+03  0.7546771E-02  0.1121508E+00
          2   -1    0    0  502    0 -0.00000000000E+00  0.00000000000E+00  0.33919702839E+04  0.33919702839E+04  0.00000000000E+00 0.  1.
         21   -1    0    0  501  502  0.00000000000E+00 -0.00000000000E+00 -0.18829929919E+02  0.18829929919E+02  0.00000000000E+00 0.  1.
         25    1    1    2    0    0 -0.18674938074E+03 -0.76674526070E+02  0.94844295544E+03  0.97771332909E+03  0.12500000000E+03 0.  0.
          2    1    1    2  501    0  0.18674938074E+03  0.76674526070E+02  0.24246973985E+04  0.24330868847E+04  0.00000000000E+00 0.  1.
<mgrwt>
<rscale>  3 0.23744329E+03</rscale>
<asrwt>0</asrwt>
<pdfrwt beam="1">  1       21 0.28969150E-02 0.23744329E+03</pdfrwt>
<pdfrwt beam="2">  1        2 0.52184110E+00 0.23744329E+03</pdfrwt>
<totfact> 0.10373058E+04</totfact>
</mgrwt>
</event>
<event>
 4    0  0.1426692E-001  0.2403274E+03  0.7546771E-02  0.1119575E+00
         21   -1    0    0  501  502  0.00000000000E+00  0.00000000000E+00  0.98019328431E+02  0.98019328431E+02  0.00000000000E+00 0. -1.
          2   -1    0    0  502    0 -0.00000000000E+00 -0.00000000000E+00 -0.56234540599E+03  0.56234540599E+03  0.00000000000E+00 0. -1.
         25    1    1    2    0    0 -0.16738982710E+03 -0.11879777791E+03 -0.14476605736E+03  0.28056100516E+03  0.12500000000E+03 0.  0.
          2    1    1    2  501    0  0.16738982710E+03  0.11879777791E+03 -0.31956002020E+03  0.37980372926E+03  0.00000000000E+00 0. -1.
<mgrwt>
<rscale>  3 0.24032741E+03</rscale>
<asrwt>0</asrwt>
<pdfrwt beam="1">  1       21 0.15079896E-01 0.24032741E+03</pdfrwt>
<pdfrwt beam="2">  1        2 0.86514680E-01 0.24032741E+03</pdfrwt>
<totfact> 0.26370049E+04</totfact>
</mgrwt>
</event>
<event>
 4    0  0.1426692E-001  0.2477605E+03  0.7546771E-02  0.1114728E+00
          2   -1    0    0  502    0 -0.00000000000E+00  0.00000000000E+00  0.24473177466E+04  0.24473177466E+04  0.00000000000E+00 0.  1.
         21   -1    0    0  501  502  0.00000000000E+00 -0.00000000000E+00 -0.26207019073E+02  0.26207019073E+02  0.00000000000E+00 0.  1.
         25    1    1    2    0    0 -0.14042452984E+03 -0.16137288615E+03  0.77672631820E+03  0.81528463149E+03  0.12500000000E+03 0.  0.
          2    1    1    2  501    0  0.14042452984E+03  0.16137288615E+03  0.16443844093E+04  0.16582401342E+04  0.00000000000E+00 0.  1.
<mgrwt>
<rscale>  3 0.24776048E+03</rscale>
<asrwt>0</asrwt>
<pdfrwt beam="1">  1       21 0.40318510E-02 0.24776048E+03</pdfrwt>
<pdfrwt beam="2">  1        2 0.37651024E+00 0.24776048E+03</pdfrwt>
<totfact> 0.21232380E+04</totfact>
</mgrwt>
</event>
<event>
 4    0  0.1426692E-001  0.2592510E+03  0.7546771E-02  0.1107594E+00
          2   -1    0    0  502    0 -0.00000000000E+00  0.00000000000E+00  0.16053539487E+04  0.16053539487E+04  0.00000000000E+00 0.  1.
         21   -1    0    0  501  502  0.00000000000E+00 -0.00000000000E+00 -0.53359969361E+02  0.53359969361E+02  0.00000000000E+00 0.  1.
         25    1    1    2    0    0  0.19790762714E+03  0.11143900288E+03  0.35060831537E+03  0.43604732662E+03  0.12500000000E+03 0.  0.
          2    1    1    2  501    0 -0.19790762714E+03 -0.11143900288E+03  0.12013856640E+04  0.12226665914E+04  0.00000000000E+00 0.  1.
<mgrwt>
<rscale>  3 0.25925100E+03</rscale>
<asrwt>0</asrwt>
<pdfrwt beam="1">  1       21 0.82092273E-02 0.25925100E+03</pdfrwt>
<pdfrwt beam="2">  1        2 0.24697749E+00 0.25925100E+03</pdfrwt>
<totfact> 0.17387503E+04</totfact>
</mgrwt>
</event>
<event>
 4    0  0.1426692E-001  0.2586614E+03  0.7546771E-02  0.1107950E+00
          1   -1    0    0  502    0 -0.00000000000E+00  0.00000000000E+00  0.87786784219E+03  0.87786784219E+03  0.00000000000E+00 0.  1.
         21   -1    0    0  501  502  0.00000000000E+00 -0.00000000000E+00 -0.22123429155E+03  0.22123429155E+03  0.00000000000E+00 0.  1.
         25    1    1    2    0    0 -0.12375349180E+03  0.18964644045E+03 -0.12359666597E+03  0.28667374304E+03  0.12500000000E+03 0.  0.
          1    1    1    2  501    0  0.12375349180E+03 -0.18964644045E+03  0.78023021661E+03  0.81242839070E+03  0.00000000000E+00 0.  1.
<mgrwt>
<rscale>  3 0.25866136E+03</rscale>
<asrwt>0</asrwt>
<pdfrwt beam="1">  1       21 0.34036045E-01 0.25866136E+03</pdfrwt>
<pdfrwt beam="2">  1        1 0.13505659E+00 0.25866136E+03</pdfrwt>
<totfact> 0.18006883E+03</totfact>
</mgrwt>
</event>
<event>
 4    0  0.1426692E-001  0.2541422E+03  0.7546771E-02  0.1110715E+00
         -2   -1    0    0    0  501 -0.00000000000E+00  0.00000000000E+00  0.76470295916E+03  0.76470295916E+03  0.00000000000E+00 0.  1.
         21   -1    0    0  501  502  0.00000000000E+00 -0.00000000000E+00 -0.11806153224E+03  0.11806153224E+03  0.00000000000E+00 0.  1.
         25    1    1    2    0    0  0.37185914362E+02 -0.21812948763E+03  0.67741062671E+02  0.26301543144E+03  0.12500000000E+03 0.  0.
         -2    1    1    2    0  502 -0.37185914362E+02  0.21812948763E+03  0.57890036425E+03  0.61974905997E+03  0.00000000000E+00 0.  1.
<mgrwt>
<rscale>  3 0.25414222E+03</rscale>
<asrwt>0</asrwt>
<pdfrwt beam="1">  1       21 0.18163313E-01 0.25414222E+03</pdfrwt>
<pdfrwt beam="2">  1       -2 0.11764661E+00 0.25414222E+03</pdfrwt>
<totfact> 0.13055371E+03</totfact>
</mgrwt>
</event>
<event>
 4    0  0.1426692E-001  0.2843411E+03  0.7546771E-02  0.1093341E+00
          1   -1    0    0  502    0 -0.00000000000E+00  0.00000000000E+00  0.12466075293E+04  0.12466075293E+04  0.00000000000E+00 0. -1.
         21   -1    0    0  501  502  0.00000000000E+00 -0.00000000000E+00 -0.14341863701E+03  0.14341863701E+03  0.00000000000E+00 0.  1.
         25    1    1    2    0    0  0.25530561199E+03 -0.66260115450E+01  0.28910028779E+02  0.28580701409E+03  0.12500000000E+03 0.  0.
          1    1    1    2  501    0 -0.25530561199E+03  0.66260115450E+01  0.10742788636E+04  0.11042191523E+04  0.00000000000E+00 0. -1.
<mgrwt>
<rscale>  3 0.28434110E+03</rscale>
<asrwt>0</asrwt>
<pdfrwt beam="1">  1       21 0.22064407E-01 0.28434110E+03</pdfrwt>
<pdfrwt beam="2">  1        1 0.19178577E+00 0.28434110E+03</pdfrwt>
<totfact> 0.22179781E+03</totfact>
</mgrwt>
</event>
<event>
 4    0  0.1426692E-001  0.2675859E+03  0.7546771E-02  0.1102669E+00
          2   -1    0    0  502    0 -0.00000000000E+00  0.00000000000E+00  0.34759903430E+04  0.34759903430E+04  0.00000000000E+00 0.  1.
         21   -1    0    0  501  502  0.00000000000E+00 -0.00000000000E+00 -0.24363605071E+02  0.24363605071E+02  0.00000000000E+00 0.  1.
         25    1    1    2    0    0 -0.12763126057E+03 -0.19921712779E+03  0.93226897747E+03  0.96991115522E+03  0.12500000000E+03 0.  0.
          2    1    1    2  501    0  0.12763126057E+03  0.19921712779E+03  0.25193577605E+04  0.25304427929E+04  0.00000000000E+00 0.  1.
<mgrwt>
<rscale>  3 0.26758588E+03</rscale>
<asrwt>0</asrwt>
<pdfrwt beam="1">  1       21 0.37482497E-02 0.26758588E+03</pdfrwt>
<pdfrwt beam="2">  1        2 0.53476735E+00 0.26758588E+03</pdfrwt>
<totfact> 0.58642192E+03</totfact>
</mgrwt>
</event>
<event>
 4    0  0.1426692E-001  0.2532047E+03  0.7546771E-02  0.1111296E+00
          3   -1    0    0  502    0 -0.00000000000E+00  0.00000000000E+00  0.29849995411E+03  0.29849995411E+03  0.00000000000E+00 0.  1.
         21   -1    0    0  501  502  0.00000000000E+00 -0.00000000000E+00 -0.32097639545E+03  0.32097639545E+03  0.00000000000E+00 0.  1.
         25    1    1    2    0    0 -0.87300778773E+02  0.20215388288E+03 -0.21100238291E+03  0.32959766979E+03  0.12500000000E+03 0.  0.
          3    1    1    2  501    0  0.87300778773E+02 -0.20215388288E+03  0.18852594157E+03  0.28987867977E+03  0.00000000000E+00 0.  1.
<mgrwt>
<rscale>  3 0.25320470E+03</rscale>
<asrwt>0</asrwt>
<pdfrwt beam="1">  1       21 0.49380984E-01 0.25320470E+03</pdfrwt>
<pdfrwt beam="2">  1        3 0.45923070E-01 0.25320470E+03</pdfrwt>
<totfact> 0.90749719E+02</totfact>
</mgrwt>
</event>
<event>
 4    0  0.1426692E-001  0.3046728E+03  0.7546771E-02  0.1082928E+00
         21   -1    0    0  501  502  0.00000000000E+00  0.00000000000E+00  0.46097529328E+03  0.46097529328E+03  0.00000000000E+00 0.  1.
          1   -1    0    0  502    0 -0.00000000000E+00 -0.00000000000E+00 -0.21649803828E+03  0.21649803828E+03  0.00000000000E+00 0.  1.
         25    1    1    2    0    0 -0.17048976177E+03 -0.21939410554E+03 -0.40378043300E+01  0.30469958365E+03  0.12500000000E+03 0.  0.
          1    1    1    2  501    0  0.17048976177E+03  0.21939410554E+03  0.24851505933E+03  0.37277374791E+03  0.00000000000E+00 0.  1.
<mgrwt>
<rscale>  3 0.30467283E+03</rscale>
<asrwt>0</asrwt>
<pdfrwt beam="1">  1       21 0.70919276E-01 0.30467283E+03</pdfrwt>
<pdfrwt beam="2">  1        1 0.33307391E-01 0.30467283E+03</pdfrwt>
<totfact> 0.25043732E+03</totfact>
</mgrwt>
</event>
<event>
 4    0  0.1426692E-001  0.2741032E+03  0.7546771E-02  0.1098954E+00
         21   -1    0    0  501  502  0.00000000000E+00  0.00000000000E+00  0.10590096974E+04  0.10590096974E+04  0.00000000000E+00 0. -1.
          2   -1    0    0  502    0 -0.00000000000E+00 -0.00000000000E+00 -0.22527815781E+03  0.22527815781E+03  0.00000000000E+00 0. -1.
         25    1    1    2    0    0  0.22770056264E+03  0.87521603982E+02  0.96784474090E+03  0.10059105427E+04  0.12500000000E+03 0.  0.
          2    1    1    2  501    0 -0.22770056264E+03 -0.87521603982E+02 -0.13411320128E+03  0.27837731256E+03  0.00000000000E+00 0. -1.
<mgrwt>
<rscale>  3 0.27410322E+03</rscale>
<asrwt>0</asrwt>
<pdfrwt beam="1">  1       21 0.16292457E+00 0.27410322E+03</pdfrwt>
<pdfrwt beam="2">  1        2 0.34658179E-01 0.27410322E+03</pdfrwt>
<totfact> 0.42148322E+02</totfact>
</mgrwt>
</event>
<event>
 4    0  0.1426692E-001  0.4107383E+03  0.7546771E-02  0.1040124E+00
         21   -1    0    0  501  502  0.00000000000E+00  0.00000000000E+00  0.11256937432E+03  0.11256937432E+03  0.00000000000E+00 0. -1.
          1   -1    0    0  502    0 -0.00000000000E+00 -0.00000000000E+00 -0.29969597859E+04  0.29969597859E+04  0.00000000000E+00 0. -1.
         25    1    1    2    0    0 -0.39056422471E+03 -0.23249108955E+02 -0.33426780382E+03  0.52956670907E+03  0.12500000000E+03 0.  0.
          1    1    1    2  501    0  0.39056422471E+03  0.23249108955E+02 -0.25501226078E+04  0.25799624511E+04  0.00000000000E+00 0. -1.
<mgrwt>
<rscale>  3 0.41073828E+03</rscale>
<asrwt>0</asrwt>
<pdfrwt beam="1">  1       21 0.17318366E-01 0.41073828E+03</pdfrwt>
<pdfrwt beam="2">  1        1 0.46107073E+00 0.41073828E+03</pdfrwt>
<totfact> 0.22441737E+02</totfact>
</mgrwt>
</event>
<event>
 4    0  0.1426692E-001  0.2601157E+03  0.7546771E-02  0.1107074E+00
          2   -1    0    0  502    0 -0.00000000000E+00  0.00000000000E+00  0.64890529446E+03  0.64890529446E+03  0.00000000000E+00 0. -1.
         21   -1    0    0  501  502  0.00000000000E+00 -0.00000000000E+00 -0.10202951566E+03  0.10202951566E+03  0.00000000000E+00 0. -1.
         25    1    1    2    0    0  0.16361383812E+03  0.15895185705E+03  0.17111105336E+03  0.31135056362E+03  0.12500000000E+03 0.  0.
          2    1    1    2  501    0 -0.16361383812E+03 -0.15895185705E+03  0.37576472545E+03  0.43958424650E+03  0.00000000000E+00 0. -1.
<mgrwt>
<rscale>  3 0.26011571E+03</rscale>
<asrwt>0</asrwt>
<pdfrwt beam="1">  1       21 0.15696849E-01 0.26011571E+03</pdfrwt>
<pdfrwt beam="2">  1        2 0.99831581E-01 0.26011571E+03</pdfrwt>
<totfact> 0.20672815E+04</totfact>
</mgrwt>
</event>
<event>
 4    0  0.1426692E-001  0.4078096E+03  0.7546771E-02  0.1041109E+00
          2   -1    0    0  502    0 -0.00000000000E+00  0.00000000000E+00  0.47010261692E+04  0.47010261692E+04  0.00000000000E+00 0. -1.
         21   -1    0    0  501  502  0.00000000000E+00 -0.00000000000E+00 -0.75320239642E+02  0.75320239642E+02  0.00000000000E+00 0. -1.
         25    1    1    2    0    0 -0.38678760972E+03  0.32847980497E+02  0.56323639429E+03  0.69537319527E+03  0.12500000000E+03 0.  0.
          2    1    1    2  501    0  0.38678760972E+03 -0.32847980497E+02  0.40624695353E+04  0.40809732135E+04  0.00000000000E+00 0. -1.
<mgrwt>
<rscale>  3 0.40780957E+03</rscale>
<asrwt>0</asrwt>
<pdfrwt beam="1">  1       21 0.11587733E-01 0.40780957E+03</pdfrwt>
<pdfrwt beam="2">  1        2 0.72323457E+00 0.40780957E+03</pdfrwt>
<totfact> 0.77380483E+01</totfact>
</mgrwt>
</event>
<event>
 4    0  0.1426692E-001  0.2418027E+03  0.7546771E-02  0.1118598E+00
         21   -1    0    0  501  502  0.00000000000E+00  0.00000000000E+00  0.19844167868E+03  0.19844167868E+03  0.00000000000E+00 0.  1.
          1   -1    0    0  502    0 -0.00000000000E+00 -0.00000000000E+00 -0.56481649643E+03  0.56481649643E+03  0.00000000000E+00 0. -1.
         25    1    1    2    0    0 -0.14727930637E+03 -0.14543856114E+03  0.93262470851E+02  0.25916492359E+03  0.12500000000E+03 0.  0.
          1    1    1    2  501    0  0.14727930637E+03  0.14543856114E+03 -0.45963728860E+03  0.50409325151E+03  0.00000000000E+00 0. -1.
<mgrwt>
<rscale>  3 0.24180275E+03</rscale>
<asrwt>0</asrwt>
<pdfrwt beam="1">  1       21 0.30529490E-01 0.24180275E+03</pdfrwt>
<pdfrwt beam="2">  1        1 0.86894844E-01 0.24180275E+03</pdfrwt>
<totfact> 0.42979803E+03</totfact>
</mgrwt>
</event>
<event>
 4    0  0.1426692E-001  0.2507343E+03  0.7546771E-02  0.1112842E+00
          3   -1    0    0  502    0 -0.00000000000E+00  0.00000000000E+00  0.16668866846E+03  0.16668866846E+03  0.00000000000E+00 0. -1.
         21   -1    0    0  501  502  0.00000000000E+00 -0.00000000000E+00 -0.33013215868E+03  0.33013215868E+03  0.00000000000E+00 0. -1.
         25    1    1    2    0    0  0.21508767511E+03  0.31304630862E+02 -0.70733009098E+02  0.26052033793E+03  0.12500000000E+03 0.  0.
          3    1    1    2  501    0 -0.21508767511E+03 -0.31304630862E+02 -0.92710481122E+02  0.23630048922E+03  0.00000000000E+00 0. -1.
<mgrwt>
<rscale>  3 0.25073430E+03</rscale>
<asrwt>0</asrwt>
<pdfrwt beam="1">  1       21 0.50789562E-01 0.25073430E+03</pdfrwt>
<pdfrwt beam="2">  1        3 0.25644411E-01 0.25073430E+03</pdfrwt>
<totfact> 0.26030246E+03</totfact>
</mgrwt>
</event>
<event>
 4    0  0.1426692E-001  0.2559531E+03  0.7546771E-02  0.1109599E+00
          1   -1    0    0  502    0 -0.00000000000E+00  0.00000000000E+00  0.17289014241E+04  0.17289014241E+04  0.00000000000E+00 0. -1.
         21   -1    0    0  501  502  0.00000000000E+00 -0.00000000000E+00 -0.14739683131E+03  0.14739683131E+03  0.00000000000E+00 0.  1.
         25    1    1    2    0    0 -0.10383592106E+03 -0.19775003928E+03 -0.22386287407E+02  0.25693018974E+03  0.12500000000E+03 0.  0.
          1    1    1    2  501    0  0.10383592106E+03  0.19775003928E+03  0.16038908802E+04  0.16193680657E+04  0.00000000000E+00 0. -1.
<mgrwt>
<rscale>  3 0.25595307E+03</rscale>
<asrwt>0</asrwt>
<pdfrwt beam="1">  1       21 0.22676437E-01 0.25595307E+03</pdfrwt>
<pdfrwt beam="2">  1        1 0.26598482E+00 0.25595307E+03</pdfrwt>
<totfact> 0.10152543E+03</totfact>
</mgrwt>
</event>
<event>
 4    0  0.1426692E-001  0.7187651E+03  0.7546771E-02  0.9685669E-01
         21   -1    0    0  501  502  0.00000000000E+00  0.00000000000E+00  0.10298265758E+04  0.10298265758E+04  0.00000000000E+00 0. -1.
         -2   -1    0    0    0  501 -0.00000000000E+00 -0.00000000000E+00 -0.12591091520E+04  0.12591091520E+04  0.00000000000E+00 0.  1.
         25    1    1    2    0    0  0.11595443078E+03  0.69824987508E+03  0.77711793869E+03  0.10585535455E+04  0.12500000000E+03 0.  0.
         -2    1    1    2    0  502 -0.11595443078E+03 -0.69824987508E+03 -0.10064005149E+04  0.12303821823E+04  0.00000000000E+00 0.  1.
<mgrwt>
<rscale>  3 0.71876513E+03</rscale>
<asrwt>0</asrwt>
<pdfrwt beam="1">  1       21 0.15843486E+00 0.71876513E+03</pdfrwt>
<pdfrwt beam="2">  1       -2 0.19370910E+00 0.71876513E+03</pdfrwt>
<totfact> 0.25998449E+00</totfact>
</mgrwt>
</event>
<event>
 4    0  0.1426692E-001  0.6162487E+03  0.7546771E-02  0.9872257E-01
         21   -1    0    0  501  502  0.00000000000E+00  0.00000000000E+00  0.43213352061E+03  0.43213352061E+03  0.00000000000E+00 0. -1.
          3   -1    0    0  502    0 -0.00000000000E+00 -0.00000000000E+00 -0.86341926109E+03  0.86341926109E+03  0.00000000000E+00 0. -1.
         25    1    1    2    0    0 -0.51308373607E+03  0.31762019915E+03 -0.25468717806E+03  0.66680437146E+03  0.12500000000E+03 0.  0.
          3    1    1    2  501    0  0.51308373607E+03 -0.31762019915E+03 -0.17659856242E+03  0.62874841024E+03  0.00000000000E+00 0. -1.
<mgrwt>
<rscale>  3 0.61624874E+03</rscale>
<asrwt>0</asrwt>
<pdfrwt beam="1">  1       21 0.66482080E-01 0.61624874E+03</pdfrwt>
<pdfrwt beam="2">  1        3 0.13283373E+00 0.61624874E+03</pdfrwt>
<totfact> 0.42693350E+01</totfact>
</mgrwt>
</event>
<event>
 4    0  0.1426692E-001  0.4528673E+03  0.7546771E-02  0.1026870E+00
         21   -1    0    0  501  502  0.00000000000E+00  0.00000000000E+00  0.94755803306E+02  0.94755803306E+02  0.00000000000E+00 0.  1.
          2   -1    0    0  502    0 -0.00000000000E+00 -0.00000000000E+00 -0.28107330656E+04  0.28107330656E+04  0.00000000000E+00 0.  1.
         25    1    1    2    0    0  0.40330004930E+03  0.16374619832E+03 -0.21179550054E+04  0.21658305917E+04  0.12500000000E+03 0.  0.
          2    1    1    2  501    0 -0.40330004930E+03 -0.16374619832E+03 -0.59802225688E+03  0.73965827715E+03  0.00000000000E+00 0.  1.
<mgrwt>
<rscale>  3 0.45286725E+03</rscale>
<asrwt>0</asrwt>
<pdfrwt beam="1">  1       21 0.14577817E-01 0.45286725E+03</pdfrwt>
<pdfrwt beam="2">  1        2 0.43242044E+00 0.45286725E+03</pdfrwt>
<totfact> 0.12909111E+03</totfact>
</mgrwt>
</event>
<event>
 4    0  0.1426692E-001  0.2451039E+03  0.7546771E-02  0.1116439E+00
          2   -1    0    0  502    0 -0.00000000000E+00  0.00000000000E+00  0.61447020759E+03  0.61447020759E+03  0.00000000000E+00 0.  1.
         21   -1    0    0  501  502  0.00000000000E+00 -0.00000000000E+00 -0.12954852136E+03  0.12954852136E+03  0.00000000000E+00 0. -1.
         25    1    1    2    0    0  0.15148900035E+03  0.14663559962E+03  0.35579550216E+02  0.24767280976E+03  0.12500000000E+03 0.  0.
          2    1    1    2  501    0 -0.15148900035E+03 -0.14663559962E+03  0.44934213602E+03  0.49634591919E+03  0.00000000000E+00 0.  1.
<mgrwt>
<rscale>  3 0.24510389E+03</rscale>
<asrwt>0</asrwt>
<pdfrwt beam="1">  1       21 0.19930542E-01 0.24510389E+03</pdfrwt>
<pdfrwt beam="2">  1        2 0.94533876E-01 0.24510389E+03</pdfrwt>
<totfact> 0.14181467E+04</totfact>
</mgrwt>
</event>
<event>
 4    0  0.1426692E-001  0.2680157E+03  0.7546771E-02  0.1102421E+00
          2   -1    0    0  502    0 -0.00000000000E+00  0.00000000000E+00  0.23134574585E+03  0.23134574585E+03  0.00000000000E+00 0. -1.
         21   -1    0    0  501  502  0.00000000000E+00 -0.00000000000E+00 -0.16389917273E+04  0.16389917273E+04  0.00000000000E+00 0.  1.
         25    1    1    2    0    0  0.22986307119E+03  0.58055201097E+02 -0.15637023028E+04  0.15865047525E+04  0.12500000000E+03 0.  0.
          2    1    1    2  501    0 -0.22986307119E+03 -0.58055201097E+02  0.15605632137E+03  0.28383272065E+03  0.00000000000E+00 0. -1.
<mgrwt>
<rscale>  3 0.26801574E+03</rscale>
<asrwt>0</asrwt>
<pdfrwt beam="1">  1       21 0.25215258E+00 0.26801574E+03</pdfrwt>
<pdfrwt beam="2">  1        2 0.35591653E-01 0.26801574E+03</pdfrwt>
<totfact> 0.10836250E+02</totfact>
</mgrwt>
</event>
<event>
 4    0  0.1426692E-001  0.3407409E+03  0.7546771E-02  0.1066481E+00
         21   -1    0    0  501  502  0.00000000000E+00  0.00000000000E+00  0.76574401672E+02  0.76574401672E+02  0.00000000000E+00 0.  1.
          2   -1    0    0  502    0 -0.00000000000E+00 -0.00000000000E+00 -0.14633370130E+04  0.14633370130E+04  0.00000000000E+00 0.  1.
         25    1    1    2    0    0 -0.73106556658E+02 -0.30843930474E+03 -0.57393840526E+03  0.66746510498E+03  0.12500000000E+03 0.  0.
          2    1    1    2  501    0  0.73106556658E+02  0.30843930474E+03 -0.81282420609E+03  0.87244630972E+03  0.00000000000E+00 0.  1.
<mgrwt>
<rscale>  3 0.34074092E+03</rscale>
<asrwt>0</asrwt>
<pdfrwt beam="1">  1       21 0.11780678E-01 0.34074092E+03</pdfrwt>
<pdfrwt beam="2">  1        2 0.22512876E+00 0.34074092E+03</pdfrwt>
<totfact> 0.10682421E+04</totfact>
</mgrwt>
</event>
<event>
 4    0  0.1426692E-001  0.3419819E+03  0.7546771E-02  0.1065955E+00
          2   -1    0    0  502    0 -0.00000000000E+00  0.00000000000E+00  0.10996946034E+04  0.10996946034E+04  0.00000000000E+00 0.  1.
         21   -1    0    0  501  502  0.00000000000E+00 -0.00000000000E+00 -0.13248806115E+03  0.13248806115E+03  0.00000000000E+00 0.  1.
         25    1    1    2    0    0 -0.91104893262E+01 -0.31818802174E+03  0.18751902379E+03  0.39001923347E+03  0.12500000000E+03 0.  0.
          2    1    1    2  501    0  0.91104893262E+01  0.31818802174E+03  0.77968751848E+03  0.84216343110E+03  0.00000000000E+00 0.  1.
<mgrwt>
<rscale>  3 0.34198190E+03</rscale>
<asrwt>0</asrwt>
<pdfrwt beam="1">  1       21 0.20382779E-01 0.34198190E+03</pdfrwt>
<pdfrwt beam="2">  1        2 0.16918378E+00 0.34198190E+03</pdfrwt>
<totfact> 0.62149125E+03</totfact>
</mgrwt>
</event>
<event>
 4    0  0.1426692E-001  0.2360349E+03  0.7546771E-02  0.1122463E+00
         21   -1    0    0  501  502  0.00000000000E+00  0.00000000000E+00  0.35897093772E+02  0.35897093772E+02  0.00000000000E+00 0. -1.
          1   -1    0    0  502    0 -0.00000000000E+00 -0.00000000000E+00 -0.23830710779E+04  0.23830710779E+04  0.00000000000E+00 0.  1.
         25    1    1    2    0    0 -0.80771689550E+02  0.18320315251E+03 -0.42293908179E+03  0.48434484392E+03  0.12500000000E+03 0.  0.
          1    1    1    2  501    0  0.80771689550E+02 -0.18320315251E+03 -0.19242349024E+04  0.19346233278E+04  0.00000000000E+00 0.  1.
<mgrwt>
<rscale>  3 0.23603487E+03</rscale>
<asrwt>0</asrwt>
<pdfrwt beam="1">  1       21 0.55226262E-02 0.23603487E+03</pdfrwt>
<pdfrwt beam="2">  1        1 0.36662656E+00 0.23603487E+03</pdfrwt>
<totfact> 0.48602994E+03</totfact>
</mgrwt>
</event>
<event>
 4    0  0.1426692E-001  0.2562547E+03  0.7546771E-02  0.1109415E+00
          2   -1    0    0  502    0 -0.00000000000E+00  0.00000000000E+00  0.34096170517E+04  0.34096170517E+04  0.00000000000E+00 0.  1.
         21   -1    0    0  501  502  0.00000000000E+00 -0.00000000000E+00 -0.52263583748E+02  0.52263583748E+02  0.00000000000E+00 0.  1.
         25    1    1    2    0    0 -0.42626614191E+02 -0.21960066356E+03  0.29249763600E+03  0.38887188988E+03  0.12500000000E+03 0.  0.
          2    1    1    2  501    0  0.42626614191E+02  0.21960066356E+03  0.30648558319E+04  0.30730087456E+04  0.00000000000E+00 0.  1.
<mgrwt>
<rscale>  3 0.25625472E+03</rscale>
<asrwt>0</asrwt>
<pdfrwt beam="1">  1       21 0.80405540E-02 0.25625472E+03</pdfrwt>
<pdfrwt beam="2">  1        2 0.52455629E+00 0.25625472E+03</pdfrwt>
<totfact> 0.17589404E+03</totfact>
</mgrwt>
</event>
<event>
 4    0  0.1426692E-001  0.2495584E+03  0.7546771E-02  0.1113584E+00
         21   -1    0    0  501  502  0.00000000000E+00  0.00000000000E+00  0.39313459001E+02  0.39313459001E+02  0.00000000000E+00 0. -1.
          1   -1    0    0  502    0 -0.00000000000E+00 -0.00000000000E+00 -0.15055646015E+04  0.15055646015E+04  0.00000000000E+00 0.  1.
         25    1    1    2    0    0 -0.21561846039E+03 -0.12770711119E+02 -0.55745573360E+03  0.61076698212E+03  0.12500000000E+03 0.  0.
          1    1    1    2  501    0  0.21561846039E+03  0.12770711119E+02 -0.90879540886E+03  0.93411107835E+03  0.00000000000E+00 0.  1.
<mgrwt>
<rscale>  3 0.24955843E+03</rscale>
<asrwt>0</asrwt>
<pdfrwt beam="1">  1       21 0.60482250E-02 0.24955843E+03</pdfrwt>
<pdfrwt beam="2">  1        1 0.23162530E+00 0.24955843E+03</pdfrwt>
<totfact> 0.15435885E+04</totfact>
</mgrwt>
</event>
<event>
 4    0  0.1426692E-001  0.2582648E+03  0.7546771E-02  0.1108190E+00
          2   -1    0    0  502    0 -0.00000000000E+00  0.00000000000E+00  0.38101584187E+03  0.38101584187E+03  0.00000000000E+00 0.  1.
         21   -1    0    0  501  502  0.00000000000E+00 -0.00000000000E+00 -0.15515939301E+03  0.15515939301E+03  0.00000000000E+00 0.  1.
         25    1    1    2    0    0  0.43830309624E+02  0.22170839265E+03  0.96030714662E+02  0.27554056974E+03  0.12500000000E+03 0.  0.
          2    1    1    2  501    0 -0.43830309624E+02 -0.22170839265E+03  0.12982573420E+03  0.26063466514E+03  0.00000000000E+00 0.  1.
<mgrwt>
<rscale>  3 0.25826480E+03</rscale>
<asrwt>0</asrwt>
<pdfrwt beam="1">  1       21 0.23870676E-01 0.25826480E+03</pdfrwt>
<pdfrwt beam="2">  1        2 0.58617822E-01 0.25826480E+03</pdfrwt>
<totfact> 0.17176838E+04</totfact>
</mgrwt>
</event>
<event>
 4    0  0.1426692E-001  0.2980920E+03  0.7546771E-02  0.1086198E+00
         21   -1    0    0  501  502  0.00000000000E+00  0.00000000000E+00  0.57267791100E+02  0.57267791100E+02  0.00000000000E+00 0. -1.
          2   -1    0    0  502    0 -0.00000000000E+00 -0.00000000000E+00 -0.20416392760E+04  0.20416392760E+04  0.00000000000E+00 0. -1.
         25    1    1    2    0    0 -0.15485375489E+03  0.22193273193E+03 -0.44296822412E+03  0.53392852564E+03  0.12500000000E+03 0.  0.
          2    1    1    2  501    0  0.15485375489E+03 -0.22193273193E+03 -0.15414032608E+04  0.15649785415E+04  0.00000000000E+00 0. -1.
<mgrwt>
<rscale>  3 0.29809197E+03</rscale>
<asrwt>0</asrwt>
<pdfrwt beam="1">  1       21 0.88104303E-02 0.29809197E+03</pdfrwt>
<pdfrwt beam="2">  1        2 0.31409832E+00 0.29809197E+03</pdfrwt>
<totfact> 0.89431605E+03</totfact>
</mgrwt>
</event>
<event>
 4    0  0.1426692E-001  0.2531172E+03  0.7546771E-02  0.1111351E+00
         21   -1    0    0  501  502  0.00000000000E+00  0.00000000000E+00  0.43575368667E+02  0.43575368667E+02  0.00000000000E+00 0. -1.
          2   -1    0    0  502    0 -0.00000000000E+00 -0.00000000000E+00 -0.15190180207E+04  0.15190180207E+04  0.00000000000E+00 0. -1.
         25    1    1    2    0    0 -0.15304967465E+03  0.15817429549E+03 -0.47506141186E+03  0.53828584944E+03  0.12500000000E+03 0.  0.
          2    1    1    2  501    0  0.15304967465E+03 -0.15817429549E+03 -0.10003812402E+04  0.10243075399E+04  0.00000000000E+00 0. -1.
<mgrwt>
<rscale>  3 0.25311719E+03</rscale>
<asrwt>0</asrwt>
<pdfrwt beam="1">  1       21 0.67039025E-02 0.25311719E+03</pdfrwt>
<pdfrwt beam="2">  1        2 0.23369509E+00 0.25311719E+03</pdfrwt>
<totfact> 0.27553757E+04</totfact>
</mgrwt>
</event>
<event>
 4    0  0.1426692E-001  0.2464995E+03  0.7546771E-02  0.1115537E+00
         21   -1    0    0  501  502  0.00000000000E+00  0.00000000000E+00  0.10946427127E+04  0.10946427127E+04  0.00000000000E+00 0. -1.
          2   -1    0    0  502    0 -0.00000000000E+00 -0.00000000000E+00 -0.22904704516E+03  0.22904704516E+03  0.00000000000E+00 0.  1.
         25    1    1    2    0    0 -0.20250372576E+03 -0.64259164227E+02  0.10274501140E+04  0.10566057618E+04  0.12500000000E+03 0.  0.
          2    1    1    2  501    0  0.20250372576E+03  0.64259164227E+02 -0.16185444643E+03  0.26708399608E+03  0.00000000000E+00 0.  1.
<mgrwt>
<rscale>  3 0.24649949E+03</rscale>
<asrwt>0</asrwt>
<pdfrwt beam="1">  1       21 0.16840657E+00 0.24649949E+03</pdfrwt>
<pdfrwt beam="2">  1        2 0.35238008E-01 0.24649949E+03</pdfrwt>
<totfact> 0.38335637E+02</totfact>
</mgrwt>
</event>
<event>
 4    0  0.1426692E-001  0.4712660E+03  0.7546771E-02  0.1021564E+00
         21   -1    0    0  501  502  0.00000000000E+00  0.00000000000E+00  0.27559937306E+03  0.27559937306E+03  0.00000000000E+00 0.  1.
          1   -1    0    0  502    0 -0.00000000000E+00 -0.00000000000E+00 -0.78963262890E+03  0.78963262890E+03  0.00000000000E+00 0.  1.
         25    1    1    2    0    0  0.13755693881E+03 -0.43306431850E+03 -0.32833326274E+03  0.57436429798E+03  0.12500000000E+03 0.  0.
          1    1    1    2  501    0 -0.13755693881E+03  0.43306431850E+03 -0.18569999310E+03  0.49086770398E+03  0.00000000000E+00 0.  1.
<mgrwt>
<rscale>  3 0.47126597E+03</rscale>
<asrwt>0</asrwt>
<pdfrwt beam="1">  1       21 0.42399903E-01 0.47126597E+03</pdfrwt>
<pdfrwt beam="2">  1        1 0.12148194E+00 0.47126597E+03</pdfrwt>
<totfact> 0.12840423E+03</totfact>
</mgrwt>
</event>
<event>
 4    0  0.1426692E-001  0.2611041E+03  0.7546771E-02  0.1106482E+00
         21   -1    0    0  501  502  0.00000000000E+00  0.00000000000E+00  0.41498248308E+03  0.41498248308E+03  0.00000000000E+00 0. -1.
          2   -1    0    0  502    0 -0.00000000000E+00 -0.00000000000E+00 -0.10416397264E+04  0.10416397264E+04  0.00000000000E+00 0.  1.
         25    1    1    2    0    0  0.19995440731E+03  0.11210972365E+03  0.35941965083E+03  0.44424975019E+03  0.12500000000E+03 0.  0.
          2    1    1    2  501    0 -0.19995440731E+03 -0.11210972365E+03 -0.98607689412E+03  0.10123724593E+04  0.00000000000E+00 0.  1.
<mgrwt>
<rscale>  3 0.26110411E+03</rscale>
<asrwt>0</asrwt>
<pdfrwt beam="1">  1       21 0.63843460E-01 0.26110411E+03</pdfrwt>
<pdfrwt beam="2">  1        2 0.16025226E+00 0.26110411E+03</pdfrwt>
<totfact> 0.68708491E+02</totfact>
</mgrwt>
</event>
<event>
 4    0  0.1426692E-001  0.2663688E+03  0.7546771E-02  0.1103376E+00
         21   -1    0    0  501  502  0.00000000000E+00  0.00000000000E+00  0.30957904137E+03  0.30957904137E+03  0.00000000000E+00 0. -1.
          1   -1    0    0  502    0 -0.00000000000E+00 -0.00000000000E+00 -0.30098377129E+03  0.30098377129E+03  0.00000000000E+00 0. -1.
         25    1    1    2    0    0  0.47464879671E+02  0.23037883493E+03  0.17828283848E+03  0.32052627487E+03  0.12500000000E+03 0.  0.
          1    1    1    2  501    0 -0.47464879671E+02 -0.23037883493E+03 -0.16968756841E+03  0.29003653780E+03  0.00000000000E+00 0. -1.
<mgrwt>
<rscale>  3 0.26636877E+03</rscale>
<asrwt>0</asrwt>
<pdfrwt beam="1">  1       21 0.47627545E-01 0.26636877E+03</pdfrwt>
<pdfrwt beam="2">  1        1 0.46305195E-01 0.26636877E+03</pdfrwt>
<totfact> 0.39365001E+03</totfact>
</mgrwt>
</event>
<event>
 4    0  0.1426692E-001  0.3419246E+03  0.7546771E-02  0.1065979E+00
          2   -1    0    0  502    0 -0.00000000000E+00  0.00000000000E+00  0.70744720873E+03  0.70744720873E+03  0.00000000000E+00 0. -1.
         21   -1    0    0  501  502  0.00000000000E+00 -0.00000000000E+00 -0.31928288980E+03  0.31928288980E+03  0.00000000000E+00 0. -1.
         25    1    1    2    0    0 -0.24357773692E+03 -0.20483492378E+03 -0.17178847957E+03  0.38265355301E+03  0.12500000000E+03 0.  0.
          2    1    1    2  501    0  0.24357773692E+03  0.20483492378E+03  0.55995279851E+03  0.64407654551E+03  0.00000000000E+00 0. -1.
<mgrwt>
<rscale>  3 0.34192464E+03</rscale>
<asrwt>0</asrwt>
<pdfrwt beam="1">  1       21 0.49120445E-01 0.34192464E+03</pdfrwt>
<pdfrwt beam="2">  1        2 0.10883803E+00 0.34192464E+03</pdfrwt>
<totfact> 0.19568622E+03</totfact>
</mgrwt>
</event>
<event>
 4    0  0.1426692E-001  0.2845877E+03  0.7546771E-02  0.1093209E+00
          2   -1    0    0  502    0 -0.00000000000E+00  0.00000000000E+00  0.14803828494E+03  0.14803828494E+03  0.00000000000E+00 0. -1.
         21   -1    0    0  501  502  0.00000000000E+00 -0.00000000000E+00 -0.10392959083E+04  0.10392959083E+04  0.00000000000E+00 0.  1.
         25    1    1    2    0    0 -0.12907609729E+03  0.22069094862E+03 -0.88710343081E+03  0.93163438678E+03  0.12500000000E+03 0.  0.
          2    1    1    2  501    0  0.12907609729E+03 -0.22069094862E+03 -0.41541925206E+01  0.25569980643E+03  0.00000000000E+00 0. -1.
<mgrwt>
<rscale>  3 0.28458766E+03</rscale>
<asrwt>0</asrwt>
<pdfrwt beam="1">  1       21 0.15989168E+00 0.28458766E+03</pdfrwt>
<pdfrwt beam="2">  1        2 0.22775121E-01 0.28458766E+03</pdfrwt>
<totfact> 0.70484129E+02</totfact>
</mgrwt>
</event>
<event>
 4    0  0.1426692E-001  0.2499404E+03  0.7546771E-02  0.1113343E+00
         21   -1    0    0  501  502  0.00000000000E+00  0.00000000000E+00  0.11747426529E+03  0.11747426529E+03  0.00000000000E+00 0.  1.
          2   -1    0    0  502    0 -0.00000000000E+00 -0.00000000000E+00 -0.46313357898E+03  0.46313357898E+03  0.00000000000E+00 0.  1.
         25    1    1    2    0    0  0.21636622055E+03 -0.55547448094E+01 -0.19194546674E+03  0.31514006217E+03  0.12500000000E+03 0.  0.
          2    1    1    2  501    0 -0.21636622055E+03  0.55547448094E+01 -0.15371384695E+03  0.26546778210E+03  0.00000000000E+00 0.  1.
<mgrwt>
<rscale>  3 0.24994039E+03</rscale>
<asrwt>0</asrwt>
<pdfrwt beam="1">  1       21 0.18072964E-01 0.24994039E+03</pdfrwt>
<pdfrwt beam="2">  1        2 0.71251319E-01 0.24994039E+03</pdfrwt>
<totfact> 0.23463787E+04</totfact>
</mgrwt>
</event>
<event>
 4    0  0.1426692E-001  0.3701309E+03  0.7546771E-02  0.1054643E+00
         21   -1    0    0  501  502  0.00000000000E+00  0.00000000000E+00  0.94625463744E+03  0.94625463744E+03  0.00000000000E+00 0. -1.
         -2   -1    0    0    0  501 -0.00000000000E+00 -0.00000000000E+00 -0.13774811044E+03  0.13774811044E+03  0.00000000000E+00 0. -1.
         25    1    1    2    0    0  0.33531883288E+03  0.94515305563E+02  0.47002590606E+03  0.59826517118E+03  0.12500000000E+03 0.  0.
         -2    1    1    2    0  502 -0.33531883288E+03 -0.94515305563E+02  0.33848062093E+03  0.48573757670E+03  0.00000000000E+00 0. -1.
<mgrwt>
<rscale>  3 0.37013087E+03</rscale>
<asrwt>0</asrwt>
<pdfrwt beam="1">  1       21 0.14557763E+00 0.37013087E+03</pdfrwt>
<pdfrwt beam="2">  1       -2 0.21192018E-01 0.37013087E+03</pdfrwt>
<totfact> 0.45566869E+02</totfact>
</mgrwt>
</event>
<event>
 4    0  0.1426692E-001  0.3974659E+03  0.7546771E-02  0.1044661E+00
          2   -1    0    0  502    0 -0.00000000000E+00  0.00000000000E+00  0.20123576619E+04  0.20123576619E+04  0.00000000000E+00 0.  1.
         21   -1    0    0  501  502  0.00000000000E+00 -0.00000000000E+00 -0.75515089203E+02  0.75515089203E+02  0.00000000000E+00 0. -1.
         25    1    1    2    0    0  0.33148981484E+03 -0.18019047501E+03  0.11099576375E+04  0.11789762770E+04  0.12500000000E+03 0.  0.
          2    1    1    2  501    0 -0.33148981484E+03  0.18019047501E+03  0.82688493520E+03  0.90889647413E+03  0.00000000000E+00 0.  1.
<mgrwt>
<rscale>  3 0.39746585E+03</rscale>
<asrwt>0</asrwt>
<pdfrwt beam="1">  1       21 0.11617708E-01 0.39746585E+03</pdfrwt>
<pdfrwt beam="2">  1        2 0.30959345E+00 0.39746585E+03</pdfrwt>
<totfact> 0.54984336E+03</totfact>
</mgrwt>
</event>
<event>
 4    0  0.1426692E-001  0.2698098E+03  0.7546771E-02  0.1101389E+00
          2   -1    0    0  502    0 -0.00000000000E+00  0.00000000000E+00  0.12863980618E+04  0.12863980618E+04  0.00000000000E+00 0.  1.
         21   -1    0    0  501  502  0.00000000000E+00 -0.00000000000E+00 -0.29387662502E+03  0.29387662502E+03  0.00000000000E+00 0. -1.
         25    1    1    2    0    0  0.22848611450E+03 -0.70472843053E+02 -0.21768357835E+03  0.34667487133E+03  0.12500000000E+03 0.  0.
          2    1    1    2  501    0 -0.22848611450E+03  0.70472843053E+02  0.12102050152E+04  0.12335998155E+04  0.00000000000E+00 0.  1.
<mgrwt>
<rscale>  3 0.26980980E+03</rscale>
<asrwt>0</asrwt>
<pdfrwt beam="1">  1       21 0.45211789E-01 0.26980980E+03</pdfrwt>
<pdfrwt beam="2">  1        2 0.19790739E+00 0.26980980E+03</pdfrwt>
<totfact> 0.10295792E+03</totfact>
</mgrwt>
</event>
<event>
 4    0  0.1426692E-001  0.3152703E+03  0.7546771E-02  0.1077847E+00
         21   -1    0    0  501  502  0.00000000000E+00  0.00000000000E+00  0.40842579249E+03  0.40842579249E+03  0.00000000000E+00 0. -1.
          3   -1    0    0  502    0 -0.00000000000E+00 -0.00000000000E+00 -0.14656755657E+04  0.14656755657E+04  0.00000000000E+00 0. -1.
         25    1    1    2    0    0  0.51004850391E+02  0.28490150518E+03  0.33034447939E+03  0.45664300880E+03  0.12500000000E+03 0.  0.
          3    1    1    2  501    0 -0.51004850391E+02 -0.28490150518E+03 -0.13875942526E+04  0.14174583494E+04  0.00000000000E+00 0. -1.
<mgrwt>
<rscale>  3 0.31527030E+03</rscale>
<asrwt>0</asrwt>
<pdfrwt beam="1">  1       21 0.62834738E-01 0.31527030E+03</pdfrwt>
<pdfrwt beam="2">  1        3 0.22548855E+00 0.31527030E+03</pdfrwt>
<totfact> 0.12457510E+01</totfact>
</mgrwt>
</event>
<event>
 4    0  0.1426692E-001  0.2500546E+03  0.7546771E-02  0.1113270E+00
          4   -1    0    0  502    0 -0.00000000000E+00  0.00000000000E+00  0.11057370885E+04  0.11057370885E+04  0.00000000000E+00 0.  1.
         21   -1    0    0  501  502  0.00000000000E+00 -0.00000000000E+00 -0.63468899380E+02  0.63468899380E+02  0.00000000000E+00 0. -1.
         25    1    1    2    0    0 -0.13025430431E+03 -0.17302055544E+03  0.27378852470E+03  0.37079300513E+03  0.12500000000E+03 0.  0.
          4    1    1    2  501    0  0.13025430431E+03  0.17302055544E+03  0.76847966437E+03  0.79841298271E+03  0.00000000000E+00 0.  1.
<mgrwt>
<rscale>  3 0.25005459E+03</rscale>
<asrwt>0</asrwt>
<pdfrwt beam="1">  1       21 0.97644469E-02 0.25005459E+03</pdfrwt>
<pdfrwt beam="2">  1        4 0.17011338E+00 0.25005459E+03</pdfrwt>
<totfact> 0.81060744E+02</totfact>
</mgrwt>
</event>
<event>
 4    0  0.1426692E-001  0.2387632E+03  0.7546771E-02  0.1120620E+00
         21   -1    0    0  501  502  0.00000000000E+00  0.00000000000E+00  0.99621204514E+02  0.99621204514E+02  0.00000000000E+00 0.  1.
          1   -1    0    0  502    0 -0.00000000000E+00 -0.00000000000E+00 -0.10650954604E+04  0.10650954604E+04  0.00000000000E+00 0.  1.
         25    1    1    2    0    0 -0.43425418394E+02 -0.19873871224E+03 -0.73472087851E+02  0.24981191004E+03  0.12500000000E+03 0.  0.
          1    1    1    2  501    0  0.43425418394E+02  0.19873871224E+03 -0.89200216801E+03  0.91490475484E+03  0.00000000000E+00 0.  1.
<mgrwt>
<rscale>  3 0.23876315E+03</rscale>
<asrwt>0</asrwt>
<pdfrwt beam="1">  1       21 0.15326339E-01 0.23876315E+03</pdfrwt>
<pdfrwt beam="2">  1        1 0.16386084E+00 0.23876315E+03</pdfrwt>
<totfact> 0.59808176E+03</totfact>
</mgrwt>
</event>
<event>
 4    0  0.1426692E-001  0.2754244E+03  0.7546771E-02  0.1098215E+00
          2   -1    0    0  502    0 -0.00000000000E+00  0.00000000000E+00  0.22323502062E+04  0.22323502062E+04  0.00000000000E+00 0. -1.
         21   -1    0    0  501  502  0.00000000000E+00 -0.00000000000E+00 -0.36954399246E+02  0.36954399246E+02  0.00000000000E+00 0. -1.
         25    1    1    2    0    0 -0.22567199525E+03  0.96466303229E+02  0.67178244249E+03  0.72605113259E+03  0.12500000000E+03 0.  0.
          2    1    1    2  501    0  0.22567199525E+03 -0.96466303229E+02  0.15236133645E+04  0.15432534729E+04  0.00000000000E+00 0. -1.
<mgrwt>
<rscale>  3 0.27542439E+03</rscale>
<asrwt>0</asrwt>
<pdfrwt beam="1">  1       21 0.56852939E-02 0.27542439E+03</pdfrwt>
<pdfrwt beam="2">  1        2 0.34343839E+00 0.27542439E+03</pdfrwt>
<totfact> 0.15304115E+04</totfact>
</mgrwt>
</event>
<event>
 4    0  0.1426692E-001  0.2774565E+03  0.7546771E-02  0.1097086E+00
          2   -1    0    0  502    0 -0.00000000000E+00  0.00000000000E+00  0.14768935825E+04  0.14768935825E+04  0.00000000000E+00 0.  1.
         21   -1    0    0  501  502  0.00000000000E+00 -0.00000000000E+00 -0.10667502191E+03  0.10667502191E+03  0.00000000000E+00 0.  1.
         25    1    1    2    0    0  0.87534788858E+02  0.23172126501E+03  0.10874584836E+03  0.29800628090E+03  0.12500000000E+03 0.  0.
          2    1    1    2  501    0 -0.87534788858E+02 -0.23172126501E+03  0.12614727122E+04  0.12855623235E+04  0.00000000000E+00 0.  1.
<mgrwt>
<rscale>  3 0.27745645E+03</rscale>
<asrwt>0</asrwt>
<pdfrwt beam="1">  1       21 0.16411543E-01 0.27745645E+03</pdfrwt>
<pdfrwt beam="2">  1        2 0.22721438E+00 0.27745645E+03</pdfrwt>
<totfact> 0.58219925E+03</totfact>
</mgrwt>
</event>
<event>
 4    0  0.1426692E-001  0.2683279E+03  0.7546771E-02  0.1102240E+00
          1   -1    0    0  502    0 -0.00000000000E+00  0.00000000000E+00  0.18741103934E+04  0.18741103934E+04  0.00000000000E+00 0. -1.
         21   -1    0    0  501  502  0.00000000000E+00 -0.00000000000E+00 -0.16091499718E+03  0.16091499718E+03  0.00000000000E+00 0. -1.
         25    1    1    2    0    0 -0.95793444168E+02 -0.21725213459E+03 -0.35159734616E+02  0.27062165632E+03  0.12500000000E+03 0.  0.
          1    1    1    2  501    0  0.95793444168E+02  0.21725213459E+03  0.17483551308E+04  0.17644037342E+04  0.00000000000E+00 0. -1.
<mgrwt>
<rscale>  3 0.26832792E+03</rscale>
<asrwt>0</asrwt>
<pdfrwt beam="1">  1       21 0.24756155E-01 0.26832792E+03</pdfrwt>
<pdfrwt beam="2">  1        1 0.28832466E+00 0.26832792E+03</pdfrwt>
<totfact> 0.68643928E+02</totfact>
</mgrwt>
</event>
<event>
 4    0  0.1426692E-001  0.3645194E+03  0.7546771E-02  0.1056809E+00
         -2   -1    0    0    0  501 -0.00000000000E+00  0.00000000000E+00  0.11285838327E+03  0.11285838327E+03  0.00000000000E+00 0. -1.
         21   -1    0    0  501  502  0.00000000000E+00 -0.00000000000E+00 -0.11094931467E+04  0.11094931467E+04  0.00000000000E+00 0.  1.
         25    1    1    2    0    0 -0.34232993334E+03 -0.77185432304E+01 -0.48518956939E+03  0.60686347510E+03  0.12500000000E+03 0.  0.
         -2    1    1    2    0  502  0.34232993334E+03  0.77185432304E+01 -0.51144519404E+03  0.61548805486E+03  0.00000000000E+00 0. -1.
<mgrwt>
<rscale>  3 0.36451935E+03</rscale>
<asrwt>0</asrwt>
<pdfrwt beam="1">  1       21 0.17069125E+00 0.36451935E+03</pdfrwt>
<pdfrwt beam="2">  1       -2 0.17362828E-01 0.36451935E+03</pdfrwt>
<totfact> 0.41512280E+02</totfact>
</mgrwt>
</event>
<event>
 4    0  0.1426692E-001  0.2440780E+03  0.7546771E-02  0.1117106E+00
         21   -1    0    0  501  502  0.00000000000E+00  0.00000000000E+00  0.31343016378E+02  0.31343016378E+02  0.00000000000E+00 0. -1.
          1   -1    0    0  502    0 -0.00000000000E+00 -0.00000000000E+00 -0.16933006924E+04  0.16933006924E+04  0.00000000000E+00 0. -1.
         25    1    1    2    0    0 -0.90626271421E+00  0.20963835380E+03 -0.74245806029E+03  0.78154848345E+03  0.12500000000E+03 0.  0.
          1    1    1    2  501    0  0.90626271421E+00 -0.20963835380E+03 -0.91949961570E+03  0.94309522529E+03  0.00000000000E+00 0. -1.
<mgrwt>
<rscale>  3 0.24407798E+03</rscale>
<asrwt>0</asrwt>
<pdfrwt beam="1">  1       21 0.48220015E-02 0.24407798E+03</pdfrwt>
<pdfrwt beam="2">  1        1 0.26050785E+00 0.24407798E+03</pdfrwt>
<totfact> 0.17154591E+04</totfact>
</mgrwt>
</event>
<event>
 4    0  0.1426692E-001  0.2822889E+03  0.7546771E-02  0.1094445E+00
          2   -1    0    0  502    0 -0.00000000000E+00  0.00000000000E+00  0.27275642117E+04  0.27275642117E+04  0.00000000000E+00 0. -1.
         21   -1    0    0  501  502  0.00000000000E+00 -0.00000000000E+00 -0.17340612547E+03  0.17340612547E+03  0.00000000000E+00 0.  1.
         25    1    1    2    0    0  0.26159761255E+02  0.25174920716E+03 -0.48164312936E+02  0.28636828989E+03  0.12500000000E+03 0.  0.
          2    1    1    2  501    0 -0.26159761255E+02 -0.25174920716E+03  0.26023223992E+04  0.26146020473E+04  0.00000000000E+00 0. -1.
<mgrwt>
<rscale>  3 0.28228885E+03</rscale>
<asrwt>0</asrwt>
<pdfrwt beam="1">  1       21 0.26677867E-01 0.28228885E+03</pdfrwt>
<pdfrwt beam="2">  1        2 0.41962523E+00 0.28228885E+03</pdfrwt>
<totfact> 0.49336853E+02</totfact>
</mgrwt>
</event>
<event>
 4    0  0.1426692E-001  0.4030427E+03  0.7546771E-02  0.1042731E+00
          2   -1    0    0  502    0 -0.00000000000E+00  0.00000000000E+00  0.31612323197E+04  0.31612323197E+04  0.00000000000E+00 0. -1.
         21   -1    0    0  501  502  0.00000000000E+00 -0.00000000000E+00 -0.56341793402E+02  0.56341793402E+02  0.00000000000E+00 0. -1.
         25    1    1    2    0    0  0.37808815950E+03 -0.62191504818E+02  0.10013236283E+04  0.10793944822E+04  0.12500000000E+03 0.  0.
          2    1    1    2  501    0 -0.37808815950E+03  0.62191504818E+02  0.21035668979E+04  0.21381796308E+04  0.00000000000E+00 0. -1.
<mgrwt>
<rscale>  3 0.40304273E+03</rscale>
<asrwt>0</asrwt>
<pdfrwt beam="1">  1       21 0.86679707E-02 0.40304273E+03</pdfrwt>
<pdfrwt beam="2">  1        2 0.48634330E+00 0.40304273E+03</pdfrwt>
<totfact> 0.20734754E+03</totfact>
</mgrwt>
</event>
<event>
 4    0  0.1426692E-001  0.2512424E+03  0.7546771E-02  0.1112522E+00
         21   -1    0    0  501  502  0.00000000000E+00  0.00000000000E+00  0.55230205965E+02  0.55230205965E+02  0.00000000000E+00 0. -1.
          1   -1    0    0  502    0 -0.00000000000E+00 -0.00000000000E+00 -0.15016907277E+04  0.15016907277E+04  0.00000000000E+00 0. -1.
         25    1    1    2    0    0 -0.21783512263E+03  0.67533940898E+01 -0.30649980940E+03  0.39631412055E+03  0.12500000000E+03 0.  0.
          1    1    1    2  501    0  0.21783512263E+03 -0.67533940898E+01 -0.11399607124E+04  0.11606068131E+04  0.00000000000E+00 0. -1.
<mgrwt>
<rscale>  3 0.25124241E+03</rscale>
<asrwt>0</asrwt>
<pdfrwt beam="1">  1       21 0.84969543E-02 0.25124241E+03</pdfrwt>
<pdfrwt beam="2">  1        1 0.23102936E+00 0.25124241E+03</pdfrwt>
<totfact> 0.85909495E+03</totfact>
</mgrwt>
</event>
<event>
 4    0  0.1426692E-001  0.2493798E+03  0.7546771E-02  0.1113697E+00
          2   -1    0    0  502    0 -0.00000000000E+00  0.00000000000E+00  0.71784042997E+03  0.71784042997E+03  0.00000000000E+00 0.  1.
         21   -1    0    0  501  502  0.00000000000E+00 -0.00000000000E+00 -0.80351298923E+02  0.80351298923E+02  0.00000000000E+00 0.  1.
         25    1    1    2    0    0  0.61867394024E+02  0.20673096064E+03  0.43956702778E+03  0.50538048681E+03  0.12500000000E+03 0.  0.
          2    1    1    2  501    0 -0.61867394024E+02 -0.20673096064E+03  0.19792210326E+03  0.29281124208E+03  0.00000000000E+00 0.  1.
<mgrwt>
<rscale>  3 0.24937976E+03</rscale>
<asrwt>0</asrwt>
<pdfrwt beam="1">  1       21 0.12361739E-01 0.24937976E+03</pdfrwt>
<pdfrwt beam="2">  1        2 0.11043699E+00 0.24937976E+03</pdfrwt>
<totfact> 0.28319697E+04</totfact>
</mgrwt>
</event>
<event>
 4    0  0.1426692E-001  0.2381652E+03  0.7546771E-02  0.1121021E+00
         21   -1    0    0  501  502  0.00000000000E+00  0.00000000000E+00  0.16714782084E+03  0.16714782084E+03  0.00000000000E+00 0. -1.
          1   -1    0    0  502    0 -0.00000000000E+00 -0.00000000000E+00 -0.17205154522E+04  0.17205154522E+04  0.00000000000E+00 0. -1.
         25    1    1    2    0    0  0.17244053697E+03  0.10659225781E+03  0.72694790498E+02  0.24901241089E+03  0.12500000000E+03 0.  0.
          1    1    1    2  501    0 -0.17244053697E+03 -0.10659225781E+03 -0.16260624219E+04  0.16386508622E+04  0.00000000000E+00 0. -1.
<mgrwt>
<rscale>  3 0.23816517E+03</rscale>
<asrwt>0</asrwt>
<pdfrwt beam="1">  1       21 0.25715048E-01 0.23816517E+03</pdfrwt>
<pdfrwt beam="2">  1        1 0.26469470E+00 0.23816517E+03</pdfrwt>
<totfact> 0.81564760E+02</totfact>
</mgrwt>
</event>
<event>
 4    0  0.1426692E-001  0.2491788E+03  0.7546771E-02  0.1113825E+00
         21   -1    0    0  501  502  0.00000000000E+00  0.00000000000E+00  0.49889036513E+02  0.49889036513E+02  0.00000000000E+00 0.  1.
          1   -1    0    0  502    0 -0.00000000000E+00 -0.00000000000E+00 -0.14685152386E+04  0.14685152386E+04  0.00000000000E+00 0. -1.
         25    1    1    2    0    0  0.15855949739E+03 -0.14602725505E+03 -0.35854137940E+03  0.43662569115E+03  0.12500000000E+03 0.  0.
          1    1    1    2  501    0 -0.15855949739E+03  0.14602725505E+03 -0.10600848227E+04  0.10817785840E+04  0.00000000000E+00 0. -1.
<mgrwt>
<rscale>  3 0.24917880E+03</rscale>
<asrwt>0</asrwt>
<pdfrwt beam="1">  1       21 0.76752369E-02 0.24917880E+03</pdfrwt>
<pdfrwt beam="2">  1        1 0.22592541E+00 0.24917880E+03</pdfrwt>
<totfact> 0.10806685E+04</totfact>
</mgrwt>
</event>
<event>
 4    0  0.1426692E-001  0.3612499E+03  0.7546771E-02  0.1058090E+00
         21   -1    0    0  501  502  0.00000000000E+00  0.00000000000E+00  0.13581764227E+03  0.13581764227E+03  0.00000000000E+00 0. -1.
          2   -1    0    0  502    0 -0.00000000000E+00 -0.00000000000E+00 -0.90276884196E+03  0.90276884196E+03  0.00000000000E+00 0. -1.
         25    1    1    2    0    0  0.16645486757E+03 -0.29524446678E+03 -0.40589910931E+03  0.54337427713E+03  0.12500000000E+03 0.  0.
          2    1    1    2  501    0 -0.16645486757E+03  0.29524446678E+03 -0.36105209037E+03  0.49521220710E+03  0.00000000000E+00 0. -1.
<mgrwt>
<rscale>  3 0.36124994E+03</rscale>
<asrwt>0</asrwt>
<pdfrwt beam="1">  1       21 0.20895022E-01 0.36124994E+03</pdfrwt>
<pdfrwt beam="2">  1        2 0.13888751E+00 0.36124994E+03</pdfrwt>
<totfact> 0.78300732E+03</totfact>
</mgrwt>
</event>
<event>
 4    0  0.1426692E-001  0.3583325E+03  0.7546771E-02  0.1059246E+00
          1   -1    0    0  502    0 -0.00000000000E+00  0.00000000000E+00  0.41682811022E+03  0.41682811022E+03  0.00000000000E+00 0.  1.
         21   -1    0    0  501  502  0.00000000000E+00 -0.00000000000E+00 -0.41970209569E+03  0.41970209569E+03  0.00000000000E+00 0. -1.
         25    1    1    2    0    0 -0.33409116133E+03  0.34062391176E+02 -0.23479684098E+03  0.42840600731E+03  0.12500000000E+03 0.  0.
          1    1    1    2  501    0  0.33409116133E+03 -0.34062391176E+02  0.23192285551E+03  0.40812419859E+03  0.00000000000E+00 0.  1.
<mgrwt>
<rscale>  3 0.35833246E+03</rscale>
<asrwt>0</asrwt>
<pdfrwt beam="1">  1       21 0.64569554E-01 0.35833246E+03</pdfrwt>
<pdfrwt beam="2">  1        1 0.64127401E-01 0.35833246E+03</pdfrwt>
<totfact> 0.13184085E+03</totfact>
</mgrwt>
</event>
<event>
 4    0  0.1426692E-001  0.2512688E+03  0.7546771E-02  0.1112506E+00
          1   -1    0    0  502    0 -0.00000000000E+00  0.00000000000E+00  0.31413116594E+03  0.31413116594E+03  0.00000000000E+00 0. -1.
         21   -1    0    0  501  502  0.00000000000E+00 -0.00000000000E+00 -0.33110935297E+03  0.33110935297E+03  0.00000000000E+00 0. -1.
         25    1    1    2    0    0  0.49057930154E+02  0.21237780597E+03 -0.22987077756E+03  0.34055335463E+03  0.12500000000E+03 0.  0.
          1    1    1    2  501    0 -0.49057930154E+02 -0.21237780597E+03  0.21289259052E+03  0.30468716428E+03  0.00000000000E+00 0. -1.
<mgrwt>
<rscale>  3 0.25126881E+03</rscale>
<asrwt>0</asrwt>
<pdfrwt beam="1">  1       21 0.50939901E-01 0.25126881E+03</pdfrwt>
<pdfrwt beam="2">  1        1 0.48327872E-01 0.25126881E+03</pdfrwt>
<totfact> 0.32523486E+03</totfact>
</mgrwt>
</event>
<event>
 4    0  0.1426692E-001  0.2415030E+03  0.7546771E-02  0.1118796E+00
          2   -1    0    0  502    0 -0.00000000000E+00  0.00000000000E+00  0.13517032884E+04  0.13517032884E+04  0.00000000000E+00 0. -1.
         21   -1    0    0  501  502  0.00000000000E+00 -0.00000000000E+00 -0.41336863605E+02  0.41336863605E+02  0.00000000000E+00 0. -1.
         25    1    1    2    0    0 -0.59327304881E+01 -0.20655146671E+03  0.47975403374E+03  0.53711045287E+03  0.12500000000E+03 0.  0.
          2    1    1    2  501    0  0.59327304881E+01  0.20655146671E+03  0.83061239110E+03  0.85592969918E+03  0.00000000000E+00 0. -1.
<mgrwt>
<rscale>  3 0.24150301E+03</rscale>
<asrwt>0</asrwt>
<pdfrwt beam="1">  1       21 0.63595185E-02 0.24150301E+03</pdfrwt>
<pdfrwt beam="2">  1        2 0.20795432E+00 0.24150301E+03</pdfrwt>
<totfact> 0.37243593E+04</totfact>
</mgrwt>
</event>
<event>
 4    0  0.1426692E-001  0.2852901E+03  0.7546771E-02  0.1092834E+00
         21   -1    0    0  501  502  0.00000000000E+00  0.00000000000E+00  0.33205945808E+02  0.33205945808E+02  0.00000000000E+00 0. -1.
          3   -1    0    0  502    0 -0.00000000000E+00 -0.00000000000E+00 -0.22739550217E+04  0.22739550217E+04  0.00000000000E+00 0. -1.
         25    1    1    2    0    0 -0.25641366890E+03 -0.41765264441E+01 -0.98444932821E+03  0.10249540930E+04  0.12500000000E+03 0.  0.
          3    1    1    2  501    0  0.25641366890E+03  0.41765264441E+01 -0.12562997477E+04  0.12822068745E+04  0.00000000000E+00 0. -1.
<mgrwt>
<rscale>  3 0.28529005E+03</rscale>
<asrwt>0</asrwt>
<pdfrwt beam="1">  1       21 0.51086049E-02 0.28529005E+03</pdfrwt>
<pdfrwt beam="2">  1        3 0.34983938E+00 0.28529005E+03</pdfrwt>
<totfact> 0.31159067E+02</totfact>
</mgrwt>
</event>
<event>
 4    0  0.1426692E-001  0.2948471E+03  0.7546771E-02  0.1087845E+00
         21   -1    0    0  501  502  0.00000000000E+00  0.00000000000E+00  0.16512077789E+03  0.16512077789E+03  0.00000000000E+00 0.  1.
          2   -1    0    0  502    0 -0.00000000000E+00 -0.00000000000E+00 -0.14038421501E+04  0.14038421501E+04  0.00000000000E+00 0.  1.
         25    1    1    2    0    0 -0.26682139621E+03  0.10778709920E+02  0.70108743621E+01  0.29493048405E+03  0.12500000000E+03 0.  0.
          2    1    1    2  501    0  0.26682139621E+03 -0.10778709920E+02 -0.12457322466E+04  0.12740324439E+04  0.00000000000E+00 0.  1.
<mgrwt>
<rscale>  3 0.29484714E+03</rscale>
<asrwt>0</asrwt>
<pdfrwt beam="1">  1       21 0.25403196E-01 0.29484714E+03</pdfrwt>
<pdfrwt beam="2">  1        2 0.21597572E+00 0.29484714E+03</pdfrwt>
<totfact> 0.27780673E+03</totfact>
</mgrwt>
</event>
<event>
 4    0  0.1426692E-001  0.2722469E+03  0.7546771E-02  0.1100000E+00
         21   -1    0    0  501  502  0.00000000000E+00  0.00000000000E+00  0.20868515024E+03  0.20868515024E+03  0.00000000000E+00 0. -1.
          1   -1    0    0  502    0 -0.00000000000E+00 -0.00000000000E+00 -0.85713369085E+03  0.85713369085E+03  0.00000000000E+00 0. -1.
         25    1    1    2    0    0 -0.22854823866E+03 -0.79114413787E+02  0.91607086276E+02  0.28724596798E+03  0.12500000000E+03 0.  0.
          1    1    1    2  501    0  0.22854823866E+03  0.79114413787E+02 -0.74005562689E+03  0.77857287312E+03  0.00000000000E+00 0. -1.
<mgrwt>
<rscale>  3 0.27224692E+03</rscale>
<asrwt>0</asrwt>
<pdfrwt beam="1">  1       21 0.32105407E-01 0.27224692E+03</pdfrwt>
<pdfrwt beam="2">  1        1 0.13186672E+00 0.27224692E+03</pdfrwt>
<totfact> 0.20908703E+03</totfact>
</mgrwt>
</event>
<event>
 4    0  0.1426692E-001  0.2844426E+03  0.7546771E-02  0.1093287E+00
         21   -1    0    0  501  502  0.00000000000E+00  0.00000000000E+00  0.13594249369E+04  0.13594249369E+04  0.00000000000E+00 0.  1.
          1   -1    0    0  502    0 -0.00000000000E+00 -0.00000000000E+00 -0.58638618377E+02  0.58638618377E+02  0.00000000000E+00 0.  1.
         25    1    1    2    0    0  0.64564038070E+01 -0.25542301943E+03  0.88951938068E+03  0.93389096399E+03  0.12500000000E+03 0.  0.
          1    1    1    2  501    0 -0.64564038070E+01  0.25542301943E+03  0.41126693788E+03  0.48417259134E+03  0.00000000000E+00 0.  1.
<mgrwt>
<rscale>  3 0.28444262E+03</rscale>
<asrwt>0</asrwt>
<pdfrwt beam="1">  1       21 0.20914227E+00 0.28444262E+03</pdfrwt>
<pdfrwt beam="2">  1        1 0.90213269E-02 0.28444262E+03</pdfrwt>
<totfact> 0.87547495E+02</totfact>
</mgrwt>
</event>
<event>
 4    0  0.1426692E-001  0.2551043E+03  0.7546771E-02  0.1110121E+00
         21   -1    0    0  501  502  0.00000000000E+00  0.00000000000E+00  0.39308736480E+02  0.39308736480E+02  0.00000000000E+00 0. -1.
          2   -1    0    0  502    0 -0.00000000000E+00 -0.00000000000E+00 -0.38133943210E+04  0.38133943210E+04  0.00000000000E+00 0. -1.
         25    1    1    2    0    0 -0.20766546428E+03  0.79550235206E+02 -0.42105599379E+03  0.49230715502E+03  0.12500000000E+03 0.  0.
          2    1    1    2  501    0  0.20766546428E+03 -0.79550235206E+02 -0.33530295907E+04  0.33603959025E+04  0.00000000000E+00 0. -1.
<mgrwt>
<rscale>  3 0.25510426E+03</rscale>
<asrwt>0</asrwt>
<pdfrwt beam="1">  1       21 0.60474957E-02 0.25510426E+03</pdfrwt>
<pdfrwt beam="2">  1        2 0.58667626E+00 0.25510426E+03</pdfrwt>
<totfact> 0.15319537E+03</totfact>
</mgrwt>
</event>
<event>
 4    0  0.1426692E-001  0.2994402E+03  0.7546771E-02  0.1085521E+00
          1   -1    0    0  502    0 -0.00000000000E+00  0.00000000000E+00  0.87689169395E+03  0.87689169395E+03  0.00000000000E+00 0. -1.
         21   -1    0    0  501  502  0.00000000000E+00 -0.00000000000E+00 -0.14397689058E+03  0.14397689058E+03  0.00000000000E+00 0.  1.
         25    1    1    2    0    0  0.21031076076E+02 -0.27128785925E+03  0.74683454214E+02  0.30861307016E+03  0.12500000000E+03 0.  0.
          1    1    1    2  501    0 -0.21031076076E+02  0.27128785925E+03  0.65823134916E+03  0.71225551437E+03  0.00000000000E+00 0. -1.
<mgrwt>
<rscale>  3 0.29944016E+03</rscale>
<asrwt>0</asrwt>
<pdfrwt beam="1">  1       21 0.22150291E-01 0.29944016E+03</pdfrwt>
<pdfrwt beam="2">  1        1 0.13490641E+00 0.29944016E+03</pdfrwt>
<totfact> 0.41102568E+03</totfact>
</mgrwt>
</event>
<event>
 4    0  0.1426692E-001  0.3340572E+03  0.7546771E-02  0.1069356E+00
         21   -1    0    0  501  502  0.00000000000E+00  0.00000000000E+00  0.58651514658E+02  0.58651514658E+02  0.00000000000E+00 0. -1.
          2   -1    0    0  502    0 -0.00000000000E+00 -0.00000000000E+00 -0.28049755327E+04  0.28049755327E+04  0.00000000000E+00 0.  1.
         25    1    1    2    0    0  0.14825263973E+03 -0.27201164542E+03 -0.53514151850E+03  0.63084913035E+03  0.12500000000E+03 0.  0.
          2    1    1    2  501    0 -0.14825263973E+03  0.27201164542E+03 -0.22111824995E+04  0.22327779170E+04  0.00000000000E+00 0.  1.
<mgrwt>
<rscale>  3 0.33405715E+03</rscale>
<asrwt>0</asrwt>
<pdfrwt beam="1">  1       21 0.90233104E-02 0.33405715E+03</pdfrwt>
<pdfrwt beam="2">  1        2 0.43153468E+00 0.33405715E+03</pdfrwt>
<totfact> 0.32295849E+03</totfact>
</mgrwt>
</event>
<event>
 4    0  0.1426692E-001  0.2834869E+03  0.7546771E-02  0.1093800E+00
         21   -1    0    0  501  502  0.00000000000E+00  0.00000000000E+00  0.42409884472E+02  0.42409884472E+02  0.00000000000E+00 0. -1.
          2   -1    0    0  502    0 -0.00000000000E+00 -0.00000000000E+00 -0.17382488238E+04  0.17382488238E+04  0.00000000000E+00 0. -1.
         25    1    1    2    0    0 -0.25397929825E+03 -0.15308242519E+02 -0.77131756942E+03  0.82176372464E+03  0.12500000000E+03 0.  0.
          2    1    1    2  501    0  0.25397929825E+03  0.15308242519E+02 -0.92452136988E+03  0.95889498361E+03  0.00000000000E+00 0. -1.
<mgrwt>
<rscale>  3 0.28348691E+03</rscale>
<asrwt>0</asrwt>
<pdfrwt beam="1">  1       21 0.65245972E-02 0.28348691E+03</pdfrwt>
<pdfrwt beam="2">  1        2 0.26742291E+00 0.28348691E+03</pdfrwt>
<totfact> 0.21956643E+04</totfact>
</mgrwt>
</event>
<event>
 4    0  0.1426692E-001  0.4345824E+03  0.7546771E-02  0.1032422E+00
          2   -1    0    0  502    0 -0.00000000000E+00  0.00000000000E+00  0.19609606519E+04  0.19609606519E+04  0.00000000000E+00 0.  1.
         21   -1    0    0  501  502  0.00000000000E+00 -0.00000000000E+00 -0.10836317829E+03  0.10836317829E+03  0.00000000000E+00 0.  1.
         25    1    1    2    0    0  0.28491837648E+03  0.30341120564E+03  0.54484782788E+03  0.69693686694E+03  0.12500000000E+03 0.  0.
          2    1    1    2  501    0 -0.28491837648E+03 -0.30341120564E+03  0.13077496457E+04  0.13723869632E+04  0.00000000000E+00 0.  1.
<mgrwt>
<rscale>  3 0.43458238E+03</rscale>
<asrwt>0</asrwt>
<pdfrwt beam="1">  1       21 0.16671260E-01 0.43458238E+03</pdfrwt>
<pdfrwt beam="2">  1        2 0.30168623E+00 0.43458238E+03</pdfrwt>
<totfact> 0.29849300E+03</totfact>
</mgrwt>
</event>
<event>
 4    0  0.1426692E-001  0.2545693E+03  0.7546771E-02  0.1110451E+00
         21   -1    0    0  501  502  0.00000000000E+00  0.00000000000E+00  0.88359026352E+02  0.88359026352E+02  0.00000000000E+00 0.  1.
          2   -1    0    0  502    0 -0.00000000000E+00 -0.00000000000E+00 -0.10966943537E+04  0.10966943537E+04  0.00000000000E+00 0. -1.
         25    1    1    2    0    0  0.84614898110E+02 -0.20498982757E+03 -0.14348264048E+03  0.29222042795E+03  0.12500000000E+03 0.  0.
          2    1    1    2  501    0 -0.84614898110E+02  0.20498982757E+03 -0.86485268684E+03  0.89283295208E+03  0.00000000000E+00 0. -1.
<mgrwt>
<rscale>  3 0.25456926E+03</rscale>
<asrwt>0</asrwt>
<pdfrwt beam="1">  1       21 0.13593697E-01 0.25456926E+03</pdfrwt>
<pdfrwt beam="2">  1        2 0.16872220E+00 0.25456926E+03</pdfrwt>
<totfact> 0.13499857E+04</totfact>
</mgrwt>
</event>
<event>
 4    0  0.1426692E-001  0.3119705E+03  0.7546771E-02  0.1079405E+00
         21   -1    0    0  501  502  0.00000000000E+00  0.00000000000E+00  0.15036416933E+03  0.15036416933E+03  0.00000000000E+00 0. -1.
          4   -1    0    0  502    0 -0.00000000000E+00 -0.00000000000E+00 -0.62023781944E+03  0.62023781944E+03  0.00000000000E+00 0. -1.
         25    1    1    2    0    0 -0.16609133063E+03  0.23262471318E+03 -0.16586347745E+03  0.35332178031E+03  0.12500000000E+03 0.  0.
          4    1    1    2  501    0  0.16609133063E+03 -0.23262471318E+03 -0.30401017266E+03  0.41728020846E+03  0.00000000000E+00 0. -1.
<mgrwt>
<rscale>  3 0.31197049E+03</rscale>
<asrwt>0</asrwt>
<pdfrwt beam="1">  1       21 0.23132949E-01 0.31197049E+03</pdfrwt>
<pdfrwt beam="2">  1        4 0.95421203E-01 0.31197049E+03</pdfrwt>
<totfact> 0.70138222E+02</totfact>
</mgrwt>
</event>
<event>
 4    0  0.1426692E-001  0.2508096E+03  0.7546771E-02  0.1112794E+00
         21   -1    0    0  501  502  0.00000000000E+00  0.00000000000E+00  0.32604566670E+03  0.32604566670E+03  0.00000000000E+00 0.  1.
          1   -1    0    0  502    0 -0.00000000000E+00 -0.00000000000E+00 -0.11980645808E+04  0.11980645808E+04  0.00000000000E+00 0. -1.
         25    1    1    2    0    0  0.18899248986E+02  0.21661784776E+03  0.26594559184E+03  0.36555783592E+03  0.12500000000E+03 0.  0.
          1    1    1    2  501    0 -0.18899248986E+02 -0.21661784776E+03 -0.11379645060E+04  0.11585524116E+04  0.00000000000E+00 0. -1.
<mgrwt>
<rscale>  3 0.25080964E+03</rscale>
<asrwt>0</asrwt>
<pdfrwt beam="1">  1       21 0.50160871E-01 0.25080964E+03</pdfrwt>
<pdfrwt beam="2">  1        1 0.18431763E+00 0.25080964E+03</pdfrwt>
<totfact> 0.47366675E+02</totfact>
</mgrwt>
</event>
<event>
 4    0  0.1426692E-001  0.2497200E+03  0.7546771E-02  0.1113482E+00
         21   -1    0    0  501  502  0.00000000000E+00  0.00000000000E+00  0.14585095233E+03  0.14585095233E+03  0.00000000000E+00 0.  1.
          2   -1    0    0  502    0 -0.00000000000E+00 -0.00000000000E+00 -0.15465890813E+04  0.15465890813E+04  0.00000000000E+00 0.  1.
         25    1    1    2    0    0 -0.27304502411E+01  0.21616573343E+03  0.24482174185E+02  0.25091723042E+03  0.12500000000E+03 0.  0.
          2    1    1    2  501    0  0.27304502411E+01 -0.21616573343E+03 -0.14252203031E+04  0.14415228032E+04  0.00000000000E+00 0.  1.
<mgrwt>
<rscale>  3 0.24972000E+03</rscale>
<asrwt>0</asrwt>
<pdfrwt beam="1">  1       21 0.22438609E-01 0.24972000E+03</pdfrwt>
<pdfrwt beam="2">  1        2 0.23793677E+00 0.24972000E+03</pdfrwt>
<totfact> 0.30027628E+03</totfact>
</mgrwt>
</event>
<event>
 4    0  0.1426692E-001  0.3614045E+03  0.7546771E-02  0.1058029E+00
         21   -1    0    0  501  502  0.00000000000E+00  0.00000000000E+00  0.10305788353E+03  0.10305788353E+03  0.00000000000E+00 0. -1.
          1   -1    0    0  502    0 -0.00000000000E+00 -0.00000000000E+00 -0.13341154345E+04  0.13341154345E+04  0.00000000000E+00 0. -1.
         25    1    1    2    0    0 -0.33584935418E+03 -0.46833699488E+02 -0.39724389966E+03  0.53704366669E+03  0.12500000000E+03 0.  0.
          1    1    1    2  501    0  0.33584935418E+03  0.46833699488E+02 -0.83381365129E+03  0.90012965132E+03  0.00000000000E+00 0. -1.
<mgrwt>
<rscale>  3 0.36140446E+03</rscale>
<asrwt>0</asrwt>
<pdfrwt beam="1">  1       21 0.15855059E-01 0.36140446E+03</pdfrwt>
<pdfrwt beam="2">  1        1 0.20524853E+00 0.36140446E+03</pdfrwt>
<totfact> 0.35095520E+03</totfact>
</mgrwt>
</event>
<event>
 4    0  0.1426692E-001  0.2619344E+03  0.7546771E-02  0.1105987E+00
          1   -1    0    0  502    0 -0.00000000000E+00  0.00000000000E+00  0.69484925916E+03  0.69484925916E+03  0.00000000000E+00 0. -1.
         21   -1    0    0  501  502  0.00000000000E+00 -0.00000000000E+00 -0.11667895302E+03  0.11667895302E+03  0.00000000000E+00 0.  1.
         25    1    1    2    0    0 -0.21005759831E+03 -0.94129982770E+02  0.99149111290E+02  0.28007176675E+03  0.12500000000E+03 0.  0.
          1    1    1    2  501    0  0.21005759831E+03  0.94129982770E+02  0.47902119485E+03  0.53145644542E+03  0.00000000000E+00 0. -1.
<mgrwt>
<rscale>  3 0.26193444E+03</rscale>
<asrwt>0</asrwt>
<pdfrwt beam="1">  1       21 0.17950609E-01 0.26193444E+03</pdfrwt>
<pdfrwt beam="2">  1        1 0.10689988E+00 0.26193444E+03</pdfrwt>
<totfact> 0.88040013E+03</totfact>
</mgrwt>
</event>
<event>
 4    0  0.1426692E-001  0.2468198E+03  0.7546771E-02  0.1115331E+00
         21   -1    0    0  501  502  0.00000000000E+00  0.00000000000E+00  0.80683875448E+02  0.80683875448E+02  0.00000000000E+00 0. -1.
          2   -1    0    0  502    0 -0.00000000000E+00 -0.00000000000E+00 -0.20592491336E+04  0.20592491336E+04  0.00000000000E+00 0.  1.
         25    1    1    2    0    0  0.17218410680E+02  0.21212859273E+03 -0.12963197168E+03  0.27879107160E+03  0.12500000000E+03 0.  0.
          2    1    1    2  501    0 -0.17218410680E+02 -0.21212859273E+03 -0.18489332865E+04  0.18611419375E+04  0.00000000000E+00 0.  1.
<mgrwt>
<rscale>  3 0.24681980E+03</rscale>
<asrwt>0</asrwt>
<pdfrwt beam="1">  1       21 0.12412903E-01 0.24681980E+03</pdfrwt>
<pdfrwt beam="2">  1        2 0.31680758E+00 0.24681980E+03</pdfrwt>
<totfact> 0.48327103E+03</totfact>
</mgrwt>
</event>
<event>
 4    0  0.1426692E-001  0.2683147E+03  0.7546771E-02  0.1102248E+00
         21   -1    0    0  501  502  0.00000000000E+00  0.00000000000E+00  0.90511900287E+02  0.90511900287E+02  0.00000000000E+00 0. -1.
          1   -1    0    0  502    0 -0.00000000000E+00 -0.00000000000E+00 -0.15364595417E+04  0.15364595417E+04  0.00000000000E+00 0. -1.
         25    1    1    2    0    0 -0.23043371346E+03  0.57167100186E+02 -0.14588928787E+03  0.30541194796E+03  0.12500000000E+03 0.  0.
          1    1    1    2  501    0  0.23043371346E+03 -0.57167100186E+02 -0.13000583535E+04  0.13215594940E+04  0.00000000000E+00 0. -1.
<mgrwt>
<rscale>  3 0.26831469E+03</rscale>
<asrwt>0</asrwt>
<pdfrwt beam="1">  1       21 0.13924908E-01 0.26831469E+03</pdfrwt>
<pdfrwt beam="2">  1        1 0.23637838E+00 0.26831469E+03</pdfrwt>
<totfact> 0.33475555E+03</totfact>
</mgrwt>
</event>
<event>
 4    0  0.1426692E-001  0.2510480E+03  0.7546771E-02  0.1112644E+00
          2   -1    0    0  502    0 -0.00000000000E+00  0.00000000000E+00  0.15197143512E+04  0.15197143512E+04  0.00000000000E+00 0.  1.
         21   -1    0    0  501  502  0.00000000000E+00 -0.00000000000E+00 -0.20392667248E+03  0.20392667248E+03  0.00000000000E+00 0.  1.
         25    1    1    2    0    0 -0.21026603311E+03  0.56465134407E+02 -0.11517757505E+03  0.27620823644E+03  0.12500000000E+03 0.  0.
          2    1    1    2  501    0  0.21026603311E+03 -0.56465134407E+02  0.14309652538E+04  0.14474327873E+04  0.00000000000E+00 0.  1.
<mgrwt>
<rscale>  3 0.25104804E+03</rscale>
<asrwt>0</asrwt>
<pdfrwt beam="1">  1       21 0.31373335E-01 0.25104804E+03</pdfrwt>
<pdfrwt beam="2">  1        2 0.23380220E+00 0.25104804E+03</pdfrwt>
<totfact> 0.16218010E+03</totfact>
</mgrwt>
</event>
<event>
 4    0  0.1426692E-001  0.3582320E+03  0.7546771E-02  0.1059286E+00
         21   -1    0    0  501  502  0.00000000000E+00  0.00000000000E+00  0.42779360506E+03  0.42779360506E+03  0.00000000000E+00 0. -1.
          1   -1    0    0  502    0 -0.00000000000E+00 -0.00000000000E+00 -0.38964309653E+03  0.38964309653E+03  0.00000000000E+00 0. -1.
         25    1    1    2    0    0 -0.29079261280E+03 -0.16776421183E+03  0.23483989289E+03  0.42834559613E+03  0.12500000000E+03 0.  0.
          1    1    1    2  501    0  0.29079261280E+03  0.16776421183E+03 -0.19668938437E+03  0.38909110546E+03  0.00000000000E+00 0. -1.
<mgrwt>
<rscale>  3 0.35823201E+03</rscale>
<asrwt>0</asrwt>
<pdfrwt beam="1">  1       21 0.65814401E-01 0.35823201E+03</pdfrwt>
<pdfrwt beam="2">  1        1 0.59945092E-01 0.35823201E+03</pdfrwt>
<totfact> 0.13798337E+03</totfact>
</mgrwt>
</event>
<event>
 4    0  0.1426692E-001  0.5773580E+03  0.7546771E-02  0.9953527E-01
         21   -1    0    0  501  502  0.00000000000E+00  0.00000000000E+00  0.24270112173E+03  0.24270112173E+03  0.00000000000E+00 0.  1.
          1   -1    0    0  502    0 -0.00000000000E+00 -0.00000000000E+00 -0.19880856657E+04  0.19880856657E+04  0.00000000000E+00 0. -1.
         25    1    1    2    0    0 -0.23386193076E+03 -0.51286048886E+03 -0.24348695057E+03  0.62660049377E+03  0.12500000000E+03 0.  0.
          1    1    1    2  501    0  0.23386193076E+03  0.51286048886E+03 -0.15018975934E+04  0.16041862936E+04  0.00000000000E+00 0. -1.
<mgrwt>
<rscale>  3 0.57735802E+03</rscale>
<asrwt>0</asrwt>
<pdfrwt beam="1">  1       21 0.37338633E-01 0.57735802E+03</pdfrwt>
<pdfrwt beam="2">  1        1 0.30585934E+00 0.57735802E+03</pdfrwt>
<totfact> 0.22890317E+02</totfact>
</mgrwt>
</event>
<event>
 4    0  0.1426692E-001  0.2382595E+03  0.7546771E-02  0.1120958E+00
          1   -1    0    0  502    0 -0.00000000000E+00  0.00000000000E+00  0.55183776555E+03  0.55183776555E+03  0.00000000000E+00 0.  1.
         21   -1    0    0  501  502  0.00000000000E+00 -0.00000000000E+00 -0.11834689173E+03  0.11834689173E+03  0.00000000000E+00 0.  1.
         25    1    1    2    0    0  0.15759680032E+03  0.12769426774E+03  0.60835709193E+02  0.24590356036E+03  0.12500000000E+03 0.  0.
          1    1    1    2  501    0 -0.15759680032E+03 -0.12769426774E+03  0.37265516463E+03  0.42428109692E+03  0.00000000000E+00 0.  1.
<mgrwt>
<rscale>  3 0.23825948E+03</rscale>
<asrwt>0</asrwt>
<pdfrwt beam="1">  1       21 0.18207214E-01 0.23825948E+03</pdfrwt>
<pdfrwt beam="2">  1        1 0.84898116E-01 0.23825948E+03</pdfrwt>
<totfact> 0.11912110E+04</totfact>
</mgrwt>
</event>
<event>
 4    0  0.1426692E-001  0.2371356E+03  0.7546771E-02  0.1121716E+00
         21   -1    0    0  501  502  0.00000000000E+00  0.00000000000E+00  0.62537496427E+02  0.62537496427E+02  0.00000000000E+00 0.  1.
          1   -1    0    0  502    0 -0.00000000000E+00 -0.00000000000E+00 -0.82928597574E+03  0.82928597574E+03  0.00000000000E+00 0.  1.
         25    1    1    2    0    0 -0.17295383279E+03 -0.10341785588E+03 -0.29258547908E+03  0.37661591013E+03  0.12500000000E+03 0.  0.
          1    1    1    2  501    0  0.17295383279E+03  0.10341785588E+03 -0.47416300023E+03  0.51520756204E+03  0.00000000000E+00 0.  1.
<mgrwt>
<rscale>  3 0.23713558E+03</rscale>
<asrwt>0</asrwt>
<pdfrwt beam="1">  1       21 0.96211530E-02 0.23713558E+03</pdfrwt>
<pdfrwt beam="2">  1        1 0.12758246E+00 0.23713558E+03</pdfrwt>
<totfact> 0.20995723E+04</totfact>
</mgrwt>
</event>
<event>
 4    0  0.1426692E-001  0.2658613E+03  0.7546771E-02  0.1103672E+00
         21   -1    0    0  501  502  0.00000000000E+00  0.00000000000E+00  0.18147341265E+03  0.18147341265E+03  0.00000000000E+00 0.  1.
          4   -1    0    0  502    0 -0.00000000000E+00 -0.00000000000E+00 -0.75269182372E+03  0.75269182372E+03  0.00000000000E+00 0. -1.
         25    1    1    2    0    0 -0.18554999891E+02 -0.23390794245E+03  0.49631804765E+02  0.27045430225E+03  0.12500000000E+03 0.  0.
          4    1    1    2  501    0  0.18554999891E+02  0.23390794245E+03 -0.62085021583E+03  0.66371093411E+03  0.00000000000E+00 0. -1.
<mgrwt>
<rscale>  3 0.26586127E+03</rscale>
<asrwt>0</asrwt>
<pdfrwt beam="1">  1       21 0.27918986E-01 0.26586127E+03</pdfrwt>
<pdfrwt beam="2">  1        4 0.11579874E+00 0.26586127E+03</pdfrwt>
<totfact> 0.30888223E+02</totfact>
</mgrwt>
</event>
<event>
 4    0  0.1426692E-001  0.2422395E+03  0.7546771E-02  0.1118310E+00
          2   -1    0    0  502    0 -0.00000000000E+00  0.00000000000E+00  0.60922502676E+03  0.60922502676E+03  0.00000000000E+00 0.  1.
         21   -1    0    0  501  502  0.00000000000E+00 -0.00000000000E+00 -0.16746567927E+03  0.16746567927E+03  0.00000000000E+00 0.  1.
         25    1    1    2    0    0 -0.20679901373E+03  0.17003956752E+02 -0.46055843378E+02  0.24657880552E+03  0.12500000000E+03 0.  0.
          2    1    1    2  501    0  0.20679901373E+03 -0.17003956752E+02  0.48781519087E+03  0.53011190051E+03  0.00000000000E+00 0.  1.
<mgrwt>
<rscale>  3 0.24223948E+03</rscale>
<asrwt>0</asrwt>
<pdfrwt beam="1">  1       21 0.25763951E-01 0.24223948E+03</pdfrwt>
<pdfrwt beam="2">  1        2 0.93726926E-01 0.24223948E+03</pdfrwt>
<totfact> 0.87976996E+03</totfact>
</mgrwt>
</event>
<event>
 4    0  0.1426692E-001  0.4887613E+03  0.7546771E-02  0.1016755E+00
         21   -1    0    0  501  502  0.00000000000E+00  0.00000000000E+00  0.30362672266E+03  0.30362672266E+03  0.00000000000E+00 0. -1.
          2   -1    0    0  502    0 -0.00000000000E+00 -0.00000000000E+00 -0.13845827599E+04  0.13845827599E+04  0.00000000000E+00 0. -1.
         25    1    1    2    0    0 -0.35728180191E+02 -0.47115396792E+03 -0.11120108622E+04  0.12146833835E+04  0.12500000000E+03 0.  0.
          2    1    1    2  501    0  0.35728180191E+02  0.47115396792E+03  0.31054825006E+02  0.47352609907E+03  0.00000000000E+00 0. -1.
<mgrwt>
<rscale>  3 0.48876125E+03</rscale>
<asrwt>0</asrwt>
<pdfrwt beam="1">  1       21 0.46711803E-01 0.48876125E+03</pdfrwt>
<pdfrwt beam="2">  1        2 0.21301274E+00 0.48876125E+03</pdfrwt>
<totfact> 0.78763522E+02</totfact>
</mgrwt>
</event>
<event>
 4    0  0.1426692E-001  0.3408580E+03  0.7546771E-02  0.1066431E+00
         21   -1    0    0  501  502  0.00000000000E+00  0.00000000000E+00  0.37903959940E+03  0.37903959940E+03  0.00000000000E+00 0.  1.
          3   -1    0    0  502    0 -0.00000000000E+00 -0.00000000000E+00 -0.54477182658E+03  0.54477182658E+03  0.00000000000E+00 0.  1.
         25    1    1    2    0    0  0.15638886310E+03  0.27586531669E+03  0.23409054789E+03  0.41350034349E+03  0.12500000000E+03 0.  0.
          3    1    1    2  501    0 -0.15638886310E+03 -0.27586531669E+03 -0.39982277507E+03  0.51031108250E+03  0.00000000000E+00 0.  1.
<mgrwt>
<rscale>  3 0.34085796E+03</rscale>
<asrwt>0</asrwt>
<pdfrwt beam="1">  1       21 0.58313784E-01 0.34085796E+03</pdfrwt>
<pdfrwt beam="2">  1        3 0.83811050E-01 0.34085796E+03</pdfrwt>
<totfact> 0.17696036E+02</totfact>
</mgrwt>
</event>
<event>
 4    0  0.1426692E-001  0.2909744E+03  0.7546771E-02  0.1089842E+00
         -1   -1    0    0    0  501 -0.00000000000E+00  0.00000000000E+00  0.51384281591E+02  0.51384281591E+02  0.00000000000E+00 0.  1.
         21   -1    0    0  501  502  0.00000000000E+00 -0.00000000000E+00 -0.15029372270E+04  0.15029372270E+04  0.00000000000E+00 0.  1.
         25    1    1    2    0    0 -0.22966517763E+03  0.12765181384E+03 -0.82933342621E+03  0.87889704244E+03  0.12500000000E+03 0.  0.
         -1    1    1    2    0  502  0.22966517763E+03 -0.12765181384E+03 -0.62221951918E+03  0.67542446613E+03  0.00000000000E+00 0.  1.
<mgrwt>
<rscale>  3 0.29097436E+03</rscale>
<asrwt>0</asrwt>
<pdfrwt beam="1">  1       21 0.23122106E+00 0.29097436E+03</pdfrwt>
<pdfrwt beam="2">  1       -1 0.79052757E-02 0.29097436E+03</pdfrwt>
<totfact> 0.63440200E+02</totfact>
</mgrwt>
</event>
<event>
 4    0  0.1426692E-001  0.2786364E+03  0.7546771E-02  0.1096436E+00
         21   -1    0    0  501  502  0.00000000000E+00  0.00000000000E+00  0.68764664117E+03  0.68764664117E+03  0.00000000000E+00 0. -1.
          2   -1    0    0  502    0 -0.00000000000E+00 -0.00000000000E+00 -0.27192340987E+04  0.27192340987E+04  0.00000000000E+00 0.  1.
         25    1    1    2    0    0  0.90920290176E+02 -0.23183347628E+03  0.65342040183E+03  0.71034954875E+03  0.12500000000E+03 0.  0.
          2    1    1    2  501    0 -0.90920290176E+02  0.23183347628E+03 -0.26850078593E+04  0.26965311911E+04  0.00000000000E+00 0.  1.
<mgrwt>
<rscale>  3 0.27863643E+03</rscale>
<asrwt>0</asrwt>
<pdfrwt beam="1">  1       21 0.10579179E+00 0.27863643E+03</pdfrwt>
<pdfrwt beam="2">  1        2 0.41834370E+00 0.27863643E+03</pdfrwt>
<totfact> 0.26082182E+01</totfact>
</mgrwt>
</event>
<event>
 4    0  0.1426692E-001  0.3478380E+03  0.7546771E-02  0.1063506E+00
         21   -1    0    0  501  502  0.00000000000E+00  0.00000000000E+00  0.54797734022E+02  0.54797734022E+02  0.00000000000E+00 0.  1.
          2   -1    0    0  502    0 -0.00000000000E+00 -0.00000000000E+00 -0.20630467793E+04  0.20630467793E+04  0.00000000000E+00 0. -1.
         25    1    1    2    0    0  0.26925441165E+03 -0.18129620824E+03 -0.10307853567E+04  0.10878923223E+04  0.12500000000E+03 0.  0.
          2    1    1    2  501    0 -0.26925441165E+03  0.18129620824E+03 -0.97746368857E+03  0.10299521910E+04  0.00000000000E+00 0. -1.
<mgrwt>
<rscale>  3 0.34783797E+03</rscale>
<asrwt>0</asrwt>
<pdfrwt beam="1">  1       21 0.84304196E-02 0.34783797E+03</pdfrwt>
<pdfrwt beam="2">  1        2 0.31739185E+00 0.34783797E+03</pdfrwt>
<totfact> 0.92903670E+03</totfact>
</mgrwt>
</event>
<event>
 4    0  0.1426692E-001  0.2614886E+03  0.7546771E-02  0.1106252E+00
         21   -1    0    0  501  502  0.00000000000E+00  0.00000000000E+00  0.63326102514E+02  0.63326102514E+02  0.00000000000E+00 0. -1.
          2   -1    0    0  502    0 -0.00000000000E+00 -0.00000000000E+00 -0.29130385409E+04  0.29130385409E+04  0.00000000000E+00 0. -1.
         25    1    1    2    0    0 -0.10973681585E+03 -0.20176495502E+03 -0.23495582755E+03  0.35154019219E+03  0.12500000000E+03 0.  0.
          2    1    1    2  501    0  0.10973681585E+03  0.20176495502E+03 -0.26147566109E+04  0.26248244513E+04  0.00000000000E+00 0. -1.
<mgrwt>
<rscale>  3 0.26148856E+03</rscale>
<asrwt>0</asrwt>
<pdfrwt beam="1">  1       21 0.97424758E-02 0.26148856E+03</pdfrwt>
<pdfrwt beam="2">  1        2 0.44815985E+00 0.26148856E+03</pdfrwt>
<totfact> 0.25177900E+03</totfact>
</mgrwt>
</event>
<event>
 4    0  0.1426692E-001  0.3784132E+03  0.7546771E-02  0.1051522E+00
         21   -1    0    0  501  502  0.00000000000E+00  0.00000000000E+00  0.21127232112E+03  0.21127232112E+03  0.00000000000E+00 0.  1.
          2   -1    0    0  502    0 -0.00000000000E+00 -0.00000000000E+00 -0.75934653775E+03  0.75934653775E+03  0.00000000000E+00 0.  1.
         25    1    1    2    0    0  0.25852483265E+03 -0.24644764812E+03 -0.88595174874E+02  0.38864590230E+03  0.12500000000E+03 0.  0.
          2    1    1    2  501    0 -0.25852483265E+03  0.24644764812E+03 -0.45947904175E+03  0.58197295656E+03  0.00000000000E+00 0.  1.
<mgrwt>
<rscale>  3 0.37841318E+03</rscale>
<asrwt>0</asrwt>
<pdfrwt beam="1">  1       21 0.32503435E-01 0.37841318E+03</pdfrwt>
<pdfrwt beam="2">  1        2 0.11682254E+00 0.37841318E+03</pdfrwt>
<totfact> 0.41414094E+03</totfact>
</mgrwt>
</event>
<event>
 4    0  0.1426692E-001  0.3387596E+03  0.7546771E-02  0.1067325E+00
         21   -1    0    0  501  502  0.00000000000E+00  0.00000000000E+00  0.25672067258E+04  0.25672067258E+04  0.00000000000E+00 0. -1.
         -2   -1    0    0    0  501 -0.00000000000E+00 -0.00000000000E+00 -0.53153956126E+03  0.53153956126E+03  0.00000000000E+00 0. -1.
         25    1    1    2    0    0  0.28443866501E+03  0.13501006172E+03  0.25081738858E+04  0.25309473152E+04  0.12500000000E+03 0.  0.
         -2    1    1    2    0  502 -0.28443866501E+03 -0.13501006172E+03 -0.47250672121E+03  0.56779897191E+03  0.00000000000E+00 0. -1.
<mgrwt>
<rscale>  3 0.33875961E+03</rscale>
<asrwt>0</asrwt>
<pdfrwt beam="1">  1       21 0.39495487E+00 0.33875961E+03</pdfrwt>
<pdfrwt beam="2">  1       -2 0.81775318E-01 0.33875961E+03</pdfrwt>
<totfact> 0.86305545E-01</totfact>
</mgrwt>
</event>
<event>
 4    0  0.1426692E-001  0.3659781E+03  0.7546771E-02  0.1056242E+00
         21   -1    0    0  501  502  0.00000000000E+00  0.00000000000E+00  0.17560363905E+03  0.17560363905E+03  0.00000000000E+00 0.  1.
          1   -1    0    0  502    0 -0.00000000000E+00 -0.00000000000E+00 -0.10327193881E+04  0.10327193881E+04  0.00000000000E+00 0.  1.
         25    1    1    2    0    0  0.30986975636E+03  0.14931737086E+03 -0.10414662196E+03  0.38050816288E+03  0.12500000000E+03 0.  0.
          1    1    1    2  501    0 -0.30986975636E+03 -0.14931737086E+03 -0.75296912707E+03  0.82781486425E+03  0.00000000000E+00 0.  1.
<mgrwt>
<rscale>  3 0.36597806E+03</rscale>
<asrwt>0</asrwt>
<pdfrwt beam="1">  1       21 0.27015945E-01 0.36597806E+03</pdfrwt>
<pdfrwt beam="2">  1        1 0.15887990E+00 0.36597806E+03</pdfrwt>
<totfact> 0.20871696E+03</totfact>
</mgrwt>
</event>
<event>
 4    0  0.1426692E-001  0.3509229E+03  0.7546771E-02  0.1062237E+00
          2   -1    0    0  502    0 -0.00000000000E+00  0.00000000000E+00  0.13300137632E+04  0.13300137632E+04  0.00000000000E+00 0. -1.
         21   -1    0    0  501  502  0.00000000000E+00 -0.00000000000E+00 -0.11541882413E+03  0.11541882413E+03  0.00000000000E+00 0. -1.
         25    1    1    2    0    0  0.87040629293E+02  0.31614204136E+03  0.26188046066E+03  0.43786783067E+03  0.12500000000E+03 0.  0.
          2    1    1    2  501    0 -0.87040629293E+02 -0.31614204136E+03  0.95271447839E+03  0.10075647566E+04  0.00000000000E+00 0. -1.
<mgrwt>
<rscale>  3 0.35092287E+03</rscale>
<asrwt>0</asrwt>
<pdfrwt beam="1">  1       21 0.17756743E-01 0.35092287E+03</pdfrwt>
<pdfrwt beam="2">  1        2 0.20461749E+00 0.35092287E+03</pdfrwt>
<totfact> 0.59316028E+03</totfact>
</mgrwt>
</event>
<event>
 4    0  0.1426692E-001  0.2476558E+03  0.7546771E-02  0.1114795E+00
          2   -1    0    0  502    0 -0.00000000000E+00  0.00000000000E+00  0.93903081494E+03  0.93903081494E+03  0.00000000000E+00 0.  1.
         21   -1    0    0  501  502  0.00000000000E+00 -0.00000000000E+00 -0.16485196453E+03  0.16485196453E+03  0.00000000000E+00 0.  1.
         25    1    1    2    0    0  0.15409834252E+03 -0.14819617942E+03 -0.49805184352E+02  0.25261425762E+03  0.12500000000E+03 0.  0.
          2    1    1    2  501    0 -0.15409834252E+03  0.14819617942E+03  0.82398403476E+03  0.85126852185E+03  0.00000000000E+00 0.  1.
<mgrwt>
<rscale>  3 0.24765582E+03</rscale>
<asrwt>0</asrwt>
<pdfrwt beam="1">  1       21 0.25361841E-01 0.24765582E+03</pdfrwt>
<pdfrwt beam="2">  1        2 0.14446628E+00 0.24765582E+03</pdfrwt>
<totfact> 0.52631750E+03</totfact>
</mgrwt>
</event>
<event>
 4    0  0.1426692E-001  0.2487278E+03  0.7546771E-02  0.1114111E+00
         -2   -1    0    0    0  501 -0.00000000000E+00  0.00000000000E+00  0.46198490299E+03  0.46198490299E+03  0.00000000000E+00 0.  1.
         21   -1    0    0  501  502  0.00000000000E+00 -0.00000000000E+00 -0.21728812387E+03  0.21728812387E+03  0.00000000000E+00 0.  1.
         25    1    1    2    0    0  0.20402141868E+03 -0.67939546392E+02 -0.10400595345E+03  0.26959740280E+03  0.12500000000E+03 0.  0.
         -2    1    1    2    0  502 -0.20402141868E+03  0.67939546392E+02  0.34870273257E+03  0.40967562406E+03  0.00000000000E+00 0.  1.
<mgrwt>
<rscale>  3 0.24872781E+03</rscale>
<asrwt>0</asrwt>
<pdfrwt beam="1">  1       21 0.33428942E-01 0.24872781E+03</pdfrwt>
<pdfrwt beam="2">  1       -2 0.71074600E-01 0.24872781E+03</pdfrwt>
<totfact> 0.12782909E+03</totfact>
</mgrwt>
</event>
<event>
 4    0  0.1426692E-001  0.2952942E+03  0.7546771E-02  0.1087617E+00
         21   -1    0    0  501  502  0.00000000000E+00  0.00000000000E+00  0.59183037855E+02  0.59183037855E+02  0.00000000000E+00 0. -1.
          2   -1    0    0  502    0 -0.00000000000E+00 -0.00000000000E+00 -0.13999113138E+04  0.13999113138E+04  0.00000000000E+00 0.  1.
         25    1    1    2    0    0 -0.25486240058E+03 -0.81355989917E+02 -0.54886392702E+03  0.62325777228E+03  0.12500000000E+03 0.  0.
          2    1    1    2  501    0  0.25486240058E+03  0.81355989917E+02 -0.79186434895E+03  0.83583657940E+03  0.00000000000E+00 0.  1.
<mgrwt>
<rscale>  3 0.29529416E+03</rscale>
<asrwt>0</asrwt>
<pdfrwt beam="1">  1       21 0.91050829E-02 0.29529416E+03</pdfrwt>
<pdfrwt beam="2">  1        2 0.21537097E+00 0.29529416E+03</pdfrwt>
<totfact> 0.18523436E+04</totfact>
</mgrwt>
</event>
<event>
 4    0  0.1426692E-001  0.2472492E+03  0.7546771E-02  0.1115056E+00
          3   -1    0    0  502    0 -0.00000000000E+00  0.00000000000E+00  0.31388107143E+02  0.31388107143E+02  0.00000000000E+00 0.  1.
         21   -1    0    0  501  502  0.00000000000E+00 -0.00000000000E+00 -0.23241216833E+04  0.23241216833E+04  0.00000000000E+00 0. -1.
         25    1    1    2    0    0 -0.20228101230E+03  0.67746452658E+02 -0.18219455280E+04  0.18386456148E+04  0.12500000000E+03 0.  0.
          3    1    1    2  501    0  0.20228101230E+03 -0.67746452658E+02 -0.47078804814E+03  0.51686417563E+03  0.00000000000E+00 0.  1.
<mgrwt>
<rscale>  3 0.24724925E+03</rscale>
<asrwt>0</asrwt>
<pdfrwt beam="1">  1       21 0.35755707E+00 0.24724925E+03</pdfrwt>
<pdfrwt beam="2">  1        3 0.48289411E-02 0.24724925E+03</pdfrwt>
<totfact> 0.17915756E+02</totfact>
</mgrwt>
</event>
<event>
 4    0  0.1426692E-001  0.2510199E+03  0.7546771E-02  0.1112662E+00
         21   -1    0    0  501  502  0.00000000000E+00  0.00000000000E+00  0.58294465270E+03  0.58294465270E+03  0.00000000000E+00 0. -1.
         -3   -1    0    0    0  501 -0.00000000000E+00 -0.00000000000E+00 -0.12703718553E+03  0.12703718553E+03  0.00000000000E+00 0.  1.
         25    1    1    2    0    0 -0.19659848832E+03 -0.93461259155E+02  0.42008708274E+03  0.48937115736E+03  0.12500000000E+03 0.  0.
         -3    1    1    2    0  502  0.19659848832E+03  0.93461259155E+02  0.35820384434E+02  0.22061068087E+03  0.00000000000E+00 0.  1.
<mgrwt>
<rscale>  3 0.25101986E+03</rscale>
<asrwt>0</asrwt>
<pdfrwt beam="1">  1       21 0.89683791E-01 0.25101986E+03</pdfrwt>
<pdfrwt beam="2">  1       -3 0.19544183E-01 0.25101986E+03</pdfrwt>
<totfact> 0.12107789E+03</totfact>
</mgrwt>
</event>
<event>
 4    0  0.1426692E-001  0.4113614E+03  0.7546771E-02  0.1039915E+00
         21   -1    0    0  501  502  0.00000000000E+00  0.00000000000E+00  0.24640650426E+03  0.24640650426E+03  0.00000000000E+00 0.  1.
          1   -1    0    0  502    0 -0.00000000000E+00 -0.00000000000E+00 -0.16057986810E+04  0.16057986810E+04  0.00000000000E+00 0.  1.
         25    1    1    2    0    0 -0.30282497447E+03 -0.24877746068E+03  0.26257800050E+02  0.41219857128E+03  0.12500000000E+03 0.  0.
          1    1    1    2  501    0  0.30282497447E+03  0.24877746068E+03 -0.13856499768E+04  0.14400066140E+04  0.00000000000E+00 0.  1.
<mgrwt>
<rscale>  3 0.41136139E+03</rscale>
<asrwt>0</asrwt>
<pdfrwt beam="1">  1       21 0.37908694E-01 0.41136139E+03</pdfrwt>
<pdfrwt beam="2">  1        1 0.24704595E+00 0.41136139E+03</pdfrwt>
<totfact> 0.41787889E+02</totfact>
</mgrwt>
</event>
<event>
 4    0  0.1426692E-001  0.3302876E+03  0.7546771E-02  0.1071010E+00
         21   -1    0    0  501  502  0.00000000000E+00  0.00000000000E+00  0.45641433839E+02  0.45641433839E+02  0.00000000000E+00 0.  1.
          2   -1    0    0  502    0 -0.00000000000E+00 -0.00000000000E+00 -0.22166572436E+04  0.22166572436E+04  0.00000000000E+00 0.  1.
         25    1    1    2    0    0 -0.21095455341E+03 -0.22127607272E+03 -0.11512257243E+04  0.11976688157E+04  0.12500000000E+03 0.  0.
          2    1    1    2  501    0  0.21095455341E+03  0.22127607272E+03 -0.10197900855E+04  0.10646298618E+04  0.00000000000E+00 0.  1.
<mgrwt>
<rscale>  3 0.33028764E+03</rscale>
<asrwt>0</asrwt>
<pdfrwt beam="1">  1       21 0.70217598E-02 0.33028764E+03</pdfrwt>
<pdfrwt beam="2">  1        2 0.34102415E+00 0.33028764E+03</pdfrwt>
<totfact> 0.10654217E+04</totfact>
</mgrwt>
</event>
<event>
 4    0  0.1426692E-001  0.3346388E+03  0.7546771E-02  0.1069103E+00
         21   -1    0    0  501  502  0.00000000000E+00  0.00000000000E+00  0.36988669630E+03  0.36988669630E+03  0.00000000000E+00 0. -1.
          2   -1    0    0  502    0 -0.00000000000E+00 -0.00000000000E+00 -0.35213463954E+03  0.35213463954E+03  0.00000000000E+00 0.  1.
         25    1    1    2    0    0  0.14476350519E+02  0.31007826261E+03  0.17104441775E+03  0.37581815617E+03  0.12500000000E+03 0.  0.
          2    1    1    2  501    0 -0.14476350519E+02 -0.31007826261E+03 -0.15329236099E+03  0.34620317966E+03  0.00000000000E+00 0.  1.
<mgrwt>
<rscale>  3 0.33463875E+03</rscale>
<asrwt>0</asrwt>
<pdfrwt beam="1">  1       21 0.56905646E-01 0.33463875E+03</pdfrwt>
<pdfrwt beam="2">  1        2 0.54174560E-01 0.33463875E+03</pdfrwt>
<totfact> 0.31803937E+03</totfact>
</mgrwt>
</event>
<event>
 4    0  0.1426692E-001  0.2825778E+03  0.7546771E-02  0.1094289E+00
         -1   -1    0    0    0  501 -0.00000000000E+00  0.00000000000E+00  0.96304772516E+03  0.96304772516E+03  0.00000000000E+00 0.  1.
         21   -1    0    0  501  502  0.00000000000E+00 -0.00000000000E+00 -0.70025427019E+03  0.70025427019E+03  0.00000000000E+00 0.  1.
         25    1    1    2    0    0 -0.18671555891E+03 -0.17135498034E+03 -0.65383491167E+03  0.71228528059E+03  0.12500000000E+03 0.  0.
         -1    1    1    2    0  502  0.18671555891E+03  0.17135498034E+03  0.91662836664E+03  0.95101671477E+03  0.00000000000E+00 0.  1.
<mgrwt>
<rscale>  3 0.28257783E+03</rscale>
<asrwt>0</asrwt>
<pdfrwt beam="1">  1       21 0.10773143E+00 0.28257783E+03</pdfrwt>
<pdfrwt beam="2">  1       -1 0.14816119E+00 0.28257783E+03</pdfrwt>
<totfact> 0.23757415E+01</totfact>
</mgrwt>
</event>
<event>
 4    0  0.1426692E-001  0.2628699E+03  0.7546771E-02  0.1105431E+00
         21   -1    0    0  501  502  0.00000000000E+00  0.00000000000E+00  0.86958181521E+02  0.86958181521E+02  0.00000000000E+00 0. -1.
          1   -1    0    0  502    0 -0.00000000000E+00 -0.00000000000E+00 -0.22511178595E+04  0.22511178595E+04  0.00000000000E+00 0. -1.
         25    1    1    2    0    0  0.22664165247E+03  0.45925711991E+02 -0.13449198235E+03  0.29527733230E+03  0.12500000000E+03 0.  0.
          1    1    1    2  501    0 -0.22664165247E+03 -0.45925711991E+02 -0.20296676956E+04  0.20427987087E+04  0.00000000000E+00 0. -1.
<mgrwt>
<rscale>  3 0.26286995E+03</rscale>
<asrwt>0</asrwt>
<pdfrwt beam="1">  1       21 0.13378183E-01 0.26286995E+03</pdfrwt>
<pdfrwt beam="2">  1        1 0.34632579E+00 0.26286995E+03</pdfrwt>
<totfact> 0.12342095E+03</totfact>
</mgrwt>
</event>
