<event>
 5    0  0.1814147E+000  0.2693756E+03  0.7546771E-02  0.1101637E+00
         21   -1    0    0  502  501  0.00000000000E+00  0.00000000000E+00  0.13101679616E+04  0.13101679616E+04  0.00000000000E+00 0. -1.
         21   -1    0    0  503  502 -0.00000000000E+00 -0.00000000000E+00 -0.55184671274E+03  0.55184671274E+03  0.00000000000E+00 0.  1.
         25    1    1    2    0    0 -0.43514781393E+02 -0.23596414023E+03 -0.50011707173E+03  0.56860768295E+03  0.12500000000E+03 0.  0.
         21    1    1    2  503  504  0.94828528873E+01  0.47501044125E+02  0.49001952226E+02  0.68901850583E+02  0.00000000000E+00 0.  1.
         21    1    1    2  504  501  0.34031928506E+02  0.18846309610E+03  0.12094363684E+04  0.12245051409E+04  0.00000000000E+00 0. -1.
<mgrwt>
<rscale>  4 0.26937564E+03</rscale>
<asrwt>0</asrwt>
<pdfrwt beam="1">  1       21 0.20156430E+00 0.26937564E+03</pdfrwt>
<pdfrwt beam="2">  1       21 0.84899495E-01 0.26937564E+03</pdfrwt>
<totfact> 0.14406527E+02</totfact>
</mgrwt>
</event>
<event>
 5    0  0.1814147E+000  0.4548420E+03  0.7546771E-02  0.1026288E+00
         21   -1    0    0  503  501  0.00000000000E+00  0.00000000000E+00  0.10088410954E+04  0.10088410954E+04  0.00000000000E+00 0.  1.
         21   -1    0    0  504  502 -0.00000000000E+00 -0.00000000000E+00 -0.56408550423E+03  0.56408550423E+03  0.00000000000E+00 0.  1.
         25    1    1    2    0    0 -0.82670652535E+02 -0.43471853792E+03 -0.31636087856E+03  0.55814321593E+03  0.12500000000E+03 0.  0.
         21    1    1    2  503  502  0.12140019842E+03  0.40595197148E+03  0.23122596605E+03  0.48270121058E+03  0.00000000000E+00 0.  1.
         21    1    1    2  504  501 -0.38729545885E+02  0.28766566441E+02  0.52989050369E+03  0.53208217314E+03  0.00000000000E+00 0.  1.
<mgrwt>
<rscale>  4 0.45484200E+03</rscale>
<asrwt>0</asrwt>
<pdfrwt beam="1">  1       21 0.15520632E+00 0.45484200E+03</pdfrwt>
<pdfrwt beam="2">  1       21 0.86782385E-01 0.45484200E+03</pdfrwt>
<totfact> 0.25535989E+02</totfact>
</mgrwt>
</event>
<event>
 5    0  0.1814147E+000  0.2426498E+03  0.7546771E-02  0.1118040E+00
         21   -1    0    0  503  501  0.00000000000E+00  0.00000000000E+00  0.73863999709E+03  0.73863999709E+03  0.00000000000E+00 0.  1.
         21   -1    0    0  504  502 -0.00000000000E+00 -0.00000000000E+00 -0.31292591064E+03  0.31292591064E+03  0.00000000000E+00 0.  1.
         25    1    1    2    0    0  0.29467354029E+02 -0.21201103557E+03 -0.23182776809E+03  0.33939080455E+03  0.12500000000E+03 0.  0.
         21    1    1    2  503  502 -0.69088773306E+02  0.60603629503E+02  0.11335160631E+03  0.14592684866E+03  0.00000000000E+00 0.  1.
         21    1    1    2  504  501  0.39621419277E+02  0.15140740606E+03  0.54419024824E+03  0.56624825452E+03  0.00000000000E+00 0.  1.
<mgrwt>
<rscale>  4 0.24264983E+03</rscale>
<asrwt>0</asrwt>
<pdfrwt beam="1">  1       21 0.11363692E+00 0.24264983E+03</pdfrwt>
<pdfrwt beam="2">  1       21 0.48142448E-01 0.24264983E+03</pdfrwt>
<totfact> 0.23883947E+03</totfact>
</mgrwt>
</event>
<event>
 5    0  0.1814147E+000  0.2798914E+03  0.7546771E-02  0.1095748E+00
         21   -1    0    0  503  501  0.00000000000E+00  0.00000000000E+00  0.39519824868E+03  0.39519824868E+03  0.00000000000E+00 0. -1.
         21   -1    0    0  501  502 -0.00000000000E+00 -0.00000000000E+00 -0.28113246610E+03  0.28113246610E+03  0.00000000000E+00 0. -1.
         25    1    1    2    0    0  0.26355862485E+02 -0.23820735436E+03  0.12120099516E+02  0.27057211972E+03  0.12500000000E+03 0.  0.
         21    1    1    2  503  504 -0.12096159629E+02 -0.20462624197E+02  0.14168544222E+03  0.14366558601E+03  0.00000000000E+00 0.  1.
         21    1    1    2  504  502 -0.14259702856E+02  0.25866997856E+03 -0.39739759161E+02  0.26209300904E+03  0.00000000000E+00 0. -1.
<mgrwt>
<rscale>  4 0.27989142E+03</rscale>
<asrwt>0</asrwt>
<pdfrwt beam="1">  1       21 0.60799730E-01 0.27989142E+03</pdfrwt>
<pdfrwt beam="2">  1       21 0.43251149E-01 0.27989142E+03</pdfrwt>
<totfact> 0.12322271E+04</totfact>
</mgrwt>
</event>
<event>
 5    0  0.1814147E+000  0.2367993E+03  0.7546771E-02  0.1121944E+00
         21   -1    0    0  503  501  0.00000000000E+00  0.00000000000E+00  0.10429355997E+04  0.10429355997E+04  0.00000000000E+00 0.  1.
         21   -1    0    0  501  502 -0.00000000000E+00 -0.00000000000E+00 -0.38934996481E+03  0.38934996481E+03  0.00000000000E+00 0. -1.
         25    1    1    2    0    0  0.19153862571E+03 -0.61334050197E+02 -0.34025435673E+03  0.41454425352E+03  0.12500000000E+03 0.  0.
         21    1    1    2  503  504 -0.58394208622E+02  0.16516222256E+01  0.48146393765E+03  0.48499498422E+03  0.00000000000E+00 0.  1.
         21    1    1    2  504  502 -0.13314441709E+03  0.59682427971E+02  0.51237605392E+03  0.53274632673E+03  0.00000000000E+00 0.  1.
<mgrwt>
<rscale>  4 0.23679931E+03</rscale>
<asrwt>0</asrwt>
<pdfrwt beam="1">  1       21 0.16045163E+00 0.23679931E+03</pdfrwt>
<pdfrwt beam="2">  1       21 0.59899995E-01 0.23679931E+03</pdfrwt>
<totfact> 0.62062928E+02</totfact>
</mgrwt>
</event>
<event>
 5    0  0.1814147E+000  0.2810107E+03  0.7546771E-02  0.1095138E+00
         21   -1    0    0  503  501  0.00000000000E+00  0.00000000000E+00  0.24724444592E+03  0.24724444592E+03  0.00000000000E+00 0.  1.
         21   -1    0    0  501  502 -0.00000000000E+00 -0.00000000000E+00 -0.11152361298E+04  0.11152361298E+04  0.00000000000E+00 0.  1.
         25    1    1    2    0    0  0.18287400314E+03  0.18146454315E+03 -0.98109980408E+03  0.10220342984E+04  0.12500000000E+03 0.  0.
         21    1    1    2  503  504 -0.98446849800E+02  0.17913453647E+02  0.97880143325E+01  0.10054093336E+03  0.00000000000E+00 0.  1.
         21    1    1    2  504  502 -0.84427153336E+02 -0.19937799679E+03  0.10332010584E+03  0.23990534404E+03  0.00000000000E+00 0.  1.
<mgrwt>
<rscale>  4 0.28101066E+03</rscale>
<asrwt>0</asrwt>
<pdfrwt beam="1">  1       21 0.38037608E-01 0.28101066E+03</pdfrwt>
<pdfrwt beam="2">  1       21 0.17157479E+00 0.28101066E+03</pdfrwt>
<totfact> 0.12836488E+03</totfact>
</mgrwt>
</event>
<event>
 5    0  0.1814147E+000  0.2532798E+03  0.7546771E-02  0.1111249E+00
         21   -1    0    0  503  501  0.00000000000E+00  0.00000000000E+00  0.31976838740E+03  0.31976838740E+03  0.00000000000E+00 0.  1.
         21   -1    0    0  504  502 -0.00000000000E+00 -0.00000000000E+00 -0.44668408978E+03  0.44668408978E+03  0.00000000000E+00 0.  1.
         25    1    1    2    0    0  0.72579025813E+02 -0.20150234594E+03 -0.31707668038E+03  0.40253388882E+03  0.12500000000E+03 0.  0.
         21    1    1    2  503  502 -0.59871357599E+02  0.24076749203E+03  0.10523489170E+03  0.26949572745E+03  0.00000000000E+00 0.  1.
         21    1    1    2  504  501 -0.12707668214E+02 -0.39265146091E+02  0.84926086304E+02  0.94422860918E+02  0.00000000000E+00 0. -1.
<mgrwt>
<rscale>  4 0.25327975E+03</rscale>
<asrwt>0</asrwt>
<pdfrwt beam="1">  1       21 0.49195137E-01 0.25327975E+03</pdfrwt>
<pdfrwt beam="2">  1       21 0.68720629E-01 0.25327975E+03</pdfrwt>
<totfact> 0.73098586E+03</totfact>
</mgrwt>
</event>
<event>
 5    0  0.1814147E+000  0.2439108E+03  0.7546771E-02  0.1117215E+00
         21   -1    0    0  502  501  0.00000000000E+00  0.00000000000E+00  0.13460209658E+03  0.13460209658E+03  0.00000000000E+00 0. -1.
         21   -1    0    0  504  502 -0.00000000000E+00 -0.00000000000E+00 -0.42853604132E+03  0.42853604132E+03  0.00000000000E+00 0. -1.
         25    1    1    2    0    0 -0.12927382341E+03 -0.16135478834E+03 -0.15659577235E+03  0.28791374586E+03  0.12500000000E+03 0.  0.
         21    1    1    2  503  501  0.15155413205E+03  0.14864651858E+03 -0.11632368907E+03  0.24206536940E+03  0.00000000000E+00 0. -1.
         21    1    1    2  504  503 -0.22280308641E+02  0.12708269762E+02 -0.21014483324E+02  0.33159022646E+02  0.00000000000E+00 0. -1.
<mgrwt>
<rscale>  4 0.24391077E+03</rscale>
<asrwt>0</asrwt>
<pdfrwt beam="1">  1       21 0.20708015E-01 0.24391077E+03</pdfrwt>
<pdfrwt beam="2">  1       21 0.65928620E-01 0.24391077E+03</pdfrwt>
<totfact> 0.44622188E+04</totfact>
</mgrwt>
</event>
<event>
 5    0  0.1814147E+000  0.3110181E+03  0.7546771E-02  0.1079859E+00
         21   -1    0    0  502  501  0.00000000000E+00  0.00000000000E+00  0.15183440366E+03  0.15183440366E+03  0.00000000000E+00 0. -1.
         21   -1    0    0  504  502 -0.00000000000E+00 -0.00000000000E+00 -0.78879184051E+03  0.78879184051E+03  0.00000000000E+00 0. -1.
         25    1    1    2    0    0 -0.11768444519E+03 -0.25934074462E+03 -0.54276251015E+03  0.62555846480E+03  0.12500000000E+03 0.  0.
         21    1    1    2  503  501  0.12647892497E+03  0.21223637566E+03 -0.10052541252E+03  0.26673311788E+03  0.00000000000E+00 0. -1.
         21    1    1    2  504  503 -0.87944797756E+01  0.47104368965E+02  0.63304858294E+01  0.48334661486E+02  0.00000000000E+00 0. -1.
<mgrwt>
<rscale>  4 0.31101809E+03</rscale>
<asrwt>0</asrwt>
<pdfrwt beam="1">  1       21 0.23359139E-01 0.31101809E+03</pdfrwt>
<pdfrwt beam="2">  1       21 0.12135259E+00 0.31101809E+03</pdfrwt>
<totfact> 0.82489589E+03</totfact>
</mgrwt>
</event>
<event>
 5    0  0.1814147E+000  0.2997610E+03  0.7546771E-02  0.1085360E+00
         21   -1    0    0  503  501  0.00000000000E+00  0.00000000000E+00  0.14537077355E+03  0.14537077355E+03  0.00000000000E+00 0.  1.
         21   -1    0    0  504  502 -0.00000000000E+00 -0.00000000000E+00 -0.21146383131E+04  0.21146383131E+04  0.00000000000E+00 0.  1.
         25    1    1    2    0    0 -0.22217734201E+02 -0.30136262998E+03 -0.17363168735E+04  0.17668430456E+04  0.12500000000E+03 0.  0.
         21    1    1    2  503  502 -0.46624651643E+02  0.20722409691E+03 -0.29307822401E+03  0.36195376759E+03  0.00000000000E+00 0.  1.
         21    1    1    2  504  501  0.68842385844E+02  0.94138533071E+02  0.60127557936E+02  0.13121227351E+03  0.00000000000E+00 0.  1.
<mgrwt>
<rscale>  4 0.29976103E+03</rscale>
<asrwt>0</asrwt>
<pdfrwt beam="1">  1       21 0.22364737E-01 0.29976103E+03</pdfrwt>
<pdfrwt beam="2">  1       21 0.32532894E+00 0.29976103E+03</pdfrwt>
<totfact> 0.40130027E+02</totfact>
</mgrwt>
</event>
<event>
 5    0  0.1814147E+000  0.4699378E+03  0.7546771E-02  0.1021938E+00
         21   -1    0    0  503  501  0.00000000000E+00  0.00000000000E+00  0.14859001929E+04  0.14859001929E+04  0.00000000000E+00 0. -1.
         21   -1    0    0  504  502 -0.00000000000E+00 -0.00000000000E+00 -0.45214254812E+03  0.45214254812E+03  0.00000000000E+00 0.  1.
         25    1    1    2    0    0  0.21090188180E+03 -0.40038904095E+03 -0.26246814786E+03  0.53787128247E+03  0.12500000000E+03 0.  0.
         21    1    1    2  503  502 -0.16483816227E+03  0.42975032906E+03  0.12357017421E+04  0.13186416346E+04  0.00000000000E+00 0. -1.
         21    1    1    2  504  501 -0.46063719529E+02 -0.29361288109E+02  0.60524050485E+02  0.81529823889E+02  0.00000000000E+00 0. -1.
<mgrwt>
<rscale>  4 0.46993780E+03</rscale>
<asrwt>0</asrwt>
<pdfrwt beam="1">  1       21 0.22860003E+00 0.46993780E+03</pdfrwt>
<pdfrwt beam="2">  1       21 0.69560392E-01 0.46993780E+03</pdfrwt>
<totfact> 0.13171034E+02</totfact>
</mgrwt>
</event>
<event>
 5    0  0.1814147E+000  0.2558379E+03  0.7546771E-02  0.1109670E+00
         21   -1    0    0  503  501  0.00000000000E+00  0.00000000000E+00  0.18220658391E+03  0.18220658391E+03  0.00000000000E+00 0.  1.
         21   -1    0    0  504  502 -0.00000000000E+00 -0.00000000000E+00 -0.46395829911E+03  0.46395829911E+03  0.00000000000E+00 0.  1.
         25    1    1    2    0    0  0.16436145593E+03  0.12663726499E+03 -0.18608628467E+02  0.24294642646E+03  0.12500000000E+03 0.  0.
         21    1    1    2  503  502 -0.20300568226E+03 -0.15277365885E+03 -0.19336956579E+03  0.31928496182E+03  0.00000000000E+00 0.  1.
         21    1    1    2  504  501  0.38644226331E+02  0.26136393863E+02 -0.69773520942E+02  0.83933494729E+02  0.00000000000E+00 0. -1.
<mgrwt>
<rscale>  4 0.25583794E+03</rscale>
<asrwt>0</asrwt>
<pdfrwt beam="1">  1       21 0.28031783E-01 0.25583794E+03</pdfrwt>
<pdfrwt beam="2">  1       21 0.71378198E-01 0.25583794E+03</pdfrwt>
<totfact> 0.20854945E+04</totfact>
</mgrwt>
</event>
<event>
 5    0  0.1814147E+000  0.2363808E+03  0.7546771E-02  0.1122228E+00
         21   -1    0    0  503  501  0.00000000000E+00  0.00000000000E+00  0.25422024432E+03  0.25422024432E+03  0.00000000000E+00 0. -1.
         21   -1    0    0  501  502 -0.00000000000E+00 -0.00000000000E+00 -0.59697202102E+03  0.59697202102E+03  0.00000000000E+00 0. -1.
         25    1    1    2    0    0 -0.16484206894E+03  0.13136809638E+03 -0.30881127392E+03  0.39423329050E+03  0.12500000000E+03 0.  0.
         21    1    1    2  503  504  0.91021478517E+02  0.59502852221E+02  0.14764058503E+03  0.18336641274E+03  0.00000000000E+00 0. -1.
         21    1    1    2  504  502  0.73820590424E+02 -0.19087094860E+03 -0.18158108781E+03  0.27359256210E+03  0.00000000000E+00 0. -1.
<mgrwt>
<rscale>  4 0.23638080E+03</rscale>
<asrwt>0</asrwt>
<pdfrwt beam="1">  1       21 0.39110807E-01 0.23638080E+03</pdfrwt>
<pdfrwt beam="2">  1       21 0.91841849E-01 0.23638080E+03</pdfrwt>
<totfact> 0.61249224E+03</totfact>
</mgrwt>
</event>
<event>
 5    0  0.1814147E+000  0.2473647E+03  0.7546771E-02  0.1114982E+00
         21   -1    0    0  503  501  0.00000000000E+00  0.00000000000E+00  0.14819144667E+03  0.14819144667E+03  0.00000000000E+00 0. -1.
         21   -1    0    0  501  502 -0.00000000000E+00 -0.00000000000E+00 -0.14794433010E+04  0.14794433010E+04  0.00000000000E+00 0. -1.
         25    1    1    2    0    0  0.21837082888E+03  0.50864525213E+02 -0.12705365775E+04  0.12962103277E+04  0.12500000000E+03 0.  0.
         21    1    1    2  503  504 -0.37858595577E+02 -0.97975766142E+02  0.48018073207E+02  0.11549138221E+03  0.00000000000E+00 0. -1.
         21    1    1    2  504  502 -0.18051223330E+03  0.47111240928E+02 -0.10873335002E+03  0.21593303776E+03  0.00000000000E+00 0. -1.
<mgrwt>
<rscale>  4 0.24736474E+03</rscale>
<asrwt>0</asrwt>
<pdfrwt beam="1">  1       21 0.22798684E-01 0.24736474E+03</pdfrwt>
<pdfrwt beam="2">  1       21 0.22760666E+00 0.24736474E+03</pdfrwt>
<totfact> 0.15441293E+03</totfact>
</mgrwt>
</event>
<event>
 5    0  0.1814147E+000  0.3876448E+03  0.7546771E-02  0.1048144E+00
         21   -1    0    0  503  501  0.00000000000E+00  0.00000000000E+00  0.14554209042E+04  0.14554209042E+04  0.00000000000E+00 0. -1.
         21   -1    0    0  504  502 -0.00000000000E+00 -0.00000000000E+00 -0.25574502013E+03  0.25574502013E+03  0.00000000000E+00 0. -1.
         25    1    1    2    0    0  0.33062596383E+03 -0.15540472144E+03 -0.20310960667E+02  0.38665448468E+03  0.12500000000E+03 0.  0.
         21    1    1    2  503  502 -0.34587000830E+03  0.14030384529E+03  0.61677383292E+03  0.72091691104E+03  0.00000000000E+00 0. -1.
         21    1    1    2  504  501  0.15244044473E+02  0.15100876144E+02  0.60321301186E+03  0.60359452866E+03  0.00000000000E+00 0. -1.
<mgrwt>
<rscale>  4 0.38764480E+03</rscale>
<asrwt>0</asrwt>
<pdfrwt beam="1">  1       21 0.22391090E+00 0.38764480E+03</pdfrwt>
<pdfrwt beam="2">  1       21 0.39345389E-01 0.38764480E+03</pdfrwt>
<totfact> 0.50145109E+02</totfact>
</mgrwt>
</event>
<event>
 5    0  0.1814147E+000  0.3503755E+03  0.7546771E-02  0.1062461E+00
         21   -1    0    0  503  501  0.00000000000E+00  0.00000000000E+00  0.16519266501E+03  0.16519266501E+03  0.00000000000E+00 0.  1.
         21   -1    0    0  504  502 -0.00000000000E+00 -0.00000000000E+00 -0.16200697582E+04  0.16200697582E+04  0.00000000000E+00 0. -1.
         25    1    1    2    0    0 -0.23936485386E+03  0.15034041748E+03 -0.30064225433E+03  0.43117112552E+03  0.12500000000E+03 0.  0.
         21    1    1    2  503  502  0.32340203899E+03 -0.12179282876E+03 -0.12038103765E+04  0.12524303551E+04  0.00000000000E+00 0. -1.
         21    1    1    2  504  501 -0.84037185127E+02 -0.28547588718E+02  0.49575537632E+02  0.10166094254E+03  0.00000000000E+00 0.  1.
<mgrwt>
<rscale>  4 0.35037549E+03</rscale>
<asrwt>0</asrwt>
<pdfrwt beam="1">  1       21 0.25414256E-01 0.35037549E+03</pdfrwt>
<pdfrwt beam="2">  1       21 0.24924151E+00 0.35037549E+03</pdfrwt>
<totfact> 0.85479334E+02</totfact>
</mgrwt>
</event>
<event>
 5    0  0.1814147E+000  0.3181158E+03  0.7546771E-02  0.1076520E+00
         21   -1    0    0  502  501  0.00000000000E+00  0.00000000000E+00  0.12444752807E+03  0.12444752807E+03  0.00000000000E+00 0. -1.
         21   -1    0    0  503  502 -0.00000000000E+00 -0.00000000000E+00 -0.94990860568E+03  0.94990860568E+03  0.00000000000E+00 0. -1.
         25    1    1    2    0    0 -0.88946677999E+02 -0.27867747616E+03 -0.66654804081E+03  0.73856884442E+03  0.12500000000E+03 0.  0.
         21    1    1    2  503  504 -0.33256658064E+01  0.36180550534E+02 -0.20498427345E+02  0.41716637132E+02  0.00000000000E+00 0. -1.
         21    1    1    2  504  501  0.92272343806E+02  0.24249692563E+03 -0.13841460945E+03  0.29407065219E+03  0.00000000000E+00 0. -1.
<mgrwt>
<rscale>  4 0.31811578E+03</rscale>
<asrwt>0</asrwt>
<pdfrwt beam="1">  1       21 0.19145773E-01 0.31811578E+03</pdfrwt>
<pdfrwt beam="2">  1       21 0.14613979E+00 0.31811578E+03</pdfrwt>
<totfact> 0.74145287E+03</totfact>
</mgrwt>
</event>
<event>
 5    0  0.1814147E+000  0.3503878E+03  0.7546771E-02  0.1062456E+00
         21   -1    0    0  502  501  0.00000000000E+00  0.00000000000E+00  0.11198380896E+04  0.11198380896E+04  0.00000000000E+00 0. -1.
         21   -1    0    0  504  502 -0.00000000000E+00 -0.00000000000E+00 -0.10634170194E+03  0.10634170194E+03  0.00000000000E+00 0. -1.
         25    1    1    2    0    0 -0.29009548736E+03 -0.15162846382E+03  0.48893780265E+03  0.60152452792E+03  0.12500000000E+03 0.  0.
         21    1    1    2  503  501  0.25209277799E+03  0.10734678352E+03  0.37760538831E+03  0.46654038403E+03  0.00000000000E+00 0. -1.
         21    1    1    2  504  503  0.38002709367E+02  0.44281680303E+02  0.14695319675E+03  0.15811487965E+03  0.00000000000E+00 0.  1.
<mgrwt>
<rscale>  4 0.35038776E+03</rscale>
<asrwt>0</asrwt>
<pdfrwt beam="1">  1       21 0.17228278E+00 0.35038776E+03</pdfrwt>
<pdfrwt beam="2">  1       21 0.16360263E-01 0.35038776E+03</pdfrwt>
<totfact> 0.62349887E+03</totfact>
</mgrwt>
</event>
<event>
 5    0  0.1814147E+000  0.2657445E+03  0.7546771E-02  0.1103740E+00
         21   -1    0    0  503  501  0.00000000000E+00  0.00000000000E+00  0.75928757174E+03  0.75928757174E+03  0.00000000000E+00 0. -1.
         21   -1    0    0  504  502 -0.00000000000E+00 -0.00000000000E+00 -0.17296995505E+03  0.17296995505E+03  0.00000000000E+00 0. -1.
         25    1    1    2    0    0  0.61745165784E+02 -0.21198406807E+03  0.91419360257E+02  0.26968909886E+03  0.12500000000E+03 0.  0.
         21    1    1    2  503  502 -0.39171332692E+02  0.24669323490E+03  0.10578871342E+03  0.27126222984E+03  0.00000000000E+00 0. -1.
         21    1    1    2  504  501 -0.22573833092E+02 -0.34709166833E+02  0.38910954301E+03  0.39130619809E+03  0.00000000000E+00 0. -1.
<mgrwt>
<rscale>  4 0.26574449E+03</rscale>
<asrwt>0</asrwt>
<pdfrwt beam="1">  1       21 0.11681347E+00 0.26574449E+03</pdfrwt>
<pdfrwt beam="2">  1       21 0.26610763E-01 0.26574449E+03</pdfrwt>
<totfact> 0.72254892E+03</totfact>
</mgrwt>
</event>
<event>
 5    0  0.1814147E+000  0.3360586E+03  0.7546771E-02  0.1068487E+00
         21   -1    0    0  502  501  0.00000000000E+00  0.00000000000E+00  0.88913988636E+03  0.88913988636E+03  0.00000000000E+00 0.  1.
         21   -1    0    0  504  502 -0.00000000000E+00 -0.00000000000E+00 -0.13759298850E+03  0.13759298850E+03  0.00000000000E+00 0.  1.
         25    1    1    2    0    0 -0.27033613400E+02  0.32549414105E+03  0.44252291960E+03  0.56402906528E+03  0.12500000000E+03 0.  0.
         21    1    1    2  503  501  0.14233728767E+02 -0.30272558650E+03  0.23287317969E+03  0.38219798217E+03  0.00000000000E+00 0.  1.
         21    1    1    2  504  503  0.12799884633E+02 -0.22768554547E+02  0.76150798572E+02  0.80505827404E+02  0.00000000000E+00 0.  1.
<mgrwt>
<rscale>  4 0.33605861E+03</rscale>
<asrwt>0</asrwt>
<pdfrwt beam="1">  1       21 0.13679075E+00 0.33605861E+03</pdfrwt>
<pdfrwt beam="2">  1       21 0.21168153E-01 0.33605861E+03</pdfrwt>
<totfact> 0.72400076E+03</totfact>
</mgrwt>
</event>
<event>
 5    0  0.1814147E+000  0.2582702E+03  0.7546771E-02  0.1108187E+00
         21   -1    0    0  502  501  0.00000000000E+00  0.00000000000E+00  0.51870157860E+02  0.51870157860E+02  0.00000000000E+00 0.  1.
         21   -1    0    0  504  502 -0.00000000000E+00 -0.00000000000E+00 -0.16666306487E+04  0.16666306487E+04  0.00000000000E+00 0.  1.
         25    1    1    2    0    0  0.16432278251E+03 -0.15532211074E+03 -0.12509035570E+04  0.12773064017E+04  0.12500000000E+03 0.  0.
         21    1    1    2  503  501 -0.14856401619E+03  0.17098646964E+03 -0.32034261997E+03  0.39233535894E+03  0.00000000000E+00 0.  1.
         21    1    1    2  504  503 -0.15758766320E+02 -0.15664358900E+02 -0.43514313888E+02  0.48859045926E+02  0.00000000000E+00 0.  1.
<mgrwt>
<rscale>  4 0.25827019E+03</rscale>
<asrwt>0</asrwt>
<pdfrwt beam="1">  1       21 0.79800247E-02 0.25827019E+03</pdfrwt>
<pdfrwt beam="2">  1       21 0.25640470E+00 0.25827019E+03</pdfrwt>
<totfact> 0.69358672E+03</totfact>
</mgrwt>
</event>
<event>
 5    0  0.1814147E+000  0.2684567E+03  0.7546771E-02  0.1102166E+00
         21   -1    0    0  502  501  0.00000000000E+00  0.00000000000E+00  0.59254358448E+03  0.59254358448E+03  0.00000000000E+00 0. -1.
         21   -1    0    0  504  502 -0.00000000000E+00 -0.00000000000E+00 -0.11528136775E+03  0.11528136775E+03  0.00000000000E+00 0. -1.
         25    1    1    2    0    0  0.17396503610E+03 -0.16180289644E+03  0.21437174308E+03  0.34354658390E+03  0.12500000000E+03 0.  0.
         21    1    1    2  503  501 -0.11723688083E+03  0.14763743698E+03  0.16640758111E+03  0.25146129340E+03  0.00000000000E+00 0. -1.
         21    1    1    2  504  503 -0.56728155271E+02  0.14165459454E+02  0.96482892536E+02  0.11281707492E+03  0.00000000000E+00 0. -1.
<mgrwt>
<rscale>  4 0.26845672E+03</rscale>
<asrwt>0</asrwt>
<pdfrwt beam="1">  1       21 0.91160549E-01 0.26845672E+03</pdfrwt>
<pdfrwt beam="2">  1       21 0.17735595E-01 0.26845672E+03</pdfrwt>
<totfact> 0.28328146E+04</totfact>
</mgrwt>
</event>
<event>
 5    0  0.1814147E+000  0.2647009E+03  0.7546771E-02  0.1104351E+00
         21   -1    0    0  503  501  0.00000000000E+00  0.00000000000E+00  0.99985753079E+02  0.99985753079E+02  0.00000000000E+00 0.  1.
         21   -1    0    0  501  502 -0.00000000000E+00 -0.00000000000E+00 -0.97255629738E+03  0.97255629738E+03  0.00000000000E+00 0.  1.
         25    1    1    2    0    0  0.12210802657E+03 -0.18997436780E+03 -0.60099124709E+03  0.65407653195E+03  0.12500000000E+03 0.  0.
         21    1    1    2  503  504 -0.43575982359E+01 -0.26438247780E+02  0.22381667619E+02  0.34912872317E+02  0.00000000000E+00 0.  1.
         21    1    1    2  504  502 -0.11775042833E+03  0.21641261558E+03 -0.29396096484E+03  0.38355264619E+03  0.00000000000E+00 0.  1.
<mgrwt>
<rscale>  4 0.26470085E+03</rscale>
<asrwt>0</asrwt>
<pdfrwt beam="1">  1       21 0.15382424E-01 0.26470085E+03</pdfrwt>
<pdfrwt beam="2">  1       21 0.14962405E+00 0.26470085E+03</pdfrwt>
<totfact> 0.10754372E+04</totfact>
</mgrwt>
</event>
<event>
 5    0  0.1814147E+000  0.3371354E+03  0.7546771E-02  0.1068023E+00
         21   -1    0    0  503  501  0.00000000000E+00  0.00000000000E+00  0.18645631816E+03  0.18645631816E+03  0.00000000000E+00 0. -1.
         21   -1    0    0  501  502 -0.00000000000E+00 -0.00000000000E+00 -0.72764322955E+03  0.72764322955E+03  0.00000000000E+00 0.  1.
         25    1    1    2    0    0 -0.15233996764E+03  0.26144876559E+03 -0.37513234105E+03  0.49790781885E+03  0.12500000000E+03 0.  0.
         21    1    1    2  503  504 -0.47002435675E+02  0.60107791648E+01 -0.29028185555E+02  0.55569721811E+02  0.00000000000E+00 0. -1.
         21    1    1    2  504  502  0.19934240332E+03 -0.26745954476E+03 -0.13702638479E+03  0.36062200705E+03  0.00000000000E+00 0. -1.
<mgrwt>
<rscale>  4 0.33713538E+03</rscale>
<asrwt>0</asrwt>
<pdfrwt beam="1">  1       21 0.28685587E-01 0.33713538E+03</pdfrwt>
<pdfrwt beam="2">  1       21 0.11194511E+00 0.33713538E+03</pdfrwt>
<totfact> 0.66904842E+03</totfact>
</mgrwt>
</event>
<event>
 5    0  0.1814147E+000  0.2377570E+03  0.7546771E-02  0.1121296E+00
         21   -1    0    0  503  501  0.00000000000E+00  0.00000000000E+00  0.66474087663E+02  0.66474087663E+02  0.00000000000E+00 0. -1.
         21   -1    0    0  504  502 -0.00000000000E+00 -0.00000000000E+00 -0.96659858378E+03  0.96659858378E+03  0.00000000000E+00 0. -1.
         25    1    1    2    0    0 -0.97386315771E+02 -0.18866365497E+03 -0.64093463546E+03  0.68665877708E+03  0.12500000000E+03 0.  0.
         21    1    1    2  503  502  0.11033222764E+03  0.16549626822E+03 -0.20263754474E+03  0.28394399059E+03  0.00000000000E+00 0. -1.
         21    1    1    2  504  501 -0.12945911866E+02  0.23167386755E+02 -0.56552315920E+02  0.62469903786E+02  0.00000000000E+00 0.  1.
<mgrwt>
<rscale>  4 0.23775699E+03</rscale>
<asrwt>0</asrwt>
<pdfrwt beam="1">  1       21 0.10226783E-01 0.23775699E+03</pdfrwt>
<pdfrwt beam="2">  1       21 0.14870747E+00 0.23775699E+03</pdfrwt>
<totfact> 0.23199377E+04</totfact>
</mgrwt>
</event>
<event>
 5    0  0.1814147E+000  0.3456409E+03  0.7546771E-02  0.1064419E+00
         21   -1    0    0  503  501  0.00000000000E+00  0.00000000000E+00  0.13941051895E+04  0.13941051895E+04  0.00000000000E+00 0. -1.
         21   -1    0    0  501  502 -0.00000000000E+00 -0.00000000000E+00 -0.17717749872E+03  0.17717749872E+03  0.00000000000E+00 0. -1.
         25    1    1    2    0    0 -0.17386476291E+03  0.26413431861E+03  0.81675023820E+02  0.34970230706E+03  0.12500000000E+03 0.  0.
         21    1    1    2  503  504 -0.36135314813E+01  0.27554459475E+02  0.49667368430E+03  0.49745055486E+03  0.00000000000E+00 0. -1.
         21    1    1    2  504  502  0.17747829439E+03 -0.29168877809E+03  0.63857898268E+03  0.72412982632E+03  0.00000000000E+00 0. -1.
<mgrwt>
<rscale>  4 0.34564087E+03</rscale>
<asrwt>0</asrwt>
<pdfrwt beam="1">  1       21 0.21447771E+00 0.34564087E+03</pdfrwt>
<pdfrwt beam="2">  1       21 0.27258078E-01 0.34564087E+03</pdfrwt>
<totfact> 0.12298494E+03</totfact>
</mgrwt>
</event>
<event>
 5    0  0.1814147E+000  0.2899893E+03  0.7546771E-02  0.1090355E+00
         21   -1    0    0  503  501  0.00000000000E+00  0.00000000000E+00  0.48956765427E+03  0.48956765427E+03  0.00000000000E+00 0.  1.
         21   -1    0    0  504  502 -0.00000000000E+00 -0.00000000000E+00 -0.56769386588E+03  0.56769386588E+03  0.00000000000E+00 0. -1.
         25    1    1    2    0    0  0.14354930132E+03  0.28754058889E+03 -0.58739136719E+02  0.34980177008E+03  0.12500000000E+03 0.  0.
         21    1    1    2  503  502 -0.11362117675E+03 -0.21656931216E+03 -0.31680976634E+03  0.40022551996E+03  0.00000000000E+00 0. -1.
         21    1    1    2  504  501 -0.29928124571E+02 -0.70971276737E+02  0.29742269146E+03  0.30723423012E+03  0.00000000000E+00 0.  1.
<mgrwt>
<rscale>  4 0.28998932E+03</rscale>
<asrwt>0</asrwt>
<pdfrwt beam="1">  1       21 0.75318101E-01 0.28998932E+03</pdfrwt>
<pdfrwt beam="2">  1       21 0.87337518E-01 0.28998932E+03</pdfrwt>
<totfact> 0.16457735E+03</totfact>
</mgrwt>
</event>
<event>
 5    0  0.1814147E+000  0.4232030E+03  0.7546771E-02  0.1036029E+00
         21   -1    0    0  503  501  0.00000000000E+00  0.00000000000E+00  0.47937421616E+03  0.47937421616E+03  0.00000000000E+00 0.  1.
         21   -1    0    0  504  502 -0.00000000000E+00 -0.00000000000E+00 -0.98770777716E+03  0.98770777716E+03  0.00000000000E+00 0. -1.
         25    1    1    2    0    0  0.16979321637E+03  0.35207329871E+03 -0.43611588141E+03  0.59883838054E+03  0.12500000000E+03 0.  0.
         21    1    1    2  503  502 -0.19242608823E+03 -0.37323002355E+03 -0.37553827900E+03  0.56334487563E+03  0.00000000000E+00 0. -1.
         21    1    1    2  504  501  0.22632871852E+02  0.21156724835E+02  0.30332059940E+03  0.30489873715E+03  0.00000000000E+00 0.  1.
<mgrwt>
<rscale>  4 0.42320300E+03</rscale>
<asrwt>0</asrwt>
<pdfrwt beam="1">  1       21 0.73749881E-01 0.42320300E+03</pdfrwt>
<pdfrwt beam="2">  1       21 0.15195504E+00 0.42320300E+03</pdfrwt>
<totfact> 0.40028284E+02</totfact>
</mgrwt>
</event>
<event>
 5    0  0.1814147E+000  0.3117945E+03  0.7546771E-02  0.1079489E+00
         21   -1    0    0  503  501  0.00000000000E+00  0.00000000000E+00  0.95230228912E+03  0.95230228912E+03  0.00000000000E+00 0. -1.
         21   -1    0    0  504  502 -0.00000000000E+00 -0.00000000000E+00 -0.81722276981E+03  0.81722276981E+03  0.00000000000E+00 0. -1.
         25    1    1    2    0    0  0.65110293979E+02 -0.28645637080E+03 -0.57313961672E+03  0.65605687483E+03  0.12500000000E+03 0.  0.
         21    1    1    2  503  502 -0.37443119308E+00  0.27232875177E+03 -0.10917140879E+03  0.29339646511E+03  0.00000000000E+00 0. -1.
         21    1    1    2  504  501 -0.64735862786E+02  0.14127619028E+02  0.81739054482E+03  0.82007171900E+03  0.00000000000E+00 0. -1.
<mgrwt>
<rscale>  4 0.31179448E+03</rscale>
<asrwt>0</asrwt>
<pdfrwt beam="1">  1       21 0.14650804E+00 0.31179448E+03</pdfrwt>
<pdfrwt beam="2">  1       21 0.12572658E+00 0.31179448E+03</pdfrwt>
<totfact> 0.13204754E+02</totfact>
</mgrwt>
</event>
<event>
 5    0  0.2285721E+000  0.2642759E+03  0.7546771E-02  0.1104601E+00
         21   -1    0    0  503  501  0.00000000000E+00  0.00000000000E+00  0.93115270134E+03  0.93115270134E+03  0.00000000000E+00 0.  1.
         21   -1    0    0  504  502 -0.00000000000E+00 -0.00000000000E+00 -0.68606652599E+03  0.68606652599E+03  0.00000000000E+00 0. -1.
         25    1    1    2    0    0  0.22153040160E+03  0.26423437581E+03  0.19009253172E+03  0.41310494406E+03  0.12500000000E+03 0.  0.
         21    1    1    2  503  502 -0.18244243806E+03 -0.13207742815E+03 -0.54436211510E+03  0.58911781724E+03  0.00000000000E+00 0. -1.
         21    1    1    2  504  501 -0.39087963542E+02 -0.13215694766E+03  0.59935575873E+03  0.61499646603E+03  0.00000000000E+00 0.  1.
<mgrwt>
<rscale>  4 0.26427594E+03</rscale>
<asrwt>0</asrwt>
<pdfrwt beam="1">  1       21 0.14325426E+00 0.26427594E+03</pdfrwt>
<pdfrwt beam="2">  1       21 0.10554870E+00 0.26427594E+03</pdfrwt>
<totfact> 0.22523729E+02</totfact>
</mgrwt>
</event>
<event>
 5    0  0.1814147E+000  0.3153513E+03  0.7546771E-02  0.1077809E+00
         21   -1    0    0  503  501  0.00000000000E+00  0.00000000000E+00  0.44185855583E+03  0.44185855583E+03  0.00000000000E+00 0.  1.
         21   -1    0    0  504  502 -0.00000000000E+00 -0.00000000000E+00 -0.14241259154E+04  0.14241259154E+04  0.00000000000E+00 0.  1.
         25    1    1    2    0    0 -0.15313433329E+03  0.22640080322E+03 -0.11054404294E+04  0.11455701597E+04  0.12500000000E+03 0.  0.
         21    1    1    2  503  502  0.20501047296E+03 -0.41139211343E+03 -0.49232956492E+02  0.46227334881E+03  0.00000000000E+00 0.  1.
         21    1    1    2  504  501 -0.51876139678E+02  0.18499131021E+03  0.17240602635E+03  0.25814096274E+03  0.00000000000E+00 0.  1.
<mgrwt>
<rscale>  4 0.31535133E+03</rscale>
<asrwt>0</asrwt>
<pdfrwt beam="1">  1       21 0.67978238E-01 0.31535133E+03</pdfrwt>
<pdfrwt beam="2">  1       21 0.21909630E+00 0.31535133E+03</pdfrwt>
<totfact> 0.17660082E+02</totfact>
</mgrwt>
</event>
<event>
 5    0  0.1814147E+000  0.2306805E+03  0.7546771E-02  0.1126162E+00
         21   -1    0    0  503  501  0.00000000000E+00  0.00000000000E+00  0.38843536964E+03  0.38843536964E+03  0.00000000000E+00 0.  1.
         21   -1    0    0  504  502 -0.00000000000E+00 -0.00000000000E+00 -0.37604815976E+03  0.37604815976E+03  0.00000000000E+00 0.  1.
         25    1    1    2    0    0  0.19493148657E+03  0.83541719972E+02 -0.12508935204E+03  0.27613375278E+03  0.12500000000E+03 0.  0.
         21    1    1    2  503  502 -0.19283408597E+03  0.81631937112E+02 -0.72130193824E+02  0.22147578362E+03  0.00000000000E+00 0.  1.
         21    1    1    2  504  501 -0.20974005942E+01 -0.16517365708E+03  0.20960675575E+03  0.26687399300E+03  0.00000000000E+00 0.  1.
<mgrwt>
<rscale>  4 0.23068046E+03</rscale>
<asrwt>0</asrwt>
<pdfrwt beam="1">  1       21 0.59759288E-01 0.23068046E+03</pdfrwt>
<pdfrwt beam="2">  1       21 0.57853563E-01 0.23068046E+03</pdfrwt>
<totfact> 0.71317412E+03</totfact>
</mgrwt>
</event>
<event>
 5    0  0.1814147E+000  0.2756894E+03  0.7546771E-02  0.1098067E+00
         21   -1    0    0  503  501  0.00000000000E+00  0.00000000000E+00  0.92651359303E+03  0.92651359303E+03  0.00000000000E+00 0.  1.
         21   -1    0    0  504  502 -0.00000000000E+00 -0.00000000000E+00 -0.13568172822E+03  0.13568172822E+03  0.00000000000E+00 0. -1.
         25    1    1    2    0    0  0.38691478714E+02  0.21552168292E+03  0.14095564185E+03  0.28886003411E+03  0.12500000000E+03 0.  0.
         21    1    1    2  503  502 -0.68117255097E+02 -0.31003706165E+03  0.53092507086E+03  0.61858254979E+03  0.00000000000E+00 0.  1.
         21    1    1    2  504  501  0.29425776384E+02  0.94515378732E+02  0.11895115209E+03  0.15475273735E+03  0.00000000000E+00 0.  1.
<mgrwt>
<rscale>  4 0.27568939E+03</rscale>
<asrwt>0</asrwt>
<pdfrwt beam="1">  1       21 0.14254055E+00 0.27568939E+03</pdfrwt>
<pdfrwt beam="2">  1       21 0.20874113E-01 0.27568939E+03</pdfrwt>
<totfact> 0.68793041E+03</totfact>
</mgrwt>
</event>
<event>
 5    0  0.1814147E+000  0.3571576E+03  0.7546771E-02  0.1059715E+00
         21   -1    0    0  503  501  0.00000000000E+00  0.00000000000E+00  0.43901982911E+03  0.43901982911E+03  0.00000000000E+00 0.  1.
         21   -1    0    0  501  502 -0.00000000000E+00 -0.00000000000E+00 -0.11881166845E+04  0.11881166845E+04  0.00000000000E+00 0.  1.
         25    1    1    2    0    0  0.10551596581E+03  0.31503042235E+03 -0.10328592020E+04  0.10921542552E+04  0.12500000000E+03 0.  0.
         21    1    1    2  503  504  0.32054826664E+02  0.12869912730E+02  0.15182414384E+03  0.15570394092E+03  0.00000000000E+00 0. -1.
         21    1    1    2  504  502 -0.13757079248E+03 -0.32790033508E+03  0.13193820283E+03  0.37927831741E+03  0.00000000000E+00 0.  1.
<mgrwt>
<rscale>  4 0.35715755E+03</rscale>
<asrwt>0</asrwt>
<pdfrwt beam="1">  1       21 0.67541511E-01 0.35715755E+03</pdfrwt>
<pdfrwt beam="2">  1       21 0.18278719E+00 0.35715755E+03</pdfrwt>
<totfact> 0.30123500E+02</totfact>
</mgrwt>
</event>
<event>
 5    0  0.1814147E+000  0.2565298E+03  0.7546771E-02  0.1109246E+00
         21   -1    0    0  503  501  0.00000000000E+00  0.00000000000E+00  0.78446593824E+03  0.78446593824E+03  0.00000000000E+00 0. -1.
         21   -1    0    0  501  502 -0.00000000000E+00 -0.00000000000E+00 -0.94470735275E+03  0.94470735275E+03  0.00000000000E+00 0.  1.
         25    1    1    2    0    0 -0.64273038954E+02  0.22913919702E+03 -0.77206519119E+03  0.81752397799E+03  0.12500000000E+03 0.  0.
         21    1    1    2  503  504 -0.10067327696E+02 -0.55857522500E+02  0.70084254681E+03  0.70313703453E+03  0.00000000000E+00 0. -1.
         21    1    1    2  504  502  0.74340366650E+02 -0.17328167452E+03 -0.89018770122E+02  0.20851227847E+03  0.00000000000E+00 0.  1.
<mgrwt>
<rscale>  4 0.25652978E+03</rscale>
<asrwt>0</asrwt>
<pdfrwt beam="1">  1       21 0.12068707E+00 0.25652978E+03</pdfrwt>
<pdfrwt beam="2">  1       21 0.14533959E+00 0.25652978E+03</pdfrwt>
<totfact> 0.15713878E+02</totfact>
</mgrwt>
</event>
<event>
 5    0  0.1814147E+000  0.2299541E+03  0.7546771E-02  0.1126672E+00
         21   -1    0    0  503  501  0.00000000000E+00  0.00000000000E+00  0.40411101665E+03  0.40411101665E+03  0.00000000000E+00 0.  1.
         21   -1    0    0  504  502 -0.00000000000E+00 -0.00000000000E+00 -0.49063933675E+03  0.49063933675E+03  0.00000000000E+00 0.  1.
         25    1    1    2    0    0 -0.21421226564E+02 -0.20893240322E+03  0.14420525388E+03  0.28378120676E+03  0.12500000000E+03 0.  0.
         21    1    1    2  503  502  0.84550725440E+02  0.17288081979E+03 -0.39055174954E+03  0.43539323846E+03  0.00000000000E+00 0.  1.
         21    1    1    2  504  501 -0.63129498875E+02  0.36051583431E+02  0.15981817556E+03  0.17557590819E+03  0.00000000000E+00 0.  1.
<mgrwt>
<rscale>  4 0.22995411E+03</rscale>
<asrwt>0</asrwt>
<pdfrwt beam="1">  1       21 0.62170926E-01 0.22995411E+03</pdfrwt>
<pdfrwt beam="2">  1       21 0.75482975E-01 0.22995411E+03</pdfrwt>
<totfact> 0.36546492E+03</totfact>
</mgrwt>
</event>
<event>
 5    0  0.1814147E+000  0.3182434E+03  0.7546771E-02  0.1076461E+00
         21   -1    0    0  503  501  0.00000000000E+00  0.00000000000E+00  0.44980749543E+03  0.44980749543E+03  0.00000000000E+00 0. -1.
         21   -1    0    0  504  502 -0.00000000000E+00 -0.00000000000E+00 -0.50377583167E+03  0.50377583167E+03  0.00000000000E+00 0. -1.
         25    1    1    2    0    0  0.25865614270E+03  0.81036306111E+02 -0.37900630639E+03  0.48243202977E+03  0.12500000000E+03 0.  0.
         21    1    1    2  503  502 -0.27868021820E+03 -0.98311584661E+02  0.33132914326E+03  0.44396715292E+03  0.00000000000E+00 0. -1.
         21    1    1    2  504  501  0.20024075494E+02  0.17275278550E+02 -0.62911731175E+01  0.27184144415E+02  0.00000000000E+00 0. -1.
<mgrwt>
<rscale>  4 0.31824336E+03</rscale>
<asrwt>0</asrwt>
<pdfrwt beam="1">  1       21 0.69201153E-01 0.31824336E+03</pdfrwt>
<pdfrwt beam="2">  1       21 0.77503974E-01 0.31824336E+03</pdfrwt>
<totfact> 0.25778814E+03</totfact>
</mgrwt>
</event>
<event>
 5    0  0.1814147E+000  0.2921056E+03  0.7546771E-02  0.1089255E+00
         21   -1    0    0  502  501  0.00000000000E+00  0.00000000000E+00  0.12191780870E+04  0.12191780870E+04  0.00000000000E+00 0.  1.
         21   -1    0    0  503  502 -0.00000000000E+00 -0.00000000000E+00 -0.12256994425E+03  0.12256994425E+03  0.00000000000E+00 0. -1.
         25    1    1    2    0    0  0.97956743178E+02 -0.23845041291E+03  0.12639133507E+03  0.31313558171E+03  0.12500000000E+03 0.  0.
         21    1    1    2  503  504  0.18462992380E+02 -0.20749440170E+02  0.29145913307E+03  0.29277952047E+03  0.00000000000E+00 0. -1.
         21    1    1    2  504  501 -0.11641973556E+03  0.25919985308E+03  0.67875767464E+03  0.73583292910E+03  0.00000000000E+00 0.  1.
<mgrwt>
<rscale>  4 0.29210561E+03</rscale>
<asrwt>0</asrwt>
<pdfrwt beam="1">  1       21 0.18756585E+00 0.29210561E+03</pdfrwt>
<pdfrwt beam="2">  1       21 0.18856915E-01 0.29210561E+03</pdfrwt>
<totfact> 0.38635042E+03</totfact>
</mgrwt>
</event>
<event>
 5    0  0.1814147E+000  0.2700690E+03  0.7546771E-02  0.1101240E+00
         21   -1    0    0  503  501  0.00000000000E+00  0.00000000000E+00  0.59857195755E+03  0.59857195755E+03  0.00000000000E+00 0. -1.
         21   -1    0    0  504  502 -0.00000000000E+00 -0.00000000000E+00 -0.26250168049E+03  0.26250168049E+03  0.00000000000E+00 0. -1.
         25    1    1    2    0    0 -0.18969625608E+03 -0.16548887692E+03 -0.11364060122E+03  0.30316732047E+03  0.12500000000E+03 0.  0.
         21    1    1    2  503  502  0.20120376461E+03  0.53105707764E+02  0.35018318891E+03  0.40734682629E+03  0.00000000000E+00 0. -1.
         21    1    1    2  504  501 -0.11507508530E+02  0.11238316916E+03  0.99527689373E+02  0.15055949128E+03  0.00000000000E+00 0. -1.
<mgrwt>
<rscale>  4 0.27006900E+03</rscale>
<asrwt>0</asrwt>
<pdfrwt beam="1">  1       21 0.92087993E-01 0.27006900E+03</pdfrwt>
<pdfrwt beam="2">  1       21 0.40384874E-01 0.27006900E+03</pdfrwt>
<totfact> 0.55887812E+03</totfact>
</mgrwt>
</event>
