<event>
 5    0  0.1856407E+000  0.2866852E+03  0.7546771E-02  0.1092093E+00
         21   -1    0    0  502  501  0.00000000000E+00  0.00000000000E+00  0.10605027674E+03  0.10605027674E+03  0.00000000000E+00 0.  1.
         21   -1    0    0  503  502 -0.00000000000E+00 -0.00000000000E+00 -0.11265733950E+04  0.11265733950E+04  0.00000000000E+00 0.  1.
         25    1    1    2    0    0 -0.20416992335E+03 -0.15772784945E+03 -0.88628966929E+03  0.93150298442E+03  0.12500000000E+03 0.  0.
         21    1    1    2  503  504  0.10400827509E+03  0.11834091011E+03 -0.10587280066E+03  0.18981923563E+03  0.00000000000E+00 0.  1.
         21    1    1    2  504  501  0.10016164826E+03  0.39386939334E+02 -0.28360648279E+02  0.11130145166E+03  0.00000000000E+00 0.  1.
<mgrwt>
<rscale>  4 0.28668525E+03</rscale>
<asrwt>0</asrwt>
<pdfrwt beam="1">  1       21 0.16315427E-01 0.28668525E+03</pdfrwt>
<pdfrwt beam="2">  1       21 0.17331899E+00 0.28668525E+03</pdfrwt>
<totfact> 0.63683767E+03</totfact>
</mgrwt>
</event>
<event>
 5    0  0.3759095E+000  0.3028824E+03  0.7546771E-02  0.1083809E+00
         21   -1    0    0  502  501  0.00000000000E+00  0.00000000000E+00  0.69677792168E+02  0.69677792168E+02  0.00000000000E+00 0. -1.
         21   -1    0    0  503  502 -0.00000000000E+00 -0.00000000000E+00 -0.13574895417E+04  0.13574895417E+04  0.00000000000E+00 0. -1.
         25    1    1    2    0    0 -0.21441927345E+03  0.18262173633E+03 -0.80758426058E+03  0.86437472276E+03  0.12500000000E+03 0.  0.
         21    1    1    2  503  504 -0.28830170224E+01 -0.24587177305E+02 -0.39245325427E+02  0.46400825886E+02  0.00000000000E+00 0. -1.
         21    1    1    2  504  501  0.21730229048E+03 -0.15803455903E+03 -0.44098216349E+03  0.51639178519E+03  0.00000000000E+00 0. -1.
<mgrwt>
<rscale>  4 0.30288244E+03</rscale>
<asrwt>0</asrwt>
<pdfrwt beam="1">  1       21 0.10719661E-01 0.30288244E+03</pdfrwt>
<pdfrwt beam="2">  1       21 0.20884454E+00 0.30288244E+03</pdfrwt>
<totfact> 0.78242399E+03</totfact>
</mgrwt>
</event>
<event>
 5    0  0.2092781E+000  0.2248262E+03  0.7546771E-02  0.1130335E+00
         21   -1    0    0  502  501  0.00000000000E+00  0.00000000000E+00  0.20942562143E+03  0.20942562143E+03  0.00000000000E+00 0.  1.
         21   -1    0    0  503  502 -0.00000000000E+00 -0.00000000000E+00 -0.29826648306E+03  0.29826648306E+03  0.00000000000E+00 0.  1.
         25    1    1    2    0    0  0.18676357748E+02 -0.21048554200E+03 -0.76232635409E+02  0.25707855693E+03  0.12500000000E+03 0.  0.
         21    1    1    2  503  504  0.26011159721E+02  0.38988608907E+02 -0.51014713596E+02  0.69276208454E+02  0.00000000000E+00 0.  1.
         21    1    1    2  504  501 -0.44687517469E+02  0.17149693310E+03  0.38406487375E+02  0.18133733910E+03  0.00000000000E+00 0.  1.
<mgrwt>
<rscale>  4 0.22482620E+03</rscale>
<asrwt>0</asrwt>
<pdfrwt beam="1">  1       21 0.32219326E-01 0.22482620E+03</pdfrwt>
<pdfrwt beam="2">  1       21 0.45887151E-01 0.22482620E+03</pdfrwt>
<totfact> 0.41524889E+04</totfact>
</mgrwt>
</event>
<event>
 5    0  0.1856407E+000  0.4012704E+03  0.7546771E-02  0.1043379E+00
         21   -1    0    0  502  501  0.00000000000E+00  0.00000000000E+00  0.12657110491E+04  0.12657110491E+04  0.00000000000E+00 0. -1.
         21   -1    0    0  503  502 -0.00000000000E+00 -0.00000000000E+00 -0.17756826056E+03  0.17756826056E+03  0.00000000000E+00 0.  1.
         25    1    1    2    0    0 -0.37918214655E+03  0.35462662284E+02  0.92867428336E+03  0.10114828843E+04  0.12500000000E+03 0.  0.
         21    1    1    2  503  504  0.30295679090E+03 -0.73537182442E+02  0.15031741663E+03  0.34610093917E+03  0.00000000000E+00 0.  1.
         21    1    1    2  504  501  0.76225355656E+02  0.38074520158E+02  0.91510885663E+01  0.85695486182E+02  0.00000000000E+00 0.  1.
<mgrwt>
<rscale>  4 0.40115934E+03</rscale>
<asrwt>0</asrwt>
<pdfrwt beam="1">  1       21 0.19472477E+00 0.40127042E+03</pdfrwt>
<pdfrwt beam="2">  1       21 0.27318195E-01 0.40127042E+03</pdfrwt>
<totfact> 0.15997632E+03</totfact>
</mgrwt>
</event>
<event>
 5    0  0.1856407E+000  0.4085244E+03  0.7546771E-02  0.1040867E+00
         21   -1    0    0  502  501  0.00000000000E+00  0.00000000000E+00  0.12084678770E+04  0.12084678770E+04  0.00000000000E+00 0.  1.
         21   -1    0    0  503  502 -0.00000000000E+00 -0.00000000000E+00 -0.16101373427E+03  0.16101373427E+03  0.00000000000E+00 0. -1.
         25    1    1    2    0    0 -0.38478747499E+03  0.56619998151E+02  0.81148753315E+03  0.90851760663E+03  0.12500000000E+03 0.  0.
         21    1    1    2  503  504  0.34489707018E+03 -0.73554476792E+02  0.21006254925E+03  0.41047597332E+03  0.00000000000E+00 0. -1.
         21    1    1    2  504  501  0.39890404807E+02  0.16934478641E+02  0.25904060294E+02  0.50488031277E+02  0.00000000000E+00 0. -1.
<mgrwt>
<rscale>  4 0.40852445E+03</rscale>
<asrwt>0</asrwt>
<pdfrwt beam="1">  1       21 0.18591813E+00 0.40852445E+03</pdfrwt>
<pdfrwt beam="2">  1       21 0.24771345E-01 0.40852445E+03</pdfrwt>
<totfact> 0.22148870E+03</totfact>
</mgrwt>
</event>
<event>
 5    0  0.1856407E+000  0.2708780E+03  0.7546771E-02  0.1100778E+00
         21   -1    0    0  502  501  0.00000000000E+00  0.00000000000E+00  0.14523879704E+03  0.14523879704E+03  0.00000000000E+00 0.  1.
         21   -1    0    0  503  502 -0.00000000000E+00 -0.00000000000E+00 -0.15368750933E+04  0.15368750933E+04  0.00000000000E+00 0.  1.
         25    1    1    2    0    0  0.13322402312E+03 -0.20290795889E+03 -0.83106781932E+01  0.27315626935E+03  0.12500000000E+03 0.  0.
         21    1    1    2  503  504  0.15915597753E+02  0.39299251661E+02 -0.14808571251E+03  0.15403608565E+03  0.00000000000E+00 0.  1.
         21    1    1    2  504  501 -0.14913962087E+03  0.16360870722E+03 -0.12352399055E+04  0.12549215353E+04  0.00000000000E+00 0.  1.
<mgrwt>
<rscale>  4 0.27087798E+03</rscale>
<asrwt>0</asrwt>
<pdfrwt beam="1">  1       21 0.22344431E-01 0.27087798E+03</pdfrwt>
<pdfrwt beam="2">  1       21 0.23644232E+00 0.27087798E+03</pdfrwt>
<totfact> 0.13885371E+03</totfact>
</mgrwt>
</event>
<event>
 5    0  0.1989206E+000  0.3332473E+03  0.7546771E-02  0.1069709E+00
         21   -1    0    0  502  501  0.00000000000E+00  0.00000000000E+00  0.94519855377E+03  0.94519855377E+03  0.00000000000E+00 0.  1.
         21   -1    0    0  503  502 -0.00000000000E+00 -0.00000000000E+00 -0.13476079737E+03  0.13476079737E+03  0.00000000000E+00 0.  1.
         25    1    1    2    0    0  0.97654259800E+02  0.29307407506E+03  0.61575967812E+03  0.70015266130E+03  0.12500000000E+03 0.  0.
         21    1    1    2  503  504 -0.32194952543E+02 -0.81558356845E+02  0.42796798327E+01  0.87787221166E+02  0.00000000000E+00 0.  1.
         21    1    1    2  504  501 -0.65459307257E+02 -0.21151571821E+03  0.19039839845E+03  0.29201946868E+03  0.00000000000E+00 0.  1.
<mgrwt>
<rscale>  4 0.33324731E+03</rscale>
<asrwt>0</asrwt>
<pdfrwt beam="1">  1       21 0.14541516E+00 0.33324731E+03</pdfrwt>
<pdfrwt beam="2">  1       21 0.20732431E-01 0.33324731E+03</pdfrwt>
<totfact> 0.64169578E+03</totfact>
</mgrwt>
</event>
<event>
 5    0  0.3134073E+000  0.2564469E+03  0.7546771E-02  0.1109297E+00
         21   -1    0    0  502  501  0.00000000000E+00  0.00000000000E+00  0.16507259467E+04  0.16507259467E+04  0.00000000000E+00 0. -1.
         21   -1    0    0  503  502 -0.00000000000E+00 -0.00000000000E+00 -0.47731816605E+02  0.47731816605E+02  0.00000000000E+00 0. -1.
         25    1    1    2    0    0  0.17900744604E+03 -0.13452271263E+03  0.12602587500E+04  0.12860859781E+04  0.12500000000E+03 0.  0.
         21    1    1    2  503  504 -0.21328509835E+02  0.16894883208E+02  0.17758507429E+02  0.32491645026E+02  0.00000000000E+00 0. -1.
         21    1    1    2  504  501 -0.15767893621E+03  0.11762782942E+03  0.32497687261E+03  0.37988014018E+03  0.00000000000E+00 0. -1.
<mgrwt>
<rscale>  4 0.25644693E+03</rscale>
<asrwt>0</asrwt>
<pdfrwt beam="1">  1       21 0.25395779E+00 0.25644693E+03</pdfrwt>
<pdfrwt beam="2">  1       21 0.73433577E-02 0.25644693E+03</pdfrwt>
<totfact> 0.83051798E+03</totfact>
</mgrwt>
</event>
<event>
 5    0  0.1856407E+000  0.2418348E+03  0.7546771E-02  0.1118577E+00
         21   -1    0    0  502  501  0.00000000000E+00  0.00000000000E+00  0.75241198361E+03  0.75241198361E+03  0.00000000000E+00 0. -1.
         21   -1    0    0  503  502 -0.00000000000E+00 -0.00000000000E+00 -0.73201487456E+02  0.73201487456E+02  0.00000000000E+00 0.  1.
         25    1    1    2    0    0  0.17103262180E+03  0.11664873456E+03  0.43631617705E+03  0.49885457936E+03  0.12500000000E+03 0.  0.
         21    1    1    2  503  504 -0.29029737311E+02  0.70383317099E+01  0.26893236010E+02  0.40193406234E+02  0.00000000000E+00 0.  1.
         21    1    1    2  504  501 -0.14200288449E+03 -0.12368706627E+03  0.21600108309E+03  0.28656548547E+03  0.00000000000E+00 0.  1.
<mgrwt>
<rscale>  4 0.24183483E+03</rscale>
<asrwt>0</asrwt>
<pdfrwt beam="1">  1       21 0.11575568E+00 0.24183483E+03</pdfrwt>
<pdfrwt beam="2">  1       21 0.11261768E-01 0.24183483E+03</pdfrwt>
<totfact> 0.36961711E+04</totfact>
</mgrwt>
</event>
<event>
 5    0  0.1856407E+000  0.2979448E+03  0.7546771E-02  0.1086273E+00
         21   -1    0    0  502  501  0.00000000000E+00  0.00000000000E+00  0.24117931478E+03  0.24117931478E+03  0.00000000000E+00 0. -1.
         21   -1    0    0  503  502 -0.00000000000E+00 -0.00000000000E+00 -0.93242968537E+03  0.93242968537E+03  0.00000000000E+00 0. -1.
         25    1    1    2    0    0  0.21073395061E+03  0.16952077241E+03 -0.81581962646E+03  0.86852331755E+03  0.12500000000E+03 0.  0.
         21    1    1    2  503  504 -0.52718858864E+02 -0.65233416757E+02  0.11746609818E+02  0.84691555564E+02  0.00000000000E+00 0.  1.
         21    1    1    2  504  501 -0.15801509174E+03 -0.10428735565E+03  0.11282264606E+03  0.22039412703E+03  0.00000000000E+00 0. -1.
<mgrwt>
<rscale>  4 0.29794478E+03</rscale>
<asrwt>0</asrwt>
<pdfrwt beam="1">  1       21 0.37104510E-01 0.29794478E+03</pdfrwt>
<pdfrwt beam="2">  1       21 0.14345072E+00 0.29794478E+03</pdfrwt>
<totfact> 0.21724341E+03</totfact>
</mgrwt>
</event>
<event>
 5    0  0.1856407E+000  0.2432743E+03  0.7546771E-02  0.1117631E+00
         21   -1    0    0  502  501  0.00000000000E+00  0.00000000000E+00  0.25257940045E+03  0.25257940045E+03  0.00000000000E+00 0.  1.
         21   -1    0    0  503  502 -0.00000000000E+00 -0.00000000000E+00 -0.36396222447E+03  0.36396222447E+03  0.00000000000E+00 0.  1.
         25    1    1    2    0    0  0.18583583848E+03 -0.94986541029E+02  0.14162109176E+03  0.28149411268E+03  0.12500000000E+03 0.  0.
         21    1    1    2  503  504 -0.92822462648E+02  0.56605250899E+02 -0.18162995983E+03  0.21168279644E+03  0.00000000000E+00 0.  1.
         21    1    1    2  504  501 -0.93013375833E+02  0.38381290130E+02 -0.71373955951E+02  0.12336471580E+03  0.00000000000E+00 0.  1.
<mgrwt>
<rscale>  4 0.24327433E+03</rscale>
<asrwt>0</asrwt>
<pdfrwt beam="1">  1       21 0.38858369E-01 0.24327433E+03</pdfrwt>
<pdfrwt beam="2">  1       21 0.55994189E-01 0.24327433E+03</pdfrwt>
<totfact> 0.18638649E+04</totfact>
</mgrwt>
</event>
