<event>
 5    0  0.1467858E+000  0.3067064E+03  0.7546771E-02  0.1081935E+00
         21   -1    0    0  504  501  0.00000000000E+00  0.00000000000E+00  0.12207990179E+03  0.12207990179E+03  0.00000000000E+00 0.  1.
         21   -1    0    0  501  502 -0.00000000000E+00 -0.00000000000E+00 -0.83109531230E+03  0.83109531230E+03  0.00000000000E+00 0.  1.
         25    1    1    2    0    0 -0.23966894595E+03  0.14492282119E+03 -0.54567158823E+03  0.62596031021E+03  0.12500000000E+03 0.  0.
         21    1    1    2  503  502  0.24211739326E+02 -0.81782212286E+01 -0.29591937861E+02  0.39099544883E+02  0.00000000000E+00 0. -1.
         21    1    1    2  504  503  0.21545720663E+03 -0.13674459996E+03 -0.13375188442E+03  0.28811535900E+03  0.00000000000E+00 0.  1.
<mgrwt>
<rscale>  4 0.30670642E+03</rscale>
<asrwt>0</asrwt>
<pdfrwt beam="1">  1       21 0.18781523E-01 0.30670642E+03</pdfrwt>
<pdfrwt beam="2">  1       21 0.12786082E+00 0.30670642E+03</pdfrwt>
<totfact> 0.10947553E+04</totfact>
</mgrwt>
</event>
<event>
 5    0  0.1467858E+000  0.3273900E+03  0.7546771E-02  0.1072298E+00
         21   -1    0    0  504  501  0.00000000000E+00  0.00000000000E+00  0.17528892164E+03  0.17528892164E+03  0.00000000000E+00 0. -1.
         21   -1    0    0  501  502 -0.00000000000E+00 -0.00000000000E+00 -0.63089492692E+03  0.63089492692E+03  0.00000000000E+00 0. -1.
         25    1    1    2    0    0  0.50662543435E+02  0.29831619155E+03 -0.30605032350E+03  0.44816408152E+03  0.12500000000E+03 0.  0.
         21    1    1    2  503  502  0.80543277377E+01 -0.18595228778E+03 -0.13599438081E+03  0.23051593684E+03  0.00000000000E+00 0. -1.
         21    1    1    2  504  503 -0.58716871173E+02 -0.11236390377E+03 -0.13561300968E+02  0.12750383019E+03  0.00000000000E+00 0. -1.
<mgrwt>
<rscale>  4 0.32739005E+03</rscale>
<asrwt>0</asrwt>
<pdfrwt beam="1">  1       21 0.26967527E-01 0.32739005E+03</pdfrwt>
<pdfrwt beam="2">  1       21 0.97060755E-01 0.32739005E+03</pdfrwt>
<totfact> 0.10729249E+04</totfact>
</mgrwt>
</event>
<event>
 5    0  0.1467858E+000  0.3263026E+03  0.7546771E-02  0.1072785E+00
         21   -1    0    0  504  501  0.00000000000E+00  0.00000000000E+00  0.34771501749E+03  0.34771501749E+03  0.00000000000E+00 0.  1.
         21   -1    0    0  501  502 -0.00000000000E+00 -0.00000000000E+00 -0.89610842951E+03  0.89610842951E+03  0.00000000000E+00 0.  1.
         25    1    1    2    0    0  0.16989178236E+03 -0.24896821238E+03 -0.78818496275E+03  0.85305857008E+03  0.12500000000E+03 0.  0.
         21    1    1    2  503  502 -0.10167044152E+02  0.39360072606E+02  0.57143546353E+02  0.70128232490E+02  0.00000000000E+00 0.  1.
         21    1    1    2  504  503 -0.15972473821E+03  0.20960813977E+03  0.18264800437E+03  0.32063664443E+03  0.00000000000E+00 0.  1.
<mgrwt>
<rscale>  4 0.32630260E+03</rscale>
<asrwt>0</asrwt>
<pdfrwt beam="1">  1       21 0.53494618E-01 0.32630260E+03</pdfrwt>
<pdfrwt beam="2">  1       21 0.13786283E+00 0.32630260E+03</pdfrwt>
<totfact> 0.11096943E+03</totfact>
</mgrwt>
</event>
<event>
 5    0  0.1467858E+000  0.2431778E+03  0.7546771E-02  0.1117694E+00
         21   -1    0    0  504  501  0.00000000000E+00  0.00000000000E+00  0.63053715479E+02  0.63053715479E+02  0.00000000000E+00 0.  1.
         21   -1    0    0  501  502 -0.00000000000E+00 -0.00000000000E+00 -0.83990896439E+03  0.83990896439E+03  0.00000000000E+00 0.  1.
         25    1    1    2    0    0 -0.75060712448E+02 -0.19461843704E+03 -0.48278078958E+03  0.54056705170E+03  0.12500000000E+03 0.  0.
         21    1    1    2  503  502  0.50626621450E+02  0.16491347641E+03 -0.22751076602E+03  0.28551822736E+03  0.00000000000E+00 0.  1.
         21    1    1    2  504  503  0.24434090998E+02  0.29704960631E+02 -0.66563693311E+02  0.76877400815E+02  0.00000000000E+00 0. -1.
<mgrwt>
<rscale>  4 0.24317781E+03</rscale>
<asrwt>0</asrwt>
<pdfrwt beam="1">  1       21 0.97005722E-02 0.24317781E+03</pdfrwt>
<pdfrwt beam="2">  1       21 0.12921676E+00 0.24317781E+03</pdfrwt>
<totfact> 0.36577483E+04</totfact>
</mgrwt>
</event>
<event>
 5    0  0.1467858E+000  0.2759608E+03  0.7546771E-02  0.1097916E+00
         21   -1    0    0  504  501  0.00000000000E+00  0.00000000000E+00  0.10002219558E+03  0.10002219558E+03  0.00000000000E+00 0.  1.
         21   -1    0    0  501  502 -0.00000000000E+00 -0.00000000000E+00 -0.83014345691E+03  0.83014345691E+03  0.00000000000E+00 0.  1.
         25    1    1    2    0    0 -0.84583309099E+02  0.23103032788E+03 -0.55038391154E+03  0.61569212977E+03  0.12500000000E+03 0.  0.
         21    1    1    2  503  502  0.68540984609E+02 -0.79625772258E+02 -0.85116846475E+02  0.13521467277E+03  0.00000000000E+00 0.  1.
         21    1    1    2  504  503  0.16042324490E+02 -0.15140455562E+03 -0.94620503311E+02  0.17925884995E+03  0.00000000000E+00 0.  1.
<mgrwt>
<rscale>  4 0.27596077E+03</rscale>
<asrwt>0</asrwt>
<pdfrwt beam="1">  1       21 0.15388029E-01 0.27596077E+03</pdfrwt>
<pdfrwt beam="2">  1       21 0.12771438E+00 0.27596077E+03</pdfrwt>
<totfact> 0.16129846E+04</totfact>
</mgrwt>
</event>
<event>
 5    0  0.1467858E+000  0.7516053E+03  0.7546771E-02  0.9642358E-01
         21   -1    0    0  504  501  0.00000000000E+00  0.00000000000E+00  0.36972174058E+04  0.36972174058E+04  0.00000000000E+00 0. -1.
         21   -1    0    0  501  502 -0.00000000000E+00 -0.00000000000E+00 -0.20679805256E+03  0.20679805256E+03  0.00000000000E+00 0.  1.
         25    1    1    2    0    0 -0.71673219842E+03 -0.13433210793E+02  0.68396318152E+03  0.99865716293E+03  0.12500000000E+03 0.  0.
         21    1    1    2  503  502  0.54226129964E+03 -0.47935766893E+02  0.23627104171E+04  0.24246124783E+04  0.00000000000E+00 0. -1.
         21    1    1    2  504  503  0.17447089877E+03  0.61368977686E+02  0.44374575465E+03  0.48074581715E+03  0.00000000000E+00 0. -1.
<mgrwt>
<rscale>  4 0.74554989E+03</rscale>
<asrwt>0</asrwt>
<pdfrwt beam="1">  1       21 0.56880263E+00 0.75160534E+03</pdfrwt>
<pdfrwt beam="2">  1       21 0.31815088E-01 0.75160534E+03</pdfrwt>
<totfact> 0.33626666E+00</totfact>
</mgrwt>
</event>
<event>
 5    0  0.1467858E+000  0.2368085E+03  0.7546771E-02  0.1121937E+00
         21   -1    0    0  504  501  0.00000000000E+00  0.00000000000E+00  0.18434011207E+03  0.18434011207E+03  0.00000000000E+00 0.  1.
         21   -1    0    0  501  502 -0.00000000000E+00 -0.00000000000E+00 -0.44230930895E+03  0.44230930895E+03  0.00000000000E+00 0.  1.
         25    1    1    2    0    0  0.36018101656E+02  0.19787866996E+03  0.58009084996E+02  0.24381001951E+03  0.12500000000E+03 0.  0.
         21    1    1    2  503  502 -0.14468696303E+02 -0.11955154062E+03 -0.25248505293E+03  0.27973311565E+03  0.00000000000E+00 0.  1.
         21    1    1    2  504  503 -0.21549405353E+02 -0.78327129347E+02 -0.63493228946E+02  0.10310628586E+03  0.00000000000E+00 0.  1.
<mgrwt>
<rscale>  4 0.23680851E+03</rscale>
<asrwt>0</asrwt>
<pdfrwt beam="1">  1       21 0.28360017E-01 0.23680851E+03</pdfrwt>
<pdfrwt beam="2">  1       21 0.68047586E-01 0.23680851E+03</pdfrwt>
<totfact> 0.22875183E+04</totfact>
</mgrwt>
</event>
<event>
 5    0  0.1467858E+000  0.2817558E+03  0.7546771E-02  0.1094734E+00
         21   -1    0    0  504  501  0.00000000000E+00  0.00000000000E+00  0.20089047857E+03  0.20089047857E+03  0.00000000000E+00 0.  1.
         21   -1    0    0  501  502 -0.00000000000E+00 -0.00000000000E+00 -0.48394753404E+03  0.48394753404E+03  0.00000000000E+00 0.  1.
         25    1    1    2    0    0 -0.23633405622E+03  0.63886876304E+02 -0.14462162317E+03  0.31060542973E+03  0.12500000000E+03 0.  0.
         21    1    1    2  503  502  0.11279210278E+02  0.79848491833E+02 -0.31145001391E+02  0.86446592438E+02  0.00000000000E+00 0.  1.
         21    1    1    2  504  503  0.22505484594E+03 -0.14373536814E+03 -0.10729043091E+03  0.28778599045E+03  0.00000000000E+00 0.  1.
<mgrwt>
<rscale>  4 0.28175581E+03</rscale>
<asrwt>0</asrwt>
<pdfrwt beam="1">  1       21 0.30906227E-01 0.28175581E+03</pdfrwt>
<pdfrwt beam="2">  1       21 0.74453467E-01 0.28175581E+03</pdfrwt>
<totfact> 0.15483483E+04</totfact>
</mgrwt>
</event>
<event>
 5    0  0.1467858E+000  0.1879489E+03  0.7546771E-02  0.1160324E+00
         21   -1    0    0  504  501  0.00000000000E+00  0.00000000000E+00  0.49899736982E+03  0.49899736982E+03  0.00000000000E+00 0.  1.
         21   -1    0    0  501  502 -0.00000000000E+00 -0.00000000000E+00 -0.14012856758E+03  0.14012856758E+03  0.00000000000E+00 0.  1.
         25    1    1    2    0    0 -0.16698226480E+03 -0.15004227401E+03  0.12317274117E+03  0.28494259934E+03  0.12500000000E+03 0.  0.
         21    1    1    2  503  502  0.99798646142E+02  0.46153443135E+02  0.29707918709E+02  0.11389675377E+03  0.00000000000E+00 0.  1.
         21    1    1    2  504  503  0.67183618662E+02  0.10388883087E+03  0.20598814236E+03  0.24028658429E+03  0.00000000000E+00 0.  1.
<mgrwt>
<rscale>  4 0.18794889E+03</rscale>
<asrwt>0</asrwt>
<pdfrwt beam="1">  1       21 0.76768825E-01 0.18794889E+03</pdfrwt>
<pdfrwt beam="2">  1       21 0.21558242E-01 0.18794889E+03</pdfrwt>
<totfact> 0.30342660E+04</totfact>
</mgrwt>
</event>
<event>
 5    0  0.1467858E+000  0.2585639E+03  0.7546771E-02  0.1108009E+00
         21   -1    0    0  504  501  0.00000000000E+00  0.00000000000E+00  0.98878318505E+03  0.98878318505E+03  0.00000000000E+00 0. -1.
         21   -1    0    0  501  502 -0.00000000000E+00 -0.00000000000E+00 -0.66899287483E+02  0.66899287483E+02  0.00000000000E+00 0. -1.
         25    1    1    2    0    0  0.22626497852E+03 -0.58694431716E+01  0.37192424793E+03  0.45297123205E+03  0.12500000000E+03 0.  0.
         21    1    1    2  503  502 -0.10901169761E+03 -0.25676728102E+02  0.16793234040E+03  0.20185171670E+03  0.00000000000E+00 0. -1.
         21    1    1    2  504  503 -0.11725328091E+03  0.31546171274E+02  0.38202730924E+03  0.40085952379E+03  0.00000000000E+00 0. -1.
<mgrwt>
<rscale>  4 0.25856390E+03</rscale>
<asrwt>0</asrwt>
<pdfrwt beam="1">  1       21 0.15212048E+00 0.25856390E+03</pdfrwt>
<pdfrwt beam="2">  1       21 0.10292199E-01 0.25856390E+03</pdfrwt>
<totfact> 0.21356479E+04</totfact>
</mgrwt>
</event>
<event>
 5    0  0.1467858E+000  0.2375479E+03  0.7546771E-02  0.1121437E+00
         21   -1    0    0  504  501  0.00000000000E+00  0.00000000000E+00  0.25438136179E+03  0.25438136179E+03  0.00000000000E+00 0.  1.
         21   -1    0    0  501  502 -0.00000000000E+00 -0.00000000000E+00 -0.35772437364E+03  0.35772437364E+03  0.00000000000E+00 0.  1.
         25    1    1    2    0    0  0.17397808423E+03  0.10264317837E+03 -0.26087954372E+03  0.35282734048E+03  0.12500000000E+03 0.  0.
         21    1    1    2  503  502 -0.48692976923E+02 -0.49689257987E+02  0.46304518603E+02  0.83571148155E+02  0.00000000000E+00 0.  1.
         21    1    1    2  504  503 -0.12528510731E+03 -0.52953920380E+02  0.11123201328E+03  0.17570724679E+03  0.00000000000E+00 0.  1.
<mgrwt>
<rscale>  4 0.23754788E+03</rscale>
<asrwt>0</asrwt>
<pdfrwt beam="1">  1       21 0.39135595E-01 0.23754788E+03</pdfrwt>
<pdfrwt beam="2">  1       21 0.55034518E-01 0.23754788E+03</pdfrwt>
<totfact> 0.19116907E+04</totfact>
</mgrwt>
</event>
<event>
 5    0  0.1467858E+000  0.2231053E+03  0.7546771E-02  0.1131589E+00
         21   -1    0    0  504  501  0.00000000000E+00  0.00000000000E+00  0.57629238973E+03  0.57629238973E+03  0.00000000000E+00 0. -1.
         21   -1    0    0  501  502 -0.00000000000E+00 -0.00000000000E+00 -0.16023116310E+03  0.16023116310E+03  0.00000000000E+00 0. -1.
         25    1    1    2    0    0 -0.46442984779E+02  0.26398873326E+03  0.25357789069E+03  0.38958150465E+03  0.12500000000E+03 0.  0.
         21    1    1    2  503  502 -0.42292464320E+02 -0.12866099570E+03  0.11666727606E+03  0.17875558077E+03  0.00000000000E+00 0. -1.
         21    1    1    2  504  503  0.88735449098E+02 -0.13532773756E+03  0.45816059883E+02  0.16818646742E+03  0.00000000000E+00 0. -1.
<mgrwt>
<rscale>  4 0.22310535E+03</rscale>
<asrwt>0</asrwt>
<pdfrwt beam="1">  1       21 0.88660367E-01 0.22310535E+03</pdfrwt>
<pdfrwt beam="2">  1       21 0.24650948E-01 0.22310535E+03</pdfrwt>
<totfact> 0.16609251E+04</totfact>
</mgrwt>
</event>
<event>
 5    0  0.1467858E+000  0.2867556E+03  0.7546771E-02  0.1092055E+00
         21   -1    0    0  504  501  0.00000000000E+00  0.00000000000E+00  0.12265951742E+04  0.12265951742E+04  0.00000000000E+00 0. -1.
         21   -1    0    0  501  502 -0.00000000000E+00 -0.00000000000E+00 -0.27171271578E+03  0.27171271578E+03  0.00000000000E+00 0.  1.
         25    1    1    2    0    0  0.23900431648E+03  0.97368886077E+02 -0.17614529086E+03  0.33653517909E+03  0.12500000000E+03 0.  0.
         21    1    1    2  503  502 -0.19429977365E+03 -0.94301414704E+02  0.10069597587E+04  0.10298607258E+04  0.00000000000E+00 0. -1.
         21    1    1    2  504  503 -0.44704542829E+02 -0.30674713733E+01  0.12406799061E+03  0.13191198515E+03  0.00000000000E+00 0.  1.
<mgrwt>
<rscale>  4 0.28675558E+03</rscale>
<asrwt>0</asrwt>
<pdfrwt beam="1">  1       21 0.18870695E+00 0.28675558E+03</pdfrwt>
<pdfrwt beam="2">  1       21 0.41801957E-01 0.28675558E+03</pdfrwt>
<totfact> 0.80271179E+02</totfact>
</mgrwt>
</event>
<event>
 5    0  0.1467858E+000  0.2760124E+03  0.7546771E-02  0.1097887E+00
         21   -1    0    0  504  501  0.00000000000E+00  0.00000000000E+00  0.62448675005E+02  0.62448675005E+02  0.00000000000E+00 0.  1.
         21   -1    0    0  501  502 -0.00000000000E+00 -0.00000000000E+00 -0.11599180513E+04  0.11599180513E+04  0.00000000000E+00 0.  1.
         25    1    1    2    0    0 -0.24381318284E+03  0.33361001761E+02 -0.68684482180E+03  0.74022877126E+03  0.12500000000E+03 0.  0.
         21    1    1    2  503  502  0.27087335516E+02  0.11428087744E+02 -0.70135791944E+02  0.76048367809E+02  0.00000000000E+00 0.  1.
         21    1    1    2  504  503  0.21672584732E+03 -0.44789089505E+02 -0.34048876251E+03  0.40608958720E+03  0.00000000000E+00 0.  1.
<mgrwt>
<rscale>  4 0.27601236E+03</rscale>
<asrwt>0</asrwt>
<pdfrwt beam="1">  1       21 0.96074891E-02 0.27601236E+03</pdfrwt>
<pdfrwt beam="2">  1       21 0.17844892E+00 0.27601236E+03</pdfrwt>
<totfact> 0.15390014E+04</totfact>
</mgrwt>
</event>
<event>
 5    0  0.1467858E+000  0.2489581E+03  0.7546771E-02  0.1113965E+00
         21   -1    0    0  504  501  0.00000000000E+00  0.00000000000E+00  0.70447631637E+03  0.70447631637E+03  0.00000000000E+00 0. -1.
         21   -1    0    0  501  502 -0.00000000000E+00 -0.00000000000E+00 -0.93659708522E+02  0.93659708522E+02  0.00000000000E+00 0. -1.
         25    1    1    2    0    0  0.21525196445E+03  0.46593243238E+01  0.15682729923E+03  0.29423616244E+03  0.12500000000E+03 0.  0.
         21    1    1    2  503  502 -0.19637528666E+03 -0.11671760655E+02  0.42780340018E+03  0.47086646983E+03  0.00000000000E+00 0. -1.
         21    1    1    2  504  503 -0.18876677789E+02  0.70124363313E+01  0.26185908433E+02  0.33033392622E+02  0.00000000000E+00 0. -1.
<mgrwt>
<rscale>  4 0.24895806E+03</rscale>
<asrwt>0</asrwt>
<pdfrwt beam="1">  1       21 0.10838097E+00 0.24895806E+03</pdfrwt>
<pdfrwt beam="2">  1       21 0.14409186E-01 0.24895806E+03</pdfrwt>
<totfact> 0.27717094E+04</totfact>
</mgrwt>
</event>
<event>
 5    0  0.1467858E+000  0.2581789E+03  0.7546771E-02  0.1108242E+00
         21   -1    0    0  504  501  0.00000000000E+00  0.00000000000E+00  0.42040204468E+03  0.42040204468E+03  0.00000000000E+00 0. -1.
         21   -1    0    0  501  502 -0.00000000000E+00 -0.00000000000E+00 -0.11831259979E+04  0.11831259979E+04  0.00000000000E+00 0. -1.
         25    1    1    2    0    0  0.94802480288E+02 -0.20504587254E+03 -0.11356367395E+04  0.11646145819E+04  0.12500000000E+03 0.  0.
         21    1    1    2  503  502 -0.73663987766E+02  0.10354766834E+03  0.22249082219E+03  0.25622386437E+03  0.00000000000E+00 0. -1.
         21    1    1    2  504  503 -0.21138492522E+02  0.10149820420E+03  0.15042196412E+03  0.18268959634E+03  0.00000000000E+00 0. -1.
<mgrwt>
<rscale>  4 0.25817885E+03</rscale>
<asrwt>0</asrwt>
<pdfrwt beam="1">  1       21 0.64677238E-01 0.25817885E+03</pdfrwt>
<pdfrwt beam="2">  1       21 0.18201938E+00 0.25817885E+03</pdfrwt>
<totfact> 0.36220224E+02</totfact>
</mgrwt>
</event>
<event>
 5    0  0.1467858E+000  0.2701857E+03  0.7546771E-02  0.1101173E+00
         21   -1    0    0  504  501  0.00000000000E+00  0.00000000000E+00  0.25516136627E+03  0.25516136627E+03  0.00000000000E+00 0.  1.
         21   -1    0    0  501  502 -0.00000000000E+00 -0.00000000000E+00 -0.62495998254E+03  0.62495998254E+03  0.00000000000E+00 0. -1.
         25    1    1    2    0    0  0.16830885523E+03 -0.16102869456E+03 -0.44763094702E+03  0.51986207397E+03  0.12500000000E+03 0.  0.
         21    1    1    2  503  502 -0.10121465239E+02 -0.68185240990E+02 -0.65852557779E+01  0.69246203803E+02  0.00000000000E+00 0. -1.
         21    1    1    2  504  503 -0.15818738999E+03  0.22921393555E+03  0.84417586529E+02  0.29101307104E+03  0.00000000000E+00 0.  1.
<mgrwt>
<rscale>  4 0.27018568E+03</rscale>
<asrwt>0</asrwt>
<pdfrwt beam="1">  1       21 0.39255595E-01 0.27018568E+03</pdfrwt>
<pdfrwt beam="2">  1       21 0.96147689E-01 0.27018568E+03</pdfrwt>
<totfact> 0.53476365E+03</totfact>
</mgrwt>
</event>
<event>
 5    0  0.1467858E+000  0.3100844E+03  0.7546771E-02  0.1080305E+00
         21   -1    0    0  504  501  0.00000000000E+00  0.00000000000E+00  0.69195732700E+03  0.69195732700E+03  0.00000000000E+00 0.  1.
         21   -1    0    0  501  502 -0.00000000000E+00 -0.00000000000E+00 -0.26122453936E+03  0.26122453936E+03  0.00000000000E+00 0.  1.
         25    1    1    2    0    0  0.28275050245E+03 -0.36893274150E+02 -0.84992678222E+02  0.32273474506E+03  0.12500000000E+03 0.  0.
         21    1    1    2  503  502 -0.26447512906E+03  0.10879665164E+03  0.43713651023E+03  0.52237164345E+03  0.00000000000E+00 0.  1.
         21    1    1    2  504  503 -0.18275373390E+02 -0.71903377488E+02  0.78588955624E+02  0.10807547785E+03  0.00000000000E+00 0.  1.
<mgrwt>
<rscale>  4 0.31008438E+03</rscale>
<asrwt>0</asrwt>
<pdfrwt beam="1">  1       21 0.10645497E+00 0.31008438E+03</pdfrwt>
<pdfrwt beam="2">  1       21 0.40188391E-01 0.31008438E+03</pdfrwt>
<totfact> 0.39036750E+03</totfact>
</mgrwt>
</event>
<event>
 5    0  0.1467858E+000  0.2444075E+03  0.7546771E-02  0.1116891E+00
         21   -1    0    0  504  501  0.00000000000E+00  0.00000000000E+00  0.21239459015E+03  0.21239459015E+03  0.00000000000E+00 0. -1.
         21   -1    0    0  501  502 -0.00000000000E+00 -0.00000000000E+00 -0.78470814526E+03  0.78470814526E+03  0.00000000000E+00 0. -1.
         25    1    1    2    0    0 -0.19772833767E+03 -0.70806252477E+02 -0.70338918051E+03  0.74464176633E+03  0.12500000000E+03 0.  0.
         21    1    1    2  503  502  0.12546200502E+03  0.25352349927E+02  0.96735699346E+02  0.16044080490E+03  0.00000000000E+00 0. -1.
         21    1    1    2  504  503  0.72266332654E+02  0.45453902550E+02  0.34339926054E+02  0.92020164169E+02  0.00000000000E+00 0. -1.
<mgrwt>
<rscale>  4 0.24440749E+03</rscale>
<asrwt>0</asrwt>
<pdfrwt beam="1">  1       21 0.32676091E-01 0.24440749E+03</pdfrwt>
<pdfrwt beam="2">  1       21 0.12072433E+00 0.24440749E+03</pdfrwt>
<totfact> 0.45115518E+03</totfact>
</mgrwt>
</event>
<event>
 5    0  0.1467858E+000  0.2240344E+03  0.7546771E-02  0.1130910E+00
         21   -1    0    0  504  501  0.00000000000E+00  0.00000000000E+00  0.42632515936E+03  0.42632515936E+03  0.00000000000E+00 0. -1.
         21   -1    0    0  501  502 -0.00000000000E+00 -0.00000000000E+00 -0.26321213421E+03  0.26321213421E+03  0.00000000000E+00 0. -1.
         25    1    1    2    0    0  0.83523293983E+02  0.18694447442E+03 -0.15841402907E+03  0.28747935884E+03  0.12500000000E+03 0.  0.
         21    1    1    2  503  502 -0.70673749653E+02 -0.16979230724E+03  0.33097171016E+03  0.37863766243E+03  0.00000000000E+00 0. -1.
         21    1    1    2  504  503 -0.12849544330E+02 -0.17152167183E+02 -0.94446559391E+01  0.23420272295E+02  0.00000000000E+00 0. -1.
<mgrwt>
<rscale>  4 0.22403440E+03</rscale>
<asrwt>0</asrwt>
<pdfrwt beam="1">  1       21 0.65588486E-01 0.22403440E+03</pdfrwt>
<pdfrwt beam="2">  1       21 0.40494175E-01 0.22403440E+03</pdfrwt>
<totfact> 0.12308777E+04</totfact>
</mgrwt>
</event>
<event>
 5    0  0.1467858E+000  0.2965173E+03  0.7546771E-02  0.1086995E+00
         21   -1    0    0  504  501  0.00000000000E+00  0.00000000000E+00  0.11963977256E+04  0.11963977256E+04  0.00000000000E+00 0.  1.
         21   -1    0    0  501  502 -0.00000000000E+00 -0.00000000000E+00 -0.83028775632E+02  0.83028775632E+02  0.00000000000E+00 0.  1.
         25    1    1    2    0    0  0.18819247039E+03  0.20458401646E+03  0.37426275991E+03  0.48266824959E+03  0.12500000000E+03 0.  0.
         21    1    1    2  503  502 -0.29221842949E+02  0.76654694954E+01  0.50377861966E+02  0.58741846278E+02  0.00000000000E+00 0.  1.
         21    1    1    2  504  503 -0.15897062744E+03 -0.21224948595E+03  0.68872832808E+03  0.73801640536E+03  0.00000000000E+00 0.  1.
<mgrwt>
<rscale>  4 0.29651731E+03</rscale>
<asrwt>0</asrwt>
<pdfrwt beam="1">  1       21 0.18406118E+00 0.29651731E+03</pdfrwt>
<pdfrwt beam="2">  1       21 0.12773659E-01 0.29651731E+03</pdfrwt>
<totfact> 0.83495042E+03</totfact>
</mgrwt>
</event>
<event>
 5    0  0.1467858E+000  0.3210599E+03  0.7546771E-02  0.1075163E+00
         21   -1    0    0  504  501  0.00000000000E+00  0.00000000000E+00  0.10063399329E+04  0.10063399329E+04  0.00000000000E+00 0.  1.
         21   -1    0    0  501  502 -0.00000000000E+00 -0.00000000000E+00 -0.31181889735E+03  0.31181889735E+03  0.00000000000E+00 0. -1.
         25    1    1    2    0    0  0.24516703596E+03  0.16537105358E+03 -0.19692749558E+03  0.37664293356E+03  0.12500000000E+03 0.  0.
         21    1    1    2  503  502 -0.18793219289E+03 -0.12132695873E+03  0.75071305462E+03  0.78333187757E+03  0.00000000000E+00 0.  1.
         21    1    1    2  504  503 -0.57234843074E+02 -0.44044094849E+02  0.14073547651E+03  0.15818401911E+03  0.00000000000E+00 0. -1.
<mgrwt>
<rscale>  4 0.32105990E+03</rscale>
<asrwt>0</asrwt>
<pdfrwt beam="1">  1       21 0.15482153E+00 0.32105990E+03</pdfrwt>
<pdfrwt beam="2">  1       21 0.47972138E-01 0.32105990E+03</pdfrwt>
<totfact> 0.10291225E+03</totfact>
</mgrwt>
</event>
<event>
 5    0  0.1467858E+000  0.3475946E+03  0.7546771E-02  0.1063607E+00
         21   -1    0    0  504  501  0.00000000000E+00  0.00000000000E+00  0.35487959795E+03  0.35487959795E+03  0.00000000000E+00 0.  1.
         21   -1    0    0  501  502 -0.00000000000E+00 -0.00000000000E+00 -0.91726132654E+03  0.91726132654E+03  0.00000000000E+00 0. -1.
         25    1    1    2    0    0  0.52626403394E+01 -0.34073327351E+03 -0.74550349322E+03  0.82917267047E+03  0.12500000000E+03 0.  0.
         21    1    1    2  503  502  0.25001022988E+02  0.19480264364E+02 -0.39725650201E+02  0.50819869481E+02  0.00000000000E+00 0.  1.
         21    1    1    2  504  503 -0.30263663327E+02  0.32125300915E+03  0.22284741483E+03  0.39214838454E+03  0.00000000000E+00 0.  1.
<mgrwt>
<rscale>  4 0.34759458E+03</rscale>
<asrwt>0</asrwt>
<pdfrwt beam="1">  1       21 0.54596862E-01 0.34759458E+03</pdfrwt>
<pdfrwt beam="2">  1       21 0.14111712E+00 0.34759458E+03</pdfrwt>
<totfact> 0.98671770E+02</totfact>
</mgrwt>
</event>
<event>
 5    0  0.1467858E+000  0.2505820E+03  0.7546771E-02  0.1112938E+00
         21   -1    0    0  504  501  0.00000000000E+00  0.00000000000E+00  0.31814688149E+03  0.31814688149E+03  0.00000000000E+00 0.  1.
         21   -1    0    0  501  502 -0.00000000000E+00 -0.00000000000E+00 -0.17348400495E+03  0.17348400495E+03  0.00000000000E+00 0.  1.
         25    1    1    2    0    0  0.15763526089E+03 -0.14939037711E+03  0.78361443928E+02  0.26254880717E+03  0.12500000000E+03 0.  0.
         21    1    1    2  503  502 -0.13458372897E+03  0.13676173138E+03  0.50487931557E+02  0.19840761706E+03  0.00000000000E+00 0.  1.
         21    1    1    2  504  503 -0.23051531916E+02  0.12628645737E+02  0.15813501058E+02  0.30674462221E+02  0.00000000000E+00 0. -1.
<mgrwt>
<rscale>  4 0.25058204E+03</rscale>
<asrwt>0</asrwt>
<pdfrwt beam="1">  1       21 0.48945674E-01 0.25058204E+03</pdfrwt>
<pdfrwt beam="2">  1       21 0.26689847E-01 0.25058204E+03</pdfrwt>
<totfact> 0.51888304E+04</totfact>
</mgrwt>
</event>
<event>
 5    0  0.1467858E+000  0.3152899E+03  0.7546771E-02  0.1077838E+00
         21   -1    0    0  504  501  0.00000000000E+00  0.00000000000E+00  0.47038591997E+03  0.47038591997E+03  0.00000000000E+00 0. -1.
         21   -1    0    0  501  502 -0.00000000000E+00 -0.00000000000E+00 -0.34771145546E+03  0.34771145546E+03  0.00000000000E+00 0.  1.
         25    1    1    2    0    0  0.41690647257E+02 -0.28643434638E+03 -0.20449612273E+03  0.37580102324E+03  0.12500000000E+03 0.  0.
         21    1    1    2  503  502 -0.50088053875E+02  0.11225206768E+03  0.14556107474E+03  0.19051867709E+03  0.00000000000E+00 0. -1.
         21    1    1    2  504  503  0.83974066178E+01  0.17418227870E+03  0.18160951250E+03  0.25177767510E+03  0.00000000000E+00 0. -1.
<mgrwt>
<rscale>  4 0.31528994E+03</rscale>
<asrwt>0</asrwt>
<pdfrwt beam="1">  1       21 0.72367065E-01 0.31528994E+03</pdfrwt>
<pdfrwt beam="2">  1       21 0.53494070E-01 0.31528994E+03</pdfrwt>
<totfact> 0.52835211E+03</totfact>
</mgrwt>
</event>
<event>
 5    0  0.1467858E+000  0.2830593E+03  0.7546771E-02  0.1094030E+00
         21   -1    0    0  504  501  0.00000000000E+00  0.00000000000E+00  0.10426342301E+03  0.10426342301E+03  0.00000000000E+00 0. -1.
         21   -1    0    0  501  502 -0.00000000000E+00 -0.00000000000E+00 -0.70447408857E+03  0.70447408857E+03  0.00000000000E+00 0. -1.
         25    1    1    2    0    0  0.19384368171E+03 -0.16407978892E+03 -0.33377199765E+03  0.43763717448E+03  0.12500000000E+03 0.  0.
         21    1    1    2  503  502 -0.14052807471E+02  0.32030922647E+02 -0.30581958872E+02  0.46462001807E+02  0.00000000000E+00 0. -1.
         21    1    1    2  504  503 -0.17979087424E+03  0.13204886627E+03 -0.23585670904E+03  0.32463833529E+03  0.00000000000E+00 0. -1.
<mgrwt>
<rscale>  4 0.28305927E+03</rscale>
<asrwt>0</asrwt>
<pdfrwt beam="1">  1       21 0.16040527E-01 0.28305927E+03</pdfrwt>
<pdfrwt beam="2">  1       21 0.10838063E+00 0.28305927E+03</pdfrwt>
<totfact> 0.22411727E+04</totfact>
</mgrwt>
</event>
<event>
 5    0  0.1467858E+000  0.2705931E+03  0.7546771E-02  0.1100941E+00
         21   -1    0    0  504  501  0.00000000000E+00  0.00000000000E+00  0.22533071538E+03  0.22533071538E+03  0.00000000000E+00 0.  1.
         21   -1    0    0  501  502 -0.00000000000E+00 -0.00000000000E+00 -0.30975098182E+03  0.30975098182E+03  0.00000000000E+00 0.  1.
         25    1    1    2    0    0  0.15809543812E+03  0.18055880628E+03 -0.73425544678E+02  0.28037824575E+03  0.12500000000E+03 0.  0.
         21    1    1    2  503  502 -0.65900957407E+02 -0.45836322113E+02  0.31145077226E+02  0.86104125613E+02  0.00000000000E+00 0.  1.
         21    1    1    2  504  503 -0.92194480710E+02 -0.13472248416E+03 -0.42139798992E+02  0.16859932583E+03  0.00000000000E+00 0.  1.
<mgrwt>
<rscale>  4 0.27059314E+03</rscale>
<asrwt>0</asrwt>
<pdfrwt beam="1">  1       21 0.34666264E-01 0.27059314E+03</pdfrwt>
<pdfrwt beam="2">  1       21 0.47653997E-01 0.27059314E+03</pdfrwt>
<totfact> 0.32553397E+04</totfact>
</mgrwt>
</event>
<event>
 5    0  0.1467858E+000  0.2970498E+03  0.7546771E-02  0.1086725E+00
         21   -1    0    0  504  501  0.00000000000E+00  0.00000000000E+00  0.61982452332E+02  0.61982452332E+02  0.00000000000E+00 0. -1.
         21   -1    0    0  501  502 -0.00000000000E+00 -0.00000000000E+00 -0.14337990376E+04  0.14337990376E+04  0.00000000000E+00 0. -1.
         25    1    1    2    0    0 -0.15212088462E+03 -0.22242485047E+03 -0.88991878172E+03  0.93818655698E+03  0.12500000000E+03 0.  0.
         21    1    1    2  503  502  0.45337607186E+02  0.13143941406E+03 -0.26546129449E+03  0.29966901252E+03  0.00000000000E+00 0. -1.
         21    1    1    2  504  503  0.10678327743E+03  0.90985436418E+02 -0.21643650909E+03  0.25792592046E+03  0.00000000000E+00 0. -1.
<mgrwt>
<rscale>  4 0.29704979E+03</rscale>
<asrwt>0</asrwt>
<pdfrwt beam="1">  1       21 0.95357626E-02 0.29704979E+03</pdfrwt>
<pdfrwt beam="2">  1       21 0.22058445E+00 0.29704979E+03</pdfrwt>
<totfact> 0.81504443E+03</totfact>
</mgrwt>
</event>
<event>
 5    0  0.1467858E+000  0.2434377E+03  0.7546771E-02  0.1117524E+00
         21   -1    0    0  504  501  0.00000000000E+00  0.00000000000E+00  0.20455814784E+03  0.20455814784E+03  0.00000000000E+00 0. -1.
         21   -1    0    0  501  502 -0.00000000000E+00 -0.00000000000E+00 -0.65086281724E+03  0.65086281724E+03  0.00000000000E+00 0.  1.
         25    1    1    2    0    0  0.20867164150E+03  0.96459178449E+01 -0.56027516270E+03  0.61087654697E+03  0.12500000000E+03 0.  0.
         21    1    1    2  503  502 -0.95779797449E+02 -0.32391785891E+02  0.49707378832E+02  0.11266685805E+03  0.00000000000E+00 0. -1.
         21    1    1    2  504  503 -0.11289184405E+03  0.22745868046E+02  0.64263114470E+02  0.13187756006E+03  0.00000000000E+00 0. -1.
<mgrwt>
<rscale>  4 0.24343767E+03</rscale>
<asrwt>0</asrwt>
<pdfrwt beam="1">  1       21 0.31470485E-01 0.24343767E+03</pdfrwt>
<pdfrwt beam="2">  1       21 0.10013274E+00 0.24343767E+03</pdfrwt>
<totfact> 0.76739395E+03</totfact>
</mgrwt>
</event>
<event>
 5    0  0.1467858E+000  0.2538247E+03  0.7546771E-02  0.1110911E+00
         21   -1    0    0  504  501  0.00000000000E+00  0.00000000000E+00  0.13071670141E+03  0.13071670141E+03  0.00000000000E+00 0.  1.
         21   -1    0    0  501  502 -0.00000000000E+00 -0.00000000000E+00 -0.68909816675E+03  0.68909816675E+03  0.00000000000E+00 0.  1.
         25    1    1    2    0    0  0.13276466119E+03  0.17656589580E+03 -0.52840679278E+03  0.58620875930E+03  0.12500000000E+03 0.  0.
         21    1    1    2  503  502 -0.62013014988E+02 -0.13687081379E+03 -0.13928748635E+02  0.15090806385E+03  0.00000000000E+00 0.  1.
         21    1    1    2  504  503 -0.70751646201E+02 -0.39695082007E+02 -0.16045923924E+02  0.82698045021E+02  0.00000000000E+00 0.  1.
<mgrwt>
<rscale>  4 0.25382469E+03</rscale>
<asrwt>0</asrwt>
<pdfrwt beam="1">  1       21 0.20110262E-01 0.25382469E+03</pdfrwt>
<pdfrwt beam="2">  1       21 0.10601510E+00 0.25382469E+03</pdfrwt>
<totfact> 0.15734050E+04</totfact>
</mgrwt>
</event>
<event>
 5    0  0.1467858E+000  0.2583589E+03  0.7546771E-02  0.1108133E+00
         21   -1    0    0  504  501  0.00000000000E+00  0.00000000000E+00  0.10851569965E+04  0.10851569965E+04  0.00000000000E+00 0.  1.
         21   -1    0    0  501  502 -0.00000000000E+00 -0.00000000000E+00 -0.24878254857E+03  0.24878254857E+03  0.00000000000E+00 0. -1.
         25    1    1    2    0    0  0.31901861831E+03  0.63430843998E+02 -0.45874335206E+02  0.35146238125E+03  0.12500000000E+03 0.  0.
         21    1    1    2  503  502 -0.12196537459E+03  0.33268091665E+02  0.77398944239E+02  0.14823263841E+03  0.00000000000E+00 0.  1.
         21    1    1    2  504  503 -0.19705324373E+03 -0.96698935663E+02  0.80484983893E+03  0.83424452545E+03  0.00000000000E+00 0.  1.
<mgrwt>
<rscale>  4 0.25835895E+03</rscale>
<asrwt>0</asrwt>
<pdfrwt beam="1">  1       21 0.16694723E+00 0.25835895E+03</pdfrwt>
<pdfrwt beam="2">  1       21 0.38274239E-01 0.25835895E+03</pdfrwt>
<totfact> 0.13915331E+03</totfact>
</mgrwt>
</event>
<event>
 5    0  0.1467858E+000  0.2387189E+03  0.7546771E-02  0.1120649E+00
         21   -1    0    0  504  501  0.00000000000E+00  0.00000000000E+00  0.28430005958E+04  0.28430005958E+04  0.00000000000E+00 0.  1.
         21   -1    0    0  501  502 -0.00000000000E+00 -0.00000000000E+00 -0.36975344940E+02  0.36975344940E+02  0.00000000000E+00 0.  1.
         25    1    1    2    0    0  0.13761044496E+03  0.14556052369E+03  0.68475586091E+03  0.72432043301E+03  0.12500000000E+03 0.  0.
         21    1    1    2  503  502 -0.22289993507E+03 -0.51202572416E+02  0.93404145424E+03  0.96163377785E+03  0.00000000000E+00 0.  1.
         21    1    1    2  504  503  0.85289490104E+02 -0.94357951272E+02  0.11872279357E+04  0.11940217299E+04  0.00000000000E+00 0.  1.
<mgrwt>
<rscale>  4 0.23871893E+03</rscale>
<asrwt>0</asrwt>
<pdfrwt beam="1">  1       21 0.43738454E+00 0.23871893E+03</pdfrwt>
<pdfrwt beam="2">  1       21 0.56885168E-02 0.23871893E+03</pdfrwt>
<totfact> 0.10186243E+03</totfact>
</mgrwt>
</event>
<event>
 5    0  0.1467858E+000  0.3255023E+03  0.7546771E-02  0.1073144E+00
         21   -1    0    0  504  501  0.00000000000E+00  0.00000000000E+00  0.37091615667E+03  0.37091615667E+03  0.00000000000E+00 0.  1.
         21   -1    0    0  501  502 -0.00000000000E+00 -0.00000000000E+00 -0.28601344312E+03  0.28601344312E+03  0.00000000000E+00 0.  1.
         25    1    1    2    0    0 -0.24755165611E+03 -0.17042580247E+03  0.98153323203E+02  0.33997919267E+03  0.12500000000E+03 0.  0.
         21    1    1    2  503  502  0.13438896486E+03  0.34389931982E+02 -0.18340350029E+02  0.13992651549E+03  0.00000000000E+00 0.  1.
         21    1    1    2  504  503  0.11316269125E+03  0.13603587049E+03  0.50897403719E+01  0.17702389163E+03  0.00000000000E+00 0.  1.
<mgrwt>
<rscale>  4 0.32550234E+03</rscale>
<asrwt>0</asrwt>
<pdfrwt beam="1">  1       21 0.57064025E-01 0.32550234E+03</pdfrwt>
<pdfrwt beam="2">  1       21 0.44002068E-01 0.32550234E+03</pdfrwt>
<totfact> 0.13377500E+04</totfact>
</mgrwt>
</event>
<event>
 5    0  0.1467858E+000  0.2634693E+03  0.7546771E-02  0.1105077E+00
         21   -1    0    0  504  501  0.00000000000E+00  0.00000000000E+00  0.25114790696E+04  0.25114790696E+04  0.00000000000E+00 0.  1.
         21   -1    0    0  501  502 -0.00000000000E+00 -0.00000000000E+00 -0.50109608583E+02  0.50109608583E+02  0.00000000000E+00 0.  1.
         25    1    1    2    0    0 -0.23145198263E+03  0.14867215362E+02  0.35704353717E+03  0.44372980720E+03  0.12500000000E+03 0.  0.
         21    1    1    2  503  502  0.22467570952E+02 -0.46274636767E+01  0.41353328129E+03  0.41416902334E+03  0.00000000000E+00 0.  1.
         21    1    1    2  504  503  0.20898441168E+03 -0.10239751686E+02  0.16907926425E+04  0.17036898476E+04  0.00000000000E+00 0.  1.
<mgrwt>
<rscale>  4 0.26346927E+03</rscale>
<asrwt>0</asrwt>
<pdfrwt beam="1">  1       21 0.38638130E+00 0.26346927E+03</pdfrwt>
<pdfrwt beam="2">  1       21 0.77091725E-02 0.26346927E+03</pdfrwt>
<totfact> 0.12365176E+03</totfact>
</mgrwt>
</event>
<event>
 5    0  0.1467858E+000  0.3150364E+03  0.7546771E-02  0.1077957E+00
         21   -1    0    0  504  501  0.00000000000E+00  0.00000000000E+00  0.22998446218E+04  0.22998446218E+04  0.00000000000E+00 0. -1.
         21   -1    0    0  501  502 -0.00000000000E+00 -0.00000000000E+00 -0.12030009861E+04  0.12030009861E+04  0.00000000000E+00 0. -1.
         25    1    1    2    0    0  0.23171665277E+03  0.16724976968E+03 -0.10294899746E+04  0.10757042811E+04  0.12500000000E+03 0.  0.
         21    1    1    2  503  502  0.21309601242E+03  0.22692981672E+03  0.11833493783E+03  0.33303184493E+03  0.00000000000E+00 0.  1.
         21    1    1    2  504  503 -0.44481266519E+03 -0.39417958640E+03  0.20079986725E+04  0.20941094819E+04  0.00000000000E+00 0. -1.
<mgrwt>
<rscale>  4 0.31503644E+03</rscale>
<asrwt>0</asrwt>
<pdfrwt beam="1">  1       21 0.35382225E+00 0.31503644E+03</pdfrwt>
<pdfrwt beam="2">  1       21 0.18507708E+00 0.31503644E+03</pdfrwt>
<totfact> 0.22440224E+00</totfact>
</mgrwt>
</event>
<event>
 5    0  0.1467858E+000  0.2622818E+03  0.7546771E-02  0.1105780E+00
         21   -1    0    0  504  501  0.00000000000E+00  0.00000000000E+00  0.22801769159E+04  0.22801769159E+04  0.00000000000E+00 0.  1.
         21   -1    0    0  501  502 -0.00000000000E+00 -0.00000000000E+00 -0.31777748770E+02  0.31777748770E+02  0.00000000000E+00 0.  1.
         25    1    1    2    0    0 -0.21608546836E+03 -0.80460045341E+02  0.73867739659E+03  0.78385970988E+03  0.12500000000E+03 0.  0.
         21    1    1    2  503  502  0.12511844274E+03  0.57264201171E+02  0.74157881620E+03  0.75423666981E+03  0.00000000000E+00 0.  1.
         21    1    1    2  504  503  0.90967025616E+02  0.23195844170E+02  0.76814295433E+03  0.77385828498E+03  0.00000000000E+00 0.  1.
<mgrwt>
<rscale>  4 0.26228181E+03</rscale>
<asrwt>0</asrwt>
<pdfrwt beam="1">  1       21 0.35079632E+00 0.26228181E+03</pdfrwt>
<pdfrwt beam="2">  1       21 0.48888862E-02 0.26228181E+03</pdfrwt>
<totfact> 0.44778849E+03</totfact>
</mgrwt>
</event>
<event>
 5    0  0.1467858E+000  0.2495364E+03  0.7546771E-02  0.1113598E+00
         21   -1    0    0  504  501  0.00000000000E+00  0.00000000000E+00  0.26546403266E+03  0.26546403266E+03  0.00000000000E+00 0. -1.
         21   -1    0    0  501  502 -0.00000000000E+00 -0.00000000000E+00 -0.11364307049E+04  0.11364307049E+04  0.00000000000E+00 0.  1.
         25    1    1    2    0    0  0.21742002663E+02  0.22321349963E+03 -0.10487857604E+04  0.10797562468E+04  0.12500000000E+03 0.  0.
         21    1    1    2  503  502 -0.31752041656E+02 -0.60937531890E+02  0.13889056235E+03  0.15495858560E+03  0.00000000000E+00 0. -1.
         21    1    1    2  504  503  0.10010038993E+02 -0.16227596774E+03  0.38928525831E+02  0.16717990522E+03  0.00000000000E+00 0.  1.
<mgrwt>
<rscale>  4 0.24953639E+03</rscale>
<asrwt>0</asrwt>
<pdfrwt beam="1">  1       21 0.40840621E-01 0.24953639E+03</pdfrwt>
<pdfrwt beam="2">  1       21 0.17483549E+00 0.24953639E+03</pdfrwt>
<totfact> 0.10799336E+03</totfact>
</mgrwt>
</event>
<event>
 5    0  0.1467858E+000  0.2488200E+03  0.7546771E-02  0.1114053E+00
         21   -1    0    0  504  501  0.00000000000E+00  0.00000000000E+00  0.42336827860E+03  0.42336827860E+03  0.00000000000E+00 0. -1.
         21   -1    0    0  501  502 -0.00000000000E+00 -0.00000000000E+00 -0.21241950816E+03  0.21241950816E+03  0.00000000000E+00 0. -1.
         25    1    1    2    0    0 -0.19826046488E+02 -0.22092061956E+03 -0.59231426366E+02  0.26140457941E+03  0.12500000000E+03 0.  0.
         21    1    1    2  503  502  0.42933564299E+01  0.20217122683E+03  0.15004024226E+03  0.25180093758E+03  0.00000000000E+00 0. -1.
         21    1    1    2  504  503  0.15532690058E+02  0.18749392729E+02  0.12013995454E+03  0.12258226978E+03  0.00000000000E+00 0. -1.
<mgrwt>
<rscale>  4 0.24881998E+03</rscale>
<asrwt>0</asrwt>
<pdfrwt beam="1">  1       21 0.65133581E-01 0.24881998E+03</pdfrwt>
<pdfrwt beam="2">  1       21 0.32679924E-01 0.24881998E+03</pdfrwt>
<totfact> 0.18954018E+04</totfact>
</mgrwt>
</event>
<event>
 5    0  0.1467858E+000  0.2388784E+03  0.7546771E-02  0.1120542E+00
         21   -1    0    0  504  501  0.00000000000E+00  0.00000000000E+00  0.56150860482E+03  0.56150860482E+03  0.00000000000E+00 0.  1.
         21   -1    0    0  501  502 -0.00000000000E+00 -0.00000000000E+00 -0.14631888029E+03  0.14631888029E+03  0.00000000000E+00 0.  1.
         25    1    1    2    0    0  0.11474863539E+03  0.16813878446E+03 -0.50194706104E+01  0.23893115169E+03  0.12500000000E+03 0.  0.
         21    1    1    2  503  502 -0.37162705932E+01 -0.20399163687E+02  0.24082164950E+02  0.31778722677E+02  0.00000000000E+00 0.  1.
         21    1    1    2  504  503 -0.11103236479E+03 -0.14773962078E+03  0.39612703018E+03  0.43711761074E+03  0.00000000000E+00 0.  1.
<mgrwt>
<rscale>  4 0.23887842E+03</rscale>
<asrwt>0</asrwt>
<pdfrwt beam="1">  1       21 0.86385938E-01 0.23887842E+03</pdfrwt>
<pdfrwt beam="2">  1       21 0.22510597E-01 0.23887842E+03</pdfrwt>
<totfact> 0.20793440E+04</totfact>
</mgrwt>
</event>
<event>
 5    0  0.1467858E+000  0.3735090E+03  0.7546771E-02  0.1053359E+00
         21   -1    0    0  504  501  0.00000000000E+00  0.00000000000E+00  0.12554888932E+03  0.12554888932E+03  0.00000000000E+00 0.  1.
         21   -1    0    0  501  502 -0.00000000000E+00 -0.00000000000E+00 -0.22226157683E+04  0.22226157683E+04  0.00000000000E+00 0.  1.
         25    1    1    2    0    0 -0.39524092171E+02  0.37305485094E+03 -0.17678543841E+04  0.18115369715E+04  0.12500000000E+03 0.  0.
         21    1    1    2  503  502 -0.45899709862E+01 -0.25977965900E+03 -0.10235761964E+03  0.27925547687E+03  0.00000000000E+00 0.  1.
         21    1    1    2  504  503  0.44114063157E+02 -0.11327519194E+03 -0.22685487522E+03  0.25737220924E+03  0.00000000000E+00 0.  1.
<mgrwt>
<rscale>  4 0.37350902E+03</rscale>
<asrwt>0</asrwt>
<pdfrwt beam="1">  1       21 0.19315214E-01 0.37350902E+03</pdfrwt>
<pdfrwt beam="2">  1       21 0.34194089E+00 0.37350902E+03</pdfrwt>
<totfact> 0.39605776E+02</totfact>
</mgrwt>
</event>
<event>
 5    0  0.1467858E+000  0.2765100E+03  0.7546771E-02  0.1097610E+00
         21   -1    0    0  504  501  0.00000000000E+00  0.00000000000E+00  0.42423190333E+03  0.42423190333E+03  0.00000000000E+00 0.  1.
         21   -1    0    0  501  502 -0.00000000000E+00 -0.00000000000E+00 -0.28328483042E+03  0.28328483042E+03  0.00000000000E+00 0.  1.
         25    1    1    2    0    0 -0.13069557193E+03  0.21382874019E+03 -0.58619156463E+02  0.28612107255E+03  0.12500000000E+03 0.  0.
         21    1    1    2  503  502 -0.63188519331E+02 -0.56671102711E+02  0.14173139388E+03  0.16520348323E+03  0.00000000000E+00 0.  1.
         21    1    1    2  504  503  0.19388409126E+03 -0.15715763748E+03  0.57834835485E+02  0.25619217798E+03  0.00000000000E+00 0.  1.
<mgrwt>
<rscale>  4 0.27651003E+03</rscale>
<asrwt>0</asrwt>
<pdfrwt beam="1">  1       21 0.65266447E-01 0.27651003E+03</pdfrwt>
<pdfrwt beam="2">  1       21 0.43582281E-01 0.27651003E+03</pdfrwt>
<totfact> 0.10406196E+04</totfact>
</mgrwt>
</event>
<event>
 5    0  0.1467858E+000  0.3645044E+03  0.7546771E-02  0.1057776E+00
         21   -1    0    0  504  501  0.00000000000E+00  0.00000000000E+00  0.56647722388E+03  0.56647722388E+03  0.00000000000E+00 0.  1.
         21   -1    0    0  501  502 -0.00000000000E+00 -0.00000000000E+00 -0.37699612990E+03  0.37699612990E+03  0.00000000000E+00 0.  1.
         25    1    1    2    0    0  0.31726596902E+02  0.33050993156E+03 -0.20225700559E+03  0.40838252671E+03  0.12500000000E+03 0.  0.
         21    1    1    2  503  502  0.28045206274E+02 -0.26728409466E+03  0.24068837745E+03  0.36077446680E+03  0.00000000000E+00 0.  1.
         21    1    1    2  504  503 -0.59771803176E+02 -0.63225836906E+02  0.15104972211E+03  0.17431636027E+03  0.00000000000E+00 0.  1.
<mgrwt>
<rscale>  4 0.36204843E+03</rscale>
<asrwt>0</asrwt>
<pdfrwt beam="1">  1       21 0.87150342E-01 0.36450440E+03</pdfrwt>
<pdfrwt beam="2">  1       21 0.57999404E-01 0.36450440E+03</pdfrwt>
<totfact> 0.28349020E+03</totfact>
</mgrwt>
</event>
<event>
 5    0  0.1467858E+000  0.2566193E+03  0.7546771E-02  0.1109192E+00
         21   -1    0    0  504  501  0.00000000000E+00  0.00000000000E+00  0.47568754899E+03  0.47568754899E+03  0.00000000000E+00 0.  1.
         21   -1    0    0  501  502 -0.00000000000E+00 -0.00000000000E+00 -0.13317900249E+03  0.13317900249E+03  0.00000000000E+00 0.  1.
         25    1    1    2    0    0  0.63537770910E+02  0.21492192915E+03  0.11607575502E+03  0.28165060778E+03  0.12500000000E+03 0.  0.
         21    1    1    2  503  502 -0.44346367343E+02 -0.18483991076E+03  0.22036570366E+03  0.29102136735E+03  0.00000000000E+00 0.  1.
         21    1    1    2  504  503 -0.19191403567E+02 -0.30082018396E+02  0.60670878241E+01  0.36194576338E+02  0.00000000000E+00 0. -1.
<mgrwt>
<rscale>  4 0.25661934E+03</rscale>
<asrwt>0</asrwt>
<pdfrwt beam="1">  1       21 0.73182699E-01 0.25661934E+03</pdfrwt>
<pdfrwt beam="2">  1       21 0.20489077E-01 0.25661934E+03</pdfrwt>
<totfact> 0.35927995E+04</totfact>
</mgrwt>
</event>
<event>
 5    0  0.1467858E+000  0.2871432E+03  0.7546771E-02  0.1092030E+00
         21   -1    0    0  504  501  0.00000000000E+00  0.00000000000E+00  0.38008442197E+03  0.38008442197E+03  0.00000000000E+00 0.  1.
         21   -1    0    0  501  502 -0.00000000000E+00 -0.00000000000E+00 -0.22027638934E+03  0.22027638934E+03  0.00000000000E+00 0.  1.
         25    1    1    2    0    0  0.20103155793E+02  0.25620914956E+03  0.37420218179E+02  0.28822306972E+03  0.12500000000E+03 0.  0.
         21    1    1    2  503  502 -0.49928420110E+02 -0.85229584306E+02 -0.16810074520E+01  0.98791472110E+02  0.00000000000E+00 0.  1.
         21    1    1    2  504  503  0.29825264317E+02 -0.17097956526E+03  0.12406882190E+03  0.21334626947E+03  0.00000000000E+00 0.  1.
<mgrwt>
<rscale>  4 0.28680266E+03</rscale>
<asrwt>0</asrwt>
<pdfrwt beam="1">  1       21 0.58474526E-01 0.28714316E+03</pdfrwt>
<pdfrwt beam="2">  1       21 0.33888675E-01 0.28714316E+03</pdfrwt>
<totfact> 0.21916636E+04</totfact>
</mgrwt>
</event>
<event>
 5    0  0.1467858E+000  0.3279437E+03  0.7546771E-02  0.1072050E+00
         21   -1    0    0  504  501  0.00000000000E+00  0.00000000000E+00  0.40643148923E+03  0.40643148923E+03  0.00000000000E+00 0.  1.
         21   -1    0    0  501  502 -0.00000000000E+00 -0.00000000000E+00 -0.42382069512E+03  0.42382069512E+03  0.00000000000E+00 0.  1.
         25    1    1    2    0    0 -0.24973352229E+03  0.17191638232E+03 -0.26987198346E+03  0.42470926776E+03  0.12500000000E+03 0.  0.
         21    1    1    2  503  502  0.24794877900E+03 -0.13884748988E+03  0.22860050319E+03  0.36471278085E+03  0.00000000000E+00 0.  1.
         21    1    1    2  504  503  0.17847432888E+01 -0.33068892435E+02  0.23882274377E+02  0.40830135744E+02  0.00000000000E+00 0. -1.
<mgrwt>
<rscale>  4 0.32794371E+03</rscale>
<asrwt>0</asrwt>
<pdfrwt beam="1">  1       21 0.62527922E-01 0.32794371E+03</pdfrwt>
<pdfrwt beam="2">  1       21 0.65203184E-01 0.32794371E+03</pdfrwt>
<totfact> 0.47279110E+03</totfact>
</mgrwt>
</event>
<event>
 5    0  0.1467858E+000  0.3180656E+03  0.7546771E-02  0.1076543E+00
         21   -1    0    0  504  501  0.00000000000E+00  0.00000000000E+00  0.22458088309E+03  0.22458088309E+03  0.00000000000E+00 0.  1.
         21   -1    0    0  501  502 -0.00000000000E+00 -0.00000000000E+00 -0.53036713058E+03  0.53036713058E+03  0.00000000000E+00 0.  1.
         25    1    1    2    0    0  0.29243491777E+03  0.47448669683E+01 -0.33192295660E+03  0.45971572086E+03  0.12500000000E+03 0.  0.
         21    1    1    2  503  502 -0.20422873302E+02  0.18135974506E+01 -0.57107942104E+01  0.21283704098E+02  0.00000000000E+00 0.  1.
         21    1    1    2  504  503 -0.27201204446E+03 -0.65584644190E+01  0.31847503323E+02  0.27394858871E+03  0.00000000000E+00 0.  1.
<mgrwt>
<rscale>  4 0.31806555E+03</rscale>
<asrwt>0</asrwt>
<pdfrwt beam="1">  1       21 0.34550905E-01 0.31806555E+03</pdfrwt>
<pdfrwt beam="2">  1       21 0.81594944E-01 0.31806555E+03</pdfrwt>
<totfact> 0.99117189E+03</totfact>
</mgrwt>
</event>
<event>
 5    0  0.1467858E+000  0.2085643E+03  0.7546771E-02  0.1142708E+00
         21   -1    0    0  504  501  0.00000000000E+00  0.00000000000E+00  0.31313881246E+03  0.31313881246E+03  0.00000000000E+00 0.  1.
         21   -1    0    0  501  502 -0.00000000000E+00 -0.00000000000E+00 -0.15784694229E+04  0.15784694229E+04  0.00000000000E+00 0. -1.
         25    1    1    2    0    0 -0.86152319789E+02 -0.18622577748E+03 -0.13791381286E+04  0.13999104400E+04  0.12500000000E+03 0.  0.
         21    1    1    2  503  502  0.49370622209E+02  0.84785428367E+02  0.27823513256E+03  0.29502680589E+03  0.00000000000E+00 0.  1.
         21    1    1    2  504  503  0.36781697580E+02  0.10144034911E+03 -0.16442761440E+03  0.19667098942E+03  0.00000000000E+00 0.  1.
<mgrwt>
<rscale>  4 0.20856427E+03</rscale>
<asrwt>0</asrwt>
<pdfrwt beam="1">  1       21 0.48175202E-01 0.20856427E+03</pdfrwt>
<pdfrwt beam="2">  1       21 0.24284145E+00 0.20856427E+03</pdfrwt>
<totfact> 0.29537842E+02</totfact>
</mgrwt>
</event>
<event>
 5    0  0.1467858E+000  0.2973765E+03  0.7546771E-02  0.1086559E+00
         21   -1    0    0  504  501  0.00000000000E+00  0.00000000000E+00  0.11186774583E+04  0.11186774583E+04  0.00000000000E+00 0.  1.
         21   -1    0    0  501  502 -0.00000000000E+00 -0.00000000000E+00 -0.74157033874E+02  0.74157033874E+02  0.00000000000E+00 0.  1.
         25    1    1    2    0    0  0.18296588906E+03  0.19832107477E+03  0.62419365594E+03  0.69141195056E+03  0.12500000000E+03 0.  0.
         21    1    1    2  503  502 -0.13805855992E+03 -0.17468989630E+03  0.34188728842E+03  0.40799956350E+03  0.00000000000E+00 0.  1.
         21    1    1    2  504  503 -0.44907329141E+02 -0.23631178470E+02  0.78439480060E+02  0.93422978108E+02  0.00000000000E+00 0.  1.
<mgrwt>
<rscale>  4 0.29737647E+03</rscale>
<asrwt>0</asrwt>
<pdfrwt beam="1">  1       21 0.17210421E+00 0.29737647E+03</pdfrwt>
<pdfrwt beam="2">  1       21 0.11408775E-01 0.29737647E+03</pdfrwt>
<totfact> 0.12405135E+04</totfact>
</mgrwt>
</event>
<event>
 5    0  0.1467858E+000  0.2819608E+03  0.7546771E-02  0.1094623E+00
         21   -1    0    0  504  501  0.00000000000E+00  0.00000000000E+00  0.66495306034E+03  0.66495306034E+03  0.00000000000E+00 0.  1.
         21   -1    0    0  501  502 -0.00000000000E+00 -0.00000000000E+00 -0.12450111727E+03  0.12450111727E+03  0.00000000000E+00 0.  1.
         25    1    1    2    0    0  0.16120013024E+02  0.25040292057E+03  0.31215307387E+03  0.41955454827E+03  0.12500000000E+03 0.  0.
         21    1    1    2  503  502 -0.45761889047E+02 -0.25144792592E+03  0.22415835585E+03  0.33995172956E+03  0.00000000000E+00 0.  1.
         21    1    1    2  504  503  0.29641876023E+02  0.10450053493E+01  0.41405133474E+01  0.29947899779E+02  0.00000000000E+00 0.  1.
<mgrwt>
<rscale>  4 0.28196077E+03</rscale>
<asrwt>0</asrwt>
<pdfrwt beam="1">  1       21 0.10230047E+00 0.28196077E+03</pdfrwt>
<pdfrwt beam="2">  1       21 0.19154018E-01 0.28196077E+03</pdfrwt>
<totfact> 0.18544722E+04</totfact>
</mgrwt>
</event>
<event>
 5    0  0.1467858E+000  0.2924830E+03  0.7546771E-02  0.1089060E+00
         21   -1    0    0  504  501  0.00000000000E+00  0.00000000000E+00  0.12572999948E+03  0.12572999948E+03  0.00000000000E+00 0. -1.
         21   -1    0    0  501  502 -0.00000000000E+00 -0.00000000000E+00 -0.67834485766E+03  0.67834485766E+03  0.00000000000E+00 0. -1.
         25    1    1    2    0    0  0.22953737650E+03  0.11232399676E+03 -0.33215138441E+03  0.43732554193E+03  0.12500000000E+03 0.  0.
         21    1    1    2  503  502  0.20124687283E+02 -0.76124702164E+01 -0.24073481384E+02  0.32287540120E+02  0.00000000000E+00 0.  1.
         21    1    1    2  504  503 -0.24966206378E+03 -0.10471152654E+03 -0.19638999239E+03  0.33446177509E+03  0.00000000000E+00 0. -1.
<mgrwt>
<rscale>  4 0.29248299E+03</rscale>
<asrwt>0</asrwt>
<pdfrwt beam="1">  1       21 0.19343077E-01 0.29248299E+03</pdfrwt>
<pdfrwt beam="2">  1       21 0.10436075E+00 0.29248299E+03</pdfrwt>
<totfact> 0.17267441E+04</totfact>
</mgrwt>
</event>
<event>
 5    0  0.1467858E+000  0.2545974E+03  0.7546771E-02  0.1110433E+00
         21   -1    0    0  504  501  0.00000000000E+00  0.00000000000E+00  0.88463533292E+03  0.88463533292E+03  0.00000000000E+00 0.  1.
         21   -1    0    0  501  502 -0.00000000000E+00 -0.00000000000E+00 -0.73042712767E+02  0.73042712767E+02  0.00000000000E+00 0.  1.
         25    1    1    2    0    0 -0.43861556514E+02  0.21741897258E+03  0.28637767152E+03  0.38318666016E+03  0.12500000000E+03 0.  0.
         21    1    1    2  503  502 -0.10041219748E+02 -0.38577900925E+02  0.15204714507E+03  0.15718592449E+03  0.00000000000E+00 0.  1.
         21    1    1    2  504  503  0.53902776262E+02 -0.17884107165E+03  0.37316780356E+03  0.41730546104E+03  0.00000000000E+00 0.  1.
<mgrwt>
<rscale>  4 0.25459742E+03</rscale>
<asrwt>0</asrwt>
<pdfrwt beam="1">  1       21 0.13609774E+00 0.25459742E+03</pdfrwt>
<pdfrwt beam="2">  1       21 0.11237341E-01 0.25459742E+03</pdfrwt>
<totfact> 0.24511745E+04</totfact>
</mgrwt>
</event>
<event>
 5    0  0.1467858E+000  0.3134924E+03  0.7546771E-02  0.1078684E+00
         21   -1    0    0  504  501  0.00000000000E+00  0.00000000000E+00  0.71747741752E+03  0.71747741752E+03  0.00000000000E+00 0.  1.
         21   -1    0    0  501  502 -0.00000000000E+00 -0.00000000000E+00 -0.16972751993E+03  0.16972751993E+03  0.00000000000E+00 0.  1.
         25    1    1    2    0    0  0.26238346548E+03 -0.12562746687E+03  0.86758026338E+02  0.32829757618E+03  0.12500000000E+03 0.  0.
         21    1    1    2  503  502 -0.23804580773E+03  0.14956783828E+03  0.42214929248E+03  0.50719460759E+03  0.00000000000E+00 0.  1.
         21    1    1    2  504  503 -0.24337657754E+02 -0.23940371415E+02  0.38842578761E+02  0.51712753681E+02  0.00000000000E+00 0. -1.
<mgrwt>
<rscale>  4 0.31349244E+03</rscale>
<asrwt>0</asrwt>
<pdfrwt beam="1">  1       21 0.11038114E+00 0.31349244E+03</pdfrwt>
<pdfrwt beam="2">  1       21 0.26111927E-01 0.31349244E+03</pdfrwt>
<totfact> 0.84110881E+03</totfact>
</mgrwt>
</event>
<event>
 5    0  0.1467858E+000  0.2482295E+03  0.7546771E-02  0.1114429E+00
         21   -1    0    0  504  501  0.00000000000E+00  0.00000000000E+00  0.18394498857E+03  0.18394498857E+03  0.00000000000E+00 0. -1.
         21   -1    0    0  501  502 -0.00000000000E+00 -0.00000000000E+00 -0.87133926075E+03  0.87133926075E+03  0.00000000000E+00 0. -1.
         25    1    1    2    0    0 -0.21389976315E+03  0.15484083613E+02 -0.77741002697E+03  0.81607855967E+03  0.12500000000E+03 0.  0.
         21    1    1    2  503  502  0.68089492203E+02 -0.14052972692E+02  0.34094313261E+01  0.69608111682E+02  0.00000000000E+00 0. -1.
         21    1    1    2  504  503  0.14581027095E+03 -0.14311109210E+01  0.86606323460E+02  0.16959757798E+03  0.00000000000E+00 0. -1.
<mgrwt>
<rscale>  4 0.24822946E+03</rscale>
<asrwt>0</asrwt>
<pdfrwt beam="1">  1       21 0.28299228E-01 0.24822946E+03</pdfrwt>
<pdfrwt beam="2">  1       21 0.13405220E+00 0.24822946E+03</pdfrwt>
<totfact> 0.45780062E+03</totfact>
</mgrwt>
</event>
<event>
 5    0  0.1467858E+000  0.4489989E+03  0.7546771E-02  0.1028021E+00
         21   -1    0    0  504  501  0.00000000000E+00  0.00000000000E+00  0.16083047837E+04  0.16083047837E+04  0.00000000000E+00 0. -1.
         21   -1    0    0  501  502 -0.00000000000E+00 -0.00000000000E+00 -0.17179488645E+03  0.17179488645E+03  0.00000000000E+00 0.  1.
         25    1    1    2    0    0 -0.32363061610E+03 -0.28502322417E+03  0.24457191351E+03  0.51128801558E+03  0.12500000000E+03 0.  0.
         21    1    1    2  503  502  0.43410871490E+02  0.28551909617E+02  0.19956895254E+03  0.20622192445E+03  0.00000000000E+00 0.  1.
         21    1    1    2  504  503  0.28021974461E+03  0.25647131456E+03  0.99236903125E+03  0.10625897302E+04  0.00000000000E+00 0. -1.
<mgrwt>
<rscale>  4 0.44899890E+03</rscale>
<asrwt>0</asrwt>
<pdfrwt beam="1">  1       21 0.24743149E+00 0.44899890E+03</pdfrwt>
<pdfrwt beam="2">  1       21 0.26429984E-01 0.44899890E+03</pdfrwt>
<totfact> 0.76726705E+02</totfact>
</mgrwt>
</event>
<event>
 5    0  0.1467858E+000  0.2724339E+03  0.7546771E-02  0.1099895E+00
         21   -1    0    0  504  501  0.00000000000E+00  0.00000000000E+00  0.10042506316E+03  0.10042506316E+03  0.00000000000E+00 0.  1.
         21   -1    0    0  501  502 -0.00000000000E+00 -0.00000000000E+00 -0.73367760822E+03  0.73367760822E+03  0.00000000000E+00 0.  1.
         25    1    1    2    0    0  0.18271302014E+03 -0.15878035654E+03 -0.45552865140E+03  0.53077923998E+03  0.12500000000E+03 0.  0.
         21    1    1    2  503  502 -0.32119155711E+02  0.16951096483E+02 -0.11963497046E+02  0.38237482882E+02  0.00000000000E+00 0.  1.
         21    1    1    2  504  503 -0.15059386443E+03  0.14182926005E+03 -0.16576039662E+03  0.26508594851E+03  0.00000000000E+00 0.  1.
<mgrwt>
<rscale>  4 0.27243394E+03</rscale>
<asrwt>0</asrwt>
<pdfrwt beam="1">  1       21 0.15450010E-01 0.27243394E+03</pdfrwt>
<pdfrwt beam="2">  1       21 0.11287347E+00 0.27243394E+03</pdfrwt>
<totfact> 0.21845086E+04</totfact>
</mgrwt>
</event>
<event>
 5    0  0.1467858E+000  0.2564640E+03  0.7546771E-02  0.1109287E+00
         21   -1    0    0  504  501  0.00000000000E+00  0.00000000000E+00  0.13006229443E+03  0.13006229443E+03  0.00000000000E+00 0.  1.
         21   -1    0    0  501  502 -0.00000000000E+00 -0.00000000000E+00 -0.46212003724E+03  0.46212003724E+03  0.00000000000E+00 0.  1.
         25    1    1    2    0    0 -0.28481027726E+02  0.22212071307E+03 -0.14204550628E+03  0.29317350831E+03  0.12500000000E+03 0.  0.
         21    1    1    2  503  502  0.44949934585E+02 -0.15869175024E+03 -0.14382201117E+03  0.21883404468E+03  0.00000000000E+00 0.  1.
         21    1    1    2  504  503 -0.16468906859E+02 -0.63428962839E+02 -0.46190225352E+02  0.80174778691E+02  0.00000000000E+00 0.  1.
<mgrwt>
<rscale>  4 0.25646399E+03</rscale>
<asrwt>0</asrwt>
<pdfrwt beam="1">  1       21 0.20009584E-01 0.25646399E+03</pdfrwt>
<pdfrwt beam="2">  1       21 0.71095390E-01 0.25646399E+03</pdfrwt>
<totfact> 0.40076637E+04</totfact>
</mgrwt>
</event>
<event>
 5    0  0.1467858E+000  0.2288426E+03  0.7546771E-02  0.1127457E+00
         21   -1    0    0  504  501  0.00000000000E+00  0.00000000000E+00  0.48549891830E+03  0.48549891830E+03  0.00000000000E+00 0. -1.
         21   -1    0    0  501  502 -0.00000000000E+00 -0.00000000000E+00 -0.13411453149E+03  0.13411453149E+03  0.00000000000E+00 0. -1.
         25    1    1    2    0    0  0.12369663152E+03 -0.15975342210E+03  0.61312082042E+02  0.24536948451E+03  0.12500000000E+03 0.  0.
         21    1    1    2  503  502 -0.56858444115E+02 -0.65374051103E+01  0.71926175166E+02  0.91918414949E+02  0.00000000000E+00 0. -1.
         21    1    1    2  504  503 -0.66838187402E+02  0.16629082721E+03  0.21814612961E+03  0.28232555034E+03  0.00000000000E+00 0. -1.
<mgrwt>
<rscale>  4 0.22884260E+03</rscale>
<asrwt>0</asrwt>
<pdfrwt beam="1">  1       21 0.74692141E-01 0.22884260E+03</pdfrwt>
<pdfrwt beam="2">  1       21 0.20633005E-01 0.22884260E+03</pdfrwt>
<totfact> 0.34294771E+04</totfact>
</mgrwt>
</event>
<event>
 5    0  0.1467858E+000  0.2600267E+03  0.7546771E-02  0.1107127E+00
         21   -1    0    0  504  501  0.00000000000E+00  0.00000000000E+00  0.48988152902E+03  0.48988152902E+03  0.00000000000E+00 0.  1.
         21   -1    0    0  501  502 -0.00000000000E+00 -0.00000000000E+00 -0.41087550121E+03  0.41087550121E+03  0.00000000000E+00 0.  1.
         25    1    1    2    0    0 -0.74364125124E+02 -0.29980536689E+03 -0.12641959738E+03  0.35639892778E+03  0.12500000000E+03 0.  0.
         21    1    1    2  503  502 -0.62686204010E+02  0.12832999669E+03 -0.95549072899E+02  0.17183647330E+03  0.00000000000E+00 0.  1.
         21    1    1    2  504  503  0.13705032913E+03  0.17147537020E+03  0.30097469808E+03  0.37252162916E+03  0.00000000000E+00 0.  1.
<mgrwt>
<rscale>  4 0.26002669E+03</rscale>
<asrwt>0</asrwt>
<pdfrwt beam="1">  1       21 0.75366390E-01 0.26002669E+03</pdfrwt>
<pdfrwt beam="2">  1       21 0.63211615E-01 0.26002669E+03</pdfrwt>
<totfact> 0.34672777E+03</totfact>
</mgrwt>
</event>
<event>
 5    0  0.1467858E+000  0.5166344E+03  0.7546771E-02  0.1009526E+00
         21   -1    0    0  504  501  0.00000000000E+00  0.00000000000E+00  0.10064344989E+04  0.10064344989E+04  0.00000000000E+00 0.  1.
         21   -1    0    0  501  502 -0.00000000000E+00 -0.00000000000E+00 -0.44825227038E+03  0.44825227038E+03  0.00000000000E+00 0. -1.
         25    1    1    2    0    0 -0.81003918814E+02 -0.49469638320E+03 -0.18975704514E+03  0.55038067062E+03  0.12500000000E+03 0.  0.
         21    1    1    2  503  502  0.83116351924E+02  0.43461030616E+03  0.69655246666E+03  0.82521499319E+03  0.00000000000E+00 0.  1.
         21    1    1    2  504  503 -0.21124331094E+01  0.60086077041E+02  0.51386806991E+02  0.79091105445E+02  0.00000000000E+00 0. -1.
<mgrwt>
<rscale>  4 0.51663444E+03</rscale>
<asrwt>0</asrwt>
<pdfrwt beam="1">  1       21 0.15483608E+00 0.51663444E+03</pdfrwt>
<pdfrwt beam="2">  1       21 0.68961888E-01 0.51663444E+03</pdfrwt>
<totfact> 0.42414346E+02</totfact>
</mgrwt>
</event>
<event>
 5    0  0.1467858E+000  0.2611481E+03  0.7546771E-02  0.1106455E+00
         21   -1    0    0  504  501  0.00000000000E+00  0.00000000000E+00  0.49303578511E+03  0.49303578511E+03  0.00000000000E+00 0. -1.
         21   -1    0    0  501  502 -0.00000000000E+00 -0.00000000000E+00 -0.13124049241E+03  0.13124049241E+03  0.00000000000E+00 0. -1.
         25    1    1    2    0    0  0.11309822649E+03 -0.19945461902E+03  0.12231517783E+03  0.28837364063E+03  0.12500000000E+03 0.  0.
         21    1    1    2  503  502 -0.32795919509E+02  0.64418866402E+02  0.42185270853E+02  0.83695637651E+02  0.00000000000E+00 0. -1.
         21    1    1    2  504  503 -0.80302306981E+02  0.13503575262E+03  0.19729484402E+03  0.25220699924E+03  0.00000000000E+00 0. -1.
<mgrwt>
<rscale>  4 0.26114815E+03</rscale>
<asrwt>0</asrwt>
<pdfrwt beam="1">  1       21 0.75851658E-01 0.26114815E+03</pdfrwt>
<pdfrwt beam="2">  1       21 0.20190845E-01 0.26114815E+03</pdfrwt>
<totfact> 0.34012783E+04</totfact>
</mgrwt>
</event>
<event>
 5    0  0.1467858E+000  0.2653754E+03  0.7546771E-02  0.1103956E+00
         21   -1    0    0  504  501  0.00000000000E+00  0.00000000000E+00  0.52342992048E+02  0.52342992048E+02  0.00000000000E+00 0. -1.
         21   -1    0    0  501  502 -0.00000000000E+00 -0.00000000000E+00 -0.13018059364E+04  0.13018059364E+04  0.00000000000E+00 0. -1.
         25    1    1    2    0    0  0.23245667537E+03  0.27622680226E+02 -0.79863103142E+03  0.84156737266E+03  0.12500000000E+03 0.  0.
         21    1    1    2  503  502 -0.20019089465E+03 -0.37337288587E+01 -0.40401397085E+03  0.45090755558E+03  0.00000000000E+00 0. -1.
         21    1    1    2  504  503 -0.32265780721E+02 -0.23888951367E+02 -0.46817942131E+02  0.61674000262E+02  0.00000000000E+00 0.  1.
<mgrwt>
<rscale>  4 0.26537543E+03</rscale>
<asrwt>0</asrwt>
<pdfrwt beam="1">  1       21 0.80527679E-02 0.26537543E+03</pdfrwt>
<pdfrwt beam="2">  1       21 0.20027784E+00 0.26537543E+03</pdfrwt>
<totfact> 0.15085193E+04</totfact>
</mgrwt>
</event>
<event>
 5    0  0.1467858E+000  0.2728482E+03  0.7546771E-02  0.1099660E+00
         21   -1    0    0  504  501  0.00000000000E+00  0.00000000000E+00  0.10969828583E+04  0.10969828583E+04  0.00000000000E+00 0.  1.
         21   -1    0    0  501  502 -0.00000000000E+00 -0.00000000000E+00 -0.10311467479E+03  0.10311467479E+03  0.00000000000E+00 0. -1.
         25    1    1    2    0    0  0.23527037779E+03  0.58898275154E+02  0.13534009041E+03  0.30457034911E+03  0.12500000000E+03 0.  0.
         21    1    1    2  503  502 -0.18103050915E+03 -0.63776714618E+02  0.74907882574E+03  0.77327782959E+03  0.00000000000E+00 0.  1.
         21    1    1    2  504  503 -0.54239868643E+02  0.48784394640E+01  0.10944926738E+03  0.12224935440E+03  0.00000000000E+00 0.  1.
<mgrwt>
<rscale>  4 0.27284823E+03</rscale>
<asrwt>0</asrwt>
<pdfrwt beam="1">  1       21 0.16876659E+00 0.27284823E+03</pdfrwt>
<pdfrwt beam="2">  1       21 0.15863797E-01 0.27284823E+03</pdfrwt>
<totfact> 0.72854582E+03</totfact>
</mgrwt>
</event>
<event>
 5    0  0.1467858E+000  0.3171649E+03  0.7546771E-02  0.1076962E+00
         21   -1    0    0  504  501  0.00000000000E+00  0.00000000000E+00  0.34864374735E+03  0.34864374735E+03  0.00000000000E+00 0.  1.
         21   -1    0    0  501  502 -0.00000000000E+00 -0.00000000000E+00 -0.66720914451E+03  0.66720914451E+03  0.00000000000E+00 0. -1.
         25    1    1    2    0    0  0.15908049655E+03 -0.24842287967E+03 -0.54155251264E+03  0.62922544090E+03  0.12500000000E+03 0.  0.
         21    1    1    2  503  502 -0.13761258961E+02  0.17374985158E+02  0.70650977066E+02  0.74046086445E+02  0.00000000000E+00 0.  1.
         21    1    1    2  504  503 -0.14531923759E+03  0.23104789452E+03  0.15233613842E+03  0.31258136451E+03  0.00000000000E+00 0.  1.
<mgrwt>
<rscale>  4 0.31716494E+03</rscale>
<asrwt>0</asrwt>
<pdfrwt beam="1">  1       21 0.53637501E-01 0.31716494E+03</pdfrwt>
<pdfrwt beam="2">  1       21 0.10264756E+00 0.31716494E+03</pdfrwt>
<totfact> 0.23259062E+03</totfact>
</mgrwt>
</event>
<event>
 5    0  0.1467858E+000  0.3359637E+03  0.7546771E-02  0.1068528E+00
         21   -1    0    0  504  501  0.00000000000E+00  0.00000000000E+00  0.32714127729E+03  0.32714127729E+03  0.00000000000E+00 0. -1.
         21   -1    0    0  501  502 -0.00000000000E+00 -0.00000000000E+00 -0.76667441892E+03  0.76667441892E+03  0.00000000000E+00 0. -1.
         25    1    1    2    0    0 -0.28199827912E+03 -0.13313000903E+03 -0.63656321001E+03  0.71978076458E+03  0.12500000000E+03 0.  0.
         21    1    1    2  503  502  0.21346198354E+03  0.80392753219E+02  0.11766986773E+03  0.25666166632E+03  0.00000000000E+00 0. -1.
         21    1    1    2  504  503  0.68536295579E+02  0.52737255807E+02  0.79360200651E+02  0.11737326531E+03  0.00000000000E+00 0. -1.
<mgrwt>
<rscale>  4 0.33596373E+03</rscale>
<asrwt>0</asrwt>
<pdfrwt beam="1">  1       21 0.50329428E-01 0.33596373E+03</pdfrwt>
<pdfrwt beam="2">  1       21 0.11794991E+00 0.33596373E+03</pdfrwt>
<totfact> 0.18728202E+03</totfact>
</mgrwt>
</event>
<event>
 5    0  0.1467858E+000  0.2558493E+03  0.7546771E-02  0.1109663E+00
         21   -1    0    0  504  501  0.00000000000E+00  0.00000000000E+00  0.84564596138E+02  0.84564596138E+02  0.00000000000E+00 0.  1.
         21   -1    0    0  501  502 -0.00000000000E+00 -0.00000000000E+00 -0.12921945886E+04  0.12921945886E+04  0.00000000000E+00 0.  1.
         25    1    1    2    0    0  0.94953498412E+02 -0.22533501223E+03 -0.81013093768E+03  0.85541169667E+03  0.12500000000E+03 0.  0.
         21    1    1    2  503  502  0.74760508366E+02  0.10555718230E+03 -0.16264403355E+03  0.20780888816E+03  0.00000000000E+00 0.  1.
         21    1    1    2  504  503 -0.16971400678E+03  0.11977782993E+03 -0.23485502121E+03  0.31353859990E+03  0.00000000000E+00 0.  1.
<mgrwt>
<rscale>  4 0.25584925E+03</rscale>
<asrwt>0</asrwt>
<pdfrwt beam="1">  1       21 0.13009938E-01 0.25584925E+03</pdfrwt>
<pdfrwt beam="2">  1       21 0.19879917E+00 0.25584925E+03</pdfrwt>
<totfact> 0.66012167E+03</totfact>
</mgrwt>
</event>
<event>
 5    0  0.1467858E+000  0.3887346E+03  0.7546771E-02  0.1047752E+00
         21   -1    0    0  504  501  0.00000000000E+00  0.00000000000E+00  0.98689351339E+02  0.98689351339E+02  0.00000000000E+00 0.  1.
         21   -1    0    0  501  502 -0.00000000000E+00 -0.00000000000E+00 -0.21615793128E+04  0.21615793128E+04  0.00000000000E+00 0.  1.
         25    1    1    2    0    0  0.29473730650E+03  0.22520554233E+03 -0.15526986560E+04  0.16012762823E+04  0.12500000000E+03 0.  0.
         21    1    1    2  503  502  0.22803393643E+02 -0.48723712076E+02 -0.68014598899E+02  0.86717821372E+02  0.00000000000E+00 0.  1.
         21    1    1    2  504  503 -0.31754070014E+03 -0.17648183025E+03 -0.44217670659E+03  0.57227456042E+03  0.00000000000E+00 0.  1.
<mgrwt>
<rscale>  4 0.38873459E+03</rscale>
<asrwt>0</asrwt>
<pdfrwt beam="1">  1       21 0.15182978E-01 0.38873459E+03</pdfrwt>
<pdfrwt beam="2">  1       21 0.33255065E+00 0.38873459E+03</pdfrwt>
<totfact> 0.70011212E+02</totfact>
</mgrwt>
</event>
<event>
 5    0  0.1467858E+000  0.5801322E+03  0.7546771E-02  0.9948312E-01
         21   -1    0    0  504  501  0.00000000000E+00  0.00000000000E+00  0.18665538779E+04  0.18665538779E+04  0.00000000000E+00 0. -1.
         21   -1    0    0  501  502 -0.00000000000E+00 -0.00000000000E+00 -0.19973500724E+03  0.19973500724E+03  0.00000000000E+00 0. -1.
         25    1    1    2    0    0  0.56202445179E+03 -0.57718566835E+02  0.50641877012E+03  0.76895246153E+03  0.12500000000E+03 0.  0.
         21    1    1    2  503  502 -0.12733716296E+03 -0.10213338784E+02  0.16209859601E+03  0.20638561042E+03  0.00000000000E+00 0.  1.
         21    1    1    2  504  503 -0.43468728883E+03  0.67931905619E+02  0.99830150456E+03  0.10909508132E+04  0.00000000000E+00 0. -1.
<mgrwt>
<rscale>  4 0.57975960E+03</rscale>
<asrwt>0</asrwt>
<pdfrwt beam="1">  1       21 0.28716212E+00 0.58013223E+03</pdfrwt>
<pdfrwt beam="2">  1       21 0.30728464E-01 0.58013223E+03</pdfrwt>
<totfact> 0.30603397E+02</totfact>
</mgrwt>
</event>
<event>
 5    0  0.1467858E+000  0.2379482E+03  0.7546771E-02  0.1121167E+00
         21   -1    0    0  504  501  0.00000000000E+00  0.00000000000E+00  0.81917215265E+03  0.81917215265E+03  0.00000000000E+00 0.  1.
         21   -1    0    0  501  502 -0.00000000000E+00 -0.00000000000E+00 -0.27710218812E+03  0.27710218812E+03  0.00000000000E+00 0. -1.
         25    1    1    2    0    0 -0.19520803530E+03 -0.58918105925E+02 -0.20672631923E+03  0.31613018096E+03  0.12500000000E+03 0.  0.
         21    1    1    2  503  502  0.18066558926E+03  0.36706313642E+02  0.70689983901E+03  0.73054417457E+03  0.00000000000E+00 0.  1.
         21    1    1    2  504  503  0.14542446043E+02  0.22211792283E+02  0.41896444746E+02  0.49599985239E+02  0.00000000000E+00 0. -1.
<mgrwt>
<rscale>  4 0.23794825E+03</rscale>
<asrwt>0</asrwt>
<pdfrwt beam="1">  1       21 0.12602648E+00 0.23794825E+03</pdfrwt>
<pdfrwt beam="2">  1       21 0.42631106E-01 0.23794825E+03</pdfrwt>
<totfact> 0.23816508E+03</totfact>
</mgrwt>
</event>
<event>
 5    0  0.1467858E+000  0.2566498E+03  0.7546771E-02  0.1109173E+00
         21   -1    0    0  504  501  0.00000000000E+00  0.00000000000E+00  0.85821023646E+03  0.85821023646E+03  0.00000000000E+00 0. -1.
         21   -1    0    0  501  502 -0.00000000000E+00 -0.00000000000E+00 -0.51196738716E+03  0.51196738716E+03  0.00000000000E+00 0.  1.
         25    1    1    2    0    0  0.21324982868E+03 -0.69055277118E+02 -0.46281733210E+03  0.52921546049E+03  0.12500000000E+03 0.  0.
         21    1    1    2  503  502 -0.33717688570E+02  0.11856076217E+02  0.20836418523E+03  0.21140738576E+03  0.00000000000E+00 0. -1.
         21    1    1    2  504  503 -0.17953214011E+03  0.57199200901E+02  0.60069599615E+03  0.62955477737E+03  0.00000000000E+00 0. -1.
<mgrwt>
<rscale>  4 0.25664980E+03</rscale>
<asrwt>0</asrwt>
<pdfrwt beam="1">  1       21 0.13203234E+00 0.25664980E+03</pdfrwt>
<pdfrwt beam="2">  1       21 0.78764213E-01 0.25664980E+03</pdfrwt>
<totfact> 0.55643843E+02</totfact>
</mgrwt>
</event>
<event>
 5    0  0.1467858E+000  0.4150523E+03  0.7546771E-02  0.1038689E+00
         21   -1    0    0  504  501  0.00000000000E+00  0.00000000000E+00  0.83987614661E+03  0.83987614661E+03  0.00000000000E+00 0. -1.
         21   -1    0    0  501  502 -0.00000000000E+00 -0.00000000000E+00 -0.86401379469E+03  0.86401379469E+03  0.00000000000E+00 0. -1.
         25    1    1    2    0    0 -0.38943560618E+03 -0.12340655291E+03 -0.73570324520E+03  0.85074880761E+03  0.12500000000E+03 0.  0.
         21    1    1    2  503  502  0.16075913423E+03  0.28391756886E+01  0.10041623131E+03  0.18956523855E+03  0.00000000000E+00 0. -1.
         21    1    1    2  504  503  0.22867647194E+03  0.12056737722E+03  0.61114936580E+03  0.66357589513E+03  0.00000000000E+00 0. -1.
<mgrwt>
<rscale>  4 0.41505234E+03</rscale>
<asrwt>0</asrwt>
<pdfrwt beam="1">  1       21 0.12921172E+00 0.41505234E+03</pdfrwt>
<pdfrwt beam="2">  1       21 0.13292520E+00 0.41505234E+03</pdfrwt>
<totfact> 0.14821461E+02</totfact>
</mgrwt>
</event>
<event>
 5    0  0.1467858E+000  0.1236380E+04  0.7546771E-02  0.9083020E-01
         21   -1    0    0  504  501  0.00000000000E+00  0.00000000000E+00  0.14694484829E+04  0.14694484829E+04  0.00000000000E+00 0. -1.
         21   -1    0    0  501  502 -0.00000000000E+00 -0.00000000000E+00 -0.10724963239E+04  0.10724963239E+04  0.00000000000E+00 0. -1.
         25    1    1    2    0    0  0.99485619254E+03 -0.71180795266E+03 -0.40887635924E+02  0.12303276816E+04  0.12500000000E+03 0.  0.
         21    1    1    2  503  502 -0.12983762694E+03  0.33105974343E+02  0.20363387850E+02  0.13553037472E+03  0.00000000000E+00 0.  1.
         21    1    1    2  504  503 -0.86501856559E+03  0.67870197831E+03  0.41747640707E+03  0.11760867505E+04  0.00000000000E+00 0. -1.
<mgrwt>
<rscale>  4 0.12346937E+04</rscale>
<asrwt>0</asrwt>
<pdfrwt beam="1">  1       21 0.22606900E+00 0.12363801E+04</pdfrwt>
<pdfrwt beam="2">  1       21 0.16499943E+00 0.12363801E+04</pdfrwt>
<totfact> 0.11849170E+01</totfact>
</mgrwt>
</event>
<event>
 5    0  0.1467858E+000  0.2371694E+03  0.7546771E-02  0.1121693E+00
         21   -1    0    0  504  501  0.00000000000E+00  0.00000000000E+00  0.22273472967E+02  0.22273472967E+02  0.00000000000E+00 0.  1.
         21   -1    0    0  501  502 -0.00000000000E+00 -0.00000000000E+00 -0.25583335565E+04  0.25583335565E+04  0.00000000000E+00 0.  1.
         25    1    1    2    0    0  0.20055561890E+03 -0.11703376478E+02 -0.15861901067E+04  0.16037404965E+04  0.12500000000E+03 0.  0.
         21    1    1    2  503  502 -0.19969032153E+03  0.31852935459E+02 -0.77929641319E+03  0.80510479667E+03  0.00000000000E+00 0.  1.
         21    1    1    2  504  503 -0.86529737145E+00 -0.20149558982E+02 -0.17057356364E+03  0.17176173636E+03  0.00000000000E+00 0.  1.
<mgrwt>
<rscale>  4 0.23716940E+03</rscale>
<asrwt>0</asrwt>
<pdfrwt beam="1">  1       21 0.34266866E-02 0.23716940E+03</pdfrwt>
<pdfrwt beam="2">  1       21 0.39358996E+00 0.23716940E+03</pdfrwt>
<totfact> 0.45850219E+03</totfact>
</mgrwt>
</event>
<event>
 5    0  0.1467858E+000  0.4265626E+03  0.7546771E-02  0.1034951E+00
         21   -1    0    0  504  501  0.00000000000E+00  0.00000000000E+00  0.74877054844E+03  0.74877054844E+03  0.00000000000E+00 0.  1.
         21   -1    0    0  501  502 -0.00000000000E+00 -0.00000000000E+00 -0.17771325501E+04  0.17771325501E+04  0.00000000000E+00 0.  1.
         25    1    1    2    0    0 -0.15030741565E+03 -0.37965363366E+03 -0.16610698884E+04  0.17150823230E+04  0.12500000000E+03 0.  0.
         21    1    1    2  503  502  0.90777175760E+02 -0.24295682044E+02  0.16564705447E+03  0.19044611432E+03  0.00000000000E+00 0.  1.
         21    1    1    2  504  503  0.59530239891E+02  0.40394931570E+03  0.46706083229E+03  0.62037466114E+03  0.00000000000E+00 0.  1.
<mgrwt>
<rscale>  4 0.42656256E+03</rscale>
<asrwt>0</asrwt>
<pdfrwt beam="1">  1       21 0.11519547E+00 0.42656256E+03</pdfrwt>
<pdfrwt beam="2">  1       21 0.27340501E+00 0.42656256E+03</pdfrwt>
<totfact> 0.21724582E+01</totfact>
</mgrwt>
</event>
<event>
 5    0  0.1467858E+000  0.2531728E+03  0.7546771E-02  0.1111316E+00
         21   -1    0    0  504  501  0.00000000000E+00  0.00000000000E+00  0.82308907092E+02  0.82308907092E+02  0.00000000000E+00 0.  1.
         21   -1    0    0  501  502 -0.00000000000E+00 -0.00000000000E+00 -0.86757250458E+03  0.86757250458E+03  0.00000000000E+00 0.  1.
         25    1    1    2    0    0 -0.16271079142E+02 -0.23721194803E+03 -0.45759133917E+03  0.53061199571E+03  0.12500000000E+03 0.  0.
         21    1    1    2  503  502  0.28398104215E+02  0.26157352096E+02 -0.10664850695E+03  0.11342205882E+03  0.00000000000E+00 0.  1.
         21    1    1    2  504  503 -0.12127025073E+02  0.21105459594E+03 -0.22102375136E+03  0.30584735714E+03  0.00000000000E+00 0.  1.
<mgrwt>
<rscale>  4 0.25317283E+03</rscale>
<asrwt>0</asrwt>
<pdfrwt beam="1">  1       21 0.12662909E-01 0.25317283E+03</pdfrwt>
<pdfrwt beam="2">  1       21 0.13347269E+00 0.25317283E+03</pdfrwt>
<totfact> 0.20799943E+04</totfact>
</mgrwt>
</event>
<event>
 5    0  0.1467858E+000  0.2356660E+03  0.7546771E-02  0.1122714E+00
         21   -1    0    0  504  501  0.00000000000E+00  0.00000000000E+00  0.56265746919E+03  0.56265746919E+03  0.00000000000E+00 0. -1.
         21   -1    0    0  501  502 -0.00000000000E+00 -0.00000000000E+00 -0.57012770918E+03  0.57012770918E+03  0.00000000000E+00 0. -1.
         25    1    1    2    0    0 -0.23843299660E+03  0.89071459111E+01 -0.44487033445E+03  0.52006177094E+03  0.12500000000E+03 0.  0.
         21    1    1    2  503  502  0.10073027399E+03  0.12918258545E+02  0.46035600762E+03  0.47142456793E+03  0.00000000000E+00 0. -1.
         21    1    1    2  504  503  0.13770272261E+03 -0.21825404456E+02 -0.22955913158E+02  0.14129883950E+03  0.00000000000E+00 0. -1.
<mgrwt>
<rscale>  4 0.23566597E+03</rscale>
<asrwt>0</asrwt>
<pdfrwt beam="1">  1       21 0.86562688E-01 0.23566597E+03</pdfrwt>
<pdfrwt beam="2">  1       21 0.87711955E-01 0.23566597E+03</pdfrwt>
<totfact> 0.12325705E+03</totfact>
</mgrwt>
</event>
<event>
 5    0  0.1467858E+000  0.2368483E+03  0.7546771E-02  0.1121910E+00
         21   -1    0    0  504  501  0.00000000000E+00  0.00000000000E+00  0.11248266901E+03  0.11248266901E+03  0.00000000000E+00 0.  1.
         21   -1    0    0  501  502 -0.00000000000E+00 -0.00000000000E+00 -0.66225792514E+03  0.66225792514E+03  0.00000000000E+00 0.  1.
         25    1    1    2    0    0 -0.12975808125E+03  0.15926059581E+03 -0.47536078062E+03  0.53272316336E+03  0.12500000000E+03 0.  0.
         21    1    1    2  503  502  0.14075424578E+03 -0.13211012141E+03 -0.84925264046E+02  0.21089604633E+03  0.00000000000E+00 0.  1.
         21    1    1    2  504  503 -0.10996164531E+02 -0.27150474401E+02  0.10510788545E+02  0.31121384456E+02  0.00000000000E+00 0.  1.
<mgrwt>
<rscale>  4 0.23684834E+03</rscale>
<asrwt>0</asrwt>
<pdfrwt beam="1">  1       21 0.17305026E-01 0.23684834E+03</pdfrwt>
<pdfrwt beam="2">  1       21 0.10188583E+00 0.23684834E+03</pdfrwt>
<totfact> 0.23121415E+04</totfact>
</mgrwt>
</event>
<event>
 5    0  0.1467858E+000  0.4055993E+03  0.7546771E-02  0.1041858E+00
         21   -1    0    0  504  501  0.00000000000E+00  0.00000000000E+00  0.42895592838E+03  0.42895592838E+03  0.00000000000E+00 0. -1.
         21   -1    0    0  501  502 -0.00000000000E+00 -0.00000000000E+00 -0.38331819174E+03  0.38331819174E+03  0.00000000000E+00 0.  1.
         25    1    1    2    0    0  0.35802751336E+03  0.14388230461E+03 -0.60839597090E+02  0.41013689724E+03  0.12500000000E+03 0.  0.
         21    1    1    2  503  502 -0.33956792858E+03 -0.12820474407E+03  0.94221034173E+02  0.37499391703E+03  0.00000000000E+00 0. -1.
         21    1    1    2  504  503 -0.18459584774E+02 -0.15677560538E+02  0.12256299558E+02  0.27143305865E+02  0.00000000000E+00 0. -1.
<mgrwt>
<rscale>  4 0.40559933E+03</rscale>
<asrwt>0</asrwt>
<pdfrwt beam="1">  1       21 0.65993220E-01 0.40559933E+03</pdfrwt>
<pdfrwt beam="2">  1       21 0.58972029E-01 0.40559933E+03</pdfrwt>
<totfact> 0.50672516E+03</totfact>
</mgrwt>
</event>
<event>
 5    0  0.1467858E+000  0.3419538E+03  0.7546771E-02  0.1065967E+00
         21   -1    0    0  504  501  0.00000000000E+00  0.00000000000E+00  0.23428707929E+03  0.23428707929E+03  0.00000000000E+00 0.  1.
         21   -1    0    0  501  502 -0.00000000000E+00 -0.00000000000E+00 -0.49326295718E+03  0.49326295718E+03  0.00000000000E+00 0.  1.
         25    1    1    2    0    0  0.31771180989E+03 -0.19146214200E+02 -0.17978035513E+03  0.38633320820E+03  0.12500000000E+03 0.  0.
         21    1    1    2  503  502 -0.26556748682E+03 -0.12324212946E+02 -0.40143227280E+02  0.26886698380E+03  0.00000000000E+00 0.  1.
         21    1    1    2  504  503 -0.52144323071E+02  0.31470427147E+02 -0.39052295482E+02  0.72349844477E+02  0.00000000000E+00 0.  1.
<mgrwt>
<rscale>  4 0.34195376E+03</rscale>
<asrwt>0</asrwt>
<pdfrwt beam="1">  1       21 0.36044167E-01 0.34195376E+03</pdfrwt>
<pdfrwt beam="2">  1       21 0.75886608E-01 0.34195376E+03</pdfrwt>
<totfact> 0.10638537E+04</totfact>
</mgrwt>
</event>
<event>
 5    0  0.1467858E+000  0.2460852E+03  0.7546771E-02  0.1115804E+00
         21   -1    0    0  504  501  0.00000000000E+00  0.00000000000E+00  0.35935563934E+03  0.35935563934E+03  0.00000000000E+00 0.  1.
         21   -1    0    0  501  502 -0.00000000000E+00 -0.00000000000E+00 -0.55952227002E+03  0.55952227002E+03  0.00000000000E+00 0.  1.
         25    1    1    2    0    0  0.21196531029E+03 -0.19112993183E+01 -0.49093442863E+03  0.54915804560E+03  0.12500000000E+03 0.  0.
         21    1    1    2  503  502 -0.79702091760E+02 -0.21176236662E+02  0.57370932912E+02  0.10046034229E+03  0.00000000000E+00 0.  1.
         21    1    1    2  504  503 -0.13226321853E+03  0.23087535981E+02  0.23339686504E+03  0.26925952147E+03  0.00000000000E+00 0.  1.
<mgrwt>
<rscale>  4 0.24608524E+03</rscale>
<asrwt>0</asrwt>
<pdfrwt beam="1">  1       21 0.55285483E-01 0.24608524E+03</pdfrwt>
<pdfrwt beam="2">  1       21 0.86080349E-01 0.24608524E+03</pdfrwt>
<totfact> 0.34494269E+03</totfact>
</mgrwt>
</event>
<event>
 5    0  0.1467858E+000  0.3243734E+03  0.7546771E-02  0.1073654E+00
         21   -1    0    0  504  501  0.00000000000E+00  0.00000000000E+00  0.85477524208E+03  0.85477524208E+03  0.00000000000E+00 0. -1.
         21   -1    0    0  501  502 -0.00000000000E+00 -0.00000000000E+00 -0.87992688612E+03  0.87992688612E+03  0.00000000000E+00 0. -1.
         25    1    1    2    0    0 -0.18258354602E+03  0.23718419277E+03 -0.82055568359E+03  0.88234331326E+03  0.12500000000E+03 0.  0.
         21    1    1    2  503  502  0.29435802417E+02 -0.36796525163E+02  0.70188874536E+02  0.84539510507E+02  0.00000000000E+00 0. -1.
         21    1    1    2  504  503  0.15314774360E+03 -0.20038766760E+03  0.72521516502E+03  0.76781930444E+03  0.00000000000E+00 0. -1.
<mgrwt>
<rscale>  4 0.32437338E+03</rscale>
<asrwt>0</asrwt>
<pdfrwt beam="1">  1       21 0.13150388E+00 0.32437338E+03</pdfrwt>
<pdfrwt beam="2">  1       21 0.13537337E+00 0.32437338E+03</pdfrwt>
<totfact> 0.14349944E+02</totfact>
</mgrwt>
</event>
<event>
 5    0  0.1467858E+000  0.2620655E+03  0.7546771E-02  0.1105909E+00
         21   -1    0    0  504  501  0.00000000000E+00  0.00000000000E+00  0.60035178054E+03  0.60035178054E+03  0.00000000000E+00 0.  1.
         21   -1    0    0  501  502 -0.00000000000E+00 -0.00000000000E+00 -0.10291878132E+03  0.10291878132E+03  0.00000000000E+00 0.  1.
         25    1    1    2    0    0  0.21011782804E+03 -0.94360070018E+02  0.26986878411E+03  0.37617480659E+03  0.12500000000E+03 0.  0.
         21    1    1    2  503  502 -0.75242469994E+02  0.58138208575E+02  0.99146320541E+02  0.13737348166E+03  0.00000000000E+00 0.  1.
         21    1    1    2  504  503 -0.13487535805E+03  0.36221861443E+02  0.12841789458E+03  0.18972227361E+03  0.00000000000E+00 0.  1.
<mgrwt>
<rscale>  4 0.26206550E+03</rscale>
<asrwt>0</asrwt>
<pdfrwt beam="1">  1       21 0.92361811E-01 0.26206550E+03</pdfrwt>
<pdfrwt beam="2">  1       21 0.15833659E-01 0.26206550E+03</pdfrwt>
<totfact> 0.33983716E+04</totfact>
</mgrwt>
</event>
<event>
 5    0  0.1467858E+000  0.1833378E+03  0.7546771E-02  0.1164611E+00
         21   -1    0    0  504  501  0.00000000000E+00  0.00000000000E+00  0.23938415876E+03  0.23938415876E+03  0.00000000000E+00 0. -1.
         21   -1    0    0  501  502 -0.00000000000E+00 -0.00000000000E+00 -0.48034930919E+03  0.48034930919E+03  0.00000000000E+00 0. -1.
         25    1    1    2    0    0  0.16705788716E+03 -0.15399261443E+03 -0.28932533261E+03  0.38853083668E+03  0.12500000000E+03 0.  0.
         21    1    1    2  503  502 -0.96151410881E+02  0.83734890034E+02  0.14443414019E+03  0.19265992442E+03  0.00000000000E+00 0. -1.
         21    1    1    2  504  503 -0.70906476275E+02  0.70257724392E+02 -0.96073958006E+02  0.13854270685E+03  0.00000000000E+00 0. -1.
<mgrwt>
<rscale>  4 0.18333776E+03</rscale>
<asrwt>0</asrwt>
<pdfrwt beam="1">  1       21 0.36828332E-01 0.18333776E+03</pdfrwt>
<pdfrwt beam="2">  1       21 0.73899894E-01 0.18333776E+03</pdfrwt>
<totfact> 0.11757269E+04</totfact>
</mgrwt>
</event>
<event>
 5    0  0.1467858E+000  0.2504355E+03  0.7546771E-02  0.1113030E+00
         21   -1    0    0  504  501  0.00000000000E+00  0.00000000000E+00  0.14948386341E+03  0.14948386341E+03  0.00000000000E+00 0.  1.
         21   -1    0    0  501  502 -0.00000000000E+00 -0.00000000000E+00 -0.62154031157E+03  0.62154031157E+03  0.00000000000E+00 0.  1.
         25    1    1    2    0    0 -0.15085852720E+03 -0.16340617225E+03 -0.44986353083E+03  0.51716735079E+03  0.12500000000E+03 0.  0.
         21    1    1    2  503  502  0.15983465873E+03  0.14529939975E+03  0.95595766695E+01  0.21621845251E+03  0.00000000000E+00 0.  1.
         21    1    1    2  504  503 -0.89761315346E+01  0.18106772500E+02 -0.31752493992E+02  0.37638371676E+02  0.00000000000E+00 0.  1.
<mgrwt>
<rscale>  4 0.25043551E+03</rscale>
<asrwt>0</asrwt>
<pdfrwt beam="1">  1       21 0.22997518E-01 0.25043551E+03</pdfrwt>
<pdfrwt beam="2">  1       21 0.95621584E-01 0.25043551E+03</pdfrwt>
<totfact> 0.15655562E+04</totfact>
</mgrwt>
</event>
<event>
 5    0  0.1467858E+000  0.2821581E+03  0.7546771E-02  0.1094516E+00
         21   -1    0    0  504  501  0.00000000000E+00  0.00000000000E+00  0.31419203080E+03  0.31419203080E+03  0.00000000000E+00 0. -1.
         21   -1    0    0  501  502 -0.00000000000E+00 -0.00000000000E+00 -0.50027263784E+03  0.50027263784E+03  0.00000000000E+00 0. -1.
         25    1    1    2    0    0  0.96192521120E+02 -0.23395550279E+03 -0.38728626176E+03  0.47916993536E+03  0.12500000000E+03 0.  0.
         21    1    1    2  503  502 -0.43293517586E+02  0.45227542106E+02  0.13788934378E+02  0.64109234446E+02  0.00000000000E+00 0. -1.
         21    1    1    2  504  503 -0.52899003534E+02  0.18872796068E+03  0.18741672035E+03  0.27118549884E+03  0.00000000000E+00 0. -1.
<mgrwt>
<rscale>  4 0.28215807E+03</rscale>
<asrwt>0</asrwt>
<pdfrwt beam="1">  1       21 0.48337236E-01 0.28215807E+03</pdfrwt>
<pdfrwt beam="2">  1       21 0.76965020E-01 0.28215807E+03</pdfrwt>
<totfact> 0.57913696E+03</totfact>
</mgrwt>
</event>
<event>
 5    0  0.1467858E+000  0.2370676E+03  0.7546771E-02  0.1121762E+00
         21   -1    0    0  504  501  0.00000000000E+00  0.00000000000E+00  0.84117151524E+03  0.84117151524E+03  0.00000000000E+00 0. -1.
         21   -1    0    0  501  502 -0.00000000000E+00 -0.00000000000E+00 -0.70124310743E+02  0.70124310743E+02  0.00000000000E+00 0. -1.
         25    1    1    2    0    0  0.16294466840E+03 -0.11842753122E+03  0.22419831755E+03  0.32629117473E+03  0.12500000000E+03 0.  0.
         21    1    1    2  503  502 -0.21639083150E+02  0.32896405695E+02  0.69407707177E+02  0.79798829833E+02  0.00000000000E+00 0.  1.
         21    1    1    2  504  503 -0.14130558526E+03  0.85531125525E+02  0.47744117977E+03  0.50520582142E+03  0.00000000000E+00 0. -1.
<mgrwt>
<rscale>  4 0.23706760E+03</rscale>
<asrwt>0</asrwt>
<pdfrwt beam="1">  1       21 0.12941100E+00 0.23706760E+03</pdfrwt>
<pdfrwt beam="2">  1       21 0.10788356E-01 0.23706760E+03</pdfrwt>
<totfact> 0.30253499E+04</totfact>
</mgrwt>
</event>
<event>
 5    0  0.1467858E+000  0.2758433E+03  0.7546771E-02  0.1097981E+00
         21   -1    0    0  504  501  0.00000000000E+00  0.00000000000E+00  0.21139191599E+03  0.21139191599E+03  0.00000000000E+00 0.  1.
         21   -1    0    0  501  502 -0.00000000000E+00 -0.00000000000E+00 -0.33333607642E+03  0.33333607642E+03  0.00000000000E+00 0. -1.
         25    1    1    2    0    0 -0.29994346689E+02  0.24405918607E+03 -0.60269449151E+02  0.28235076348E+03  0.12500000000E+03 0.  0.
         21    1    1    2  503  502 -0.13416736939E+02 -0.10180102775E+03 -0.37141442043E+01  0.10274849365E+03  0.00000000000E+00 0.  1.
         21    1    1    2  504  503  0.43411083628E+02 -0.14225815832E+03 -0.57960567082E+02  0.15962873528E+03  0.00000000000E+00 0.  1.
<mgrwt>
<rscale>  4 0.27584334E+03</rscale>
<asrwt>0</asrwt>
<pdfrwt beam="1">  1       21 0.32521833E-01 0.27584334E+03</pdfrwt>
<pdfrwt beam="2">  1       21 0.51282473E-01 0.27584334E+03</pdfrwt>
<totfact> 0.31622647E+04</totfact>
</mgrwt>
</event>
<event>
 5    0  0.1467858E+000  0.2522056E+03  0.7546771E-02  0.1111919E+00
         21   -1    0    0  504  501  0.00000000000E+00  0.00000000000E+00  0.15042193149E+04  0.15042193149E+04  0.00000000000E+00 0. -1.
         21   -1    0    0  501  502 -0.00000000000E+00 -0.00000000000E+00 -0.64943838333E+02  0.64943838333E+02  0.00000000000E+00 0. -1.
         25    1    1    2    0    0  0.26927004742E+02  0.23995665754E+03  0.33555840075E+03  0.43188968661E+03  0.12500000000E+03 0.  0.
         21    1    1    2  503  502 -0.47634522085E+02 -0.54697839353E+02  0.50571885314E+03  0.51089378519E+03  0.00000000000E+00 0. -1.
         21    1    1    2  504  503  0.20707517342E+02 -0.18525881819E+03  0.59799822264E+03  0.62637968140E+03  0.00000000000E+00 0. -1.
<mgrwt>
<rscale>  4 0.25220563E+03</rscale>
<asrwt>0</asrwt>
<pdfrwt beam="1">  1       21 0.23141833E+00 0.25220563E+03</pdfrwt>
<pdfrwt beam="2">  1       21 0.99913608E-02 0.25220563E+03</pdfrwt>
<totfact> 0.66240768E+03</totfact>
</mgrwt>
</event>
<event>
 5    0  0.1467858E+000  0.2729542E+03  0.7546771E-02  0.1099601E+00
         21   -1    0    0  504  501  0.00000000000E+00  0.00000000000E+00  0.40217781079E+03  0.40217781079E+03  0.00000000000E+00 0.  1.
         21   -1    0    0  501  502 -0.00000000000E+00 -0.00000000000E+00 -0.32739738564E+03  0.32739738564E+03  0.00000000000E+00 0. -1.
         25    1    1    2    0    0  0.11972567181E+03  0.21105625567E+03 -0.21500012153E+03  0.34746083492E+03  0.12500000000E+03 0.  0.
         21    1    1    2  503  502 -0.46026768650E+02 -0.13729218809E+03  0.16911924030E+03  0.22264079991E+03  0.00000000000E+00 0.  1.
         21    1    1    2  504  503 -0.73698903155E+02 -0.73764067579E+02  0.12066130638E+03  0.15947356160E+03  0.00000000000E+00 0.  1.
<mgrwt>
<rscale>  4 0.27295417E+03</rscale>
<asrwt>0</asrwt>
<pdfrwt beam="1">  1       21 0.61873509E-01 0.27295417E+03</pdfrwt>
<pdfrwt beam="2">  1       21 0.50368829E-01 0.27295417E+03</pdfrwt>
<totfact> 0.86663036E+03</totfact>
</mgrwt>
</event>
<event>
 5    0  0.1467858E+000  0.2697819E+03  0.7546771E-02  0.1101404E+00
         21   -1    0    0  504  501  0.00000000000E+00  0.00000000000E+00  0.16001351686E+03  0.16001351686E+03  0.00000000000E+00 0.  1.
         21   -1    0    0  501  502 -0.00000000000E+00 -0.00000000000E+00 -0.42539759940E+03  0.42539759940E+03  0.00000000000E+00 0.  1.
         25    1    1    2    0    0 -0.20104961706E+03 -0.12936902641E+03 -0.19395839230E+03  0.33226819206E+03  0.12500000000E+03 0.  0.
         21    1    1    2  503  502  0.16772261107E+03  0.12072909903E+03 -0.50089645910E+02  0.21263904214E+03  0.00000000000E+00 0.  1.
         21    1    1    2  504  503  0.33327005988E+02  0.86399273780E+01 -0.21336044327E+02  0.40503882045E+02  0.00000000000E+00 0.  1.
<mgrwt>
<rscale>  4 0.26978194E+03</rscale>
<asrwt>0</asrwt>
<pdfrwt beam="1">  1       21 0.24617465E-01 0.26978194E+03</pdfrwt>
<pdfrwt beam="2">  1       21 0.65445783E-01 0.26978194E+03</pdfrwt>
<totfact> 0.32287735E+04</totfact>
</mgrwt>
</event>
<event>
 5    0  0.1467858E+000  0.2380353E+03  0.7546771E-02  0.1121109E+00
         21   -1    0    0  504  501  0.00000000000E+00  0.00000000000E+00  0.28046411911E+02  0.28046411911E+02  0.00000000000E+00 0. -1.
         21   -1    0    0  501  502 -0.00000000000E+00 -0.00000000000E+00 -0.18009006124E+04  0.18009006124E+04  0.00000000000E+00 0. -1.
         25    1    1    2    0    0  0.20198472934E+03 -0.15427141339E+02 -0.95492574435E+03  0.98414633302E+03  0.12500000000E+03 0.  0.
         21    1    1    2  503  502 -0.12312526195E+03  0.37643489324E+02 -0.53272611748E+03  0.54806384543E+03  0.00000000000E+00 0. -1.
         21    1    1    2  504  503 -0.78859467393E+02 -0.22216347985E+02 -0.28520233862E+03  0.29673684583E+03  0.00000000000E+00 0.  1.
<mgrwt>
<rscale>  4 0.23803535E+03</rscale>
<asrwt>0</asrwt>
<pdfrwt beam="1">  1       21 0.43148305E-02 0.23803535E+03</pdfrwt>
<pdfrwt beam="2">  1       21 0.27706177E+00 0.23803535E+03</pdfrwt>
<totfact> 0.15332731E+04</totfact>
</mgrwt>
</event>
<event>
 5    0  0.1467858E+000  0.2703705E+03  0.7546771E-02  0.1101068E+00
         21   -1    0    0  504  501  0.00000000000E+00  0.00000000000E+00  0.11930905380E+04  0.11930905380E+04  0.00000000000E+00 0. -1.
         21   -1    0    0  501  502 -0.00000000000E+00 -0.00000000000E+00 -0.93343897604E+02  0.93343897604E+02  0.00000000000E+00 0. -1.
         25    1    1    2    0    0  0.11033297010E+03  0.21284230079E+03  0.15719045934E+03  0.31274438413E+03  0.12500000000E+03 0.  0.
         21    1    1    2  503  502 -0.10121634752E+03 -0.18602052235E+03  0.87822288861E+03  0.90339571939E+03  0.00000000000E+00 0. -1.
         21    1    1    2  504  503 -0.91166225879E+01 -0.26821778438E+02  0.64333292432E+02  0.70294332069E+02  0.00000000000E+00 0. -1.
<mgrwt>
<rscale>  4 0.27037050E+03</rscale>
<asrwt>0</asrwt>
<pdfrwt beam="1">  1       21 0.18355238E+00 0.27037050E+03</pdfrwt>
<pdfrwt beam="2">  1       21 0.14360601E-01 0.27037050E+03</pdfrwt>
<totfact> 0.69038111E+03</totfact>
</mgrwt>
</event>
<event>
 5    0  0.1467858E+000  0.2501184E+03  0.7546771E-02  0.1113230E+00
         21   -1    0    0  504  501  0.00000000000E+00  0.00000000000E+00  0.56164487293E+03  0.56164487293E+03  0.00000000000E+00 0. -1.
         21   -1    0    0  501  502 -0.00000000000E+00 -0.00000000000E+00 -0.16454058995E+03  0.16454058995E+03  0.00000000000E+00 0. -1.
         25    1    1    2    0    0 -0.21634323097E+03 -0.11394252023E+02 -0.18781676723E+02  0.25082259457E+03  0.12500000000E+03 0.  0.
         21    1    1    2  503  502  0.41212671931E+02 -0.59779231375E+01  0.15623109306E+03  0.16168603629E+03  0.00000000000E+00 0. -1.
         21    1    1    2  504  503  0.17513055904E+03  0.17372175160E+02  0.25965486663E+03  0.31367683202E+03  0.00000000000E+00 0. -1.
<mgrwt>
<rscale>  4 0.25011842E+03</rscale>
<asrwt>0</asrwt>
<pdfrwt beam="1">  1       21 0.86406902E-01 0.25011842E+03</pdfrwt>
<pdfrwt beam="2">  1       21 0.25313937E-01 0.25011842E+03</pdfrwt>
<totfact> 0.16512107E+04</totfact>
</mgrwt>
</event>
<event>
 5    0  0.1467858E+000  0.2238857E+03  0.7546771E-02  0.1131019E+00
         21   -1    0    0  504  501  0.00000000000E+00  0.00000000000E+00  0.13335423129E+03  0.13335423129E+03  0.00000000000E+00 0. -1.
         21   -1    0    0  501  502 -0.00000000000E+00 -0.00000000000E+00 -0.49931265962E+03  0.49931265962E+03  0.00000000000E+00 0.  1.
         25    1    1    2    0    0 -0.21410720882E+03  0.23236470182E+02 -0.16137060164E+03  0.29672765542E+03  0.12500000000E+03 0.  0.
         21    1    1    2  503  502  0.47336882058E+02  0.13884889084E+02 -0.14792900288E+03  0.15593768127E+03  0.00000000000E+00 0. -1.
         21    1    1    2  504  503  0.16677032677E+03 -0.37121359267E+02 -0.56658823808E+02  0.18000155421E+03  0.00000000000E+00 0. -1.
<mgrwt>
<rscale>  4 0.22388570E+03</rscale>
<asrwt>0</asrwt>
<pdfrwt beam="1">  1       21 0.20516036E-01 0.22388570E+03</pdfrwt>
<pdfrwt beam="2">  1       21 0.76817331E-01 0.22388570E+03</pdfrwt>
<totfact> 0.32624730E+04</totfact>
</mgrwt>
</event>
<event>
 5    0  0.1467858E+000  0.2927855E+03  0.7546771E-02  0.1088904E+00
         21   -1    0    0  504  501  0.00000000000E+00  0.00000000000E+00  0.99764691734E+02  0.99764691734E+02  0.00000000000E+00 0. -1.
         21   -1    0    0  501  502 -0.00000000000E+00 -0.00000000000E+00 -0.97761043795E+03  0.97761043795E+03  0.00000000000E+00 0. -1.
         25    1    1    2    0    0  0.24473630619E+03  0.10100726886E+03 -0.63725594338E+03  0.70129770091E+03  0.12500000000E+03 0.  0.
         21    1    1    2  503  502 -0.10522740558E+03 -0.75008244695E+02 -0.18045132075E+03  0.22194982050E+03  0.00000000000E+00 0. -1.
         21    1    1    2  504  503 -0.13950890060E+03 -0.25999024169E+02 -0.60138482085E+02  0.15412760828E+03  0.00000000000E+00 0. -1.
<mgrwt>
<rscale>  4 0.29278546E+03</rscale>
<asrwt>0</asrwt>
<pdfrwt beam="1">  1       21 0.15348414E-01 0.29278546E+03</pdfrwt>
<pdfrwt beam="2">  1       21 0.15040161E+00 0.29278546E+03</pdfrwt>
<totfact> 0.10491756E+04</totfact>
</mgrwt>
</event>
<event>
 5    0  0.1467858E+000  0.2721943E+03  0.7546771E-02  0.1100030E+00
         21   -1    0    0  504  501  0.00000000000E+00  0.00000000000E+00  0.45413082889E+03  0.45413082889E+03  0.00000000000E+00 0. -1.
         21   -1    0    0  501  502 -0.00000000000E+00 -0.00000000000E+00 -0.19960169672E+03  0.19960169672E+03  0.00000000000E+00 0. -1.
         25    1    1    2    0    0 -0.28622752039E+02  0.24009468338E+03 -0.35860260006E+02  0.27454631152E+03  0.12500000000E+03 0.  0.
         21    1    1    2  503  502  0.21312959818E+02 -0.21971837125E+03  0.27492524095E+03  0.35258232094E+03  0.00000000000E+00 0. -1.
         21    1    1    2  504  503  0.73097922211E+01 -0.20376312128E+02  0.15464151221E+02  0.26603893160E+02  0.00000000000E+00 0.  1.
<mgrwt>
<rscale>  4 0.27219427E+03</rscale>
<asrwt>0</asrwt>
<pdfrwt beam="1">  1       21 0.69866281E-01 0.27219427E+03</pdfrwt>
<pdfrwt beam="2">  1       21 0.30707953E-01 0.27219427E+03</pdfrwt>
<totfact> 0.18157980E+04</totfact>
</mgrwt>
</event>
<event>
 5    0  0.1467858E+000  0.2860895E+03  0.7546771E-02  0.1092409E+00
         21   -1    0    0  504  501  0.00000000000E+00  0.00000000000E+00  0.12783915959E+03  0.12783915959E+03  0.00000000000E+00 0. -1.
         21   -1    0    0  501  502 -0.00000000000E+00 -0.00000000000E+00 -0.67551016316E+03  0.67551016316E+03  0.00000000000E+00 0. -1.
         25    1    1    2    0    0 -0.25938739737E+03 -0.72556299518E+02 -0.33461752989E+03  0.44737023797E+03  0.12500000000E+03 0.  0.
         21    1    1    2  503  502  0.13324650618E+02  0.25411214840E+02 -0.48119000647E+02  0.56024230267E+02  0.00000000000E+00 0.  1.
         21    1    1    2  504  503  0.24606274675E+03  0.47145084678E+02 -0.16493447303E+03  0.29995485451E+03  0.00000000000E+00 0. -1.
<mgrwt>
<rscale>  4 0.28608950E+03</rscale>
<asrwt>0</asrwt>
<pdfrwt beam="1">  1       21 0.19667563E-01 0.28608950E+03</pdfrwt>
<pdfrwt beam="2">  1       21 0.10392464E+00 0.28608950E+03</pdfrwt>
<totfact> 0.16953790E+04</totfact>
</mgrwt>
</event>
<event>
 5    0  0.1467858E+000  0.2383889E+03  0.7546771E-02  0.1120871E+00
         21   -1    0    0  504  501  0.00000000000E+00  0.00000000000E+00  0.15201867322E+03  0.15201867322E+03  0.00000000000E+00 0. -1.
         21   -1    0    0  501  502 -0.00000000000E+00 -0.00000000000E+00 -0.33480877483E+03  0.33480877483E+03  0.00000000000E+00 0. -1.
         25    1    1    2    0    0  0.17543022079E+03 -0.10211996679E+03 -0.54484886217E+02  0.24453599491E+03  0.12500000000E+03 0.  0.
         21    1    1    2  503  502 -0.14704870061E+03  0.76689239445E+02 -0.11545403011E+03  0.20207472100E+03  0.00000000000E+00 0. -1.
         21    1    1    2  504  503 -0.28381520178E+02  0.25430727345E+02 -0.12851185288E+02  0.40216732142E+02  0.00000000000E+00 0. -1.
<mgrwt>
<rscale>  4 0.23838886E+03</rscale>
<asrwt>0</asrwt>
<pdfrwt beam="1">  1       21 0.23387488E-01 0.23838886E+03</pdfrwt>
<pdfrwt beam="2">  1       21 0.51509042E-01 0.23838886E+03</pdfrwt>
<totfact> 0.60359542E+04</totfact>
</mgrwt>
</event>
