<event>
 5    0  0.2159162E+000  0.2488041E+03  0.7546771E-02  0.1114063E+00
         21   -1    0    0  502  501  0.00000000000E+00  0.00000000000E+00  0.12712406961E+03  0.12712406961E+03  0.00000000000E+00 0.  1.
         21   -1    0    0  503  502 -0.00000000000E+00 -0.00000000000E+00 -0.63619762490E+03  0.63619762490E+03  0.00000000000E+00 0. -1.
         25    1    1    2    0    0  0.10334336555E+03  0.18867596114E+03 -0.50512102135E+02  0.25387977859E+03  0.12500000000E+03 0.  0.
         21    1    1    2  503  504 -0.53017942155E+02 -0.72188801643E+02 -0.13626675113E+03  0.16306671253E+03  0.00000000000E+00 0. -1.
         21    1    1    2  504  501 -0.50325423390E+02 -0.11648715950E+03 -0.32229470202E+03  0.34637520339E+03  0.00000000000E+00 0. -1.
<mgrwt>
<rscale>  4 0.24880408E+03</rscale>
<asrwt>0</asrwt>
<pdfrwt beam="1">  1       21 0.19557549E-01 0.24880408E+03</pdfrwt>
<pdfrwt beam="2">  1       21 0.97876557E-01 0.24880408E+03</pdfrwt>
<totfact> 0.20138928E+04</totfact>
</mgrwt>
</event>
<event>
 5    0  0.2159162E+000  0.2473436E+03  0.7546771E-02  0.1114995E+00
         21   -1    0    0  502  501  0.00000000000E+00  0.00000000000E+00  0.38603773280E+02  0.38603773280E+02  0.00000000000E+00 0. -1.
         21   -1    0    0  503  502 -0.00000000000E+00 -0.00000000000E+00 -0.15514145286E+04  0.15514145286E+04  0.00000000000E+00 0. -1.
         25    1    1    2    0    0  0.18272681813E+02  0.21264984385E+03 -0.57838235946E+03  0.62905087293E+03  0.12500000000E+03 0.  0.
         21    1    1    2  503  504  0.20647899911E+02 -0.91399002837E+02 -0.31775646732E+03  0.33128429787E+03  0.00000000000E+00 0. -1.
         21    1    1    2  504  501 -0.38920581723E+02 -0.12125084102E+03 -0.61667192856E+03  0.62968313111E+03  0.00000000000E+00 0. -1.
<mgrwt>
<rscale>  4 0.24734358E+03</rscale>
<asrwt>0</asrwt>
<pdfrwt beam="1">  1       21 0.59390421E-02 0.24734358E+03</pdfrwt>
<pdfrwt beam="2">  1       21 0.23867915E+00 0.24734358E+03</pdfrwt>
<totfact> 0.14905806E+04</totfact>
</mgrwt>
</event>
<event>
 5    0  0.2159162E+000  0.2474944E+03  0.7546771E-02  0.1114899E+00
         21   -1    0    0  502  501  0.00000000000E+00  0.00000000000E+00  0.11414243996E+03  0.11414243996E+03  0.00000000000E+00 0. -1.
         21   -1    0    0  503  502 -0.00000000000E+00 -0.00000000000E+00 -0.74847042440E+03  0.74847042440E+03  0.00000000000E+00 0. -1.
         25    1    1    2    0    0  0.98055230389E+00  0.21360594316E+03 -0.69491699122E+02  0.25706527709E+03  0.12500000000E+03 0.  0.
         21    1    1    2  503  504  0.11205110078E+02 -0.43602577462E+02 -0.82509116508E+02  0.93991986680E+02  0.00000000000E+00 0. -1.
         21    1    1    2  504  501 -0.12185662381E+02 -0.17000336570E+03 -0.48232716882E+03  0.51155560059E+03  0.00000000000E+00 0. -1.
<mgrwt>
<rscale>  4 0.24749436E+03</rscale>
<asrwt>0</asrwt>
<pdfrwt beam="1">  1       21 0.17560375E-01 0.24749436E+03</pdfrwt>
<pdfrwt beam="2">  1       21 0.11514930E+00 0.24749436E+03</pdfrwt>
<totfact> 0.16620365E+04</totfact>
</mgrwt>
</event>
<event>
 5    0  0.6189061E+000  0.2190600E+03  0.7546771E-02  0.1134586E+00
         21   -1    0    0  502  501  0.00000000000E+00  0.00000000000E+00  0.11325048532E+04  0.11325048532E+04  0.00000000000E+00 0.  1.
         21   -1    0    0  503  502 -0.00000000000E+00 -0.00000000000E+00 -0.97861938518E+02  0.97861938518E+02  0.00000000000E+00 0.  1.
         25    1    1    2    0    0  0.10346789351E+03 -0.19685883580E+03  0.90582691857E+03  0.94106663560E+03  0.12500000000E+03 0.  0.
         21    1    1    2  503  504 -0.82234786111E+02  0.15468846029E+03  0.27248584069E+02  0.17729513565E+03  0.00000000000E+00 0.  1.
         21    1    1    2  504  501 -0.21233107401E+02  0.42170375514E+02  0.10156741201E+03  0.11200502044E+03  0.00000000000E+00 0. -1.
<mgrwt>
<rscale>  4 0.21905999E+03</rscale>
<asrwt>0</asrwt>
<pdfrwt beam="1">  1       21 0.17423151E+00 0.21905999E+03</pdfrwt>
<pdfrwt beam="2">  1       21 0.15055684E-01 0.21905999E+03</pdfrwt>
<totfact> 0.76057544E+03</totfact>
</mgrwt>
</event>
<event>
 5    0  0.2159162E+000  0.3487636E+03  0.7546771E-02  0.1063124E+00
         21   -1    0    0  502  501  0.00000000000E+00  0.00000000000E+00  0.91135759720E+03  0.91135759720E+03  0.00000000000E+00 0. -1.
         21   -1    0    0  503  502 -0.00000000000E+00 -0.00000000000E+00 -0.25625313028E+03  0.25625313028E+03  0.00000000000E+00 0. -1.
         25    1    1    2    0    0 -0.22471285675E+03  0.23561655670E+03  0.74773517825E+03  0.82507207357E+03  0.12500000000E+03 0.  0.
         21    1    1    2  503  504  0.20181692154E+03 -0.21036517540E+03 -0.98983424307E+02  0.30786570957E+03  0.00000000000E+00 0. -1.
         21    1    1    2  504  501  0.22895935212E+02 -0.25251381303E+02  0.63527129771E+01  0.34672944339E+02  0.00000000000E+00 0. -1.
<mgrwt>
<rscale>  4 0.34876357E+03</rscale>
<asrwt>0</asrwt>
<pdfrwt beam="1">  1       21 0.14020886E+00 0.34876357E+03</pdfrwt>
<pdfrwt beam="2">  1       21 0.39423559E-01 0.34876357E+03</pdfrwt>
<totfact> 0.19828376E+03</totfact>
</mgrwt>
</event>
<event>
 5    0  0.2159162E+000  0.2281757E+03  0.7546771E-02  0.1127930E+00
         21   -1    0    0  502  501  0.00000000000E+00  0.00000000000E+00  0.25842133757E+03  0.25842133757E+03  0.00000000000E+00 0. -1.
         21   -1    0    0  503  502 -0.00000000000E+00 -0.00000000000E+00 -0.50637323954E+03  0.50637323954E+03  0.00000000000E+00 0. -1.
         25    1    1    2    0    0  0.18320835977E+03 -0.85512062525E+02  0.16831218006E+03  0.29125865804E+03  0.12500000000E+03 0.  0.
         21    1    1    2  503  504 -0.10529963382E+03  0.71728124366E+02 -0.34224495906E+03  0.36519111259E+03  0.00000000000E+00 0. -1.
         21    1    1    2  504  501 -0.77908725943E+02  0.13783938160E+02 -0.74019122963E+02  0.10834480649E+03  0.00000000000E+00 0. -1.
<mgrwt>
<rscale>  4 0.22817565E+03</rscale>
<asrwt>0</asrwt>
<pdfrwt beam="1">  1       21 0.39757129E-01 0.22817565E+03</pdfrwt>
<pdfrwt beam="2">  1       21 0.77903576E-01 0.22817565E+03</pdfrwt>
<totfact> 0.86933115E+03</totfact>
</mgrwt>
</event>
<event>
 5    0  0.2173918E+000  0.2428864E+03  0.7546771E-02  0.1117885E+00
         21   -1    0    0  502  501  0.00000000000E+00  0.00000000000E+00  0.26522960736E+03  0.26522960736E+03  0.00000000000E+00 0.  1.
         21   -1    0    0  503  502 -0.00000000000E+00 -0.00000000000E+00 -0.20903260042E+03  0.20903260042E+03  0.00000000000E+00 0.  1.
         25    1    1    2    0    0 -0.19837801891E+02  0.20730480302E+03 -0.33394704747E+02  0.24517142175E+03  0.12500000000E+03 0.  0.
         21    1    1    2  503  504  0.11919545311E+02 -0.19704661063E+02  0.11348847263E+02  0.25673830300E+02  0.00000000000E+00 0.  1.
         21    1    1    2  504  501  0.79182565795E+01 -0.18760014195E+03  0.78242864425E+02  0.20341695574E+03  0.00000000000E+00 0.  1.
<mgrwt>
<rscale>  4 0.24288643E+03</rscale>
<asrwt>0</asrwt>
<pdfrwt beam="1">  1       21 0.40804555E-01 0.24288643E+03</pdfrwt>
<pdfrwt beam="2">  1       21 0.32158862E-01 0.24288643E+03</pdfrwt>
<totfact> 0.52625270E+04</totfact>
</mgrwt>
</event>
<event>
 5    0  0.2159162E+000  0.4320748E+03  0.7546771E-02  0.1033207E+00
         21   -1    0    0  502  501  0.00000000000E+00  0.00000000000E+00  0.43650132626E+03  0.43650132626E+03  0.00000000000E+00 0.  1.
         21   -1    0    0  503  502 -0.00000000000E+00 -0.00000000000E+00 -0.60765634812E+03  0.60765634812E+03  0.00000000000E+00 0.  1.
         25    1    1    2    0    0 -0.35440756416E+03 -0.21321090965E+03 -0.38262262396E+03  0.57713835940E+03  0.12500000000E+03 0.  0.
         21    1    1    2  503  504  0.33152447159E+03  0.21154995932E+03  0.19654111437E+03  0.43964789342E+03  0.00000000000E+00 0.  1.
         21    1    1    2  504  501  0.22883092570E+02  0.16609503273E+01  0.14926487732E+02  0.27371421548E+02  0.00000000000E+00 0. -1.
<mgrwt>
<rscale>  4 0.43207478E+03</rscale>
<asrwt>0</asrwt>
<pdfrwt beam="1">  1       21 0.67154051E-01 0.43207478E+03</pdfrwt>
<pdfrwt beam="2">  1       21 0.93485591E-01 0.43207478E+03</pdfrwt>
<totfact> 0.16904427E+03</totfact>
</mgrwt>
</event>
<event>
 5    0  0.2159162E+000  0.2413146E+03  0.7546771E-02  0.1118920E+00
         21   -1    0    0  502  501  0.00000000000E+00  0.00000000000E+00  0.91009119869E+03  0.91009119869E+03  0.00000000000E+00 0. -1.
         21   -1    0    0  503  502 -0.00000000000E+00 -0.00000000000E+00 -0.56991428715E+02  0.56991428715E+02  0.00000000000E+00 0. -1.
         25    1    1    2    0    0 -0.20144793755E+03  0.45016141475E+02  0.48264036204E+03  0.53960582244E+03  0.12500000000E+03 0.  0.
         21    1    1    2  503  504  0.11502552910E+03  0.10242995430E+00  0.18217959840E+03  0.21545368159E+03  0.00000000000E+00 0. -1.
         21    1    1    2  504  501  0.86422408454E+02 -0.45118571429E+02  0.18827980953E+03  0.21202312338E+03  0.00000000000E+00 0. -1.
<mgrwt>
<rscale>  4 0.24131458E+03</rscale>
<asrwt>0</asrwt>
<pdfrwt beam="1">  1       21 0.14001402E+00 0.24131458E+03</pdfrwt>
<pdfrwt beam="2">  1       21 0.87679128E-02 0.24131458E+03</pdfrwt>
<totfact> 0.35614870E+04</totfact>
</mgrwt>
</event>
<event>
 5    0  0.2159162E+000  0.3068376E+03  0.7546771E-02  0.1081872E+00
         21   -1    0    0  502  501  0.00000000000E+00  0.00000000000E+00  0.17203967617E+04  0.17203967617E+04  0.00000000000E+00 0.  1.
         21   -1    0    0  503  502 -0.00000000000E+00 -0.00000000000E+00 -0.30461155395E+03  0.30461155395E+03  0.00000000000E+00 0. -1.
         25    1    1    2    0    0 -0.28107415263E+03  0.21569382867E+02  0.16150896251E+04  0.16442650074E+04  0.12500000000E+03 0.  0.
         21    1    1    2  503  504  0.30233863862E+02 -0.38245063774E+02  0.14353439683E+02  0.50821183160E+02  0.00000000000E+00 0.  1.
         21    1    1    2  504  501  0.25084028876E+03  0.16675680907E+02 -0.21365785697E+03  0.32992212512E+03  0.00000000000E+00 0. -1.
<mgrwt>
<rscale>  4 0.30683757E+03</rscale>
<asrwt>0</asrwt>
<pdfrwt beam="1">  1       21 0.26467642E+00 0.30683757E+03</pdfrwt>
<pdfrwt beam="2">  1       21 0.46863317E-01 0.30683757E+03</pdfrwt>
<totfact> 0.20881797E+02</totfact>
</mgrwt>
</event>
<event>
 5    0  0.4277837E+000  0.2388205E+03  0.7546771E-02  0.1120581E+00
         21   -1    0    0  502  501  0.00000000000E+00  0.00000000000E+00  0.10049879854E+03  0.10049879854E+03  0.00000000000E+00 0.  1.
         21   -1    0    0  503  502 -0.00000000000E+00 -0.00000000000E+00 -0.60515785943E+03  0.60515785943E+03  0.00000000000E+00 0.  1.
         25    1    1    2    0    0  0.20319307362E+03  0.51097019143E+02 -0.15012396633E+03  0.28646210185E+03  0.12500000000E+03 0.  0.
         21    1    1    2  503  504 -0.10916100742E+02 -0.16798368383E+02 -0.78717833050E+02  0.81227111704E+02  0.00000000000E+00 0.  1.
         21    1    1    2  504  501 -0.19227697287E+03 -0.34298650760E+02 -0.27581726151E+03  0.33796744442E+03  0.00000000000E+00 0.  1.
<mgrwt>
<rscale>  4 0.23882052E+03</rscale>
<asrwt>0</asrwt>
<pdfrwt beam="1">  1       21 0.15461353E-01 0.23882052E+03</pdfrwt>
<pdfrwt beam="2">  1       21 0.93101210E-01 0.23882052E+03</pdfrwt>
<totfact> 0.35204847E+04</totfact>
</mgrwt>
</event>
<event>
 5    0  0.2159162E+000  0.3087108E+03  0.7546771E-02  0.1080965E+00
         21   -1    0    0  502  501  0.00000000000E+00  0.00000000000E+00  0.12009422623E+04  0.12009422623E+04  0.00000000000E+00 0. -1.
         21   -1    0    0  503  502 -0.00000000000E+00 -0.00000000000E+00 -0.65650370255E+03  0.65650370255E+03  0.00000000000E+00 0. -1.
         25    1    1    2    0    0  0.28305035012E+03  0.14086484047E+02  0.11450381233E+04  0.11861927472E+04  0.12500000000E+03 0.  0.
         21    1    1    2  503  504 -0.24917625601E+03 -0.52569399035E+01 -0.57837316227E+03  0.62978723138E+03  0.00000000000E+00 0. -1.
         21    1    1    2  504  501 -0.33874094107E+02 -0.88295441434E+01 -0.22226401290E+02  0.41465986250E+02  0.00000000000E+00 0. -1.
<mgrwt>
<rscale>  4 0.30871082E+03</rscale>
<asrwt>0</asrwt>
<pdfrwt beam="1">  1       21 0.18476035E+00 0.30871082E+03</pdfrwt>
<pdfrwt beam="2">  1       21 0.10100057E+00 0.30871082E+03</pdfrwt>
<totfact> 0.11945425E+02</totfact>
</mgrwt>
</event>
