<event>
 5    0  0.2947253E-001  0.2677104E+03  0.7546771E-02  0.1102597E+00
         21   -1    0    0  503  502  0.00000000000E+00  0.00000000000E+00  0.30344948458E+03  0.30344948458E+03  0.00000000000E+00 0. -1.
          2   -1    0    0  502    0 -0.00000000000E+00 -0.00000000000E+00 -0.38392372370E+03  0.38392372370E+03  0.00000000000E+00 0.  1.
         25    1    1    2    0    0 -0.23190460721E+03 -0.68172314473E+02  0.17340733152E+03  0.32267989391E+03  0.12500000000E+03 0.  0.
         21    1    1    2  503  501  0.25739326867E+02 -0.13757554003E+02 -0.72434433514E+02  0.78093088031E+02  0.00000000000E+00 0.  1.
          2    1    1    2  501    0  0.20616528034E+03  0.81929868475E+02 -0.18144713713E+03  0.28660022635E+03  0.00000000000E+00 0.  1.
<mgrwt>
<rscale>  4 0.26771040E+03</rscale>
<asrwt>0</asrwt>
<pdfrwt beam="1">  1       21 0.46684536E-01 0.26771040E+03</pdfrwt>
<pdfrwt beam="2">  1        2 0.59065188E-01 0.26771040E+03</pdfrwt>
<totfact> 0.44716564E+03</totfact>
</mgrwt>
</event>
<event>
 5    0  0.2947253E-001  0.2264468E+03  0.7546771E-02  0.1129166E+00
          2   -1    0    0  502    0 -0.00000000000E+00  0.00000000000E+00  0.64448025151E+03  0.64448025151E+03  0.00000000000E+00 0.  1.
         21   -1    0    0  503  502  0.00000000000E+00 -0.00000000000E+00 -0.87519613987E+02  0.87519613987E+02  0.00000000000E+00 0.  1.
         25    1    1    2    0    0  0.96600117264E+02  0.18105270879E+03  0.22302126428E+03  0.32783402864E+03  0.12500000000E+03 0.  0.
         21    1    1    2  503  501 -0.81599427357E+02 -0.15502827753E+03  0.19552893911E+03  0.26253342532E+03  0.00000000000E+00 0.  1.
          2    1    1    2  501    0 -0.15000689907E+02 -0.26024431257E+02  0.13841043413E+03  0.14163241153E+03  0.00000000000E+00 0.  1.
<mgrwt>
<rscale>  4 0.22644679E+03</rscale>
<asrwt>0</asrwt>
<pdfrwt beam="1">  1       21 0.13464556E-01 0.22644679E+03</pdfrwt>
<pdfrwt beam="2">  1        2 0.99150805E-01 0.22644679E+03</pdfrwt>
<totfact> 0.27711755E+04</totfact>
</mgrwt>
</event>
<event>
 5    0  0.2947253E-001  0.3901163E+03  0.7546771E-02  0.1047257E+00
         21   -1    0    0  503  502  0.00000000000E+00  0.00000000000E+00  0.74103235460E+03  0.74103235460E+03  0.00000000000E+00 0. -1.
          1   -1    0    0  502    0 -0.00000000000E+00 -0.00000000000E+00 -0.52579581164E+03  0.52579581164E+03  0.00000000000E+00 0. -1.
         25    1    1    2    0    0 -0.34981225822E+03  0.14637555564E+03  0.58444288112E+03  0.70780851971E+03  0.12500000000E+03 0.  0.
         21    1    1    2  503  501  0.34650493232E+02 -0.93104975387E+02 -0.73462277174E+02  0.12355524793E+03  0.00000000000E+00 0. -1.
          1    1    1    2  501    0  0.31516176499E+03 -0.53270580257E+02 -0.29574406099E+03  0.43546439859E+03  0.00000000000E+00 0. -1.
<mgrwt>
<rscale>  4 0.39011632E+03</rscale>
<asrwt>0</asrwt>
<pdfrwt beam="1">  1       21 0.11400498E+00 0.39011632E+03</pdfrwt>
<pdfrwt beam="2">  1        1 0.80891663E-01 0.39011632E+03</pdfrwt>
<totfact> 0.25332071E+02</totfact>
</mgrwt>
</event>
<event>
 5    0  0.2947253E-001  0.3731411E+03  0.7546771E-02  0.1053498E+00
          4   -1    0    0  502    0 -0.00000000000E+00  0.00000000000E+00  0.92183568251E+03  0.92183568251E+03  0.00000000000E+00 0. -1.
         21   -1    0    0  503  502  0.00000000000E+00 -0.00000000000E+00 -0.18926926086E+03  0.18926926086E+03  0.00000000000E+00 0.  1.
         25    1    1    2    0    0  0.26458788935E+03  0.23152222634E+03  0.10608352799E+03  0.38792783787E+03  0.12500000000E+03 0.  0.
         21    1    1    2  503  501 -0.37931756679E+02 -0.11819688174E+01  0.72391920921E+02  0.81736194123E+02  0.00000000000E+00 0. -1.
          4    1    1    2  501    0 -0.22665613267E+03 -0.23034025753E+03  0.55409097274E+03  0.64144091138E+03  0.00000000000E+00 0. -1.
<mgrwt>
<rscale>  4 0.37314112E+03</rscale>
<asrwt>0</asrwt>
<pdfrwt beam="1">  1       21 0.29118348E-01 0.37314112E+03</pdfrwt>
<pdfrwt beam="2">  1        4 0.14182087E+00 0.37314112E+03</pdfrwt>
<totfact> 0.16931818E+02</totfact>
</mgrwt>
</event>
<event>
 5    0  0.2947253E-001  0.3038181E+03  0.7546771E-02  0.1083347E+00
         21   -1    0    0  503  502  0.00000000000E+00  0.00000000000E+00  0.16887940134E+03  0.16887940134E+03  0.00000000000E+00 0. -1.
          2   -1    0    0  502    0 -0.00000000000E+00 -0.00000000000E+00 -0.96974464429E+03  0.96974464429E+03  0.00000000000E+00 0. -1.
         25    1    1    2    0    0 -0.28267517924E+03 -0.13213249592E+02 -0.29023402212E+02  0.31072046086E+03  0.12500000000E+03 0.  0.
         21    1    1    2  503  501  0.32218741030E+02  0.18347047939E+02 -0.40792856961E+02  0.55124573655E+02  0.00000000000E+00 0.  1.
          2    1    1    2  501    0  0.25045643821E+03 -0.51337983469E+01 -0.73104898378E+03  0.77277901111E+03  0.00000000000E+00 0. -1.
<mgrwt>
<rscale>  4 0.30381810E+03</rscale>
<asrwt>0</asrwt>
<pdfrwt beam="1">  1       21 0.25981446E-01 0.30381810E+03</pdfrwt>
<pdfrwt beam="2">  1        2 0.14919148E+00 0.30381810E+03</pdfrwt>
<totfact> 0.47287339E+03</totfact>
</mgrwt>
</event>
<event>
 5    0  0.2947253E-001  0.2808800E+03  0.7546771E-02  0.1095209E+00
         21   -1    0    0  503  502  0.00000000000E+00  0.00000000000E+00  0.35184859361E+03  0.35184859361E+03  0.00000000000E+00 0. -1.
          2   -1    0    0  502    0 -0.00000000000E+00 -0.00000000000E+00 -0.11777202726E+04  0.11777202726E+04  0.00000000000E+00 0. -1.
         25    1    1    2    0    0  0.95967005074E+02 -0.23250577657E+03  0.27857805644E+03  0.39559996933E+03  0.12500000000E+03 0.  0.
         21    1    1    2  503  501 -0.51639847314E+02  0.88763333131E+02 -0.35409751933E+03  0.36868774909E+03  0.00000000000E+00 0. -1.
          2    1    1    2  501    0 -0.44327157760E+02  0.14374244344E+03 -0.75035221607E+03  0.76528114776E+03  0.00000000000E+00 0. -1.
<mgrwt>
<rscale>  4 0.28088005E+03</rscale>
<asrwt>0</asrwt>
<pdfrwt beam="1">  1       21 0.54130552E-01 0.28088005E+03</pdfrwt>
<pdfrwt beam="2">  1        2 0.18118774E+00 0.28088005E+03</pdfrwt>
<totfact> 0.80851257E+02</totfact>
</mgrwt>
</event>
<event>
 5    0  0.2947253E-001  0.3359480E+03  0.7546771E-02  0.1068535E+00
          2   -1    0    0  502    0 -0.00000000000E+00  0.00000000000E+00  0.87003255361E+03  0.87003255361E+03  0.00000000000E+00 0.  1.
         21   -1    0    0  503  502  0.00000000000E+00 -0.00000000000E+00 -0.70434228507E+03  0.70434228507E+03  0.00000000000E+00 0. -1.
         25    1    1    2    0    0 -0.15800299905E+03 -0.25765376329E+03 -0.44469906895E+03  0.55202596983E+03  0.12500000000E+03 0.  0.
         21    1    1    2  503  501  0.40159527036E+03  0.15322174730E+03  0.91165363936E+02  0.43939366017E+03  0.00000000000E+00 0.  1.
          2    1    1    2  501    0 -0.24359227131E+03  0.10443201599E+03  0.51922397355E+03  0.58295520867E+03  0.00000000000E+00 0.  1.
<mgrwt>
<rscale>  4 0.33594800E+03</rscale>
<asrwt>0</asrwt>
<pdfrwt beam="1">  1       21 0.10836035E+00 0.33594800E+03</pdfrwt>
<pdfrwt beam="2">  1        2 0.13385116E+00 0.33594800E+03</pdfrwt>
<totfact> 0.25094640E+02</totfact>
</mgrwt>
</event>
<event>
 5    0  0.2947253E-001  0.4990406E+03  0.7546771E-02  0.1014069E+00
         21   -1    0    0  501  502  0.00000000000E+00  0.00000000000E+00  0.28810905203E+03  0.28810905203E+03  0.00000000000E+00 0. -1.
         -3   -1    0    0    0  501 -0.00000000000E+00 -0.00000000000E+00 -0.87852493877E+03  0.87852493877E+03  0.00000000000E+00 0. -1.
         25    1    1    2    0    0 -0.43958782309E+03 -0.19892850050E+03 -0.37170206136E+03  0.62176959152E+03  0.12500000000E+03 0.  0.
         21    1    1    2  501  501  0.13936381540E+03  0.26381927785E+01 -0.46269010968E+02  0.14686747251E+03  0.00000000000E+00 0. -1.
         -3    1    1    2    0  502  0.30022400769E+03  0.19629030772E+03 -0.17244481442E+03  0.39799692677E+03  0.00000000000E+00 0. -1.
<mgrwt>
<rscale>  4 0.49888855E+03</rscale>
<asrwt>0</asrwt>
<pdfrwt beam="1">  1       21 0.44324471E-01 0.49904056E+03</pdfrwt>
<pdfrwt beam="2">  1       -3 0.13515768E+00 0.49904056E+03</pdfrwt>
<totfact> 0.99920385E+01</totfact>
</mgrwt>
</event>
<event>
 5    0  0.3413126E-001  0.3157650E+03  0.7546771E-02  0.1077615E+00
         21   -1    0    0  503  502  0.00000000000E+00  0.00000000000E+00  0.15690303534E+03  0.15690303534E+03  0.00000000000E+00 0. -1.
          2   -1    0    0  502    0 -0.00000000000E+00 -0.00000000000E+00 -0.15394526500E+04  0.15394526500E+04  0.00000000000E+00 0. -1.
         25    1    1    2    0    0 -0.59749648592E+02  0.28564773443E+03 -0.40422088340E+02  0.32003686337E+03  0.12500000000E+03 0.  0.
         21    1    1    2  503  501 -0.17141012886E+02 -0.19064319283E+02 -0.78121282673E+02  0.82220419599E+02  0.00000000000E+00 0.  1.
          2    1    1    2  501    0  0.76890661478E+02 -0.26658341515E+03 -0.12640062437E+04  0.12940984024E+04  0.00000000000E+00 0. -1.
<mgrwt>
<rscale>  4 0.31576496E+03</rscale>
<asrwt>0</asrwt>
<pdfrwt beam="1">  1       21 0.24138928E-01 0.31576496E+03</pdfrwt>
<pdfrwt beam="2">  1        2 0.23683888E+00 0.31576496E+03</pdfrwt>
<totfact> 0.25705222E+03</totfact>
</mgrwt>
</event>
<event>
 5    0  0.4390943E-001  0.2778052E+03  0.7546771E-02  0.1096894E+00
          2   -1    0    0  502    0 -0.00000000000E+00  0.00000000000E+00  0.21792221829E+04  0.21792221829E+04  0.00000000000E+00 0. -1.
         21   -1    0    0  503  502  0.00000000000E+00 -0.00000000000E+00 -0.26827837033E+03  0.26827837033E+03  0.00000000000E+00 0.  1.
         25    1    1    2    0    0  0.32911405445E+02  0.24655389994E+03 -0.18418543336E+03  0.33379823254E+03  0.12500000000E+03 0.  0.
         21    1    1    2  503  501  0.92737797085E+01 -0.19883601348E+02  0.39506740902E+02  0.45190078218E+02  0.00000000000E+00 0.  1.
          2    1    1    2  501    0 -0.42185185153E+02 -0.22667029860E+03  0.20556225050E+04  0.20685122425E+04  0.00000000000E+00 0. -1.
<mgrwt>
<rscale>  4 0.27780516E+03</rscale>
<asrwt>0</asrwt>
<pdfrwt beam="1">  1       21 0.41273597E-01 0.27780516E+03</pdfrwt>
<pdfrwt beam="2">  1        2 0.33526494E+00 0.27780516E+03</pdfrwt>
<totfact> 0.41387606E+02</totfact>
</mgrwt>
</event>
<event>
 5    0  0.2947253E-001  0.2341563E+03  0.7546771E-02  0.1123748E+00
          2   -1    0    0  502    0 -0.00000000000E+00  0.00000000000E+00  0.28254361843E+04  0.28254361843E+04  0.00000000000E+00 0. -1.
         21   -1    0    0  503  502  0.00000000000E+00 -0.00000000000E+00 -0.31598050073E+02  0.31598050073E+02  0.00000000000E+00 0. -1.
         25    1    1    2    0    0  0.78204288124E+02 -0.19444380012E+03  0.84960439595E+03  0.88395527698E+03  0.12500000000E+03 0.  0.
         21    1    1    2  503  501 -0.12760797099E+02  0.16431618218E+02  0.13315212491E+04  0.13316837735E+04  0.00000000000E+00 0. -1.
          2    1    1    2  501    0 -0.65443491025E+02  0.17801218190E+03  0.61271248925E+03  0.64139518389E+03  0.00000000000E+00 0. -1.
<mgrwt>
<rscale>  4 0.23415631E+03</rscale>
<asrwt>0</asrwt>
<pdfrwt beam="1">  1       21 0.48612407E-02 0.23415631E+03</pdfrwt>
<pdfrwt beam="2">  1        2 0.43468229E+00 0.23415631E+03</pdfrwt>
<totfact> 0.95779895E+03</totfact>
</mgrwt>
</event>
<event>
 5    0  0.2947253E-001  0.2983409E+03  0.7546771E-02  0.1086073E+00
          2   -1    0    0  502    0 -0.00000000000E+00  0.00000000000E+00  0.12016934989E+04  0.12016934989E+04  0.00000000000E+00 0.  1.
         21   -1    0    0  503  502  0.00000000000E+00 -0.00000000000E+00 -0.92087422442E+02  0.92087422442E+02  0.00000000000E+00 0. -1.
         25    1    1    2    0    0 -0.13200701157E+03 -0.23655112456E+03  0.24950796508E+03  0.38892352754E+03  0.12500000000E+03 0.  0.
         21    1    1    2  503  501  0.37896191796E+02  0.33799191063E+02  0.94295669570E+02  0.10709892609E+03  0.00000000000E+00 0. -1.
          2    1    1    2  501    0  0.94110819777E+02  0.20275193349E+03  0.76580244178E+03  0.79775846769E+03  0.00000000000E+00 0.  1.
<mgrwt>
<rscale>  4 0.29834089E+03</rscale>
<asrwt>0</asrwt>
<pdfrwt beam="1">  1       21 0.14167297E-01 0.29834089E+03</pdfrwt>
<pdfrwt beam="2">  1        2 0.18487591E+00 0.29834089E+03</pdfrwt>
<totfact> 0.10773712E+04</totfact>
</mgrwt>
</event>
<event>
 5    0  0.2947253E-001  0.4657515E+03  0.7546771E-02  0.1023126E+00
         21   -1    0    0  503  502  0.00000000000E+00  0.00000000000E+00  0.12637809071E+03  0.12637809071E+03  0.00000000000E+00 0.  1.
          2   -1    0    0  502    0 -0.00000000000E+00 -0.00000000000E+00 -0.31923555264E+04  0.31923555264E+04  0.00000000000E+00 0. -1.
         25    1    1    2    0    0  0.44657565129E+03 -0.53723105586E+02 -0.40774348845E+03  0.61983524970E+03  0.12500000000E+03 0.  0.
         21    1    1    2  503  501 -0.42553202967E+01  0.20696178002E+02 -0.18533070572E+03  0.18653125748E+03  0.00000000000E+00 0.  1.
          2    1    1    2  501    0 -0.44232033099E+03  0.33026927584E+02 -0.24729032415E+04  0.25123671099E+04  0.00000000000E+00 0. -1.
<mgrwt>
<rscale>  4 0.46575152E+03</rscale>
<asrwt>0</asrwt>
<pdfrwt beam="1">  1       21 0.19442785E-01 0.46575152E+03</pdfrwt>
<pdfrwt beam="2">  1        2 0.49113156E+00 0.46575152E+03</pdfrwt>
<totfact> 0.44078503E+02</totfact>
</mgrwt>
</event>
<event>
 5    0  0.2947253E-001  0.3321685E+03  0.7546771E-02  0.1070181E+00
          2   -1    0    0  502    0 -0.00000000000E+00  0.00000000000E+00  0.10913963435E+04  0.10913963435E+04  0.00000000000E+00 0. -1.
         21   -1    0    0  503  502  0.00000000000E+00 -0.00000000000E+00 -0.20634212504E+03  0.20634212504E+03  0.00000000000E+00 0. -1.
         25    1    1    2    0    0 -0.29912823443E+02 -0.30629419888E+03 -0.26204074641E+02  0.33320049040E+03  0.12500000000E+03 0.  0.
         21    1    1    2  503  501 -0.12942431706E+02  0.26514603278E+02  0.51085671756E+02  0.58993869039E+02  0.00000000000E+00 0. -1.
          2    1    1    2  501    0  0.42855255149E+02  0.27977959560E+03  0.86017262132E+03  0.90554410908E+03  0.00000000000E+00 0. -1.
<mgrwt>
<rscale>  4 0.33216850E+03</rscale>
<asrwt>0</asrwt>
<pdfrwt beam="1">  1       21 0.31744943E-01 0.33216850E+03</pdfrwt>
<pdfrwt beam="2">  1        2 0.16790713E+00 0.33216850E+03</pdfrwt>
<totfact> 0.26690437E+03</totfact>
</mgrwt>
</event>
<event>
 5    0  0.2947253E-001  0.2390034E+03  0.7546771E-02  0.1120459E+00
         21   -1    0    0  503  502  0.00000000000E+00  0.00000000000E+00  0.67324921666E+02  0.67324921666E+02  0.00000000000E+00 0. -1.
          1   -1    0    0  502    0 -0.00000000000E+00 -0.00000000000E+00 -0.16092172878E+04  0.16092172878E+04  0.00000000000E+00 0.  1.
         25    1    1    2    0    0  0.62599803083E+02 -0.19385269736E+03 -0.18036341657E+03  0.29942205272E+03  0.12500000000E+03 0.  0.
         21    1    1    2  503  501 -0.22293968870E+02  0.28122937253E+02 -0.25980916960E+03  0.26227604781E+03  0.00000000000E+00 0.  1.
          1    1    1    2  501    0 -0.40305834214E+02  0.16572976011E+03 -0.11017197800E+04  0.11148441090E+04  0.00000000000E+00 0.  1.
<mgrwt>
<rscale>  4 0.23900335E+03</rscale>
<asrwt>0</asrwt>
<pdfrwt beam="1">  1       21 0.10357679E-01 0.23900335E+03</pdfrwt>
<pdfrwt beam="2">  1        1 0.24757191E+00 0.23900335E+03</pdfrwt>
<totfact> 0.51630416E+03</totfact>
</mgrwt>
</event>
<event>
 5    0  0.2947253E-001  0.3793145E+03  0.7546771E-02  0.1051187E+00
         21   -1    0    0  503  502  0.00000000000E+00  0.00000000000E+00  0.68033330405E+02  0.68033330405E+02  0.00000000000E+00 0. -1.
          2   -1    0    0  502    0 -0.00000000000E+00 -0.00000000000E+00 -0.27164119003E+04  0.27164119003E+04  0.00000000000E+00 0.  1.
         25    1    1    2    0    0 -0.28638088310E+03 -0.21503593006E+03 -0.64123497628E+03  0.74502466820E+03  0.12500000000E+03 0.  0.
         21    1    1    2  503  501  0.31888959483E+02  0.17716637103E+02 -0.29594504549E+03  0.29818493409E+03  0.00000000000E+00 0.  1.
          2    1    1    2  501    0  0.25449192362E+03  0.19731929296E+03 -0.17111985481E+04  0.17412356284E+04  0.00000000000E+00 0.  1.
<mgrwt>
<rscale>  4 0.37931446E+03</rscale>
<asrwt>0</asrwt>
<pdfrwt beam="1">  1       21 0.10466666E-01 0.37931446E+03</pdfrwt>
<pdfrwt beam="2">  1        2 0.41790953E+00 0.37931446E+03</pdfrwt>
<totfact> 0.27413511E+03</totfact>
</mgrwt>
</event>
<event>
 5    0  0.2947253E-001  0.2051715E+03  0.7546771E-02  0.1145448E+00
         21   -1    0    0  503  502  0.00000000000E+00  0.00000000000E+00  0.21992933305E+03  0.21992933305E+03  0.00000000000E+00 0. -1.
          1   -1    0    0  502    0 -0.00000000000E+00 -0.00000000000E+00 -0.92817125535E+03  0.92817125535E+03  0.00000000000E+00 0.  1.
         25    1    1    2    0    0 -0.13003584849E+03  0.16982885090E+03  0.11664281124E+03  0.27382787642E+03  0.12500000000E+03 0.  0.
         21    1    1    2  503  501  0.96568005910E+01 -0.63363170250E+02 -0.45776856075E+02  0.78763352480E+02  0.00000000000E+00 0. -1.
          1    1    1    2  501    0  0.12037904790E+03 -0.10646568065E+03 -0.77910787746E+03  0.79550935950E+03  0.00000000000E+00 0.  1.
<mgrwt>
<rscale>  4 0.20517147E+03</rscale>
<asrwt>0</asrwt>
<pdfrwt beam="1">  1       21 0.33835282E-01 0.20517147E+03</pdfrwt>
<pdfrwt beam="2">  1        1 0.14279558E+00 0.20517147E+03</pdfrwt>
<totfact> 0.17026519E+03</totfact>
</mgrwt>
</event>
<event>
 5    0  0.2947253E-001  0.2807088E+03  0.7546771E-02  0.1095302E+00
         21   -1    0    0  503  502  0.00000000000E+00  0.00000000000E+00  0.82624019074E+02  0.82624019074E+02  0.00000000000E+00 0.  1.
          2   -1    0    0  502    0 -0.00000000000E+00 -0.00000000000E+00 -0.17899046319E+04  0.17899046319E+04  0.00000000000E+00 0. -1.
         25    1    1    2    0    0 -0.25227492852E+03  0.45076611986E+02 -0.23354251124E+03  0.36856701570E+03  0.12500000000E+03 0.  0.
         21    1    1    2  503  501  0.16607163128E+02 -0.58763374359E+02 -0.22692255386E+03  0.23499527119E+03  0.00000000000E+00 0.  1.
          2    1    1    2  501    0  0.23566776539E+03  0.13686762373E+02 -0.12468155477E+04  0.12689663640E+04  0.00000000000E+00 0. -1.
<mgrwt>
<rscale>  4 0.28070876E+03</rscale>
<asrwt>0</asrwt>
<pdfrwt beam="1">  1       21 0.12711389E-01 0.28070876E+03</pdfrwt>
<pdfrwt beam="2">  1        2 0.27536992E+00 0.28070876E+03</pdfrwt>
<totfact> 0.63328216E+03</totfact>
</mgrwt>
</event>
<event>
 5    0  0.2947253E-001  0.2627069E+03  0.7546771E-02  0.1105528E+00
         21   -1    0    0  501  502  0.00000000000E+00  0.00000000000E+00  0.13824967136E+04  0.13824967136E+04  0.00000000000E+00 0.  1.
         -1   -1    0    0    0  501 -0.00000000000E+00 -0.00000000000E+00 -0.15872656064E+03  0.15872656064E+03  0.00000000000E+00 0. -1.
         25    1    1    2    0    0  0.12502914408E+03  0.20240072387E+03  0.12347943913E+04  0.12637011231E+04  0.12500000000E+03 0.  0.
         21    1    1    2  501  501  0.48960516725E+01 -0.55583914699E+02 -0.53078418866E+02  0.77012086354E+02  0.00000000000E+00 0. -1.
         -1    1    1    2    0  502 -0.12992519575E+03 -0.14681680917E+03  0.42054180494E+02  0.20051006469E+03  0.00000000000E+00 0. -1.
<mgrwt>
<rscale>  4 0.26270691E+03</rscale>
<asrwt>0</asrwt>
<pdfrwt beam="1">  1       21 0.21269179E+00 0.26270691E+03</pdfrwt>
<pdfrwt beam="2">  1       -1 0.24419472E-01 0.26270691E+03</pdfrwt>
<totfact> 0.13986318E+02</totfact>
</mgrwt>
</event>
<event>
 5    0  0.2947253E-001  0.4277020E+03  0.7546771E-02  0.1034588E+00
         21   -1    0    0  501  502  0.00000000000E+00  0.00000000000E+00  0.11010589834E+04  0.11010589834E+04  0.00000000000E+00 0. -1.
         -1   -1    0    0    0  501 -0.00000000000E+00 -0.00000000000E+00 -0.34109803110E+03  0.34109803110E+03  0.00000000000E+00 0. -1.
         25    1    1    2    0    0 -0.31102223673E+03 -0.25870118439E+03  0.84098158447E+03  0.94156049193E+03  0.12500000000E+03 0.  0.
         21    1    1    2  501  501 -0.38594869729E+02  0.43774342741E+02  0.42294147748E+02  0.72073240426E+02  0.00000000000E+00 0. -1.
         -1    1    1    2    0  502  0.34961710646E+03  0.21492684165E+03 -0.12331477991E+03  0.42852328214E+03  0.00000000000E+00 0. -1.
<mgrwt>
<rscale>  4 0.42770204E+03</rscale>
<asrwt>0</asrwt>
<pdfrwt beam="1">  1       21 0.16939369E+00 0.42770204E+03</pdfrwt>
<pdfrwt beam="2">  1       -1 0.52476621E-01 0.42770204E+03</pdfrwt>
<totfact> 0.65777215E+01</totfact>
</mgrwt>
</event>
<event>
 5    0  0.2947253E-001  0.3575144E+03  0.7546771E-02  0.1059572E+00
         21   -1    0    0  501  502  0.00000000000E+00  0.00000000000E+00  0.38409246393E+03  0.38409246393E+03  0.00000000000E+00 0.  1.
         -2   -1    0    0    0  501 -0.00000000000E+00 -0.00000000000E+00 -0.63302473061E+03  0.63302473061E+03  0.00000000000E+00 0.  1.
         25    1    1    2    0    0 -0.30017813444E+03  0.19672589552E+03  0.18236721573E+03  0.42153385598E+03  0.12500000000E+03 0.  0.
         21    1    1    2  501  501  0.47630054331E+02 -0.12216161697E+03 -0.70379520561E+02  0.14881317029E+03  0.00000000000E+00 0.  1.
         -2    1    1    2    0  502  0.25254808011E+03 -0.74564278548E+02 -0.36091996185E+03  0.44677016828E+03  0.00000000000E+00 0.  1.
<mgrwt>
<rscale>  4 0.35751437E+03</rscale>
<asrwt>0</asrwt>
<pdfrwt beam="1">  1       21 0.59091150E-01 0.35751437E+03</pdfrwt>
<pdfrwt beam="2">  1       -2 0.97388418E-01 0.35751437E+03</pdfrwt>
<totfact> 0.18818833E+02</totfact>
</mgrwt>
</event>
<event>
 5    0  0.2947253E-001  0.2828282E+03  0.7546771E-02  0.1094154E+00
         21   -1    0    0  503  502  0.00000000000E+00  0.00000000000E+00  0.19166300844E+03  0.19166300844E+03  0.00000000000E+00 0.  1.
          2   -1    0    0  502    0 -0.00000000000E+00 -0.00000000000E+00 -0.80894778803E+03  0.80894778803E+03  0.00000000000E+00 0.  1.
         25    1    1    2    0    0  0.49429460681E+02 -0.24884441936E+03  0.42997688720E+02  0.28607799263E+03  0.12500000000E+03 0.  0.
         21    1    1    2  503  501  0.20859154728E+02  0.10168788097E+03 -0.18614053017E+03  0.21312866171E+03  0.00000000000E+00 0.  1.
          2    1    1    2  501    0 -0.70288615409E+02  0.14715653839E+03 -0.47414193814E+03  0.50140414214E+03  0.00000000000E+00 0.  1.
<mgrwt>
<rscale>  4 0.28282825E+03</rscale>
<asrwt>0</asrwt>
<pdfrwt beam="1">  1       21 0.29486617E-01 0.28282825E+03</pdfrwt>
<pdfrwt beam="2">  1        2 0.12445350E+00 0.28282825E+03</pdfrwt>
<totfact> 0.47369528E+03</totfact>
</mgrwt>
</event>
<event>
 5    0  0.2947253E-001  0.2527410E+03  0.7546771E-02  0.1111585E+00
          2   -1    0    0  502    0 -0.00000000000E+00  0.00000000000E+00  0.37324022705E+03  0.37324022705E+03  0.00000000000E+00 0.  1.
         21   -1    0    0  503  502  0.00000000000E+00 -0.00000000000E+00 -0.15265637741E+03  0.15265637741E+03  0.00000000000E+00 0.  1.
         25    1    1    2    0    0 -0.17677097365E+03 -0.13040331846E+03  0.12497659620E+03  0.28195239348E+03  0.12500000000E+03 0.  0.
         21    1    1    2  503  501  0.17804918621E+02  0.92725579122E+01  0.24817998182E+02  0.31920659315E+02  0.00000000000E+00 0.  1.
          2    1    1    2  501    0  0.15896605503E+03  0.12113076054E+03  0.70789255252E+02  0.21202355167E+03  0.00000000000E+00 0.  1.
<mgrwt>
<rscale>  4 0.25274098E+03</rscale>
<asrwt>0</asrwt>
<pdfrwt beam="1">  1       21 0.23485597E-01 0.25274098E+03</pdfrwt>
<pdfrwt beam="2">  1        2 0.57421573E-01 0.25274098E+03</pdfrwt>
<totfact> 0.18134464E+04</totfact>
</mgrwt>
</event>
<event>
 5    0  0.2947253E-001  0.2240692E+03  0.7546771E-02  0.1130885E+00
          2   -1    0    0  502    0 -0.00000000000E+00  0.00000000000E+00  0.30295692237E+04  0.30295692237E+04  0.00000000000E+00 0. -1.
         21   -1    0    0  503  502  0.00000000000E+00 -0.00000000000E+00 -0.39026304514E+02  0.39026304514E+02  0.00000000000E+00 0.  1.
         25    1    1    2    0    0 -0.18246677075E+03  0.10536703464E+03  0.41399944111E+03  0.48105807514E+03  0.12500000000E+03 0.  0.
         21    1    1    2  503  501  0.15813267165E+02 -0.28536783261E+02  0.12679206866E+03  0.13092225209E+03  0.00000000000E+00 0. -1.
          2    1    1    2  501    0  0.16665350358E+03 -0.76830251383E+02  0.24497514095E+04  0.24566152010E+04  0.00000000000E+00 0. -1.
<mgrwt>
<rscale>  4 0.22406917E+03</rscale>
<asrwt>0</asrwt>
<pdfrwt beam="1">  1       21 0.60040492E-02 0.22406917E+03</pdfrwt>
<pdfrwt beam="2">  1        2 0.46608739E+00 0.22406917E+03</pdfrwt>
<totfact> 0.51049647E+03</totfact>
</mgrwt>
</event>
<event>
 5    0  0.2947253E-001  0.2375097E+03  0.7546771E-02  0.1121463E+00
          2   -1    0    0  502    0 -0.00000000000E+00  0.00000000000E+00  0.19295943466E+04  0.19295943466E+04  0.00000000000E+00 0. -1.
         21   -1    0    0  503  502  0.00000000000E+00 -0.00000000000E+00 -0.25545394109E+02  0.25545394109E+02  0.00000000000E+00 0.  1.
         25    1    1    2    0    0  0.83328524879E+02  0.18396250168E+03  0.10054489044E+04  0.10331206824E+04  0.12500000000E+03 0.  0.
         21    1    1    2  503  501 -0.34077093419E+02 -0.57607215663E+02  0.21816658121E+03  0.22820275360E+03  0.00000000000E+00 0. -1.
          2    1    1    2  501    0 -0.49251431461E+02 -0.12635528602E+03  0.68043346686E+03  0.69381630467E+03  0.00000000000E+00 0. -1.
<mgrwt>
<rscale>  4 0.23750967E+03</rscale>
<asrwt>0</asrwt>
<pdfrwt beam="1">  1       21 0.39300621E-02 0.23750967E+03</pdfrwt>
<pdfrwt beam="2">  1        2 0.29686056E+00 0.23750967E+03</pdfrwt>
<totfact> 0.41845126E+04</totfact>
</mgrwt>
</event>
<event>
 5    0  0.3336937E-001  0.3459491E+03  0.7546771E-02  0.1064290E+00
          2   -1    0    0  502    0 -0.00000000000E+00  0.00000000000E+00  0.18316336713E+04  0.18316336713E+04  0.00000000000E+00 0.  1.
         21   -1    0    0  503  502  0.00000000000E+00 -0.00000000000E+00 -0.16080706197E+03  0.16080706197E+03  0.00000000000E+00 0. -1.
         25    1    1    2    0    0 -0.32150733301E+02  0.32436423578E+03  0.73229724185E+02  0.35669793889E+03  0.12500000000E+03 0.  0.
         21    1    1    2  503  501  0.26303892278E+02 -0.25268452200E+02  0.67978863068E+02  0.77146064382E+02  0.00000000000E+00 0.  1.
          2    1    1    2  501    0  0.58468410229E+01 -0.29909578357E+03  0.15296180221E+04  0.15585967300E+04  0.00000000000E+00 0.  1.
<mgrwt>
<rscale>  4 0.34594914E+03</rscale>
<asrwt>0</asrwt>
<pdfrwt beam="1">  1       21 0.24739549E-01 0.34594914E+03</pdfrwt>
<pdfrwt beam="2">  1        2 0.28178978E+00 0.34594914E+03</pdfrwt>
<totfact> 0.16957117E+03</totfact>
</mgrwt>
</event>
<event>
 5    0  0.2947253E-001  0.5922062E+03  0.7546771E-02  0.9928232E-01
          1   -1    0    0  502    0 -0.00000000000E+00  0.00000000000E+00  0.51070190739E+03  0.51070190739E+03  0.00000000000E+00 0.  1.
         21   -1    0    0  503  502  0.00000000000E+00 -0.00000000000E+00 -0.84189951680E+03  0.84189951680E+03  0.00000000000E+00 0. -1.
         25    1    1    2    0    0  0.40687711132E+03 -0.39394529089E+03 -0.46747683133E+03  0.74491708516E+03  0.12500000000E+03 0.  0.
         21    1    1    2  503  501 -0.61567782445E+02  0.15290890953E+03 -0.73871056601E+00  0.16484014118E+03  0.00000000000E+00 0. -1.
          1    1    1    2  501    0 -0.34530932887E+03  0.24103638136E+03  0.13701793249E+03  0.44284419785E+03  0.00000000000E+00 0.  1.
<mgrwt>
<rscale>  4 0.58912355E+03</rscale>
<asrwt>0</asrwt>
<pdfrwt beam="1">  1       21 0.12952300E+00 0.59220624E+03</pdfrwt>
<pdfrwt beam="2">  1        1 0.78569525E-01 0.59220624E+03</pdfrwt>
<totfact> 0.17956905E+02</totfact>
</mgrwt>
</event>
<event>
 5    0  0.2947253E-001  0.4272737E+03  0.7546771E-02  0.1034725E+00
         21   -1    0    0  503  502  0.00000000000E+00  0.00000000000E+00  0.18907672107E+03  0.18907672107E+03  0.00000000000E+00 0.  1.
          2   -1    0    0  502    0 -0.00000000000E+00 -0.00000000000E+00 -0.22109812159E+04  0.22109812159E+04  0.00000000000E+00 0. -1.
         25    1    1    2    0    0  0.35661733564E+03  0.19940379300E+03 -0.10749294830E+03  0.44058771053E+03  0.12500000000E+03 0.  0.
         21    1    1    2  503  501 -0.47558092602E+02 -0.52657599334E+02 -0.45453198040E+03  0.46003686390E+03  0.00000000000E+00 0. -1.
          2    1    1    2  501    0 -0.30905924304E+03 -0.14674619367E+03 -0.14598795661E+04  0.14994333625E+04  0.00000000000E+00 0. -1.
<mgrwt>
<rscale>  4 0.42727368E+03</rscale>
<asrwt>0</asrwt>
<pdfrwt beam="1">  1       21 0.29088727E-01 0.42727368E+03</pdfrwt>
<pdfrwt beam="2">  1        2 0.34015095E+00 0.42727368E+03</pdfrwt>
<totfact> 0.75345656E+02</totfact>
</mgrwt>
</event>
<event>
 5    0  0.2947253E-001  0.2526776E+03  0.7546771E-02  0.1111624E+00
          2   -1    0    0  502    0 -0.00000000000E+00  0.00000000000E+00  0.27338072758E+04  0.27338072758E+04  0.00000000000E+00 0. -1.
         21   -1    0    0  503  502  0.00000000000E+00 -0.00000000000E+00 -0.92255032571E+02  0.92255032571E+02  0.00000000000E+00 0. -1.
         25    1    1    2    0    0 -0.20111577911E+03 -0.90395969709E+02  0.10978726071E+03  0.27621953327E+03  0.12500000000E+03 0.  0.
         21    1    1    2  503  501  0.31156039075E+02 -0.38759981199E+02  0.13998528364E+03  0.14855609900E+03  0.00000000000E+00 0.  1.
          2    1    1    2  501    0  0.16995974003E+03  0.12915595091E+03  0.23917796989E+04  0.24012866761E+04  0.00000000000E+00 0. -1.
<mgrwt>
<rscale>  4 0.25267762E+03</rscale>
<asrwt>0</asrwt>
<pdfrwt beam="1">  1       21 0.14193084E-01 0.25267762E+03</pdfrwt>
<pdfrwt beam="2">  1        2 0.42058567E+00 0.25267762E+03</pdfrwt>
<totfact> 0.16288495E+03</totfact>
</mgrwt>
</event>
<event>
 5    0  0.3294978E-001  0.3433851E+03  0.7546771E-02  0.1065363E+00
         21   -1    0    0  503  502  0.00000000000E+00  0.00000000000E+00  0.18062124317E+04  0.18062124317E+04  0.00000000000E+00 0.  1.
          1   -1    0    0  502    0 -0.00000000000E+00 -0.00000000000E+00 -0.24982186012E+03  0.24982186012E+03  0.00000000000E+00 0.  1.
         25    1    1    2    0    0 -0.31895251064E+03 -0.12468133777E+03  0.16377876932E+04  0.16778705755E+04  0.12500000000E+03 0.  0.
         21    1    1    2  503  501  0.22212603368E+02  0.95446975537E+01  0.32147388690E+02  0.40223818807E+02  0.00000000000E+00 0. -1.
          1    1    1    2  501    0  0.29673990727E+03  0.11513664022E+03 -0.11354451036E+03  0.33793989750E+03  0.00000000000E+00 0.  1.
<mgrwt>
<rscale>  4 0.34338507E+03</rscale>
<asrwt>0</asrwt>
<pdfrwt beam="1">  1       21 0.27787883E+00 0.34338507E+03</pdfrwt>
<pdfrwt beam="2">  1        1 0.38434133E-01 0.34338507E+03</pdfrwt>
<totfact> 0.48367849E+01</totfact>
</mgrwt>
</event>
<event>
 5    0  0.2947253E-001  0.2419753E+03  0.7546771E-02  0.1118484E+00
         21   -1    0    0  503  502  0.00000000000E+00  0.00000000000E+00  0.65701440131E+03  0.65701440131E+03  0.00000000000E+00 0.  1.
          2   -1    0    0  502    0 -0.00000000000E+00 -0.00000000000E+00 -0.16767760514E+04  0.16767760514E+04  0.00000000000E+00 0. -1.
         25    1    1    2    0    0 -0.20681974889E+03  0.17565648192E+02  0.62499989172E+03  0.67032292604E+03  0.12500000000E+03 0.  0.
         21    1    1    2  503  501  0.27773168682E+02  0.78537350241E+01 -0.44631117940E+02  0.53150416189E+02  0.00000000000E+00 0. -1.
          2    1    1    2  501    0  0.17904658021E+03 -0.25419383216E+02 -0.16001304238E+04  0.16103171104E+04  0.00000000000E+00 0. -1.
<mgrwt>
<rscale>  4 0.24197529E+03</rscale>
<asrwt>0</asrwt>
<pdfrwt beam="1">  1       21 0.10107914E+00 0.24197529E+03</pdfrwt>
<pdfrwt beam="2">  1        2 0.25796554E+00 0.24197529E+03</pdfrwt>
<totfact> 0.10864371E+02</totfact>
</mgrwt>
</event>
<event>
 5    0  0.2947253E-001  0.2674243E+03  0.7546771E-02  0.1102763E+00
         21   -1    0    0  503  502  0.00000000000E+00  0.00000000000E+00  0.33117851023E+03  0.33117851023E+03  0.00000000000E+00 0. -1.
          2   -1    0    0  502    0 -0.00000000000E+00 -0.00000000000E+00 -0.23336782853E+04  0.23336782853E+04  0.00000000000E+00 0.  1.
         25    1    1    2    0    0 -0.12291216440E+02 -0.23609257962E+03  0.26954020524E+03  0.37969422223E+03  0.12500000000E+03 0.  0.
         21    1    1    2  503  501  0.28889063943E+02  0.12953606265E+03 -0.14540705878E+04  0.14601148735E+04  0.00000000000E+00 0.  1.
          2    1    1    2  501    0 -0.16597847503E+02  0.10655651697E+03 -0.81796939249E+03  0.82504769978E+03  0.00000000000E+00 0.  1.
<mgrwt>
<rscale>  4 0.26742434E+03</rscale>
<asrwt>0</asrwt>
<pdfrwt beam="1">  1       21 0.50950542E-01 0.26742434E+03</pdfrwt>
<pdfrwt beam="2">  1        2 0.35902742E+00 0.26742434E+03</pdfrwt>
<totfact> 0.22238544E+02</totfact>
</mgrwt>
</event>
<event>
 5    0  0.2947253E-001  0.2752754E+03  0.7546771E-02  0.1098298E+00
          2   -1    0    0  502    0 -0.00000000000E+00  0.00000000000E+00  0.19374817734E+04  0.19374817734E+04  0.00000000000E+00 0. -1.
         21   -1    0    0  503  502  0.00000000000E+00 -0.00000000000E+00 -0.51628198874E+03  0.51628198874E+03  0.00000000000E+00 0. -1.
         25    1    1    2    0    0 -0.20929930626E+03  0.13236130952E+03 -0.44918971714E+03  0.52794139622E+03  0.12500000000E+03 0.  0.
         21    1    1    2  503  501  0.11569155033E+03 -0.20697805711E+02  0.11512231901E+03  0.16451772644E+03  0.00000000000E+00 0.  1.
          2    1    1    2  501    0  0.93607755926E+02 -0.11166350381E+03  0.17552671828E+04  0.17613046395E+04  0.00000000000E+00 0. -1.
<mgrwt>
<rscale>  4 0.27527542E+03</rscale>
<asrwt>0</asrwt>
<pdfrwt beam="1">  1       21 0.79427999E-01 0.27527542E+03</pdfrwt>
<pdfrwt beam="2">  1        2 0.29807411E+00 0.27527542E+03</pdfrwt>
<totfact> 0.13580362E+02</totfact>
</mgrwt>
</event>
<event>
 5    0  0.2947253E-001  0.3430854E+03  0.7546771E-02  0.1065489E+00
         21   -1    0    0  501  502  0.00000000000E+00  0.00000000000E+00  0.48764540435E+03  0.48764540435E+03  0.00000000000E+00 0.  1.
         -4   -1    0    0    0  501 -0.00000000000E+00 -0.00000000000E+00 -0.30145819144E+03  0.30145819144E+03  0.00000000000E+00 0. -1.
         25    1    1    2    0    0  0.31939430716E+03  0.83593106030E+01  0.27424310258E+03  0.43922304224E+03  0.12500000000E+03 0.  0.
         21    1    1    2  501  501 -0.96151185552E+02  0.20317556732E+02 -0.76441518885E+02  0.12450365217E+03  0.00000000000E+00 0. -1.
         -4    1    1    2    0  502 -0.22324312161E+03 -0.28676867335E+02 -0.11614370785E+02  0.22537690138E+03  0.00000000000E+00 0. -1.
<mgrwt>
<rscale>  4 0.34308541E+03</rscale>
<asrwt>0</asrwt>
<pdfrwt beam="1">  1       21 0.75022370E-01 0.34308541E+03</pdfrwt>
<pdfrwt beam="2">  1       -4 0.46378183E-01 0.34308541E+03</pdfrwt>
<totfact> 0.29607839E+02</totfact>
</mgrwt>
</event>
<event>
 5    0  0.2947253E-001  0.3816533E+03  0.7546771E-02  0.1050324E+00
          1   -1    0    0  502    0 -0.00000000000E+00  0.00000000000E+00  0.85479970635E+03  0.85479970635E+03  0.00000000000E+00 0. -1.
         21   -1    0    0  503  502  0.00000000000E+00 -0.00000000000E+00 -0.16378266177E+03  0.16378266177E+03  0.00000000000E+00 0. -1.
         25    1    1    2    0    0 -0.17545498070E+03  0.31503938574E+03  0.36188403357E+03  0.52594611756E+03  0.12500000000E+03 0.  0.
         21    1    1    2  503  501  0.42074867480E+02 -0.70980528562E+02  0.11542555952E+03  0.14188583333E+03  0.00000000000E+00 0. -1.
          1    1    1    2  501    0  0.13338011322E+03 -0.24405885717E+03  0.21370745149E+03  0.35075041724E+03  0.00000000000E+00 0. -1.
<mgrwt>
<rscale>  4 0.38165333E+03</rscale>
<asrwt>0</asrwt>
<pdfrwt beam="1">  1       21 0.25197333E-01 0.38165333E+03</pdfrwt>
<pdfrwt beam="2">  1        1 0.13150764E+00 0.38165333E+03</pdfrwt>
<totfact> 0.32785487E+03</totfact>
</mgrwt>
</event>
<event>
 5    0  0.2947253E-001  0.2526714E+03  0.7546771E-02  0.1111628E+00
         21   -1    0    0  503  502  0.00000000000E+00  0.00000000000E+00  0.24613298527E+03  0.24613298527E+03  0.00000000000E+00 0. -1.
          2   -1    0    0  502    0 -0.00000000000E+00 -0.00000000000E+00 -0.40468127870E+04  0.40468127870E+04  0.00000000000E+00 0.  1.
         25    1    1    2    0    0  0.21803943755E+03 -0.31273171524E+02  0.17397648820E+03  0.30726539999E+03  0.12500000000E+03 0.  0.
         21    1    1    2  503  501 -0.26332160395E+02  0.71873201758E+02 -0.53517102819E+03  0.54061739633E+03  0.00000000000E+00 0. -1.
          2    1    1    2  501    0 -0.19170727715E+03 -0.40600030234E+02 -0.34394852617E+04  0.34450629759E+04  0.00000000000E+00 0.  1.
<mgrwt>
<rscale>  4 0.25267142E+03</rscale>
<asrwt>0</asrwt>
<pdfrwt beam="1">  1       21 0.37866613E-01 0.25267142E+03</pdfrwt>
<pdfrwt beam="2">  1        2 0.62258659E+00 0.25267142E+03</pdfrwt>
<totfact> 0.34740502E+01</totfact>
</mgrwt>
</event>
<event>
 5    0  0.2947253E-001  0.2690101E+03  0.7546771E-02  0.1101847E+00
         21   -1    0    0  503  502  0.00000000000E+00  0.00000000000E+00  0.22721450210E+02  0.22721450210E+02  0.00000000000E+00 0. -1.
          2   -1    0    0  502    0 -0.00000000000E+00 -0.00000000000E+00 -0.45613697101E+04  0.45613697101E+04  0.00000000000E+00 0.  1.
         25    1    1    2    0    0 -0.22893659773E+03  0.76738614886E+02 -0.10314195912E+04  0.10666546554E+04  0.12500000000E+03 0.  0.
         21    1    1    2  503  501  0.37187381764E+01 -0.26860092347E+02 -0.77950012970E+03  0.77997163139E+03  0.00000000000E+00 0.  1.
          2    1    1    2  501    0  0.22521785955E+03 -0.49878522538E+02 -0.27277285390E+04  0.27374648735E+04  0.00000000000E+00 0.  1.
<mgrwt>
<rscale>  4 0.26901014E+03</rscale>
<asrwt>0</asrwt>
<pdfrwt beam="1">  1       21 0.34956072E-02 0.26901014E+03</pdfrwt>
<pdfrwt beam="2">  1        2 0.70174930E+00 0.26901014E+03</pdfrwt>
<totfact> 0.93245163E+02</totfact>
</mgrwt>
</event>
<event>
 5    0  0.2947253E-001  0.2885698E+03  0.7546771E-02  0.1091098E+00
         21   -1    0    0  503  502  0.00000000000E+00  0.00000000000E+00  0.12423060744E+03  0.12423060744E+03  0.00000000000E+00 0.  1.
          2   -1    0    0  502    0 -0.00000000000E+00 -0.00000000000E+00 -0.11654086853E+04  0.11654086853E+04  0.00000000000E+00 0.  1.
         25    1    1    2    0    0  0.16497108166E+03 -0.20107732382E+03 -0.95254594626E+02  0.30388482314E+03  0.12500000000E+03 0.  0.
         21    1    1    2  503  501 -0.38104228136E+02  0.24997691150E+02 -0.32101454876E+03  0.32423318350E+03  0.00000000000E+00 0.  1.
          2    1    1    2  501    0 -0.12686685352E+03  0.17607963267E+03 -0.62490893450E+03  0.66152128612E+03  0.00000000000E+00 0.  1.
<mgrwt>
<rscale>  4 0.28856983E+03</rscale>
<asrwt>0</asrwt>
<pdfrwt beam="1">  1       21 0.19112401E-01 0.28856983E+03</pdfrwt>
<pdfrwt beam="2">  1        2 0.17929365E+00 0.28856983E+03</pdfrwt>
<totfact> 0.65061453E+03</totfact>
</mgrwt>
</event>
<event>
 5    0  0.2947253E-001  0.2684003E+03  0.7546771E-02  0.1102199E+00
         -2   -1    0    0    0  501 -0.00000000000E+00  0.00000000000E+00  0.10951972538E+04  0.10951972538E+04  0.00000000000E+00 0.  1.
         21   -1    0    0  501  502  0.00000000000E+00 -0.00000000000E+00 -0.69313398798E+02  0.69313398798E+02  0.00000000000E+00 0.  1.
         25    1    1    2    0    0  0.75430249119E+02  0.22521990533E+03  0.75709161626E+03  0.80325988550E+03  0.12500000000E+03 0.  0.
         21    1    1    2  501  501 -0.75012855651E+01 -0.28240646373E+02  0.14882191284E+02  0.32791508201E+02  0.00000000000E+00 0. -1.
         -2    1    1    2    0  502 -0.67928963554E+02 -0.19697925896E+03  0.25391004742E+03  0.32845925886E+03  0.00000000000E+00 0.  1.
<mgrwt>
<rscale>  4 0.26840031E+03</rscale>
<asrwt>0</asrwt>
<pdfrwt beam="1">  1       21 0.10663601E-01 0.26840031E+03</pdfrwt>
<pdfrwt beam="2">  1       -2 0.16849187E+00 0.26840031E+03</pdfrwt>
<totfact> 0.13763109E+03</totfact>
</mgrwt>
</event>
<event>
 5    0  0.2947253E-001  0.1837993E+03  0.7546771E-02  0.1164176E+00
         21   -1    0    0  501  502  0.00000000000E+00  0.00000000000E+00  0.24306432463E+03  0.24306432463E+03  0.00000000000E+00 0. -1.
         -2   -1    0    0    0  501 -0.00000000000E+00 -0.00000000000E+00 -0.34801797046E+03  0.34801797046E+03  0.00000000000E+00 0.  1.
         25    1    1    2    0    0 -0.16324322621E+03 -0.15052381326E+03  0.90635525546E+02  0.27045437278E+03  0.12500000000E+03 0.  0.
         21    1    1    2  501  501  0.57086757429E+02  0.83627133314E+02 -0.17470295200E+02  0.10275021418E+03  0.00000000000E+00 0. -1.
         -2    1    1    2    0  502  0.10615646878E+03  0.66896679948E+02 -0.17811887618E+03  0.21787770814E+03  0.00000000000E+00 0.  1.
<mgrwt>
<rscale>  4 0.18379926E+03</rscale>
<asrwt>0</asrwt>
<pdfrwt beam="1">  1       21 0.37394512E-01 0.18379926E+03</pdfrwt>
<pdfrwt beam="2">  1       -2 0.53541226E-01 0.18379926E+03</pdfrwt>
<totfact> 0.18774722E+03</totfact>
</mgrwt>
</event>
<event>
 5    0  0.2947253E-001  0.3531223E+03  0.7546771E-02  0.1061341E+00
         21   -1    0    0  503  502  0.00000000000E+00  0.00000000000E+00  0.14570551333E+04  0.14570551333E+04  0.00000000000E+00 0.  1.
          4   -1    0    0  502    0 -0.00000000000E+00 -0.00000000000E+00 -0.12370652319E+03  0.12370652319E+03  0.00000000000E+00 0.  1.
         25    1    1    2    0    0 -0.29284942991E+03  0.15267478291E+03  0.11446274966E+04  0.11978595426E+04  0.12500000000E+03 0.  0.
         21    1    1    2  503  501  0.37050115790E+02 -0.91458190734E+01  0.34832361174E+02  0.51668660439E+02  0.00000000000E+00 0.  1.
          4    1    1    2  501    0  0.25579931412E+03 -0.14352896383E+03  0.15388875233E+03  0.33123345340E+03  0.00000000000E+00 0.  1.
<mgrwt>
<rscale>  4 0.35312233E+03</rscale>
<asrwt>0</asrwt>
<pdfrwt beam="1">  1       21 0.22416232E+00 0.35312233E+03</pdfrwt>
<pdfrwt beam="2">  1        4 0.19031774E-01 0.35312233E+03</pdfrwt>
<totfact> 0.92350602E+01</totfact>
</mgrwt>
</event>
<event>
 5    0  0.2947253E-001  0.2968206E+03  0.7546771E-02  0.1086841E+00
          2   -1    0    0  502    0 -0.00000000000E+00  0.00000000000E+00  0.10621786300E+04  0.10621786300E+04  0.00000000000E+00 0.  1.
         21   -1    0    0  503  502  0.00000000000E+00 -0.00000000000E+00 -0.39485005709E+03  0.39485005709E+03  0.00000000000E+00 0.  1.
         25    1    1    2    0    0  0.16325327993E+03  0.21406969388E+03 -0.31533840510E+03  0.43305978453E+03  0.12500000000E+03 0.  0.
         21    1    1    2  503  501 -0.59455111300E+02 -0.66976765790E+02  0.17622589611E+03  0.19767742379E+03  0.00000000000E+00 0.  1.
          2    1    1    2  501    0 -0.10379816863E+03 -0.14709292809E+03  0.80644108194E+03  0.82629147880E+03  0.00000000000E+00 0.  1.
<mgrwt>
<rscale>  4 0.29682060E+03</rscale>
<asrwt>0</asrwt>
<pdfrwt beam="1">  1       21 0.60746163E-01 0.29682060E+03</pdfrwt>
<pdfrwt beam="2">  1        2 0.16341210E+00 0.29682060E+03</pdfrwt>
<totfact> 0.73237950E+02</totfact>
</mgrwt>
</event>
<event>
 5    0  0.2947253E-001  0.2371206E+03  0.7546771E-02  0.1121726E+00
         21   -1    0    0  501  502  0.00000000000E+00  0.00000000000E+00  0.14699875248E+03  0.14699875248E+03  0.00000000000E+00 0. -1.
         -2   -1    0    0    0  501 -0.00000000000E+00 -0.00000000000E+00 -0.34493881558E+03  0.34493881558E+03  0.00000000000E+00 0. -1.
         25    1    1    2    0    0  0.17862478141E+03  0.93243637241E+02 -0.65073268900E+02  0.24588761406E+03  0.12500000000E+03 0.  0.
         21    1    1    2  501  501 -0.15429732322E+03 -0.62372151994E+02 -0.95833900524E+02  0.19204709263E+03  0.00000000000E+00 0. -1.
         -2    1    1    2    0  502 -0.24327458191E+02 -0.30871485247E+02 -0.37032893669E+02  0.54002861377E+02  0.00000000000E+00 0. -1.
<mgrwt>
<rscale>  4 0.23712062E+03</rscale>
<asrwt>0</asrwt>
<pdfrwt beam="1">  1       21 0.22615193E-01 0.23712062E+03</pdfrwt>
<pdfrwt beam="2">  1       -2 0.53067509E-01 0.23712062E+03</pdfrwt>
<totfact> 0.50322750E+03</totfact>
</mgrwt>
</event>
<event>
 5    0  0.2947253E-001  0.2406004E+03  0.7546771E-02  0.1119393E+00
          4   -1    0    0  502    0 -0.00000000000E+00  0.00000000000E+00  0.38674363521E+03  0.38674363521E+03  0.00000000000E+00 0.  1.
         21   -1    0    0  503  502  0.00000000000E+00 -0.00000000000E+00 -0.13751025142E+03  0.13751025142E+03  0.00000000000E+00 0.  1.
         25    1    1    2    0    0 -0.19959920416E+03 -0.49231304745E+02  0.74290543037E+02  0.25180875373E+03  0.12500000000E+03 0.  0.
         21    1    1    2  503  501  0.31575284565E+02 -0.44474094992E+01  0.34446850020E+02  0.46939999179E+02  0.00000000000E+00 0. -1.
          4    1    1    2  501    0  0.16802391960E+03  0.53678714244E+02  0.14049599073E+03  0.22550513372E+03  0.00000000000E+00 0.  1.
<mgrwt>
<rscale>  4 0.24060042E+03</rscale>
<asrwt>0</asrwt>
<pdfrwt beam="1">  1       21 0.21155423E-01 0.24060042E+03</pdfrwt>
<pdfrwt beam="2">  1        4 0.59499020E-01 0.24060042E+03</pdfrwt>
<totfact> 0.23711301E+03</totfact>
</mgrwt>
</event>
<event>
 5    0  0.2947253E-001  0.2911729E+03  0.7546771E-02  0.1089738E+00
          1   -1    0    0  502    0 -0.00000000000E+00  0.00000000000E+00  0.60174833710E+02  0.60174833710E+02  0.00000000000E+00 0. -1.
         21   -1    0    0  503  502  0.00000000000E+00 -0.00000000000E+00 -0.14717561647E+04  0.14717561647E+04  0.00000000000E+00 0. -1.
         25    1    1    2    0    0  0.22199216402E+03  0.14098268517E+03 -0.48953815328E+03  0.56958690463E+03  0.12500000000E+03 0.  0.
         21    1    1    2  503  501 -0.49800689669E+02 -0.75663548662E+02 -0.26982605267E+03  0.28462462997E+03  0.00000000000E+00 0.  1.
          1    1    1    2  501    0 -0.17219147435E+03 -0.65319136505E+02 -0.65221712504E+03  0.67771946381E+03  0.00000000000E+00 0. -1.
<mgrwt>
<rscale>  4 0.29117287E+03</rscale>
<asrwt>0</asrwt>
<pdfrwt beam="1">  1       21 0.22642402E+00 0.29117287E+03</pdfrwt>
<pdfrwt beam="2">  1        1 0.92576669E-02 0.29117287E+03</pdfrwt>
<totfact> 0.65598592E+02</totfact>
</mgrwt>
</event>
<event>
 5    0  0.2947253E-001  0.2842326E+03  0.7546771E-02  0.1093399E+00
          1   -1    0    0  502    0 -0.00000000000E+00  0.00000000000E+00  0.16399447600E+04  0.16399447600E+04  0.00000000000E+00 0.  1.
         21   -1    0    0  503  502  0.00000000000E+00 -0.00000000000E+00 -0.10196303917E+03  0.10196303917E+03  0.00000000000E+00 0. -1.
         25    1    1    2    0    0  0.17461565316E+03 -0.18620568086E+03  0.13551871267E+03  0.31488649288E+03  0.12500000000E+03 0.  0.
         21    1    1    2  503  501 -0.44266682977E+02  0.86258496112E+02  0.43106254567E+03  0.44183139957E+03  0.00000000000E+00 0.  1.
          1    1    1    2  501    0 -0.13034897018E+03  0.99947184747E+02  0.97140046249E+03  0.98518990672E+03  0.00000000000E+00 0.  1.
<mgrwt>
<rscale>  4 0.28423262E+03</rscale>
<asrwt>0</asrwt>
<pdfrwt beam="1">  1       21 0.15686623E-01 0.28423262E+03</pdfrwt>
<pdfrwt beam="2">  1        1 0.25229917E+00 0.28423262E+03</pdfrwt>
<totfact> 0.22864640E+03</totfact>
</mgrwt>
</event>
<event>
 5    0  0.2947253E-001  0.2664580E+03  0.7546771E-02  0.1105581E+00
         -2   -1    0    0    0  501 -0.00000000000E+00  0.00000000000E+00  0.73678573620E+03  0.73678573620E+03  0.00000000000E+00 0. -1.
         21   -1    0    0  501  502  0.00000000000E+00 -0.00000000000E+00 -0.91060252179E+02  0.91060252179E+02  0.00000000000E+00 0.  1.
         25    1    1    2    0    0  0.18295086112E+03 -0.11881646335E+03  0.30316883857E+03  0.39385874908E+03  0.12500000000E+03 0.  0.
         21    1    1    2  501  501 -0.11950658768E+03  0.35920098430E+02  0.29293068090E+03  0.31840298645E+03  0.00000000000E+00 0. -1.
         -2    1    1    2    0  502 -0.63444273436E+02  0.82896364921E+02  0.49625964556E+02  0.11558425285E+03  0.00000000000E+00 0. -1.
<mgrwt>
<rscale>  4 0.26261692E+03</rscale>
<asrwt>0</asrwt>
<pdfrwt beam="1">  1       21 0.14009270E-01 0.26645801E+03</pdfrwt>
<pdfrwt beam="2">  1       -2 0.11335165E+00 0.26645801E+03</pdfrwt>
<totfact> 0.22984338E+03</totfact>
</mgrwt>
</event>
<event>
 5    0  0.2947253E-001  0.2393803E+03  0.7546771E-02  0.1120206E+00
         21   -1    0    0  501  502  0.00000000000E+00  0.00000000000E+00  0.16476853271E+04  0.16476853271E+04  0.00000000000E+00 0. -1.
         -2   -1    0    0    0  501 -0.00000000000E+00 -0.00000000000E+00 -0.30973985739E+02  0.30973985739E+02  0.00000000000E+00 0.  1.
         25    1    1    2    0    0 -0.19653828161E+03 -0.55232347662E+02  0.84341505976E+03  0.87672793465E+03  0.12500000000E+03 0.  0.
         21    1    1    2  501  501  0.71801292577E+02  0.11833777130E+02  0.38422044888E+03  0.39105091387E+03  0.00000000000E+00 0.  1.
         -2    1    1    2    0  502  0.12473698903E+03  0.43398570532E+02  0.38907583275E+03  0.41088046436E+03  0.00000000000E+00 0.  1.
<mgrwt>
<rscale>  4 0.23938026E+03</rscale>
<asrwt>0</asrwt>
<pdfrwt beam="1">  1       21 0.25348998E+00 0.23938026E+03</pdfrwt>
<pdfrwt beam="2">  1       -2 0.47652298E-02 0.23938026E+03</pdfrwt>
<totfact> 0.10077537E+03</totfact>
</mgrwt>
</event>
<event>
 5    0  0.2947253E-001  0.2859806E+03  0.7546771E-02  0.1092467E+00
         21   -1    0    0  503  502  0.00000000000E+00  0.00000000000E+00  0.30747098267E+03  0.30747098267E+03  0.00000000000E+00 0. -1.
          2   -1    0    0  502    0 -0.00000000000E+00 -0.00000000000E+00 -0.28807293540E+04  0.28807293540E+04  0.00000000000E+00 0.  1.
         25    1    1    2    0    0  0.18094356449E+03  0.18280953329E+03  0.23306272783E+03  0.36892158258E+03  0.12500000000E+03 0.  0.
         21    1    1    2  503  501 -0.31936831045E+02 -0.30889636513E+02 -0.90429600801E+03  0.90538687915E+03  0.00000000000E+00 0.  1.
          2    1    1    2  501    0 -0.14900673344E+03 -0.15191989678E+03 -0.19020250912E+04  0.19138918750E+04  0.00000000000E+00 0.  1.
<mgrwt>
<rscale>  4 0.28598059E+03</rscale>
<asrwt>0</asrwt>
<pdfrwt beam="1">  1       21 0.47303227E-01 0.28598059E+03</pdfrwt>
<pdfrwt beam="2">  1        2 0.44318914E+00 0.28598059E+03</pdfrwt>
<totfact> 0.12716379E+02</totfact>
</mgrwt>
</event>
<event>
 5    0  0.2947253E-001  0.6645043E+03  0.7546771E-02  0.9779937E-01
         21   -1    0    0  503  502  0.00000000000E+00  0.00000000000E+00  0.97551154727E+03  0.97551154727E+03  0.00000000000E+00 0. -1.
          2   -1    0    0  502    0 -0.00000000000E+00 -0.00000000000E+00 -0.15230908979E+04  0.15230908979E+04  0.00000000000E+00 0.  1.
         25    1    1    2    0    0  0.28741366820E+03 -0.59382154241E+03  0.76126443239E+03  0.10150759464E+04  0.12500000000E+03 0.  0.
         21    1    1    2  503  501 -0.46164421921E+01  0.87169965693E+02 -0.58416845839E+02  0.10503543371E+03  0.00000000000E+00 0. -1.
          2    1    1    2  501    0 -0.28279722601E+03  0.50665157672E+03 -0.12504269371E+04  0.13784910650E+04  0.00000000000E+00 0.  1.
<mgrwt>
<rscale>  4 0.66450432E+03</rscale>
<asrwt>0</asrwt>
<pdfrwt beam="1">  1       21 0.15007870E+00 0.66450432E+03</pdfrwt>
<pdfrwt beam="2">  1        2 0.23432168E+00 0.66450432E+03</pdfrwt>
<totfact> 0.39404644E+01</totfact>
</mgrwt>
</event>
<event>
 5    0  0.2947253E-001  0.4018570E+03  0.7546771E-02  0.1043139E+00
          2   -1    0    0  502    0 -0.00000000000E+00  0.00000000000E+00  0.28245531161E+04  0.28245531161E+04  0.00000000000E+00 0.  1.
         21   -1    0    0  503  502  0.00000000000E+00 -0.00000000000E+00 -0.10337515502E+03  0.10337515502E+03  0.00000000000E+00 0.  1.
         25    1    1    2    0    0  0.24011867945E+03  0.29699669858E+03  0.37334570046E+03  0.54852167800E+03  0.12500000000E+03 0.  0.
         21    1    1    2  503  501 -0.35699239636E+02 -0.53518711850E+02  0.28122670747E+03  0.28849115970E+03  0.00000000000E+00 0.  1.
          2    1    1    2  501    0 -0.20441943981E+03 -0.24347798673E+03  0.20666055531E+04  0.20909154334E+04  0.00000000000E+00 0.  1.
<mgrwt>
<rscale>  4 0.40185696E+03</rscale>
<asrwt>0</asrwt>
<pdfrwt beam="1">  1       21 0.15903872E-01 0.40185696E+03</pdfrwt>
<pdfrwt beam="2">  1        2 0.43454658E+00 0.40185696E+03</pdfrwt>
<totfact> 0.10966543E+03</totfact>
</mgrwt>
</event>
<event>
 5    0  0.2947253E-001  0.2474452E+03  0.7546771E-02  0.1114930E+00
          2   -1    0    0  502    0 -0.00000000000E+00  0.00000000000E+00  0.36363752428E+03  0.36363752428E+03  0.00000000000E+00 0.  1.
         21   -1    0    0  503  502  0.00000000000E+00 -0.00000000000E+00 -0.20702772277E+03  0.20702772277E+03  0.00000000000E+00 0. -1.
         25    1    1    2    0    0 -0.71966061744E+02  0.23165267413E+03  0.54419806982E+02  0.27825993399E+03  0.12500000000E+03 0.  0.
         21    1    1    2  503  501 -0.27202427527E+02 -0.57941618660E+02 -0.72162076283E+01  0.64414880958E+02  0.00000000000E+00 0.  1.
          2    1    1    2  501    0  0.99168489271E+02 -0.17371105547E+03  0.10940620215E+03  0.22799043209E+03  0.00000000000E+00 0.  1.
<mgrwt>
<rscale>  4 0.24744519E+03</rscale>
<asrwt>0</asrwt>
<pdfrwt beam="1">  1       21 0.31850419E-01 0.24744519E+03</pdfrwt>
<pdfrwt beam="2">  1        2 0.55944234E-01 0.24744519E+03</pdfrwt>
<totfact> 0.10336810E+04</totfact>
</mgrwt>
</event>
<event>
 5    0  0.2947253E-001  0.2427607E+03  0.7546771E-02  0.1117967E+00
          2   -1    0    0  502    0 -0.00000000000E+00  0.00000000000E+00  0.18074962503E+04  0.18074962503E+04  0.00000000000E+00 0.  1.
         21   -1    0    0  503  502  0.00000000000E+00 -0.00000000000E+00 -0.71748227182E+02  0.71748227182E+02  0.00000000000E+00 0. -1.
         25    1    1    2    0    0 -0.21566034624E+03 -0.40218532070E+02  0.24603303180E+03  0.35253959777E+03  0.12500000000E+03 0.  0.
         21    1    1    2  503  501  0.23913358407E+02  0.91866207915E+02  0.88819691401E+03  0.89325528654E+03  0.00000000000E+00 0.  1.
          2    1    1    2  501    0  0.19174698783E+03 -0.51647675845E+02  0.60151807728E+03  0.63344959314E+03  0.00000000000E+00 0.  1.
<mgrwt>
<rscale>  4 0.24276070E+03</rscale>
<asrwt>0</asrwt>
<pdfrwt beam="1">  1       21 0.11038190E-01 0.24276070E+03</pdfrwt>
<pdfrwt beam="2">  1        2 0.27807631E+00 0.24276070E+03</pdfrwt>
<totfact> 0.80966341E+03</totfact>
</mgrwt>
</event>
<event>
 5    0  0.2947253E-001  0.2370790E+03  0.7546771E-02  0.1121754E+00
          3   -1    0    0  502    0 -0.00000000000E+00  0.00000000000E+00  0.33282034858E+03  0.33282034858E+03  0.00000000000E+00 0.  1.
         21   -1    0    0  503  502  0.00000000000E+00 -0.00000000000E+00 -0.15828954382E+03  0.15828954382E+03  0.00000000000E+00 0.  1.
         25    1    1    2    0    0 -0.15280743132E+03 -0.13126825084E+03  0.35433895996E+02  0.23971238126E+03  0.12500000000E+03 0.  0.
         21    1    1    2  503  501  0.13139609079E+03  0.93433909435E+02  0.85859836453E+02  0.18266564982E+03  0.00000000000E+00 0.  1.
          3    1    1    2  501    0  0.21411340528E+02  0.37834341402E+02  0.53237072311E+02  0.68731861322E+02  0.00000000000E+00 0.  1.
<mgrwt>
<rscale>  4 0.23707903E+03</rscale>
<asrwt>0</asrwt>
<pdfrwt beam="1">  1       21 0.24352238E-01 0.23707903E+03</pdfrwt>
<pdfrwt beam="2">  1        3 0.51203130E-01 0.23707903E+03</pdfrwt>
<totfact> 0.29970641E+03</totfact>
</mgrwt>
</event>
<event>
 5    0  0.2947253E-001  0.2405335E+03  0.7546771E-02  0.1119438E+00
          2   -1    0    0  502    0 -0.00000000000E+00  0.00000000000E+00  0.19072483322E+04  0.19072483322E+04  0.00000000000E+00 0.  1.
         21   -1    0    0  503  502  0.00000000000E+00 -0.00000000000E+00 -0.31942255010E+02  0.31942255010E+02  0.00000000000E+00 0.  1.
         25    1    1    2    0    0  0.62107250146E+02 -0.19589302523E+03  0.59829564152E+03  0.64483646184E+03  0.12500000000E+03 0.  0.
         21    1    1    2  503  501  0.67222981176E+01  0.39867585969E+02  0.22245361262E+03  0.22609781837E+03  0.00000000000E+00 0.  1.
          2    1    1    2  501    0 -0.68829548264E+02  0.15602543927E+03  0.10545568231E+04  0.10682563070E+04  0.00000000000E+00 0.  1.
<mgrwt>
<rscale>  4 0.24053355E+03</rscale>
<asrwt>0</asrwt>
<pdfrwt beam="1">  1       21 0.49141946E-02 0.24053355E+03</pdfrwt>
<pdfrwt beam="2">  1        2 0.29342273E+00 0.24053355E+03</pdfrwt>
<totfact> 0.29428500E+04</totfact>
</mgrwt>
</event>
<event>
 5    0  0.2947253E-001  0.2641544E+03  0.7546771E-02  0.1104673E+00
         21   -1    0    0  501  502  0.00000000000E+00  0.00000000000E+00  0.85652543448E+03  0.85652543448E+03  0.00000000000E+00 0.  1.
         -2   -1    0    0    0  501 -0.00000000000E+00 -0.00000000000E+00 -0.17380183346E+03  0.17380183346E+03  0.00000000000E+00 0.  1.
         25    1    1    2    0    0 -0.22522161636E+03  0.58547176077E+02  0.73839523254E+03  0.78422258814E+03  0.12500000000E+03 0.  0.
         21    1    1    2  501  501  0.44329539786E+02 -0.15792006669E+02  0.11535368419E+02  0.48451628423E+02  0.00000000000E+00 0.  1.
         -2    1    1    2    0  502  0.18089207657E+03 -0.42755169408E+02 -0.67206999941E+02  0.19765305138E+03  0.00000000000E+00 0.  1.
<mgrwt>
<rscale>  4 0.26415440E+03</rscale>
<asrwt>0</asrwt>
<pdfrwt beam="1">  1       21 0.13177314E+00 0.26415440E+03</pdfrwt>
<pdfrwt beam="2">  1       -2 0.26738744E-01 0.26415440E+03</pdfrwt>
<totfact> 0.40714229E+02</totfact>
</mgrwt>
</event>
<event>
 5    0  0.2947253E-001  0.2554495E+03  0.7546771E-02  0.1109908E+00
          2   -1    0    0  502    0 -0.00000000000E+00  0.00000000000E+00  0.25261243401E+04  0.25261243401E+04  0.00000000000E+00 0.  1.
         21   -1    0    0  503  502  0.00000000000E+00 -0.00000000000E+00 -0.28665830770E+02  0.28665830770E+02  0.00000000000E+00 0.  1.
         25    1    1    2    0    0 -0.17139462082E+03 -0.14231422158E+03  0.76866051915E+03  0.80999595519E+03  0.12500000000E+03 0.  0.
         21    1    1    2  503  501  0.11564052382E+03  0.13161309682E+03  0.11577559182E+04  0.11709370197E+04  0.00000000000E+00 0.  1.
          2    1    1    2  501    0  0.55754097006E+02  0.10701124751E+02  0.57104207192E+03  0.57385719592E+03  0.00000000000E+00 0.  1.
<mgrwt>
<rscale>  4 0.25544951E+03</rscale>
<asrwt>0</asrwt>
<pdfrwt beam="1">  1       21 0.44101298E-02 0.25544951E+03</pdfrwt>
<pdfrwt beam="2">  1        2 0.38863434E+00 0.25544951E+03</pdfrwt>
<totfact> 0.16483706E+04</totfact>
</mgrwt>
</event>
<event>
 5    0  0.2947253E-001  0.2423792E+03  0.7546771E-02  0.1118218E+00
          1   -1    0    0  502    0 -0.00000000000E+00  0.00000000000E+00  0.54628885299E+02  0.54628885299E+02  0.00000000000E+00 0.  1.
         21   -1    0    0  503  502  0.00000000000E+00 -0.00000000000E+00 -0.10136148679E+04  0.10136148679E+04  0.00000000000E+00 0.  1.
         25    1    1    2    0    0 -0.20234271264E+03 -0.46691783696E+02 -0.37269087228E+03  0.44457415838E+03  0.12500000000E+03 0.  0.
         21    1    1    2  503  501  0.49880578177E+02  0.22878232988E+02 -0.20787856032E+03  0.21499995689E+03  0.00000000000E+00 0.  1.
          1    1    1    2  501    0  0.15246213446E+03  0.23813550708E+02 -0.37841655001E+03  0.40866963793E+03  0.00000000000E+00 0.  1.
<mgrwt>
<rscale>  4 0.24237924E+03</rscale>
<asrwt>0</asrwt>
<pdfrwt beam="1">  1       21 0.15594074E+00 0.24237924E+03</pdfrwt>
<pdfrwt beam="2">  1        1 0.84044445E-02 0.24237924E+03</pdfrwt>
<totfact> 0.22773320E+03</totfact>
</mgrwt>
</event>
<event>
 5    0  0.2947253E-001  0.3534894E+03  0.7546771E-02  0.1061192E+00
         -2   -1    0    0    0  501 -0.00000000000E+00  0.00000000000E+00  0.14244218786E+04  0.14244218786E+04  0.00000000000E+00 0.  1.
         21   -1    0    0  501  502  0.00000000000E+00 -0.00000000000E+00 -0.45932487254E+03  0.45932487254E+03  0.00000000000E+00 0.  1.
         25    1    1    2    0    0  0.25321530015E+03 -0.21551796333E+03 -0.35691008138E+03  0.50356309132E+03  0.12500000000E+03 0.  0.
         21    1    1    2  501  501  0.32318065903E+01  0.57097673378E+02  0.60861500773E+02  0.83514736157E+02  0.00000000000E+00 0. -1.
         -2    1    1    2    0  502 -0.25644710674E+03  0.15842028995E+03  0.12611455867E+04  0.12966689237E+04  0.00000000000E+00 0.  1.
<mgrwt>
<rscale>  4 0.35348943E+03</rscale>
<asrwt>0</asrwt>
<pdfrwt beam="1">  1       21 0.70665366E-01 0.35348943E+03</pdfrwt>
<pdfrwt beam="2">  1       -2 0.21914183E+00 0.35348943E+03</pdfrwt>
<totfact> 0.15080120E+01</totfact>
</mgrwt>
</event>
<event>
 5    0  0.2947253E-001  0.2620645E+03  0.7546771E-02  0.1105909E+00
         21   -1    0    0  501  502  0.00000000000E+00  0.00000000000E+00  0.74624546894E+03  0.74624546894E+03  0.00000000000E+00 0.  1.
         -4   -1    0    0    0  501 -0.00000000000E+00 -0.00000000000E+00 -0.18807396791E+03  0.18807396791E+03  0.00000000000E+00 0.  1.
         25    1    1    2    0    0 -0.21092121900E+03 -0.12731141731E+03  0.59225719090E+03  0.65352087784E+03  0.12500000000E+03 0.  0.
         21    1    1    2  501  501  0.29133330342E+02  0.78134832674E+02 -0.39777091702E+02  0.92390584141E+02  0.00000000000E+00 0.  1.
         -4    1    1    2    0  502  0.18178788866E+03  0.49176584639E+02  0.56914018397E+01  0.18840797487E+03  0.00000000000E+00 0.  1.
<mgrwt>
<rscale>  4 0.26206454E+03</rscale>
<asrwt>0</asrwt>
<pdfrwt beam="1">  1       21 0.11480699E+00 0.26206454E+03</pdfrwt>
<pdfrwt beam="2">  1       -4 0.28934457E-01 0.26206454E+03</pdfrwt>
<totfact> 0.27816257E+02</totfact>
</mgrwt>
</event>
<event>
 5    0  0.2947253E-001  0.2371172E+03  0.7546771E-02  0.1121728E+00
          2   -1    0    0  502    0 -0.00000000000E+00  0.00000000000E+00  0.77775799817E+03  0.77775799817E+03  0.00000000000E+00 0. -1.
         21   -1    0    0  503  502  0.00000000000E+00 -0.00000000000E+00 -0.74081427121E+02  0.74081427121E+02  0.00000000000E+00 0.  1.
         25    1    1    2    0    0  0.20656668904E+03  0.39917983230E+02  0.36240237839E+03  0.43729135170E+03  0.12500000000E+03 0.  0.
         21    1    1    2  503  501 -0.17814275734E+02  0.11153720871E+02 -0.23588012377E+00  0.21019266129E+02  0.00000000000E+00 0. -1.
          2    1    1    2  501    0 -0.18875241331E+03 -0.51071704101E+02  0.34151007278E+03  0.39352880746E+03  0.00000000000E+00 0. -1.
<mgrwt>
<rscale>  4 0.23711718E+03</rscale>
<asrwt>0</asrwt>
<pdfrwt beam="1">  1       21 0.11397143E-01 0.23711718E+03</pdfrwt>
<pdfrwt beam="2">  1        2 0.11965507E+00 0.23711718E+03</pdfrwt>
<totfact> 0.29716002E+04</totfact>
</mgrwt>
</event>
<event>
 5    0  0.2947253E-001  0.3619710E+03  0.7546771E-02  0.1057806E+00
          2   -1    0    0  502    0 -0.00000000000E+00  0.00000000000E+00  0.25367887480E+04  0.25367887480E+04  0.00000000000E+00 0. -1.
         21   -1    0    0  503  502  0.00000000000E+00 -0.00000000000E+00 -0.17031002556E+03  0.17031002556E+03  0.00000000000E+00 0.  1.
         25    1    1    2    0    0 -0.20569931711E+03 -0.27223643213E+03  0.71823452589E+02  0.37041664701E+03  0.12500000000E+03 0.  0.
         21    1    1    2  503  501  0.61631033272E+02 -0.25293404552E+02  0.12184003897E+03  0.13886373058E+03  0.00000000000E+00 0. -1.
          2    1    1    2  501    0  0.14406828384E+03  0.29752983668E+03  0.21728152309E+04  0.21978183960E+04  0.00000000000E+00 0. -1.
<mgrwt>
<rscale>  4 0.36197099E+03</rscale>
<asrwt>0</asrwt>
<pdfrwt beam="1">  1       21 0.26201544E-01 0.36197099E+03</pdfrwt>
<pdfrwt beam="2">  1        2 0.39027516E+00 0.36197099E+03</pdfrwt>
<totfact> 0.62843313E+02</totfact>
</mgrwt>
</event>
<event>
 5    0  0.2947253E-001  0.2709415E+03  0.7546771E-02  0.1100742E+00
          3   -1    0    0  502    0 -0.00000000000E+00  0.00000000000E+00  0.38509527343E+03  0.38509527343E+03  0.00000000000E+00 0.  1.
         21   -1    0    0  503  502  0.00000000000E+00 -0.00000000000E+00 -0.31634871346E+03  0.31634871346E+03  0.00000000000E+00 0. -1.
         25    1    1    2    0    0  0.30758235102E+02  0.24193038976E+03 -0.18988484169E+03  0.33340311280E+03  0.12500000000E+03 0.  0.
         21    1    1    2  503  501 -0.55202442097E+02 -0.22207110617E+03  0.21317733634E+03  0.31274184648E+03  0.00000000000E+00 0.  1.
          3    1    1    2  501    0  0.24444206995E+02 -0.19859283589E+02  0.45454065326E+02  0.55299027613E+02  0.00000000000E+00 0.  1.
<mgrwt>
<rscale>  4 0.27094148E+03</rscale>
<asrwt>0</asrwt>
<pdfrwt beam="1">  1       21 0.48669033E-01 0.27094148E+03</pdfrwt>
<pdfrwt beam="2">  1        3 0.59245426E-01 0.27094148E+03</pdfrwt>
<totfact> 0.55562921E+02</totfact>
</mgrwt>
</event>
<event>
 5    0  0.2947253E-001  0.3780191E+03  0.7546771E-02  0.1051668E+00
          1   -1    0    0  502    0 -0.00000000000E+00  0.00000000000E+00  0.11182936545E+04  0.11182936545E+04  0.00000000000E+00 0. -1.
         21   -1    0    0  503  502  0.00000000000E+00 -0.00000000000E+00 -0.45464990907E+03  0.45464990907E+03  0.00000000000E+00 0. -1.
         25    1    1    2    0    0  0.24772120687E+03  0.25672481030E+03 -0.33875447700E+03  0.50759533119E+03  0.12500000000E+03 0.  0.
         21    1    1    2  503  501 -0.15651560711E+02 -0.40843244731E+02  0.11406479745E+03  0.12216349704E+03  0.00000000000E+00 0. -1.
          1    1    1    2  501    0 -0.23206964616E+03 -0.21588156557E+03  0.88833342495E+03  0.94318473530E+03  0.00000000000E+00 0. -1.
<mgrwt>
<rscale>  4 0.37801908E+03</rscale>
<asrwt>0</asrwt>
<pdfrwt beam="1">  1       21 0.69946140E-01 0.37801908E+03</pdfrwt>
<pdfrwt beam="2">  1        1 0.17204518E+00 0.37801908E+03</pdfrwt>
<totfact> 0.24789591E+02</totfact>
</mgrwt>
</event>
<event>
 5    0  0.2947253E-001  0.2435569E+03  0.7546771E-02  0.1117446E+00
         21   -1    0    0  503  502  0.00000000000E+00  0.00000000000E+00  0.32154512479E+03  0.32154512479E+03  0.00000000000E+00 0.  1.
          2   -1    0    0  502    0 -0.00000000000E+00 -0.00000000000E+00 -0.49596899665E+03  0.49596899665E+03  0.00000000000E+00 0.  1.
         25    1    1    2    0    0 -0.18082534735E+03 -0.16260551756E+03  0.19557172128E+03  0.33617206718E+03  0.12500000000E+03 0.  0.
         21    1    1    2  503  501  0.13744241033E+03  0.16321803749E+02 -0.25549717316E+03  0.29057808405E+03  0.00000000000E+00 0.  1.
          2    1    1    2  501    0  0.43382937015E+02  0.14628371381E+03 -0.11449841999E+03  0.19076397021E+03  0.00000000000E+00 0.  1.
<mgrwt>
<rscale>  4 0.24355685E+03</rscale>
<asrwt>0</asrwt>
<pdfrwt beam="1">  1       21 0.49468481E-01 0.24355685E+03</pdfrwt>
<pdfrwt beam="2">  1        2 0.76302922E-01 0.24355685E+03</pdfrwt>
<totfact> 0.30083962E+03</totfact>
</mgrwt>
</event>
<event>
 5    0  0.2947253E-001  0.2641371E+03  0.7546771E-02  0.1104683E+00
          2   -1    0    0  502    0 -0.00000000000E+00  0.00000000000E+00  0.67004351675E+03  0.67004351675E+03  0.00000000000E+00 0. -1.
         21   -1    0    0  503  502  0.00000000000E+00 -0.00000000000E+00 -0.21582507989E+03  0.21582507989E+03  0.00000000000E+00 0.  1.
         25    1    1    2    0    0 -0.22444322082E+03 -0.61389310417E+02 -0.98811987854E+02  0.28201456655E+03  0.12500000000E+03 0.  0.
         21    1    1    2  503  501  0.86341910581E+02  0.40905480394E+02  0.15534224988E+03  0.18237159440E+03  0.00000000000E+00 0.  1.
          2    1    1    2  501    0  0.13810131023E+03  0.20483830024E+02  0.39768817484E+03  0.42148243568E+03  0.00000000000E+00 0. -1.
<mgrwt>
<rscale>  4 0.26413710E+03</rscale>
<asrwt>0</asrwt>
<pdfrwt beam="1">  1       21 0.33203859E-01 0.26413710E+03</pdfrwt>
<pdfrwt beam="2">  1        2 0.10308362E+00 0.26413710E+03</pdfrwt>
<totfact> 0.47586030E+03</totfact>
</mgrwt>
</event>
<event>
 5    0  0.2947253E-001  0.4032094E+03  0.7546771E-02  0.1042674E+00
         21   -1    0    0  501  502  0.00000000000E+00  0.00000000000E+00  0.13862928107E+04  0.13862928107E+04  0.00000000000E+00 0.  1.
         -1   -1    0    0    0  501 -0.00000000000E+00 -0.00000000000E+00 -0.13255212187E+03  0.13255212187E+03  0.00000000000E+00 0.  1.
         25    1    1    2    0    0 -0.36551370149E+01 -0.38332678890E+03  0.89597899267E+03  0.98252539022E+03  0.12500000000E+03 0.  0.
         21    1    1    2  501  501  0.10670757737E+02  0.98710626568E+02  0.16476439615E+03  0.19236673077E+03  0.00000000000E+00 0.  1.
         -1    1    1    2    0  502 -0.70156207216E+01  0.28461616233E+03  0.19299730002E+03  0.34395281160E+03  0.00000000000E+00 0.  1.
<mgrwt>
<rscale>  4 0.40320936E+03</rscale>
<asrwt>0</asrwt>
<pdfrwt beam="1">  1       21 0.21327581E+00 0.40320936E+03</pdfrwt>
<pdfrwt beam="2">  1       -1 0.20392635E-01 0.40320936E+03</pdfrwt>
<totfact> 0.17466521E+02</totfact>
</mgrwt>
</event>
<event>
 5    0  0.2947253E-001  0.2501889E+03  0.7546771E-02  0.1113185E+00
         21   -1    0    0  503  502  0.00000000000E+00  0.00000000000E+00  0.20738001035E+04  0.20738001035E+04  0.00000000000E+00 0.  1.
          1   -1    0    0  502    0 -0.00000000000E+00 -0.00000000000E+00 -0.24491085330E+03  0.24491085330E+03  0.00000000000E+00 0. -1.
         25    1    1    2    0    0 -0.14781715887E+02 -0.21694125720E+03  0.20078356193E+04  0.20234403580E+04  0.12500000000E+03 0.  0.
         21    1    1    2  503  501  0.69443175503E+01  0.21460220995E+02  0.87125044243E+01  0.24179999271E+02  0.00000000000E+00 0. -1.
          1    1    1    2  501    0  0.78373983367E+01  0.19548103621E+03 -0.18765887355E+03  0.27109059953E+03  0.00000000000E+00 0. -1.
<mgrwt>
<rscale>  4 0.25018892E+03</rscale>
<asrwt>0</asrwt>
<pdfrwt beam="1">  1       21 0.31904616E+00 0.25018892E+03</pdfrwt>
<pdfrwt beam="2">  1        1 0.37678594E-01 0.25018892E+03</pdfrwt>
<totfact> 0.30583688E+01</totfact>
</mgrwt>
</event>
<event>
 5    0  0.2947253E-001  0.2407763E+03  0.7546771E-02  0.1119277E+00
         21   -1    0    0  503  502  0.00000000000E+00  0.00000000000E+00  0.48347395509E+03  0.48347395509E+03  0.00000000000E+00 0.  1.
          2   -1    0    0  502    0 -0.00000000000E+00 -0.00000000000E+00 -0.20760443854E+04  0.20760443854E+04  0.00000000000E+00 0. -1.
         25    1    1    2    0    0  0.20200604670E+03 -0.44914038286E+02  0.44627964433E+03  0.50755712455E+03  0.12500000000E+03 0.  0.
         21    1    1    2  503  501 -0.67262223248E+02  0.40889599489E+01 -0.30261695081E+03  0.31002894250E+03  0.00000000000E+00 0.  1.
          2    1    1    2  501    0 -0.13474382346E+03  0.40825078337E+02 -0.17362331238E+04  0.17419322734E+04  0.00000000000E+00 0. -1.
<mgrwt>
<rscale>  4 0.24077634E+03</rscale>
<asrwt>0</asrwt>
<pdfrwt beam="1">  1       21 0.74380607E-01 0.24077634E+03</pdfrwt>
<pdfrwt beam="2">  1        2 0.31939145E+00 0.24077634E+03</pdfrwt>
<totfact> 0.13657311E+02</totfact>
</mgrwt>
</event>
<event>
 5    0  0.2947253E-001  0.2689542E+03  0.7546771E-02  0.1101880E+00
         21   -1    0    0  501  502  0.00000000000E+00  0.00000000000E+00  0.19401190316E+04  0.19401190316E+04  0.00000000000E+00 0.  1.
         -2   -1    0    0    0  501 -0.00000000000E+00 -0.00000000000E+00 -0.14435631208E+03  0.14435631208E+03  0.00000000000E+00 0. -1.
         25    1    1    2    0    0  0.24030759202E+03  0.48305439090E+00  0.17931200329E+04  0.18134642055E+04  0.12500000000E+03 0.  0.
         21    1    1    2  501  501 -0.29818065980E+02 -0.25148819624E+01  0.47163223396E+02  0.55855271292E+02  0.00000000000E+00 0. -1.
         -2    1    1    2    0  502 -0.21048952604E+03  0.20318275715E+01 -0.44520536730E+02  0.21515586696E+03  0.00000000000E+00 0. -1.
<mgrwt>
<rscale>  4 0.26895416E+03</rscale>
<asrwt>0</asrwt>
<pdfrwt beam="1">  1       21 0.29847983E+00 0.26895416E+03</pdfrwt>
<pdfrwt beam="2">  1       -2 0.22208665E-01 0.26895416E+03</pdfrwt>
<totfact> 0.45181320E+01</totfact>
</mgrwt>
</event>
<event>
 5    0  0.2947253E-001  0.2848525E+03  0.7546771E-02  0.1093068E+00
          2   -1    0    0  502    0 -0.00000000000E+00  0.00000000000E+00  0.16989540908E+04  0.16989540908E+04  0.00000000000E+00 0.  1.
         21   -1    0    0  503  502  0.00000000000E+00 -0.00000000000E+00 -0.44801700533E+03  0.44801700533E+03  0.00000000000E+00 0.  1.
         25    1    1    2    0    0 -0.25653400142E+03  0.12517642749E+02 -0.38908964743E+03  0.48268223398E+03  0.12500000000E+03 0.  0.
         21    1    1    2  503  501  0.23369076377E+03 -0.16855531948E+02  0.11455023641E+04  0.11692181782E+04  0.00000000000E+00 0.  1.
          2    1    1    2  501    0  0.22843237645E+02  0.43378891990E+01  0.49452436880E+03  0.49507068397E+03  0.00000000000E+00 0.  1.
<mgrwt>
<rscale>  4 0.28485251E+03</rscale>
<asrwt>0</asrwt>
<pdfrwt beam="1">  1       21 0.68925694E-01 0.28485251E+03</pdfrwt>
<pdfrwt beam="2">  1        2 0.26137755E+00 0.28485251E+03</pdfrwt>
<totfact> 0.24800404E+02</totfact>
</mgrwt>
</event>
<event>
 5    0  0.2947253E-001  0.2160029E+03  0.7546771E-02  0.1136899E+00
         21   -1    0    0  503  502  0.00000000000E+00  0.00000000000E+00  0.58212919692E+02  0.58212919692E+02  0.00000000000E+00 0. -1.
          1   -1    0    0  502    0 -0.00000000000E+00 -0.00000000000E+00 -0.10158393428E+04  0.10158393428E+04  0.00000000000E+00 0. -1.
         25    1    1    2    0    0 -0.20791650179E+03 -0.51734294161E+02 -0.53901239485E+03  0.59335071477E+03  0.12500000000E+03 0.  0.
         21    1    1    2  503  501  0.59387510517E+02 -0.92042166200E+01 -0.20410051166E+03  0.21276421896E+03  0.00000000000E+00 0. -1.
          1    1    1    2  501    0  0.14852899127E+03  0.60938510781E+02 -0.21451351659E+03  0.26793732876E+03  0.00000000000E+00 0. -1.
<mgrwt>
<rscale>  4 0.21600294E+03</rscale>
<asrwt>0</asrwt>
<pdfrwt beam="1">  1       21 0.89558343E-02 0.21600294E+03</pdfrwt>
<pdfrwt beam="2">  1        1 0.15628297E+00 0.21600294E+03</pdfrwt>
<totfact> 0.17145104E+04</totfact>
</mgrwt>
</event>
<event>
 5    0  0.2947253E-001  0.3299041E+03  0.7546771E-02  0.1071179E+00
         21   -1    0    0  503  502  0.00000000000E+00  0.00000000000E+00  0.23505013240E+03  0.23505013240E+03  0.00000000000E+00 0. -1.
          1   -1    0    0  502    0 -0.00000000000E+00 -0.00000000000E+00 -0.14525423450E+04  0.14525423450E+04  0.00000000000E+00 0. -1.
         25    1    1    2    0    0  0.21261241794E+03  0.22750171701E+03  0.76111100669E+02  0.34406245240E+03  0.12500000000E+03 0.  0.
         21    1    1    2  503  501 -0.35291945989E+02 -0.52284064386E+02 -0.67684256394E+02  0.92521907697E+02  0.00000000000E+00 0. -1.
          1    1    1    2  501    0 -0.17732047195E+03 -0.17521765263E+03 -0.12259190569E+04  0.12510081173E+04  0.00000000000E+00 0. -1.
<mgrwt>
<rscale>  4 0.32990413E+03</rscale>
<asrwt>0</asrwt>
<pdfrwt beam="1">  1       21 0.36161558E-01 0.32990413E+03</pdfrwt>
<pdfrwt beam="2">  1        1 0.22346806E+00 0.32990413E+03</pdfrwt>
<totfact> 0.59984434E+02</totfact>
</mgrwt>
</event>
<event>
 5    0  0.2947253E-001  0.3282512E+03  0.7546771E-02  0.1071913E+00
         21   -1    0    0  503  502  0.00000000000E+00  0.00000000000E+00  0.18960739827E+03  0.18960739827E+03  0.00000000000E+00 0.  1.
          4   -1    0    0  502    0 -0.00000000000E+00 -0.00000000000E+00 -0.83896776080E+03  0.83896776080E+03  0.00000000000E+00 0.  1.
         25    1    1    2    0    0  0.26993200859E+03  0.12217199566E+03 -0.48423795522E+02  0.32520631876E+03  0.12500000000E+03 0.  0.
         21    1    1    2  503  501  0.36783375299E+02 -0.83595074721E+01 -0.50209529440E+02  0.62800437181E+02  0.00000000000E+00 0. -1.
          4    1    1    2  501    0 -0.30671538389E+03 -0.11381248819E+03 -0.55072703756E+03  0.64056840313E+03  0.00000000000E+00 0.  1.
<mgrwt>
<rscale>  4 0.32825124E+03</rscale>
<asrwt>0</asrwt>
<pdfrwt beam="1">  1       21 0.29170369E-01 0.32825124E+03</pdfrwt>
<pdfrwt beam="2">  1        4 0.12907196E+00 0.32825124E+03</pdfrwt>
<totfact> 0.21547468E+02</totfact>
</mgrwt>
</event>
<event>
 5    0  0.5140656E-001  0.4877129E+03  0.7546771E-02  0.1017037E+00
         -3   -1    0    0    0  501 -0.00000000000E+00  0.00000000000E+00  0.18271715408E+04  0.18271715408E+04  0.00000000000E+00 0.  1.
         21   -1    0    0  501  502  0.00000000000E+00 -0.00000000000E+00 -0.16029741048E+04  0.16029741048E+04  0.00000000000E+00 0. -1.
         25    1    1    2    0    0 -0.38804297597E+03 -0.26834697486E+03 -0.15270014289E+04  0.16031050539E+04  0.12500000000E+03 0.  0.
         21    1    1    2  501  501  0.39934136143E+01  0.25121891115E+02  0.97596644716E+01  0.27245326499E+02  0.00000000000E+00 0. -1.
         -3    1    1    2    0  502  0.38404956236E+03  0.24322508375E+03  0.17414392004E+04  0.17997952651E+04  0.00000000000E+00 0.  1.
<mgrwt>
<rscale>  4 0.48771290E+03</rscale>
<asrwt>0</asrwt>
<pdfrwt beam="1">  1       21 0.24661140E+00 0.48771290E+03</pdfrwt>
<pdfrwt beam="2">  1       -3 0.28110331E+00 0.48771290E+03</pdfrwt>
<totfact> 0.14925917E-01</totfact>
</mgrwt>
</event>
<event>
 5    0  0.2947253E-001  0.4811750E+03  0.7546771E-02  0.1019173E+00
          1   -1    0    0  502    0 -0.00000000000E+00  0.00000000000E+00  0.75191083574E+03  0.75191083574E+03  0.00000000000E+00 0. -1.
         21   -1    0    0  503  502  0.00000000000E+00 -0.00000000000E+00 -0.39828245527E+03  0.39828245527E+03  0.00000000000E+00 0.  1.
         25    1    1    2    0    0 -0.33300794286E+03  0.31623322021E+03 -0.10286358892E+03  0.48693290862E+03  0.12500000000E+03 0.  0.
         21    1    1    2  503  501  0.86168479176E+02 -0.12846839980E+03  0.23812569650E+03  0.28395947578E+03  0.00000000000E+00 0. -1.
          1    1    1    2  501    0  0.24683946369E+03 -0.18776482040E+03  0.21836627289E+03  0.37930090660E+03  0.00000000000E+00 0. -1.
<mgrwt>
<rscale>  4 0.47986193E+03</rscale>
<asrwt>0</asrwt>
<pdfrwt beam="1">  1       21 0.61274224E-01 0.48117504E+03</pdfrwt>
<pdfrwt beam="2">  1        1 0.11567859E+00 0.48117504E+03</pdfrwt>
<totfact> 0.62902143E+02</totfact>
</mgrwt>
</event>
<event>
 5    0  0.2947253E-001  0.2753069E+03  0.7546771E-02  0.1098280E+00
          2   -1    0    0  502    0 -0.00000000000E+00  0.00000000000E+00  0.15757948917E+04  0.15757948917E+04  0.00000000000E+00 0. -1.
         21   -1    0    0  503  502  0.00000000000E+00 -0.00000000000E+00 -0.12052033523E+03  0.12052033523E+03  0.00000000000E+00 0.  1.
         25    1    1    2    0    0 -0.62481441147E+02  0.23720230981E+03  0.65072274330E+02  0.28289267780E+03  0.12500000000E+03 0.  0.
         21    1    1    2  503  501  0.74751340507E+01 -0.12827445938E+03  0.84634162185E+03  0.85603992631E+03  0.00000000000E+00 0.  1.
          2    1    1    2  501    0  0.55006307097E+02 -0.10892785042E+03  0.54386066028E+03  0.55738262282E+03  0.00000000000E+00 0. -1.
<mgrwt>
<rscale>  4 0.27530686E+03</rscale>
<asrwt>0</asrwt>
<pdfrwt beam="1">  1       21 0.18541591E-01 0.27530686E+03</pdfrwt>
<pdfrwt beam="2">  1        2 0.24242997E+00 0.27530686E+03</pdfrwt>
<totfact> 0.41106104E+03</totfact>
</mgrwt>
</event>
<event>
 5    0  0.2947253E-001  0.2447339E+03  0.7546771E-02  0.1116679E+00
          2   -1    0    0  502    0 -0.00000000000E+00  0.00000000000E+00  0.11559514361E+04  0.11559514361E+04  0.00000000000E+00 0. -1.
         21   -1    0    0  503  502  0.00000000000E+00 -0.00000000000E+00 -0.97285758203E+02  0.97285758203E+02  0.00000000000E+00 0.  1.
         25    1    1    2    0    0  0.20796647405E+02  0.20937326654E+03  0.90081961871E+02  0.26078616747E+03  0.12500000000E+03 0.  0.
         21    1    1    2  503  501 -0.26910496316E+02 -0.11657510011E+03  0.45217920433E+03  0.46773920256E+03  0.00000000000E+00 0. -1.
          2    1    1    2  501    0  0.61138489111E+01 -0.92798166433E+02  0.51640451166E+03  0.52471182425E+03  0.00000000000E+00 0. -1.
<mgrwt>
<rscale>  4 0.24473387E+03</rscale>
<asrwt>0</asrwt>
<pdfrwt beam="1">  1       21 0.14967041E-01 0.24473387E+03</pdfrwt>
<pdfrwt beam="2">  1        2 0.17783867E+00 0.24473387E+03</pdfrwt>
<totfact> 0.10487059E+04</totfact>
</mgrwt>
</event>
<event>
 5    0  0.2947253E-001  0.2117343E+03  0.7546771E-02  0.1140200E+00
         21   -1    0    0  501  502  0.00000000000E+00  0.00000000000E+00  0.16042893299E+03  0.16042893299E+03  0.00000000000E+00 0. -1.
         -2   -1    0    0    0  501 -0.00000000000E+00 -0.00000000000E+00 -0.71046141578E+03  0.71046141578E+03  0.00000000000E+00 0.  1.
         25    1    1    2    0    0 -0.97334292244E+02 -0.17622449076E+03  0.32516320960E+02  0.23918893519E+03  0.12500000000E+03 0.  0.
         21    1    1    2  501  501  0.30357752810E+02  0.21895966219E+02 -0.16008701741E+02  0.40710011346E+02  0.00000000000E+00 0.  1.
         -2    1    1    2    0  502  0.66976539434E+02  0.15432852454E+03 -0.56654010201E+03  0.59099140223E+03  0.00000000000E+00 0.  1.
<mgrwt>
<rscale>  4 0.21173432E+03</rscale>
<asrwt>0</asrwt>
<pdfrwt beam="1">  1       21 0.24681374E-01 0.21173432E+03</pdfrwt>
<pdfrwt beam="2">  1       -2 0.10930176E+00 0.21173432E+03</pdfrwt>
<totfact> 0.88217681E+02</totfact>
</mgrwt>
</event>
<event>
 5    0  0.2947253E-001  0.3268279E+03  0.7546771E-02  0.1072549E+00
         21   -1    0    0  503  502  0.00000000000E+00  0.00000000000E+00  0.13610665291E+04  0.13610665291E+04  0.00000000000E+00 0. -1.
          2   -1    0    0  502    0 -0.00000000000E+00 -0.00000000000E+00 -0.22360164725E+03  0.22360164725E+03  0.00000000000E+00 0. -1.
         25    1    1    2    0    0 -0.28916859579E+03 -0.11655451303E+03  0.11584042994E+04  0.12061214500E+04  0.12500000000E+03 0.  0.
         21    1    1    2  503  501  0.27120419794E+02  0.11223229980E+03 -0.14641997442E+02  0.11638726037E+03  0.00000000000E+00 0. -1.
          2    1    1    2  501    0  0.26204817599E+03  0.43222132277E+01 -0.62974201568E+01  0.26215946592E+03  0.00000000000E+00 0. -1.
<mgrwt>
<rscale>  4 0.32682793E+03</rscale>
<asrwt>0</asrwt>
<pdfrwt beam="1">  1       21 0.20939485E+00 0.32682793E+03</pdfrwt>
<pdfrwt beam="2">  1        2 0.34400254E-01 0.32682793E+03</pdfrwt>
<totfact> 0.19930474E+02</totfact>
</mgrwt>
</event>
<event>
 5    0  0.2947253E-001  0.2783172E+03  0.7546771E-02  0.1096612E+00
         21   -1    0    0  503  502  0.00000000000E+00  0.00000000000E+00  0.31606541769E+03  0.31606541769E+03  0.00000000000E+00 0. -1.
          2   -1    0    0  502    0 -0.00000000000E+00 -0.00000000000E+00 -0.96240919155E+03  0.96240919155E+03  0.00000000000E+00 0.  1.
         25    1    1    2    0    0  0.10593418517E+03  0.22659283579E+03  0.23059764948E+03  0.36244536245E+03  0.12500000000E+03 0.  0.
         21    1    1    2  503  501 -0.25150196853E+02 -0.79752545926E+01 -0.15986742590E+03  0.16203003102E+03  0.00000000000E+00 0.  1.
          2    1    1    2  501    0 -0.80783988318E+02 -0.21861758119E+03 -0.71707399744E+03  0.75399921577E+03  0.00000000000E+00 0.  1.
<mgrwt>
<rscale>  4 0.27831724E+03</rscale>
<asrwt>0</asrwt>
<pdfrwt beam="1">  1       21 0.48625449E-01 0.27831724E+03</pdfrwt>
<pdfrwt beam="2">  1        2 0.14806295E+00 0.27831724E+03</pdfrwt>
<totfact> 0.13658018E+03</totfact>
</mgrwt>
</event>
<event>
 5    0  0.2947253E-001  0.2411788E+03  0.7546771E-02  0.1119010E+00
          2   -1    0    0  502    0 -0.00000000000E+00  0.00000000000E+00  0.12521460543E+04  0.12521460543E+04  0.00000000000E+00 0.  1.
         21   -1    0    0  503  502  0.00000000000E+00 -0.00000000000E+00 -0.69994082234E+02  0.69994082234E+02  0.00000000000E+00 0.  1.
         25    1    1    2    0    0 -0.19147104631E+03 -0.76688043868E+02  0.19487570996E+03  0.31007057258E+03  0.12500000000E+03 0.  0.
         21    1    1    2  503  501  0.56890712414E+02  0.25078563546E+02  0.14835475098E+03  0.16085589714E+03  0.00000000000E+00 0. -1.
          2    1    1    2  501    0  0.13458033390E+03  0.51609480322E+02  0.83892151113E+03  0.85121366681E+03  0.00000000000E+00 0.  1.
<mgrwt>
<rscale>  4 0.24117881E+03</rscale>
<asrwt>0</asrwt>
<pdfrwt beam="1">  1       21 0.10768321E-01 0.24117881E+03</pdfrwt>
<pdfrwt beam="2">  1        2 0.19263784E+00 0.24117881E+03</pdfrwt>
<totfact> 0.16783034E+04</totfact>
</mgrwt>
</event>
<event>
 5    0  0.2947253E-001  0.5518931E+03  0.7546771E-02  0.1001805E+00
          2   -1    0    0  502    0 -0.00000000000E+00  0.00000000000E+00  0.23267139836E+03  0.23267139836E+03  0.00000000000E+00 0.  1.
         21   -1    0    0  503  502  0.00000000000E+00 -0.00000000000E+00 -0.16758657961E+04  0.16758657961E+04  0.00000000000E+00 0.  1.
         25    1    1    2    0    0  0.11984590071E+02 -0.52422873354E+03 -0.11795814953E+04  0.12969182316E+04  0.12500000000E+03 0.  0.
         21    1    1    2  503  501 -0.54735762880E+02  0.47864031464E+03 -0.26351753240E+03  0.54912115641E+03  0.00000000000E+00 0.  1.
          2    1    1    2  501    0  0.42751172808E+02  0.45588418901E+02 -0.95370055620E-01  0.62497806440E+02  0.00000000000E+00 0.  1.
<mgrwt>
<rscale>  4 0.54865616E+03</rscale>
<asrwt>0</asrwt>
<pdfrwt beam="1">  1       21 0.25782551E+00 0.55189310E+03</pdfrwt>
<pdfrwt beam="2">  1        2 0.35795600E-01 0.55189310E+03</pdfrwt>
<totfact> 0.86450431E+01</totfact>
</mgrwt>
</event>
<event>
 5    0  0.3117096E-001  0.2842140E+03  0.7546771E-02  0.1093409E+00
          2   -1    0    0  502    0 -0.00000000000E+00  0.00000000000E+00  0.20755691375E+04  0.20755691375E+04  0.00000000000E+00 0. -1.
         21   -1    0    0  503  502  0.00000000000E+00 -0.00000000000E+00 -0.13725007725E+03  0.13725007725E+03  0.00000000000E+00 0. -1.
         25    1    1    2    0    0 -0.27325364099E+03 -0.43381222385E+02  0.61235491072E+02  0.30971643181E+03  0.12500000000E+03 0.  0.
         21    1    1    2  503  501  0.26952364784E+02 -0.17850393177E+02  0.58010465285E+02  0.66409943432E+02  0.00000000000E+00 0.  1.
          2    1    1    2  501    0  0.24630127620E+03  0.61231615563E+02  0.18190731039E+04  0.18366928395E+04  0.00000000000E+00 0. -1.
<mgrwt>
<rscale>  4 0.28421397E+03</rscale>
<asrwt>0</asrwt>
<pdfrwt beam="1">  1       21 0.21115398E-01 0.28421397E+03</pdfrwt>
<pdfrwt beam="2">  1        2 0.31931830E+00 0.28421397E+03</pdfrwt>
<totfact> 0.17474216E+03</totfact>
</mgrwt>
</event>
<event>
 5    0  0.2947253E-001  0.2359904E+03  0.7546771E-02  0.1122493E+00
         -4   -1    0    0    0  501 -0.00000000000E+00  0.00000000000E+00  0.91413164501E+03  0.91413164501E+03  0.00000000000E+00 0. -1.
         21   -1    0    0  501  502  0.00000000000E+00 -0.00000000000E+00 -0.11475604991E+03  0.11475604991E+03  0.00000000000E+00 0. -1.
         25    1    1    2    0    0  0.17016169352E+03  0.10541098439E+03  0.37098968027E+02  0.23888870002E+03  0.12500000000E+03 0.  0.
         21    1    1    2  501  501 -0.20980011987E+02  0.50539146033E+01  0.68557852574E+02  0.71874071162E+02  0.00000000000E+00 0.  1.
         -4    1    1    2    0  502 -0.14918168153E+03 -0.11046489899E+03  0.69371877450E+03  0.71812492375E+03  0.00000000000E+00 0. -1.
<mgrwt>
<rscale>  4 0.23599042E+03</rscale>
<asrwt>0</asrwt>
<pdfrwt beam="1">  1       21 0.17654777E-01 0.23599042E+03</pdfrwt>
<pdfrwt beam="2">  1       -4 0.14063563E+00 0.23599042E+03</pdfrwt>
<totfact> 0.45678649E+02</totfact>
</mgrwt>
</event>
<event>
 5    0  0.2947253E-001  0.2736663E+03  0.7546771E-02  0.1099199E+00
         21   -1    0    0  501  502  0.00000000000E+00  0.00000000000E+00  0.48425840865E+03  0.48425840865E+03  0.00000000000E+00 0. -1.
         -2   -1    0    0    0  501 -0.00000000000E+00 -0.00000000000E+00 -0.21142134808E+03  0.21142134808E+03  0.00000000000E+00 0.  1.
         25    1    1    2    0    0  0.15404914499E+03  0.18851283473E+03  0.33131981249E+03  0.42972787445E+03  0.12500000000E+03 0.  0.
         21    1    1    2  501  501 -0.86605498613E+02 -0.38136808552E+02 -0.22025120548E+02  0.97159839912E+02  0.00000000000E+00 0.  1.
         -2    1    1    2    0  502 -0.67443646376E+02 -0.15037602618E+03 -0.36457631371E+02  0.16879204238E+03  0.00000000000E+00 0.  1.
<mgrwt>
<rscale>  4 0.27366627E+03</rscale>
<asrwt>0</asrwt>
<pdfrwt beam="1">  1       21 0.74501294E-01 0.27366627E+03</pdfrwt>
<pdfrwt beam="2">  1       -2 0.32526361E-01 0.27366627E+03</pdfrwt>
<totfact> 0.11127943E+03</totfact>
</mgrwt>
</event>
<event>
 5    0  0.2947253E-001  0.2602957E+03  0.7546771E-02  0.1106966E+00
         21   -1    0    0  503  502  0.00000000000E+00  0.00000000000E+00  0.15677214110E+03  0.15677214110E+03  0.00000000000E+00 0. -1.
          2   -1    0    0  502    0 -0.00000000000E+00 -0.00000000000E+00 -0.12797153346E+04  0.12797153346E+04  0.00000000000E+00 0.  1.
         25    1    1    2    0    0  0.20234239356E+03  0.11685136318E+03  0.17276415651E+02  0.26555632142E+03  0.12500000000E+03 0.  0.
         21    1    1    2  503  501 -0.44934369901E+02 -0.24825592315E+02 -0.79363765185E+02  0.94519917777E+02  0.00000000000E+00 0. -1.
          2    1    1    2  501    0 -0.15740802365E+03 -0.92025770865E+02 -0.10608558440E+04  0.10764112366E+04  0.00000000000E+00 0.  1.
<mgrwt>
<rscale>  4 0.26029568E+03</rscale>
<asrwt>0</asrwt>
<pdfrwt beam="1">  1       21 0.24118791E-01 0.26029568E+03</pdfrwt>
<pdfrwt beam="2">  1        2 0.19687928E+00 0.26029568E+03</pdfrwt>
<totfact> 0.36370337E+03</totfact>
</mgrwt>
</event>
<event>
 5    0  0.2947253E-001  0.3392249E+03  0.7546771E-02  0.1067127E+00
         21   -1    0    0  503  502  0.00000000000E+00  0.00000000000E+00  0.73482584454E+02  0.73482584454E+02  0.00000000000E+00 0.  1.
          1   -1    0    0  502    0 -0.00000000000E+00 -0.00000000000E+00 -0.25325840693E+04  0.25325840693E+04  0.00000000000E+00 0.  1.
         25    1    1    2    0    0 -0.27520603793E+02  0.32835187649E+03 -0.53608688268E+03  0.64155006368E+03  0.12500000000E+03 0.  0.
         21    1    1    2  503  501  0.30538994841E+02 -0.28884684373E+03 -0.10177571378E+04  0.10583925174E+04  0.00000000000E+00 0.  1.
          1    1    1    2  501    0 -0.30183910485E+01 -0.39505032753E+02 -0.90525746435E+03  0.90612407267E+03  0.00000000000E+00 0.  1.
<mgrwt>
<rscale>  4 0.33922493E+03</rscale>
<asrwt>0</asrwt>
<pdfrwt beam="1">  1       21 0.11305013E-01 0.33922493E+03</pdfrwt>
<pdfrwt beam="2">  1        1 0.38962830E+00 0.33922493E+03</pdfrwt>
<totfact> 0.10546604E+03</totfact>
</mgrwt>
</event>
<event>
 5    0  0.2947253E-001  0.2974928E+03  0.7546771E-02  0.1086501E+00
         21   -1    0    0  503  502  0.00000000000E+00  0.00000000000E+00  0.17565746734E+03  0.17565746734E+03  0.00000000000E+00 0.  1.
          1   -1    0    0  502    0 -0.00000000000E+00 -0.00000000000E+00 -0.55815502690E+03  0.55815502690E+03  0.00000000000E+00 0.  1.
         25    1    1    2    0    0  0.23800757049E+03 -0.12739447828E+03 -0.53103234354E+02  0.30219515252E+03  0.12500000000E+03 0.  0.
         21    1    1    2  503  501 -0.13806905002E+03  0.11190839044E+03 -0.21409385680E+03  0.27824940242E+03  0.00000000000E+00 0.  1.
          1    1    1    2  501    0 -0.99938520475E+02  0.15486087842E+02 -0.11530046841E+03  0.15336793931E+03  0.00000000000E+00 0.  1.
<mgrwt>
<rscale>  4 0.29749278E+03</rscale>
<asrwt>0</asrwt>
<pdfrwt beam="1">  1       21 0.27024225E-01 0.29749278E+03</pdfrwt>
<pdfrwt beam="2">  1        1 0.85870005E-01 0.29749278E+03</pdfrwt>
<totfact> 0.54678007E+03</totfact>
</mgrwt>
</event>
<event>
 5    0  0.2947253E-001  0.2439855E+03  0.7546771E-02  0.1117166E+00
          1   -1    0    0  502    0 -0.00000000000E+00  0.00000000000E+00  0.10055887671E+04  0.10055887671E+04  0.00000000000E+00 0. -1.
         21   -1    0    0  503  502  0.00000000000E+00 -0.00000000000E+00 -0.72965957159E+02  0.72965957159E+02  0.00000000000E+00 0. -1.
         25    1    1    2    0    0 -0.21434878901E+03  0.61486665144E+02  0.25894577990E+03  0.36387350861E+03  0.12500000000E+03 0.  0.
         21    1    1    2  503  501  0.35693290763E+02  0.14665170325E+01  0.22256089791E+03  0.22540966030E+03  0.00000000000E+00 0. -1.
          1    1    1    2  501    0  0.17865549825E+03 -0.62953182177E+02  0.45111613212E+03  0.48927155533E+03  0.00000000000E+00 0. -1.
<mgrwt>
<rscale>  4 0.24398547E+03</rscale>
<asrwt>0</asrwt>
<pdfrwt beam="1">  1       21 0.11225533E-01 0.24398547E+03</pdfrwt>
<pdfrwt beam="2">  1        1 0.15470595E+00 0.24398547E+03</pdfrwt>
<totfact> 0.11612576E+04</totfact>
</mgrwt>
</event>
<event>
 5    0  0.2947253E-001  0.2606218E+03  0.7546771E-02  0.1106770E+00
         -2   -1    0    0    0  501 -0.00000000000E+00  0.00000000000E+00  0.33100952777E+02  0.33100952777E+02  0.00000000000E+00 0. -1.
         21   -1    0    0  501  502  0.00000000000E+00 -0.00000000000E+00 -0.24427716504E+04  0.24427716504E+04  0.00000000000E+00 0. -1.
         25    1    1    2    0    0  0.17244465200E+03 -0.15020512859E+03 -0.18635399210E+04  0.18816760550E+04  0.12500000000E+03 0.  0.
         21    1    1    2  501  501 -0.49437314231E+02  0.20083971658E+02 -0.15763402808E+03  0.16642085436E+03  0.00000000000E+00 0.  1.
         -2    1    1    2    0  502 -0.12300733777E+03  0.13012115693E+03 -0.38849674851E+03  0.42777569383E+03  0.00000000000E+00 0. -1.
<mgrwt>
<rscale>  4 0.26062183E+03</rscale>
<asrwt>0</asrwt>
<pdfrwt beam="1">  1       21 0.37581116E+00 0.26062183E+03</pdfrwt>
<pdfrwt beam="2">  1       -2 0.50924524E-02 0.26062183E+03</pdfrwt>
<totfact> 0.16956109E+02</totfact>
</mgrwt>
</event>
<event>
 5    0  0.2947253E-001  0.3115070E+03  0.7546771E-02  0.1079626E+00
         21   -1    0    0  501  502  0.00000000000E+00  0.00000000000E+00  0.46605777140E+02  0.46605777140E+02  0.00000000000E+00 0.  1.
         -1   -1    0    0    0  501 -0.00000000000E+00 -0.00000000000E+00 -0.19502313898E+04  0.19502313898E+04  0.00000000000E+00 0.  1.
         25    1    1    2    0    0 -0.11925217495E+03 -0.25921138556E+03 -0.96817619320E+03  0.10170554384E+04  0.12500000000E+03 0.  0.
         21    1    1    2  501  501  0.31080537940E+02  0.24839831268E+02 -0.16161670946E+03  0.16644211557E+03  0.00000000000E+00 0.  1.
         -1    1    1    2    0  502  0.88171637006E+02  0.23437155429E+03 -0.77383271004E+03  0.81333961305E+03  0.00000000000E+00 0.  1.
<mgrwt>
<rscale>  4 0.31150702E+03</rscale>
<asrwt>0</asrwt>
<pdfrwt beam="1">  1       21 0.71701205E-02 0.31150702E+03</pdfrwt>
<pdfrwt beam="2">  1       -1 0.30003556E+00 0.31150702E+03</pdfrwt>
<totfact> 0.51564439E+02</totfact>
</mgrwt>
</event>
<event>
 5    0  0.2947253E-001  0.2463748E+03  0.7546771E-02  0.1115618E+00
         21   -1    0    0  503  502  0.00000000000E+00  0.00000000000E+00  0.35646886531E+02  0.35646886531E+02  0.00000000000E+00 0. -1.
          1   -1    0    0  502    0 -0.00000000000E+00 -0.00000000000E+00 -0.31953129810E+04  0.31953129810E+04  0.00000000000E+00 0. -1.
         25    1    1    2    0    0 -0.14812690788E+03  0.15273859792E+03 -0.48754853983E+03  0.54644234721E+03  0.12500000000E+03 0.  0.
         21    1    1    2  503  501 -0.20757404619E+02 -0.23837529448E+02 -0.75544546331E+03  0.75610643807E+03  0.00000000000E+00 0. -1.
          1    1    1    2  501    0  0.16888431250E+03 -0.12890106848E+03 -0.19166720913E+04  0.19284110823E+04  0.00000000000E+00 0. -1.
<mgrwt>
<rscale>  4 0.24637483E+03</rscale>
<asrwt>0</asrwt>
<pdfrwt beam="1">  1       21 0.54841346E-02 0.24637483E+03</pdfrwt>
<pdfrwt beam="2">  1        1 0.49158677E+00 0.24637483E+03</pdfrwt>
<totfact> 0.13639904E+03</totfact>
</mgrwt>
</event>
<event>
 5    0  0.2947253E-001  0.2181939E+03  0.7546771E-02  0.1135237E+00
          1   -1    0    0  502    0 -0.00000000000E+00  0.00000000000E+00  0.10597946624E+04  0.10597946624E+04  0.00000000000E+00 0.  1.
         21   -1    0    0  503  502  0.00000000000E+00 -0.00000000000E+00 -0.67278586442E+02  0.67278586442E+02  0.00000000000E+00 0. -1.
         25    1    1    2    0    0  0.15856129952E+03  0.12215894563E+03  0.29720518697E+03  0.37950021985E+03  0.12500000000E+03 0.  0.
         21    1    1    2  503  501 -0.91690733503E+02  0.32025837493E+02  0.35470201130E+03  0.36775856441E+03  0.00000000000E+00 0.  1.
          1    1    1    2  501    0 -0.66870566017E+02 -0.15418478313E+03  0.34060887770E+03  0.37981446460E+03  0.00000000000E+00 0.  1.
<mgrwt>
<rscale>  4 0.21819391E+03</rscale>
<asrwt>0</asrwt>
<pdfrwt beam="1">  1       21 0.10350553E-01 0.21819391E+03</pdfrwt>
<pdfrwt beam="2">  1        1 0.16304532E+00 0.21819391E+03</pdfrwt>
<totfact> 0.12319679E+04</totfact>
</mgrwt>
</event>
<event>
 5    0  0.2947253E-001  0.2420976E+03  0.7546771E-02  0.1118403E+00
         -4   -1    0    0    0  501 -0.00000000000E+00  0.00000000000E+00  0.22286040612E+03  0.22286040612E+03  0.00000000000E+00 0.  1.
         21   -1    0    0  501  502  0.00000000000E+00 -0.00000000000E+00 -0.37533102119E+03  0.37533102119E+03  0.00000000000E+00 0. -1.
         25    1    1    2    0    0  0.15148450188E+03  0.14155816634E+03 -0.25188847449E+03  0.34936953552E+03  0.12500000000E+03 0.  0.
         21    1    1    2  501  501 -0.96224363142E+01 -0.66977343839E+02  0.25279944412E+02  0.72233174220E+02  0.00000000000E+00 0.  1.
         -4    1    1    2    0  502 -0.14186206556E+03 -0.74580822502E+02  0.74137915013E+02  0.17658871757E+03  0.00000000000E+00 0.  1.
<mgrwt>
<rscale>  4 0.24209764E+03</rscale>
<asrwt>0</asrwt>
<pdfrwt beam="1">  1       21 0.57743233E-01 0.24209764E+03</pdfrwt>
<pdfrwt beam="2">  1       -4 0.34286217E-01 0.24209764E+03</pdfrwt>
<totfact> 0.97194165E+02</totfact>
</mgrwt>
</event>
<event>
 5    0  0.2947253E-001  0.2465161E+03  0.7546771E-02  0.1115527E+00
          1   -1    0    0  502    0 -0.00000000000E+00  0.00000000000E+00  0.46456000469E+03  0.46456000469E+03  0.00000000000E+00 0. -1.
         21   -1    0    0  503  502  0.00000000000E+00 -0.00000000000E+00 -0.44506355594E+03  0.44506355594E+03  0.00000000000E+00 0.  1.
         25    1    1    2    0    0 -0.19373110776E+03 -0.90818234712E+02 -0.37878338257E+03  0.45263842610E+03  0.12500000000E+03 0.  0.
         21    1    1    2  503  501  0.11875670529E+02  0.17052989007E+02  0.12746892485E+02  0.24378663881E+02  0.00000000000E+00 0. -1.
          1    1    1    2  501    0  0.18185543723E+03  0.73765245705E+02  0.38553293884E+03  0.43260647065E+03  0.00000000000E+00 0. -1.
<mgrwt>
<rscale>  4 0.24651615E+03</rscale>
<asrwt>0</asrwt>
<pdfrwt beam="1">  1       21 0.68471316E-01 0.24651615E+03</pdfrwt>
<pdfrwt beam="2">  1        1 0.71470770E-01 0.24651615E+03</pdfrwt>
<totfact> 0.10423452E+03</totfact>
</mgrwt>
</event>
<event>
 5    0  0.2947253E-001  0.2592616E+03  0.7546771E-02  0.1107588E+00
          2   -1    0    0  502    0 -0.00000000000E+00  0.00000000000E+00  0.17597992740E+04  0.17597992740E+04  0.00000000000E+00 0.  1.
         21   -1    0    0  503  502  0.00000000000E+00 -0.00000000000E+00 -0.62652575622E+02  0.62652575622E+02  0.00000000000E+00 0.  1.
         25    1    1    2    0    0 -0.15602253142E+03 -0.16507133160E+03  0.26311486059E+03  0.36938598335E+03  0.12500000000E+03 0.  0.
         21    1    1    2  503  501  0.82807892723E+01  0.37511766499E+02  0.19413093747E+03  0.19789523738E+03  0.00000000000E+00 0.  1.
          2    1    1    2  501    0  0.14774174215E+03  0.12755956510E+03  0.12399009003E+04  0.12551706289E+04  0.00000000000E+00 0.  1.
<mgrwt>
<rscale>  4 0.25926160E+03</rscale>
<asrwt>0</asrwt>
<pdfrwt beam="1">  1       21 0.96388591E-02 0.25926160E+03</pdfrwt>
<pdfrwt beam="2">  1        2 0.27073831E+00 0.25926160E+03</pdfrwt>
<totfact> 0.10859278E+04</totfact>
</mgrwt>
</event>
<event>
 5    0  0.2947253E-001  0.2436773E+03  0.7546771E-02  0.1117367E+00
         21   -1    0    0  503  502  0.00000000000E+00  0.00000000000E+00  0.34583909191E+03  0.34583909191E+03  0.00000000000E+00 0.  1.
          2   -1    0    0  502    0 -0.00000000000E+00 -0.00000000000E+00 -0.27780833074E+04  0.27780833074E+04  0.00000000000E+00 0.  1.
         25    1    1    2    0    0  0.20363206519E+03 -0.49318221723E+02  0.29731901247E+03  0.38460616238E+03  0.12500000000E+03 0.  0.
         21    1    1    2  503  501 -0.11516378359E+02  0.34875905723E+02 -0.33217175475E+03  0.33419609576E+03  0.00000000000E+00 0.  1.
          2    1    1    2  501    0 -0.19211568683E+03  0.14442316000E+02 -0.23973914732E+04  0.24051201412E+04  0.00000000000E+00 0.  1.
<mgrwt>
<rscale>  4 0.24367725E+03</rscale>
<asrwt>0</asrwt>
<pdfrwt beam="1">  1       21 0.53206011E-01 0.24367725E+03</pdfrwt>
<pdfrwt beam="2">  1        2 0.42739745E+00 0.24367725E+03</pdfrwt>
<totfact> 0.11746881E+02</totfact>
</mgrwt>
</event>
<event>
 5    0  0.2947253E-001  0.4063109E+03  0.7546771E-02  0.1041616E+00
         21   -1    0    0  503  502  0.00000000000E+00  0.00000000000E+00  0.11597920071E+04  0.11597920071E+04  0.00000000000E+00 0. -1.
          2   -1    0    0  502    0 -0.00000000000E+00 -0.00000000000E+00 -0.78394903741E+03  0.78394903741E+03  0.00000000000E+00 0. -1.
         25    1    1    2    0    0 -0.28433169322E+03  0.26304932250E+03  0.10606190385E+04  0.11360357400E+04  0.12500000000E+03 0.  0.
         21    1    1    2  503  501  0.43242696047E+02  0.25702635490E+02 -0.58629968814E+02  0.77253022437E+02  0.00000000000E+00 0. -1.
          2    1    1    2  501    0  0.24108899717E+03 -0.28875195799E+03 -0.62614609999E+03  0.73045228203E+03  0.00000000000E+00 0. -1.
<mgrwt>
<rscale>  4 0.40631092E+03</rscale>
<asrwt>0</asrwt>
<pdfrwt beam="1">  1       21 0.17842954E+00 0.40631092E+03</pdfrwt>
<pdfrwt beam="2">  1        2 0.12060754E+00 0.40631092E+03</pdfrwt>
<totfact> 0.74460396E+01</totfact>
</mgrwt>
</event>
<event>
 5    0  0.2947253E-001  0.2410656E+03  0.7546771E-02  0.1119085E+00
          2   -1    0    0  502    0 -0.00000000000E+00  0.00000000000E+00  0.21463342172E+04  0.21463342172E+04  0.00000000000E+00 0. -1.
         21   -1    0    0  503  502  0.00000000000E+00 -0.00000000000E+00 -0.43862677683E+02  0.43862677683E+02  0.00000000000E+00 0. -1.
         25    1    1    2    0    0 -0.14146036367E+03  0.14885871450E+03  0.37014794209E+03  0.44136657146E+03  0.12500000000E+03 0.  0.
         21    1    1    2  503  501  0.14553313544E+02  0.18170790040E+02  0.33964328624E+03  0.34044021272E+03  0.00000000000E+00 0. -1.
          2    1    1    2  501    0  0.12690705012E+03 -0.16702950454E+03  0.13926803111E+04  0.14083901107E+04  0.00000000000E+00 0. -1.
<mgrwt>
<rscale>  4 0.24106556E+03</rscale>
<asrwt>0</asrwt>
<pdfrwt beam="1">  1       21 0.67481059E-02 0.24106556E+03</pdfrwt>
<pdfrwt beam="2">  1        2 0.33020518E+00 0.24106556E+03</pdfrwt>
<totfact> 0.12786965E+04</totfact>
</mgrwt>
</event>
<event>
 5    0  0.2947253E-001  0.2084931E+03  0.7546771E-02  0.1142765E+00
         21   -1    0    0  503  502  0.00000000000E+00  0.00000000000E+00  0.48083000691E+03  0.48083000691E+03  0.00000000000E+00 0.  1.
          2   -1    0    0  502    0 -0.00000000000E+00 -0.00000000000E+00 -0.20588001256E+03  0.20588001256E+03  0.00000000000E+00 0.  1.
         25    1    1    2    0    0  0.20496207260E+03  0.34180783198E+02  0.35970505305E+03  0.43380929259E+03  0.12500000000E+03 0.  0.
         21    1    1    2  503  501 -0.43009152817E+02 -0.20386433237E+02  0.27869371503E+02  0.55155196982E+02  0.00000000000E+00 0. -1.
          2    1    1    2  501    0 -0.16195291978E+03 -0.13794349961E+02 -0.11262443021E+03  0.19774552990E+03  0.00000000000E+00 0.  1.
<mgrwt>
<rscale>  4 0.20849315E+03</rscale>
<asrwt>0</asrwt>
<pdfrwt beam="1">  1       21 0.73973847E-01 0.20849315E+03</pdfrwt>
<pdfrwt beam="2">  1        2 0.31673848E-01 0.20849315E+03</pdfrwt>
<totfact> 0.33179223E+03</totfact>
</mgrwt>
</event>
<event>
 5    0  0.2947253E-001  0.2170783E+03  0.7546771E-02  0.1136080E+00
         21   -1    0    0  503  502  0.00000000000E+00  0.00000000000E+00  0.51343707976E+02  0.51343707976E+02  0.00000000000E+00 0.  1.
          1   -1    0    0  502    0 -0.00000000000E+00 -0.00000000000E+00 -0.15564165943E+04  0.15564165943E+04  0.00000000000E+00 0. -1.
         25    1    1    2    0    0  0.22151522785E+03  0.17811516394E+01 -0.42355372714E+03  0.49405964057E+03  0.12500000000E+03 0.  0.
         21    1    1    2  503  501 -0.93070094921E+02  0.60533142289E+02 -0.64338574832E+03  0.65289472737E+03  0.00000000000E+00 0. -1.
          1    1    1    2  501    0 -0.12844513293E+03 -0.62314293928E+02 -0.43813341086E+03  0.46080593433E+03  0.00000000000E+00 0. -1.
<mgrwt>
<rscale>  4 0.21707827E+03</rscale>
<asrwt>0</asrwt>
<pdfrwt beam="1">  1       21 0.78990331E-02 0.21707827E+03</pdfrwt>
<pdfrwt beam="2">  1        1 0.23944867E+00 0.21707827E+03</pdfrwt>
<totfact> 0.90810339E+03</totfact>
</mgrwt>
</event>
<event>
 5    0  0.2947253E-001  0.2880914E+03  0.7546771E-02  0.1091350E+00
          2   -1    0    0  502    0 -0.00000000000E+00  0.00000000000E+00  0.87527596717E+03  0.87527596717E+03  0.00000000000E+00 0.  1.
         21   -1    0    0  503  502  0.00000000000E+00 -0.00000000000E+00 -0.94474595979E+02  0.94474595979E+02  0.00000000000E+00 0. -1.
         25    1    1    2    0    0  0.15629167947E+03 -0.20723071896E+03  0.28029557083E+03  0.40194808991E+03  0.12500000000E+03 0.  0.
         21    1    1    2  503  501 -0.29859724611E+02  0.21719140123E+02  0.12465739665E+03  0.13001073318E+03  0.00000000000E+00 0. -1.
          2    1    1    2  501    0 -0.12643195486E+03  0.18551157884E+03  0.37584840370E+03  0.43779174005E+03  0.00000000000E+00 0.  1.
<mgrwt>
<rscale>  4 0.28809141E+03</rscale>
<asrwt>0</asrwt>
<pdfrwt beam="1">  1       21 0.14534554E-01 0.28809141E+03</pdfrwt>
<pdfrwt beam="2">  1        2 0.13465784E+00 0.28809141E+03</pdfrwt>
<totfact> 0.16286047E+04</totfact>
</mgrwt>
</event>
<event>
 5    0  0.2947253E-001  0.2974739E+03  0.7546771E-02  0.1086510E+00
          1   -1    0    0  502    0 -0.00000000000E+00  0.00000000000E+00  0.88376588397E+03  0.88376588397E+03  0.00000000000E+00 0. -1.
         21   -1    0    0  503  502  0.00000000000E+00 -0.00000000000E+00 -0.30408159775E+03  0.30408159775E+03  0.00000000000E+00 0.  1.
         25    1    1    2    0    0 -0.25186895460E+03  0.20588161082E+03 -0.12260417379E+03  0.36943469165E+03  0.12500000000E+03 0.  0.
         21    1    1    2  503  501  0.77639400238E+02 -0.64443254670E+01  0.11688804085E+02  0.78778384986E+02  0.00000000000E+00 0.  1.
          1    1    1    2  501    0  0.17422955436E+03 -0.19943728535E+03  0.69059965593E+03  0.73963440507E+03  0.00000000000E+00 0. -1.
<mgrwt>
<rscale>  4 0.29747394E+03</rscale>
<asrwt>0</asrwt>
<pdfrwt beam="1">  1       21 0.46781784E-01 0.29747394E+03</pdfrwt>
<pdfrwt beam="2">  1        1 0.13596398E+00 0.29747394E+03</pdfrwt>
<totfact> 0.91803635E+02</totfact>
</mgrwt>
</event>
<event>
 5    0  0.2947253E-001  0.2481137E+03  0.7546771E-02  0.1114503E+00
         21   -1    0    0  501  502  0.00000000000E+00  0.00000000000E+00  0.41617485329E+03  0.41617485329E+03  0.00000000000E+00 0.  1.
         -4   -1    0    0    0  501 -0.00000000000E+00 -0.00000000000E+00 -0.26690236030E+03  0.26690236030E+03  0.00000000000E+00 0. -1.
         25    1    1    2    0    0  0.18490141603E+03  0.10838292942E+03  0.32087699284E+03  0.40561365555E+03  0.12500000000E+03 0.  0.
         21    1    1    2  501  501 -0.29293445388E+02 -0.24946237819E+02 -0.14486535824E+02  0.41113020373E+02  0.00000000000E+00 0.  1.
         -4    1    1    2    0  502 -0.15560797064E+03 -0.83436691606E+02 -0.15711796402E+03  0.23635053766E+03  0.00000000000E+00 0. -1.
<mgrwt>
<rscale>  4 0.24811367E+03</rscale>
<asrwt>0</asrwt>
<pdfrwt beam="1">  1       21 0.64026900E-01 0.24811367E+03</pdfrwt>
<pdfrwt beam="2">  1       -4 0.41061902E-01 0.24811367E+03</pdfrwt>
<totfact> 0.54432005E+02</totfact>
</mgrwt>
</event>
<event>
 5    0  0.2947253E-001  0.4318263E+03  0.7546771E-02  0.1033285E+00
         21   -1    0    0  503  502  0.00000000000E+00  0.00000000000E+00  0.25419364074E+03  0.25419364074E+03  0.00000000000E+00 0.  1.
          1   -1    0    0  502    0 -0.00000000000E+00 -0.00000000000E+00 -0.78520774517E+03  0.78520774517E+03  0.00000000000E+00 0.  1.
         25    1    1    2    0    0 -0.39989202072E+03  0.75746126435E+02 -0.20211544153E+03  0.47130325228E+03  0.12500000000E+03 0.  0.
         21    1    1    2  503  501  0.40657673423E+03 -0.11043884372E+03 -0.27318698111E+03  0.50212797737E+03  0.00000000000E+00 0.  1.
          1    1    1    2  501    0 -0.66847135053E+01  0.34692717286E+02 -0.55711681801E+02  0.65970156256E+02  0.00000000000E+00 0.  1.
<mgrwt>
<rscale>  4 0.43182632E+03</rscale>
<asrwt>0</asrwt>
<pdfrwt beam="1">  1       21 0.39106714E-01 0.43182632E+03</pdfrwt>
<pdfrwt beam="2">  1        1 0.12080119E+00 0.43182632E+03</pdfrwt>
<totfact> 0.15440194E+03</totfact>
</mgrwt>
</event>
<event>
 5    0  0.2947253E-001  0.2583617E+03  0.7546771E-02  0.1108132E+00
         21   -1    0    0  503  502  0.00000000000E+00  0.00000000000E+00  0.15934644813E+03  0.15934644813E+03  0.00000000000E+00 0. -1.
          1   -1    0    0  502    0 -0.00000000000E+00 -0.00000000000E+00 -0.69334412753E+03  0.69334412753E+03  0.00000000000E+00 0. -1.
         25    1    1    2    0    0  0.99880881301E+02 -0.20285359049E+03 -0.56024623025E+03  0.61694943726E+03  0.12500000000E+03 0.  0.
         21    1    1    2  503  501 -0.68549771607E+02  0.18147445812E+03  0.34213019136E+02  0.19698370698E+03  0.00000000000E+00 0. -1.
          1    1    1    2  501    0 -0.31331109694E+02  0.21379132377E+02 -0.79644682834E+01  0.38757431428E+02  0.00000000000E+00 0. -1.
<mgrwt>
<rscale>  4 0.25836170E+03</rscale>
<asrwt>0</asrwt>
<pdfrwt beam="1">  1       21 0.24514838E-01 0.25836170E+03</pdfrwt>
<pdfrwt beam="2">  1        1 0.10666833E+00 0.25836170E+03</pdfrwt>
<totfact> 0.49051448E+03</totfact>
</mgrwt>
</event>
<event>
 5    0  0.2947253E-001  0.3461806E+03  0.7546771E-02  0.1064194E+00
         21   -1    0    0  503  502  0.00000000000E+00  0.00000000000E+00  0.11367686484E+04  0.11367686484E+04  0.00000000000E+00 0. -1.
          1   -1    0    0  502    0 -0.00000000000E+00 -0.00000000000E+00 -0.12092315673E+03  0.12092315673E+03  0.00000000000E+00 0. -1.
         25    1    1    2    0    0 -0.20018142689E+03  0.25326546203E+03  0.77441248117E+03  0.84826628421E+03  0.12500000000E+03 0.  0.
         21    1    1    2  503  501  0.11898331335E+03 -0.20192524099E+03  0.16432583384E+03  0.28624082775E+03  0.00000000000E+00 0. -1.
          1    1    1    2  501    0  0.81198113538E+02 -0.51340221032E+02  0.77107176648E+02  0.12318469316E+03  0.00000000000E+00 0. -1.
<mgrwt>
<rscale>  4 0.34618059E+03</rscale>
<asrwt>0</asrwt>
<pdfrwt beam="1">  1       21 0.17488748E+00 0.34618059E+03</pdfrwt>
<pdfrwt beam="2">  1        1 0.18603563E-01 0.34618059E+03</pdfrwt>
<totfact> 0.55198577E+02</totfact>
</mgrwt>
</event>
<event>
 5    0  0.2947253E-001  0.2423292E+03  0.7546771E-02  0.1118251E+00
          2   -1    0    0  502    0 -0.00000000000E+00  0.00000000000E+00  0.19531930910E+03  0.19531930910E+03  0.00000000000E+00 0. -1.
         21   -1    0    0  503  502  0.00000000000E+00 -0.00000000000E+00 -0.13286335545E+04  0.13286335545E+04  0.00000000000E+00 0.  1.
         25    1    1    2    0    0 -0.62148896413E+02  0.20113878069E+03 -0.12421473333E+04  0.12660467179E+04  0.12500000000E+03 0.  0.
         21    1    1    2  503  501  0.13656766808E+02 -0.42014415226E+02 -0.19021728413E+02  0.48099319312E+02  0.00000000000E+00 0. -1.
          2    1    1    2  501    0  0.48492129604E+02 -0.15912436546E+03  0.12785481632E+03  0.20980682632E+03  0.00000000000E+00 0. -1.
<mgrwt>
<rscale>  4 0.24232916E+03</rscale>
<asrwt>0</asrwt>
<pdfrwt beam="1">  1       21 0.20440516E+00 0.24232916E+03</pdfrwt>
<pdfrwt beam="2">  1        2 0.30049124E-01 0.24232916E+03</pdfrwt>
<totfact> 0.26141200E+02</totfact>
</mgrwt>
</event>
<event>
 5    0  0.2947253E-001  0.2517110E+03  0.7546771E-02  0.1112228E+00
         21   -1    0    0  503  502  0.00000000000E+00  0.00000000000E+00  0.54646488984E+02  0.54646488984E+02  0.00000000000E+00 0. -1.
          1   -1    0    0  502    0 -0.00000000000E+00 -0.00000000000E+00 -0.11539114931E+04  0.11539114931E+04  0.00000000000E+00 0. -1.
         25    1    1    2    0    0 -0.90342465202E+02  0.19892627022E+03 -0.41747669862E+03  0.48748868284E+03  0.12500000000E+03 0.  0.
         21    1    1    2  503  501  0.31721042399E+02 -0.12672336510E+03 -0.28477370798E+03  0.31330671961E+03  0.00000000000E+00 0. -1.
          1    1    1    2  501    0  0.58621422803E+02 -0.72202905118E+02 -0.39701459755E+03  0.40776257968E+03  0.00000000000E+00 0. -1.
<mgrwt>
<rscale>  4 0.25171099E+03</rscale>
<asrwt>0</asrwt>
<pdfrwt beam="1">  1       21 0.84071528E-02 0.25171099E+03</pdfrwt>
<pdfrwt beam="2">  1        1 0.17752483E+00 0.25171099E+03</pdfrwt>
<totfact> 0.15105286E+04</totfact>
</mgrwt>
</event>
<event>
 5    0  0.2947253E-001  0.3897837E+03  0.7546771E-02  0.1047376E+00
          2   -1    0    0  502    0 -0.00000000000E+00  0.00000000000E+00  0.16862380686E+04  0.16862380686E+04  0.00000000000E+00 0. -1.
         21   -1    0    0  503  502  0.00000000000E+00 -0.00000000000E+00 -0.24488248640E+03  0.24488248640E+03  0.00000000000E+00 0. -1.
         25    1    1    2    0    0 -0.23735238089E+03 -0.38271523368E+03  0.11755269340E+03  0.48192399663E+03  0.12500000000E+03 0.  0.
         21    1    1    2  503  501  0.18896353694E+03  0.20253483520E+03  0.29915458688E+03  0.40770215184E+03  0.00000000000E+00 0. -1.
          2    1    1    2  501    0  0.48388843947E+02  0.18018039848E+03  0.10246483019E+04  0.10414944065E+04  0.00000000000E+00 0. -1.
<mgrwt>
<rscale>  4 0.38978374E+03</rscale>
<asrwt>0</asrwt>
<pdfrwt beam="1">  1       21 0.37674230E-01 0.38978374E+03</pdfrwt>
<pdfrwt beam="2">  1        2 0.25942123E+00 0.38978374E+03</pdfrwt>
<totfact> 0.86715509E+02</totfact>
</mgrwt>
</event>
<event>
 5    0  0.2947253E-001  0.2270579E+03  0.7546771E-02  0.1128728E+00
         21   -1    0    0  503  502  0.00000000000E+00  0.00000000000E+00  0.13887304784E+03  0.13887304784E+03  0.00000000000E+00 0. -1.
          2   -1    0    0  502    0 -0.00000000000E+00 -0.00000000000E+00 -0.18767790476E+04  0.18767790476E+04  0.00000000000E+00 0.  1.
         25    1    1    2    0    0  0.69531794759E+01  0.20341161303E+03  0.11683309794E+02  0.23913621798E+03  0.12500000000E+03 0.  0.
         21    1    1    2  503  501 -0.11441370531E+02 -0.14099288804E+03 -0.37963302898E+03  0.40513101107E+03  0.00000000000E+00 0. -1.
          2    1    1    2  501    0  0.44881910548E+01 -0.62418724991E+02 -0.13699562805E+04  0.13713848664E+04  0.00000000000E+00 0.  1.
<mgrwt>
<rscale>  4 0.22705795E+03</rscale>
<asrwt>0</asrwt>
<pdfrwt beam="1">  1       21 0.21365086E-01 0.22705795E+03</pdfrwt>
<pdfrwt beam="2">  1        2 0.28873522E+00 0.22705795E+03</pdfrwt>
<totfact> 0.22335023E+03</totfact>
</mgrwt>
</event>
<event>
 5    0  0.2947253E-001  0.2673613E+03  0.7546771E-02  0.1102799E+00
          1   -1    0    0  502    0 -0.00000000000E+00  0.00000000000E+00  0.31077799606E+03  0.31077799606E+03  0.00000000000E+00 0.  1.
         21   -1    0    0  503  502  0.00000000000E+00 -0.00000000000E+00 -0.57849295810E+03  0.57849295810E+03  0.00000000000E+00 0.  1.
         25    1    1    2    0    0  0.21874834351E+03 -0.77262199657E+02 -0.44826228848E+03  0.51998496571E+03  0.12500000000E+03 0.  0.
         21    1    1    2  503  501  0.43132641391E+02  0.18740852408E+02  0.21913671298E+01  0.47079150293E+02  0.00000000000E+00 0.  1.
          1    1    1    2  501    0 -0.26188098490E+03  0.58521347249E+02  0.17835595931E+03  0.32220683817E+03  0.00000000000E+00 0.  1.
<mgrwt>
<rscale>  4 0.26736127E+03</rscale>
<asrwt>0</asrwt>
<pdfrwt beam="1">  1       21 0.88998915E-01 0.26736127E+03</pdfrwt>
<pdfrwt beam="2">  1        1 0.47812000E-01 0.26736127E+03</pdfrwt>
<totfact> 0.95543798E+02</totfact>
</mgrwt>
</event>
<event>
 5    0  0.2947253E-001  0.3806626E+03  0.7546771E-02  0.1050689E+00
         21   -1    0    0  503  502  0.00000000000E+00  0.00000000000E+00  0.18034015995E+03  0.18034015995E+03  0.00000000000E+00 0.  1.
          1   -1    0    0  502    0 -0.00000000000E+00 -0.00000000000E+00 -0.80348240347E+03  0.80348240347E+03  0.00000000000E+00 0.  1.
         25    1    1    2    0    0 -0.10056907556E+03 -0.34520263279E+03 -0.22595460960E+03  0.44267310992E+03  0.12500000000E+03 0.  0.
         21    1    1    2  503  501  0.17868139920E+02  0.12502741553E+02 -0.43045777752E+02  0.48254823105E+02  0.00000000000E+00 0.  1.
          1    1    1    2  501    0  0.82700935642E+02  0.33269989124E+03 -0.35414185617E+03  0.49289463040E+03  0.00000000000E+00 0.  1.
<mgrwt>
<rscale>  4 0.38066258E+03</rscale>
<asrwt>0</asrwt>
<pdfrwt beam="1">  1       21 0.27744640E-01 0.38066258E+03</pdfrwt>
<pdfrwt beam="2">  1        1 0.12361268E+00 0.38066258E+03</pdfrwt>
<totfact> 0.29982833E+03</totfact>
</mgrwt>
</event>
<event>
 5    0  0.2947253E-001  0.2614596E+03  0.7546771E-02  0.1106269E+00
          2   -1    0    0  502    0 -0.00000000000E+00  0.00000000000E+00  0.34057729652E+04  0.34057729652E+04  0.00000000000E+00 0.  1.
         21   -1    0    0  503  502  0.00000000000E+00 -0.00000000000E+00 -0.80357609069E+02  0.80357609069E+02  0.00000000000E+00 0.  1.
         25    1    1    2    0    0  0.10888212337E+03  0.17626744520E+03  0.13138054579E+03  0.27533865845E+03  0.12500000000E+03 0.  0.
         21    1    1    2  503  501  0.39490735528E+02  0.91981260568E+00  0.91511876721E+02  0.99673405825E+02  0.00000000000E+00 0.  1.
          2    1    1    2  501    0 -0.14837285889E+03 -0.17718725781E+03  0.31025229337E+04  0.31111185100E+04  0.00000000000E+00 0.  1.
<mgrwt>
<rscale>  4 0.26145962E+03</rscale>
<asrwt>0</asrwt>
<pdfrwt beam="1">  1       21 0.12362712E-01 0.26145962E+03</pdfrwt>
<pdfrwt beam="2">  1        2 0.52396496E+00 0.26145962E+03</pdfrwt>
<totfact> 0.82060314E+02</totfact>
</mgrwt>
</event>
<event>
 5    0  0.2947253E-001  0.4669978E+03  0.7546771E-02  0.1022771E+00
          2   -1    0    0  502    0 -0.00000000000E+00  0.00000000000E+00  0.47428378677E+03  0.47428378677E+03  0.00000000000E+00 0. -1.
         21   -1    0    0  503  502  0.00000000000E+00 -0.00000000000E+00 -0.48674868094E+03  0.48674868094E+03  0.00000000000E+00 0. -1.
         25    1    1    2    0    0 -0.23915424076E+03  0.38113927633E+03 -0.14481999297E+03  0.48893734690E+03  0.12500000000E+03 0.  0.
         21    1    1    2  503  501  0.27416510263E+02 -0.23071022054E+02  0.20707877647E+02  0.41385423645E+02  0.00000000000E+00 0.  1.
          2    1    1    2  501    0  0.21173773050E+03 -0.35806825427E+03  0.11164722114E+03  0.43070969716E+03  0.00000000000E+00 0. -1.
<mgrwt>
<rscale>  4 0.46699775E+03</rscale>
<asrwt>0</asrwt>
<pdfrwt beam="1">  1       21 0.74884413E-01 0.46699775E+03</pdfrwt>
<pdfrwt beam="2">  1        2 0.72966736E-01 0.46699775E+03</pdfrwt>
<totfact> 0.12074235E+03</totfact>
</mgrwt>
</event>
<event>
 5    0  0.2947253E-001  0.2710962E+03  0.7546771E-02  0.1100654E+00
          4   -1    0    0  502    0 -0.00000000000E+00  0.00000000000E+00  0.22163261449E+04  0.22163261449E+04  0.00000000000E+00 0.  1.
         21   -1    0    0  503  502  0.00000000000E+00 -0.00000000000E+00 -0.15907978775E+03  0.15907978775E+03  0.00000000000E+00 0. -1.
         25    1    1    2    0    0 -0.28531152583E+02 -0.24706552467E+03 -0.10489649590E+02  0.27855059306E+03  0.12500000000E+03 0.  0.
         21    1    1    2  503  501  0.28536277533E+02  0.11474210143E+03  0.27625899139E+03  0.30049808535E+03  0.00000000000E+00 0. -1.
          4    1    1    2  501    0 -0.51249497619E-02  0.13232342324E+03  0.17914770154E+04  0.17963572543E+04  0.00000000000E+00 0.  1.
<mgrwt>
<rscale>  4 0.27109621E+03</rscale>
<asrwt>0</asrwt>
<pdfrwt beam="1">  1       21 0.24473815E-01 0.27109621E+03</pdfrwt>
<pdfrwt beam="2">  1        4 0.34097323E+00 0.27109621E+03</pdfrwt>
<totfact> 0.13392238E+01</totfact>
</mgrwt>
</event>
<event>
 5    0  0.2947253E-001  0.7151781E+03  0.7546771E-02  0.9703048E-01
         21   -1    0    0  503  502  0.00000000000E+00  0.00000000000E+00  0.21825064653E+04  0.21825064653E+04  0.00000000000E+00 0. -1.
          1   -1    0    0  502    0 -0.00000000000E+00 -0.00000000000E+00 -0.39425784386E+03  0.39425784386E+03  0.00000000000E+00 0. -1.
         25    1    1    2    0    0  0.42781659738E+03 -0.52447445480E+03  0.17268433657E+04  0.18589549496E+04  0.12500000000E+03 0.  0.
         21    1    1    2  503  501 -0.29195059589E+03  0.33631158772E+03  0.14918314924E+03  0.46967674681E+03  0.00000000000E+00 0. -1.
          1    1    1    2  501    0 -0.13586600149E+03  0.18816286708E+03 -0.87777893562E+02  0.24813261275E+03  0.00000000000E+00 0. -1.
<mgrwt>
<rscale>  4 0.70835585E+03</rscale>
<asrwt>0</asrwt>
<pdfrwt beam="1">  1       21 0.33577022E+00 0.71517807E+03</pdfrwt>
<pdfrwt beam="2">  1        1 0.60655054E-01 0.71517807E+03</pdfrwt>
<totfact> 0.10072927E+01</totfact>
</mgrwt>
</event>
<event>
 5    0  0.2947253E-001  0.2394429E+03  0.7546771E-02  0.1120164E+00
          2   -1    0    0  502    0 -0.00000000000E+00  0.00000000000E+00  0.54236848863E+03  0.54236848863E+03  0.00000000000E+00 0.  1.
         21   -1    0    0  503  502  0.00000000000E+00 -0.00000000000E+00 -0.98848051511E+02  0.98848051511E+02  0.00000000000E+00 0.  1.
         25    1    1    2    0    0 -0.20328975727E+03  0.19524296345E+02  0.15766786577E+03  0.28669161037E+03  0.12500000000E+03 0.  0.
         21    1    1    2  503  501  0.20925202829E+02  0.12562325330E+02  0.29378408876E+02  0.38193808912E+02  0.00000000000E+00 0. -1.
          2    1    1    2  501    0  0.18236455444E+03 -0.32086621675E+02  0.25647416248E+03  0.31633112086E+03  0.00000000000E+00 0.  1.
<mgrwt>
<rscale>  4 0.23944294E+03</rscale>
<asrwt>0</asrwt>
<pdfrwt beam="1">  1       21 0.15207393E-01 0.23944294E+03</pdfrwt>
<pdfrwt beam="2">  1        2 0.83441304E-01 0.23944294E+03</pdfrwt>
<totfact> 0.27063778E+04</totfact>
</mgrwt>
</event>
<event>
 5    0  0.2947253E-001  0.2527835E+03  0.7546771E-02  0.1111558E+00
          2   -1    0    0  502    0 -0.00000000000E+00  0.00000000000E+00  0.19079873630E+04  0.19079873630E+04  0.00000000000E+00 0.  1.
         21   -1    0    0  503  502  0.00000000000E+00 -0.00000000000E+00 -0.12767121463E+03  0.12767121463E+03  0.00000000000E+00 0. -1.
         25    1    1    2    0    0 -0.21409080097E+03 -0.49392750021E+02  0.12775979914E+02  0.25310618419E+03  0.12500000000E+03 0.  0.
         21    1    1    2  503  501  0.54220977081E+02  0.38146930060E+02  0.37440288760E+03  0.38022707015E+03  0.00000000000E+00 0. -1.
          2    1    1    2  501    0  0.15986982389E+03  0.11245819962E+02  0.13931372808E+04  0.14023253233E+04  0.00000000000E+00 0.  1.
<mgrwt>
<rscale>  4 0.25278353E+03</rscale>
<asrwt>0</asrwt>
<pdfrwt beam="1">  1       21 0.19641727E-01 0.25278353E+03</pdfrwt>
<pdfrwt beam="2">  1        2 0.29353650E+00 0.25278353E+03</pdfrwt>
<totfact> 0.24887958E+03</totfact>
</mgrwt>
</event>
<event>
 5    0  0.2947253E-001  0.2767540E+03  0.7546771E-02  0.1097475E+00
         21   -1    0    0  503  502  0.00000000000E+00  0.00000000000E+00  0.30990369567E+03  0.30990369567E+03  0.00000000000E+00 0. -1.
          2   -1    0    0  502    0 -0.00000000000E+00 -0.00000000000E+00 -0.31813899606E+03  0.31813899606E+03  0.00000000000E+00 0. -1.
         25    1    1    2    0    0  0.17594645936E+03 -0.17831739901E+03  0.14950505988E+03  0.31738149644E+03  0.12500000000E+03 0.  0.
         21    1    1    2  503  501  0.75921101496E+01  0.25007731201E+02 -0.29098296642E+02  0.39111860398E+02  0.00000000000E+00 0.  1.
          2    1    1    2  501    0 -0.18353856951E+03  0.15330966781E+03 -0.12864206364E+03  0.27154933489E+03  0.00000000000E+00 0. -1.
<mgrwt>
<rscale>  4 0.27675399E+03</rscale>
<asrwt>0</asrwt>
<pdfrwt beam="1">  1       21 0.47677491E-01 0.27675399E+03</pdfrwt>
<pdfrwt beam="2">  1        2 0.48944461E-01 0.27675399E+03</pdfrwt>
<totfact> 0.52380388E+03</totfact>
</mgrwt>
</event>
<event>
 5    0  0.2947253E-001  0.5103728E+03  0.7546771E-02  0.1011137E+00
         21   -1    0    0  503  502  0.00000000000E+00  0.00000000000E+00  0.75133944558E+03  0.75133944558E+03  0.00000000000E+00 0.  1.
          2   -1    0    0  502    0 -0.00000000000E+00 -0.00000000000E+00 -0.34864263590E+03  0.34864263590E+03  0.00000000000E+00 0.  1.
         25    1    1    2    0    0  0.35049893483E+03  0.34859214646E+03  0.15677403382E+03  0.53345017159E+03  0.12500000000E+03 0.  0.
         21    1    1    2  503  501 -0.23696411621E+03 -0.18799057509E+03  0.90115311308E+02  0.31561561752E+03  0.00000000000E+00 0.  1.
          2    1    1    2  501    0 -0.11353481863E+03 -0.16060157137E+03  0.15580746455E+03  0.25091629237E+03  0.00000000000E+00 0.  1.
<mgrwt>
<rscale>  4 0.51025290E+03</rscale>
<asrwt>0</asrwt>
<pdfrwt beam="1">  1       21 0.11559068E+00 0.51037280E+03</pdfrwt>
<pdfrwt beam="2">  1        2 0.53637329E-01 0.51037280E+03</pdfrwt>
<totfact> 0.59630146E+02</totfact>
</mgrwt>
</event>
<event>
 5    0  0.2947253E-001  0.3596466E+03  0.7546771E-02  0.1058724E+00
          1   -1    0    0  502    0 -0.00000000000E+00  0.00000000000E+00  0.89801262253E+02  0.89801262253E+02  0.00000000000E+00 0. -1.
         21   -1    0    0  503  502  0.00000000000E+00 -0.00000000000E+00 -0.19757415394E+04  0.19757415394E+04  0.00000000000E+00 0. -1.
         25    1    1    2    0    0 -0.31593992300E+03  0.11790946514E+03 -0.14829602672E+04  0.15259478467E+04  0.12500000000E+03 0.  0.
         21    1    1    2  503  501  0.35548895548E+02 -0.51498877359E+02 -0.33314094750E+02  0.70892081736E+02  0.00000000000E+00 0.  1.
          1    1    1    2  501    0  0.28039102746E+03 -0.66410587779E+02 -0.36966591517E+03  0.46870287314E+03  0.00000000000E+00 0. -1.
<mgrwt>
<rscale>  4 0.35964660E+03</rscale>
<asrwt>0</asrwt>
<pdfrwt beam="1">  1       21 0.30396022E+00 0.35964660E+03</pdfrwt>
<pdfrwt beam="2">  1        1 0.13815580E-01 0.35964660E+03</pdfrwt>
<totfact> 0.12624447E+02</totfact>
</mgrwt>
</event>
<event>
 5    0  0.2947253E-001  0.2396059E+03  0.7546771E-02  0.1120056E+00
          1   -1    0    0  502    0 -0.00000000000E+00  0.00000000000E+00  0.74857547949E+03  0.74857547949E+03  0.00000000000E+00 0. -1.
         21   -1    0    0  503  502  0.00000000000E+00 -0.00000000000E+00 -0.75790243007E+02  0.75790243007E+02  0.00000000000E+00 0. -1.
         25    1    1    2    0    0 -0.19124456626E+03  0.72190747928E+02  0.24300022630E+03  0.34126250628E+03  0.12500000000E+03 0.  0.
         21    1    1    2  503  501  0.64588818335E+02 -0.77209897543E+01  0.66575366916E+02  0.93078507813E+02  0.00000000000E+00 0. -1.
          1    1    1    2  501    0  0.12665574793E+03 -0.64469758174E+02  0.36320964327E+03  0.39002470840E+03  0.00000000000E+00 0. -1.
<mgrwt>
<rscale>  4 0.23960590E+03</rscale>
<asrwt>0</asrwt>
<pdfrwt beam="1">  1       21 0.11660038E-01 0.23960590E+03</pdfrwt>
<pdfrwt beam="2">  1        1 0.11516545E+00 0.23960590E+03</pdfrwt>
<totfact> 0.17424360E+04</totfact>
</mgrwt>
</event>
<event>
 5    0  0.2947253E-001  0.2902897E+03  0.7546771E-02  0.1090198E+00
          2   -1    0    0  502    0 -0.00000000000E+00  0.00000000000E+00  0.43418610988E+04  0.43418610988E+04  0.00000000000E+00 0. -1.
         21   -1    0    0  503  502  0.00000000000E+00 -0.00000000000E+00 -0.58252785036E+02  0.58252785036E+02  0.00000000000E+00 0. -1.
         25    1    1    2    0    0  0.16947091461E+03 -0.19617733538E+03  0.37021035184E+03  0.46892072083E+03  0.12500000000E+03 0.  0.
         21    1    1    2  503  501 -0.13431451324E+03  0.25016331291E+03  0.24536701072E+04  0.24700443451E+04  0.00000000000E+00 0. -1.
          2    1    1    2  501    0 -0.35156401370E+02 -0.53985977530E+02  0.14597278547E+04  0.14611488179E+04  0.00000000000E+00 0. -1.
<mgrwt>
<rscale>  4 0.29028971E+03</rscale>
<asrwt>0</asrwt>
<pdfrwt beam="1">  1       21 0.89619703E-02 0.29028971E+03</pdfrwt>
<pdfrwt beam="2">  1        2 0.66797838E+00 0.29028971E+03</pdfrwt>
<totfact> 0.28810198E+02</totfact>
</mgrwt>
</event>
<event>
 5    0  0.2947253E-001  0.2329569E+03  0.7546771E-02  0.1124576E+00
         -3   -1    0    0    0  501 -0.00000000000E+00  0.00000000000E+00  0.84647117758E+02  0.84647117758E+02  0.00000000000E+00 0. -1.
         21   -1    0    0  501  502  0.00000000000E+00 -0.00000000000E+00 -0.73542593767E+03  0.73542593767E+03  0.00000000000E+00 0.  1.
         25    1    1    2    0    0 -0.80129774846E+02 -0.18757501570E+03 -0.50419099047E+03  0.55806695136E+03  0.12500000000E+03 0.  0.
         21    1    1    2  501  501  0.14861969557E+02  0.14709303141E+02  0.66640661277E+01  0.21946560445E+02  0.00000000000E+00 0.  1.
         -3    1    1    2    0  502  0.65267805289E+02  0.17286571256E+03 -0.15325189556E+03  0.24005954362E+03  0.00000000000E+00 0. -1.
<mgrwt>
<rscale>  4 0.23295693E+03</rscale>
<asrwt>0</asrwt>
<pdfrwt beam="1">  1       21 0.11314245E+00 0.23295693E+03</pdfrwt>
<pdfrwt beam="2">  1       -3 0.13022633E-01 0.23295693E+03</pdfrwt>
<totfact> 0.14124713E+03</totfact>
</mgrwt>
</event>
<event>
 5    0  0.2947253E-001  0.2504399E+03  0.7546771E-02  0.1113027E+00
         21   -1    0    0  503  502  0.00000000000E+00  0.00000000000E+00  0.21908618798E+03  0.21908618798E+03  0.00000000000E+00 0. -1.
          2   -1    0    0  502    0 -0.00000000000E+00 -0.00000000000E+00 -0.42471403401E+03  0.42471403401E+03  0.00000000000E+00 0.  1.
         25    1    1    2    0    0  0.37834330092E+02 -0.21569274981E+03  0.83903020058E+02  0.26574332660E+03  0.12500000000E+03 0.  0.
         21    1    1    2  503  501 -0.26434608426E+02  0.45854012744E+01 -0.12573498955E+02  0.29629500560E+02  0.00000000000E+00 0. -1.
          2    1    1    2  501    0 -0.11399721666E+02  0.21110734854E+03 -0.27695736713E+03  0.34842739483E+03  0.00000000000E+00 0.  1.
<mgrwt>
<rscale>  4 0.25043989E+03</rscale>
<asrwt>0</asrwt>
<pdfrwt beam="1">  1       21 0.33705568E-01 0.25043989E+03</pdfrwt>
<pdfrwt beam="2">  1        2 0.65340620E-01 0.25043989E+03</pdfrwt>
<totfact> 0.77966702E+03</totfact>
</mgrwt>
</event>
<event>
 5    0  0.2947253E-001  0.2369218E+03  0.7546771E-02  0.1121861E+00
         21   -1    0    0  503  502  0.00000000000E+00  0.00000000000E+00  0.68881924144E+02  0.68881924144E+02  0.00000000000E+00 0.  1.
          2   -1    0    0  502    0 -0.00000000000E+00 -0.00000000000E+00 -0.99813389425E+03  0.99813389425E+03  0.00000000000E+00 0.  1.
         25    1    1    2    0    0 -0.36523180026E+02  0.19792166419E+03 -0.20663303623E+03  0.31437102203E+03  0.12500000000E+03 0.  0.
         21    1    1    2  503  501  0.16708716982E+02 -0.77038317749E+02 -0.18229075852E+03  0.19860514663E+03  0.00000000000E+00 0.  1.
          2    1    1    2  501    0  0.19814463044E+02 -0.12088334644E+03 -0.54032817535E+03  0.55403964973E+03  0.00000000000E+00 0.  1.
<mgrwt>
<rscale>  4 0.23692178E+03</rscale>
<asrwt>0</asrwt>
<pdfrwt beam="1">  1       21 0.10597218E-01 0.23692178E+03</pdfrwt>
<pdfrwt beam="2">  1        2 0.15355907E+00 0.23692178E+03</pdfrwt>
<totfact> 0.24302387E+04</totfact>
</mgrwt>
</event>
<event>
 5    0  0.2947253E-001  0.2898491E+03  0.7546771E-02  0.1090428E+00
         21   -1    0    0  503  502  0.00000000000E+00  0.00000000000E+00  0.18569275218E+03  0.18569275218E+03  0.00000000000E+00 0.  1.
          2   -1    0    0  502    0 -0.00000000000E+00 -0.00000000000E+00 -0.17020540300E+04  0.17020540300E+04  0.00000000000E+00 0. -1.
         25    1    1    2    0    0 -0.81143671094E+02 -0.26657065671E+03  0.22798614721E+02  0.30624987708E+03  0.12500000000E+03 0.  0.
         21    1    1    2  503  501 -0.75948779217E+02  0.14563057742E+03 -0.75563868031E+03  0.77328280553E+03  0.00000000000E+00 0. -1.
          2    1    1    2  501    0  0.15709245031E+03  0.12094007929E+03 -0.78352121222E+03  0.80821409956E+03  0.00000000000E+00 0. -1.
<mgrwt>
<rscale>  4 0.28984906E+03</rscale>
<asrwt>0</asrwt>
<pdfrwt beam="1">  1       21 0.28568115E-01 0.28984906E+03</pdfrwt>
<pdfrwt beam="2">  1        2 0.26185447E+00 0.28984906E+03</pdfrwt>
<totfact> 0.15335869E+03</totfact>
</mgrwt>
</event>
<event>
 5    0  0.2947253E-001  0.2346078E+03  0.7546771E-02  0.1123438E+00
         21   -1    0    0  503  502  0.00000000000E+00  0.00000000000E+00  0.86222189277E+02  0.86222189277E+02  0.00000000000E+00 0. -1.
          2   -1    0    0  502    0 -0.00000000000E+00 -0.00000000000E+00 -0.10118330960E+04  0.10118330960E+04  0.00000000000E+00 0.  1.
         25    1    1    2    0    0  0.20293616078E+03  0.48664575327E+02 -0.18476744794E+03  0.30547558996E+03  0.12500000000E+03 0.  0.
         21    1    1    2  503  501 -0.17281565111E+02 -0.89662399631E+02 -0.22583866709E+03  0.24360029137E+03  0.00000000000E+00 0. -1.
          2    1    1    2  501    0 -0.18565459567E+03  0.40997824304E+02 -0.51500479169E+03  0.54897940395E+03  0.00000000000E+00 0.  1.
<mgrwt>
<rscale>  4 0.23460781E+03</rscale>
<asrwt>0</asrwt>
<pdfrwt beam="1">  1       21 0.13264953E-01 0.23460781E+03</pdfrwt>
<pdfrwt beam="2">  1        2 0.15566662E+00 0.23460781E+03</pdfrwt>
<totfact> 0.15935001E+04</totfact>
</mgrwt>
</event>
<event>
 5    0  0.2947253E-001  0.2969894E+03  0.7546771E-02  0.1086755E+00
         21   -1    0    0  503  502  0.00000000000E+00  0.00000000000E+00  0.14161445971E+03  0.14161445971E+03  0.00000000000E+00 0. -1.
          1   -1    0    0  502    0 -0.00000000000E+00 -0.00000000000E+00 -0.61663713319E+03  0.61663713319E+03  0.00000000000E+00 0. -1.
         25    1    1    2    0    0 -0.21937458184E+03 -0.15637297646E+03 -0.17135381972E+03  0.34287730526E+03  0.12500000000E+03 0.  0.
         21    1    1    2  503  501  0.12447329817E+02  0.47907729299E+02 -0.46268231513E+02  0.67755706723E+02  0.00000000000E+00 0.  1.
          1    1    1    2  501    0  0.20692725202E+03  0.10846524716E+03 -0.25740062224E+03  0.34761858092E+03  0.00000000000E+00 0. -1.
<mgrwt>
<rscale>  4 0.29698942E+03</rscale>
<asrwt>0</asrwt>
<pdfrwt beam="1">  1       21 0.21786840E-01 0.29698942E+03</pdfrwt>
<pdfrwt beam="2">  1        1 0.94867250E-01 0.29698942E+03</pdfrwt>
<totfact> 0.72040980E+03</totfact>
</mgrwt>
</event>
<event>
 5    0  0.2947253E-001  0.2352334E+03  0.7546771E-02  0.1123010E+00
         -4   -1    0    0    0  501 -0.00000000000E+00  0.00000000000E+00  0.32234520569E+03  0.32234520569E+03  0.00000000000E+00 0.  1.
         21   -1    0    0  501  502  0.00000000000E+00 -0.00000000000E+00 -0.32707918060E+03  0.32707918060E+03  0.00000000000E+00 0. -1.
         25    1    1    2    0    0  0.19660094035E+03  0.95338904237E+02 -0.18325923388E+03  0.31136856490E+03  0.12500000000E+03 0.  0.
         21    1    1    2  501  501 -0.28511613366E+02 -0.11273923619E+03  0.54421680332E+02  0.12839301680E+03  0.00000000000E+00 0.  1.
         -4    1    1    2    0  502 -0.16808932698E+03  0.17400331955E+02  0.12410357864E+03  0.20966280459E+03  0.00000000000E+00 0.  1.
<mgrwt>
<rscale>  4 0.23523339E+03</rscale>
<asrwt>0</asrwt>
<pdfrwt beam="1">  1       21 0.50319874E-01 0.23523339E+03</pdfrwt>
<pdfrwt beam="2">  1       -4 0.49591570E-01 0.23523339E+03</pdfrwt>
<totfact> 0.62221602E+02</totfact>
</mgrwt>
</event>
<event>
 5    0  0.2947253E-001  0.2473264E+03  0.7546771E-02  0.1115006E+00
         21   -1    0    0  503  502  0.00000000000E+00  0.00000000000E+00  0.76474070983E+03  0.76474070983E+03  0.00000000000E+00 0.  1.
          1   -1    0    0  502    0 -0.00000000000E+00 -0.00000000000E+00 -0.65062263333E+03  0.65062263333E+03  0.00000000000E+00 0.  1.
         25    1    1    2    0    0 -0.15317187406E+03  0.14922287238E+03  0.71635079100E+03  0.75796605755E+03  0.12500000000E+03 0.  0.
         21    1    1    2  503  501  0.24875584300E+02  0.66567133421E+01 -0.40535106597E+01  0.26067939609E+02  0.00000000000E+00 0.  1.
          1    1    1    2  501    0  0.12829628976E+03 -0.15587958572E+03 -0.59817920384E+03  0.63132934599E+03  0.00000000000E+00 0.  1.
<mgrwt>
<rscale>  4 0.24732641E+03</rscale>
<asrwt>0</asrwt>
<pdfrwt beam="1">  1       21 0.11765242E+00 0.24732641E+03</pdfrwt>
<pdfrwt beam="2">  1        1 0.10009579E+00 0.24732641E+03</pdfrwt>
<totfact> 0.18604070E+02</totfact>
</mgrwt>
</event>
<event>
 5    0  0.2947253E-001  0.2549448E+03  0.7546771E-02  0.1110219E+00
          2   -1    0    0  502    0 -0.00000000000E+00  0.00000000000E+00  0.15285914221E+04  0.15285914221E+04  0.00000000000E+00 0. -1.
         21   -1    0    0  503  502  0.00000000000E+00 -0.00000000000E+00 -0.69706065230E+03  0.69706065230E+03  0.00000000000E+00 0.  1.
         25    1    1    2    0    0  0.20642924447E+03 -0.82212040377E+02 -0.66465098052E+03  0.71186921444E+03  0.12500000000E+03 0.  0.
         21    1    1    2  503  501 -0.22774093723E+02 -0.26464233294E+01  0.79908043630E+02  0.83132173905E+02  0.00000000000E+00 0.  1.
          2    1    1    2  501    0 -0.18365515075E+03  0.84858463707E+02  0.14162737067E+04  0.14306506861E+04  0.00000000000E+00 0. -1.
<mgrwt>
<rscale>  4 0.25494480E+03</rscale>
<asrwt>0</asrwt>
<pdfrwt beam="1">  1       21 0.10724010E+00 0.25494480E+03</pdfrwt>
<pdfrwt beam="2">  1        2 0.23516791E+00 0.25494480E+03</pdfrwt>
<totfact> 0.11171530E+02</totfact>
</mgrwt>
</event>
<event>
 5    0  0.2947253E-001  0.2742270E+03  0.7546771E-02  0.1098884E+00
          2   -1    0    0  502    0 -0.00000000000E+00  0.00000000000E+00  0.14781096449E+04  0.14781096449E+04  0.00000000000E+00 0. -1.
         21   -1    0    0  503  502  0.00000000000E+00 -0.00000000000E+00 -0.64317023893E+02  0.64317023893E+02  0.00000000000E+00 0.  1.
         25    1    1    2    0    0  0.80804895830E+02 -0.23031723100E+03  0.35383475936E+03  0.44766002169E+03  0.12500000000E+03 0.  0.
         21    1    1    2  503  501 -0.68378736868E+02  0.21442477491E+03  0.10467069843E+04  0.10706302568E+04  0.00000000000E+00 0. -1.
          2    1    1    2  501    0 -0.12426158963E+02  0.15892456090E+02  0.13250877332E+02  0.24136390310E+02  0.00000000000E+00 0. -1.
<mgrwt>
<rscale>  4 0.27422702E+03</rscale>
<asrwt>0</asrwt>
<pdfrwt beam="1">  1       21 0.98949279E-02 0.27422702E+03</pdfrwt>
<pdfrwt beam="2">  1        2 0.22740146E+00 0.27422702E+03</pdfrwt>
<totfact> 0.14561169E+04</totfact>
</mgrwt>
</event>
<event>
 5    0  0.2947253E-001  0.3120995E+03  0.7546771E-02  0.1079344E+00
          2   -1    0    0  502    0 -0.00000000000E+00  0.00000000000E+00  0.30369434333E+04  0.30369434333E+04  0.00000000000E+00 0.  1.
         21   -1    0    0  503  502  0.00000000000E+00 -0.00000000000E+00 -0.83350899272E+02  0.83350899272E+02  0.00000000000E+00 0. -1.
         25    1    1    2    0    0 -0.29319218527E+03 -0.82235875875E+01  0.26937647393E+03  0.41739426158E+03  0.12500000000E+03 0.  0.
         21    1    1    2  503  501  0.59359432082E+02  0.12028420508E+02  0.24010772743E+03  0.24762864505E+03  0.00000000000E+00 0.  1.
          2    1    1    2  501    0  0.23383275319E+03 -0.38048329203E+01  0.24441083326E+04  0.24552714259E+04  0.00000000000E+00 0.  1.
<mgrwt>
<rscale>  4 0.31209954E+03</rscale>
<asrwt>0</asrwt>
<pdfrwt beam="1">  1       21 0.12823218E-01 0.31209954E+03</pdfrwt>
<pdfrwt beam="2">  1        2 0.46722198E+00 0.31209954E+03</pdfrwt>
<totfact> 0.12667067E+03</totfact>
</mgrwt>
</event>
<event>
 5    0  0.2947253E-001  0.3474703E+03  0.7546771E-02  0.1063658E+00
          2   -1    0    0  502    0 -0.00000000000E+00  0.00000000000E+00  0.32847774166E+04  0.32847774166E+04  0.00000000000E+00 0.  1.
         21   -1    0    0  503  502  0.00000000000E+00 -0.00000000000E+00 -0.63545340019E+02  0.63545340019E+02  0.00000000000E+00 0.  1.
         25    1    1    2    0    0  0.19949125461E+03  0.29227098022E+03  0.67888476933E+03  0.77571168392E+03  0.12500000000E+03 0.  0.
         21    1    1    2  503  501  0.49042293237E+01 -0.48484673057E+02  0.12085716507E+03  0.13031219949E+03  0.00000000000E+00 0. -1.
          2    1    1    2  501    0 -0.20439548393E+03 -0.24378630716E+03  0.24214901422E+04  0.24422988732E+04  0.00000000000E+00 0.  1.
<mgrwt>
<rscale>  4 0.34747033E+03</rscale>
<asrwt>0</asrwt>
<pdfrwt beam="1">  1       21 0.97762087E-02 0.34747033E+03</pdfrwt>
<pdfrwt beam="2">  1        2 0.50535024E+00 0.34747033E+03</pdfrwt>
<totfact> 0.14299365E+03</totfact>
</mgrwt>
</event>
<event>
 5    0  0.2947253E-001  0.5337665E+03  0.7546771E-02  0.1005875E+00
         21   -1    0    0  503  502  0.00000000000E+00  0.00000000000E+00  0.86611592305E+03  0.86611592305E+03  0.00000000000E+00 0.  1.
          2   -1    0    0  502    0 -0.00000000000E+00 -0.00000000000E+00 -0.96941438319E+03  0.96941438319E+03  0.00000000000E+00 0.  1.
         25    1    1    2    0    0  0.50622578333E+03  0.58063892633E+02  0.69771613378E+03  0.87296549913E+03  0.12500000000E+03 0.  0.
         21    1    1    2  503  501 -0.15033098047E+03 -0.70681008770E+02 -0.16804463156E+03  0.23629262978E+03  0.00000000000E+00 0. -1.
          2    1    1    2  501    0 -0.35589480285E+03  0.12617116137E+02 -0.63296996236E+03  0.72627217733E+03  0.00000000000E+00 0.  1.
<mgrwt>
<rscale>  4 0.53147340E+03</rscale>
<asrwt>0</asrwt>
<pdfrwt beam="1">  1       21 0.13324860E+00 0.53376645E+03</pdfrwt>
<pdfrwt beam="2">  1        2 0.14914067E+00 0.53376645E+03</pdfrwt>
<totfact> 0.11904640E+02</totfact>
</mgrwt>
</event>
<event>
 5    0  0.2947253E-001  0.2445872E+03  0.7546771E-02  0.1116774E+00
          2   -1    0    0  502    0 -0.00000000000E+00  0.00000000000E+00  0.79036960859E+03  0.79036960859E+03  0.00000000000E+00 0. -1.
         21   -1    0    0  503  502  0.00000000000E+00 -0.00000000000E+00 -0.29765553051E+03  0.29765553051E+03  0.00000000000E+00 0. -1.
         25    1    1    2    0    0  0.51117626759E+01 -0.21017086513E+03 -0.22552359672E+03  0.33269177228E+03  0.12500000000E+03 0.  0.
         21    1    1    2  503  501 -0.44045275585E+02  0.46487064915E+02  0.16170229233E+03  0.17392143299E+03  0.00000000000E+00 0. -1.
          2    1    1    2  501    0  0.38933512910E+02  0.16368380022E+03  0.55653538245E+03  0.58141193383E+03  0.00000000000E+00 0. -1.
<mgrwt>
<rscale>  4 0.24458725E+03</rscale>
<asrwt>0</asrwt>
<pdfrwt beam="1">  1       21 0.45793159E-01 0.24458725E+03</pdfrwt>
<pdfrwt beam="2">  1        2 0.12159532E+00 0.24458725E+03</pdfrwt>
<totfact> 0.20359516E+03</totfact>
</mgrwt>
</event>
<event>
 5    0  0.2947253E-001  0.2671713E+03  0.7546771E-02  0.1102910E+00
         21   -1    0    0  503  502  0.00000000000E+00  0.00000000000E+00  0.32618362797E+02  0.32618362797E+02  0.00000000000E+00 0.  1.
          1   -1    0    0  502    0 -0.00000000000E+00 -0.00000000000E+00 -0.24424843840E+04  0.24424843840E+04  0.00000000000E+00 0. -1.
         25    1    1    2    0    0  0.23588270221E+03 -0.10716431052E+02 -0.71655749958E+03  0.76474514795E+03  0.12500000000E+03 0.  0.
         21    1    1    2  503  501 -0.13340398231E+03  0.26022757411E+02 -0.10494371829E+04  0.10582023470E+04  0.00000000000E+00 0. -1.
          1    1    1    2  501    0 -0.10247871990E+03 -0.15306326359E+02 -0.64387133878E+03  0.65215525189E+03  0.00000000000E+00 0. -1.
<mgrwt>
<rscale>  4 0.26717128E+03</rscale>
<asrwt>0</asrwt>
<pdfrwt beam="1">  1       21 0.50182088E-02 0.26717128E+03</pdfrwt>
<pdfrwt beam="2">  1        1 0.37576689E+00 0.26717128E+03</pdfrwt>
<totfact> 0.51683012E+03</totfact>
</mgrwt>
</event>
<event>
 5    0  0.2947253E-001  0.3970442E+03  0.7546771E-02  0.1044808E+00
         21   -1    0    0  503  502  0.00000000000E+00  0.00000000000E+00  0.58298183943E+03  0.58298183943E+03  0.00000000000E+00 0. -1.
          2   -1    0    0  502    0 -0.00000000000E+00 -0.00000000000E+00 -0.27293016987E+04  0.27293016987E+04  0.00000000000E+00 0.  1.
         25    1    1    2    0    0 -0.34449953869E+03  0.15042378398E+03  0.48341930585E+03  0.62500117777E+03  0.12500000000E+03 0.  0.
         21    1    1    2  503  501 -0.65484578424E+02 -0.66148438134E+02 -0.18635353041E+03  0.20830622693E+03  0.00000000000E+00 0.  1.
          2    1    1    2  501    0  0.40998411712E+03 -0.84275345842E+02 -0.24433856347E+04  0.24789761334E+04  0.00000000000E+00 0.  1.
<mgrwt>
<rscale>  4 0.39704419E+03</rscale>
<asrwt>0</asrwt>
<pdfrwt beam="1">  1       21 0.89689512E-01 0.39704419E+03</pdfrwt>
<pdfrwt beam="2">  1        2 0.41989258E+00 0.39704419E+03</pdfrwt>
<totfact> 0.35247781E+01</totfact>
</mgrwt>
</event>
<event>
 5    0  0.2947253E-001  0.2946905E+03  0.7546771E-02  0.1087925E+00
         21   -1    0    0  503  502  0.00000000000E+00  0.00000000000E+00  0.15573082428E+03  0.15573082428E+03  0.00000000000E+00 0.  1.
          2   -1    0    0  502    0 -0.00000000000E+00 -0.00000000000E+00 -0.33865491888E+04  0.33865491888E+04  0.00000000000E+00 0.  1.
         25    1    1    2    0    0  0.22663370798E+03  0.14090655384E+03  0.54678509405E+01  0.29474122871E+03  0.12500000000E+03 0.  0.
         21    1    1    2  503  501 -0.36512270040E+02 -0.64475423401E+01 -0.40632088579E+03  0.40800904266E+03  0.00000000000E+00 0.  1.
          2    1    1    2  501    0 -0.19012143794E+03 -0.13445901150E+03 -0.28299653297E+04  0.28395297417E+04  0.00000000000E+00 0.  1.
<mgrwt>
<rscale>  4 0.29469051E+03</rscale>
<asrwt>0</asrwt>
<pdfrwt beam="1">  1       21 0.23958589E-01 0.29469051E+03</pdfrwt>
<pdfrwt beam="2">  1        2 0.52100754E+00 0.29469051E+03</pdfrwt>
<totfact> 0.24154600E+02</totfact>
</mgrwt>
</event>
<event>
 5    0  0.2947253E-001  0.6028244E+03  0.7546771E-02  0.9899564E-01
         21   -1    0    0  503  502  0.00000000000E+00  0.00000000000E+00  0.14978739484E+04  0.14978739484E+04  0.00000000000E+00 0. -1.
          2   -1    0    0  502    0 -0.00000000000E+00 -0.00000000000E+00 -0.15357089662E+04  0.15357089662E+04  0.00000000000E+00 0. -1.
         25    1    1    2    0    0  0.57453177608E+03 -0.16273090041E+03  0.12396954203E+04  0.13816793560E+04  0.12500000000E+03 0.  0.
         21    1    1    2  503  501 -0.22300745040E+03 -0.28429870501E+03 -0.15425957794E+03  0.39287923588E+03  0.00000000000E+00 0.  1.
          2    1    1    2  501    0 -0.35152432568E+03  0.44702960542E+03 -0.11232708602E+04  0.12590243226E+04  0.00000000000E+00 0. -1.
<mgrwt>
<rscale>  4 0.60282441E+03</rscale>
<asrwt>0</asrwt>
<pdfrwt beam="1">  1       21 0.23044215E+00 0.60282441E+03</pdfrwt>
<pdfrwt beam="2">  1        2 0.23626292E+00 0.60282441E+03</pdfrwt>
<totfact> 0.10831422E+01</totfact>
</mgrwt>
</event>
<event>
 5    0  0.2947253E-001  0.2510417E+03  0.7546771E-02  0.1112648E+00
         21   -1    0    0  503  502  0.00000000000E+00  0.00000000000E+00  0.33908983966E+03  0.33908983966E+03  0.00000000000E+00 0. -1.
          1   -1    0    0  502    0 -0.00000000000E+00 -0.00000000000E+00 -0.59236800212E+03  0.59236800212E+03  0.00000000000E+00 0. -1.
         25    1    1    2    0    0  0.15005136963E+03  0.16229658249E+03  0.25990129448E+03  0.36335833153E+03  0.12500000000E+03 0.  0.
         21    1    1    2  503  501 -0.47383339624E+02  0.30722205164E+01 -0.12818514962E+03  0.13669693484E+03  0.00000000000E+00 0. -1.
          1    1    1    2  501    0 -0.10266803001E+03 -0.16536880301E+03 -0.38499430733E+03  0.43140257541E+03  0.00000000000E+00 0. -1.
<mgrwt>
<rscale>  4 0.25104173E+03</rscale>
<asrwt>0</asrwt>
<pdfrwt beam="1">  1       21 0.52167668E-01 0.25104173E+03</pdfrwt>
<pdfrwt beam="2">  1        1 0.91133538E-01 0.25104173E+03</pdfrwt>
<totfact> 0.13496850E+03</totfact>
</mgrwt>
</event>
<event>
 5    0  0.2947253E-001  0.2940307E+03  0.7546771E-02  0.1088649E+00
         21   -1    0    0  503  502  0.00000000000E+00  0.00000000000E+00  0.37905421591E+03  0.37905421591E+03  0.00000000000E+00 0. -1.
          1   -1    0    0  502    0 -0.00000000000E+00 -0.00000000000E+00 -0.30842055041E+03  0.30842055041E+03  0.00000000000E+00 0. -1.
         25    1    1    2    0    0  0.19944393080E+03  0.17117733802E+03  0.21313047433E+03  0.36073419809E+03  0.12500000000E+03 0.  0.
         21    1    1    2  503  501 -0.12722998165E+03 -0.71498307322E+02 -0.10594860754E+02  0.14632746582E+03  0.00000000000E+00 0. -1.
          1    1    1    2  501    0 -0.72213949150E+02 -0.99679030700E+02 -0.13190194807E+03  0.18041310240E+03  0.00000000000E+00 0. -1.
<mgrwt>
<rscale>  4 0.29328029E+03</rscale>
<asrwt>0</asrwt>
<pdfrwt beam="1">  1       21 0.58316033E-01 0.29403071E+03</pdfrwt>
<pdfrwt beam="2">  1        1 0.47449316E-01 0.29403071E+03</pdfrwt>
<totfact> 0.24662638E+03</totfact>
</mgrwt>
</event>
<event>
 5    0  0.2947253E-001  0.6638466E+03  0.7546771E-02  0.9781138E-01
         21   -1    0    0  503  502  0.00000000000E+00  0.00000000000E+00  0.67853401106E+03  0.67853401106E+03  0.00000000000E+00 0. -1.
          2   -1    0    0  502    0 -0.00000000000E+00 -0.00000000000E+00 -0.78577980294E+03  0.78577980294E+03  0.00000000000E+00 0. -1.
         25    1    1    2    0    0 -0.60897927159E+03  0.23283366135E+03  0.25754886942E+03  0.71205595793E+03  0.12500000000E+03 0.  0.
         21    1    1    2  503  501  0.32984147159E+02 -0.36848195576E+02 -0.26396604821E+02  0.56058221762E+02  0.00000000000E+00 0. -1.
          2    1    1    2  501    0  0.57599512443E+03 -0.19598546578E+03 -0.33839805649E+03  0.69619963430E+03  0.00000000000E+00 0. -1.
<mgrwt>
<rscale>  4 0.66384657E+03</rscale>
<asrwt>0</asrwt>
<pdfrwt beam="1">  1       21 0.10438985E+00 0.66384657E+03</pdfrwt>
<pdfrwt beam="2">  1        2 0.12088920E+00 0.66384657E+03</pdfrwt>
<totfact> 0.28604950E+02</totfact>
</mgrwt>
</event>
<event>
 5    0  0.2947253E-001  0.4533150E+03  0.7546771E-02  0.1026738E+00
         21   -1    0    0  503  502  0.00000000000E+00  0.00000000000E+00  0.17838181627E+03  0.17838181627E+03  0.00000000000E+00 0.  1.
          2   -1    0    0  502    0 -0.00000000000E+00 -0.00000000000E+00 -0.11258921672E+04  0.11258921672E+04  0.00000000000E+00 0.  1.
         25    1    1    2    0    0  0.14409520073E+03  0.41122512276E+03 -0.46956350288E+03  0.65267481313E+03  0.12500000000E+03 0.  0.
         21    1    1    2  503  501  0.58935626999E+01 -0.41766877827E+02 -0.29258469592E+02  0.51334824511E+02  0.00000000000E+00 0.  1.
          2    1    1    2  501    0 -0.14998876343E+03 -0.36945824493E+03 -0.44868837846E+03  0.60026434582E+03  0.00000000000E+00 0.  1.
<mgrwt>
<rscale>  4 0.45331504E+03</rscale>
<asrwt>0</asrwt>
<pdfrwt beam="1">  1       21 0.27443357E-01 0.45331504E+03</pdfrwt>
<pdfrwt beam="2">  1        2 0.17321418E+00 0.45331504E+03</pdfrwt>
<totfact> 0.32988334E+03</totfact>
</mgrwt>
</event>
<event>
 5    0  0.2947253E-001  0.3319360E+03  0.7546771E-02  0.1070283E+00
          1   -1    0    0  502    0 -0.00000000000E+00  0.00000000000E+00  0.16167756259E+03  0.16167756259E+03  0.00000000000E+00 0.  1.
         21   -1    0    0  503  502  0.00000000000E+00 -0.00000000000E+00 -0.73671804909E+03  0.73671804909E+03  0.00000000000E+00 0. -1.
         25    1    1    2    0    0 -0.63328406721E+02  0.30090868679E+03 -0.45183516050E+03  0.56065723677E+03  0.12500000000E+03 0.  0.
         21    1    1    2  503  501  0.50793107995E+02 -0.10193515094E+03 -0.59146866606E+02  0.12833186138E+03  0.00000000000E+00 0.  1.
          1    1    1    2  501    0  0.12535298726E+02 -0.19897353585E+03 -0.64058459398E+02  0.20940651352E+03  0.00000000000E+00 0.  1.
<mgrwt>
<rscale>  4 0.33193603E+03</rscale>
<asrwt>0</asrwt>
<pdfrwt beam="1">  1       21 0.11334124E+00 0.33193603E+03</pdfrwt>
<pdfrwt beam="2">  1        1 0.24873471E-01 0.33193603E+03</pdfrwt>
<totfact> 0.11988347E+03</totfact>
</mgrwt>
</event>
<event>
 5    0  0.2947253E-001  0.2246579E+03  0.7546771E-02  0.1130457E+00
         21   -1    0    0  503  502  0.00000000000E+00  0.00000000000E+00  0.33137818055E+03  0.33137818055E+03  0.00000000000E+00 0. -1.
          1   -1    0    0  502    0 -0.00000000000E+00 -0.00000000000E+00 -0.10200708198E+04  0.10200708198E+04  0.00000000000E+00 0. -1.
         25    1    1    2    0    0  0.17554533498E+03  0.10509054245E+03  0.26734736943E+03  0.35910973627E+03  0.12500000000E+03 0.  0.
         21    1    1    2  503  501 -0.81959465219E+02 -0.73084609210E+02 -0.18618260744E+03  0.21615429063E+03  0.00000000000E+00 0.  1.
          1    1    1    2  501    0 -0.93585869761E+02 -0.32005933244E+02 -0.76985740125E+03  0.77618497347E+03  0.00000000000E+00 0. -1.
<mgrwt>
<rscale>  4 0.22465789E+03</rscale>
<asrwt>0</asrwt>
<pdfrwt beam="1">  1       21 0.50981259E-01 0.22465789E+03</pdfrwt>
<pdfrwt beam="2">  1        1 0.15693397E+00 0.22465789E+03</pdfrwt>
<totfact> 0.62333960E+02</totfact>
</mgrwt>
</event>
<event>
 5    0  0.2947253E-001  0.2615285E+03  0.7546771E-02  0.1106228E+00
          1   -1    0    0  502    0 -0.00000000000E+00  0.00000000000E+00  0.50974954595E+03  0.50974954595E+03  0.00000000000E+00 0.  1.
         21   -1    0    0  503  502  0.00000000000E+00 -0.00000000000E+00 -0.16561721378E+03  0.16561721378E+03  0.00000000000E+00 0. -1.
         25    1    1    2    0    0  0.20785556926E+03 -0.10409137606E+03  0.51669583609E+02  0.26894924821E+03  0.12500000000E+03 0.  0.
         21    1    1    2  503  501 -0.32026007108E+02 -0.41992557715E+02  0.43450985495E+02  0.68388801534E+02  0.00000000000E+00 0.  1.
          1    1    1    2  501    0 -0.17582956215E+03  0.14608393377E+03  0.24901176307E+03  0.33802870999E+03  0.00000000000E+00 0.  1.
<mgrwt>
<rscale>  4 0.26152850E+03</rscale>
<asrwt>0</asrwt>
<pdfrwt beam="1">  1       21 0.25479572E-01 0.26152850E+03</pdfrwt>
<pdfrwt beam="2">  1        1 0.78423006E-01 0.26152850E+03</pdfrwt>
<totfact> 0.69836447E+03</totfact>
</mgrwt>
</event>
<event>
 5    0  0.2947253E-001  0.2325215E+03  0.7546771E-02  0.1124877E+00
          2   -1    0    0  502    0 -0.00000000000E+00  0.00000000000E+00  0.94968127501E+03  0.94968127501E+03  0.00000000000E+00 0.  1.
         21   -1    0    0  503  502  0.00000000000E+00 -0.00000000000E+00 -0.35098259767E+03  0.35098259767E+03  0.00000000000E+00 0. -1.
         25    1    1    2    0    0 -0.19775783541E+03 -0.32151238432E+02 -0.28210439418E+03  0.36789910684E+03  0.12500000000E+03 0.  0.
         21    1    1    2  503  501  0.90933484378E+02 -0.37916999497E+02  0.95751037722E+02  0.13738580224E+03  0.00000000000E+00 0. -1.
          2    1    1    2  501    0  0.10682435103E+03  0.70068237929E+02  0.78505203381E+03  0.79537896359E+03  0.00000000000E+00 0.  1.
<mgrwt>
<rscale>  4 0.23252151E+03</rscale>
<asrwt>0</asrwt>
<pdfrwt beam="1">  1       21 0.53997323E-01 0.23252151E+03</pdfrwt>
<pdfrwt beam="2">  1        2 0.14610481E+00 0.23252151E+03</pdfrwt>
<totfact> 0.11379707E+03</totfact>
</mgrwt>
</event>
<event>
 5    0  0.2947253E-001  0.2625961E+03  0.7546771E-02  0.1105593E+00
          2   -1    0    0  502    0 -0.00000000000E+00  0.00000000000E+00  0.10449899556E+04  0.10449899556E+04  0.00000000000E+00 0. -1.
         21   -1    0    0  503  502  0.00000000000E+00 -0.00000000000E+00 -0.11153070138E+03  0.11153070138E+03  0.00000000000E+00 0.  1.
         25    1    1    2    0    0  0.22760484841E+03  0.39086580115E+02  0.86711368758E+02  0.27654220154E+03  0.12500000000E+03 0.  0.
         21    1    1    2  503  501 -0.64380765506E+02 -0.39126152404E+02  0.23169203333E+03  0.24363279146E+03  0.00000000000E+00 0. -1.
          2    1    1    2  501    0 -0.16322408290E+03  0.39572288959E-01  0.61505585212E+03  0.63634566395E+03  0.00000000000E+00 0. -1.
<mgrwt>
<rscale>  4 0.26259613E+03</rscale>
<asrwt>0</asrwt>
<pdfrwt beam="1">  1       21 0.17158570E-01 0.26259613E+03</pdfrwt>
<pdfrwt beam="2">  1        2 0.16076768E+00 0.26259613E+03</pdfrwt>
<totfact> 0.94306759E+03</totfact>
</mgrwt>
</event>
<event>
 5    0  0.2947253E-001  0.2725747E+03  0.7546771E-02  0.1099815E+00
         21   -1    0    0  503  502  0.00000000000E+00  0.00000000000E+00  0.18774335273E+03  0.18774335273E+03  0.00000000000E+00 0.  1.
          2   -1    0    0  502    0 -0.00000000000E+00 -0.00000000000E+00 -0.71261353295E+03  0.71261353295E+03  0.00000000000E+00 0.  1.
         25    1    1    2    0    0 -0.87210186200E+02 -0.22597870503E+03  0.47999400410E+02  0.27676873765E+03  0.12500000000E+03 0.  0.
         21    1    1    2  503  501  0.35624981043E+02  0.41810487848E+02 -0.11887718912E+03  0.13095435182E+03  0.00000000000E+00 0. -1.
          2    1    1    2  501    0  0.51585205157E+02  0.18416821718E+03 -0.45399239152E+03  0.49263379621E+03  0.00000000000E+00 0.  1.
<mgrwt>
<rscale>  4 0.27257475E+03</rscale>
<asrwt>0</asrwt>
<pdfrwt beam="1">  1       21 0.28883593E-01 0.27257475E+03</pdfrwt>
<pdfrwt beam="2">  1        2 0.10963285E+00 0.27257475E+03</pdfrwt>
<totfact> 0.57994889E+03</totfact>
</mgrwt>
</event>
<event>
 5    0  0.2947253E-001  0.2922597E+03  0.7546771E-02  0.1089175E+00
         21   -1    0    0  501  502  0.00000000000E+00  0.00000000000E+00  0.62097698754E+03  0.62097698754E+03  0.00000000000E+00 0.  1.
         -1   -1    0    0    0  501 -0.00000000000E+00 -0.00000000000E+00 -0.15424575668E+03  0.15424575668E+03  0.00000000000E+00 0.  1.
         25    1    1    2    0    0 -0.23981175322E+03 -0.11081988569E+03  0.38994532939E+03  0.48731210118E+03  0.12500000000E+03 0.  0.
         21    1    1    2  501  501  0.50676238066E+02  0.22231010925E+02  0.54836314256E+02  0.77905842608E+02  0.00000000000E+00 0.  1.
         -1    1    1    2    0  502  0.18913551516E+03  0.88588874764E+02  0.21949587215E+02  0.21000480043E+03  0.00000000000E+00 0.  1.
<mgrwt>
<rscale>  4 0.29225969E+03</rscale>
<asrwt>0</asrwt>
<pdfrwt beam="1">  1       21 0.95534919E-01 0.29225969E+03</pdfrwt>
<pdfrwt beam="2">  1       -1 0.23730117E-01 0.29225969E+03</pdfrwt>
<totfact> 0.12208386E+03</totfact>
</mgrwt>
</event>
<event>
 5    0  0.2947253E-001  0.2787575E+03  0.7546771E-02  0.1096369E+00
          2   -1    0    0  502    0 -0.00000000000E+00  0.00000000000E+00  0.16111788898E+04  0.16111788898E+04  0.00000000000E+00 0. -1.
         21   -1    0    0  503  502  0.00000000000E+00 -0.00000000000E+00 -0.88551023179E+02  0.88551023179E+02  0.00000000000E+00 0. -1.
         25    1    1    2    0    0  0.28413878985E+03  0.11720054394E+02  0.31716730856E+03  0.44395080042E+03  0.12500000000E+03 0.  0.
         21    1    1    2  503  501 -0.11728085836E+03  0.95266558766E+02  0.44701398175E+03  0.47186016661E+03  0.00000000000E+00 0. -1.
          2    1    1    2  501    0 -0.16685793149E+03 -0.10698661316E+03  0.75844657628E+03  0.78391894592E+03  0.00000000000E+00 0. -1.
<mgrwt>
<rscale>  4 0.27875752E+03</rscale>
<asrwt>0</asrwt>
<pdfrwt beam="1">  1       21 0.13623236E-01 0.27875752E+03</pdfrwt>
<pdfrwt beam="2">  1        2 0.24787365E+00 0.27875752E+03</pdfrwt>
<totfact> 0.69438822E+03</totfact>
</mgrwt>
</event>
<event>
 5    0  0.2947253E-001  0.5595959E+03  0.7546771E-02  0.9992969E-01
          2   -1    0    0  502    0 -0.00000000000E+00  0.00000000000E+00  0.83808855835E+03  0.83808855835E+03  0.00000000000E+00 0.  1.
         21   -1    0    0  503  502  0.00000000000E+00 -0.00000000000E+00 -0.65300254974E+03  0.65300254974E+03  0.00000000000E+00 0.  1.
         25    1    1    2    0    0  0.21685565705E+03 -0.50049591134E+03 -0.39802023287E+03  0.68670782655E+03  0.12500000000E+03 0.  0.
         21    1    1    2  503  501 -0.21751876848E+02  0.70192098253E+01  0.17214467472E+02  0.28613831329E+02  0.00000000000E+00 0.  1.
          2    1    1    2  501    0 -0.19510378020E+03  0.49347670152E+03  0.56589177401E+03  0.77576945021E+03  0.00000000000E+00 0.  1.
<mgrwt>
<rscale>  4 0.55959587E+03</rscale>
<asrwt>0</asrwt>
<pdfrwt beam="1">  1       21 0.10046193E+00 0.55959587E+03</pdfrwt>
<pdfrwt beam="2">  1        2 0.12893670E+00 0.55959587E+03</pdfrwt>
<totfact> 0.29548986E+02</totfact>
</mgrwt>
</event>
<event>
 5    0  0.2947253E-001  0.2400389E+03  0.7546771E-02  0.1119767E+00
         21   -1    0    0  503  502  0.00000000000E+00  0.00000000000E+00  0.57186092465E+02  0.57186092465E+02  0.00000000000E+00 0.  1.
          2   -1    0    0  502    0 -0.00000000000E+00 -0.00000000000E+00 -0.92416128041E+03  0.92416128041E+03  0.00000000000E+00 0.  1.
         25    1    1    2    0    0 -0.19473147938E+02  0.20399627993E+03 -0.51162273309E+03  0.56513406085E+03  0.12500000000E+03 0.  0.
         21    1    1    2  503  501 -0.87954574434E+01 -0.66373562365E+02 -0.63371910509E+02  0.92188984669E+02  0.00000000000E+00 0.  1.
          2    1    1    2  501    0  0.28268605381E+02 -0.13762271757E+03 -0.29198054434E+03  0.32402432735E+03  0.00000000000E+00 0.  1.
<mgrwt>
<rscale>  4 0.24003893E+03</rscale>
<asrwt>0</asrwt>
<pdfrwt beam="1">  1       21 0.87978608E-02 0.24003893E+03</pdfrwt>
<pdfrwt beam="2">  1        2 0.14217865E+00 0.24003893E+03</pdfrwt>
<totfact> 0.37559867E+04</totfact>
</mgrwt>
</event>
<event>
 5    0  0.2947253E-001  0.2857465E+03  0.7546771E-02  0.1092591E+00
         21   -1    0    0  503  502  0.00000000000E+00  0.00000000000E+00  0.31263057773E+03  0.31263057773E+03  0.00000000000E+00 0. -1.
          2   -1    0    0  502    0 -0.00000000000E+00 -0.00000000000E+00 -0.64419382337E+03  0.64419382337E+03  0.00000000000E+00 0.  1.
         25    1    1    2    0    0 -0.13485538577E+03  0.22297706402E+03  0.20061751750E+03  0.35181974714E+03  0.12500000000E+03 0.  0.
         21    1    1    2  503  501 -0.21772242214E+01 -0.36002733377E+02 -0.16595174464E+02  0.39703109846E+02  0.00000000000E+00 0. -1.
          2    1    1    2  501    0  0.13703260999E+03 -0.18697433064E+03 -0.51558558868E+03  0.56530154411E+03  0.00000000000E+00 0.  1.
<mgrwt>
<rscale>  4 0.28574650E+03</rscale>
<asrwt>0</asrwt>
<pdfrwt beam="1">  1       21 0.48097012E-01 0.28574650E+03</pdfrwt>
<pdfrwt beam="2">  1        2 0.99106742E-01 0.28574650E+03</pdfrwt>
<totfact> 0.23290796E+03</totfact>
</mgrwt>
</event>
<event>
 5    0  0.2947253E-001  0.2592904E+03  0.7546771E-02  0.1107570E+00
         21   -1    0    0  501  502  0.00000000000E+00  0.00000000000E+00  0.27452123966E+03  0.27452123966E+03  0.00000000000E+00 0. -1.
         -4   -1    0    0    0  501 -0.00000000000E+00 -0.00000000000E+00 -0.36014612015E+03  0.36014612015E+03  0.00000000000E+00 0.  1.
         25    1    1    2    0    0 -0.16820502145E+03  0.15268781505E+03  0.15109257144E+03  0.30010075516E+03  0.12500000000E+03 0.  0.
         21    1    1    2  501  501  0.13282998151E+03 -0.96928393295E+02 -0.20031928876E+03  0.25916545846E+03  0.00000000000E+00 0.  1.
         -4    1    1    2    0  502  0.35375039944E+02 -0.55759421751E+02 -0.36398163172E+02  0.75401146194E+02  0.00000000000E+00 0.  1.
<mgrwt>
<rscale>  4 0.25929037E+03</rscale>
<asrwt>0</asrwt>
<pdfrwt beam="1">  1       21 0.42234037E-01 0.25929037E+03</pdfrwt>
<pdfrwt beam="2">  1       -4 0.55407095E-01 0.25929037E+03</pdfrwt>
<totfact> 0.70968895E+02</totfact>
</mgrwt>
</event>
<event>
 5    0  0.2947253E-001  0.2364542E+03  0.7546771E-02  0.1122178E+00
         21   -1    0    0  501  502  0.00000000000E+00  0.00000000000E+00  0.21031803445E+03  0.21031803445E+03  0.00000000000E+00 0.  1.
         -3   -1    0    0    0  501 -0.00000000000E+00 -0.00000000000E+00 -0.23768539864E+03  0.23768539864E+03  0.00000000000E+00 0.  1.
         25    1    1    2    0    0 -0.16380421024E+03 -0.11599035990E+03  0.59968141341E+01  0.23653021934E+03  0.12500000000E+03 0.  0.
         21    1    1    2  501  501  0.17361734448E+02  0.30664821068E+02  0.98003094422E+01  0.36576045977E+02  0.00000000000E+00 0.  1.
         -3    1    1    2    0  502  0.14644247579E+03  0.85325538832E+02 -0.43164487758E+02  0.17489716777E+03  0.00000000000E+00 0.  1.
<mgrwt>
<rscale>  4 0.23645419E+03</rscale>
<asrwt>0</asrwt>
<pdfrwt beam="1">  1       21 0.32356621E-01 0.23645419E+03</pdfrwt>
<pdfrwt beam="2">  1       -3 0.36566984E-01 0.23645419E+03</pdfrwt>
<totfact> 0.33502078E+03</totfact>
</mgrwt>
</event>
<event>
 5    0  0.2947253E-001  0.2662394E+03  0.7546771E-02  0.1103451E+00
         21   -1    0    0  503  502  0.00000000000E+00  0.00000000000E+00  0.12079983677E+04  0.12079983677E+04  0.00000000000E+00 0. -1.
          2   -1    0    0  502    0 -0.00000000000E+00 -0.00000000000E+00 -0.11854754215E+04  0.11854754215E+04  0.00000000000E+00 0. -1.
         25    1    1    2    0    0  0.12332024169E+01  0.23506784099E+03  0.11805766465E+04  0.12102250323E+04  0.12500000000E+03 0.  0.
         21    1    1    2  503  501 -0.13866340950E+02 -0.22606617915E+02 -0.76899094796E+02  0.81343748164E+02  0.00000000000E+00 0. -1.
          2    1    1    2  501    0  0.12633138533E+02 -0.21246122308E+03 -0.10811546055E+04  0.11019050088E+04  0.00000000000E+00 0. -1.
<mgrwt>
<rscale>  4 0.26623939E+03</rscale>
<asrwt>0</asrwt>
<pdfrwt beam="1">  1       21 0.18584590E+00 0.26623939E+03</pdfrwt>
<pdfrwt beam="2">  1        2 0.18238083E+00 0.26623939E+03</pdfrwt>
<totfact> 0.40248827E+01</totfact>
</mgrwt>
</event>
<event>
 5    0  0.2947253E-001  0.3824917E+03  0.7546771E-02  0.1050017E+00
          2   -1    0    0  502    0 -0.00000000000E+00  0.00000000000E+00  0.14692792233E+04  0.14692792233E+04  0.00000000000E+00 0. -1.
         21   -1    0    0  503  502  0.00000000000E+00 -0.00000000000E+00 -0.28701091273E+03  0.28701091273E+03  0.00000000000E+00 0. -1.
         25    1    1    2    0    0 -0.29020023220E+03  0.22184217523E+03 -0.11124807978E+03  0.40178509272E+03  0.12500000000E+03 0.  0.
         21    1    1    2  503  501  0.20652941741E+02 -0.19915685130E+02  0.37659404499E+03  0.37768538923E+03  0.00000000000E+00 0. -1.
          2    1    1    2  501    0  0.26954729046E+03 -0.20192649010E+03  0.91692234538E+03  0.97681965411E+03  0.00000000000E+00 0. -1.
<mgrwt>
<rscale>  4 0.38249174E+03</rscale>
<asrwt>0</asrwt>
<pdfrwt beam="1">  1       21 0.44155526E-01 0.38249174E+03</pdfrwt>
<pdfrwt beam="2">  1        2 0.22604295E+00 0.38249174E+03</pdfrwt>
<totfact> 0.82091913E+02</totfact>
</mgrwt>
</event>
<event>
 5    0  0.2947253E-001  0.2728929E+03  0.7546771E-02  0.1099635E+00
         21   -1    0    0  503  502  0.00000000000E+00  0.00000000000E+00  0.17383752404E+02  0.17383752404E+02  0.00000000000E+00 0. -1.
          2   -1    0    0  502    0 -0.00000000000E+00 -0.00000000000E+00 -0.41423805216E+04  0.41423805216E+04  0.00000000000E+00 0.  1.
         25    1    1    2    0    0  0.19508468370E+03 -0.14417872635E+03 -0.25879886913E+04  0.26023366433E+04  0.12500000000E+03 0.  0.
         21    1    1    2  503  501 -0.10916108793E+02  0.31479854159E+02 -0.28464183467E+03  0.28658526950E+03  0.00000000000E+00 0.  1.
          2    1    1    2  501    0 -0.18416857491E+03  0.11269887219E+03 -0.12523662433E+04  0.12708423612E+04  0.00000000000E+00 0.  1.
<mgrwt>
<rscale>  4 0.27289291E+03</rscale>
<asrwt>0</asrwt>
<pdfrwt beam="1">  1       21 0.26744234E-02 0.27289291E+03</pdfrwt>
<pdfrwt beam="2">  1        2 0.63728932E+00 0.27289291E+03</pdfrwt>
<totfact> 0.33800156E+03</totfact>
</mgrwt>
</event>
<event>
 5    0  0.2947253E-001  0.2908877E+03  0.7546771E-02  0.1089887E+00
         21   -1    0    0  503  502  0.00000000000E+00  0.00000000000E+00  0.36163078398E+03  0.36163078398E+03  0.00000000000E+00 0. -1.
          2   -1    0    0  502    0 -0.00000000000E+00 -0.00000000000E+00 -0.94300454429E+03  0.94300454429E+03  0.00000000000E+00 0.  1.
         25    1    1    2    0    0  0.17407723298E+03  0.20102127947E+03  0.27385309768E+03  0.40166274030E+03  0.12500000000E+03 0.  0.
         21    1    1    2  503  501 -0.40720007430E+02 -0.24089709731E+02 -0.54562063468E+02  0.72218085615E+02  0.00000000000E+00 0. -1.
          2    1    1    2  501    0 -0.13335722555E+03 -0.17693156974E+03 -0.80066479452E+03  0.83075450234E+03  0.00000000000E+00 0.  1.
<mgrwt>
<rscale>  4 0.29088771E+03</rscale>
<asrwt>0</asrwt>
<pdfrwt beam="1">  1       21 0.55635505E-01 0.29088771E+03</pdfrwt>
<pdfrwt beam="2">  1        2 0.14507762E+00 0.29088771E+03</pdfrwt>
<totfact> 0.10510766E+03</totfact>
</mgrwt>
</event>
<event>
 5    0  0.2947253E-001  0.2504691E+03  0.7546771E-02  0.1113009E+00
          2   -1    0    0  502    0 -0.00000000000E+00  0.00000000000E+00  0.18890031150E+04  0.18890031150E+04  0.00000000000E+00 0. -1.
         21   -1    0    0  503  502  0.00000000000E+00 -0.00000000000E+00 -0.47373090673E+03  0.47373090673E+03  0.00000000000E+00 0. -1.
         25    1    1    2    0    0 -0.64513041164E+02 -0.20723856003E+03 -0.43337863137E+03  0.50055148723E+03  0.12500000000E+03 0.  0.
         21    1    1    2  503  501  0.17854716404E+02  0.11416540253E+02  0.12081932336E+03  0.12266391966E+03  0.00000000000E+00 0.  1.
          2    1    1    2  501    0  0.46658324760E+02  0.19582201978E+03  0.17278315163E+04  0.17395186148E+04  0.00000000000E+00 0. -1.
<mgrwt>
<rscale>  4 0.25046907E+03</rscale>
<asrwt>0</asrwt>
<pdfrwt beam="1">  1       21 0.72881679E-01 0.25046907E+03</pdfrwt>
<pdfrwt beam="2">  1        2 0.29061586E+00 0.25046907E+03</pdfrwt>
<totfact> 0.17788266E+02</totfact>
</mgrwt>
</event>
<event>
 5    0  0.2947253E-001  0.2471992E+03  0.7546771E-02  0.1115088E+00
          1   -1    0    0  502    0 -0.00000000000E+00  0.00000000000E+00  0.64724236297E+03  0.64724236297E+03  0.00000000000E+00 0.  1.
         21   -1    0    0  503  502  0.00000000000E+00 -0.00000000000E+00 -0.13833510750E+03  0.13833510750E+03  0.00000000000E+00 0.  1.
         25    1    1    2    0    0  0.16902463546E+03  0.14087598193E+03  0.10396547980E+03  0.27358580129E+03  0.12500000000E+03 0.  0.
         21    1    1    2  503  501  0.15376502030E+02 -0.44170241194E+02  0.24502300813E+03  0.24944683108E+03  0.00000000000E+00 0. -1.
          1    1    1    2  501    0 -0.18440113749E+03 -0.96705740736E+02  0.15991876754E+03  0.26254483810E+03  0.00000000000E+00 0.  1.
<mgrwt>
<rscale>  4 0.24719923E+03</rscale>
<asrwt>0</asrwt>
<pdfrwt beam="1">  1       21 0.21282325E-01 0.24719923E+03</pdfrwt>
<pdfrwt beam="2">  1        1 0.99575747E-01 0.24719923E+03</pdfrwt>
<totfact> 0.71098365E+03</totfact>
</mgrwt>
</event>
<event>
 5    0  0.2947253E-001  0.2406238E+03  0.7546771E-02  0.1119378E+00
         -3   -1    0    0    0  501 -0.00000000000E+00  0.00000000000E+00  0.77735579140E+02  0.77735579140E+02  0.00000000000E+00 0. -1.
         21   -1    0    0  501  502  0.00000000000E+00 -0.00000000000E+00 -0.70645111436E+03  0.70645111436E+03  0.00000000000E+00 0.  1.
         25    1    1    2    0    0  0.19870162665E+03  0.52843925402E+02 -0.43372359912E+03  0.49599997713E+03  0.12500000000E+03 0.  0.
         21    1    1    2  501  501 -0.38737417288E+02 -0.14340856389E+02 -0.71088117093E+02  0.82217808606E+02  0.00000000000E+00 0.  1.
         -3    1    1    2    0  502 -0.15996420936E+03 -0.38503069012E+02 -0.12390381901E+03  0.20596890776E+03  0.00000000000E+00 0. -1.
<mgrwt>
<rscale>  4 0.24062381E+03</rscale>
<asrwt>0</asrwt>
<pdfrwt beam="1">  1       21 0.10868479E+00 0.24062381E+03</pdfrwt>
<pdfrwt beam="2">  1       -3 0.11959319E-01 0.24062381E+03</pdfrwt>
<totfact> 0.17992572E+03</totfact>
</mgrwt>
</event>
<event>
 5    0  0.2947253E-001  0.3658208E+03  0.7546771E-02  0.1056303E+00
         21   -1    0    0  501  502  0.00000000000E+00  0.00000000000E+00  0.26370727918E+03  0.26370727918E+03  0.00000000000E+00 0.  1.
         -2   -1    0    0    0  501 -0.00000000000E+00 -0.00000000000E+00 -0.97114764643E+03  0.97114764643E+03  0.00000000000E+00 0.  1.
         25    1    1    2    0    0 -0.33342962423E+03  0.18981268121E+03 -0.71529582759E+02  0.40981172442E+03  0.12500000000E+03 0.  0.
         21    1    1    2  501  501  0.24880735193E+02 -0.21462366219E+03 -0.25583302247E+03  0.33486251319E+03  0.00000000000E+00 0.  1.
         -2    1    1    2    0  502  0.30854888903E+03  0.24810980973E+02 -0.38007776202E+03  0.49018068800E+03  0.00000000000E+00 0.  1.
<mgrwt>
<rscale>  4 0.36582081E+03</rscale>
<asrwt>0</asrwt>
<pdfrwt beam="1">  1       21 0.40570350E-01 0.36582081E+03</pdfrwt>
<pdfrwt beam="2">  1       -2 0.14940733E+00 0.36582081E+03</pdfrwt>
<totfact> 0.14521997E+02</totfact>
</mgrwt>
</event>
<event>
 5    0  0.2947253E-001  0.3069563E+03  0.7546771E-02  0.1081814E+00
          2   -1    0    0  502    0 -0.00000000000E+00  0.00000000000E+00  0.14322439268E+04  0.14322439268E+04  0.00000000000E+00 0. -1.
         21   -1    0    0  503  502  0.00000000000E+00 -0.00000000000E+00 -0.20219442884E+03  0.20219442884E+03  0.00000000000E+00 0. -1.
         25    1    1    2    0    0 -0.25481143274E+03 -0.11691153009E+03 -0.58778851880E+02  0.31253339910E+03  0.12500000000E+03 0.  0.
         21    1    1    2  503  501  0.39636637673E+02 -0.12696474047E+02  0.22553654308E+03  0.22934470948E+03  0.00000000000E+00 0. -1.
          2    1    1    2  501    0  0.21517479506E+03  0.12960800414E+03  0.10632918067E+04  0.10925602470E+04  0.00000000000E+00 0. -1.
<mgrwt>
<rscale>  4 0.30695630E+03</rscale>
<asrwt>0</asrwt>
<pdfrwt beam="1">  1       21 0.31106836E-01 0.30695630E+03</pdfrwt>
<pdfrwt beam="2">  1        2 0.22034521E+00 0.30695630E+03</pdfrwt>
<totfact> 0.17965781E+03</totfact>
</mgrwt>
</event>
<event>
 5    0  0.2947253E-001  0.2482622E+03  0.7546771E-02  0.1114408E+00
          1   -1    0    0  502    0 -0.00000000000E+00  0.00000000000E+00  0.18140084421E+04  0.18140084421E+04  0.00000000000E+00 0. -1.
         21   -1    0    0  503  502  0.00000000000E+00 -0.00000000000E+00 -0.32158175532E+02  0.32158175532E+02  0.00000000000E+00 0. -1.
         25    1    1    2    0    0 -0.75777961863E+02  0.20066590128E+03  0.88366608399E+03  0.91787790660E+03  0.12500000000E+03 0.  0.
         21    1    1    2  503  501  0.65277849534E+02 -0.51588690508E+02  0.37889011022E+03  0.38791791175E+03  0.00000000000E+00 0.  1.
          1    1    1    2  501    0  0.10500112329E+02 -0.14907721077E+03  0.51929407232E+03  0.54037079925E+03  0.00000000000E+00 0. -1.
<mgrwt>
<rscale>  4 0.24826217E+03</rscale>
<asrwt>0</asrwt>
<pdfrwt beam="1">  1       21 0.49474130E-02 0.24826217E+03</pdfrwt>
<pdfrwt beam="2">  1        1 0.27907814E+00 0.24826217E+03</pdfrwt>
<totfact> 0.13692235E+04</totfact>
</mgrwt>
</event>
<event>
 5    0  0.2947253E-001  0.3639704E+03  0.7546771E-02  0.1057785E+00
         -2   -1    0    0    0  501 -0.00000000000E+00  0.00000000000E+00  0.12665065222E+04  0.12665065222E+04  0.00000000000E+00 0. -1.
         21   -1    0    0  501  502  0.00000000000E+00 -0.00000000000E+00 -0.10469978646E+03  0.10469978646E+03  0.00000000000E+00 0.  1.
         25    1    1    2    0    0  0.33359329983E+03 -0.13265986668E+01  0.47298967637E+03  0.59214059438E+03  0.12500000000E+03 0.  0.
         21    1    1    2  501  501 -0.78780472158E+02 -0.41544875395E+02  0.88767916618E+02  0.12574610326E+03  0.00000000000E+00 0. -1.
         -2    1    1    2    0  502 -0.25481282767E+03  0.42871474061E+02  0.60004914272E+03  0.65331961099E+03  0.00000000000E+00 0. -1.
<mgrwt>
<rscale>  4 0.36202375E+03</rscale>
<asrwt>0</asrwt>
<pdfrwt beam="1">  1       21 0.16107660E-01 0.36397039E+03</pdfrwt>
<pdfrwt beam="2">  1       -2 0.19484715E+00 0.36397039E+03</pdfrwt>
<totfact> 0.42373894E+02</totfact>
</mgrwt>
</event>
<event>
 5    0  0.2947253E-001  0.2815112E+03  0.7546771E-02  0.1094982E+00
         21   -1    0    0  503  502  0.00000000000E+00  0.00000000000E+00  0.11478540019E+03  0.11478540019E+03  0.00000000000E+00 0. -1.
          2   -1    0    0  502    0 -0.00000000000E+00 -0.00000000000E+00 -0.10300207333E+04  0.10300207333E+04  0.00000000000E+00 0. -1.
         25    1    1    2    0    0  0.17598361271E+03  0.17937685778E+03 -0.12747179680E+03  0.30825370724E+03  0.12500000000E+03 0.  0.
         21    1    1    2  503  501 -0.42747576517E+02 -0.12003960805E+03 -0.46906957532E+03  0.48606905815E+03  0.00000000000E+00 0. -1.
          2    1    1    2  501    0 -0.13323603619E+03 -0.59337249738E+02 -0.31869396101E+03  0.35048336812E+03  0.00000000000E+00 0. -1.
<mgrwt>
<rscale>  4 0.28129874E+03</rscale>
<asrwt>0</asrwt>
<pdfrwt beam="1">  1       21 0.17659293E-01 0.28151123E+03</pdfrwt>
<pdfrwt beam="2">  1        2 0.15846473E+00 0.28151123E+03</pdfrwt>
<totfact> 0.90862011E+03</totfact>
</mgrwt>
</event>
<event>
 5    0  0.2947253E-001  0.2915279E+03  0.7546771E-02  0.1089554E+00
          1   -1    0    0  502    0 -0.00000000000E+00  0.00000000000E+00  0.11729580007E+04  0.11729580007E+04  0.00000000000E+00 0.  1.
         21   -1    0    0  503  502  0.00000000000E+00 -0.00000000000E+00 -0.67700847903E+02  0.67700847903E+02  0.00000000000E+00 0.  1.
         25    1    1    2    0    0  0.16322588850E+03  0.20669016833E+03  0.53297202474E+03  0.60749295923E+03  0.12500000000E+03 0.  0.
         21    1    1    2  503  501 -0.14809291663E+03 -0.15098289666E+03  0.41848094855E+03  0.46888554184E+03  0.00000000000E+00 0.  1.
          1    1    1    2  501    0 -0.15132971868E+02 -0.55707271669E+02  0.15380417955E+03  0.16428034758E+03  0.00000000000E+00 0.  1.
<mgrwt>
<rscale>  4 0.29152790E+03</rscale>
<asrwt>0</asrwt>
<pdfrwt beam="1">  1       21 0.10415516E-01 0.29152790E+03</pdfrwt>
<pdfrwt beam="2">  1        1 0.18045506E+00 0.29152790E+03</pdfrwt>
<totfact> 0.99300212E+03</totfact>
</mgrwt>
</event>
<event>
 5    0  0.2947253E-001  0.2626773E+03  0.7546771E-02  0.1105545E+00
         21   -1    0    0  503  502  0.00000000000E+00  0.00000000000E+00  0.16427303933E+03  0.16427303933E+03  0.00000000000E+00 0.  1.
          1   -1    0    0  502    0 -0.00000000000E+00 -0.00000000000E+00 -0.44497849235E+03  0.44497849235E+03  0.00000000000E+00 0.  1.
         25    1    1    2    0    0  0.58574397073E+02  0.22348022154E+03 -0.30359391398E+02  0.26442591034E+03  0.12500000000E+03 0.  0.
         21    1    1    2  503  501 -0.30487389905E+02 -0.17484793224E+03 -0.16296890061E+03  0.24095672416E+03  0.00000000000E+00 0.  1.
          1    1    1    2  501    0 -0.28087007168E+02 -0.48632289296E+02 -0.87377161017E+02  0.10386889718E+03  0.00000000000E+00 0.  1.
<mgrwt>
<rscale>  4 0.26267731E+03</rscale>
<asrwt>0</asrwt>
<pdfrwt beam="1">  1       21 0.25272776E-01 0.26267731E+03</pdfrwt>
<pdfrwt beam="2">  1        1 0.68458228E-01 0.26267731E+03</pdfrwt>
<totfact> 0.84876811E+03</totfact>
</mgrwt>
</event>
<event>
 5    0  0.2947253E-001  0.2644308E+03  0.7546771E-02  0.1104510E+00
          1   -1    0    0  502    0 -0.00000000000E+00  0.00000000000E+00  0.14776786181E+04  0.14776786181E+04  0.00000000000E+00 0. -1.
         21   -1    0    0  503  502  0.00000000000E+00 -0.00000000000E+00 -0.18916255307E+03  0.18916255307E+03  0.00000000000E+00 0. -1.
         25    1    1    2    0    0 -0.89353297874E+02 -0.21520835527E+03 -0.80095599935E+02  0.27629504727E+03  0.12500000000E+03 0.  0.
         21    1    1    2  503  501 -0.69539653541E+01  0.39895134422E+02  0.13928554050E+03  0.14505323566E+03  0.00000000000E+00 0. -1.
          1    1    1    2  501    0  0.96307263229E+02  0.17531322085E+03  0.12293261244E+04  0.12454928882E+04  0.00000000000E+00 0. -1.
<mgrwt>
<rscale>  4 0.26443080E+03</rscale>
<asrwt>0</asrwt>
<pdfrwt beam="1">  1       21 0.29101932E-01 0.26443080E+03</pdfrwt>
<pdfrwt beam="2">  1        1 0.22733516E+00 0.26443080E+03</pdfrwt>
<totfact> 0.91390072E+02</totfact>
</mgrwt>
</event>
<event>
 5    0  0.2947253E-001  0.3039848E+03  0.7546771E-02  0.1083265E+00
         21   -1    0    0  501  502  0.00000000000E+00  0.00000000000E+00  0.11537398990E+03  0.11537398990E+03  0.00000000000E+00 0.  1.
         -4   -1    0    0    0  501 -0.00000000000E+00 -0.00000000000E+00 -0.11361992685E+04  0.11361992685E+04  0.00000000000E+00 0.  1.
         25    1    1    2    0    0  0.28830180071E+03 -0.13306641628E+03 -0.43488376382E+03  0.55278701818E+03  0.12500000000E+03 0.  0.
         21    1    1    2  501  501 -0.97425084948E+02 -0.43640022054E+02 -0.93684371402E+02  0.14203119427E+03  0.00000000000E+00 0.  1.
         -4    1    1    2    0  502 -0.19087671576E+03  0.17670643834E+03 -0.49225714336E+03  0.55675504592E+03  0.00000000000E+00 0.  1.
<mgrwt>
<rscale>  4 0.30398483E+03</rscale>
<asrwt>0</asrwt>
<pdfrwt beam="1">  1       21 0.17749845E-01 0.30398483E+03</pdfrwt>
<pdfrwt beam="2">  1       -4 0.17479988E+00 0.30398483E+03</pdfrwt>
<totfact> 0.25276212E+02</totfact>
</mgrwt>
</event>
<event>
 5    0  0.2947253E-001  0.2883279E+03  0.7546771E-02  0.1091225E+00
         21   -1    0    0  503  502  0.00000000000E+00  0.00000000000E+00  0.10565043247E+03  0.10565043247E+03  0.00000000000E+00 0.  1.
          2   -1    0    0  502    0 -0.00000000000E+00 -0.00000000000E+00 -0.23219650300E+04  0.23219650300E+04  0.00000000000E+00 0. -1.
         25    1    1    2    0    0 -0.18710736835E+03 -0.18027427704E+03 -0.11912609100E+03  0.31196795959E+03  0.12500000000E+03 0.  0.
         21    1    1    2  503  501  0.84326764047E+02  0.17240459214E+02 -0.62658223529E+03  0.63246623162E+03  0.00000000000E+00 0. -1.
          2    1    1    2  501    0  0.10278060430E+03  0.16303381782E+03 -0.14706062713E+04  0.14831812713E+04  0.00000000000E+00 0. -1.
<mgrwt>
<rscale>  4 0.28832791E+03</rscale>
<asrwt>0</asrwt>
<pdfrwt beam="1">  1       21 0.16253914E-01 0.28832791E+03</pdfrwt>
<pdfrwt beam="2">  1        2 0.35722537E+00 0.28832791E+03</pdfrwt>
<totfact> 0.21030836E+03</totfact>
</mgrwt>
</event>
<event>
 5    0  0.2947253E-001  0.3011059E+03  0.7546771E-02  0.1084689E+00
          2   -1    0    0  502    0 -0.00000000000E+00  0.00000000000E+00  0.25771149097E+04  0.25771149097E+04  0.00000000000E+00 0.  1.
         21   -1    0    0  503  502  0.00000000000E+00 -0.00000000000E+00 -0.14838508188E+03  0.14838508188E+03  0.00000000000E+00 0.  1.
         25    1    1    2    0    0  0.13737545701E+02 -0.26613640419E+03  0.67149078490E+02  0.30191274326E+03  0.12500000000E+03 0.  0.
         21    1    1    2  503  501 -0.79675511721E+02 -0.10403773540E+01  0.46602533844E+02  0.92309618750E+02  0.00000000000E+00 0.  1.
          2    1    1    2  501    0  0.65937966020E+02  0.26717678155E+03  0.23149782154E+04  0.23312776295E+04  0.00000000000E+00 0.  1.
<mgrwt>
<rscale>  4 0.30110591E+03</rscale>
<asrwt>0</asrwt>
<pdfrwt beam="1">  1       21 0.22828476E-01 0.30110591E+03</pdfrwt>
<pdfrwt beam="2">  1        2 0.39647918E+00 0.30110591E+03</pdfrwt>
<totfact> 0.80067828E+02</totfact>
</mgrwt>
</event>
<event>
 5    0  0.2947253E-001  0.2673151E+03  0.7546771E-02  0.1102826E+00
         21   -1    0    0  503  502  0.00000000000E+00  0.00000000000E+00  0.33802590577E+03  0.33802590577E+03  0.00000000000E+00 0. -1.
          1   -1    0    0  502    0 -0.00000000000E+00 -0.00000000000E+00 -0.19067943225E+04  0.19067943225E+04  0.00000000000E+00 0.  1.
         25    1    1    2    0    0  0.23379915941E+03 -0.48383219849E+02  0.26120463116E+03  0.37530766345E+03  0.12500000000E+03 0.  0.
         21    1    1    2  503  501 -0.26872694662E+02  0.14834935066E+03 -0.63604211509E+03  0.65366600320E+03  0.00000000000E+00 0.  1.
          1    1    1    2  501    0 -0.20692646474E+03 -0.99966130809E+02 -0.11939309328E+04  0.12158465616E+04  0.00000000000E+00 0.  1.
<mgrwt>
<rscale>  4 0.26731510E+03</rscale>
<asrwt>0</asrwt>
<pdfrwt beam="1">  1       21 0.52003986E-01 0.26731510E+03</pdfrwt>
<pdfrwt beam="2">  1        1 0.29335297E+00 0.26731510E+03</pdfrwt>
<totfact> 0.14701015E+02</totfact>
</mgrwt>
</event>
<event>
 5    0  0.2947253E-001  0.2631030E+03  0.7546771E-02  0.1105293E+00
         21   -1    0    0  501  502  0.00000000000E+00  0.00000000000E+00  0.34070013580E+03  0.34070013580E+03  0.00000000000E+00 0.  1.
         -3   -1    0    0    0  501 -0.00000000000E+00 -0.00000000000E+00 -0.33335738137E+03  0.33335738137E+03  0.00000000000E+00 0.  1.
         25    1    1    2    0    0 -0.17302870297E+03 -0.15381569143E+03  0.23113380480E+03  0.35020855886E+03  0.12500000000E+03 0.  0.
         21    1    1    2  501  501  0.15259325683E+02  0.20941663362E+02 -0.13242253803E+02  0.29099099135E+02  0.00000000000E+00 0.  1.
         -3    1    1    2    0  502  0.15776937728E+03  0.13287402807E+03 -0.21054879657E+03  0.29474985917E+03  0.00000000000E+00 0.  1.
<mgrwt>
<rscale>  4 0.26310302E+03</rscale>
<asrwt>0</asrwt>
<pdfrwt beam="1">  1       21 0.52415405E-01 0.26310302E+03</pdfrwt>
<pdfrwt beam="2">  1       -3 0.51285751E-01 0.26310302E+03</pdfrwt>
<totfact> 0.63984772E+02</totfact>
</mgrwt>
</event>
<event>
 5    0  0.2947253E-001  0.3078675E+03  0.7546771E-02  0.1081373E+00
         21   -1    0    0  503  502  0.00000000000E+00  0.00000000000E+00  0.49590821112E+03  0.49590821112E+03  0.00000000000E+00 0.  1.
          2   -1    0    0  502    0 -0.00000000000E+00 -0.00000000000E+00 -0.67768386764E+03  0.67768386764E+03  0.00000000000E+00 0.  1.
         25    1    1    2    0    0 -0.27869147081E+03 -0.37864108150E+02  0.40284677504E+03  0.50696464447E+03  0.12500000000E+03 0.  0.
         21    1    1    2  503  501  0.21640238848E+01 -0.22960857227E+02 -0.12259267780E+03  0.12474313053E+03  0.00000000000E+00 0.  1.
          2    1    1    2  501    0  0.27652744692E+03  0.60824965376E+02 -0.46202975375E+03  0.54188430376E+03  0.00000000000E+00 0.  1.
<mgrwt>
<rscale>  4 0.30786745E+03</rscale>
<asrwt>0</asrwt>
<pdfrwt beam="1">  1       21 0.76293571E-01 0.30786745E+03</pdfrwt>
<pdfrwt beam="2">  1        2 0.10425906E+00 0.30786745E+03</pdfrwt>
<totfact> 0.79704736E+02</totfact>
</mgrwt>
</event>
<event>
 5    0  0.2947253E-001  0.2345600E+03  0.7546771E-02  0.1123471E+00
          2   -1    0    0  502    0 -0.00000000000E+00  0.00000000000E+00  0.92873761922E+03  0.92873761922E+03  0.00000000000E+00 0.  1.
         21   -1    0    0  503  502  0.00000000000E+00 -0.00000000000E+00 -0.43686449270E+03  0.43686449270E+03  0.00000000000E+00 0.  1.
         25    1    1    2    0    0  0.13589943265E+03  0.15104754830E+03 -0.31782140727E+03  0.39739082093E+03  0.12500000000E+03 0.  0.
         21    1    1    2  503  501  0.53034498250E+01 -0.22762305457E+03  0.11479267903E+03  0.25498576571E+03  0.00000000000E+00 0.  1.
          2    1    1    2  501    0 -0.14120288247E+03  0.76575506269E+02  0.69490185476E+03  0.71322552529E+03  0.00000000000E+00 0.  1.
<mgrwt>
<rscale>  4 0.23456003E+03</rscale>
<asrwt>0</asrwt>
<pdfrwt beam="1">  1       21 0.67209922E-01 0.23456003E+03</pdfrwt>
<pdfrwt beam="2">  1        2 0.14288271E+00 0.23456003E+03</pdfrwt>
<totfact> 0.73049886E+02</totfact>
</mgrwt>
</event>
<event>
 5    0  0.2947253E-001  0.2448316E+03  0.7546771E-02  0.1116615E+00
         21   -1    0    0  503  502  0.00000000000E+00  0.00000000000E+00  0.19108047728E+03  0.19108047728E+03  0.00000000000E+00 0. -1.
          1   -1    0    0  502    0 -0.00000000000E+00 -0.00000000000E+00 -0.29177125730E+03  0.29177125730E+03  0.00000000000E+00 0. -1.
         25    1    1    2    0    0 -0.17389294877E+03  0.11865397400E+03 -0.35167846983E+01  0.24485687851E+03  0.12500000000E+03 0.  0.
         21    1    1    2  503  501  0.10927769420E+03 -0.43557360096E+02 -0.44334801826E+02  0.12571568208E+03  0.00000000000E+00 0. -1.
          1    1    1    2  501    0  0.64615254569E+02 -0.75096613903E+02 -0.52839193490E+02  0.11227917399E+03  0.00000000000E+00 0. -1.
<mgrwt>
<rscale>  4 0.24483162E+03</rscale>
<asrwt>0</asrwt>
<pdfrwt beam="1">  1       21 0.29396997E-01 0.24483162E+03</pdfrwt>
<pdfrwt beam="2">  1        1 0.44887886E-01 0.24483162E+03</pdfrwt>
<totfact> 0.10887543E+04</totfact>
</mgrwt>
</event>
<event>
 5    0  0.2947253E-001  0.2714546E+03  0.7546771E-02  0.1100450E+00
         -2   -1    0    0    0  501 -0.00000000000E+00  0.00000000000E+00  0.26182120677E+03  0.26182120677E+03  0.00000000000E+00 0.  1.
         21   -1    0    0  501  502  0.00000000000E+00 -0.00000000000E+00 -0.39628983601E+03  0.39628983601E+03  0.00000000000E+00 0.  1.
         25    1    1    2    0    0 -0.23987071625E+03 -0.22904433537E+02 -0.25065712788E+03  0.36948148715E+03  0.12500000000E+03 0.  0.
         21    1    1    2  501  501  0.59914883773E+02  0.35744056389E+02 -0.70801058588E+01  0.70125307583E+02  0.00000000000E+00 0.  1.
         -2    1    1    2    0  502  0.17995583248E+03 -0.12839622852E+02  0.12326860450E+03  0.21850424804E+03  0.00000000000E+00 0.  1.
<mgrwt>
<rscale>  4 0.27145455E+03</rscale>
<asrwt>0</asrwt>
<pdfrwt beam="1">  1       21 0.60967667E-01 0.27145455E+03</pdfrwt>
<pdfrwt beam="2">  1       -2 0.40280186E-01 0.27145455E+03</pdfrwt>
<totfact> 0.11594036E+03</totfact>
</mgrwt>
</event>
<event>
 5    0  0.2947253E-001  0.4063124E+03  0.7546771E-02  0.1041616E+00
         21   -1    0    0  503  502  0.00000000000E+00  0.00000000000E+00  0.12478262321E+04  0.12478262321E+04  0.00000000000E+00 0. -1.
          2   -1    0    0  502    0 -0.00000000000E+00 -0.00000000000E+00 -0.61207327341E+03  0.61207327341E+03  0.00000000000E+00 0.  1.
         25    1    1    2    0    0 -0.12110479263E+03 -0.36758196465E+03  0.11172314617E+04  0.11889550078E+04  0.12500000000E+03 0.  0.
         21    1    1    2  503  501  0.35508907829E+02 -0.95032212252E+01  0.16645339155E+02  0.40351716995E+02  0.00000000000E+00 0.  1.
          2    1    1    2  501    0  0.85595884803E+02  0.37708518587E+03 -0.49812384220E+03  0.63059278070E+03  0.00000000000E+00 0.  1.
<mgrwt>
<rscale>  4 0.40631240E+03</rscale>
<asrwt>0</asrwt>
<pdfrwt beam="1">  1       21 0.19197327E+00 0.40631240E+03</pdfrwt>
<pdfrwt beam="2">  1        2 0.94165119E-01 0.40631240E+03</pdfrwt>
<totfact> 0.81491537E+01</totfact>
</mgrwt>
</event>
<event>
 5    0  0.2947253E-001  0.2875689E+03  0.7546771E-02  0.1091625E+00
          2   -1    0    0  502    0 -0.00000000000E+00  0.00000000000E+00  0.11304303281E+04  0.11304303281E+04  0.00000000000E+00 0.  1.
         21   -1    0    0  503  502  0.00000000000E+00 -0.00000000000E+00 -0.45428488976E+03  0.45428488976E+03  0.00000000000E+00 0. -1.
         25    1    1    2    0    0  0.48431055105E+02  0.25441164484E+03 -0.38808961410E+03  0.48302111828E+03  0.12500000000E+03 0.  0.
         21    1    1    2  503  501 -0.61922439305E+02 -0.48948207516E+02  0.29335541579E+03  0.30378893246E+03  0.00000000000E+00 0.  1.
          2    1    1    2  501    0  0.13491384200E+02 -0.20546343733E+03  0.77087963669E+03  0.79790516716E+03  0.00000000000E+00 0.  1.
<mgrwt>
<rscale>  4 0.28756887E+03</rscale>
<asrwt>0</asrwt>
<pdfrwt beam="1">  1       21 0.69889983E-01 0.28756887E+03</pdfrwt>
<pdfrwt beam="2">  1        2 0.17391236E+00 0.28756887E+03</pdfrwt>
<totfact> 0.49214252E+02</totfact>
</mgrwt>
</event>
<event>
 5    0  0.2947253E-001  0.3520421E+03  0.7546771E-02  0.1061780E+00
          1   -1    0    0  502    0 -0.00000000000E+00  0.00000000000E+00  0.67564587473E+03  0.67564587473E+03  0.00000000000E+00 0. -1.
         21   -1    0    0  503  502  0.00000000000E+00 -0.00000000000E+00 -0.52219556173E+03  0.52219556173E+03  0.00000000000E+00 0. -1.
         25    1    1    2    0    0  0.14188993986E+03 -0.30483740052E+03 -0.38384008109E+03  0.52537301382E+03  0.12500000000E+03 0.  0.
         21    1    1    2  503  501  0.59592077735E+02  0.89566178622E+02  0.11551939741E+03  0.15785451295E+03  0.00000000000E+00 0.  1.
          1    1    1    2  501    0 -0.20148201760E+03  0.21527122190E+03  0.42177099669E+03  0.51461390969E+03  0.00000000000E+00 0. -1.
<mgrwt>
<rscale>  4 0.35204213E+03</rscale>
<asrwt>0</asrwt>
<pdfrwt beam="1">  1       21 0.80337778E-01 0.35204213E+03</pdfrwt>
<pdfrwt beam="2">  1        1 0.10394552E+00 0.35204213E+03</pdfrwt>
<totfact> 0.41672291E+02</totfact>
</mgrwt>
</event>
<event>
 5    0  0.2947253E-001  0.2794821E+03  0.7546771E-02  0.1095972E+00
         21   -1    0    0  503  502  0.00000000000E+00  0.00000000000E+00  0.14580953893E+04  0.14580953893E+04  0.00000000000E+00 0.  1.
          4   -1    0    0  502    0 -0.00000000000E+00 -0.00000000000E+00 -0.67774163262E+02  0.67774163262E+02  0.00000000000E+00 0. -1.
         25    1    1    2    0    0  0.15521996546E+03 -0.19593878770E+03  0.11118381513E+04  0.11464267621E+04  0.12500000000E+03 0.  0.
         21    1    1    2  503  501 -0.34697052648E+01  0.29582749700E+02  0.16722500569E+02  0.34158746460E+02  0.00000000000E+00 0.  1.
          4    1    1    2  501    0 -0.15175026020E+03  0.16635603800E+03  0.26176057420E+03  0.34528404402E+03  0.00000000000E+00 0. -1.
<mgrwt>
<rscale>  4 0.27948210E+03</rscale>
<asrwt>0</asrwt>
<pdfrwt beam="1">  1       21 0.22432235E+00 0.27948210E+03</pdfrwt>
<pdfrwt beam="2">  1        4 0.10426795E-01 0.27948210E+03</pdfrwt>
<totfact> 0.27272738E+02</totfact>
</mgrwt>
</event>
<event>
 5    0  0.2947253E-001  0.2748698E+03  0.7546771E-02  0.1098524E+00
         21   -1    0    0  503  502  0.00000000000E+00  0.00000000000E+00  0.52941736883E+02  0.52941736883E+02  0.00000000000E+00 0.  1.
          2   -1    0    0  502    0 -0.00000000000E+00 -0.00000000000E+00 -0.14248124290E+04  0.14248124290E+04  0.00000000000E+00 0. -1.
         25    1    1    2    0    0 -0.74098006688E+02 -0.23331929874E+03 -0.49957989350E+03  0.57020477001E+03  0.12500000000E+03 0.  0.
         21    1    1    2  503  501  0.22698586382E+02  0.15602775585E+03 -0.54395678926E+03  0.56634695638E+03  0.00000000000E+00 0. -1.
          2    1    1    2  501    0  0.51399420306E+02  0.77291542894E+02 -0.32833400932E+03  0.34120243945E+03  0.00000000000E+00 0. -1.
<mgrwt>
<rscale>  4 0.27486981E+03</rscale>
<asrwt>0</asrwt>
<pdfrwt beam="1">  1       21 0.81448822E-02 0.27486981E+03</pdfrwt>
<pdfrwt beam="2">  1        2 0.21920192E+00 0.27486981E+03</pdfrwt>
<totfact> 0.21946050E+04</totfact>
</mgrwt>
</event>
<event>
 5    0  0.2947253E-001  0.3911289E+03  0.7546771E-02  0.1046895E+00
         21   -1    0    0  503  502  0.00000000000E+00  0.00000000000E+00  0.10055932400E+03  0.10055932400E+03  0.00000000000E+00 0. -1.
          2   -1    0    0  502    0 -0.00000000000E+00 -0.00000000000E+00 -0.24152165343E+04  0.24152165343E+04  0.00000000000E+00 0. -1.
         25    1    1    2    0    0  0.38320006062E+03  0.19817796669E+03 -0.90797338430E+03  0.10129943038E+04  0.12500000000E+03 0.  0.
         21    1    1    2  503  501 -0.18458970208E+03  0.67899625020E+02 -0.53376857933E+03  0.56885201369E+03  0.00000000000E+00 0. -1.
          2    1    1    2  501    0 -0.19861035855E+03 -0.26607759171E+03 -0.87291524665E+03  0.93392954079E+03  0.00000000000E+00 0. -1.
<mgrwt>
<rscale>  4 0.39112890E+03</rscale>
<asrwt>0</asrwt>
<pdfrwt beam="1">  1       21 0.15470665E-01 0.39112890E+03</pdfrwt>
<pdfrwt beam="2">  1        2 0.37157178E+00 0.39112890E+03</pdfrwt>
<totfact> 0.19729958E+03</totfact>
</mgrwt>
</event>
<event>
 5    0  0.2947253E-001  0.3457291E+03  0.7546771E-02  0.1068561E+00
         21   -1    0    0  503  502  0.00000000000E+00  0.00000000000E+00  0.14513976967E+03  0.14513976967E+03  0.00000000000E+00 0.  1.
          2   -1    0    0  502    0 -0.00000000000E+00 -0.00000000000E+00 -0.88210120274E+03  0.88210120274E+03  0.00000000000E+00 0.  1.
         25    1    1    2    0    0 -0.51702646819E+01 -0.28146516643E+03 -0.55936777373E+03  0.63856611078E+03  0.12500000000E+03 0.  0.
         21    1    1    2  503  501 -0.92046712653E+02  0.18085988253E+03 -0.80189877297E+02  0.21820474522E+03  0.00000000000E+00 0.  1.
          2    1    1    2  501    0  0.97216977334E+02  0.10060528391E+03 -0.97403782041E+02  0.17047011641E+03  0.00000000000E+00 0.  1.
<mgrwt>
<rscale>  4 0.33588891E+03</rscale>
<asrwt>0</asrwt>
<pdfrwt beam="1">  1       21 0.22329195E-01 0.34572914E+03</pdfrwt>
<pdfrwt beam="2">  1        2 0.13570788E+00 0.34572914E+03</pdfrwt>
<totfact> 0.71393591E+03</totfact>
</mgrwt>
</event>
<event>
 5    0  0.2947253E-001  0.3916216E+03  0.7546771E-02  0.1046720E+00
          2   -1    0    0  502    0 -0.00000000000E+00  0.00000000000E+00  0.15155463326E+04  0.15155463326E+04  0.00000000000E+00 0.  1.
         21   -1    0    0  503  502  0.00000000000E+00 -0.00000000000E+00 -0.80961620001E+03  0.80961620001E+03  0.00000000000E+00 0.  1.
         25    1    1    2    0    0 -0.24378550828E+03  0.27672264897E+03 -0.71530399062E+03  0.81442715911E+03  0.12500000000E+03 0.  0.
         21    1    1    2  503  501  0.28530788791E+03 -0.30734893154E+03  0.97277859729E+03  0.10593215546E+04  0.00000000000E+00 0.  1.
          2    1    1    2  501    0 -0.41522379630E+02  0.30626282569E+02  0.44845552589E+03  0.45141381890E+03  0.00000000000E+00 0.  1.
<mgrwt>
<rscale>  4 0.39162163E+03</rscale>
<asrwt>0</asrwt>
<pdfrwt beam="1">  1       21 0.12455634E+00 0.39162163E+03</pdfrwt>
<pdfrwt beam="2">  1        2 0.23316097E+00 0.39162163E+03</pdfrwt>
<totfact> 0.72189359E+01</totfact>
</mgrwt>
</event>
<event>
 5    0  0.2947253E-001  0.2816490E+03  0.7546771E-02  0.1094792E+00
         21   -1    0    0  503  502  0.00000000000E+00  0.00000000000E+00  0.27626114111E+03  0.27626114111E+03  0.00000000000E+00 0. -1.
          2   -1    0    0  502    0 -0.00000000000E+00 -0.00000000000E+00 -0.11587602124E+04  0.11587602124E+04  0.00000000000E+00 0. -1.
         25    1    1    2    0    0 -0.82599968811E+02  0.24393033886E+03  0.17283539337E+03  0.33439772467E+03  0.12500000000E+03 0.  0.
         21    1    1    2  503  501  0.70440449640E+02 -0.44742770975E+02 -0.13349585909E+03  0.15743226129E+03  0.00000000000E+00 0.  1.
          2    1    1    2  501    0  0.12159519171E+02 -0.19918756788E+03 -0.92183860556E+03  0.94319136754E+03  0.00000000000E+00 0. -1.
<mgrwt>
<rscale>  4 0.28164899E+03</rscale>
<asrwt>0</asrwt>
<pdfrwt beam="1">  1       21 0.42501714E-01 0.28164899E+03</pdfrwt>
<pdfrwt beam="2">  1        2 0.17827080E+00 0.28164899E+03</pdfrwt>
<totfact> 0.13747948E+03</totfact>
</mgrwt>
</event>
<event>
 5    0  0.2947253E-001  0.2845433E+03  0.7546771E-02  0.1093233E+00
         21   -1    0    0  501  502  0.00000000000E+00  0.00000000000E+00  0.75926248741E+03  0.75926248741E+03  0.00000000000E+00 0.  1.
         -2   -1    0    0    0  501 -0.00000000000E+00 -0.00000000000E+00 -0.14904642579E+03  0.14904642579E+03  0.00000000000E+00 0. -1.
         25    1    1    2    0    0 -0.25555139948E+03 -0.57751582032E+01  0.57013492182E+03  0.63719596618E+03  0.12500000000E+03 0.  0.
         21    1    1    2  501  501  0.46114054172E+02 -0.26364023712E+02  0.24944959656E+02  0.58684058745E+02  0.00000000000E+00 0.  1.
         -2    1    1    2    0  502  0.20943734531E+03  0.32139181916E+02  0.15136180140E+02  0.21242888827E+03  0.00000000000E+00 0. -1.
<mgrwt>
<rscale>  4 0.28454327E+03</rscale>
<asrwt>0</asrwt>
<pdfrwt beam="1">  1       21 0.11680961E+00 0.28454327E+03</pdfrwt>
<pdfrwt beam="2">  1       -2 0.22930220E-01 0.28454327E+03</pdfrwt>
<totfact> 0.71901459E+02</totfact>
</mgrwt>
</event>
<event>
 5    0  0.2947253E-001  0.3441511E+03  0.7546771E-02  0.1065042E+00
          1   -1    0    0  502    0 -0.00000000000E+00  0.00000000000E+00  0.14875147611E+04  0.14875147611E+04  0.00000000000E+00 0.  1.
         21   -1    0    0  503  502  0.00000000000E+00 -0.00000000000E+00 -0.13267655259E+03  0.13267655259E+03  0.00000000000E+00 0.  1.
         25    1    1    2    0    0  0.20403922691E+03 -0.29560157441E+03  0.44021751188E+03  0.58174629752E+03  0.12500000000E+03 0.  0.
         21    1    1    2  503  501 -0.20162998140E+02  0.30313858799E+03  0.50426479713E+03  0.58871260871E+03  0.00000000000E+00 0.  1.
          1    1    1    2  501    0 -0.18387622877E+03 -0.75370135824E+01  0.41035589948E+03  0.44973240746E+03  0.00000000000E+00 0.  1.
<mgrwt>
<rscale>  4 0.34415114E+03</rscale>
<asrwt>0</asrwt>
<pdfrwt beam="1">  1       21 0.20411778E-01 0.34415114E+03</pdfrwt>
<pdfrwt beam="2">  1        1 0.22884841E+00 0.34415114E+03</pdfrwt>
<totfact> 0.17283486E+03</totfact>
</mgrwt>
</event>
<event>
 5    0  0.2947253E-001  0.2403274E+03  0.7546771E-02  0.1119575E+00
          2   -1    0    0  502    0 -0.00000000000E+00  0.00000000000E+00  0.22024732746E+04  0.22024732746E+04  0.00000000000E+00 0.  1.
         21   -1    0    0  503  502  0.00000000000E+00 -0.00000000000E+00 -0.32239674057E+02  0.32239674057E+02  0.00000000000E+00 0.  1.
         25    1    1    2    0    0 -0.17218183586E+03 -0.13046097611E+03  0.10858649857E+04  0.11141788088E+04  0.12500000000E+03 0.  0.
         21    1    1    2  503  501  0.53491860753E+01  0.20264848589E+02  0.54331851842E+03  0.54372262261E+03  0.00000000000E+00 0. -1.
          2    1    1    2  501    0  0.16683264978E+03  0.11019612752E+03  0.54105009647E+03  0.57681151726E+03  0.00000000000E+00 0.  1.
<mgrwt>
<rscale>  4 0.24032743E+03</rscale>
<asrwt>0</asrwt>
<pdfrwt beam="1">  1       21 0.49599516E-02 0.24032743E+03</pdfrwt>
<pdfrwt beam="2">  1        2 0.33884193E+00 0.24032743E+03</pdfrwt>
<totfact> 0.20265611E+04</totfact>
</mgrwt>
</event>
<event>
 5    0  0.2947253E-001  0.2727627E+03  0.7546771E-02  0.1099709E+00
          2   -1    0    0  502    0 -0.00000000000E+00  0.00000000000E+00  0.10789010283E+04  0.10789010283E+04  0.00000000000E+00 0. -1.
         21   -1    0    0  503  502  0.00000000000E+00 -0.00000000000E+00 -0.67540860751E+02  0.67540860751E+02  0.00000000000E+00 0.  1.
         25    1    1    2    0    0  0.21552658381E+03 -0.11100792643E+03  0.40116437783E+03  0.48511063284E+03  0.12500000000E+03 0.  0.
         21    1    1    2  503  501 -0.25459525291E+02  0.39036399792E+02  0.69303053178E+02  0.83516112915E+02  0.00000000000E+00 0. -1.
          2    1    1    2  501    0 -0.19006705852E+03  0.71971526633E+02  0.54089273657E+03  0.57781514332E+03  0.00000000000E+00 0. -1.
<mgrwt>
<rscale>  4 0.27276266E+03</rscale>
<asrwt>0</asrwt>
<pdfrwt beam="1">  1       21 0.10390902E-01 0.27276266E+03</pdfrwt>
<pdfrwt beam="2">  1        2 0.16598476E+00 0.27276266E+03</pdfrwt>
<totfact> 0.22356800E+04</totfact>
</mgrwt>
</event>
<event>
 5    0  0.2947253E-001  0.2537691E+03  0.7546771E-02  0.1110946E+00
         21   -1    0    0  503  502  0.00000000000E+00  0.00000000000E+00  0.34269691076E+03  0.34269691076E+03  0.00000000000E+00 0. -1.
          2   -1    0    0  502    0 -0.00000000000E+00 -0.00000000000E+00 -0.19094016659E+04  0.19094016659E+04  0.00000000000E+00 0.  1.
         25    1    1    2    0    0  0.20891061341E+03  0.71624930344E+02  0.28629965442E+03  0.38257844577E+03  0.12500000000E+03 0.  0.
         21    1    1    2  503  501 -0.57139581896E+02 -0.76923169307E+02 -0.67522362842E+03  0.68198904257E+03  0.00000000000E+00 0. -1.
          2    1    1    2  501    0 -0.15177103152E+03  0.52982389627E+01 -0.11777807812E+04  0.11875310884E+04  0.00000000000E+00 0.  1.
<mgrwt>
<rscale>  4 0.25376914E+03</rscale>
<asrwt>0</asrwt>
<pdfrwt beam="1">  1       21 0.52722601E-01 0.25376914E+03</pdfrwt>
<pdfrwt beam="2">  1        2 0.29375410E+00 0.25376914E+03</pdfrwt>
<totfact> 0.35015513E+02</totfact>
</mgrwt>
</event>
<event>
 5    0  0.2947253E-001  0.4573795E+03  0.7546771E-02  0.1025544E+00
         21   -1    0    0  501  502  0.00000000000E+00  0.00000000000E+00  0.49299514544E+03  0.49299514544E+03  0.00000000000E+00 0. -1.
         -2   -1    0    0    0  501 -0.00000000000E+00 -0.00000000000E+00 -0.86336007040E+03  0.86336007040E+03  0.00000000000E+00 0.  1.
         25    1    1    2    0    0 -0.21120811270E+03  0.37113638926E+03  0.20962561065E+03  0.49185260287E+03  0.12500000000E+03 0.  0.
         21    1    1    2  501  501  0.68406856767E+02  0.11365129330E+03 -0.87971395171E+02  0.15916997484E+03  0.00000000000E+00 0.  1.
         -2    1    1    2    0  502  0.14280125593E+03 -0.48478768256E+03 -0.49201914045E+03  0.70533263814E+03  0.00000000000E+00 0.  1.
<mgrwt>
<rscale>  4 0.45737949E+03</rscale>
<asrwt>0</asrwt>
<pdfrwt beam="1">  1       21 0.75845407E-01 0.45737949E+03</pdfrwt>
<pdfrwt beam="2">  1       -2 0.13282463E+00 0.45737949E+03</pdfrwt>
<totfact> 0.49475758E+01</totfact>
</mgrwt>
</event>
<event>
 5    0  0.2947253E-001  0.2436813E+03  0.7546771E-02  0.1117364E+00
          2   -1    0    0  502    0 -0.00000000000E+00  0.00000000000E+00  0.15707256366E+04  0.15707256366E+04  0.00000000000E+00 0.  1.
         21   -1    0    0  503  502  0.00000000000E+00 -0.00000000000E+00 -0.90123679721E+02  0.90123679721E+02  0.00000000000E+00 0. -1.
         25    1    1    2    0    0  0.20965335601E+03 -0.15377715657E+02  0.10449479110E+03  0.26596083395E+03  0.12500000000E+03 0.  0.
         21    1    1    2  503  501 -0.98771449990E+01 -0.17785787753E+02  0.61572422014E+02  0.64846398451E+02  0.00000000000E+00 0.  1.
          2    1    1    2  501    0 -0.19977621101E+03  0.33163503410E+02  0.13145347438E+04  0.13300420839E+04  0.00000000000E+00 0.  1.
<mgrwt>
<rscale>  4 0.24368133E+03</rscale>
<asrwt>0</asrwt>
<pdfrwt beam="1">  1       21 0.13865183E-01 0.24368133E+03</pdfrwt>
<pdfrwt beam="2">  1        2 0.24165008E+00 0.24368133E+03</pdfrwt>
<totfact> 0.71466743E+03</totfact>
</mgrwt>
</event>
<event>
 5    0  0.2947253E-001  0.2634985E+03  0.7546771E-02  0.1105059E+00
          1   -1    0    0  502    0 -0.00000000000E+00  0.00000000000E+00  0.11000627162E+04  0.11000627162E+04  0.00000000000E+00 0.  1.
         21   -1    0    0  503  502  0.00000000000E+00 -0.00000000000E+00 -0.85708283339E+02  0.85708283339E+02  0.00000000000E+00 0.  1.
         25    1    1    2    0    0 -0.11342616314E+03 -0.19639629178E+03  0.20218249017E+03  0.32854186528E+03  0.12500000000E+03 0.  0.
         21    1    1    2  503  501  0.13833029305E+03  0.20401480864E+03  0.70187051835E+03  0.74389484246E+03  0.00000000000E+00 0.  1.
          1    1    1    2  501    0 -0.24904129911E+02 -0.76185168618E+01  0.11030142437E+03  0.11333429183E+03  0.00000000000E+00 0.  1.
<mgrwt>
<rscale>  4 0.26349849E+03</rscale>
<asrwt>0</asrwt>
<pdfrwt beam="1">  1       21 0.13185891E-01 0.26349849E+03</pdfrwt>
<pdfrwt beam="2">  1        1 0.16924041E+00 0.26349849E+03</pdfrwt>
<totfact> 0.73710156E+03</totfact>
</mgrwt>
</event>
<event>
 5    0  0.2947253E-001  0.2383724E+03  0.7546771E-02  0.1120882E+00
         21   -1    0    0  503  502  0.00000000000E+00  0.00000000000E+00  0.18828272420E+03  0.18828272420E+03  0.00000000000E+00 0. -1.
          3   -1    0    0  502    0 -0.00000000000E+00 -0.00000000000E+00 -0.30066046524E+03  0.30066046524E+03  0.00000000000E+00 0. -1.
         25    1    1    2    0    0  0.19828300704E+03 -0.60483311301E+02 -0.92785478826E+02  0.25924607405E+03  0.12500000000E+03 0.  0.
         21    1    1    2  503  501 -0.15542539046E+01  0.29418869389E+02 -0.60219121642E+01  0.30069070611E+02  0.00000000000E+00 0. -1.
          3    1    1    2  501    0 -0.19672875314E+03  0.31064441912E+02 -0.13570350043E+02  0.19962804478E+03  0.00000000000E+00 0. -1.
<mgrwt>
<rscale>  4 0.23837243E+03</rscale>
<asrwt>0</asrwt>
<pdfrwt beam="1">  1       21 0.28966573E-01 0.23837243E+03</pdfrwt>
<pdfrwt beam="2">  1        3 0.46255456E-01 0.23837243E+03</pdfrwt>
<totfact> 0.26289334E+03</totfact>
</mgrwt>
</event>
<event>
 5    0  0.2947253E-001  0.2422924E+03  0.7546771E-02  0.1118275E+00
          1   -1    0    0  502    0 -0.00000000000E+00  0.00000000000E+00  0.33984529882E+04  0.33984529882E+04  0.00000000000E+00 0. -1.
         21   -1    0    0  503  502  0.00000000000E+00 -0.00000000000E+00 -0.16386429728E+03  0.16386429728E+03  0.00000000000E+00 0.  1.
         25    1    1    2    0    0  0.12468650845E+03  0.16370259332E+03 -0.62699802012E+02  0.24880018011E+03  0.12500000000E+03 0.  0.
         21    1    1    2  503  501  0.36300052052E+02  0.20722775806E+02  0.13839725592E+04  0.13846036154E+04  0.00000000000E+00 0. -1.
          1    1    1    2  501    0 -0.16098656050E+03 -0.18442536913E+03  0.19133159338E+04  0.19289134900E+04  0.00000000000E+00 0. -1.
<mgrwt>
<rscale>  4 0.24229245E+03</rscale>
<asrwt>0</asrwt>
<pdfrwt beam="1">  1       21 0.25209894E-01 0.24229245E+03</pdfrwt>
<pdfrwt beam="2">  1        1 0.52283887E+00 0.24229245E+03</pdfrwt>
<totfact> 0.62138676E+01</totfact>
</mgrwt>
</event>
<event>
 5    0  0.2947253E-001  0.2863155E+03  0.7546771E-02  0.1092289E+00
          2   -1    0    0  502    0 -0.00000000000E+00  0.00000000000E+00  0.11951079095E+04  0.11951079095E+04  0.00000000000E+00 0.  1.
         21   -1    0    0  503  502  0.00000000000E+00 -0.00000000000E+00 -0.25949511230E+03  0.25949511230E+03  0.00000000000E+00 0. -1.
         25    1    1    2    0    0  0.53976790064E+01  0.25784744898E+03 -0.15022178900E+03  0.32358310798E+03  0.12500000000E+03 0.  0.
         21    1    1    2  503  501  0.49028346136E+02 -0.53886919514E+01  0.94505878357E+02  0.10660289757E+03  0.00000000000E+00 0. -1.
          2    1    1    2  501    0 -0.54426025142E+02 -0.25245875703E+03  0.99132870787E+03  0.10244170163E+04  0.00000000000E+00 0.  1.
<mgrwt>
<rscale>  4 0.28631546E+03</rscale>
<asrwt>0</asrwt>
<pdfrwt beam="1">  1       21 0.39922326E-01 0.28631546E+03</pdfrwt>
<pdfrwt beam="2">  1        2 0.18386275E+00 0.28631546E+03</pdfrwt>
<totfact> 0.14867068E+03</totfact>
</mgrwt>
</event>
<event>
 5    0  0.2947253E-001  0.2809257E+03  0.7546771E-02  0.1095184E+00
          1   -1    0    0  502    0 -0.00000000000E+00  0.00000000000E+00  0.17710108267E+03  0.17710108267E+03  0.00000000000E+00 0. -1.
         21   -1    0    0  503  502  0.00000000000E+00 -0.00000000000E+00 -0.47422786322E+03  0.47422786322E+03  0.00000000000E+00 0. -1.
         25    1    1    2    0    0  0.16467000309E+03 -0.19020523725E+03 -0.26918504374E+03  0.38907560958E+03  0.12500000000E+03 0.  0.
         21    1    1    2  503  501 -0.60170477004E+02  0.89010114086E+02 -0.43593474085E+02  0.11594687445E+03  0.00000000000E+00 0. -1.
          1    1    1    2  501    0 -0.10449952609E+03  0.10119512316E+03  0.15651737276E+02  0.14630646186E+03  0.00000000000E+00 0. -1.
<mgrwt>
<rscale>  4 0.28092569E+03</rscale>
<asrwt>0</asrwt>
<pdfrwt beam="1">  1       21 0.72958132E-01 0.28092569E+03</pdfrwt>
<pdfrwt beam="2">  1        1 0.27246321E-01 0.28092569E+03</pdfrwt>
<totfact> 0.30519301E+03</totfact>
</mgrwt>
</event>
<event>
 5    0  0.2947253E-001  0.2232176E+03  0.7546771E-02  0.1131507E+00
          2   -1    0    0  502    0 -0.00000000000E+00  0.00000000000E+00  0.20545943473E+04  0.20545943473E+04  0.00000000000E+00 0. -1.
         21   -1    0    0  503  502  0.00000000000E+00 -0.00000000000E+00 -0.75698657815E+02  0.75698657815E+02  0.00000000000E+00 0. -1.
         25    1    1    2    0    0 -0.64142122834E+02 -0.20492919621E+03  0.42301412662E+03  0.49058754438E+03  0.12500000000E+03 0.  0.
         21    1    1    2  503  501  0.92614568671E+02  0.28664968050E+02  0.13980209892E+04  0.14013785444E+04  0.00000000000E+00 0. -1.
          2    1    1    2  501    0 -0.28472445837E+02  0.17626422816E+03  0.15786057375E+03  0.23832691633E+03  0.00000000000E+00 0. -1.
<mgrwt>
<rscale>  4 0.22321764E+03</rscale>
<asrwt>0</asrwt>
<pdfrwt beam="1">  1       21 0.11645949E-01 0.22321764E+03</pdfrwt>
<pdfrwt beam="2">  1        2 0.31609139E+00 0.22321764E+03</pdfrwt>
<totfact> 0.55062881E+03</totfact>
</mgrwt>
</event>
<event>
 5    0  0.2947253E-001  0.2403278E+03  0.7546771E-02  0.1119575E+00
         -2   -1    0    0    0  501 -0.00000000000E+00  0.00000000000E+00  0.28474799961E+03  0.28474799961E+03  0.00000000000E+00 0.  1.
         21   -1    0    0  501  502  0.00000000000E+00 -0.00000000000E+00 -0.23129630348E+03  0.23129630348E+03  0.00000000000E+00 0.  1.
         25    1    1    2    0    0  0.97484751003E+02 -0.18321165129E+03 -0.44232450758E+02  0.24627483742E+03  0.12500000000E+03 0.  0.
         21    1    1    2  501  501 -0.33094708843E+02 -0.10340675301E+02  0.49054477538E+02  0.60071050312E+02  0.00000000000E+00 0. -1.
         -2    1    1    2    0  502 -0.64390042160E+02  0.19355232660E+03  0.48629669345E+02  0.20969841535E+03  0.00000000000E+00 0.  1.
<mgrwt>
<rscale>  4 0.24032780E+03</rscale>
<asrwt>0</asrwt>
<pdfrwt beam="1">  1       21 0.35584047E-01 0.24032780E+03</pdfrwt>
<pdfrwt beam="2">  1       -2 0.43807385E-01 0.24032780E+03</pdfrwt>
<totfact> 0.30438234E+03</totfact>
</mgrwt>
</event>
<event>
 5    0  0.2947253E-001  0.3576278E+03  0.7546771E-02  0.1059527E+00
         21   -1    0    0  503  502  0.00000000000E+00  0.00000000000E+00  0.30691698010E+03  0.30691698010E+03  0.00000000000E+00 0. -1.
          2   -1    0    0  502    0 -0.00000000000E+00 -0.00000000000E+00 -0.18289205167E+04  0.18289205167E+04  0.00000000000E+00 0. -1.
         25    1    1    2    0    0 -0.18147866532E+01  0.33506621526E+03  0.17943278236E+03  0.40011721463E+03  0.12500000000E+03 0.  0.
         21    1    1    2  503  501  0.19855481938E+02 -0.72918452132E+02 -0.27055629183E+03  0.28091288307E+03  0.00000000000E+00 0.  1.
          2    1    1    2  501    0 -0.18040695285E+02 -0.26214776313E+03 -0.14308800271E+04  0.14548073991E+04  0.00000000000E+00 0. -1.
<mgrwt>
<rscale>  4 0.35762783E+03</rscale>
<asrwt>0</asrwt>
<pdfrwt beam="1">  1       21 0.47217997E-01 0.35762783E+03</pdfrwt>
<pdfrwt beam="2">  1        2 0.28137239E+00 0.35762783E+03</pdfrwt>
<totfact> 0.46191864E+02</totfact>
</mgrwt>
</event>
<event>
 5    0  0.2947253E-001  0.2539503E+03  0.7546771E-02  0.1110833E+00
          2   -1    0    0  502    0 -0.00000000000E+00  0.00000000000E+00  0.10500545335E+04  0.10500545335E+04  0.00000000000E+00 0.  1.
         21   -1    0    0  503  502  0.00000000000E+00 -0.00000000000E+00 -0.15670621818E+04  0.15670621818E+04  0.00000000000E+00 0.  1.
         25    1    1    2    0    0 -0.29772431934E+02 -0.22136368190E+03 -0.15380145292E+04  0.15591670756E+04  0.12500000000E+03 0.  0.
         21    1    1    2  503  501 -0.62719919659E+02  0.12880145071E+03  0.45532792916E+03  0.47733334799E+03  0.00000000000E+00 0.  1.
          2    1    1    2  501    0  0.92492351593E+02  0.92562231194E+02  0.56567895176E+03  0.58061629172E+03  0.00000000000E+00 0.  1.
<mgrwt>
<rscale>  4 0.25395031E+03</rscale>
<asrwt>0</asrwt>
<pdfrwt beam="1">  1       21 0.24108649E+00 0.25395031E+03</pdfrwt>
<pdfrwt beam="2">  1        2 0.16154685E+00 0.25395031E+03</pdfrwt>
<totfact> 0.21801005E+01</totfact>
</mgrwt>
</event>
<event>
 5    0  0.2947253E-001  0.4995735E+03  0.7546771E-02  0.1013890E+00
         21   -1    0    0  503  502  0.00000000000E+00  0.00000000000E+00  0.17324558623E+03  0.17324558623E+03  0.00000000000E+00 0.  1.
          2   -1    0    0  502    0 -0.00000000000E+00 -0.00000000000E+00 -0.18475085756E+04  0.18475085756E+04  0.00000000000E+00 0. -1.
         25    1    1    2    0    0  0.30553475547E+03  0.37496287383E+03 -0.35922536954E+03  0.61531821822E+03  0.12500000000E+03 0.  0.
         21    1    1    2  503  501 -0.19236873832E+02 -0.32066472697E+02 -0.41671740519E+02  0.55989730701E+02  0.00000000000E+00 0. -1.
          2    1    1    2  501    0 -0.28629788164E+03 -0.34289640114E+03 -0.12733658793E+04  0.13494462129E+04  0.00000000000E+00 0. -1.
<mgrwt>
<rscale>  4 0.49957346E+03</rscale>
<asrwt>0</asrwt>
<pdfrwt beam="1">  1       21 0.26653169E-01 0.49957346E+03</pdfrwt>
<pdfrwt beam="2">  1        2 0.28423207E+00 0.49957346E+03</pdfrwt>
<totfact> 0.13756659E+03</totfact>
</mgrwt>
</event>
<event>
 5    0  0.2947253E-001  0.3483551E+03  0.7546771E-02  0.1063292E+00
          2   -1    0    0  502    0 -0.00000000000E+00  0.00000000000E+00  0.65736488006E+03  0.65736488006E+03  0.00000000000E+00 0.  1.
         21   -1    0    0  503  502  0.00000000000E+00 -0.00000000000E+00 -0.56462675058E+03  0.56462675058E+03  0.00000000000E+00 0. -1.
         25    1    1    2    0    0  0.28432150595E+03 -0.15775790548E+03 -0.45663161314E+03  0.57433762336E+03  0.12500000000E+03 0.  0.
         21    1    1    2  503  501 -0.67460454316E+02  0.66489326079E+02  0.85841905013E+02  0.12783026260E+03  0.00000000000E+00 0. -1.
          2    1    1    2  501    0 -0.21686105163E+03  0.91268579406E+02  0.46352783760E+03  0.51982374468E+03  0.00000000000E+00 0.  1.
<mgrwt>
<rscale>  4 0.34835510E+03</rscale>
<asrwt>0</asrwt>
<pdfrwt beam="1">  1       21 0.86865654E-01 0.34835510E+03</pdfrwt>
<pdfrwt beam="2">  1        2 0.10113306E+00 0.34835510E+03</pdfrwt>
<totfact> 0.60464361E+02</totfact>
</mgrwt>
</event>
<event>
 5    0  0.2947253E-001  0.2305790E+03  0.7546771E-02  0.1126233E+00
          1   -1    0    0  502    0 -0.00000000000E+00  0.00000000000E+00  0.81133668466E+03  0.81133668466E+03  0.00000000000E+00 0.  1.
         21   -1    0    0  503  502  0.00000000000E+00 -0.00000000000E+00 -0.24858914014E+03  0.24858914014E+03  0.00000000000E+00 0.  1.
         25    1    1    2    0    0  0.71662955540E+02  0.21853522558E+03 -0.12649390177E+03  0.29072139791E+03  0.12500000000E+03 0.  0.
         21    1    1    2  503  501  0.48385112529E+02 -0.68391824391E+02  0.41409059355E+02  0.93451971379E+02  0.00000000000E+00 0.  1.
          1    1    1    2  501    0 -0.12004806807E+03 -0.15014340119E+03  0.64783238694E+03  0.67575245551E+03  0.00000000000E+00 0.  1.
<mgrwt>
<rscale>  4 0.23057902E+03</rscale>
<asrwt>0</asrwt>
<pdfrwt beam="1">  1       21 0.38244483E-01 0.23057902E+03</pdfrwt>
<pdfrwt beam="2">  1        1 0.12482103E+00 0.23057902E+03</pdfrwt>
<totfact> 0.16324944E+03</totfact>
</mgrwt>
</event>
<event>
 5    0  0.3660327E-001  0.2479670E+03  0.7546771E-02  0.1114596E+00
         21   -1    0    0  501  502  0.00000000000E+00  0.00000000000E+00  0.23077994002E+03  0.23077994002E+03  0.00000000000E+00 0.  1.
         -2   -1    0    0    0  501 -0.00000000000E+00 -0.00000000000E+00 -0.60268768704E+03  0.60268768704E+03  0.00000000000E+00 0.  1.
         25    1    1    2    0    0 -0.45325738875E+02 -0.23763194650E+03  0.10249275744E+03  0.29095210934E+03  0.12500000000E+03 0.  0.
         21    1    1    2  501  501  0.75799874310E+01  0.30103333317E+02 -0.10263073711E+02  0.32695528261E+02  0.00000000000E+00 0.  1.
         -2    1    1    2    0  502  0.37745751444E+02  0.20752861318E+03 -0.46413743074E+03  0.50981998947E+03  0.00000000000E+00 0.  1.
<mgrwt>
<rscale>  4 0.24796702E+03</rscale>
<asrwt>0</asrwt>
<pdfrwt beam="1">  1       21 0.35504606E-01 0.24796702E+03</pdfrwt>
<pdfrwt beam="2">  1       -2 0.92721183E-01 0.24796702E+03</pdfrwt>
<totfact> 0.62881945E+02</totfact>
</mgrwt>
</event>
<event>
 5    0  0.2947253E-001  0.6073767E+03  0.7546771E-02  0.9898448E-01
         21   -1    0    0  503  502  0.00000000000E+00  0.00000000000E+00  0.31028420113E+03  0.31028420113E+03  0.00000000000E+00 0.  1.
          1   -1    0    0  502    0 -0.00000000000E+00 -0.00000000000E+00 -0.16034105838E+04  0.16034105838E+04  0.00000000000E+00 0.  1.
         25    1    1    2    0    0  0.43318560725E+03 -0.38286697928E+03 -0.13611600135E+03  0.60695095352E+03  0.12500000000E+03 0.  0.
         21    1    1    2  503  501 -0.37290662600E+03  0.31018212875E+03 -0.78357010691E+03  0.92155000795E+03  0.00000000000E+00 0.  1.
          1    1    1    2  501    0 -0.60278981244E+02  0.72684850534E+02 -0.37344027445E+03  0.38519382350E+03  0.00000000000E+00 0.  1.
<mgrwt>
<rscale>  4 0.60336576E+03</rscale>
<asrwt>0</asrwt>
<pdfrwt beam="1">  1       21 0.47736030E-01 0.60737667E+03</pdfrwt>
<pdfrwt beam="2">  1        1 0.24667856E+00 0.60737667E+03</pdfrwt>
<totfact> 0.24553390E+02</totfact>
</mgrwt>
</event>
<event>
 5    0  0.3035367E-001  0.3728680E+03  0.7546771E-02  0.1053602E+00
         21   -1    0    0  503  502  0.00000000000E+00  0.00000000000E+00  0.26863644697E+03  0.26863644697E+03  0.00000000000E+00 0. -1.
          2   -1    0    0  502    0 -0.00000000000E+00 -0.00000000000E+00 -0.19413971830E+04  0.19413971830E+04  0.00000000000E+00 0.  1.
         25    1    1    2    0    0 -0.32770917688E+03 -0.13241264713E+03  0.10803475707E+03  0.39015756108E+03  0.12500000000E+03 0.  0.
         21    1    1    2  503  501  0.34220102404E+02 -0.83027641260E+01 -0.69590205390E+02  0.77991973862E+02  0.00000000000E+00 0. -1.
          2    1    1    2  501    0  0.29348907448E+03  0.14071541125E+03 -0.17112052877E+04  0.17418840951E+04  0.00000000000E+00 0.  1.
<mgrwt>
<rscale>  4 0.37286797E+03</rscale>
<asrwt>0</asrwt>
<pdfrwt beam="1">  1       21 0.41328684E-01 0.37286797E+03</pdfrwt>
<pdfrwt beam="2">  1        2 0.29867649E+00 0.37286797E+03</pdfrwt>
<totfact> 0.52778010E+02</totfact>
</mgrwt>
</event>
<event>
 5    0  0.2947253E-001  0.2317564E+03  0.7546771E-02  0.1125410E+00
         21   -1    0    0  503  502  0.00000000000E+00  0.00000000000E+00  0.13082880942E+03  0.13082880942E+03  0.00000000000E+00 0. -1.
          1   -1    0    0  502    0 -0.00000000000E+00 -0.00000000000E+00 -0.94796274726E+03  0.94796274726E+03  0.00000000000E+00 0. -1.
         25    1    1    2    0    0 -0.15854913456E+03 -0.14695309289E+03 -0.37990776467E+02  0.25258926873E+03  0.12500000000E+03 0.  0.
         21    1    1    2  503  501  0.45898109112E+02 -0.99733988221E+01 -0.38350478989E+02  0.60637153156E+02  0.00000000000E+00 0.  1.
          1    1    1    2  501    0  0.11265102544E+03  0.15692649171E+03 -0.74079268239E+03  0.76556513480E+03  0.00000000000E+00 0. -1.
<mgrwt>
<rscale>  4 0.23175643E+03</rscale>
<asrwt>0</asrwt>
<pdfrwt beam="1">  1       21 0.20127508E-01 0.23175643E+03</pdfrwt>
<pdfrwt beam="2">  1        1 0.14584043E+00 0.23175643E+03</pdfrwt>
<totfact> 0.44217965E+03</totfact>
</mgrwt>
</event>
<event>
 5    0  0.2947253E-001  0.2623142E+03  0.7546771E-02  0.1105761E+00
         21   -1    0    0  503  502  0.00000000000E+00  0.00000000000E+00  0.16140252804E+03  0.16140252804E+03  0.00000000000E+00 0. -1.
          2   -1    0    0  502    0 -0.00000000000E+00 -0.00000000000E+00 -0.81026037530E+03  0.81026037530E+03  0.00000000000E+00 0. -1.
         25    1    1    2    0    0 -0.84921085112E+02  0.22011437504E+03  0.77414877391E+01  0.26710832901E+03  0.12500000000E+03 0.  0.
         21    1    1    2  503  501 -0.20497453380E+02 -0.37424133911E+02 -0.14592938584E+03  0.15203978771E+03  0.00000000000E+00 0. -1.
          2    1    1    2  501    0  0.10541853849E+03 -0.18269024113E+03 -0.51066994916E+03  0.55251478662E+03  0.00000000000E+00 0. -1.
<mgrwt>
<rscale>  4 0.26231416E+03</rscale>
<asrwt>0</asrwt>
<pdfrwt beam="1">  1       21 0.24831158E-01 0.26231416E+03</pdfrwt>
<pdfrwt beam="2">  1        2 0.12465544E+00 0.26231416E+03</pdfrwt>
<totfact> 0.66354450E+03</totfact>
</mgrwt>
</event>
<event>
 5    0  0.2947253E-001  0.2525711E+03  0.7546771E-02  0.1111691E+00
          2   -1    0    0  502    0 -0.00000000000E+00  0.00000000000E+00  0.14642695009E+04  0.14642695009E+04  0.00000000000E+00 0. -1.
         21   -1    0    0  503  502  0.00000000000E+00 -0.00000000000E+00 -0.90337830125E+02  0.90337830125E+02  0.00000000000E+00 0.  1.
         25    1    1    2    0    0  0.39884716044E+02 -0.21581554815E+03  0.12039956613E+03  0.27980028042E+03  0.12500000000E+03 0.  0.
         21    1    1    2  503  501 -0.39223533480E+02  0.41730795419E+02  0.27325930397E+03  0.27919633248E+03  0.00000000000E+00 0.  1.
          2    1    1    2  501    0 -0.66118256427E+00  0.17408475273E+03  0.98027280067E+03  0.99561071811E+03  0.00000000000E+00 0. -1.
<mgrwt>
<rscale>  4 0.25257106E+03</rscale>
<asrwt>0</asrwt>
<pdfrwt beam="1">  1       21 0.13898129E-01 0.25257106E+03</pdfrwt>
<pdfrwt beam="2">  1        2 0.22527221E+00 0.25257106E+03</pdfrwt>
<totfact> 0.80863043E+03</totfact>
</mgrwt>
</event>
<event>
 5    0  0.2947253E-001  0.2634698E+03  0.7546771E-02  0.1105076E+00
          2   -1    0    0  502    0 -0.00000000000E+00  0.00000000000E+00  0.31340584881E+04  0.31340584881E+04  0.00000000000E+00 0. -1.
         21   -1    0    0  503  502  0.00000000000E+00 -0.00000000000E+00 -0.26193222052E+02  0.26193222052E+02  0.00000000000E+00 0. -1.
         25    1    1    2    0    0 -0.51717362232E+02 -0.23312509170E+03  0.17699390741E+04  0.17903439111E+04  0.12500000000E+03 0.  0.
         21    1    1    2  503  501  0.57815871951E+02  0.25047063418E+01  0.39237360706E+03  0.39661819944E+03  0.00000000000E+00 0.  1.
          2    1    1    2  501    0 -0.60985097187E+01  0.23062038536E+03  0.94555258481E+03  0.97328959955E+03  0.00000000000E+00 0. -1.
<mgrwt>
<rscale>  4 0.26346977E+03</rscale>
<asrwt>0</asrwt>
<pdfrwt beam="1">  1       21 0.40297289E-02 0.26346977E+03</pdfrwt>
<pdfrwt beam="2">  1        2 0.48216255E+00 0.26346977E+03</pdfrwt>
<totfact> 0.85521254E+03</totfact>
</mgrwt>
</event>
<event>
 5    0  0.2990680E-001  0.2955049E+03  0.7546771E-02  0.1087510E+00
         21   -1    0    0  503  502  0.00000000000E+00  0.00000000000E+00  0.28534623417E+03  0.28534623417E+03  0.00000000000E+00 0.  1.
          2   -1    0    0  502    0 -0.00000000000E+00 -0.00000000000E+00 -0.77427604722E+03  0.77427604722E+03  0.00000000000E+00 0. -1.
         25    1    1    2    0    0  0.14805784074E+03 -0.22714813127E+03  0.16749771501E+03  0.34234176239E+03  0.12500000000E+03 0.  0.
         21    1    1    2  503  501 -0.51623182165E+01  0.30944250914E+02 -0.22882328033E+02  0.38830363508E+02  0.00000000000E+00 0. -1.
          2    1    1    2  501    0 -0.14289552252E+03  0.19620388036E+03 -0.63354520002E+03  0.67845015549E+03  0.00000000000E+00 0. -1.
<mgrwt>
<rscale>  4 0.29550486E+03</rscale>
<asrwt>0</asrwt>
<pdfrwt beam="1">  1       21 0.43899422E-01 0.29550486E+03</pdfrwt>
<pdfrwt beam="2">  1        2 0.11911939E+00 0.29550486E+03</pdfrwt>
<totfact> 0.22404661E+03</totfact>
</mgrwt>
</event>
<event>
 5    0  0.2947253E-001  0.2681192E+03  0.7546771E-02  0.1102361E+00
         21   -1    0    0  503  502  0.00000000000E+00  0.00000000000E+00  0.71104066584E+03  0.71104066584E+03  0.00000000000E+00 0.  1.
          3   -1    0    0  502    0 -0.00000000000E+00 -0.00000000000E+00 -0.22354122281E+03  0.22354122281E+03  0.00000000000E+00 0.  1.
         25    1    1    2    0    0 -0.75280106330E+02 -0.22493518009E+03  0.60103680219E+03  0.65812853398E+03  0.12500000000E+03 0.  0.
         21    1    1    2  503  501  0.60007242346E+02  0.85199603975E+02 -0.16171085615E+02  0.10545779090E+03  0.00000000000E+00 0.  1.
          3    1    1    2  501    0  0.15272863984E+02  0.13973557611E+03 -0.97366273537E+02  0.17099556377E+03  0.00000000000E+00 0.  1.
<mgrwt>
<rscale>  4 0.26811925E+03</rscale>
<asrwt>0</asrwt>
<pdfrwt beam="1">  1       21 0.10939087E+00 0.26811925E+03</pdfrwt>
<pdfrwt beam="2">  1        3 0.34390958E-01 0.26811925E+03</pdfrwt>
<totfact> 0.26536635E+02</totfact>
</mgrwt>
</event>
<event>
 5    0  0.2947253E-001  0.3218459E+03  0.7546771E-02  0.1074803E+00
          2   -1    0    0  502    0 -0.00000000000E+00  0.00000000000E+00  0.86530315954E+03  0.86530315954E+03  0.00000000000E+00 0. -1.
         21   -1    0    0  503  502  0.00000000000E+00 -0.00000000000E+00 -0.23915943422E+03  0.23915943422E+03  0.00000000000E+00 0. -1.
         25    1    1    2    0    0 -0.21567181262E+03 -0.21100097105E+03 -0.57262200232E+02  0.33157156108E+03  0.12500000000E+03 0.  0.
         21    1    1    2  503  501  0.16145015630E+03  0.23171632370E+03  0.44135528831E+03  0.52397814664E+03  0.00000000000E+00 0. -1.
          2    1    1    2  501    0  0.54221656318E+02 -0.20715352644E+02  0.24205063725E+03  0.24891288605E+03  0.00000000000E+00 0. -1.
<mgrwt>
<rscale>  4 0.32184589E+03</rscale>
<asrwt>0</asrwt>
<pdfrwt beam="1">  1       21 0.36793760E-01 0.32184589E+03</pdfrwt>
<pdfrwt beam="2">  1        2 0.13312356E+00 0.32184589E+03</pdfrwt>
<totfact> 0.27613844E+03</totfact>
</mgrwt>
</event>
<event>
 5    0  0.2947253E-001  0.2669572E+03  0.7546771E-02  0.1103034E+00
         21   -1    0    0  501  502  0.00000000000E+00  0.00000000000E+00  0.24035029173E+04  0.24035029173E+04  0.00000000000E+00 0. -1.
         -1   -1    0    0    0  501 -0.00000000000E+00 -0.00000000000E+00 -0.47358716432E+02  0.47358716432E+02  0.00000000000E+00 0. -1.
         25    1    1    2    0    0 -0.16458651753E+03  0.18978337162E+03  0.83755763194E+03  0.88330868711E+03  0.12500000000E+03 0.  0.
         21    1    1    2  501  501  0.24584551432E+02 -0.11627793962E+02  0.10147204678E+04  0.10150848405E+04  0.00000000000E+00 0. -1.
         -1    1    1    2    0  502  0.14000196609E+03 -0.17815557765E+03  0.50386610115E+03  0.55246810610E+03  0.00000000000E+00 0. -1.
<mgrwt>
<rscale>  4 0.26695719E+03</rscale>
<asrwt>0</asrwt>
<pdfrwt beam="1">  1       21 0.36976958E+00 0.26695719E+03</pdfrwt>
<pdfrwt beam="2">  1       -1 0.72859583E-02 0.26695719E+03</pdfrwt>
<totfact> 0.10916582E+02</totfact>
</mgrwt>
</event>
<event>
 5    0  0.2947253E-001  0.2600292E+03  0.7546771E-02  0.1107126E+00
          2   -1    0    0  502    0 -0.00000000000E+00  0.00000000000E+00  0.12754434333E+04  0.12754434333E+04  0.00000000000E+00 0.  1.
         21   -1    0    0  503  502  0.00000000000E+00 -0.00000000000E+00 -0.54577039923E+02  0.54577039923E+02  0.00000000000E+00 0. -1.
         25    1    1    2    0    0  0.22799866385E+03 -0.26093524381E+01  0.41539539580E+03  0.49006992796E+03  0.12500000000E+03 0.  0.
         21    1    1    2  503  501 -0.20670843943E+02 -0.13068160326E+02  0.15890760302E+03  0.16077837822E+03  0.00000000000E+00 0. -1.
          2    1    1    2  501    0 -0.20732781991E+03  0.15677512764E+02  0.64656339455E+03  0.67917216705E+03  0.00000000000E+00 0.  1.
<mgrwt>
<rscale>  4 0.26002923E+03</rscale>
<asrwt>0</asrwt>
<pdfrwt beam="1">  1       21 0.83964687E-02 0.26002923E+03</pdfrwt>
<pdfrwt beam="2">  1        2 0.19622204E+00 0.26002923E+03</pdfrwt>
<totfact> 0.25204759E+04</totfact>
</mgrwt>
</event>
<event>
 5    0  0.2947253E-001  0.2841029E+03  0.7546771E-02  0.1093469E+00
         21   -1    0    0  503  502  0.00000000000E+00  0.00000000000E+00  0.11115023900E+04  0.11115023900E+04  0.00000000000E+00 0. -1.
          2   -1    0    0  502    0 -0.00000000000E+00 -0.00000000000E+00 -0.38618634851E+03  0.38618634851E+03  0.00000000000E+00 0. -1.
         25    1    1    2    0    0  0.15307161952E+03  0.20410425807E+03  0.10434276126E+04  0.10814137282E+04  0.12500000000E+03 0.  0.
         21    1    1    2  503  501 -0.69805662244E+01 -0.36615182064E+02 -0.91809041556E+02  0.99087335083E+02  0.00000000000E+00 0. -1.
          2    1    1    2  501    0 -0.14609105330E+03 -0.16748907600E+03 -0.22630252953E+03  0.31718767521E+03  0.00000000000E+00 0. -1.
<mgrwt>
<rscale>  4 0.28410292E+03</rscale>
<asrwt>0</asrwt>
<pdfrwt beam="1">  1       21 0.17100037E+00 0.28410292E+03</pdfrwt>
<pdfrwt beam="2">  1        2 0.59413285E-01 0.28410292E+03</pdfrwt>
<totfact> 0.20403972E+02</totfact>
</mgrwt>
</event>
<event>
 5    0  0.2947253E-001  0.2505406E+03  0.7546771E-02  0.1112964E+00
          4   -1    0    0  502    0 -0.00000000000E+00  0.00000000000E+00  0.40208474354E+03  0.40208474354E+03  0.00000000000E+00 0. -1.
         21   -1    0    0  503  502  0.00000000000E+00 -0.00000000000E+00 -0.20470927430E+03  0.20470927430E+03  0.00000000000E+00 0. -1.
         25    1    1    2    0    0 -0.10722183714E+03  0.18880956724E+03 -0.58281140827E+02  0.25722998740E+03  0.12500000000E+03 0.  0.
         21    1    1    2  503  501  0.77453132718E+02 -0.77912670789E+02  0.18373926019E+03  0.21407822816E+03  0.00000000000E+00 0. -1.
          4    1    1    2  501    0  0.29768704424E+02 -0.11089689645E+03  0.71917349872E+02  0.13548580228E+03  0.00000000000E+00 0. -1.
<mgrwt>
<rscale>  4 0.25054057E+03</rscale>
<asrwt>0</asrwt>
<pdfrwt beam="1">  1       21 0.31493734E-01 0.25054057E+03</pdfrwt>
<pdfrwt beam="2">  1        4 0.61859191E-01 0.25054057E+03</pdfrwt>
<totfact> 0.10137800E+03</totfact>
</mgrwt>
</event>
<event>
 5    0  0.2947253E-001  0.3729169E+03  0.7546771E-02  0.1053583E+00
         21   -1    0    0  503  502  0.00000000000E+00  0.00000000000E+00  0.99350797085E+03  0.99350797085E+03  0.00000000000E+00 0.  1.
          1   -1    0    0  502    0 -0.00000000000E+00 -0.00000000000E+00 -0.77553340867E+03  0.77553340867E+03  0.00000000000E+00 0.  1.
         25    1    1    2    0    0  0.33473061213E+03 -0.11766241719E+03  0.89558942687E+03  0.97138789813E+03  0.12500000000E+03 0.  0.
         21    1    1    2  503  501 -0.48327445699E+02  0.62014412388E+02 -0.24527174885E+02  0.82358434052E+02  0.00000000000E+00 0.  1.
          1    1    1    2  501    0 -0.28640316643E+03  0.55648004803E+02 -0.65308768980E+03  0.71529504734E+03  0.00000000000E+00 0.  1.
<mgrwt>
<rscale>  4 0.37291692E+03</rscale>
<asrwt>0</asrwt>
<pdfrwt beam="1">  1       21 0.15284738E+00 0.37291692E+03</pdfrwt>
<pdfrwt beam="2">  1        1 0.11931283E+00 0.37291692E+03</pdfrwt>
<totfact> 0.68004582E+01</totfact>
</mgrwt>
</event>
<event>
 5    0  0.2947253E-001  0.2456473E+03  0.7546771E-02  0.1116087E+00
          2   -1    0    0  502    0 -0.00000000000E+00  0.00000000000E+00  0.20052424036E+04  0.20052424036E+04  0.00000000000E+00 0.  1.
         21   -1    0    0  503  502  0.00000000000E+00 -0.00000000000E+00 -0.40330884564E+02  0.40330884564E+02  0.00000000000E+00 0.  1.
         25    1    1    2    0    0  0.34134806018E+02 -0.20869212682E+03  0.42605278655E+03  0.49179626443E+03  0.12500000000E+03 0.  0.
         21    1    1    2  503  501 -0.12852903598E+02  0.16514338430E+02  0.12117030271E+03  0.12296407103E+03  0.00000000000E+00 0. -1.
          2    1    1    2  501    0 -0.21281902419E+02  0.19217778839E+03  0.14176884298E+04  0.14308129527E+04  0.00000000000E+00 0.  1.
<mgrwt>
<rscale>  4 0.24564729E+03</rscale>
<asrwt>0</asrwt>
<pdfrwt beam="1">  1       21 0.62047530E-02 0.24564729E+03</pdfrwt>
<pdfrwt beam="2">  1        2 0.30849875E+00 0.24564729E+03</pdfrwt>
<totfact> 0.17513295E+04</totfact>
</mgrwt>
</event>
<event>
 5    0  0.2947253E-001  0.2730500E+03  0.7546771E-02  0.1099547E+00
          1   -1    0    0  502    0 -0.00000000000E+00  0.00000000000E+00  0.10413162186E+04  0.10413162186E+04  0.00000000000E+00 0. -1.
         21   -1    0    0  503  502  0.00000000000E+00 -0.00000000000E+00 -0.12338712141E+03  0.12338712141E+03  0.00000000000E+00 0.  1.
         25    1    1    2    0    0 -0.24272651286E+03 -0.38917381266E+01  0.74519710159E+02  0.28303620417E+03  0.12500000000E+03 0.  0.
         21    1    1    2  503  501  0.86855896573E+02  0.41041340116E+02  0.28747547813E+03  0.30310144983E+03  0.00000000000E+00 0.  1.
          1    1    1    2  501    0  0.15587061628E+03 -0.37149601989E+02  0.55593390891E+03  0.57856568601E+03  0.00000000000E+00 0. -1.
<mgrwt>
<rscale>  4 0.27305001E+03</rscale>
<asrwt>0</asrwt>
<pdfrwt beam="1">  1       21 0.18982635E-01 0.27305001E+03</pdfrwt>
<pdfrwt beam="2">  1        1 0.16020249E+00 0.27305001E+03</pdfrwt>
<totfact> 0.41451731E+03</totfact>
</mgrwt>
</event>
<event>
 5    0  0.2947253E-001  0.4419989E+03  0.7546771E-02  0.1030135E+00
         21   -1    0    0  503  502  0.00000000000E+00  0.00000000000E+00  0.26303450843E+03  0.26303450843E+03  0.00000000000E+00 0.  1.
          2   -1    0    0  502    0 -0.00000000000E+00 -0.00000000000E+00 -0.38328473991E+04  0.38328473991E+04  0.00000000000E+00 0.  1.
         25    1    1    2    0    0 -0.29482515645E+03  0.30604856057E+03  0.51256281778E+02  0.44591456662E+03  0.12500000000E+03 0.  0.
         21    1    1    2  503  501 -0.55376156026E+01 -0.27640904676E+02 -0.67262533114E+03  0.67321580559E+03  0.00000000000E+00 0. -1.
          2    1    1    2  501    0  0.30036277205E+03 -0.27840765589E+03 -0.29484438413E+04  0.29767515353E+04  0.00000000000E+00 0.  1.
<mgrwt>
<rscale>  4 0.44199893E+03</rscale>
<asrwt>0</asrwt>
<pdfrwt beam="1">  1       21 0.40466851E-01 0.44199893E+03</pdfrwt>
<pdfrwt beam="2">  1        2 0.58966878E+00 0.44199893E+03</pdfrwt>
<totfact> 0.38580786E+01</totfact>
</mgrwt>
</event>
<event>
 5    0  0.3083439E-001  0.3279355E+03  0.7546771E-02  0.1072054E+00
         21   -1    0    0  501  502  0.00000000000E+00  0.00000000000E+00  0.17701777682E+03  0.17701777682E+03  0.00000000000E+00 0. -1.
         -2   -1    0    0    0  501 -0.00000000000E+00 -0.00000000000E+00 -0.10334668509E+04  0.10334668509E+04  0.00000000000E+00 0. -1.
         25    1    1    2    0    0  0.52561738512E+02 -0.29830947930E+03 -0.45149510302E+02  0.33077902000E+03  0.12500000000E+03 0.  0.
         21    1    1    2  501  501 -0.33540947084E+02 -0.69257252308E+01 -0.78001691418E+02  0.85189345962E+02  0.00000000000E+00 0.  1.
         -2    1    1    2    0  502 -0.19020791428E+02  0.30523520453E+03 -0.73329787235E+03  0.79451626174E+03  0.00000000000E+00 0. -1.
<mgrwt>
<rscale>  4 0.32793551E+03</rscale>
<asrwt>0</asrwt>
<pdfrwt beam="1">  1       21 0.27233504E-01 0.32793551E+03</pdfrwt>
<pdfrwt beam="2">  1       -2 0.15899490E+00 0.32793551E+03</pdfrwt>
<totfact> 0.27660549E+02</totfact>
</mgrwt>
</event>
<event>
 5    0  0.2947253E-001  0.2658476E+03  0.7546771E-02  0.1103680E+00
          1   -1    0    0  502    0 -0.00000000000E+00  0.00000000000E+00  0.42786721760E+04  0.42786721760E+04  0.00000000000E+00 0. -1.
         21   -1    0    0  503  502  0.00000000000E+00 -0.00000000000E+00 -0.20933677096E+02  0.20933677096E+02  0.00000000000E+00 0.  1.
         25    1    1    2    0    0 -0.70393505415E+02  0.22381847493E+03  0.10532684561E+04  0.10863007852E+04  0.12500000000E+03 0.  0.
         21    1    1    2  503  501  0.11009010544E+02 -0.17763777612E+02  0.17254376293E+03  0.17380477622E+03  0.00000000000E+00 0.  1.
          1    1    1    2  501    0  0.59384494871E+02 -0.20605469732E+03  0.30319262798E+04  0.30395002916E+04  0.00000000000E+00 0. -1.
<mgrwt>
<rscale>  4 0.26584762E+03</rscale>
<asrwt>0</asrwt>
<pdfrwt beam="1">  1       21 0.32205691E-02 0.26584762E+03</pdfrwt>
<pdfrwt beam="2">  1        1 0.65825656E+00 0.26584762E+03</pdfrwt>
<totfact> 0.45248206E+02</totfact>
</mgrwt>
</event>
<event>
 5    0  0.2947253E-001  0.2312689E+03  0.7546771E-02  0.1125750E+00
          2   -1    0    0  502    0 -0.00000000000E+00  0.00000000000E+00  0.49471935797E+03  0.49471935797E+03  0.00000000000E+00 0. -1.
         21   -1    0    0  503  502  0.00000000000E+00 -0.00000000000E+00 -0.13207729667E+03  0.13207729667E+03  0.00000000000E+00 0. -1.
         25    1    1    2    0    0  0.17300959221E+03 -0.13369314507E+03  0.10599463596E+03  0.27325087170E+03  0.12500000000E+03 0.  0.
         21    1    1    2  503  501 -0.99784688303E+01  0.43751103414E+02  0.12656776810E+02  0.46625345997E+02  0.00000000000E+00 0.  1.
          2    1    1    2  501    0 -0.16303112338E+03  0.89942041653E+02  0.24399064852E+03  0.30692043694E+03  0.00000000000E+00 0. -1.
<mgrwt>
<rscale>  4 0.23126890E+03</rscale>
<asrwt>0</asrwt>
<pdfrwt beam="1">  1       21 0.20319584E-01 0.23126890E+03</pdfrwt>
<pdfrwt beam="2">  1        2 0.76110670E-01 0.23126890E+03</pdfrwt>
<totfact> 0.17559022E+04</totfact>
</mgrwt>
</event>
