<event>
 5    0  0.3107866E+000  0.2361890E+03  0.7546771E-02  0.1122358E+00
         21   -1    0    0  502  501  0.00000000000E+00  0.00000000000E+00  0.13864278969E+04  0.13864278969E+04  0.00000000000E+00 0. -1.
         21   -1    0    0  503  502 -0.00000000000E+00 -0.00000000000E+00 -0.40811187154E+02  0.40811187154E+02  0.00000000000E+00 0. -1.
         25    1    1    2    0    0 -0.18148423220E+03  0.84992462622E+02  0.95061643319E+03  0.97951868195E+03  0.12500000000E+03 0.  0.
         21    1    1    2  503  504  0.15266624531E+03 -0.89661865047E+02  0.36598441247E+03  0.40655974060E+03  0.00000000000E+00 0. -1.
         21    1    1    2  504  501  0.28817986898E+02  0.46694024247E+01  0.29015864109E+02  0.41160661533E+02  0.00000000000E+00 0. -1.
<mgrwt>
<rscale>  4 0.23618900E+03</rscale>
<asrwt>0</asrwt>
<pdfrwt beam="1">  1       21 0.21329656E+00 0.23618900E+03</pdfrwt>
<pdfrwt beam="2">  1       21 0.62786452E-02 0.23618900E+03</pdfrwt>
<totfact> 0.19550447E+04</totfact>
</mgrwt>
</event>
<event>
 5    0  0.2159162E+000  0.3351384E+03  0.7546771E-02  0.1068886E+00
         21   -1    0    0  502  501  0.00000000000E+00  0.00000000000E+00  0.71475659140E+03  0.71475659140E+03  0.00000000000E+00 0.  1.
         21   -1    0    0  503  502 -0.00000000000E+00 -0.00000000000E+00 -0.16055026140E+03  0.16055026140E+03  0.00000000000E+00 0.  1.
         25    1    1    2    0    0  0.15539874173E+03  0.26933987203E+03  0.17980817734E+03  0.38032711741E+03  0.12500000000E+03 0.  0.
         21    1    1    2  503  504 -0.92222322388E+02 -0.18216382474E+03  0.30450030532E+03  0.36661840070E+03  0.00000000000E+00 0.  1.
         21    1    1    2  504  501 -0.63176419339E+02 -0.87176047289E+02  0.69897847333E+02  0.12836133469E+03  0.00000000000E+00 0.  1.
<mgrwt>
<rscale>  4 0.33513838E+03</rscale>
<asrwt>0</asrwt>
<pdfrwt beam="1">  1       21 0.10996255E+00 0.33513838E+03</pdfrwt>
<pdfrwt beam="2">  1       21 0.24700041E-01 0.33513838E+03</pdfrwt>
<totfact> 0.93643326E+03</totfact>
</mgrwt>
</event>
<event>
 5    0  0.2159162E+000  0.2413514E+03  0.7546771E-02  0.1118896E+00
         21   -1    0    0  502  501  0.00000000000E+00  0.00000000000E+00  0.89150908233E+03  0.89150908233E+03  0.00000000000E+00 0. -1.
         21   -1    0    0  503  502 -0.00000000000E+00 -0.00000000000E+00 -0.59310976792E+02  0.59310976792E+02  0.00000000000E+00 0. -1.
         25    1    1    2    0    0  0.85117852009E+02  0.18809691334E+03  0.35171529678E+03  0.42656083684E+03  0.12500000000E+03 0.  0.
         21    1    1    2  503  504 -0.72635992077E+01 -0.36938993725E+02  0.11841753504E+03  0.12425764257E+03  0.00000000000E+00 0. -1.
         21    1    1    2  504  501 -0.77854252801E+02 -0.15115791961E+03  0.36206527371E+03  0.40000157970E+03  0.00000000000E+00 0. -1.
<mgrwt>
<rscale>  4 0.24135140E+03</rscale>
<asrwt>0</asrwt>
<pdfrwt beam="1">  1       21 0.13715523E+00 0.24135140E+03</pdfrwt>
<pdfrwt beam="2">  1       21 0.91247663E-02 0.24135140E+03</pdfrwt>
<totfact> 0.35024496E+04</totfact>
</mgrwt>
</event>
<event>
 5    0  0.2159162E+000  0.3319522E+03  0.7546771E-02  0.1070276E+00
         21   -1    0    0  502  501  0.00000000000E+00  0.00000000000E+00  0.46322619589E+03  0.46322619589E+03  0.00000000000E+00 0. -1.
         21   -1    0    0  503  502 -0.00000000000E+00 -0.00000000000E+00 -0.42067273033E+03  0.42067273033E+03  0.00000000000E+00 0.  1.
         25    1    1    2    0    0 -0.28624092981E+03  0.17749891138E+03  0.24259053740E+03  0.43349152503E+03  0.12500000000E+03 0.  0.
         21    1    1    2  503  504  0.14486019491E+03 -0.21204042436E+03 -0.14427165771E+03  0.29455038423E+03  0.00000000000E+00 0.  1.
         21    1    1    2  504  501  0.14138073490E+03  0.34541512987E+02 -0.55765414139E+02  0.15585701696E+03  0.00000000000E+00 0.  1.
<mgrwt>
<rscale>  4 0.33195215E+03</rscale>
<asrwt>0</asrwt>
<pdfrwt beam="1">  1       21 0.71265568E-01 0.33195215E+03</pdfrwt>
<pdfrwt beam="2">  1       21 0.64718882E-01 0.33195215E+03</pdfrwt>
<totfact> 0.35897459E+03</totfact>
</mgrwt>
</event>
<event>
 5    0  0.2159162E+000  0.3382567E+03  0.7546771E-02  0.1067541E+00
         21   -1    0    0  502  501  0.00000000000E+00  0.00000000000E+00  0.10143074074E+04  0.10143074074E+04  0.00000000000E+00 0.  1.
         21   -1    0    0  503  502 -0.00000000000E+00 -0.00000000000E+00 -0.12287246266E+03  0.12287246266E+03  0.00000000000E+00 0.  1.
         25    1    1    2    0    0  0.15403774313E+02  0.31393516659E+03  0.64178409834E+03  0.72546839625E+03  0.12500000000E+03 0.  0.
         21    1    1    2  503  504 -0.14971833824E+01 -0.19451801225E+03  0.96897226177E+02  0.21732135442E+03  0.00000000000E+00 0.  1.
         21    1    1    2  504  501 -0.13906590930E+02 -0.11941715434E+03  0.15275362018E+03  0.19439011934E+03  0.00000000000E+00 0.  1.
<mgrwt>
<rscale>  4 0.33825666E+03</rscale>
<asrwt>0</asrwt>
<pdfrwt beam="1">  1       21 0.15604729E+00 0.33825666E+03</pdfrwt>
<pdfrwt beam="2">  1       21 0.18903456E-01 0.33825666E+03</pdfrwt>
<totfact> 0.63035717E+03</totfact>
</mgrwt>
</event>
<event>
 5    0  0.2159162E+000  0.4490417E+03  0.7546771E-02  0.1028008E+00
         21   -1    0    0  502  501  0.00000000000E+00  0.00000000000E+00  0.17526682686E+04  0.17526682686E+04  0.00000000000E+00 0.  1.
         21   -1    0    0  503  502 -0.00000000000E+00 -0.00000000000E+00 -0.38846126173E+03  0.38846126173E+03  0.00000000000E+00 0. -1.
         25    1    1    2    0    0  0.68402508640E+02 -0.43031044482E+03  0.15480076998E+04  0.16130092439E+04  0.12500000000E+03 0.  0.
         21    1    1    2  503  504 -0.11946706678E+02  0.38839418726E+03 -0.22258971145E+03  0.44781575245E+03  0.00000000000E+00 0. -1.
         21    1    1    2  504  501 -0.56455801962E+02  0.41916257563E+02  0.38789018465E+02  0.80304533974E+02  0.00000000000E+00 0.  1.
<mgrwt>
<rscale>  4 0.44904167E+03</rscale>
<asrwt>0</asrwt>
<pdfrwt beam="1">  1       21 0.26964127E+00 0.44904167E+03</pdfrwt>
<pdfrwt beam="2">  1       21 0.59763272E-01 0.44904167E+03</pdfrwt>
<totfact> 0.10431933E+02</totfact>
</mgrwt>
</event>
<event>
 5    0  0.2159162E+000  0.2966066E+03  0.7546771E-02  0.1086949E+00
         21   -1    0    0  502  501  0.00000000000E+00  0.00000000000E+00  0.20940695715E+03  0.20940695715E+03  0.00000000000E+00 0. -1.
         21   -1    0    0  503  502 -0.00000000000E+00 -0.00000000000E+00 -0.41121823088E+03  0.41121823088E+03  0.00000000000E+00 0.  1.
         25    1    1    2    0    0 -0.23262568267E+02  0.26797267639E+03 -0.17612587202E+03  0.34495771505E+03  0.12500000000E+03 0.  0.
         21    1    1    2  503  504  0.40650722853E+02 -0.17705333862E+03 -0.22470833499E+02  0.18304454196E+03  0.00000000000E+00 0.  1.
         21    1    1    2  504  501 -0.17388154586E+02 -0.90919337778E+02 -0.32145682118E+01  0.92622931019E+02  0.00000000000E+00 0.  1.
<mgrwt>
<rscale>  4 0.29660665E+03</rscale>
<asrwt>0</asrwt>
<pdfrwt beam="1">  1       21 0.32216455E-01 0.29660665E+03</pdfrwt>
<pdfrwt beam="2">  1       21 0.63264343E-01 0.29660665E+03</pdfrwt>
<totfact> 0.20346978E+04</totfact>
</mgrwt>
</event>
<event>
 5    0  0.2159162E+000  0.2353335E+03  0.7546771E-02  0.1122941E+00
         21   -1    0    0  502  501  0.00000000000E+00  0.00000000000E+00  0.47901228010E+03  0.47901228010E+03  0.00000000000E+00 0.  1.
         21   -1    0    0  503  502 -0.00000000000E+00 -0.00000000000E+00 -0.36571449039E+03  0.36571449039E+03  0.00000000000E+00 0. -1.
         25    1    1    2    0    0  0.10676708184E+03 -0.20925749701E+03  0.37532872743E+03  0.46009190761E+03  0.12500000000E+03 0.  0.
         21    1    1    2  503  504 -0.78694216286E+02  0.18034144946E+03 -0.27858558869E+03  0.34106560702E+03  0.00000000000E+00 0. -1.
         21    1    1    2  504  501 -0.28072865550E+02  0.28916047553E+02  0.16554650973E+02  0.43569255848E+02  0.00000000000E+00 0.  1.
<mgrwt>
<rscale>  4 0.23533352E+03</rscale>
<asrwt>0</asrwt>
<pdfrwt beam="1">  1       21 0.73694197E-01 0.23533352E+03</pdfrwt>
<pdfrwt beam="2">  1       21 0.56263768E-01 0.23533352E+03</pdfrwt>
<totfact> 0.47633151E+03</totfact>
</mgrwt>
</event>
<event>
 5    0  0.2159162E+000  0.2676851E+03  0.7546771E-02  0.1102612E+00
         21   -1    0    0  502  501  0.00000000000E+00  0.00000000000E+00  0.13485168255E+03  0.13485168255E+03  0.00000000000E+00 0. -1.
         21   -1    0    0  503  502 -0.00000000000E+00 -0.00000000000E+00 -0.51435752252E+03  0.51435752252E+03  0.00000000000E+00 0. -1.
         25    1    1    2    0    0 -0.96973747019E+02 -0.21593144075E+03 -0.11822516873E+03  0.29263028763E+03  0.12500000000E+03 0.  0.
         21    1    1    2  503  504  0.63734806255E+02  0.15808354704E+03 -0.21931052663E+03  0.27775824103E+03  0.00000000000E+00 0. -1.
         21    1    1    2  504  501  0.33238940764E+02  0.57847893709E+02 -0.41970144619E+02  0.78820676405E+02  0.00000000000E+00 0. -1.
<mgrwt>
<rscale>  4 0.26768507E+03</rscale>
<asrwt>0</asrwt>
<pdfrwt beam="1">  1       21 0.20746413E-01 0.26768507E+03</pdfrwt>
<pdfrwt beam="2">  1       21 0.79131926E-01 0.26768507E+03</pdfrwt>
<totfact> 0.29279485E+04</totfact>
</mgrwt>
</event>
<event>
 5    0  0.2159162E+000  0.3531843E+03  0.7546771E-02  0.1061316E+00
         21   -1    0    0  502  501  0.00000000000E+00  0.00000000000E+00  0.17701848150E+04  0.17701848150E+04  0.00000000000E+00 0.  1.
         21   -1    0    0  503  502 -0.00000000000E+00 -0.00000000000E+00 -0.40047779854E+03  0.40047779854E+03  0.00000000000E+00 0. -1.
         25    1    1    2    0    0  0.30660905087E+03 -0.14161223651E+03  0.16546687331E+04  0.16934038950E+04  0.12500000000E+03 0.  0.
         21    1    1    2  503  504 -0.52965324157E+02  0.10506088110E+03 -0.13985668853E+03  0.18276489714E+03  0.00000000000E+00 0. -1.
         21    1    1    2  504  501 -0.25364372671E+03  0.36551355410E+02 -0.14510502802E+03  0.29449382140E+03  0.00000000000E+00 0. -1.
<mgrwt>
<rscale>  4 0.35318431E+03</rscale>
<asrwt>0</asrwt>
<pdfrwt beam="1">  1       21 0.27233612E+00 0.35318431E+03</pdfrwt>
<pdfrwt beam="2">  1       21 0.61611970E-01 0.35318431E+03</pdfrwt>
<totfact> 0.10064936E+02</totfact>
</mgrwt>
</event>
