<event>
 5    0  0.1324511E+000  0.2669231E+03  0.7546771E-02  0.1103054E+00
         21   -1    0    0  504  501  0.00000000000E+00  0.00000000000E+00  0.61748145603E+03  0.61748145603E+03  0.00000000000E+00 0.  1.
         21   -1    0    0  501  502 -0.00000000000E+00 -0.00000000000E+00 -0.57710825602E+03  0.57710825602E+03  0.00000000000E+00 0. -1.
         25    1    1    2    0    0  0.20210647751E+03  0.13831355460E+03 -0.50276985901E+03  0.57304467432E+03  0.12500000000E+03 0.  0.
         21    1    1    2  503  502 -0.61258619837E+02 -0.11854557014E+03  0.13711758907E+03  0.19132930758E+03  0.00000000000E+00 0.  1.
         21    1    1    2  504  503 -0.14084785767E+03 -0.19767984461E+02  0.40602546995E+03  0.43021573015E+03  0.00000000000E+00 0.  1.
<mgrwt>
<rscale>  4 0.26692311E+03</rscale>
<asrwt>0</asrwt>
<pdfrwt beam="1">  1       21 0.94997147E-01 0.26692311E+03</pdfrwt>
<pdfrwt beam="2">  1       21 0.88785885E-01 0.26692311E+03</pdfrwt>
<totfact> 0.94132461E+02</totfact>
</mgrwt>
</event>
<event>
 5    0  0.1324511E+000  0.2755525E+03  0.7546771E-02  0.1098143E+00
         21   -1    0    0  504  501  0.00000000000E+00  0.00000000000E+00  0.28448301052E+03  0.28448301052E+03  0.00000000000E+00 0.  1.
         21   -1    0    0  501  502 -0.00000000000E+00 -0.00000000000E+00 -0.59162257898E+03  0.59162257898E+03  0.00000000000E+00 0.  1.
         25    1    1    2    0    0  0.18784318065E+03  0.16524290955E+03 -0.47064408680E+03  0.54746793158E+03  0.12500000000E+03 0.  0.
         21    1    1    2  503  502 -0.17031501649E+03 -0.14938555540E+03  0.77486845490E+02  0.23943153558E+03  0.00000000000E+00 0.  1.
         21    1    1    2  504  503 -0.17528164152E+02 -0.15857354143E+02  0.86017672851E+02  0.89206122333E+02  0.00000000000E+00 0.  1.
<mgrwt>
<rscale>  4 0.27555255E+03</rscale>
<asrwt>0</asrwt>
<pdfrwt beam="1">  1       21 0.43766617E-01 0.27555255E+03</pdfrwt>
<pdfrwt beam="2">  1       21 0.91018858E-01 0.27555255E+03</pdfrwt>
<totfact> 0.48552084E+03</totfact>
</mgrwt>
</event>
<event>
 5    0  0.1324511E+000  0.2868941E+03  0.7546771E-02  0.1091982E+00
         21   -1    0    0  504  501  0.00000000000E+00  0.00000000000E+00  0.12582019360E+04  0.12582019360E+04  0.00000000000E+00 0. -1.
         21   -1    0    0  501  502 -0.00000000000E+00 -0.00000000000E+00 -0.16271433757E+03  0.16271433757E+03  0.00000000000E+00 0. -1.
         25    1    1    2    0    0  0.62962452790E+02 -0.27825211535E+03  0.51141775470E+02  0.31564060474E+03  0.12500000000E+03 0.  0.
         21    1    1    2  503  502 -0.67149087037E+02  0.22559586128E+02  0.76692629580E+02  0.10440160079E+03  0.00000000000E+00 0.  1.
         21    1    1    2  504  503  0.41866342471E+01  0.25569252922E+03  0.96765319341E+03  0.10008740681E+04  0.00000000000E+00 0. -1.
<mgrwt>
<rscale>  4 0.28689414E+03</rscale>
<asrwt>0</asrwt>
<pdfrwt beam="1">  1       21 0.19356952E+00 0.28689414E+03</pdfrwt>
<pdfrwt beam="2">  1       21 0.25032976E-01 0.28689414E+03</pdfrwt>
<totfact> 0.20620618E+03</totfact>
</mgrwt>
</event>
<event>
 5    0  0.1324511E+000  0.3015541E+03  0.7546771E-02  0.1084466E+00
         21   -1    0    0  504  501  0.00000000000E+00  0.00000000000E+00  0.70575949041E+03  0.70575949041E+03  0.00000000000E+00 0. -1.
         21   -1    0    0  501  502 -0.00000000000E+00 -0.00000000000E+00 -0.20364783519E+03  0.20364783519E+03  0.00000000000E+00 0.  1.
         25    1    1    2    0    0 -0.72905157911E+02 -0.26456513654E+03 -0.28724306717E+02  0.30291906397E+03  0.12500000000E+03 0.  0.
         21    1    1    2  503  502 -0.12185546048E+02  0.75702565303E+02  0.21976610696E+03  0.23275847502E+03  0.00000000000E+00 0. -1.
         21    1    1    2  504  503  0.85090703959E+02  0.18886257124E+03  0.31106985498E+03  0.37372978660E+03  0.00000000000E+00 0. -1.
<mgrwt>
<rscale>  4 0.30155410E+03</rscale>
<asrwt>0</asrwt>
<pdfrwt beam="1">  1       21 0.10857838E+00 0.30155410E+03</pdfrwt>
<pdfrwt beam="2">  1       21 0.31330436E-01 0.30155410E+03</pdfrwt>
<totfact> 0.61632776E+03</totfact>
</mgrwt>
</event>
<event>
 5    0  0.1324511E+000  0.2325595E+03  0.7546771E-02  0.1124851E+00
         21   -1    0    0  504  501  0.00000000000E+00  0.00000000000E+00  0.10509725448E+03  0.10509725448E+03  0.00000000000E+00 0.  1.
         21   -1    0    0  501  502 -0.00000000000E+00 -0.00000000000E+00 -0.72387303954E+03  0.72387303954E+03  0.00000000000E+00 0.  1.
         25    1    1    2    0    0 -0.13382894873E+02 -0.20223397321E+03 -0.53602003208E+03  0.58653231504E+03  0.12500000000E+03 0.  0.
         21    1    1    2  503  502 -0.36015496842E+02  0.26173304602E+02 -0.99636939450E+01  0.45622725517E+02  0.00000000000E+00 0.  1.
         21    1    1    2  504  503  0.49398391716E+02  0.17606066861E+03 -0.72792059037E+02  0.19681525346E+03  0.00000000000E+00 0.  1.
<mgrwt>
<rscale>  4 0.23255950E+03</rscale>
<asrwt>0</asrwt>
<pdfrwt beam="1">  1       21 0.16168808E-01 0.23255950E+03</pdfrwt>
<pdfrwt beam="2">  1       21 0.11136508E+00 0.23255950E+03</pdfrwt>
<totfact> 0.21177356E+04</totfact>
</mgrwt>
</event>
<event>
 5    0  0.1324511E+000  0.3452967E+03  0.7546771E-02  0.1064562E+00
         21   -1    0    0  504  501  0.00000000000E+00  0.00000000000E+00  0.18278099442E+03  0.18278099442E+03  0.00000000000E+00 0. -1.
         21   -1    0    0  501  502 -0.00000000000E+00 -0.00000000000E+00 -0.97082559265E+03  0.97082559265E+03  0.00000000000E+00 0. -1.
         25    1    1    2    0    0  0.14960652909E+03  0.28499601786E+03 -0.74182689564E+03  0.81825239800E+03  0.12500000000E+03 0.  0.
         21    1    1    2  503  502 -0.46138194384E+02 -0.87107162407E+02 -0.53055613516E+02  0.11194323941E+03  0.00000000000E+00 0.  1.
         21    1    1    2  504  503 -0.10346833471E+03 -0.19788885545E+03  0.68379109236E+01  0.22341094965E+03  0.00000000000E+00 0. -1.
<mgrwt>
<rscale>  4 0.34529675E+03</rscale>
<asrwt>0</asrwt>
<pdfrwt beam="1">  1       21 0.28120153E-01 0.34529675E+03</pdfrwt>
<pdfrwt beam="2">  1       21 0.14935778E+00 0.34529675E+03</pdfrwt>
<totfact> 0.33000747E+03</totfact>
</mgrwt>
</event>
<event>
 5    0  0.1324511E+000  0.2622492E+03  0.7546771E-02  0.1105799E+00
         21   -1    0    0  504  501  0.00000000000E+00  0.00000000000E+00  0.12112414844E+04  0.12112414844E+04  0.00000000000E+00 0. -1.
         21   -1    0    0  501  502 -0.00000000000E+00 -0.00000000000E+00 -0.52551128506E+02  0.52551128506E+02  0.00000000000E+00 0.  1.
         25    1    1    2    0    0  0.21140374396E+03  0.91967908530E+02  0.49610525989E+03  0.56115511942E+03  0.12500000000E+03 0.  0.
         21    1    1    2  503  502 -0.17593234824E+03 -0.78048899696E+02  0.59088586743E+03  0.62144181565E+03  0.00000000000E+00 0. -1.
         21    1    1    2  504  503 -0.35471395725E+02 -0.13919008834E+02  0.71699228537E+02  0.81195677806E+02  0.00000000000E+00 0. -1.
<mgrwt>
<rscale>  4 0.26224919E+03</rscale>
<asrwt>0</asrwt>
<pdfrwt beam="1">  1       21 0.18634482E+00 0.26224919E+03</pdfrwt>
<pdfrwt beam="2">  1       21 0.80847899E-02 0.26224919E+03</pdfrwt>
<totfact> 0.18565950E+04</totfact>
</mgrwt>
</event>
<event>
 5    0  0.1324511E+000  0.2560283E+03  0.7546771E-02  0.1109553E+00
         21   -1    0    0  504  501  0.00000000000E+00  0.00000000000E+00  0.11383304053E+03  0.11383304053E+03  0.00000000000E+00 0. -1.
         21   -1    0    0  501  502 -0.00000000000E+00 -0.00000000000E+00 -0.70854869321E+03  0.70854869321E+03  0.00000000000E+00 0. -1.
         25    1    1    2    0    0  0.70368183789E+02  0.21875911093E+03 -0.49588340151E+03  0.56065370577E+03  0.12500000000E+03 0.  0.
         21    1    1    2  503  502 -0.51158394031E+02 -0.20473883248E+03 -0.10696493973E+03  0.23659389074E+03  0.00000000000E+00 0. -1.
         21    1    1    2  504  503 -0.19209789759E+02 -0.14020278449E+02  0.81326885636E+01  0.25134137217E+02  0.00000000000E+00 0.  1.
<mgrwt>
<rscale>  4 0.25602827E+03</rscale>
<asrwt>0</asrwt>
<pdfrwt beam="1">  1       21 0.17512776E-01 0.25602827E+03</pdfrwt>
<pdfrwt beam="2">  1       21 0.10900749E+00 0.25602827E+03</pdfrwt>
<totfact> 0.19019538E+04</totfact>
</mgrwt>
</event>
<event>
 5    0  0.1324511E+000  0.2541443E+03  0.7546771E-02  0.1110713E+00
         21   -1    0    0  504  501  0.00000000000E+00  0.00000000000E+00  0.82045301261E+03  0.82045301261E+03  0.00000000000E+00 0. -1.
         21   -1    0    0  501  502 -0.00000000000E+00 -0.00000000000E+00 -0.13297003582E+03  0.13297003582E+03  0.00000000000E+00 0. -1.
         25    1    1    2    0    0  0.87599705686E+02  0.20320098145E+03  0.31328635889E+02  0.25606801973E+03  0.12500000000E+03 0.  0.
         21    1    1    2  503  502 -0.94597239658E+02 -0.15728298742E+03  0.57799108566E+03  0.60643241254E+03  0.00000000000E+00 0. -1.
         21    1    1    2  504  503  0.69975339715E+01 -0.45917994032E+02  0.78163255242E+02  0.90922616151E+02  0.00000000000E+00 0.  1.
<mgrwt>
<rscale>  4 0.25414434E+03</rscale>
<asrwt>0</asrwt>
<pdfrwt beam="1">  1       21 0.12622354E+00 0.25414434E+03</pdfrwt>
<pdfrwt beam="2">  1       21 0.20456929E-01 0.25414434E+03</pdfrwt>
<totfact> 0.98957836E+03</totfact>
</mgrwt>
</event>
<event>
 5    0  0.1324511E+000  0.2499347E+03  0.7546771E-02  0.1113346E+00
         21   -1    0    0  504  501  0.00000000000E+00  0.00000000000E+00  0.28994131345E+03  0.28994131345E+03  0.00000000000E+00 0.  1.
         21   -1    0    0  501  502 -0.00000000000E+00 -0.00000000000E+00 -0.32440842098E+03  0.32440842098E+03  0.00000000000E+00 0.  1.
         25    1    1    2    0    0 -0.20494207914E+03 -0.69578009748E+02 -0.21354091248E+03  0.32873557237E+03  0.12500000000E+03 0.  0.
         21    1    1    2  503  502  0.18619546802E+02  0.80010184293E+01  0.40803207191E+02  0.45558814033E+02  0.00000000000E+00 0.  1.
         21    1    1    2  504  503  0.18632253233E+03  0.61576991318E+02  0.13827059775E+03  0.24005534803E+03  0.00000000000E+00 0.  1.
<mgrwt>
<rscale>  4 0.24993470E+03</rscale>
<asrwt>0</asrwt>
<pdfrwt beam="1">  1       21 0.44606356E-01 0.24993470E+03</pdfrwt>
<pdfrwt beam="2">  1       21 0.49908988E-01 0.24993470E+03</pdfrwt>
<totfact> 0.17874834E+04</totfact>
</mgrwt>
</event>
<event>
 5    0  0.1324511E+000  0.2979724E+03  0.7546771E-02  0.1086259E+00
         21   -1    0    0  504  501  0.00000000000E+00  0.00000000000E+00  0.13207422846E+04  0.13207422846E+04  0.00000000000E+00 0.  1.
         21   -1    0    0  501  502 -0.00000000000E+00 -0.00000000000E+00 -0.83460844658E+02  0.83460844658E+02  0.00000000000E+00 0.  1.
         25    1    1    2    0    0 -0.18353621068E+03 -0.19868815023E+03  0.28516547507E+03  0.41244014093E+03  0.12500000000E+03 0.  0.
         21    1    1    2  503  502  0.18665943513E+02  0.36440676064E+02  0.22645189624E+03  0.23012344868E+03  0.00000000000E+00 0.  1.
         21    1    1    2  504  503  0.16487026717E+03  0.16224747417E+03  0.72566406867E+03  0.76163953970E+03  0.00000000000E+00 0.  1.
<mgrwt>
<rscale>  4 0.29797235E+03</rscale>
<asrwt>0</asrwt>
<pdfrwt beam="1">  1       21 0.20319111E+00 0.29797235E+03</pdfrwt>
<pdfrwt beam="2">  1       21 0.12840131E-01 0.29797235E+03</pdfrwt>
<totfact> 0.61623378E+03</totfact>
</mgrwt>
</event>
<event>
 5    0  0.1324511E+000  0.3286914E+03  0.7546771E-02  0.1071717E+00
         21   -1    0    0  504  501  0.00000000000E+00  0.00000000000E+00  0.24827292064E+04  0.24827292064E+04  0.00000000000E+00 0. -1.
         21   -1    0    0  501  502 -0.00000000000E+00 -0.00000000000E+00 -0.68797563402E+02  0.68797563402E+02  0.00000000000E+00 0. -1.
         25    1    1    2    0    0 -0.74119955392E+02  0.29482071728E+03  0.42313241072E+03  0.53579759250E+03  0.12500000000E+03 0.  0.
         21    1    1    2  503  502  0.22960296297E+02 -0.28679816638E+02  0.12296124341E+03  0.12833228147E+03  0.00000000000E+00 0. -1.
         21    1    1    2  504  503  0.51159659095E+02 -0.26614090064E+03  0.18678379889E+04  0.18873968958E+04  0.00000000000E+00 0. -1.
<mgrwt>
<rscale>  4 0.32869138E+03</rscale>
<asrwt>0</asrwt>
<pdfrwt beam="1">  1       21 0.38195827E+00 0.32869138E+03</pdfrwt>
<pdfrwt beam="2">  1       21 0.10584242E-01 0.32869138E+03</pdfrwt>
<totfact> 0.70538536E+02</totfact>
</mgrwt>
</event>
<event>
 5    0  0.1324511E+000  0.3267357E+03  0.7546771E-02  0.1072590E+00
         21   -1    0    0  504  501  0.00000000000E+00  0.00000000000E+00  0.21009202118E+03  0.21009202118E+03  0.00000000000E+00 0.  1.
         21   -1    0    0  501  502 -0.00000000000E+00 -0.00000000000E+00 -0.73933945603E+03  0.73933945603E+03  0.00000000000E+00 0.  1.
         25    1    1    2    0    0 -0.21521748216E+03  0.24756218919E+03 -0.47440558986E+03  0.59016206742E+03  0.12500000000E+03 0.  0.
         21    1    1    2  503  502  0.16965164486E+03 -0.19850739550E+03 -0.98782122841E+02  0.27918591380E+03  0.00000000000E+00 0.  1.
         21    1    1    2  504  503  0.45565837298E+02 -0.49054793687E+02  0.43940277846E+02  0.80083495987E+02  0.00000000000E+00 0.  1.
<mgrwt>
<rscale>  4 0.32673573E+03</rscale>
<asrwt>0</asrwt>
<pdfrwt beam="1">  1       21 0.32321848E-01 0.32673573E+03</pdfrwt>
<pdfrwt beam="2">  1       21 0.11374454E+00 0.32673573E+03</pdfrwt>
<totfact> 0.51043392E+03</totfact>
</mgrwt>
</event>
<event>
 5    0  0.1324511E+000  0.2805727E+03  0.7546771E-02  0.1095377E+00
         21   -1    0    0  504  501  0.00000000000E+00  0.00000000000E+00  0.75176502728E+02  0.75176502728E+02  0.00000000000E+00 0.  1.
         21   -1    0    0  501  502 -0.00000000000E+00 -0.00000000000E+00 -0.12506089930E+04  0.12506089930E+04  0.00000000000E+00 0.  1.
         25    1    1    2    0    0 -0.18865370367E+03  0.16584880224E+03 -0.87932193361E+03  0.92299951681E+03  0.12500000000E+03 0.  0.
         21    1    1    2  503  502  0.24965982152E+02 -0.86084341052E+02 -0.11683448838E+03  0.14725526039E+03  0.00000000000E+00 0.  1.
         21    1    1    2  504  503  0.16368772151E+03 -0.79764461190E+02 -0.17927606826E+03  0.25553071849E+03  0.00000000000E+00 0.  1.
<mgrwt>
<rscale>  4 0.28057271E+03</rscale>
<asrwt>0</asrwt>
<pdfrwt beam="1">  1       21 0.11565616E-01 0.28057271E+03</pdfrwt>
<pdfrwt beam="2">  1       21 0.19240138E+00 0.28057271E+03</pdfrwt>
<totfact> 0.88561387E+03</totfact>
</mgrwt>
</event>
<event>
 5    0  0.1324511E+000  0.2290797E+03  0.7546771E-02  0.1127289E+00
         21   -1    0    0  504  501  0.00000000000E+00  0.00000000000E+00  0.44119289683E+03  0.44119289683E+03  0.00000000000E+00 0. -1.
         21   -1    0    0  501  502 -0.00000000000E+00 -0.00000000000E+00 -0.25592608204E+03  0.25592608204E+03  0.00000000000E+00 0. -1.
         25    1    1    2    0    0  0.99003576029E+02 -0.20863944404E+03 -0.13041337910E+03  0.29319750191E+03  0.12500000000E+03 0.  0.
         21    1    1    2  503  502 -0.77734186992E+02  0.17022289065E+03  0.30642233991E+03  0.35904468625E+03  0.00000000000E+00 0. -1.
         21    1    1    2  504  503 -0.21269389037E+02  0.38416553388E+02  0.92578539778E+01  0.44876790710E+02  0.00000000000E+00 0. -1.
<mgrwt>
<rscale>  4 0.22907973E+03</rscale>
<asrwt>0</asrwt>
<pdfrwt beam="1">  1       21 0.67875830E-01 0.22907973E+03</pdfrwt>
<pdfrwt beam="2">  1       21 0.39373243E-01 0.22907973E+03</pdfrwt>
<totfact> 0.12049175E+04</totfact>
</mgrwt>
</event>
<event>
 5    0  0.1324511E+000  0.2409048E+03  0.7546771E-02  0.1119192E+00
         21   -1    0    0  504  501  0.00000000000E+00  0.00000000000E+00  0.57681758882E+03  0.57681758882E+03  0.00000000000E+00 0. -1.
         21   -1    0    0  501  502 -0.00000000000E+00 -0.00000000000E+00 -0.19393387526E+03  0.19393387526E+03  0.00000000000E+00 0. -1.
         25    1    1    2    0    0  0.40302445569E+01 -0.20589773307E+03 -0.85662417286E+02  0.25568177309E+03  0.12500000000E+03 0.  0.
         21    1    1    2  503  502 -0.16413601446E+02  0.14062205708E+02  0.43492989930E+02  0.48567397654E+02  0.00000000000E+00 0.  1.
         21    1    1    2  504  503  0.12383356889E+02  0.19183552736E+03  0.42505314092E+03  0.46650229334E+03  0.00000000000E+00 0. -1.
<mgrwt>
<rscale>  4 0.24090479E+03</rscale>
<asrwt>0</asrwt>
<pdfrwt beam="1">  1       21 0.88741166E-01 0.24090479E+03</pdfrwt>
<pdfrwt beam="2">  1       21 0.29835981E-01 0.24090479E+03</pdfrwt>
<totfact> 0.11339373E+04</totfact>
</mgrwt>
</event>
<event>
 5    0  0.1324511E+000  0.2337160E+03  0.7546771E-02  0.1124051E+00
         21   -1    0    0  504  501  0.00000000000E+00  0.00000000000E+00  0.18351745778E+03  0.18351745778E+03  0.00000000000E+00 0. -1.
         21   -1    0    0  501  502 -0.00000000000E+00 -0.00000000000E+00 -0.15991639450E+04  0.15991639450E+04  0.00000000000E+00 0.  1.
         25    1    1    2    0    0  0.20109305379E+03 -0.53365567694E+02 -0.14700956106E+04  0.14899974512E+04  0.12500000000E+03 0.  0.
         21    1    1    2  503  502 -0.75824481276E+02 -0.26099574559E+02  0.10839430890E+03  0.13483273325E+03  0.00000000000E+00 0. -1.
         21    1    1    2  504  503 -0.12526857251E+03  0.79465142253E+02 -0.53945185462E+02  0.15785121833E+03  0.00000000000E+00 0. -1.
<mgrwt>
<rscale>  4 0.23371597E+03</rscale>
<asrwt>0</asrwt>
<pdfrwt beam="1">  1       21 0.28233455E-01 0.23371597E+03</pdfrwt>
<pdfrwt beam="2">  1       21 0.24602522E+00 0.23371597E+03</pdfrwt>
<totfact> 0.80241881E+02</totfact>
</mgrwt>
</event>
<event>
 5    0  0.1324511E+000  0.2508740E+03  0.7546771E-02  0.1112754E+00
         21   -1    0    0  504  501  0.00000000000E+00  0.00000000000E+00  0.79905743141E+03  0.79905743141E+03  0.00000000000E+00 0. -1.
         21   -1    0    0  501  502 -0.00000000000E+00 -0.00000000000E+00 -0.88117869370E+02  0.88117869370E+02  0.00000000000E+00 0. -1.
         25    1    1    2    0    0 -0.13309543814E+03 -0.19146375756E+03  0.46121576001E+03  0.53171208694E+03  0.12500000000E+03 0.  0.
         21    1    1    2  503  502  0.11826009810E+03  0.17438825763E+03  0.16457327338E+03  0.26735945376E+03  0.00000000000E+00 0. -1.
         21    1    1    2  504  503  0.14835340041E+02  0.17075499931E+02  0.85150528650E+02  0.88103760086E+02  0.00000000000E+00 0. -1.
<mgrwt>
<rscale>  4 0.25087402E+03</rscale>
<asrwt>0</asrwt>
<pdfrwt beam="1">  1       21 0.12293191E+00 0.25087402E+03</pdfrwt>
<pdfrwt beam="2">  1       21 0.13556596E-01 0.25087402E+03</pdfrwt>
<totfact> 0.22676778E+04</totfact>
</mgrwt>
</event>
<event>
 5    0  0.1324511E+000  0.2720508E+03  0.7546771E-02  0.1100112E+00
         21   -1    0    0  504  501  0.00000000000E+00  0.00000000000E+00  0.18178669170E+04  0.18178669170E+04  0.00000000000E+00 0.  1.
         21   -1    0    0  501  502 -0.00000000000E+00 -0.00000000000E+00 -0.34682245925E+03  0.34682245925E+03  0.00000000000E+00 0.  1.
         25    1    1    2    0    0 -0.10198875103E+03  0.21905464660E+03 -0.28366910434E+03  0.39303918926E+03  0.12500000000E+03 0.  0.
         21    1    1    2  503  502  0.47510812450E+01 -0.24020460278E+02  0.25708860047E+03  0.25825201601E+03  0.00000000000E+00 0. -1.
         21    1    1    2  504  503  0.97237669784E+02 -0.19503418633E+03  0.14976249616E+04  0.15133981709E+04  0.00000000000E+00 0.  1.
<mgrwt>
<rscale>  4 0.27205081E+03</rscale>
<asrwt>0</asrwt>
<pdfrwt beam="1">  1       21 0.27967183E+00 0.27205081E+03</pdfrwt>
<pdfrwt beam="2">  1       21 0.53357302E-01 0.27205081E+03</pdfrwt>
<totfact> 0.13401814E+02</totfact>
</mgrwt>
</event>
<event>
 5    0  0.1324511E+000  0.2503659E+03  0.7546771E-02  0.1113074E+00
         21   -1    0    0  504  501  0.00000000000E+00  0.00000000000E+00  0.18628398979E+03  0.18628398979E+03  0.00000000000E+00 0.  1.
         21   -1    0    0  501  502 -0.00000000000E+00 -0.00000000000E+00 -0.32077416717E+03  0.32077416717E+03  0.00000000000E+00 0.  1.
         25    1    1    2    0    0  0.20298315127E+03 -0.76523968095E+02 -0.13688628714E+03  0.28534353506E+03  0.12500000000E+03 0.  0.
         21    1    1    2  503  502 -0.73897438663E+02  0.51314044197E+02 -0.37742605174E+01  0.90045586317E+02  0.00000000000E+00 0.  1.
         21    1    1    2  504  503 -0.12908571260E+03  0.25209923898E+02  0.61703702823E+01  0.13166903558E+03  0.00000000000E+00 0.  1.
<mgrwt>
<rscale>  4 0.25036589E+03</rscale>
<asrwt>0</asrwt>
<pdfrwt beam="1">  1       21 0.28659076E-01 0.25036589E+03</pdfrwt>
<pdfrwt beam="2">  1       21 0.49349871E-01 0.25036589E+03</pdfrwt>
<totfact> 0.44418020E+04</totfact>
</mgrwt>
</event>
<event>
 5    0  0.1324511E+000  0.2404189E+03  0.7546771E-02  0.1119514E+00
         21   -1    0    0  504  501  0.00000000000E+00  0.00000000000E+00  0.19948362619E+03  0.19948362619E+03  0.00000000000E+00 0.  1.
         21   -1    0    0  501  502 -0.00000000000E+00 -0.00000000000E+00 -0.43211918055E+03  0.43211918055E+03  0.00000000000E+00 0.  1.
         25    1    1    2    0    0 -0.92607508112E+02 -0.18330335274E+03 -0.30894469199E+03  0.39146914616E+03  0.12500000000E+03 0.  0.
         21    1    1    2  503  502  0.74028757446E+02  0.53131068159E+02  0.67350856880E+01  0.91370283528E+02  0.00000000000E+00 0. -1.
         21    1    1    2  504  503  0.18578750665E+02  0.13017228458E+03  0.69574051948E+02  0.14876337706E+03  0.00000000000E+00 0.  1.
<mgrwt>
<rscale>  4 0.24041895E+03</rscale>
<asrwt>0</asrwt>
<pdfrwt beam="1">  1       21 0.30689789E-01 0.24041895E+03</pdfrwt>
<pdfrwt beam="2">  1       21 0.66479873E-01 0.24041895E+03</pdfrwt>
<totfact> 0.20598128E+04</totfact>
</mgrwt>
</event>
<event>
 5    0  0.1324511E+000  0.2563165E+03  0.7546771E-02  0.1109377E+00
         21   -1    0    0  504  501  0.00000000000E+00  0.00000000000E+00  0.27280759560E+03  0.27280759560E+03  0.00000000000E+00 0. -1.
         21   -1    0    0  501  502 -0.00000000000E+00 -0.00000000000E+00 -0.44876022665E+03  0.44876022665E+03  0.00000000000E+00 0. -1.
         25    1    1    2    0    0  0.14116058787E+03  0.18234666537E+03 -0.33471003525E+03  0.42524396014E+03  0.12500000000E+03 0.  0.
         21    1    1    2  503  502 -0.52506574032E+01 -0.34571740972E+02  0.67005457898E+02  0.75581122412E+02  0.00000000000E+00 0. -1.
         21    1    1    2  504  503 -0.13590993046E+03 -0.14777492439E+03  0.91751946304E+02  0.22074273970E+03  0.00000000000E+00 0. -1.
<mgrwt>
<rscale>  4 0.25631645E+03</rscale>
<asrwt>0</asrwt>
<pdfrwt beam="1">  1       21 0.41970400E-01 0.25631645E+03</pdfrwt>
<pdfrwt beam="2">  1       21 0.69040034E-01 0.25631645E+03</pdfrwt>
<totfact> 0.10036035E+04</totfact>
</mgrwt>
</event>
<event>
 5    0  0.1324511E+000  0.2734908E+03  0.7546771E-02  0.1099298E+00
         21   -1    0    0  504  501  0.00000000000E+00  0.00000000000E+00  0.75192322294E+02  0.75192322294E+02  0.00000000000E+00 0.  1.
         21   -1    0    0  501  502 -0.00000000000E+00 -0.00000000000E+00 -0.12454831955E+04  0.12454831955E+04  0.00000000000E+00 0.  1.
         25    1    1    2    0    0  0.23107045853E+03 -0.76017513174E+02 -0.94852985821E+03  0.98717076083E+03  0.12500000000E+03 0.  0.
         21    1    1    2  503  502 -0.15708390593E+03  0.24842986097E+02 -0.13714993418E+03  0.21000626635E+03  0.00000000000E+00 0.  1.
         21    1    1    2  504  503 -0.73986552601E+02  0.51174527077E+02 -0.84611080821E+02  0.12349849062E+03  0.00000000000E+00 0.  1.
<mgrwt>
<rscale>  4 0.27349080E+03</rscale>
<asrwt>0</asrwt>
<pdfrwt beam="1">  1       21 0.11568050E-01 0.27349080E+03</pdfrwt>
<pdfrwt beam="2">  1       21 0.19161279E+00 0.27349080E+03</pdfrwt>
<totfact> 0.89991550E+03</totfact>
</mgrwt>
</event>
<event>
 5    0  0.1324511E+000  0.7321374E+03  0.7546771E-02  0.9665303E-01
         21   -1    0    0  504  501  0.00000000000E+00  0.00000000000E+00  0.42896839080E+03  0.42896839080E+03  0.00000000000E+00 0. -1.
         21   -1    0    0  501  502 -0.00000000000E+00 -0.00000000000E+00 -0.12660917881E+04  0.12660917881E+04  0.00000000000E+00 0.  1.
         25    1    1    2    0    0 -0.56562676503E+03  0.44163828101E+03 -0.53137991047E+03  0.90164716926E+03  0.12500000000E+03 0.  0.
         21    1    1    2  503  502  0.52553130798E+03 -0.42329839797E+03 -0.24404811180E+03  0.71758216969E+03  0.00000000000E+00 0. -1.
         21    1    1    2  504  503  0.40095457054E+02 -0.18339883043E+02 -0.61695375008E+02  0.75830839925E+02  0.00000000000E+00 0. -1.
<mgrwt>
<rscale>  4 0.73120751E+03</rscale>
<asrwt>0</asrwt>
<pdfrwt beam="1">  1       21 0.65995137E-01 0.73213737E+03</pdfrwt>
<pdfrwt beam="2">  1       21 0.19478335E+00 0.73213737E+03</pdfrwt>
<totfact> 0.22227952E+02</totfact>
</mgrwt>
</event>
<event>
 5    0  0.1324511E+000  0.2432361E+03  0.7546771E-02  0.1117656E+00
         21   -1    0    0  504  501  0.00000000000E+00  0.00000000000E+00  0.11694717518E+03  0.11694717518E+03  0.00000000000E+00 0.  1.
         21   -1    0    0  501  502 -0.00000000000E+00 -0.00000000000E+00 -0.50892301628E+03  0.50892301628E+03  0.00000000000E+00 0. -1.
         25    1    1    2    0    0 -0.44373388215E+02 -0.20388671288E+03 -0.31921668865E+03  0.40132665447E+03  0.12500000000E+03 0.  0.
         21    1    1    2  503  502  0.36305845907E+02  0.15537011971E+03 -0.37150537580E+02  0.16382353613E+03  0.00000000000E+00 0.  1.
         21    1    1    2  504  503  0.80675423085E+01  0.48516593167E+02 -0.35608614866E+02  0.60720000857E+02  0.00000000000E+00 0.  1.
<mgrwt>
<rscale>  4 0.24323608E+03</rscale>
<asrwt>0</asrwt>
<pdfrwt beam="1">  1       21 0.17991873E-01 0.24323608E+03</pdfrwt>
<pdfrwt beam="2">  1       21 0.78295848E-01 0.24323608E+03</pdfrwt>
<totfact> 0.39584111E+04</totfact>
</mgrwt>
</event>
<event>
 5    0  0.1324511E+000  0.3170226E+03  0.7546771E-02  0.1077028E+00
         21   -1    0    0  504  501  0.00000000000E+00  0.00000000000E+00  0.82318032092E+02  0.82318032092E+02  0.00000000000E+00 0. -1.
         21   -1    0    0  501  502 -0.00000000000E+00 -0.00000000000E+00 -0.12947952126E+04  0.12947952126E+04  0.00000000000E+00 0. -1.
         25    1    1    2    0    0  0.27919734362E+03  0.83229571110E+02 -0.81328575901E+03  0.87289005264E+03  0.12500000000E+03 0.  0.
         21    1    1    2  503  502 -0.11848153434E+03 -0.76352664006E+02 -0.23726703244E+03  0.27597689752E+03  0.00000000000E+00 0. -1.
         21    1    1    2  504  503 -0.16071580928E+03 -0.68769071038E+01 -0.16192438911E+03  0.22824629458E+03  0.00000000000E+00 0. -1.
<mgrwt>
<rscale>  4 0.31702258E+03</rscale>
<asrwt>0</asrwt>
<pdfrwt beam="1">  1       21 0.12664313E-01 0.31702258E+03</pdfrwt>
<pdfrwt beam="2">  1       21 0.19919926E+00 0.31702258E+03</pdfrwt>
<totfact> 0.66382265E+03</totfact>
</mgrwt>
</event>
<event>
 5    0  0.1324511E+000  0.2493796E+03  0.7546771E-02  0.1113698E+00
         21   -1    0    0  504  501  0.00000000000E+00  0.00000000000E+00  0.39296865584E+03  0.39296865584E+03  0.00000000000E+00 0.  1.
         21   -1    0    0  501  502 -0.00000000000E+00 -0.00000000000E+00 -0.26445401420E+03  0.26445401420E+03  0.00000000000E+00 0. -1.
         25    1    1    2    0    0  0.20397852924E+03  0.70412800708E+02 -0.15490972306E+03  0.29357660873E+03  0.12500000000E+03 0.  0.
         21    1    1    2  503  502 -0.14722238419E+03 -0.72010666729E+02  0.16524962290E+03  0.23273891896E+03  0.00000000000E+00 0.  1.
         21    1    1    2  504  503 -0.56756145041E+02  0.15978660215E+01  0.11817474180E+03  0.13110714235E+03  0.00000000000E+00 0.  1.
<mgrwt>
<rscale>  4 0.24937964E+03</rscale>
<asrwt>0</asrwt>
<pdfrwt beam="1">  1       21 0.60456716E-01 0.24937964E+03</pdfrwt>
<pdfrwt beam="2">  1       21 0.40685233E-01 0.24937964E+03</pdfrwt>
<totfact> 0.14354201E+04</totfact>
</mgrwt>
</event>
<event>
 5    0  0.1324511E+000  0.2918765E+03  0.7546771E-02  0.1089373E+00
         21   -1    0    0  504  501  0.00000000000E+00  0.00000000000E+00  0.31622620563E+03  0.31622620563E+03  0.00000000000E+00 0. -1.
         21   -1    0    0  501  502 -0.00000000000E+00 -0.00000000000E+00 -0.75401230320E+03  0.75401230320E+03  0.00000000000E+00 0. -1.
         25    1    1    2    0    0 -0.22058837310E+03 -0.79799196930E+02 -0.29178368450E+03  0.39470224311E+03  0.12500000000E+03 0.  0.
         21    1    1    2  503  502  0.25513778510E+02 -0.22190834582E+03  0.95188791197E+02  0.24280686318E+03  0.00000000000E+00 0. -1.
         21    1    1    2  504  503  0.19507459459E+03  0.30170754275E+03 -0.24119120428E+03  0.43272940254E+03  0.00000000000E+00 0. -1.
<mgrwt>
<rscale>  4 0.29187650E+03</rscale>
<asrwt>0</asrwt>
<pdfrwt beam="1">  1       21 0.48650185E-01 0.29187650E+03</pdfrwt>
<pdfrwt beam="2">  1       21 0.11600189E+00 0.29187650E+03</pdfrwt>
<totfact> 0.21496477E+03</totfact>
</mgrwt>
</event>
<event>
 5    0  0.1324511E+000  0.2386053E+03  0.7546771E-02  0.1120725E+00
         21   -1    0    0  504  501  0.00000000000E+00  0.00000000000E+00  0.77639547533E+03  0.77639547533E+03  0.00000000000E+00 0. -1.
         21   -1    0    0  501  502 -0.00000000000E+00 -0.00000000000E+00 -0.81228750115E+02  0.81228750115E+02  0.00000000000E+00 0. -1.
         25    1    1    2    0    0 -0.78726525570E+02 -0.19570449404E+03  0.21263419683E+03  0.32455572169E+03  0.12500000000E+03 0.  0.
         21    1    1    2  503  502 -0.47890552099E+01  0.22227259782E+02  0.12442000744E+03  0.12648052964E+03  0.00000000000E+00 0. -1.
         21    1    1    2  504  503  0.83515580780E+02  0.17347723426E+03  0.35811252094E+03  0.40658797411E+03  0.00000000000E+00 0. -1.
<mgrwt>
<rscale>  4 0.23860527E+03</rscale>
<asrwt>0</asrwt>
<pdfrwt beam="1">  1       21 0.11944545E+00 0.23860527E+03</pdfrwt>
<pdfrwt beam="2">  1       21 0.12496731E-01 0.23860527E+03</pdfrwt>
<totfact> 0.28415205E+04</totfact>
</mgrwt>
</event>
<event>
 5    0  0.1324511E+000  0.3107316E+03  0.7546771E-02  0.1079996E+00
         21   -1    0    0  504  501  0.00000000000E+00  0.00000000000E+00  0.30087713649E+04  0.30087713649E+04  0.00000000000E+00 0.  1.
         21   -1    0    0  501  502 -0.00000000000E+00 -0.00000000000E+00 -0.74985825865E+02  0.74985825865E+02  0.00000000000E+00 0.  1.
         25    1    1    2    0    0 -0.43536278462E+02  0.28112931285E+03  0.29260109582E+03  0.42681319024E+03  0.12500000000E+03 0.  0.
         21    1    1    2  503  502 -0.82513091047E+01 -0.21424843849E+02  0.28540858559E+03  0.28633052363E+03  0.00000000000E+00 0.  1.
         21    1    1    2  504  503  0.51787587567E+02 -0.25970446900E+03  0.23557758576E+04  0.23706134769E+04  0.00000000000E+00 0.  1.
<mgrwt>
<rscale>  4 0.31073155E+03</rscale>
<asrwt>0</asrwt>
<pdfrwt beam="1">  1       21 0.46288781E+00 0.31073155E+03</pdfrwt>
<pdfrwt beam="2">  1       21 0.11536283E-01 0.31073155E+03</pdfrwt>
<totfact> 0.18276475E+02</totfact>
</mgrwt>
</event>
<event>
 5    0  0.1324511E+000  0.2678167E+03  0.7546771E-02  0.1102536E+00
         21   -1    0    0  504  501  0.00000000000E+00  0.00000000000E+00  0.60042927967E+02  0.60042927967E+02  0.00000000000E+00 0. -1.
         21   -1    0    0  501  502 -0.00000000000E+00 -0.00000000000E+00 -0.11244061535E+04  0.11244061535E+04  0.00000000000E+00 0. -1.
         25    1    1    2    0    0 -0.17663805786E+03  0.15779658247E+03 -0.52465419865E+03  0.58905669768E+03  0.12500000000E+03 0.  0.
         21    1    1    2  503  502  0.47450476819E+02 -0.65546367768E+02 -0.27573655743E+03  0.28736479113E+03  0.00000000000E+00 0.  1.
         21    1    1    2  504  503  0.12918758104E+03 -0.92250214704E+02 -0.26397246946E+03  0.30802759266E+03  0.00000000000E+00 0. -1.
<mgrwt>
<rscale>  4 0.26781666E+03</rscale>
<asrwt>0</asrwt>
<pdfrwt beam="1">  1       21 0.92373750E-02 0.26781666E+03</pdfrwt>
<pdfrwt beam="2">  1       21 0.17298554E+00 0.26781666E+03</pdfrwt>
<totfact> 0.18101669E+04</totfact>
</mgrwt>
</event>
<event>
 5    0  0.1324511E+000  0.2404551E+03  0.7546771E-02  0.1119490E+00
         21   -1    0    0  504  501  0.00000000000E+00  0.00000000000E+00  0.14786230544E+03  0.14786230544E+03  0.00000000000E+00 0. -1.
         21   -1    0    0  501  502 -0.00000000000E+00 -0.00000000000E+00 -0.11576410919E+04  0.11576410919E+04  0.00000000000E+00 0. -1.
         25    1    1    2    0    0  0.20397782384E+03  0.33048128847E+02 -0.96104040540E+03  0.99092017451E+03  0.12500000000E+03 0.  0.
         21    1    1    2  503  502 -0.17904931616E+03 -0.10962083796E+03  0.17001545597E+02  0.21062867394E+03  0.00000000000E+00 0. -1.
         21    1    1    2  504  503 -0.24928507681E+02  0.76572709111E+02 -0.65739926638E+02  0.10395454887E+03  0.00000000000E+00 0.  1.
<mgrwt>
<rscale>  4 0.24045515E+03</rscale>
<asrwt>0</asrwt>
<pdfrwt beam="1">  1       21 0.22748047E-01 0.24045515E+03</pdfrwt>
<pdfrwt beam="2">  1       21 0.17809863E+00 0.24045515E+03</pdfrwt>
<totfact> 0.32608635E+03</totfact>
</mgrwt>
</event>
<event>
 5    0  0.1324511E+000  0.2815700E+03  0.7546771E-02  0.1094835E+00
         21   -1    0    0  504  501  0.00000000000E+00  0.00000000000E+00  0.13074504156E+03  0.13074504156E+03  0.00000000000E+00 0.  1.
         21   -1    0    0  501  502 -0.00000000000E+00 -0.00000000000E+00 -0.78846471291E+03  0.78846471291E+03  0.00000000000E+00 0. -1.
         25    1    1    2    0    0  0.17358999847E+03  0.18309330763E+03 -0.56043106577E+03  0.62718787165E+03  0.12500000000E+03 0.  0.
         21    1    1    2  503  502 -0.11378253807E+03 -0.18290649120E+03 -0.79708049581E+02  0.22968374706E+03  0.00000000000E+00 0.  1.
         21    1    1    2  504  503 -0.59807460406E+02 -0.18681642235E+00 -0.17580556002E+02  0.62338135759E+02  0.00000000000E+00 0. -1.
<mgrwt>
<rscale>  4 0.28156997E+03</rscale>
<asrwt>0</asrwt>
<pdfrwt beam="1">  1       21 0.20114622E-01 0.28156997E+03</pdfrwt>
<pdfrwt beam="2">  1       21 0.12130226E+00 0.28156997E+03</pdfrwt>
<totfact> 0.11129646E+04</totfact>
</mgrwt>
</event>
<event>
 5    0  0.1324511E+000  0.2429675E+03  0.7546771E-02  0.1117832E+00
         21   -1    0    0  504  501  0.00000000000E+00  0.00000000000E+00  0.14761422173E+04  0.14761422173E+04  0.00000000000E+00 0.  1.
         21   -1    0    0  501  502 -0.00000000000E+00 -0.00000000000E+00 -0.49644695835E+02  0.49644695835E+02  0.00000000000E+00 0. -1.
         25    1    1    2    0    0  0.12146988079E+03  0.16927273766E+03  0.34496624420E+03  0.42194182217E+03  0.12500000000E+03 0.  0.
         21    1    1    2  503  502 -0.50807216933E+01 -0.47039918584E+02  0.15478848402E+03  0.16185809359E+03  0.00000000000E+00 0.  1.
         21    1    1    2  504  503 -0.11638915910E+03 -0.12223281908E+03  0.92674279326E+03  0.94198699740E+03  0.00000000000E+00 0.  1.
<mgrwt>
<rscale>  4 0.24296747E+03</rscale>
<asrwt>0</asrwt>
<pdfrwt beam="1">  1       21 0.22709877E+00 0.24296747E+03</pdfrwt>
<pdfrwt beam="2">  1       21 0.76376467E-02 0.24296747E+03</pdfrwt>
<totfact> 0.11373383E+04</totfact>
</mgrwt>
</event>
<event>
 5    0  0.1324511E+000  0.2311772E+03  0.7546771E-02  0.1125814E+00
         21   -1    0    0  504  501  0.00000000000E+00  0.00000000000E+00  0.35247665527E+03  0.35247665527E+03  0.00000000000E+00 0. -1.
         21   -1    0    0  501  502 -0.00000000000E+00 -0.00000000000E+00 -0.27222753713E+03  0.27222753713E+03  0.00000000000E+00 0. -1.
         25    1    1    2    0    0  0.55319998193E+02 -0.20145813056E+03 -0.15844840896E+03  0.29047646870E+03  0.12500000000E+03 0.  0.
         21    1    1    2  503  502 -0.17668888883E+01  0.48830972444E+02  0.13122873384E+03  0.14003059077E+03  0.00000000000E+00 0. -1.
         21    1    1    2  504  503 -0.53553109304E+02  0.15262715812E+03  0.10746879326E+03  0.19419713293E+03  0.00000000000E+00 0. -1.
<mgrwt>
<rscale>  4 0.23117722E+03</rscale>
<asrwt>0</asrwt>
<pdfrwt beam="1">  1       21 0.54227178E-01 0.23117722E+03</pdfrwt>
<pdfrwt beam="2">  1       21 0.41881160E-01 0.23117722E+03</pdfrwt>
<totfact> 0.17243021E+04</totfact>
</mgrwt>
</event>
<event>
 5    0  0.1324511E+000  0.3026703E+03  0.7546771E-02  0.1083913E+00
         21   -1    0    0  504  501  0.00000000000E+00  0.00000000000E+00  0.33080598145E+03  0.33080598145E+03  0.00000000000E+00 0.  1.
         21   -1    0    0  501  502 -0.00000000000E+00 -0.00000000000E+00 -0.26196423001E+03  0.26196423001E+03  0.00000000000E+00 0.  1.
         25    1    1    2    0    0  0.21772498236E+03 -0.16905670617E+03  0.80328464223E+02  0.31314852708E+03  0.12500000000E+03 0.  0.
         21    1    1    2  503  502 -0.20164326305E+03  0.14663207237E+03  0.10239643944E+01  0.24932312104E+03  0.00000000000E+00 0.  1.
         21    1    1    2  504  503 -0.16081719315E+02  0.22424633799E+02 -0.12510677180E+02  0.30298563343E+02  0.00000000000E+00 0.  1.
<mgrwt>
<rscale>  4 0.30267035E+03</rscale>
<asrwt>0</asrwt>
<pdfrwt beam="1">  1       21 0.50893228E-01 0.30267035E+03</pdfrwt>
<pdfrwt beam="2">  1       21 0.40302189E-01 0.30267035E+03</pdfrwt>
<totfact> 0.20648584E+04</totfact>
</mgrwt>
</event>
<event>
 5    0  0.1324511E+000  0.2629468E+03  0.7546771E-02  0.1105386E+00
         21   -1    0    0  504  501  0.00000000000E+00  0.00000000000E+00  0.22696656683E+03  0.22696656683E+03  0.00000000000E+00 0. -1.
         21   -1    0    0  501  502 -0.00000000000E+00 -0.00000000000E+00 -0.30312362991E+03  0.30312362991E+03  0.00000000000E+00 0. -1.
         25    1    1    2    0    0 -0.51344212922E+02 -0.22751033511E+03 -0.67000874544E+02  0.27296757678E+03  0.12500000000E+03 0.  0.
         21    1    1    2  503  502  0.25517685476E+02  0.22919669394E+03 -0.35463001683E+01  0.23064009415E+03  0.00000000000E+00 0. -1.
         21    1    1    2  504  503  0.25826527446E+02 -0.16863588320E+01 -0.56098883657E+01  0.26482525814E+02  0.00000000000E+00 0.  1.
<mgrwt>
<rscale>  4 0.26294683E+03</rscale>
<asrwt>0</asrwt>
<pdfrwt beam="1">  1       21 0.34917933E-01 0.26294683E+03</pdfrwt>
<pdfrwt beam="2">  1       21 0.46634405E-01 0.26294683E+03</pdfrwt>
<totfact> 0.33669525E+04</totfact>
</mgrwt>
</event>
<event>
 5    0  0.1324511E+000  0.2457424E+03  0.7546771E-02  0.1116025E+00
         21   -1    0    0  504  501  0.00000000000E+00  0.00000000000E+00  0.10702815071E+03  0.10702815071E+03  0.00000000000E+00 0.  1.
         21   -1    0    0  501  502 -0.00000000000E+00 -0.00000000000E+00 -0.80844626445E+03  0.80844626445E+03  0.00000000000E+00 0.  1.
         25    1    1    2    0    0 -0.99099025599E+01 -0.21134356096E+03 -0.63465618215E+03  0.68057165418E+03  0.12500000000E+03 0.  0.
         21    1    1    2  503  502  0.33914053517E+02  0.18964584813E+03 -0.53606015717E+02  0.19997328737E+03  0.00000000000E+00 0.  1.
         21    1    1    2  504  503 -0.24004150957E+02  0.21697712824E+02 -0.13155915869E+02  0.34929473619E+02  0.00000000000E+00 0.  1.
<mgrwt>
<rscale>  4 0.24574236E+03</rscale>
<asrwt>0</asrwt>
<pdfrwt beam="1">  1       21 0.16465869E-01 0.24574236E+03</pdfrwt>
<pdfrwt beam="2">  1       21 0.12437635E+00 0.24574236E+03</pdfrwt>
<totfact> 0.15465261E+04</totfact>
</mgrwt>
</event>
<event>
 5    0  0.1324511E+000  0.2680828E+03  0.7546771E-02  0.1102382E+00
         21   -1    0    0  504  501  0.00000000000E+00  0.00000000000E+00  0.14525910961E+03  0.14525910961E+03  0.00000000000E+00 0. -1.
         21   -1    0    0  501  502 -0.00000000000E+00 -0.00000000000E+00 -0.48430169368E+03  0.48430169368E+03  0.00000000000E+00 0. -1.
         25    1    1    2    0    0  0.13963837080E+03 -0.19168857135E+03 -0.26787947942E+03  0.37898258334E+03  0.12500000000E+03 0.  0.
         21    1    1    2  503  502 -0.13002198952E+03  0.17292842869E+03 -0.53003499200E+02  0.22275396772E+03  0.00000000000E+00 0. -1.
         21    1    1    2  504  503 -0.96163812815E+01  0.18760142657E+02 -0.18159605457E+02  0.27824252224E+02  0.00000000000E+00 0.  1.
<mgrwt>
<rscale>  4 0.26808279E+03</rscale>
<asrwt>0</asrwt>
<pdfrwt beam="1">  1       21 0.22347555E-01 0.26808279E+03</pdfrwt>
<pdfrwt beam="2">  1       21 0.74507954E-01 0.26808279E+03</pdfrwt>
<totfact> 0.29137031E+04</totfact>
</mgrwt>
</event>
<event>
 5    0  0.1324511E+000  0.2624249E+03  0.7546771E-02  0.1105695E+00
         21   -1    0    0  504  501  0.00000000000E+00  0.00000000000E+00  0.47919970775E+03  0.47919970775E+03  0.00000000000E+00 0. -1.
         21   -1    0    0  501  502 -0.00000000000E+00 -0.00000000000E+00 -0.12872063249E+03  0.12872063249E+03  0.00000000000E+00 0. -1.
         25    1    1    2    0    0  0.18900514030E+03 -0.13235901258E+03  0.18481871755E+03  0.32097478036E+03  0.12500000000E+03 0.  0.
         21    1    1    2  503  502 -0.15951097605E+03  0.92686653911E+02  0.13713795862E+03  0.22987254509E+03  0.00000000000E+00 0. -1.
         21    1    1    2  504  503 -0.29494164256E+02  0.39672358667E+02  0.28522399093E+02  0.57073014791E+02  0.00000000000E+00 0.  1.
<mgrwt>
<rscale>  4 0.26242494E+03</rscale>
<asrwt>0</asrwt>
<pdfrwt beam="1">  1       21 0.73723031E-01 0.26242494E+03</pdfrwt>
<pdfrwt beam="2">  1       21 0.19803175E-01 0.26242494E+03</pdfrwt>
<totfact> 0.37589224E+04</totfact>
</mgrwt>
</event>
<event>
 5    0  0.1324511E+000  0.3033513E+03  0.7546771E-02  0.1083577E+00
         21   -1    0    0  504  501  0.00000000000E+00  0.00000000000E+00  0.16810680417E+03  0.16810680417E+03  0.00000000000E+00 0.  1.
         21   -1    0    0  501  502 -0.00000000000E+00 -0.00000000000E+00 -0.63868719717E+03  0.63868719717E+03  0.00000000000E+00 0.  1.
         25    1    1    2    0    0 -0.25291971410E+03 -0.11148384283E+03 -0.41471263483E+03  0.51381767047E+03  0.12500000000E+03 0.  0.
         21    1    1    2  503  502  0.66973003373E+02  0.12924915796E+02 -0.46044118466E+02  0.82295185002E+02  0.00000000000E+00 0.  1.
         21    1    1    2  504  503  0.18594671073E+03  0.98558927036E+02 -0.98236397036E+01  0.21068114587E+03  0.00000000000E+00 0.  1.
<mgrwt>
<rscale>  4 0.30335133E+03</rscale>
<asrwt>0</asrwt>
<pdfrwt beam="1">  1       21 0.25862585E-01 0.30335133E+03</pdfrwt>
<pdfrwt beam="2">  1       21 0.98259570E-01 0.30335133E+03</pdfrwt>
<totfact> 0.11419138E+04</totfact>
</mgrwt>
</event>
<event>
 5    0  0.1324511E+000  0.2589198E+03  0.7546771E-02  0.1107794E+00
         21   -1    0    0  504  501  0.00000000000E+00  0.00000000000E+00  0.17047132786E+03  0.17047132786E+03  0.00000000000E+00 0.  1.
         21   -1    0    0  501  502 -0.00000000000E+00 -0.00000000000E+00 -0.41764666511E+03  0.41764666511E+03  0.00000000000E+00 0.  1.
         25    1    1    2    0    0  0.17438679847E+03  0.14492658811E+03 -0.24534312657E+03  0.35669695987E+03  0.12500000000E+03 0.  0.
         21    1    1    2  503  502 -0.16337754726E+03 -0.11816800310E+03 -0.81765858386E+01  0.20179880193E+03  0.00000000000E+00 0.  1.
         21    1    1    2  504  503 -0.11009251212E+02 -0.26758585005E+02  0.63443751624E+01  0.29622231177E+02  0.00000000000E+00 0.  1.
<mgrwt>
<rscale>  4 0.25891982E+03</rscale>
<asrwt>0</asrwt>
<pdfrwt beam="1">  1       21 0.26226358E-01 0.25891982E+03</pdfrwt>
<pdfrwt beam="2">  1       21 0.64253333E-01 0.25891982E+03</pdfrwt>
<totfact> 0.29891815E+04</totfact>
</mgrwt>
</event>
<event>
 5    0  0.1324511E+000  0.3436823E+03  0.7546771E-02  0.1065238E+00
         21   -1    0    0  504  501  0.00000000000E+00  0.00000000000E+00  0.75763843615E+02  0.75763843615E+02  0.00000000000E+00 0.  1.
         21   -1    0    0  501  502 -0.00000000000E+00 -0.00000000000E+00 -0.14931586963E+04  0.14931586963E+04  0.00000000000E+00 0.  1.
         25    1    1    2    0    0 -0.25548410652E+03  0.19292589548E+03 -0.72507940772E+03  0.80240742602E+03  0.12500000000E+03 0.  0.
         21    1    1    2  503  502  0.24321793149E+03 -0.17513319888E+03 -0.58792219468E+03  0.65990840769E+03  0.00000000000E+00 0.  1.
         21    1    1    2  504  503  0.12266175031E+02 -0.17792696595E+02 -0.10439325029E+03  0.10660670621E+03  0.00000000000E+00 0. -1.
<mgrwt>
<rscale>  4 0.34368231E+03</rscale>
<asrwt>0</asrwt>
<pdfrwt beam="1">  1       21 0.11655977E-01 0.34368231E+03</pdfrwt>
<pdfrwt beam="2">  1       21 0.22971669E+00 0.34368231E+03</pdfrwt>
<totfact> 0.48556648E+03</totfact>
</mgrwt>
</event>
<event>
 5    0  0.1324511E+000  0.2559009E+03  0.7546771E-02  0.1109631E+00
         21   -1    0    0  504  501  0.00000000000E+00  0.00000000000E+00  0.14232404120E+03  0.14232404120E+03  0.00000000000E+00 0.  1.
         21   -1    0    0  501  502 -0.00000000000E+00 -0.00000000000E+00 -0.41104002083E+03  0.41104002083E+03  0.00000000000E+00 0.  1.
         25    1    1    2    0    0 -0.21068628512E+03  0.73969967343E+02 -0.14886915835E+03  0.29605285527E+03  0.12500000000E+03 0.  0.
         21    1    1    2  503  502  0.22809237581E+02 -0.59024799915E+01 -0.30181660336E+02  0.38288813115E+02  0.00000000000E+00 0.  1.
         21    1    1    2  504  503  0.18787704754E+03 -0.68067487351E+02 -0.89665160943E+02  0.21902239364E+03  0.00000000000E+00 0.  1.
<mgrwt>
<rscale>  4 0.25590089E+03</rscale>
<asrwt>0</asrwt>
<pdfrwt beam="1">  1       21 0.21896007E-01 0.25590089E+03</pdfrwt>
<pdfrwt beam="2">  1       21 0.63236926E-01 0.25590089E+03</pdfrwt>
<totfact> 0.43776512E+04</totfact>
</mgrwt>
</event>
<event>
 5    0  0.1324511E+000  0.2953593E+03  0.7546771E-02  0.1087584E+00
         21   -1    0    0  504  501  0.00000000000E+00  0.00000000000E+00  0.11235996396E+03  0.11235996396E+03  0.00000000000E+00 0.  1.
         21   -1    0    0  501  502 -0.00000000000E+00 -0.00000000000E+00 -0.73598967907E+03  0.73598967907E+03  0.00000000000E+00 0.  1.
         25    1    1    2    0    0 -0.29886916383E+02  0.26593019948E+03 -0.32111132794E+03  0.43629071008E+03  0.12500000000E+03 0.  0.
         21    1    1    2  503  502  0.33650681164E+02 -0.34073947606E+02 -0.52143915693E+02  0.70798235798E+02  0.00000000000E+00 0.  1.
         21    1    1    2  504  503 -0.37637647809E+01 -0.23185625188E+03 -0.25037447147E+03  0.34126069715E+03  0.00000000000E+00 0.  1.
<mgrwt>
<rscale>  4 0.29535927E+03</rscale>
<asrwt>0</asrwt>
<pdfrwt beam="1">  1       21 0.17286148E-01 0.29535927E+03</pdfrwt>
<pdfrwt beam="2">  1       21 0.11322918E+00 0.29535927E+03</pdfrwt>
<totfact> 0.17431486E+04</totfact>
</mgrwt>
</event>
<event>
 5    0  0.1324511E+000  0.2577649E+03  0.7546771E-02  0.1108494E+00
         21   -1    0    0  504  501  0.00000000000E+00  0.00000000000E+00  0.74186067330E+03  0.74186067330E+03  0.00000000000E+00 0.  1.
         21   -1    0    0  501  502 -0.00000000000E+00 -0.00000000000E+00 -0.29216620783E+03  0.29216620783E+03  0.00000000000E+00 0.  1.
         25    1    1    2    0    0  0.64020815721E+02 -0.21614600798E+03 -0.20720025809E+03  0.33071847328E+03  0.12500000000E+03 0.  0.
         21    1    1    2  503  502 -0.62404587765E+02  0.37985311196E+02  0.19651827464E+03  0.20965840958E+03  0.00000000000E+00 0.  1.
         21    1    1    2  504  503 -0.16162279563E+01  0.17816069679E+03  0.46037644892E+03  0.49364999827E+03  0.00000000000E+00 0.  1.
<mgrwt>
<rscale>  4 0.25776493E+03</rscale>
<asrwt>0</asrwt>
<pdfrwt beam="1">  1       21 0.11413241E+00 0.25776493E+03</pdfrwt>
<pdfrwt beam="2">  1       21 0.44948648E-01 0.25776493E+03</pdfrwt>
<totfact> 0.26965355E+03</totfact>
</mgrwt>
</event>
<event>
 5    0  0.1324511E+000  0.2639690E+03  0.7546771E-02  0.1104782E+00
         21   -1    0    0  504  501  0.00000000000E+00  0.00000000000E+00  0.33559597458E+03  0.33559597458E+03  0.00000000000E+00 0. -1.
         21   -1    0    0  501  502 -0.00000000000E+00 -0.00000000000E+00 -0.38184824219E+03  0.38184824219E+03  0.00000000000E+00 0. -1.
         25    1    1    2    0    0 -0.10729560172E+02 -0.23440037053E+03 -0.27010505507E+03  0.37899920572E+03  0.12500000000E+03 0.  0.
         21    1    1    2  503  502  0.22786489117E+02  0.11779272434E+02  0.52020088390E+01  0.26173197002E+02  0.00000000000E+00 0.  1.
         21    1    1    2  504  503 -0.12056928945E+02  0.22262109810E+03  0.21865077862E+03  0.31227181404E+03  0.00000000000E+00 0. -1.
<mgrwt>
<rscale>  4 0.26396903E+03</rscale>
<asrwt>0</asrwt>
<pdfrwt beam="1">  1       21 0.51630150E-01 0.26396903E+03</pdfrwt>
<pdfrwt beam="2">  1       21 0.58745883E-01 0.26396903E+03</pdfrwt>
<totfact> 0.92477757E+03</totfact>
</mgrwt>
</event>
<event>
 5    0  0.1324511E+000  0.2376821E+03  0.7546771E-02  0.1121347E+00
         21   -1    0    0  504  501  0.00000000000E+00  0.00000000000E+00  0.41114856353E+03  0.41114856353E+03  0.00000000000E+00 0. -1.
         21   -1    0    0  501  502 -0.00000000000E+00 -0.00000000000E+00 -0.31895337963E+03  0.31895337963E+03  0.00000000000E+00 0. -1.
         25    1    1    2    0    0 -0.52679905711E+02 -0.19517329975E+03  0.33318847659E+03  0.40927661835E+03  0.12500000000E+03 0.  0.
         21    1    1    2  503  502  0.25478921206E+02  0.83868183564E+02 -0.58631927122E+02  0.10545496915E+03  0.00000000000E+00 0.  1.
         21    1    1    2  504  503  0.27200984504E+02  0.11130511618E+03 -0.18236136557E+03  0.21537035566E+03  0.00000000000E+00 0. -1.
<mgrwt>
<rscale>  4 0.23768212E+03</rscale>
<asrwt>0</asrwt>
<pdfrwt beam="1">  1       21 0.63253625E-01 0.23768212E+03</pdfrwt>
<pdfrwt beam="2">  1       21 0.49069751E-01 0.23768212E+03</pdfrwt>
<totfact> 0.88958581E+03</totfact>
</mgrwt>
</event>
<event>
 5    0  0.1324511E+000  0.2890308E+03  0.7546771E-02  0.1090856E+00
         21   -1    0    0  504  501  0.00000000000E+00  0.00000000000E+00  0.44936793199E+03  0.44936793199E+03  0.00000000000E+00 0. -1.
         21   -1    0    0  501  502 -0.00000000000E+00 -0.00000000000E+00 -0.29835881849E+03  0.29835881849E+03  0.00000000000E+00 0.  1.
         25    1    1    2    0    0  0.23043560548E+03  0.12170956399E+03 -0.15838768046E+03  0.32958374287E+03  0.12500000000E+03 0.  0.
         21    1    1    2  503  502 -0.12549286657E+03 -0.47666429982E+02  0.82926067711E+02  0.15778872207E+03  0.00000000000E+00 0. -1.
         21    1    1    2  504  503 -0.10494273891E+03 -0.74043134011E+02  0.22647072626E+03  0.26035428553E+03  0.00000000000E+00 0. -1.
<mgrwt>
<rscale>  4 0.28903077E+03</rscale>
<asrwt>0</asrwt>
<pdfrwt beam="1">  1       21 0.69133528E-01 0.28903077E+03</pdfrwt>
<pdfrwt beam="2">  1       21 0.45901357E-01 0.28903077E+03</pdfrwt>
<totfact> 0.81798546E+03</totfact>
</mgrwt>
</event>
<event>
 5    0  0.1324511E+000  0.3624411E+03  0.7546771E-02  0.1057621E+00
         21   -1    0    0  504  501  0.00000000000E+00  0.00000000000E+00  0.15433077140E+04  0.15433077140E+04  0.00000000000E+00 0.  1.
         21   -1    0    0  501  502 -0.00000000000E+00 -0.00000000000E+00 -0.80644750665E+02  0.80644750665E+02  0.00000000000E+00 0.  1.
         25    1    1    2    0    0 -0.15127530199E+03  0.30472012614E+03  0.73479151278E+03  0.81931809422E+03  0.12500000000E+03 0.  0.
         21    1    1    2  503  502  0.18052372396E+02 -0.12963833942E+02  0.49737865087E+02  0.54477558343E+02  0.00000000000E+00 0. -1.
         21    1    1    2  504  503  0.13322292960E+03 -0.29175629219E+03  0.67813358549E+03  0.75015681212E+03  0.00000000000E+00 0.  1.
<mgrwt>
<rscale>  4 0.36244113E+03</rscale>
<asrwt>0</asrwt>
<pdfrwt beam="1">  1       21 0.23743193E+00 0.36244113E+03</pdfrwt>
<pdfrwt beam="2">  1       21 0.12406886E-01 0.36244113E+03</pdfrwt>
<totfact> 0.38451774E+03</totfact>
</mgrwt>
</event>
<event>
 5    0  0.1324511E+000  0.2543719E+03  0.7546771E-02  0.1110573E+00
         21   -1    0    0  504  501  0.00000000000E+00  0.00000000000E+00  0.11329783561E+03  0.11329783561E+03  0.00000000000E+00 0. -1.
         21   -1    0    0  501  502 -0.00000000000E+00 -0.00000000000E+00 -0.11559996590E+04  0.11559996590E+04  0.00000000000E+00 0.  1.
         25    1    1    2    0    0 -0.62523403874E+02  0.21253439298E+03 -0.10090753995E+04  0.10406431695E+04  0.12500000000E+03 0.  0.
         21    1    1    2  503  502  0.65435612191E+02 -0.16668934596E+03 -0.35998998864E+02  0.18265564683E+03  0.00000000000E+00 0. -1.
         21    1    1    2  504  503 -0.29122083170E+01 -0.45845047026E+02  0.23725749979E+01  0.45998678309E+02  0.00000000000E+00 0. -1.
<mgrwt>
<rscale>  4 0.25437186E+03</rscale>
<asrwt>0</asrwt>
<pdfrwt beam="1">  1       21 0.17430436E-01 0.25437186E+03</pdfrwt>
<pdfrwt beam="2">  1       21 0.17784611E+00 0.25437186E+03</pdfrwt>
<totfact> 0.53446254E+03</totfact>
</mgrwt>
</event>
<event>
 5    0  0.1324511E+000  0.2284367E+03  0.7546771E-02  0.1127745E+00
         21   -1    0    0  504  501  0.00000000000E+00  0.00000000000E+00  0.97414055257E+02  0.97414055257E+02  0.00000000000E+00 0.  1.
         21   -1    0    0  501  502 -0.00000000000E+00 -0.00000000000E+00 -0.66857416011E+03  0.66857416011E+03  0.00000000000E+00 0.  1.
         25    1    1    2    0    0  0.22196132340E+03  0.15670600250E+02 -0.33797998941E+03  0.42351844120E+03  0.12500000000E+03 0.  0.
         21    1    1    2  503  502 -0.44535389829E+02 -0.35957272113E+02 -0.11461265145E+03  0.12811083575E+03  0.00000000000E+00 0. -1.
         21    1    1    2  504  503 -0.17742593357E+03  0.20286671863E+02 -0.11856746399E+03  0.21435893841E+03  0.00000000000E+00 0.  1.
<mgrwt>
<rscale>  4 0.22843674E+03</rscale>
<asrwt>0</asrwt>
<pdfrwt beam="1">  1       21 0.14986778E-01 0.22843674E+03</pdfrwt>
<pdfrwt beam="2">  1       21 0.10285756E+00 0.22843674E+03</pdfrwt>
<totfact> 0.29572290E+04</totfact>
</mgrwt>
</event>
<event>
 5    0  0.1324511E+000  0.3583413E+03  0.7546771E-02  0.1059243E+00
         21   -1    0    0  504  501  0.00000000000E+00  0.00000000000E+00  0.51744695443E+02  0.51744695443E+02  0.00000000000E+00 0. -1.
         21   -1    0    0  501  502 -0.00000000000E+00 -0.00000000000E+00 -0.25134829195E+04  0.25134829195E+04  0.00000000000E+00 0. -1.
         25    1    1    2    0    0  0.80217676998E+02  0.32611139035E+03 -0.13799012207E+04  0.14256703313E+04  0.12500000000E+03 0.  0.
         21    1    1    2  503  502 -0.46785180650E+02 -0.10935118112E+03 -0.21825118918E+03  0.24855606111E+03  0.00000000000E+00 0. -1.
         21    1    1    2  504  503 -0.33432496348E+02 -0.21676020923E+03 -0.86358581416E+03  0.89100122252E+03  0.00000000000E+00 0. -1.
<mgrwt>
<rscale>  4 0.35834134E+03</rscale>
<asrwt>0</asrwt>
<pdfrwt beam="1">  1       21 0.79607205E-02 0.35834134E+03</pdfrwt>
<pdfrwt beam="2">  1       21 0.38668977E+00 0.35834134E+03</pdfrwt>
<totfact> 0.10676227E+03</totfact>
</mgrwt>
</event>
<event>
 5    0  0.1324511E+000  0.2481336E+03  0.7546771E-02  0.1114490E+00
         21   -1    0    0  504  501  0.00000000000E+00  0.00000000000E+00  0.33966083224E+03  0.33966083224E+03  0.00000000000E+00 0.  1.
         21   -1    0    0  501  502 -0.00000000000E+00 -0.00000000000E+00 -0.10592211509E+04  0.10592211509E+04  0.00000000000E+00 0.  1.
         25    1    1    2    0    0 -0.83490962059E+02  0.19907328618E+03 -0.98856091141E+03  0.10195482282E+04  0.12500000000E+03 0.  0.
         21    1    1    2  503  502  0.29529185018E+02 -0.22560964901E+02 -0.15450562814E+02  0.40245369874E+02  0.00000000000E+00 0.  1.
         21    1    1    2  504  503  0.53961777041E+02 -0.17651232128E+03  0.28445115561E+03  0.33908838505E+03  0.00000000000E+00 0.  1.
<mgrwt>
<rscale>  4 0.24813364E+03</rscale>
<asrwt>0</asrwt>
<pdfrwt beam="1">  1       21 0.52255513E-01 0.24813364E+03</pdfrwt>
<pdfrwt beam="2">  1       21 0.16295710E+00 0.24813364E+03</pdfrwt>
<totfact> 0.78823208E+02</totfact>
</mgrwt>
</event>
<event>
 5    0  0.1324511E+000  0.2619210E+03  0.7546771E-02  0.1105995E+00
         21   -1    0    0  504  501  0.00000000000E+00  0.00000000000E+00  0.19666781177E+03  0.19666781177E+03  0.00000000000E+00 0. -1.
         21   -1    0    0  501  502 -0.00000000000E+00 -0.00000000000E+00 -0.31470139773E+03  0.31470139773E+03  0.00000000000E+00 0. -1.
         25    1    1    2    0    0  0.74442136252E+02 -0.21779796959E+03 -0.67445781288E+02  0.27046537786E+03  0.12500000000E+03 0.  0.
         21    1    1    2  503  502 -0.66155198032E+02  0.18834646346E+03 -0.25325324445E+02  0.20122691814E+03  0.00000000000E+00 0. -1.
         21    1    1    2  504  503 -0.82869382203E+01  0.29451506128E+02 -0.25262480227E+02  0.39676913507E+02  0.00000000000E+00 0. -1.
<mgrwt>
<rscale>  4 0.26192096E+03</rscale>
<asrwt>0</asrwt>
<pdfrwt beam="1">  1       21 0.30256587E-01 0.26192096E+03</pdfrwt>
<pdfrwt beam="2">  1       21 0.48415599E-01 0.26192096E+03</pdfrwt>
<totfact> 0.41381073E+04</totfact>
</mgrwt>
</event>
<event>
 5    0  0.1324511E+000  0.5984074E+03  0.7546771E-02  0.9908716E-01
         21   -1    0    0  504  501  0.00000000000E+00  0.00000000000E+00  0.88383323857E+03  0.88383323857E+03  0.00000000000E+00 0. -1.
         21   -1    0    0  501  502 -0.00000000000E+00 -0.00000000000E+00 -0.18094111885E+04  0.18094111885E+04  0.00000000000E+00 0. -1.
         25    1    1    2    0    0 -0.52866710013E+03  0.25095315024E+03 -0.16497611296E+04  0.17549367997E+04  0.12500000000E+03 0.  0.
         21    1    1    2  503  502  0.43588679080E+03 -0.20227084868E+03  0.51511163639E+03  0.70445069988E+03  0.00000000000E+00 0. -1.
         21    1    1    2  504  503  0.92780309326E+02 -0.48682301561E+02  0.20907154330E+03  0.23385692742E+03  0.00000000000E+00 0.  1.
<mgrwt>
<rscale>  4 0.59840737E+03</rscale>
<asrwt>0</asrwt>
<pdfrwt beam="1">  1       21 0.13597434E+00 0.59840737E+03</pdfrwt>
<pdfrwt beam="2">  1       21 0.27837095E+00 0.59840737E+03</pdfrwt>
<totfact> 0.11841932E+01</totfact>
</mgrwt>
</event>
<event>
 5    0  0.1324511E+000  0.3744836E+03  0.7546771E-02  0.1052992E+00
         21   -1    0    0  504  501  0.00000000000E+00  0.00000000000E+00  0.27350009868E+03  0.27350009868E+03  0.00000000000E+00 0.  1.
         21   -1    0    0  501  502 -0.00000000000E+00 -0.00000000000E+00 -0.56910833607E+03  0.56910833607E+03  0.00000000000E+00 0.  1.
         25    1    1    2    0    0 -0.34980020503E+03  0.47463396033E+02 -0.29470342766E+03  0.47653758265E+03  0.12500000000E+03 0.  0.
         21    1    1    2  503  502  0.17888173436E+03 -0.49092258990E+02 -0.42181214335E+02  0.19023138443E+03  0.00000000000E+00 0.  1.
         21    1    1    2  504  503  0.17091847068E+03  0.16288629565E+01  0.41276404608E+02  0.17583946767E+03  0.00000000000E+00 0.  1.
<mgrwt>
<rscale>  4 0.37448359E+03</rscale>
<asrwt>0</asrwt>
<pdfrwt beam="1">  1       21 0.42076939E-01 0.37448359E+03</pdfrwt>
<pdfrwt beam="2">  1       21 0.87555128E-01 0.37448359E+03</pdfrwt>
<totfact> 0.55055359E+03</totfact>
</mgrwt>
</event>
<event>
 5    0  0.1324511E+000  0.6352744E+03  0.7546771E-02  0.9847628E-01
         21   -1    0    0  504  501  0.00000000000E+00  0.00000000000E+00  0.30909959076E+03  0.30909959076E+03  0.00000000000E+00 0. -1.
         21   -1    0    0  501  502 -0.00000000000E+00 -0.00000000000E+00 -0.24385504341E+04  0.24385504341E+04  0.00000000000E+00 0. -1.
         25    1    1    2    0    0 -0.79603011152E+02  0.59100773606E+03 -0.20111915035E+04  0.21014621213E+04  0.12500000000E+03 0.  0.
         21    1    1    2  503  502 -0.31166366076E+02 -0.17813744166E+03 -0.12296871188E+03  0.21869063674E+03  0.00000000000E+00 0. -1.
         21    1    1    2  504  503  0.11076937723E+03 -0.41287029440E+03  0.47093720714E+01  0.42749726679E+03  0.00000000000E+00 0. -1.
<mgrwt>
<rscale>  4 0.62867990E+03</rscale>
<asrwt>0</asrwt>
<pdfrwt beam="1">  1       21 0.47553784E-01 0.63527438E+03</pdfrwt>
<pdfrwt beam="2">  1       21 0.37516160E+00 0.63527438E+03</pdfrwt>
<totfact> 0.34748014E+01</totfact>
</mgrwt>
</event>
<event>
 5    0  0.1324511E+000  0.2907197E+03  0.7546771E-02  0.1089974E+00
         21   -1    0    0  504  501  0.00000000000E+00  0.00000000000E+00  0.21569743479E+04  0.21569743479E+04  0.00000000000E+00 0. -1.
         21   -1    0    0  501  502 -0.00000000000E+00 -0.00000000000E+00 -0.40231965935E+03  0.40231965935E+03  0.00000000000E+00 0.  1.
         25    1    1    2    0    0  0.13663393370E+03  0.22374109967E+03 -0.33716612421E+03  0.44501113114E+03  0.12500000000E+03 0.  0.
         21    1    1    2  503  502 -0.16150310865E+02  0.23644352520E+02  0.12078424246E+03  0.12413187010E+03  0.00000000000E+00 0. -1.
         21    1    1    2  504  503 -0.12048362284E+03 -0.24738545219E+03  0.19710365703E+04  0.19901510061E+04  0.00000000000E+00 0. -1.
<mgrwt>
<rscale>  4 0.29071969E+03</rscale>
<asrwt>0</asrwt>
<pdfrwt beam="1">  1       21 0.33184220E+00 0.29071969E+03</pdfrwt>
<pdfrwt beam="2">  1       21 0.61895334E-01 0.29071969E+03</pdfrwt>
<totfact> 0.46985439E+01</totfact>
</mgrwt>
</event>
<event>
 5    0  0.1324511E+000  0.2565367E+03  0.7546771E-02  0.1109242E+00
         21   -1    0    0  504  501  0.00000000000E+00  0.00000000000E+00  0.12062589155E+03  0.12062589155E+03  0.00000000000E+00 0.  1.
         21   -1    0    0  501  502 -0.00000000000E+00 -0.00000000000E+00 -0.53127921247E+03  0.53127921247E+03  0.00000000000E+00 0.  1.
         25    1    1    2    0    0 -0.95336821462E+02 -0.20272382098E+03 -0.29269552381E+03  0.38920653486E+03  0.12500000000E+03 0.  0.
         21    1    1    2  503  502 -0.99315852643E+01  0.22283465145E+02 -0.21842414056E+02  0.32745690656E+02  0.00000000000E+00 0.  1.
         21    1    1    2  504  503  0.10526840673E+03  0.18044035584E+03 -0.96115383054E+02  0.22995287850E+03  0.00000000000E+00 0.  1.
<mgrwt>
<rscale>  4 0.25653666E+03</rscale>
<asrwt>0</asrwt>
<pdfrwt beam="1">  1       21 0.18557830E-01 0.25653666E+03</pdfrwt>
<pdfrwt beam="2">  1       21 0.81735262E-01 0.25653666E+03</pdfrwt>
<totfact> 0.33688293E+04</totfact>
</mgrwt>
</event>
<event>
 5    0  0.1324511E+000  0.2539199E+03  0.7546771E-02  0.1110852E+00
         21   -1    0    0  504  501  0.00000000000E+00  0.00000000000E+00  0.84005235369E+03  0.84005235369E+03  0.00000000000E+00 0.  1.
         21   -1    0    0  501  502 -0.00000000000E+00 -0.00000000000E+00 -0.16657388364E+03  0.16657388364E+03  0.00000000000E+00 0.  1.
         25    1    1    2    0    0 -0.22092957910E+03  0.63603771484E+01 -0.39041357383E+02  0.25690379699E+03  0.12500000000E+03 0.  0.
         21    1    1    2  503  502  0.12025600989E+03 -0.33205557730E+02  0.45837296123E+03  0.47504724877E+03  0.00000000000E+00 0.  1.
         21    1    1    2  504  503  0.10067356922E+03  0.26845180581E+02  0.25414686620E+03  0.27467519156E+03  0.00000000000E+00 0.  1.
<mgrwt>
<rscale>  4 0.25391993E+03</rscale>
<asrwt>0</asrwt>
<pdfrwt beam="1">  1       21 0.12923882E+00 0.25391993E+03</pdfrwt>
<pdfrwt beam="2">  1       21 0.25626752E-01 0.25391993E+03</pdfrwt>
<totfact> 0.60686713E+03</totfact>
</mgrwt>
</event>
<event>
 5    0  0.1324511E+000  0.4903418E+03  0.7546771E-02  0.1016331E+00
         21   -1    0    0  504  501  0.00000000000E+00  0.00000000000E+00  0.31315139067E+03  0.31315139067E+03  0.00000000000E+00 0. -1.
         21   -1    0    0  501  502 -0.00000000000E+00 -0.00000000000E+00 -0.15064014986E+04  0.15064014986E+04  0.00000000000E+00 0. -1.
         25    1    1    2    0    0 -0.46002150772E+03 -0.14882958150E+03 -0.78450215103E+03  0.92996701923E+03  0.12500000000E+03 0.  0.
         21    1    1    2  503  502  0.13349453553E+03 -0.23703019669E+03 -0.22055398185E+03  0.35021159899E+03  0.00000000000E+00 0. -1.
         21    1    1    2  504  503  0.32652697219E+03  0.38585977819E+03 -0.18819397501E+03  0.53937427101E+03  0.00000000000E+00 0. -1.
<mgrwt>
<rscale>  4 0.49034178E+03</rscale>
<asrwt>0</asrwt>
<pdfrwt beam="1">  1       21 0.48177136E-01 0.49034178E+03</pdfrwt>
<pdfrwt beam="2">  1       21 0.23175408E+00 0.49034178E+03</pdfrwt>
<totfact> 0.27743865E+02</totfact>
</mgrwt>
</event>
<event>
 5    0  0.1324511E+000  0.3145099E+03  0.7546771E-02  0.1078204E+00
         21   -1    0    0  504  501  0.00000000000E+00  0.00000000000E+00  0.32599902893E+04  0.32599902893E+04  0.00000000000E+00 0.  1.
         21   -1    0    0  501  502 -0.00000000000E+00 -0.00000000000E+00 -0.43692460113E+02  0.43692460113E+02  0.00000000000E+00 0. -1.
         25    1    1    2    0    0  0.26953180693E+03 -0.10317009835E+03  0.66364852036E+03  0.73440167669E+03  0.12500000000E+03 0.  0.
         21    1    1    2  503  502 -0.23908237829E+03  0.78368009058E+02  0.21288682814E+04  0.21436842324E+04  0.00000000000E+00 0.  1.
         21    1    1    2  504  503 -0.30449428643E+02  0.24802089291E+02  0.42378102742E+03  0.42559684038E+03  0.00000000000E+00 0. -1.
<mgrwt>
<rscale>  4 0.31450988E+03</rscale>
<asrwt>0</asrwt>
<pdfrwt beam="1">  1       21 0.50153677E+00 0.31450988E+03</pdfrwt>
<pdfrwt beam="2">  1       21 0.67219195E-02 0.31450988E+03</pdfrwt>
<totfact> 0.25494230E+02</totfact>
</mgrwt>
</event>
<event>
 5    0  0.1324511E+000  0.2700167E+03  0.7546771E-02  0.1101270E+00
         21   -1    0    0  504  501  0.00000000000E+00  0.00000000000E+00  0.41375681842E+03  0.41375681842E+03  0.00000000000E+00 0.  1.
         21   -1    0    0  501  502 -0.00000000000E+00 -0.00000000000E+00 -0.17139356742E+03  0.17139356742E+03  0.00000000000E+00 0.  1.
         25    1    1    2    0    0  0.53478568220E+01 -0.23928102784E+03  0.53505766186E+02  0.27526691932E+03  0.12500000000E+03 0.  0.
         21    1    1    2  503  502  0.22673773475E+02  0.14330140069E+03  0.12247465854E+03  0.18986688344E+03  0.00000000000E+00 0.  1.
         21    1    1    2  504  503 -0.28021630297E+02  0.95979627148E+02  0.66382826264E+02  0.12001658308E+03  0.00000000000E+00 0.  1.
<mgrwt>
<rscale>  4 0.27001668E+03</rscale>
<asrwt>0</asrwt>
<pdfrwt beam="1">  1       21 0.63654895E-01 0.27001668E+03</pdfrwt>
<pdfrwt beam="2">  1       21 0.26368241E-01 0.27001668E+03</pdfrwt>
<totfact> 0.30052828E+04</totfact>
</mgrwt>
</event>
<event>
 5    0  0.1324511E+000  0.2343850E+03  0.7546771E-02  0.1123591E+00
         21   -1    0    0  504  501  0.00000000000E+00  0.00000000000E+00  0.14004716956E+04  0.14004716956E+04  0.00000000000E+00 0.  1.
         21   -1    0    0  501  502 -0.00000000000E+00 -0.00000000000E+00 -0.77814602739E+02  0.77814602739E+02  0.00000000000E+00 0. -1.
         25    1    1    2    0    0 -0.19236464719E+03 -0.98617934715E+02  0.22557811247E+03  0.33651172247E+03  0.12500000000E+03 0.  0.
         21    1    1    2  503  502  0.18388593881E+03 -0.29177020779E+02  0.58453286960E+03  0.61346883595E+03  0.00000000000E+00 0.  1.
         21    1    1    2  504  503  0.84787083730E+01  0.12779495549E+03  0.51254611074E+03  0.52830573988E+03  0.00000000000E+00 0.  1.
<mgrwt>
<rscale>  4 0.23438499E+03</rscale>
<asrwt>0</asrwt>
<pdfrwt beam="1">  1       21 0.21545717E+00 0.23438499E+03</pdfrwt>
<pdfrwt beam="2">  1       21 0.11971478E-01 0.23438499E+03</pdfrwt>
<totfact> 0.60983868E+03</totfact>
</mgrwt>
</event>
<event>
 5    0  0.1324511E+000  0.2410631E+03  0.7546771E-02  0.1119087E+00
         21   -1    0    0  504  501  0.00000000000E+00  0.00000000000E+00  0.16392585996E+04  0.16392585996E+04  0.00000000000E+00 0. -1.
         21   -1    0    0  501  502 -0.00000000000E+00 -0.00000000000E+00 -0.32678555989E+02  0.32678555989E+02  0.00000000000E+00 0. -1.
         25    1    1    2    0    0  0.18628677095E+03 -0.88224916103E+02  0.79308821486E+03  0.82891514247E+03  0.12500000000E+03 0.  0.
         21    1    1    2  503  502 -0.14414780417E+03  0.56583473472E+02  0.71221988719E+03  0.72886037527E+03  0.00000000000E+00 0. -1.
         21    1    1    2  504  503 -0.42138966779E+02  0.31641442631E+02  0.10127194157E+03  0.11416163787E+03  0.00000000000E+00 0. -1.
<mgrwt>
<rscale>  4 0.24106306E+03</rscale>
<asrwt>0</asrwt>
<pdfrwt beam="1">  1       21 0.25219357E+00 0.24106306E+03</pdfrwt>
<pdfrwt beam="2">  1       21 0.50274714E-02 0.24106306E+03</pdfrwt>
<totfact> 0.16530389E+04</totfact>
</mgrwt>
</event>
<event>
 5    0  0.1324511E+000  0.3441748E+03  0.7546771E-02  0.1065032E+00
         21   -1    0    0  504  501  0.00000000000E+00  0.00000000000E+00  0.38630343565E+03  0.38630343565E+03  0.00000000000E+00 0. -1.
         21   -1    0    0  501  502 -0.00000000000E+00 -0.00000000000E+00 -0.44827866241E+03  0.44827866241E+03  0.00000000000E+00 0. -1.
         25    1    1    2    0    0  0.12016191936E+03 -0.30242784302E+03 -0.26078433910E+03  0.43535612850E+03  0.12500000000E+03 0.  0.
         21    1    1    2  503  502  0.23371569457E+02  0.30632538338E+02  0.17001207116E+02  0.42114412109E+02  0.00000000000E+00 0.  1.
         21    1    1    2  504  503 -0.14353348881E+03  0.27179530468E+03  0.18180790523E+03  0.35711155745E+03  0.00000000000E+00 0. -1.
<mgrwt>
<rscale>  4 0.34417476E+03</rscale>
<asrwt>0</asrwt>
<pdfrwt beam="1">  1       21 0.59431297E-01 0.34417476E+03</pdfrwt>
<pdfrwt beam="2">  1       21 0.68965949E-01 0.34417476E+03</pdfrwt>
<totfact> 0.46295655E+03</totfact>
</mgrwt>
</event>
<event>
 5    0  0.1324511E+000  0.2698014E+03  0.7546771E-02  0.1101393E+00
         21   -1    0    0  504  501  0.00000000000E+00  0.00000000000E+00  0.32665364308E+03  0.32665364308E+03  0.00000000000E+00 0. -1.
         21   -1    0    0  501  502 -0.00000000000E+00 -0.00000000000E+00 -0.22015470056E+03  0.22015470056E+03  0.00000000000E+00 0. -1.
         25    1    1    2    0    0 -0.59725795081E+02 -0.23151812570E+03 -0.82658852728E+01  0.26992802371E+03  0.12500000000E+03 0.  0.
         21    1    1    2  503  502  0.36675781462E+02  0.20652277677E+03  0.70967829878E+02  0.22143442178E+03  0.00000000000E+00 0. -1.
         21    1    1    2  504  503  0.23050013619E+02  0.24995348936E+02  0.43796997908E+02  0.55445898153E+02  0.00000000000E+00 0. -1.
<mgrwt>
<rscale>  4 0.26980143E+03</rscale>
<asrwt>0</asrwt>
<pdfrwt beam="1">  1       21 0.50254406E-01 0.26980143E+03</pdfrwt>
<pdfrwt beam="2">  1       21 0.33869954E-01 0.26980143E+03</pdfrwt>
<totfact> 0.30515140E+04</totfact>
</mgrwt>
</event>
<event>
 5    0  0.1324511E+000  0.2546820E+03  0.7546771E-02  0.1110381E+00
         21   -1    0    0  504  501  0.00000000000E+00  0.00000000000E+00  0.37105011327E+02  0.37105011327E+02  0.00000000000E+00 0.  1.
         21   -1    0    0  501  502 -0.00000000000E+00 -0.00000000000E+00 -0.17237677828E+04  0.17237677828E+04  0.00000000000E+00 0.  1.
         25    1    1    2    0    0 -0.21102139278E+03 -0.68614070628E+02 -0.11723148803E+04  0.11996604092E+04  0.12500000000E+03 0.  0.
         21    1    1    2  503  502  0.26757880119E+02  0.14630253045E+02 -0.47815668460E+02  0.56713019695E+02  0.00000000000E+00 0.  1.
         21    1    1    2  504  503  0.18426351266E+03  0.53983817583E+02 -0.46653222268E+03  0.50449936517E+03  0.00000000000E+00 0.  1.
<mgrwt>
<rscale>  4 0.25468200E+03</rscale>
<asrwt>0</asrwt>
<pdfrwt beam="1">  1       21 0.57084629E-02 0.25468200E+03</pdfrwt>
<pdfrwt beam="2">  1       21 0.26519506E+00 0.25468200E+03</pdfrwt>
<totfact> 0.11031199E+04</totfact>
</mgrwt>
</event>
<event>
 5    0  0.1324511E+000  0.2516603E+03  0.7546771E-02  0.1112260E+00
         21   -1    0    0  504  501  0.00000000000E+00  0.00000000000E+00  0.31236029372E+03  0.31236029372E+03  0.00000000000E+00 0.  1.
         21   -1    0    0  501  502 -0.00000000000E+00 -0.00000000000E+00 -0.72098450550E+03  0.72098450550E+03  0.00000000000E+00 0.  1.
         25    1    1    2    0    0 -0.87619248256E+02 -0.20007690461E+03 -0.65340473648E+03  0.70019329480E+03  0.12500000000E+03 0.  0.
         21    1    1    2  503  502  0.63348731272E+01  0.40424838049E+02  0.79453778286E+02  0.89371142058E+02  0.00000000000E+00 0.  1.
         21    1    1    2  504  503  0.81284375129E+02  0.15965206656E+03  0.16532674641E+03  0.24378036237E+03  0.00000000000E+00 0.  1.
<mgrwt>
<rscale>  4 0.25166029E+03</rscale>
<asrwt>0</asrwt>
<pdfrwt beam="1">  1       21 0.48055430E-01 0.25166029E+03</pdfrwt>
<pdfrwt beam="2">  1       21 0.11092069E+00 0.25166029E+03</pdfrwt>
<totfact> 0.25275018E+03</totfact>
</mgrwt>
</event>
<event>
 5    0  0.1324511E+000  0.2409292E+03  0.7546771E-02  0.1119175E+00
         21   -1    0    0  504  501  0.00000000000E+00  0.00000000000E+00  0.77974644125E+02  0.77974644125E+02  0.00000000000E+00 0. -1.
         21   -1    0    0  501  502 -0.00000000000E+00 -0.00000000000E+00 -0.68941295413E+03  0.68941295413E+03  0.00000000000E+00 0.  1.
         25    1    1    2    0    0  0.19624918930E+03 -0.62515254625E+02 -0.42127972073E+03  0.48530763899E+03  0.12500000000E+03 0.  0.
         21    1    1    2  503  502 -0.29399127527E+02 -0.11635438951E+01 -0.21519531939E+02  0.36452061514E+02  0.00000000000E+00 0.  1.
         21    1    1    2  504  503 -0.16685006177E+03  0.63678798520E+02 -0.16863905734E+03  0.24562789775E+03  0.00000000000E+00 0. -1.
<mgrwt>
<rscale>  4 0.24092925E+03</rscale>
<asrwt>0</asrwt>
<pdfrwt beam="1">  1       21 0.11996099E-01 0.24092925E+03</pdfrwt>
<pdfrwt beam="2">  1       21 0.10606353E+00 0.24092925E+03</pdfrwt>
<totfact> 0.40867179E+04</totfact>
</mgrwt>
</event>
<event>
 5    0  0.1324511E+000  0.3691118E+03  0.7546771E-02  0.1055033E+00
         21   -1    0    0  504  501  0.00000000000E+00  0.00000000000E+00  0.91123425614E+02  0.91123425614E+02  0.00000000000E+00 0.  1.
         21   -1    0    0  501  502 -0.00000000000E+00 -0.00000000000E+00 -0.15582898814E+04  0.15582898814E+04  0.00000000000E+00 0.  1.
         25    1    1    2    0    0 -0.34563144876E+03 -0.34020776388E+02 -0.97428870253E+03  0.10418646685E+04  0.12500000000E+03 0.  0.
         21    1    1    2  503  502  0.17813975698E+03  0.13755629357E+02 -0.18973131687E+03  0.26061650554E+03  0.00000000000E+00 0.  1.
         21    1    1    2  504  503  0.16749169177E+03  0.20265147031E+02 -0.30314643641E+03  0.34693213299E+03  0.00000000000E+00 0.  1.
<mgrwt>
<rscale>  4 0.36911179E+03</rscale>
<asrwt>0</asrwt>
<pdfrwt beam="1">  1       21 0.14018989E-01 0.36911179E+03</pdfrwt>
<pdfrwt beam="2">  1       21 0.23973689E+00 0.36911179E+03</pdfrwt>
<totfact> 0.29659198E+03</totfact>
</mgrwt>
</event>
<event>
 5    0  0.1324511E+000  0.2600018E+03  0.7546771E-02  0.1107142E+00
         21   -1    0    0  504  501  0.00000000000E+00  0.00000000000E+00  0.11059521502E+03  0.11059521502E+03  0.00000000000E+00 0.  1.
         21   -1    0    0  501  502 -0.00000000000E+00 -0.00000000000E+00 -0.56000978075E+03  0.56000978075E+03  0.00000000000E+00 0.  1.
         25    1    1    2    0    0  0.25555080784E+02 -0.22654554882E+03 -0.29743954202E+03  0.39505851339E+03  0.12500000000E+03 0.  0.
         21    1    1    2  503  502 -0.28076080108E+02  0.20599964277E+03 -0.12924245606E+03  0.24480141246E+03  0.00000000000E+00 0.  1.
         21    1    1    2  504  503  0.25209993239E+01  0.20545906048E+02 -0.22732567648E+02  0.30745069926E+02  0.00000000000E+00 0.  1.
<mgrwt>
<rscale>  4 0.26000182E+03</rscale>
<asrwt>0</asrwt>
<pdfrwt beam="1">  1       21 0.17014649E-01 0.26000182E+03</pdfrwt>
<pdfrwt beam="2">  1       21 0.86155350E-01 0.26000182E+03</pdfrwt>
<totfact> 0.35021442E+04</totfact>
</mgrwt>
</event>
<event>
 5    0  0.1324511E+000  0.2443071E+03  0.7546771E-02  0.1116956E+00
         21   -1    0    0  504  501  0.00000000000E+00  0.00000000000E+00  0.34521844137E+03  0.34521844137E+03  0.00000000000E+00 0.  1.
         21   -1    0    0  501  502 -0.00000000000E+00 -0.00000000000E+00 -0.33442034784E+03  0.33442034784E+03  0.00000000000E+00 0. -1.
         25    1    1    2    0    0 -0.18193052195E+03  0.10470075711E+03 -0.24370703135E+03  0.34507836861E+03  0.12500000000E+03 0.  0.
         21    1    1    2  503  502  0.11946955414E+03 -0.87555325871E+02  0.14465392718E+03  0.20703542717E+03  0.00000000000E+00 0.  1.
         21    1    1    2  504  503  0.62460967815E+02 -0.17145431242E+02  0.10985119770E+03  0.12752499342E+03  0.00000000000E+00 0.  1.
<mgrwt>
<rscale>  4 0.24430711E+03</rscale>
<asrwt>0</asrwt>
<pdfrwt beam="1">  1       21 0.53110530E-01 0.24430711E+03</pdfrwt>
<pdfrwt beam="2">  1       21 0.51449284E-01 0.24430711E+03</pdfrwt>
<totfact> 0.11677978E+04</totfact>
</mgrwt>
</event>
<event>
 5    0  0.1324511E+000  0.3011531E+03  0.7546771E-02  0.1084666E+00
         21   -1    0    0  504  501  0.00000000000E+00  0.00000000000E+00  0.16027061255E+04  0.16027061255E+04  0.00000000000E+00 0. -1.
         21   -1    0    0  501  502 -0.00000000000E+00 -0.00000000000E+00 -0.27741150860E+03  0.27741150860E+03  0.00000000000E+00 0. -1.
         25    1    1    2    0    0 -0.34936208406E+02 -0.27437176289E+03 -0.17315226979E+03  0.34943827991E+03  0.12500000000E+03 0.  0.
         21    1    1    2  503  502  0.47297977937E+02  0.22769203454E+03  0.14172950801E+04  0.14362472299E+04  0.00000000000E+00 0. -1.
         21    1    1    2  504  503 -0.12361769531E+02  0.46679728357E+02  0.81151806522E+02  0.94432124233E+02  0.00000000000E+00 0. -1.
<mgrwt>
<rscale>  4 0.30115307E+03</rscale>
<asrwt>0</asrwt>
<pdfrwt beam="1">  1       21 0.24657017E+00 0.30115307E+03</pdfrwt>
<pdfrwt beam="2">  1       21 0.42678695E-01 0.30115307E+03</pdfrwt>
<totfact> 0.32717989E+02</totfact>
</mgrwt>
</event>
<event>
 5    0  0.1324511E+000  0.2676055E+03  0.7546771E-02  0.1102658E+00
         21   -1    0    0  504  501  0.00000000000E+00  0.00000000000E+00  0.27063665861E+04  0.27063665861E+04  0.00000000000E+00 0. -1.
         21   -1    0    0  501  502 -0.00000000000E+00 -0.00000000000E+00 -0.25767734125E+02  0.25767734125E+02  0.00000000000E+00 0. -1.
         25    1    1    2    0    0 -0.90023656815E+02  0.21882281455E+03  0.16636432781E+04  0.16850286762E+04  0.12500000000E+03 0.  0.
         21    1    1    2  503  502  0.30505917927E+02 -0.80131777154E+02  0.54222664725E+03  0.54896397853E+03  0.00000000000E+00 0. -1.
         21    1    1    2  504  503  0.59517738888E+02 -0.13869103740E+03  0.47472892665E+03  0.49814166549E+03  0.00000000000E+00 0. -1.
<mgrwt>
<rscale>  4 0.26760546E+03</rscale>
<asrwt>0</asrwt>
<pdfrwt beam="1">  1       21 0.41636386E+00 0.26760546E+03</pdfrwt>
<pdfrwt beam="2">  1       21 0.39642689E-02 0.26760546E+03</pdfrwt>
<totfact> 0.24947396E+03</totfact>
</mgrwt>
</event>
<event>
 5    0  0.1324511E+000  0.2496417E+03  0.7546771E-02  0.1113531E+00
         21   -1    0    0  504  501  0.00000000000E+00  0.00000000000E+00  0.61034596633E+03  0.61034596633E+03  0.00000000000E+00 0. -1.
         21   -1    0    0  501  502 -0.00000000000E+00 -0.00000000000E+00 -0.96216130747E+02  0.96216130747E+02  0.00000000000E+00 0. -1.
         25    1    1    2    0    0  0.97244400228E+02 -0.19297544777E+03  0.19483021605E+03  0.31666987527E+03  0.12500000000E+03 0.  0.
         21    1    1    2  503  502 -0.53230861720E+02  0.15933372101E+03  0.24941858520E+03  0.30071646103E+03  0.00000000000E+00 0. -1.
         21    1    1    2  504  503 -0.44013538509E+02  0.33641726760E+02  0.69881034335E+02  0.89175760783E+02  0.00000000000E+00 0. -1.
<mgrwt>
<rscale>  4 0.24964174E+03</rscale>
<asrwt>0</asrwt>
<pdfrwt beam="1">  1       21 0.93899377E-01 0.24964174E+03</pdfrwt>
<pdfrwt beam="2">  1       21 0.14802482E-01 0.24964174E+03</pdfrwt>
<totfact> 0.37190980E+04</totfact>
</mgrwt>
</event>
<event>
 5    0  0.1324511E+000  0.2440911E+03  0.7546771E-02  0.1117097E+00
         21   -1    0    0  504  501  0.00000000000E+00  0.00000000000E+00  0.99114561667E+03  0.99114561667E+03  0.00000000000E+00 0.  1.
         21   -1    0    0  501  502 -0.00000000000E+00 -0.00000000000E+00 -0.56519566135E+02  0.56519566135E+02  0.00000000000E+00 0.  1.
         25    1    1    2    0    0 -0.58976722209E+02 -0.20118951853E+03  0.40314598916E+03  0.47128246807E+03  0.12500000000E+03 0.  0.
         21    1    1    2  503  502  0.34793688925E+02  0.99224375768E+02  0.36343738872E+03  0.37834219042E+03  0.00000000000E+00 0.  1.
         21    1    1    2  504  503  0.24183033285E+02  0.10196514277E+03  0.16804267266E+03  0.19804052432E+03  0.00000000000E+00 0.  1.
<mgrwt>
<rscale>  4 0.24409112E+03</rscale>
<asrwt>0</asrwt>
<pdfrwt beam="1">  1       21 0.15248393E+00 0.24409112E+03</pdfrwt>
<pdfrwt beam="2">  1       21 0.86953186E-02 0.24409112E+03</pdfrwt>
<totfact> 0.28818592E+04</totfact>
</mgrwt>
</event>
<event>
 5    0  0.1324511E+000  0.3526122E+03  0.7546771E-02  0.1061548E+00
         21   -1    0    0  504  501  0.00000000000E+00  0.00000000000E+00  0.11491730843E+04  0.11491730843E+04  0.00000000000E+00 0.  1.
         21   -1    0    0  501  502 -0.00000000000E+00 -0.00000000000E+00 -0.76562426539E+03  0.76562426539E+03  0.00000000000E+00 0.  1.
         25    1    1    2    0    0  0.14246371949E+03 -0.29869129345E+03 -0.68998927279E+03  0.77538545042E+03  0.12500000000E+03 0.  0.
         21    1    1    2  503  502 -0.20090354220E+02  0.25934798711E+02  0.94690074172E+01  0.34145251768E+02  0.00000000000E+00 0.  1.
         21    1    1    2  504  503 -0.12237336527E+03  0.27275649474E+03  0.10640690843E+04  0.11052666475E+04  0.00000000000E+00 0.  1.
<mgrwt>
<rscale>  4 0.35261219E+03</rscale>
<asrwt>0</asrwt>
<pdfrwt beam="1">  1       21 0.17679586E+00 0.35261219E+03</pdfrwt>
<pdfrwt beam="2">  1       21 0.11778835E+00 0.35261219E+03</pdfrwt>
<totfact> 0.89799398E+01</totfact>
</mgrwt>
</event>
<event>
 5    0  0.1324511E+000  0.2597645E+03  0.7546771E-02  0.1107285E+00
         21   -1    0    0  504  501  0.00000000000E+00  0.00000000000E+00  0.14595247570E+03  0.14595247570E+03  0.00000000000E+00 0. -1.
         21   -1    0    0  501  502 -0.00000000000E+00 -0.00000000000E+00 -0.54869331869E+03  0.54869331869E+03  0.00000000000E+00 0. -1.
         25    1    1    2    0    0 -0.19123189068E+03 -0.13202362681E+03 -0.31793752844E+03  0.41316963349E+03  0.12500000000E+03 0.  0.
         21    1    1    2  503  502 -0.12790647927E+02  0.42934409237E+02 -0.54427474158E+01  0.45128568228E+02  0.00000000000E+00 0. -1.
         21    1    1    2  504  503  0.20402253860E+03  0.89089217570E+02 -0.79360567127E+02  0.23634759267E+03  0.00000000000E+00 0. -1.
<mgrwt>
<rscale>  4 0.25976452E+03</rscale>
<asrwt>0</asrwt>
<pdfrwt beam="1">  1       21 0.22454227E-01 0.25976452E+03</pdfrwt>
<pdfrwt beam="2">  1       21 0.84414356E-01 0.25976452E+03</pdfrwt>
<totfact> 0.21813557E+04</totfact>
</mgrwt>
</event>
<event>
 5    0  0.1590587E+000  0.3203994E+03  0.7546771E-02  0.1075466E+00
         21   -1    0    0  504  501  0.00000000000E+00  0.00000000000E+00  0.41385962569E+03  0.41385962569E+03  0.00000000000E+00 0. -1.
         21   -1    0    0  501  502 -0.00000000000E+00 -0.00000000000E+00 -0.35227635585E+03  0.35227635585E+03  0.00000000000E+00 0. -1.
         25    1    1    2    0    0  0.13904705580E+03  0.26018593241E+03  0.25690653279E+03  0.41067842620E+03  0.12500000000E+03 0.  0.
         21    1    1    2  503  502 -0.11955280100E+03 -0.24234053872E+03 -0.18251797256E+03  0.32608989442E+03  0.00000000000E+00 0. -1.
         21    1    1    2  504  503 -0.19494254801E+02 -0.17845393699E+02 -0.12805290377E+02  0.29367660924E+02  0.00000000000E+00 0.  1.
<mgrwt>
<rscale>  4 0.32039944E+03</rscale>
<asrwt>0</asrwt>
<pdfrwt beam="1">  1       21 0.63670712E-01 0.32039944E+03</pdfrwt>
<pdfrwt beam="2">  1       21 0.54196362E-01 0.32039944E+03</pdfrwt>
<totfact> 0.68124418E+03</totfact>
</mgrwt>
</event>
<event>
 5    0  0.1324511E+000  0.2466265E+03  0.7546771E-02  0.1115456E+00
         21   -1    0    0  504  501  0.00000000000E+00  0.00000000000E+00  0.33389891455E+03  0.33389891455E+03  0.00000000000E+00 0. -1.
         21   -1    0    0  501  502 -0.00000000000E+00 -0.00000000000E+00 -0.20733201911E+03  0.20733201911E+03  0.00000000000E+00 0. -1.
         25    1    1    2    0    0  0.97659855699E+02 -0.18884438498E+03 -0.62546037591E+02  0.25443399138E+03  0.12500000000E+03 0.  0.
         21    1    1    2  503  502 -0.16046246393E+02  0.13946643244E+02  0.29396989891E+02  0.36279111011E+02  0.00000000000E+00 0. -1.
         21    1    1    2  504  503 -0.81613609306E+02  0.17489774173E+03  0.15971594314E+03  0.25051783126E+03  0.00000000000E+00 0. -1.
<mgrwt>
<rscale>  4 0.24662654E+03</rscale>
<asrwt>0</asrwt>
<pdfrwt beam="1">  1       21 0.51369064E-01 0.24662654E+03</pdfrwt>
<pdfrwt beam="2">  1       21 0.31897234E-01 0.24662654E+03</pdfrwt>
<totfact> 0.33144570E+04</totfact>
</mgrwt>
</event>
<event>
 5    0  0.1324511E+000  0.3461360E+03  0.7546771E-02  0.1064212E+00
         21   -1    0    0  504  501  0.00000000000E+00  0.00000000000E+00  0.72340117367E+03  0.72340117367E+03  0.00000000000E+00 0.  1.
         21   -1    0    0  501  502 -0.00000000000E+00 -0.00000000000E+00 -0.35967308009E+03  0.35967308009E+03  0.00000000000E+00 0.  1.
         25    1    1    2    0    0  0.14254881586E+03  0.28959444547E+03 -0.21611592108E+03  0.40806396446E+03  0.12500000000E+03 0.  0.
         21    1    1    2  503  502 -0.61262377736E+02 -0.22970883816E+03  0.46388283147E+03  0.52125474634E+03  0.00000000000E+00 0.  1.
         21    1    1    2  504  503 -0.81286438120E+02 -0.59885607306E+02  0.11596118319E+03  0.15375554296E+03  0.00000000000E+00 0.  1.
<mgrwt>
<rscale>  4 0.34613597E+03</rscale>
<asrwt>0</asrwt>
<pdfrwt beam="1">  1       21 0.11129249E+00 0.34613597E+03</pdfrwt>
<pdfrwt beam="2">  1       21 0.55334320E-01 0.34613597E+03</pdfrwt>
<totfact> 0.17579366E+03</totfact>
</mgrwt>
</event>
<event>
 5    0  0.1324511E+000  0.2944814E+03  0.7546771E-02  0.1088032E+00
         21   -1    0    0  504  501  0.00000000000E+00  0.00000000000E+00  0.49876926910E+03  0.49876926910E+03  0.00000000000E+00 0. -1.
         21   -1    0    0  501  502 -0.00000000000E+00 -0.00000000000E+00 -0.89348431704E+03  0.89348431704E+03  0.00000000000E+00 0.  1.
         25    1    1    2    0    0 -0.23572720511E+03  0.12460727032E+03 -0.82803869188E+03  0.87884433337E+03  0.12500000000E+03 0.  0.
         21    1    1    2  503  502  0.20453108497E+02 -0.15638310756E+02  0.91180253198E+02  0.94745580286E+02  0.00000000000E+00 0. -1.
         21    1    1    2  504  503  0.21527409661E+03 -0.10896895956E+03  0.34214339075E+03  0.41866367248E+03  0.00000000000E+00 0. -1.
<mgrwt>
<rscale>  4 0.29448139E+03</rscale>
<asrwt>0</asrwt>
<pdfrwt beam="1">  1       21 0.76733734E-01 0.29448139E+03</pdfrwt>
<pdfrwt beam="2">  1       21 0.13745913E+00 0.29448139E+03</pdfrwt>
<totfact> 0.51667689E+02</totfact>
</mgrwt>
</event>
<event>
 5    0  0.1324511E+000  0.2347827E+03  0.7546771E-02  0.1123318E+00
         21   -1    0    0  504  501  0.00000000000E+00  0.00000000000E+00  0.10484003675E+03  0.10484003675E+03  0.00000000000E+00 0.  1.
         21   -1    0    0  501  502 -0.00000000000E+00 -0.00000000000E+00 -0.12428997698E+04  0.12428997698E+04  0.00000000000E+00 0.  1.
         25    1    1    2    0    0 -0.13737507872E+03  0.21642772279E+03 -0.92679910404E+03  0.96968781094E+03  0.12500000000E+03 0.  0.
         21    1    1    2  503  502  0.48593942021E+02 -0.13425192753E+03 -0.21375319385E+03  0.25705131613E+03  0.00000000000E+00 0.  1.
         21    1    1    2  504  503  0.88781136697E+02 -0.82175795264E+02  0.24925648052E+01  0.12100067950E+03  0.00000000000E+00 0.  1.
<mgrwt>
<rscale>  4 0.23478270E+03</rscale>
<asrwt>0</asrwt>
<pdfrwt beam="1">  1       21 0.16129236E-01 0.23478270E+03</pdfrwt>
<pdfrwt beam="2">  1       21 0.19121535E+00 0.23478270E+03</pdfrwt>
<totfact> 0.50773829E+03</totfact>
</mgrwt>
</event>
<event>
 5    0  0.1324511E+000  0.3266872E+03  0.7546771E-02  0.1072612E+00
         21   -1    0    0  504  501  0.00000000000E+00  0.00000000000E+00  0.20339684387E+03  0.20339684387E+03  0.00000000000E+00 0. -1.
         21   -1    0    0  501  502 -0.00000000000E+00 -0.00000000000E+00 -0.12047035876E+04  0.12047035876E+04  0.00000000000E+00 0. -1.
         25    1    1    2    0    0 -0.20495727295E+03 -0.22156721868E+03 -0.10367652064E+04  0.10870172995E+04  0.12500000000E+03 0.  0.
         21    1    1    2  503  502  0.77691134992E+02  0.10688743402E+03 -0.33648867181E+02  0.13635645298E+03  0.00000000000E+00 0. -1.
         21    1    1    2  504  503  0.12726613796E+03  0.11467978467E+03  0.69107329901E+02  0.18472667898E+03  0.00000000000E+00 0. -1.
<mgrwt>
<rscale>  4 0.32668718E+03</rscale>
<asrwt>0</asrwt>
<pdfrwt beam="1">  1       21 0.31291822E-01 0.32668718E+03</pdfrwt>
<pdfrwt beam="2">  1       21 0.18533902E+00 0.32668718E+03</pdfrwt>
<totfact> 0.14762561E+03</totfact>
</mgrwt>
</event>
<event>
 5    0  0.1324511E+000  0.4598685E+03  0.7546771E-02  0.1024819E+00
         21   -1    0    0  504  501  0.00000000000E+00  0.00000000000E+00  0.96623097067E+03  0.96623097067E+03  0.00000000000E+00 0. -1.
         21   -1    0    0  501  502 -0.00000000000E+00 -0.00000000000E+00 -0.19052470509E+04  0.19052470509E+04  0.00000000000E+00 0.  1.
         25    1    1    2    0    0  0.28779888471E+03  0.34185962668E+03 -0.17834886026E+04  0.18428653771E+04  0.12500000000E+03 0.  0.
         21    1    1    2  503  502 -0.25431606492E+03 -0.20212843968E+03  0.82111259255E+03  0.88303932905E+03  0.00000000000E+00 0. -1.
         21    1    1    2  504  503 -0.33482819785E+02 -0.13973118700E+03  0.23359929861E+02  0.14557331542E+03  0.00000000000E+00 0.  1.
<mgrwt>
<rscale>  4 0.45986851E+03</rscale>
<asrwt>0</asrwt>
<pdfrwt beam="1">  1       21 0.14865092E+00 0.45986851E+03</pdfrwt>
<pdfrwt beam="2">  1       21 0.29311493E+00 0.45986851E+03</pdfrwt>
<totfact> 0.82988486E+00</totfact>
</mgrwt>
</event>
<event>
 5    0  0.1324511E+000  0.3079917E+03  0.7546771E-02  0.1081313E+00
         21   -1    0    0  504  501  0.00000000000E+00  0.00000000000E+00  0.20758729002E+03  0.20758729002E+03  0.00000000000E+00 0. -1.
         21   -1    0    0  501  502 -0.00000000000E+00 -0.00000000000E+00 -0.62069387471E+03  0.62069387471E+03  0.00000000000E+00 0. -1.
         25    1    1    2    0    0 -0.27758858919E+03 -0.46673835648E+02 -0.44331707851E+03  0.53980450524E+03  0.12500000000E+03 0.  0.
         21    1    1    2  503  502  0.33204230419E+02  0.16151088191E+02 -0.11528303973E+02  0.38681783309E+02  0.00000000000E+00 0.  1.
         21    1    1    2  504  503  0.24438435877E+03  0.30522747457E+02  0.41738797784E+02  0.24979487618E+03  0.00000000000E+00 0. -1.
<mgrwt>
<rscale>  4 0.30799167E+03</rscale>
<asrwt>0</asrwt>
<pdfrwt beam="1">  1       21 0.31936507E-01 0.30799167E+03</pdfrwt>
<pdfrwt beam="2">  1       21 0.95491364E-01 0.30799167E+03</pdfrwt>
<totfact> 0.80662159E+03</totfact>
</mgrwt>
</event>
<event>
 5    0  0.1324511E+000  0.2598439E+03  0.7546771E-02  0.1107237E+00
         21   -1    0    0  504  501  0.00000000000E+00  0.00000000000E+00  0.70824145412E+02  0.70824145412E+02  0.00000000000E+00 0. -1.
         21   -1    0    0  501  502 -0.00000000000E+00 -0.00000000000E+00 -0.13679558351E+04  0.13679558351E+04  0.00000000000E+00 0.  1.
         25    1    1    2    0    0  0.66956809212E+02 -0.21773989382E+03 -0.11082630621E+04  0.11383171309E+04  0.12500000000E+03 0.  0.
         21    1    1    2  503  502 -0.52824770069E+02  0.18441959706E+03 -0.13131612307E+03  0.23247573699E+03  0.00000000000E+00 0. -1.
         21    1    1    2  504  503 -0.14132039143E+02  0.33320296760E+02 -0.57552504507E+02  0.67987112614E+02  0.00000000000E+00 0. -1.
<mgrwt>
<rscale>  4 0.25984394E+03</rscale>
<asrwt>0</asrwt>
<pdfrwt beam="1">  1       21 0.10896023E-01 0.25984394E+03</pdfrwt>
<pdfrwt beam="2">  1       21 0.21045474E+00 0.25984394E+03</pdfrwt>
<totfact> 0.76221129E+03</totfact>
</mgrwt>
</event>
<event>
 5    0  0.1324511E+000  0.2543504E+03  0.7546771E-02  0.1110586E+00
         21   -1    0    0  504  501  0.00000000000E+00  0.00000000000E+00  0.22069004471E+03  0.22069004471E+03  0.00000000000E+00 0. -1.
         21   -1    0    0  501  502 -0.00000000000E+00 -0.00000000000E+00 -0.32340269451E+03  0.32340269451E+03  0.00000000000E+00 0. -1.
         25    1    1    2    0    0 -0.22100297392E+03  0.81877350908E+02 -0.65392439962E+02  0.27467687612E+03  0.12500000000E+03 0.  0.
         21    1    1    2  503  502  0.21146925215E+03 -0.31502202726E+02 -0.17749903381E+02  0.21453832397E+03  0.00000000000E+00 0. -1.
         21    1    1    2  504  503  0.95337217618E+01 -0.50375148182E+02 -0.19570306457E+02  0.54877539120E+02  0.00000000000E+00 0.  1.
<mgrwt>
<rscale>  4 0.25435037E+03</rscale>
<asrwt>0</asrwt>
<pdfrwt beam="1">  1       21 0.33952315E-01 0.25435037E+03</pdfrwt>
<pdfrwt beam="2">  1       21 0.49754260E-01 0.25435037E+03</pdfrwt>
<totfact> 0.31214389E+04</totfact>
</mgrwt>
</event>
<event>
 5    0  0.1324511E+000  0.1873617E+03  0.7546771E-02  0.1160863E+00
         21   -1    0    0  504  501  0.00000000000E+00  0.00000000000E+00  0.58203224438E+03  0.58203224438E+03  0.00000000000E+00 0. -1.
         21   -1    0    0  501  502 -0.00000000000E+00 -0.00000000000E+00 -0.12630641155E+03  0.12630641155E+03  0.00000000000E+00 0. -1.
         25    1    1    2    0    0 -0.29079245063E+02  0.20017273335E+03  0.81681489652E+02  0.25141915484E+03  0.12500000000E+03 0.  0.
         21    1    1    2  503  502 -0.11367248866E+02 -0.75339532642E+02  0.19178209432E+02  0.78568843969E+02  0.00000000000E+00 0. -1.
         21    1    1    2  504  503  0.40446493929E+02 -0.12483320070E+03  0.35486613374E+03  0.37835065712E+03  0.00000000000E+00 0. -1.
<mgrwt>
<rscale>  4 0.18736171E+03</rscale>
<asrwt>0</asrwt>
<pdfrwt beam="1">  1       21 0.89543421E-01 0.18736171E+03</pdfrwt>
<pdfrwt beam="2">  1       21 0.19431756E-01 0.18736171E+03</pdfrwt>
<totfact> 0.25971709E+04</totfact>
</mgrwt>
</event>
<event>
 5    0  0.1324511E+000  0.2427212E+03  0.7546771E-02  0.1117993E+00
         21   -1    0    0  504  501  0.00000000000E+00  0.00000000000E+00  0.57585169593E+03  0.57585169593E+03  0.00000000000E+00 0. -1.
         21   -1    0    0  501  502 -0.00000000000E+00 -0.00000000000E+00 -0.16901712757E+03  0.16901712757E+03  0.00000000000E+00 0. -1.
         25    1    1    2    0    0  0.19581143251E+03 -0.19073299042E+03  0.13573364125E+03  0.32980268662E+03  0.12500000000E+03 0.  0.
         21    1    1    2  503  502 -0.15983250123E+03  0.99802305248E+02  0.25324722192E+03  0.31565975985E+03  0.00000000000E+00 0. -1.
         21    1    1    2  504  503 -0.35978931285E+02  0.90930685174E+02  0.17853705194E+02  0.99406377017E+02  0.00000000000E+00 0. -1.
<mgrwt>
<rscale>  4 0.24272124E+03</rscale>
<asrwt>0</asrwt>
<pdfrwt beam="1">  1       21 0.88592567E-01 0.24272124E+03</pdfrwt>
<pdfrwt beam="2">  1       21 0.26002635E-01 0.24272124E+03</pdfrwt>
<totfact> 0.14855460E+04</totfact>
</mgrwt>
</event>
<event>
 5    0  0.1324511E+000  0.4330832E+03  0.7546771E-02  0.1032890E+00
         21   -1    0    0  504  501  0.00000000000E+00  0.00000000000E+00  0.12525384712E+04  0.12525384712E+04  0.00000000000E+00 0. -1.
         21   -1    0    0  501  502 -0.00000000000E+00 -0.00000000000E+00 -0.43920354054E+03  0.43920354054E+03  0.00000000000E+00 0. -1.
         25    1    1    2    0    0  0.10787188364E+03  0.52145105734E+03 -0.99079794921E+02  0.55586810868E+03  0.12500000000E+03 0.  0.
         21    1    1    2  503  502 -0.73108086869E+02 -0.22828382210E+03  0.77314522538E+03  0.80945156453E+03  0.00000000000E+00 0. -1.
         21    1    1    2  504  503 -0.34763796775E+02 -0.29316723524E+03  0.13926950017E+03  0.32642233849E+03  0.00000000000E+00 0. -1.
<mgrwt>
<rscale>  4 0.43308322E+03</rscale>
<asrwt>0</asrwt>
<pdfrwt beam="1">  1       21 0.19269822E+00 0.43308322E+03</pdfrwt>
<pdfrwt beam="2">  1       21 0.67569776E-01 0.43308322E+03</pdfrwt>
<totfact> 0.24601929E+02</totfact>
</mgrwt>
</event>
<event>
 5    0  0.1324511E+000  0.1895887E+03  0.7546771E-02  0.1158833E+00
         21   -1    0    0  504  501  0.00000000000E+00  0.00000000000E+00  0.97480682378E+02  0.97480682378E+02  0.00000000000E+00 0. -1.
         21   -1    0    0  501  502 -0.00000000000E+00 -0.00000000000E+00 -0.58524779717E+03  0.58524779717E+03  0.00000000000E+00 0. -1.
         25    1    1    2    0    0 -0.49258632344E+02  0.19680735783E+03 -0.28457750508E+03  0.37117233916E+03  0.12500000000E+03 0.  0.
         21    1    1    2  503  502  0.53389363766E+01 -0.11903704022E+03 -0.18555054872E+03  0.22051604776E+03  0.00000000000E+00 0. -1.
         21    1    1    2  504  503  0.43919695967E+02 -0.77770317608E+02 -0.17639060989E+02  0.91040092637E+02  0.00000000000E+00 0. -1.
<mgrwt>
<rscale>  4 0.18958871E+03</rscale>
<asrwt>0</asrwt>
<pdfrwt beam="1">  1       21 0.14997028E-01 0.18958871E+03</pdfrwt>
<pdfrwt beam="2">  1       21 0.90038124E-01 0.18958871E+03</pdfrwt>
<totfact> 0.41252586E+04</totfact>
</mgrwt>
</event>
<event>
 5    0  0.1324511E+000  0.3674380E+03  0.7546771E-02  0.1055677E+00
         21   -1    0    0  504  501  0.00000000000E+00  0.00000000000E+00  0.73235502930E+03  0.73235502930E+03  0.00000000000E+00 0. -1.
         21   -1    0    0  501  502 -0.00000000000E+00 -0.00000000000E+00 -0.18180644422E+03  0.18180644422E+03  0.00000000000E+00 0. -1.
         25    1    1    2    0    0  0.16416898542E+03 -0.30403000898E+03  0.21828806878E+03  0.42738786027E+03  0.12500000000E+03 0.  0.
         21    1    1    2  503  502 -0.97349519321E+02  0.22715249599E+03  0.18961621044E+03  0.31149557398E+03  0.00000000000E+00 0. -1.
         21    1    1    2  504  503 -0.66819466098E+02  0.76877512987E+02  0.14264430586E+03  0.17527803926E+03  0.00000000000E+00 0. -1.
<mgrwt>
<rscale>  4 0.36743802E+03</rscale>
<asrwt>0</asrwt>
<pdfrwt beam="1">  1       21 0.11267000E+00 0.36743802E+03</pdfrwt>
<pdfrwt beam="2">  1       21 0.27970223E-01 0.36743802E+03</pdfrwt>
<totfact> 0.68322559E+03</totfact>
</mgrwt>
</event>
<event>
 5    0  0.1324511E+000  0.2242303E+03  0.7546771E-02  0.1130768E+00
         21   -1    0    0  504  501  0.00000000000E+00  0.00000000000E+00  0.20529291378E+03  0.20529291378E+03  0.00000000000E+00 0. -1.
         21   -1    0    0  501  502 -0.00000000000E+00 -0.00000000000E+00 -0.87581343169E+03  0.87581343169E+03  0.00000000000E+00 0.  1.
         25    1    1    2    0    0 -0.13660196750E+03  0.18064430310E+03 -0.74180190748E+03  0.78561283831E+03  0.12500000000E+03 0.  0.
         21    1    1    2  503  502  0.30795698904E+02 -0.30554023778E+02 -0.56896339004E+02  0.71548003690E+02  0.00000000000E+00 0.  1.
         21    1    1    2  504  503  0.10580626860E+03 -0.15009027932E+03  0.12817772858E+03  0.22394550347E+03  0.00000000000E+00 0. -1.
<mgrwt>
<rscale>  4 0.22423031E+03</rscale>
<asrwt>0</asrwt>
<pdfrwt beam="1">  1       21 0.31583525E-01 0.22423031E+03</pdfrwt>
<pdfrwt beam="2">  1       21 0.13474053E+00 0.22423031E+03</pdfrwt>
<totfact> 0.37069861E+03</totfact>
</mgrwt>
</event>
<event>
 5    0  0.1324511E+000  0.3594436E+03  0.7546771E-02  0.1058804E+00
         21   -1    0    0  504  501  0.00000000000E+00  0.00000000000E+00  0.11831581709E+04  0.11831581709E+04  0.00000000000E+00 0. -1.
         21   -1    0    0  501  502 -0.00000000000E+00 -0.00000000000E+00 -0.37884455504E+03  0.37884455504E+03  0.00000000000E+00 0.  1.
         25    1    1    2    0    0  0.96571679696E+01 -0.38581232907E+03 -0.19044437839E+03  0.44815005904E+03  0.12500000000E+03 0.  0.
         21    1    1    2  503  502  0.53507886980E+02  0.58661786502E+02  0.17431426450E+02  0.81290551682E+02  0.00000000000E+00 0. -1.
         21    1    1    2  504  503 -0.63165054949E+02  0.32715054256E+03  0.97732656776E+03  0.10325621152E+04  0.00000000000E+00 0. -1.
<mgrwt>
<rscale>  4 0.35944365E+03</rscale>
<asrwt>0</asrwt>
<pdfrwt beam="1">  1       21 0.18202433E+00 0.35944365E+03</pdfrwt>
<pdfrwt beam="2">  1       21 0.58283778E-01 0.35944365E+03</pdfrwt>
<totfact> 0.42095616E+02</totfact>
</mgrwt>
</event>
<event>
 5    0  0.1324511E+000  0.3599476E+03  0.7546771E-02  0.1058605E+00
         21   -1    0    0  504  501  0.00000000000E+00  0.00000000000E+00  0.27784573293E+03  0.27784573293E+03  0.00000000000E+00 0. -1.
         21   -1    0    0  501  502 -0.00000000000E+00 -0.00000000000E+00 -0.67981563605E+03  0.67981563605E+03  0.00000000000E+00 0. -1.
         25    1    1    2    0    0  0.32639077591E+03 -0.10840061015E+03 -0.46458228364E+03  0.59139101206E+03  0.12500000000E+03 0.  0.
         21    1    1    2  503  502 -0.30178233298E+03  0.10703149869E+03  0.24832458505E+02  0.32116190497E+03  0.00000000000E+00 0. -1.
         21    1    1    2  504  503 -0.24608442933E+02  0.13691114616E+01  0.37779922012E+02  0.45108451947E+02  0.00000000000E+00 0. -1.
<mgrwt>
<rscale>  4 0.35994759E+03</rscale>
<asrwt>0</asrwt>
<pdfrwt beam="1">  1       21 0.42745497E-01 0.35994759E+03</pdfrwt>
<pdfrwt beam="2">  1       21 0.10458702E+00 0.35994759E+03</pdfrwt>
<totfact> 0.35051897E+03</totfact>
</mgrwt>
</event>
<event>
 5    0  0.1324511E+000  0.2404235E+03  0.7546771E-02  0.1119511E+00
         21   -1    0    0  504  501  0.00000000000E+00  0.00000000000E+00  0.42416480872E+03  0.42416480872E+03  0.00000000000E+00 0. -1.
         21   -1    0    0  501  502 -0.00000000000E+00 -0.00000000000E+00 -0.71453082776E+03  0.71453082776E+03  0.00000000000E+00 0.  1.
         25    1    1    2    0    0  0.14088279011E+03 -0.14943390129E+03 -0.66385039125E+03  0.70604588616E+03  0.12500000000E+03 0.  0.
         21    1    1    2  503  502 -0.67868832256E+02  0.11553450095E+03  0.19221477746E+03  0.23430945345E+03  0.00000000000E+00 0. -1.
         21    1    1    2  504  503 -0.73013957850E+02  0.33899400340E+02  0.18126959475E+03  0.19834029688E+03  0.00000000000E+00 0. -1.
<mgrwt>
<rscale>  4 0.24042348E+03</rscale>
<asrwt>0</asrwt>
<pdfrwt beam="1">  1       21 0.65256124E-01 0.24042348E+03</pdfrwt>
<pdfrwt beam="2">  1       21 0.10992782E+00 0.24042348E+03</pdfrwt>
<totfact> 0.13549420E+03</totfact>
</mgrwt>
</event>
<event>
 5    0  0.1324511E+000  0.2155753E+03  0.7546771E-02  0.1137225E+00
         21   -1    0    0  504  501  0.00000000000E+00  0.00000000000E+00  0.17079701202E+03  0.17079701202E+03  0.00000000000E+00 0.  1.
         21   -1    0    0  501  502 -0.00000000000E+00 -0.00000000000E+00 -0.61876575929E+03  0.61876575929E+03  0.00000000000E+00 0.  1.
         25    1    1    2    0    0 -0.88537362418E+02  0.23332757782E+03 -0.28343896203E+03  0.39779802452E+03  0.12500000000E+03 0.  0.
         21    1    1    2  503  502  0.76829099505E+02 -0.85243811220E+02  0.54558047646E+02  0.12706611840E+03  0.00000000000E+00 0.  1.
         21    1    1    2  504  503  0.11708262913E+02 -0.14808376660E+03 -0.21908783289E+03  0.26469862839E+03  0.00000000000E+00 0.  1.
<mgrwt>
<rscale>  4 0.21557531E+03</rscale>
<asrwt>0</asrwt>
<pdfrwt beam="1">  1       21 0.26276463E-01 0.21557531E+03</pdfrwt>
<pdfrwt beam="2">  1       21 0.95194734E-01 0.21557531E+03</pdfrwt>
<totfact> 0.12504078E+04</totfact>
</mgrwt>
</event>
<event>
 5    0  0.1324511E+000  0.2297930E+03  0.7546771E-02  0.1126786E+00
         21   -1    0    0  504  501  0.00000000000E+00  0.00000000000E+00  0.19238028022E+03  0.19238028022E+03  0.00000000000E+00 0.  1.
         21   -1    0    0  501  502 -0.00000000000E+00 -0.00000000000E+00 -0.31726157096E+03  0.31726157096E+03  0.00000000000E+00 0.  1.
         25    1    1    2    0    0 -0.20082717973E+02 -0.19992571554E+03 -0.16431687651E+03  0.28809485106E+03  0.12500000000E+03 0.  0.
         21    1    1    2  503  502  0.31692782279E+02  0.19804997991E+02  0.98012541149E+01  0.38635928567E+02  0.00000000000E+00 0.  1.
         21    1    1    2  504  503 -0.11610064306E+02  0.18012071755E+03  0.29634331667E+02  0.18291107156E+03  0.00000000000E+00 0.  1.
<mgrwt>
<rscale>  4 0.22979300E+03</rscale>
<asrwt>0</asrwt>
<pdfrwt beam="1">  1       21 0.29596966E-01 0.22979300E+03</pdfrwt>
<pdfrwt beam="2">  1       21 0.48809472E-01 0.22979300E+03</pdfrwt>
<totfact> 0.43055598E+04</totfact>
</mgrwt>
</event>
<event>
 5    0  0.1324511E+000  0.2360607E+03  0.7546771E-02  0.1122445E+00
         21   -1    0    0  504  501  0.00000000000E+00  0.00000000000E+00  0.77175143732E+03  0.77175143732E+03  0.00000000000E+00 0.  1.
         21   -1    0    0  501  502 -0.00000000000E+00 -0.00000000000E+00 -0.14098941779E+03  0.14098941779E+03  0.00000000000E+00 0.  1.
         25    1    1    2    0    0  0.17819157473E+03 -0.91364101394E+02 -0.12889714571E+02  0.23641231159E+03  0.12500000000E+03 0.  0.
         21    1    1    2  503  502 -0.14914957763E+03  0.88244642782E+02  0.59357336899E+03  0.61835431418E+03  0.00000000000E+00 0.  1.
         21    1    1    2  504  503 -0.29041997096E+02  0.31194586112E+01  0.50078365110E+02  0.57974229356E+02  0.00000000000E+00 0.  1.
<mgrwt>
<rscale>  4 0.23606066E+03</rscale>
<asrwt>0</asrwt>
<pdfrwt beam="1">  1       21 0.11873099E+00 0.23606066E+03</pdfrwt>
<pdfrwt beam="2">  1       21 0.21690680E-01 0.23606066E+03</pdfrwt>
<totfact> 0.10441606E+04</totfact>
</mgrwt>
</event>
<event>
 5    0  0.1324511E+000  0.2719103E+03  0.7546771E-02  0.1100191E+00
         21   -1    0    0  504  501  0.00000000000E+00  0.00000000000E+00  0.68165230228E+03  0.68165230228E+03  0.00000000000E+00 0. -1.
         21   -1    0    0  501  502 -0.00000000000E+00 -0.00000000000E+00 -0.18058496876E+03  0.18058496876E+03  0.00000000000E+00 0. -1.
         25    1    1    2    0    0  0.25229163731E+03 -0.56112635722E+02  0.11916931178E+02  0.28734423849E+03  0.12500000000E+03 0.  0.
         21    1    1    2  503  502 -0.22863059056E+02 -0.78900289762E+01 -0.64454214533E+01  0.25030291336E+02  0.00000000000E+00 0. -1.
         21    1    1    2  504  503 -0.22942857825E+03  0.64002664698E+02  0.49559582380E+03  0.54986274121E+03  0.00000000000E+00 0. -1.
<mgrwt>
<rscale>  4 0.27191028E+03</rscale>
<asrwt>0</asrwt>
<pdfrwt beam="1">  1       21 0.10486958E+00 0.27191028E+03</pdfrwt>
<pdfrwt beam="2">  1       21 0.27782303E-01 0.27191028E+03</pdfrwt>
<totfact> 0.86239774E+03</totfact>
</mgrwt>
</event>
<event>
 5    0  0.1324511E+000  0.2420188E+03  0.7546771E-02  0.1118455E+00
         21   -1    0    0  504  501  0.00000000000E+00  0.00000000000E+00  0.16592213653E+03  0.16592213653E+03  0.00000000000E+00 0. -1.
         21   -1    0    0  501  502 -0.00000000000E+00 -0.00000000000E+00 -0.38515559550E+03  0.38515559550E+03  0.00000000000E+00 0. -1.
         25    1    1    2    0    0 -0.43759258172E+01  0.20719305289E+03 -0.23656099294E+03  0.33842903728E+03  0.12500000000E+03 0.  0.
         21    1    1    2  503  502  0.90508190016E+01 -0.27086049050E+02 -0.10332987445E+02  0.30370084084E+02  0.00000000000E+00 0.  1.
         21    1    1    2  504  503 -0.46748931843E+01 -0.18010700384E+03  0.27660521418E+02  0.18227861066E+03  0.00000000000E+00 0. -1.
<mgrwt>
<rscale>  4 0.24201882E+03</rscale>
<asrwt>0</asrwt>
<pdfrwt beam="1">  1       21 0.25526482E-01 0.24201882E+03</pdfrwt>
<pdfrwt beam="2">  1       21 0.59254707E-01 0.24201882E+03</pdfrwt>
<totfact> 0.37823443E+04</totfact>
</mgrwt>
</event>
<event>
 5    0  0.1324511E+000  0.2710256E+03  0.7546771E-02  0.1100694E+00
         21   -1    0    0  504  501  0.00000000000E+00  0.00000000000E+00  0.12054791601E+03  0.12054791601E+03  0.00000000000E+00 0.  1.
         21   -1    0    0  501  502 -0.00000000000E+00 -0.00000000000E+00 -0.61280755356E+03  0.61280755356E+03  0.00000000000E+00 0.  1.
         25    1    1    2    0    0 -0.80117796506E+02 -0.23080488118E+03 -0.33423130839E+03  0.43246424361E+03  0.12500000000E+03 0.  0.
         21    1    1    2  503  502 -0.14021141696E+02  0.14689846296E+02 -0.13460725104E+02  0.24363397115E+02  0.00000000000E+00 0.  1.
         21    1    1    2  504  503  0.94138938202E+02  0.21611503488E+03 -0.14456760406E+03  0.27652782885E+03  0.00000000000E+00 0.  1.
<mgrwt>
<rscale>  4 0.27102561E+03</rscale>
<asrwt>0</asrwt>
<pdfrwt beam="1">  1       21 0.18545833E-01 0.27102561E+03</pdfrwt>
<pdfrwt beam="2">  1       21 0.94278085E-01 0.27102561E+03</pdfrwt>
<totfact> 0.24055671E+04</totfact>
</mgrwt>
</event>
<event>
 5    0  0.1324511E+000  0.2723058E+03  0.7546771E-02  0.1099967E+00
         21   -1    0    0  504  501  0.00000000000E+00  0.00000000000E+00  0.13680512363E+03  0.13680512363E+03  0.00000000000E+00 0.  1.
         21   -1    0    0  501  502 -0.00000000000E+00 -0.00000000000E+00 -0.97528000547E+03  0.97528000547E+03  0.00000000000E+00 0.  1.
         25    1    1    2    0    0  0.10411028950E+03  0.30204822442E+03 -0.46091766622E+03  0.57458000077E+03  0.12500000000E+03 0.  0.
         21    1    1    2  503  502 -0.26794169894E+01 -0.21793493681E+03 -0.12149443798E+03  0.24952698135E+03  0.00000000000E+00 0.  1.
         21    1    1    2  504  503 -0.10143087251E+03 -0.84113287610E+02 -0.25606277764E+03  0.28797814699E+03  0.00000000000E+00 0.  1.
<mgrwt>
<rscale>  4 0.27230584E+03</rscale>
<asrwt>0</asrwt>
<pdfrwt beam="1">  1       21 0.21046942E-01 0.27230584E+03</pdfrwt>
<pdfrwt beam="2">  1       21 0.15004308E+00 0.27230584E+03</pdfrwt>
<totfact> 0.59239924E+03</totfact>
</mgrwt>
</event>
<event>
 5    0  0.1324511E+000  0.2387764E+03  0.7546771E-02  0.1120611E+00
         21   -1    0    0  504  501  0.00000000000E+00  0.00000000000E+00  0.16322600621E+03  0.16322600621E+03  0.00000000000E+00 0. -1.
         21   -1    0    0  501  502 -0.00000000000E+00 -0.00000000000E+00 -0.32228144491E+03  0.32228144491E+03  0.00000000000E+00 0. -1.
         25    1    1    2    0    0  0.72454716257E+01  0.20331417580E+03 -0.34247305099E+02  0.24121987656E+03  0.12500000000E+03 0.  0.
         21    1    1    2  503  502 -0.11298387783E+02 -0.78708371601E+02 -0.21487616811E+02  0.82367341846E+02  0.00000000000E+00 0. -1.
         21    1    1    2  504  503  0.40529161570E+01 -0.12460580420E+03 -0.10332051679E+03  0.16192023271E+03  0.00000000000E+00 0. -1.
<mgrwt>
<rscale>  4 0.23877636E+03</rscale>
<asrwt>0</asrwt>
<pdfrwt beam="1">  1       21 0.25111693E-01 0.23877636E+03</pdfrwt>
<pdfrwt beam="2">  1       21 0.49581760E-01 0.23877636E+03</pdfrwt>
<totfact> 0.57063944E+04</totfact>
</mgrwt>
</event>
