<event>
 5    0  0.1911311E+001  0.2986040E+03  0.7546771E-02  0.1085941E+00
         21   -1    0    0  504  501  0.00000000000E+00  0.00000000000E+00  0.29244033206E+03  0.29244033206E+03  0.00000000000E+00 0. -1.
         21   -1    0    0  503  502 -0.00000000000E+00 -0.00000000000E+00 -0.70498666124E+03  0.70498666124E+03  0.00000000000E+00 0.  1.
         25    1    1    2    0    0 -0.19346645157E+03  0.18586499312E+03 -0.55923771614E+03  0.63272971062E+03  0.12500000000E+03 0.  0.
         21    1    1    2  503  501 -0.30190984293E+02  0.59616757943E+00 -0.12677617638E+02  0.32750159348E+02  0.00000000000E+00 0.  1.
         21    1    1    2  504  502  0.22365743586E+03 -0.18646116070E+03  0.15936900460E+03  0.33194712334E+03  0.00000000000E+00 0. -1.
<mgrwt>
<rscale>  4 0.29860403E+03</rscale>
<asrwt>0</asrwt>
<pdfrwt beam="1">  1       21 0.44990821E-01 0.29860403E+03</pdfrwt>
<pdfrwt beam="2">  1       21 0.10845949E+00 0.29860403E+03</pdfrwt>
<totfact> 0.29741426E+03</totfact>
</mgrwt>
</event>
<event>
 5    0  0.1911311E+001  0.2279800E+03  0.7546771E-02  0.1128070E+00
         21   -1    0    0  504  501  0.00000000000E+00  0.00000000000E+00  0.20085644228E+03  0.20085644228E+03  0.00000000000E+00 0. -1.
         21   -1    0    0  503  502 -0.00000000000E+00 -0.00000000000E+00 -0.13341620650E+04  0.13341620650E+04  0.00000000000E+00 0. -1.
         25    1    1    2    0    0  0.16725659538E+03  0.13433829009E+03 -0.77805539246E+03  0.81671092721E+03  0.12500000000E+03 0.  0.
         21    1    1    2  503  501 -0.51687256574E+01 -0.36581471900E+02 -0.48654420978E+03  0.48794486152E+03  0.00000000000E+00 0. -1.
         21    1    1    2  504  502 -0.16208786972E+03 -0.97756818188E+02  0.13129397956E+03  0.23036271852E+03  0.00000000000E+00 0. -1.
<mgrwt>
<rscale>  4 0.22797995E+03</rscale>
<asrwt>0</asrwt>
<pdfrwt beam="1">  1       21 0.30900992E-01 0.22797995E+03</pdfrwt>
<pdfrwt beam="2">  1       21 0.20525570E+00 0.22797995E+03</pdfrwt>
<totfact> 0.12049602E+03</totfact>
</mgrwt>
</event>
<event>
 5    0  0.1911311E+001  0.2546445E+03  0.7546771E-02  0.1110404E+00
         21   -1    0    0  502  501  0.00000000000E+00  0.00000000000E+00  0.67607141778E+02  0.67607141778E+02  0.00000000000E+00 0. -1.
         21   -1    0    0  504  502 -0.00000000000E+00 -0.00000000000E+00 -0.11567113575E+04  0.11567113575E+04  0.00000000000E+00 0. -1.
         25    1    1    2    0    0 -0.46563935248E+02 -0.21544002768E+03 -0.76053088074E+03  0.80163260048E+03  0.12500000000E+03 0.  0.
         21    1    1    2  503  501  0.85114453321E+02  0.21022001696E+03 -0.28610051115E+03  0.36508961664E+03  0.00000000000E+00 0. -1.
         21    1    1    2  504  503 -0.38550518073E+02  0.52200107199E+01 -0.42472823857E+02  0.57596282189E+02  0.00000000000E+00 0. -1.
<mgrwt>
<rscale>  4 0.25464450E+03</rscale>
<asrwt>0</asrwt>
<pdfrwt beam="1">  1       21 0.10401099E-01 0.25464450E+03</pdfrwt>
<pdfrwt beam="2">  1       21 0.17795560E+00 0.25464450E+03</pdfrwt>
<totfact> 0.13633828E+04</totfact>
</mgrwt>
</event>
<event>
 5    0  0.1911311E+001  0.2830447E+03  0.7546771E-02  0.1094038E+00
         21   -1    0    0  502  501  0.00000000000E+00  0.00000000000E+00  0.11442809731E+04  0.11442809731E+04  0.00000000000E+00 0.  1.
         21   -1    0    0  504  502 -0.00000000000E+00 -0.00000000000E+00 -0.34316514348E+03  0.34316514348E+03  0.00000000000E+00 0.  1.
         25    1    1    2    0    0 -0.16834990796E+03 -0.19331076727E+03 -0.24728284898E+03  0.37747125937E+03  0.12500000000E+03 0.  0.
         21    1    1    2  503  501  0.18885031765E+03  0.16973728390E+03  0.10484237499E+04  0.10787342339E+04  0.00000000000E+00 0.  1.
         21    1    1    2  504  503 -0.20500409689E+02  0.23573483372E+02 -0.25071321625E-01  0.31240623302E+02  0.00000000000E+00 0. -1.
<mgrwt>
<rscale>  4 0.28304468E+03</rscale>
<asrwt>0</asrwt>
<pdfrwt beam="1">  1       21 0.17604322E+00 0.28304468E+03</pdfrwt>
<pdfrwt beam="2">  1       21 0.52794638E-01 0.28304468E+03</pdfrwt>
<totfact> 0.60425950E+02</totfact>
</mgrwt>
</event>
<event>
 5    0  0.1911311E+001  0.2696683E+03  0.7546771E-02  0.1101470E+00
         21   -1    0    0  503  501  0.00000000000E+00  0.00000000000E+00  0.27659795330E+04  0.27659795330E+04  0.00000000000E+00 0. -1.
         21   -1    0    0  501  502 -0.00000000000E+00 -0.00000000000E+00 -0.27032410344E+02  0.27032410344E+02  0.00000000000E+00 0. -1.
         25    1    1    2    0    0  0.22148779371E+03  0.93298806494E+00  0.12694269947E+04  0.12946534703E+04  0.12500000000E+03 0.  0.
         21    1    1    2  503  504  0.33952958050E+02  0.67741293452E+00  0.11284968140E+03  0.11784868621E+03  0.00000000000E+00 0. -1.
         21    1    1    2  504  502 -0.25544075176E+03 -0.16104009995E+01  0.13566704466E+04  0.13805097869E+04  0.00000000000E+00 0. -1.
<mgrwt>
<rscale>  4 0.26966828E+03</rscale>
<asrwt>0</asrwt>
<pdfrwt beam="1">  1       21 0.42553509E+00 0.26966828E+03</pdfrwt>
<pdfrwt beam="2">  1       21 0.41588345E-02 0.26966828E+03</pdfrwt>
<totfact> 0.20030553E+03</totfact>
</mgrwt>
</event>
