<event>
 5    0  0.1014204E+000  0.4178873E+03  0.7546771E-02  0.1037756E+00
         21   -1    0    0  501  502  0.00000000000E+00  0.00000000000E+00  0.25955258344E+03  0.25955258344E+03  0.00000000000E+00 0.  1.
          2   -1    0    0  503    0 -0.00000000000E+00 -0.00000000000E+00 -0.17879002240E+04  0.17879002240E+04  0.00000000000E+00 0. -1.
         25    1    1    2    0    0 -0.15209518980E+03 -0.39893597920E+03  0.56486741578E+00  0.44486872371E+03  0.12500000000E+03 0.  0.
         21    1    1    2  503  502  0.10293139082E+03  0.15494407215E+03 -0.33670027430E+03  0.38466818354E+03  0.00000000000E+00 0. -1.
          2    1    1    2  501    0  0.49163798981E+02  0.24399190705E+03 -0.11922122337E+04  0.12179159002E+04  0.00000000000E+00 0. -1.
<mgrwt>
<rscale>  4 0.41788726E+03</rscale>
<asrwt>0</asrwt>
<pdfrwt beam="1">  1       21 0.39931167E-01 0.41788726E+03</pdfrwt>
<pdfrwt beam="2">  1        2 0.27506157E+00 0.41788726E+03</pdfrwt>
<totfact> 0.67292319E+02</totfact>
</mgrwt>
</event>
<event>
 5    0  0.1014204E+000  0.2792534E+03  0.7546771E-02  0.1096097E+00
          1   -1    0    0  503    0 -0.00000000000E+00  0.00000000000E+00  0.65140693311E+03  0.65140693311E+03  0.00000000000E+00 0.  1.
         21   -1    0    0  501  502  0.00000000000E+00 -0.00000000000E+00 -0.81776863219E+03  0.81776863219E+03  0.00000000000E+00 0. -1.
         25    1    1    2    0    0 -0.11066806031E+03 -0.23300449097E+03 -0.75297509608E+03  0.80568915079E+03  0.12500000000E+03 0.  0.
         21    1    1    2  503  502  0.72123400833E+02  0.16256690132E+03  0.19581527027E+03  0.26452486164E+03  0.00000000000E+00 0. -1.
          1    1    1    2  501    0  0.38544659478E+02  0.70437589649E+02  0.39079812674E+03  0.39896155287E+03  0.00000000000E+00 0.  1.
<mgrwt>
<rscale>  4 0.27925336E+03</rscale>
<asrwt>0</asrwt>
<pdfrwt beam="1">  1       21 0.12581056E+00 0.27925336E+03</pdfrwt>
<pdfrwt beam="2">  1        1 0.10021645E+00 0.27925336E+03</pdfrwt>
<totfact> 0.15400136E+02</totfact>
</mgrwt>
</event>
<event>
 5    0  0.1014204E+000  0.2528904E+03  0.7546771E-02  0.1111492E+00
          2   -1    0    0  503    0 -0.00000000000E+00  0.00000000000E+00  0.10115777547E+04  0.10115777547E+04  0.00000000000E+00 0. -1.
         21   -1    0    0  501  502  0.00000000000E+00 -0.00000000000E+00 -0.11219458737E+03  0.11219458737E+03  0.00000000000E+00 0. -1.
         25    1    1    2    0    0 -0.18607567463E+03  0.14924604681E+03  0.60784711351E+03  0.66483204840E+03  0.12500000000E+03 0.  0.
         21    1    1    2  503  502  0.65237204809E+01 -0.29421569825E+02  0.23346597540E+03  0.23540295106E+03  0.00000000000E+00 0. -1.
          2    1    1    2  501    0  0.17955195415E+03 -0.11982447698E+03  0.58070078402E+02  0.22353734259E+03  0.00000000000E+00 0. -1.
<mgrwt>
<rscale>  4 0.25289040E+03</rscale>
<asrwt>0</asrwt>
<pdfrwt beam="1">  1       21 0.17260706E-01 0.25289040E+03</pdfrwt>
<pdfrwt beam="2">  1        2 0.15562734E+00 0.25289040E+03</pdfrwt>
<totfact> 0.97963955E+03</totfact>
</mgrwt>
</event>
<event>
 5    0  0.1014204E+000  0.2906619E+03  0.7546771E-02  0.1090004E+00
         21   -1    0    0  501  502  0.00000000000E+00  0.00000000000E+00  0.24303014976E+03  0.24303014976E+03  0.00000000000E+00 0. -1.
          2   -1    0    0  503    0 -0.00000000000E+00 -0.00000000000E+00 -0.74591772385E+03  0.74591772385E+03  0.00000000000E+00 0.  1.
         25    1    1    2    0    0 -0.18010958184E+03 -0.19482917404E+03  0.11038741582E+03  0.31338195561E+03  0.12500000000E+03 0.  0.
         21    1    1    2  503  502  0.24550803657E+02  0.14781180562E+01 -0.12993324485E+03  0.13224059479E+03  0.00000000000E+00 0. -1.
          2    1    1    2  501    0  0.15555877819E+03  0.19335105598E+03 -0.48334174506E+03  0.54332532321E+03  0.00000000000E+00 0.  1.
<mgrwt>
<rscale>  4 0.29066191E+03</rscale>
<asrwt>0</asrwt>
<pdfrwt beam="1">  1       21 0.37389254E-01 0.29066191E+03</pdfrwt>
<pdfrwt beam="2">  1        2 0.11475657E+00 0.29066191E+03</pdfrwt>
<totfact> 0.32648490E+03</totfact>
</mgrwt>
</event>
<event>
 5    0  0.1014204E+000  0.2664416E+03  0.7546771E-02  0.1103334E+00
         21   -1    0    0  501  502  0.00000000000E+00  0.00000000000E+00  0.10743896644E+03  0.10743896644E+03  0.00000000000E+00 0. -1.
          2   -1    0    0  503    0 -0.00000000000E+00 -0.00000000000E+00 -0.13788258023E+04  0.13788258023E+04  0.00000000000E+00 0. -1.
         25    1    1    2    0    0  0.30467602335E+02 -0.23985219925E+03 -0.11126161470E+03  0.29404336276E+03  0.12500000000E+03 0.  0.
         21    1    1    2  503  502 -0.14839298476E+02  0.28153665611E+02 -0.44806050749E+03  0.44918932761E+03  0.00000000000E+00 0.  1.
          2    1    1    2  501    0 -0.15628303858E+02  0.21169853364E+03 -0.71206471367E+03  0.74303207836E+03  0.00000000000E+00 0. -1.
<mgrwt>
<rscale>  4 0.26644164E+03</rscale>
<asrwt>0</asrwt>
<pdfrwt beam="1">  1       21 0.16529073E-01 0.26644164E+03</pdfrwt>
<pdfrwt beam="2">  1        2 0.21212703E+00 0.26644164E+03</pdfrwt>
<totfact> 0.65160528E+03</totfact>
</mgrwt>
</event>
<event>
 5    0  0.1014204E+000  0.2849539E+03  0.7546771E-02  0.1093014E+00
         21   -1    0    0  503  502  0.00000000000E+00  0.00000000000E+00  0.99622839590E+03  0.99622839590E+03  0.00000000000E+00 0.  1.
         -1   -1    0    0    0  501 -0.00000000000E+00 -0.00000000000E+00 -0.14142271283E+03  0.14142271283E+03  0.00000000000E+00 0.  1.
         25    1    1    2    0    0  0.26120722173E+03  0.23175616721E+00  0.77941295364E+03  0.83146786991E+03  0.12500000000E+03 0.  0.
         21    1    1    2  503  501 -0.23196520105E+02 -0.44903569744E+02 -0.55556868572E+01  0.50845597422E+02  0.00000000000E+00 0.  1.
         -1    1    1    2    0  502 -0.23801070163E+03  0.44671813577E+02  0.80948416288E+02  0.25533764140E+03  0.00000000000E+00 0.  1.
<mgrwt>
<rscale>  4 0.28495393E+03</rscale>
<asrwt>0</asrwt>
<pdfrwt beam="1">  1       21 0.15326590E+00 0.28495393E+03</pdfrwt>
<pdfrwt beam="2">  1       -1 0.21757341E-01 0.28495393E+03</pdfrwt>
<totfact> 0.42960147E+02</totfact>
</mgrwt>
</event>
<event>
 5    0  0.1014204E+000  0.2406389E+03  0.7546771E-02  0.1119368E+00
         21   -1    0    0  501  502  0.00000000000E+00  0.00000000000E+00  0.79667057453E+02  0.79667057453E+02  0.00000000000E+00 0.  1.
          1   -1    0    0  503    0 -0.00000000000E+00 -0.00000000000E+00 -0.10544735897E+04  0.10544735897E+04  0.00000000000E+00 0. -1.
         25    1    1    2    0    0  0.18933874347E+03 -0.71396070078E+02 -0.17756132473E+03  0.29681573854E+03  0.12500000000E+03 0.  0.
         21    1    1    2  503  502 -0.96186270584E+00 -0.34674395127E+02 -0.18009266547E+03  0.18340285443E+03  0.00000000000E+00 0. -1.
          1    1    1    2  501    0 -0.18837688077E+03  0.10607046521E+03 -0.61715254208E+03  0.65392205422E+03  0.00000000000E+00 0. -1.
<mgrwt>
<rscale>  4 0.24063891E+03</rscale>
<asrwt>0</asrwt>
<pdfrwt beam="1">  1       21 0.12256471E-01 0.24063891E+03</pdfrwt>
<pdfrwt beam="2">  1        1 0.16222669E+00 0.24063891E+03</pdfrwt>
<totfact> 0.91341369E+03</totfact>
</mgrwt>
</event>
<event>
 5    0  0.1014204E+000  0.3552955E+03  0.7546771E-02  0.1060462E+00
         21   -1    0    0  501  502  0.00000000000E+00  0.00000000000E+00  0.10893519321E+03  0.10893519321E+03  0.00000000000E+00 0. -1.
          2   -1    0    0  503    0 -0.00000000000E+00 -0.00000000000E+00 -0.20267765812E+04  0.20267765812E+04  0.00000000000E+00 0. -1.
         25    1    1    2    0    0  0.21116256056E+03  0.25603665829E+03 -0.27216006906E+03  0.44703523414E+03  0.12500000000E+03 0.  0.
         21    1    1    2  503  502  0.33452240799E+02 -0.23505792230E+02 -0.15977568519E+03  0.16492375287E+03  0.00000000000E+00 0.  1.
          2    1    1    2  501    0 -0.24461480136E+03 -0.23253086607E+03 -0.14859056338E+04  0.15237527874E+04  0.00000000000E+00 0. -1.
<mgrwt>
<rscale>  4 0.35529549E+03</rscale>
<asrwt>0</asrwt>
<pdfrwt beam="1">  1       21 0.16759261E-01 0.35529549E+03</pdfrwt>
<pdfrwt beam="2">  1        2 0.31181176E+00 0.35529549E+03</pdfrwt>
<totfact> 0.27877142E+03</totfact>
</mgrwt>
</event>
<event>
 5    0  0.1014204E+000  0.3506483E+03  0.7546771E-02  0.1062349E+00
         21   -1    0    0  501  502  0.00000000000E+00  0.00000000000E+00  0.16709463621E+03  0.16709463621E+03  0.00000000000E+00 0.  1.
          2   -1    0    0  503    0 -0.00000000000E+00 -0.00000000000E+00 -0.20378965547E+04  0.20378965547E+04  0.00000000000E+00 0.  1.
         25    1    1    2    0    0 -0.11065818311E+02 -0.32742443349E+03 -0.50470855503E+02  0.35426193591E+03  0.12500000000E+03 0.  0.
         21    1    1    2  503  502 -0.14216443495E+02  0.17107603211E+02 -0.99061782417E+02  0.10152839056E+03  0.00000000000E+00 0. -1.
          2    1    1    2  501    0  0.25282261807E+02  0.31031683028E+03 -0.17212692806E+04  0.17492008645E+04  0.00000000000E+00 0.  1.
<mgrwt>
<rscale>  4 0.35064827E+03</rscale>
<asrwt>0</asrwt>
<pdfrwt beam="1">  1       21 0.25706864E-01 0.35064827E+03</pdfrwt>
<pdfrwt beam="2">  1        2 0.31352258E+00 0.35064827E+03</pdfrwt>
<totfact> 0.12213714E+03</totfact>
</mgrwt>
</event>
<event>
 5    0  0.1014204E+000  0.2747899E+03  0.7546771E-02  0.1098569E+00
         -1   -1    0    0    0  501 -0.00000000000E+00  0.00000000000E+00  0.50924521542E+03  0.50924521542E+03  0.00000000000E+00 0. -1.
         21   -1    0    0  503  502  0.00000000000E+00 -0.00000000000E+00 -0.15078736041E+03  0.15078736041E+03  0.00000000000E+00 0. -1.
         25    1    1    2    0    0  0.23499103215E+03 -0.57968413893E+02  0.21650916809E+03  0.34796888089E+03  0.12500000000E+03 0.  0.
         21    1    1    2  503  501 -0.16133462809E+01 -0.22533588137E+02  0.37982248454E+02  0.44192948286E+02  0.00000000000E+00 0. -1.
         -1    1    1    2    0  502 -0.23337768587E+03  0.80502002030E+02  0.10396643847E+03  0.26787074667E+03  0.00000000000E+00 0. -1.
<mgrwt>
<rscale>  4 0.27478988E+03</rscale>
<asrwt>0</asrwt>
<pdfrwt beam="1">  1       21 0.23198056E-01 0.27478988E+03</pdfrwt>
<pdfrwt beam="2">  1       -1 0.78345417E-01 0.27478988E+03</pdfrwt>
<totfact> 0.27217951E+03</totfact>
</mgrwt>
</event>
<event>
 5    0  0.1014204E+000  0.2487843E+03  0.7546771E-02  0.1114076E+00
          1   -1    0    0  503    0 -0.00000000000E+00  0.00000000000E+00  0.95626680623E+03  0.95626680623E+03  0.00000000000E+00 0.  1.
         21   -1    0    0  501  502  0.00000000000E+00 -0.00000000000E+00 -0.45860439078E+03  0.45860439078E+03  0.00000000000E+00 0.  1.
         25    1    1    2    0    0  0.17813467670E+03 -0.13840310723E+03 -0.19165509833E+03  0.32131613692E+03  0.12500000000E+03 0.  0.
         21    1    1    2  503  502 -0.39975034052E+01  0.26627026757E+02  0.83820241048E+03  0.83863475931E+03  0.00000000000E+00 0.  1.
          1    1    1    2  501    0 -0.17413717329E+03  0.11177608047E+03 -0.14888489669E+03  0.25492030078E+03  0.00000000000E+00 0.  1.
<mgrwt>
<rscale>  4 0.24878434E+03</rscale>
<asrwt>0</asrwt>
<pdfrwt beam="1">  1       21 0.70554522E-01 0.24878434E+03</pdfrwt>
<pdfrwt beam="2">  1        1 0.14711797E+00 0.24878434E+03</pdfrwt>
<totfact> 0.34050375E+02</totfact>
</mgrwt>
</event>
<event>
 5    0  0.1014204E+000  0.2966795E+03  0.7546771E-02  0.1086912E+00
          2   -1    0    0  503    0 -0.00000000000E+00  0.00000000000E+00  0.15953701266E+04  0.15953701266E+04  0.00000000000E+00 0. -1.
         21   -1    0    0  501  502  0.00000000000E+00 -0.00000000000E+00 -0.59624753056E+02  0.59624753056E+02  0.00000000000E+00 0. -1.
         25    1    1    2    0    0 -0.17231232917E+03  0.17873944219E+03  0.84440465167E+03  0.88897893268E+03  0.12500000000E+03 0.  0.
         21    1    1    2  503  502 -0.80469165548E+01  0.39721451171E+02  0.14549852824E+03  0.15103763859E+03  0.00000000000E+00 0. -1.
          2    1    1    2  501    0  0.18035924573E+03 -0.21846089336E+03  0.54584219364E+03  0.61497830840E+03  0.00000000000E+00 0. -1.
<mgrwt>
<rscale>  4 0.29667954E+03</rscale>
<asrwt>0</asrwt>
<pdfrwt beam="1">  1       21 0.91730402E-02 0.29667954E+03</pdfrwt>
<pdfrwt beam="2">  1        2 0.24544153E+00 0.29667954E+03</pdfrwt>
<totfact> 0.14339899E+04</totfact>
</mgrwt>
</event>
<event>
 5    0  0.1014204E+000  0.4395639E+03  0.7546771E-02  0.1030881E+00
         21   -1    0    0  501  502  0.00000000000E+00  0.00000000000E+00  0.25853144294E+03  0.25853144294E+03  0.00000000000E+00 0. -1.
          2   -1    0    0  503    0 -0.00000000000E+00 -0.00000000000E+00 -0.15553962308E+04  0.15553962308E+04  0.00000000000E+00 0. -1.
         25    1    1    2    0    0  0.68588240743E+02 -0.25407053081E+03  0.33846214892E+02  0.29330316681E+03  0.12500000000E+03 0.  0.
         21    1    1    2  503  502  0.12515549870E+03 -0.16966811520E+03 -0.17318909734E+03  0.27284726792E+03  0.00000000000E+00 0. -1.
          2    1    1    2  501    0 -0.19374373944E+03  0.42373864602E+03 -0.11575219054E+04  0.12477772390E+04  0.00000000000E+00 0. -1.
<mgrwt>
<rscale>  4 0.43956391E+03</rscale>
<asrwt>0</asrwt>
<pdfrwt beam="1">  1       21 0.39774068E-01 0.43956391E+03</pdfrwt>
<pdfrwt beam="2">  1        2 0.23929173E+00 0.43956391E+03</pdfrwt>
<totfact> 0.89883354E+02</totfact>
</mgrwt>
</event>
<event>
 5    0  0.1014204E+000  0.3633420E+03  0.7546771E-02  0.1057268E+00
          1   -1    0    0  503    0 -0.00000000000E+00  0.00000000000E+00  0.11114404021E+04  0.11114404021E+04  0.00000000000E+00 0.  1.
         21   -1    0    0  501  502  0.00000000000E+00 -0.00000000000E+00 -0.18380386059E+03  0.18380386059E+03  0.00000000000E+00 0.  1.
         25    1    1    2    0    0  0.32849417054E+03  0.12769904479E+03  0.67437811455E+03  0.77112016411E+03  0.12500000000E+03 0.  0.
         21    1    1    2  503  502 -0.20419968281E+02  0.11264387910E+02  0.17587285087E+03  0.17741229160E+03  0.00000000000E+00 0.  1.
          1    1    1    2  501    0 -0.30807420226E+03 -0.13896343270E+03  0.77385576109E+02  0.34671180700E+03  0.00000000000E+00 0.  1.
<mgrwt>
<rscale>  4 0.36334199E+03</rscale>
<asrwt>0</asrwt>
<pdfrwt beam="1">  1       21 0.28277518E-01 0.36334199E+03</pdfrwt>
<pdfrwt beam="2">  1        1 0.17099083E+00 0.36334199E+03</pdfrwt>
<totfact> 0.16710760E+03</totfact>
</mgrwt>
</event>
<event>
 5    0  0.1014204E+000  0.2733394E+03  0.7546771E-02  0.1099383E+00
          2   -1    0    0  503    0 -0.00000000000E+00  0.00000000000E+00  0.16849403675E+04  0.16849403675E+04  0.00000000000E+00 0. -1.
         21   -1    0    0  501  502  0.00000000000E+00 -0.00000000000E+00 -0.70607217507E+03  0.70607217507E+03  0.00000000000E+00 0.  1.
         25    1    1    2    0    0  0.24188374810E+03 -0.27042308230E+02 -0.66527566707E+03  0.71934397003E+03  0.12500000000E+03 0.  0.
         21    1    1    2  503  502 -0.21761874577E+02 -0.27291598452E+02  0.47172168646E+02  0.58682399627E+02  0.00000000000E+00 0. -1.
          2    1    1    2  501    0 -0.22012187352E+03  0.54333906682E+02  0.15969716909E+04  0.16129861729E+04  0.00000000000E+00 0. -1.
<mgrwt>
<rscale>  4 0.27333940E+03</rscale>
<asrwt>0</asrwt>
<pdfrwt beam="1">  1       21 0.10862649E+00 0.27333940E+03</pdfrwt>
<pdfrwt beam="2">  1        2 0.25922159E+00 0.27333940E+03</pdfrwt>
<totfact> 0.88282289E+01</totfact>
</mgrwt>
</event>
<event>
 5    0  0.1014204E+000  0.5648272E+03  0.7546771E-02  0.9981191E-01
         21   -1    0    0  501  502  0.00000000000E+00  0.00000000000E+00  0.17395045268E+03  0.17395045268E+03  0.00000000000E+00 0. -1.
          1   -1    0    0  503    0 -0.00000000000E+00 -0.00000000000E+00 -0.22987261866E+04  0.22987261866E+04  0.00000000000E+00 0. -1.
         25    1    1    2    0    0 -0.39888188718E+03  0.36834451671E+03 -0.14402509424E+04  0.15442578218E+04  0.12500000000E+03 0.  0.
         21    1    1    2  503  502 -0.25466740696E+02 -0.11635592395E+02 -0.16931228567E+03  0.17161174777E+03  0.00000000000E+00 0.  1.
          1    1    1    2  501    0  0.42434862788E+03 -0.35670892432E+03 -0.51521250581E+03  0.75680706974E+03  0.00000000000E+00 0. -1.
<mgrwt>
<rscale>  4 0.56482716E+03</rscale>
<asrwt>0</asrwt>
<pdfrwt beam="1">  1       21 0.26761610E-01 0.56482716E+03</pdfrwt>
<pdfrwt beam="2">  1        1 0.35365016E+00 0.56482716E+03</pdfrwt>
<totfact> 0.27855452E+02</totfact>
</mgrwt>
</event>
<event>
 5    0  0.1014204E+000  0.3687935E+03  0.7546771E-02  0.1056599E+00
         21   -1    0    0  501  502  0.00000000000E+00  0.00000000000E+00  0.74432761858E+02  0.74432761858E+02  0.00000000000E+00 0. -1.
          2   -1    0    0  503    0 -0.00000000000E+00 -0.00000000000E+00 -0.19673036746E+04  0.19673036746E+04  0.00000000000E+00 0. -1.
         25    1    1    2    0    0  0.27199345193E+03 -0.18910735583E+03 -0.59398554956E+03  0.69150984303E+03  0.12500000000E+03 0.  0.
         21    1    1    2  503  502 -0.23834468403E+02  0.10256316975E+03 -0.33549972086E+03  0.35163524904E+03  0.00000000000E+00 0. -1.
          2    1    1    2  501    0 -0.24815898352E+03  0.86544186082E+02 -0.96338564231E+03  0.99859134438E+03  0.00000000000E+00 0. -1.
<mgrwt>
<rscale>  4 0.36505675E+03</rscale>
<asrwt>0</asrwt>
<pdfrwt beam="1">  1       21 0.11451195E-01 0.36879353E+03</pdfrwt>
<pdfrwt beam="2">  1        2 0.30266208E+00 0.36879353E+03</pdfrwt>
<totfact> 0.60085656E+03</totfact>
</mgrwt>
</event>
<event>
 5    0  0.1014204E+000  0.2658489E+03  0.7546771E-02  0.1103679E+00
          2   -1    0    0  503    0 -0.00000000000E+00  0.00000000000E+00  0.25420343241E+03  0.25420343241E+03  0.00000000000E+00 0. -1.
         21   -1    0    0  501  502  0.00000000000E+00 -0.00000000000E+00 -0.49620551007E+03  0.49620551007E+03  0.00000000000E+00 0.  1.
         25    1    1    2    0    0  0.16137206960E+03 -0.15945770547E+03 -0.27923326100E+03  0.38087257545E+03  0.12500000000E+03 0.  0.
         21    1    1    2  503  502 -0.49354439788E+02 -0.84771547437E+02  0.21257242807E+02  0.10036905078E+03  0.00000000000E+00 0.  1.
          2    1    1    2  501    0 -0.11201762981E+03  0.24422925291E+03  0.15973940529E+02  0.26916731626E+03  0.00000000000E+00 0. -1.
<mgrwt>
<rscale>  4 0.26584892E+03</rscale>
<asrwt>0</asrwt>
<pdfrwt beam="1">  1       21 0.76339309E-01 0.26584892E+03</pdfrwt>
<pdfrwt beam="2">  1        2 0.39108221E-01 0.26584892E+03</pdfrwt>
<totfact> 0.24122700E+03</totfact>
</mgrwt>
</event>
<event>
 5    0  0.1014204E+000  0.2949151E+03  0.7546771E-02  0.1087810E+00
         -2   -1    0    0    0  501 -0.00000000000E+00  0.00000000000E+00  0.84499163870E+02  0.84499163870E+02  0.00000000000E+00 0. -1.
         21   -1    0    0  503  502  0.00000000000E+00 -0.00000000000E+00 -0.11215884300E+04  0.11215884300E+04  0.00000000000E+00 0. -1.
         25    1    1    2    0    0  0.19781092156E+03 -0.18835921389E+03 -0.68583709100E+03  0.74873618153E+03  0.12500000000E+03 0.  0.
         21    1    1    2  503  501 -0.54179420944E-01  0.20807090959E+02  0.16147529128E-01  0.20807167763E+02  0.00000000000E+00 0. -1.
         -2    1    1    2    0  502 -0.19775674214E+03  0.16755212294E+03 -0.35126832266E+03  0.43654424457E+03  0.00000000000E+00 0. -1.
<mgrwt>
<rscale>  4 0.29491511E+03</rscale>
<asrwt>0</asrwt>
<pdfrwt beam="1">  1       21 0.17255205E+00 0.29491511E+03</pdfrwt>
<pdfrwt beam="2">  1       -2 0.12999873E-01 0.29491511E+03</pdfrwt>
<totfact> 0.66819427E+02</totfact>
</mgrwt>
</event>
<event>
 5    0  0.1014204E+000  0.2868082E+03  0.7546771E-02  0.1092027E+00
          2   -1    0    0  503    0 -0.00000000000E+00  0.00000000000E+00  0.39790951149E+03  0.39790951149E+03  0.00000000000E+00 0. -1.
         21   -1    0    0  501  502  0.00000000000E+00 -0.00000000000E+00 -0.35999223553E+03  0.35999223553E+03  0.00000000000E+00 0.  1.
         25    1    1    2    0    0  0.14042654144E+02 -0.26156303453E+03 -0.21887153817E+03  0.36351364127E+03  0.12500000000E+03 0.  0.
         21    1    1    2  503  502  0.25227670546E+02  0.17605380611E+02  0.92947726674E+02  0.97906407765E+02  0.00000000000E+00 0. -1.
          2    1    1    2  501    0 -0.39270324691E+02  0.24395765392E+03  0.16384108745E+03  0.29648169799E+03  0.00000000000E+00 0. -1.
<mgrwt>
<rscale>  4 0.28680817E+03</rscale>
<asrwt>0</asrwt>
<pdfrwt beam="1">  1       21 0.55383421E-01 0.28680817E+03</pdfrwt>
<pdfrwt beam="2">  1        2 0.61216848E-01 0.28680817E+03</pdfrwt>
<totfact> 0.29839417E+03</totfact>
</mgrwt>
</event>
<event>
 5    0  0.1014204E+000  0.2896770E+03  0.7546771E-02  0.1090518E+00
         -1   -1    0    0    0  501 -0.00000000000E+00  0.00000000000E+00  0.12413317420E+04  0.12413317420E+04  0.00000000000E+00 0. -1.
         21   -1    0    0  503  502  0.00000000000E+00 -0.00000000000E+00 -0.89002408630E+02  0.89002408630E+02  0.00000000000E+00 0. -1.
         25    1    1    2    0    0  0.19673821001E+03 -0.19524856284E+03  0.33456378495E+03  0.45209053382E+03  0.12500000000E+03 0.  0.
         21    1    1    2  503  501  0.11951781029E+02  0.71716046185E+02  0.26137541630E+03  0.27129899483E+03  0.00000000000E+00 0.  1.
         -1    1    1    2    0  502 -0.20868999104E+03  0.12353251665E+03  0.55639013211E+03  0.60694462197E+03  0.00000000000E+00 0. -1.
<mgrwt>
<rscale>  4 0.28967698E+03</rscale>
<asrwt>0</asrwt>
<pdfrwt beam="1">  1       21 0.13692679E-01 0.28967698E+03</pdfrwt>
<pdfrwt beam="2">  1       -1 0.19097410E+00 0.28967698E+03</pdfrwt>
<totfact> 0.81825609E+02</totfact>
</mgrwt>
</event>
<event>
 5    0  0.1014204E+000  0.4146758E+03  0.7546771E-02  0.1038813E+00
          2   -1    0    0  503    0 -0.00000000000E+00  0.00000000000E+00  0.10902548296E+04  0.10902548296E+04  0.00000000000E+00 0. -1.
         21   -1    0    0  501  502  0.00000000000E+00 -0.00000000000E+00 -0.39241143715E+03  0.39241143715E+03  0.00000000000E+00 0. -1.
         25    1    1    2    0    0 -0.17998924257E+03  0.34852067726E+03 -0.21627148752E+03  0.46503886530E+03  0.12500000000E+03 0.  0.
         21    1    1    2  503  502 -0.12765852453E+02  0.23202014552E+02  0.35048974660E+02  0.43928704657E+02  0.00000000000E+00 0.  1.
          2    1    1    2  501    0  0.19275509502E+03 -0.37172269182E+03  0.87906590536E+03  0.97369869684E+03  0.00000000000E+00 0. -1.
<mgrwt>
<rscale>  4 0.41467582E+03</rscale>
<asrwt>0</asrwt>
<pdfrwt beam="1">  1       21 0.60370991E-01 0.41467582E+03</pdfrwt>
<pdfrwt beam="2">  1        2 0.16773151E+00 0.41467582E+03</pdfrwt>
<totfact> 0.68495532E+02</totfact>
</mgrwt>
</event>
<event>
 5    0  0.1014204E+000  0.3196965E+03  0.7546771E-02  0.1075789E+00
         21   -1    0    0  501  502  0.00000000000E+00  0.00000000000E+00  0.16224538674E+03  0.16224538674E+03  0.00000000000E+00 0.  1.
          2   -1    0    0  503    0 -0.00000000000E+00 -0.00000000000E+00 -0.12396476918E+04  0.12396476918E+04  0.00000000000E+00 0. -1.
         25    1    1    2    0    0  0.26959740861E+03  0.10790285856E+03 -0.56294822428E+02  0.32112286846E+03  0.12500000000E+03 0.  0.
         21    1    1    2  503  502  0.21328595083E+02  0.24758805717E+01 -0.22486869010E+03  0.22589149329E+03  0.00000000000E+00 0. -1.
          2    1    1    2  501    0 -0.29092600370E+03 -0.11037873914E+03 -0.79623879254E+03  0.85487871679E+03  0.00000000000E+00 0. -1.
<mgrwt>
<rscale>  4 0.31969647E+03</rscale>
<asrwt>0</asrwt>
<pdfrwt beam="1">  1       21 0.24960829E-01 0.31969647E+03</pdfrwt>
<pdfrwt beam="2">  1        2 0.19071503E+00 0.31969647E+03</pdfrwt>
<totfact> 0.35183174E+03</totfact>
</mgrwt>
</event>
<event>
 5    0  0.1014204E+000  0.3090992E+03  0.7546771E-02  0.1080778E+00
         21   -1    0    0  501  502  0.00000000000E+00  0.00000000000E+00  0.10167057943E+03  0.10167057943E+03  0.00000000000E+00 0. -1.
          2   -1    0    0  503    0 -0.00000000000E+00 -0.00000000000E+00 -0.13086273852E+04  0.13086273852E+04  0.00000000000E+00 0. -1.
         25    1    1    2    0    0 -0.24072850901E+03 -0.10537086955E+02 -0.50432270814E+03  0.57273697209E+03  0.12500000000E+03 0.  0.
         21    1    1    2  503  502 -0.10141836347E+03 -0.41880656262E+02 -0.16816644098E+03  0.20079747431E+03  0.00000000000E+00 0. -1.
          2    1    1    2  501    0  0.34214687248E+03  0.52417743217E+02 -0.53446765662E+03  0.63676351821E+03  0.00000000000E+00 0. -1.
<mgrwt>
<rscale>  4 0.30909924E+03</rscale>
<asrwt>0</asrwt>
<pdfrwt beam="1">  1       21 0.15641630E-01 0.30909924E+03</pdfrwt>
<pdfrwt beam="2">  1        2 0.20132726E+00 0.30909924E+03</pdfrwt>
<totfact> 0.77961988E+03</totfact>
</mgrwt>
</event>
<event>
 5    0  0.1014204E+000  0.2248665E+03  0.7546771E-02  0.1130306E+00
         -2   -1    0    0    0  501 -0.00000000000E+00  0.00000000000E+00  0.13910238494E+04  0.13910238494E+04  0.00000000000E+00 0. -1.
         21   -1    0    0  503  502  0.00000000000E+00 -0.00000000000E+00 -0.51416422442E+03  0.51416422442E+03  0.00000000000E+00 0. -1.
         25    1    1    2    0    0 -0.71328733011E+02  0.20398290289E+03 -0.46189980058E+03  0.52504593951E+03  0.12500000000E+03 0.  0.
         21    1    1    2  503  501  0.34089236118E+02 -0.21175689387E+02  0.14291915978E+02  0.42599820450E+02  0.00000000000E+00 0. -1.
         -2    1    1    2    0  502  0.37239496893E+02 -0.18280721350E+03  0.13244675096E+04  0.13375423138E+04  0.00000000000E+00 0. -1.
<mgrwt>
<rscale>  4 0.22486652E+03</rscale>
<asrwt>0</asrwt>
<pdfrwt beam="1">  1       21 0.79102189E-01 0.22486652E+03</pdfrwt>
<pdfrwt beam="2">  1       -2 0.21400367E+00 0.22486652E+03</pdfrwt>
<totfact> 0.13515917E+01</totfact>
</mgrwt>
</event>
<event>
 5    0  0.1014204E+000  0.3400397E+03  0.7546771E-02  0.1066779E+00
         21   -1    0    0  501  502  0.00000000000E+00  0.00000000000E+00  0.33687374514E+03  0.33687374514E+03  0.00000000000E+00 0.  1.
          2   -1    0    0  503    0 -0.00000000000E+00 -0.00000000000E+00 -0.89060581614E+03  0.89060581614E+03  0.00000000000E+00 0.  1.
         25    1    1    2    0    0  0.26522453301E+03 -0.17619276464E+03  0.20558529256E+03  0.39909679997E+03  0.12500000000E+03 0.  0.
         21    1    1    2  503  502 -0.24364848162E+02 -0.46881935152E+01 -0.10758369312E+03  0.11040777151E+03  0.00000000000E+00 0.  1.
          2    1    1    2  501    0 -0.24085968485E+03  0.18088095816E+03 -0.65173367044E+03  0.71797498981E+03  0.00000000000E+00 0.  1.
<mgrwt>
<rscale>  4 0.34003968E+03</rscale>
<asrwt>0</asrwt>
<pdfrwt beam="1">  1       21 0.51826730E-01 0.34003968E+03</pdfrwt>
<pdfrwt beam="2">  1        2 0.13701628E+00 0.34003968E+03</pdfrwt>
<totfact> 0.12993000E+03</totfact>
</mgrwt>
</event>
<event>
 5    0  0.1014204E+000  0.2371243E+03  0.7546771E-02  0.1121723E+00
         21   -1    0    0  501  502  0.00000000000E+00  0.00000000000E+00  0.25944398480E+03  0.25944398480E+03  0.00000000000E+00 0.  1.
          2   -1    0    0  503    0 -0.00000000000E+00 -0.00000000000E+00 -0.68204997302E+03  0.68204997302E+03  0.00000000000E+00 0. -1.
         25    1    1    2    0    0  0.85677531597E+01  0.20228294107E+03  0.16628404662E+03  0.29028809621E+03  0.12500000000E+03 0.  0.
         21    1    1    2  503  502  0.46893743968E+02 -0.91841749587E+01 -0.27078821666E+03  0.27497205417E+03  0.00000000000E+00 0. -1.
          2    1    1    2  501    0 -0.55461497128E+02 -0.19309876611E+03 -0.31810181818E+03  0.37623380744E+03  0.00000000000E+00 0. -1.
<mgrwt>
<rscale>  4 0.23712435E+03</rscale>
<asrwt>0</asrwt>
<pdfrwt beam="1">  1       21 0.39914459E-01 0.23712435E+03</pdfrwt>
<pdfrwt beam="2">  1        2 0.10493077E+00 0.23712435E+03</pdfrwt>
<totfact> 0.32458062E+03</totfact>
</mgrwt>
</event>
<event>
 5    0  0.1014204E+000  0.3855400E+03  0.7546771E-02  0.1048905E+00
         21   -1    0    0  501  502  0.00000000000E+00  0.00000000000E+00  0.73176889112E+03  0.73176889112E+03  0.00000000000E+00 0. -1.
          2   -1    0    0  503    0 -0.00000000000E+00 -0.00000000000E+00 -0.43797900143E+04  0.43797900143E+04  0.00000000000E+00 0. -1.
         25    1    1    2    0    0  0.20943790857E+03  0.29904617554E+03  0.66959386332E+03  0.77283490763E+03  0.12500000000E+03 0.  0.
         21    1    1    2  503  502 -0.90225414307E+01 -0.32338984624E+02 -0.66082223775E+02  0.74122037745E+02  0.00000000000E+00 0.  1.
          2    1    1    2  501    0 -0.20041536714E+03 -0.26670719092E+03 -0.42515327627E+04  0.42646019601E+04  0.00000000000E+00 0. -1.
<mgrwt>
<rscale>  4 0.38553998E+03</rscale>
<asrwt>0</asrwt>
<pdfrwt beam="1">  1       21 0.11257983E+00 0.38553998E+03</pdfrwt>
<pdfrwt beam="2">  1        2 0.67381383E+00 0.38553998E+03</pdfrwt>
<totfact> 0.14530660E+00</totfact>
</mgrwt>
</event>
<event>
 5    0  0.1014204E+000  0.2719915E+03  0.7546771E-02  0.1100145E+00
         21   -1    0    0  501  502  0.00000000000E+00  0.00000000000E+00  0.26563906197E+03  0.26563906197E+03  0.00000000000E+00 0. -1.
          2   -1    0    0  503    0 -0.00000000000E+00 -0.00000000000E+00 -0.34011882650E+04  0.34011882650E+04  0.00000000000E+00 0.  1.
         25    1    1    2    0    0 -0.20757815281E+03  0.12196437305E+03  0.18561653667E+03  0.32869818451E+03  0.12500000000E+03 0.  0.
         21    1    1    2  503  502 -0.31271459409E+02  0.19619764495E+02 -0.13720950569E+03  0.14208901360E+03  0.00000000000E+00 0.  1.
          2    1    1    2  501    0  0.23884961222E+03 -0.14158413754E+03 -0.31839562340E+04  0.31960401289E+04  0.00000000000E+00 0.  1.
<mgrwt>
<rscale>  4 0.27199154E+03</rscale>
<asrwt>0</asrwt>
<pdfrwt beam="1">  1       21 0.40867552E-01 0.27199154E+03</pdfrwt>
<pdfrwt beam="2">  1        2 0.52325969E+00 0.27199154E+03</pdfrwt>
<totfact> 0.83541567E+01</totfact>
</mgrwt>
</event>
<event>
 5    0  0.1014204E+000  0.2483842E+03  0.7546771E-02  0.1114330E+00
         21   -1    0    0  501  502  0.00000000000E+00  0.00000000000E+00  0.14419932690E+04  0.14419932690E+04  0.00000000000E+00 0.  1.
          2   -1    0    0  503    0 -0.00000000000E+00 -0.00000000000E+00 -0.18086240300E+03  0.18086240300E+03  0.00000000000E+00 0.  1.
         25    1    1    2    0    0  0.27586682753E+02  0.22906857618E+03  0.13013175156E+04  0.13275110975E+04  0.12500000000E+03 0.  0.
         21    1    1    2  503  502  0.13123981854E+02 -0.15231336919E+03  0.58656334364E+02  0.16374421179E+03  0.00000000000E+00 0.  1.
          2    1    1    2  501    0 -0.40710664607E+02 -0.76755206989E+02 -0.98842983883E+02  0.13160036275E+03  0.00000000000E+00 0.  1.
<mgrwt>
<rscale>  4 0.24838419E+03</rscale>
<asrwt>0</asrwt>
<pdfrwt beam="1">  1       21 0.22184511E+00 0.24838419E+03</pdfrwt>
<pdfrwt beam="2">  1        2 0.27824986E-01 0.24838419E+03</pdfrwt>
<totfact> 0.22007206E+02</totfact>
</mgrwt>
</event>
<event>
 5    0  0.1014204E+000  0.2381029E+03  0.7546771E-02  0.1121063E+00
         21   -1    0    0  501  502  0.00000000000E+00  0.00000000000E+00  0.31981845603E+03  0.31981845603E+03  0.00000000000E+00 0. -1.
          1   -1    0    0  503    0 -0.00000000000E+00 -0.00000000000E+00 -0.88241532978E+03  0.88241532978E+03  0.00000000000E+00 0.  1.
         25    1    1    2    0    0 -0.18549522136E+03 -0.87235470616E+02  0.25351421076E+03  0.34916036364E+03  0.12500000000E+03 0.  0.
         21    1    1    2  503  502  0.24330780560E+02  0.42362570962E+02 -0.54009669240E+02  0.72825947797E+02  0.00000000000E+00 0. -1.
          1    1    1    2  501    0  0.16116444080E+03  0.44872899654E+02 -0.76210141527E+03  0.78024747437E+03  0.00000000000E+00 0.  1.
<mgrwt>
<rscale>  4 0.23810289E+03</rscale>
<asrwt>0</asrwt>
<pdfrwt beam="1">  1       21 0.49202840E-01 0.23810289E+03</pdfrwt>
<pdfrwt beam="2">  1        1 0.13575620E+00 0.23810289E+03</pdfrwt>
<totfact> 0.84950810E+02</totfact>
</mgrwt>
</event>
<event>
 5    0  0.1014204E+000  0.2407647E+03  0.7546771E-02  0.1119284E+00
         21   -1    0    0  501  502  0.00000000000E+00  0.00000000000E+00  0.20343818178E+03  0.20343818178E+03  0.00000000000E+00 0.  1.
          1   -1    0    0  503    0 -0.00000000000E+00 -0.00000000000E+00 -0.89399786862E+03  0.89399786862E+03  0.00000000000E+00 0. -1.
         25    1    1    2    0    0  0.60761658856E+02  0.20664753321E+03  0.36524570044E+02  0.25170265470E+03  0.12500000000E+03 0.  0.
         21    1    1    2  503  502 -0.20993317894E+03 -0.10320134799E+03 -0.29095148905E+03  0.37332991687E+03  0.00000000000E+00 0. -1.
          1    1    1    2  501    0  0.14917152009E+03 -0.10344618522E+03 -0.43613276783E+03  0.47240347884E+03  0.00000000000E+00 0. -1.
<mgrwt>
<rscale>  4 0.24076468E+03</rscale>
<asrwt>0</asrwt>
<pdfrwt beam="1">  1       21 0.31298182E-01 0.24076468E+03</pdfrwt>
<pdfrwt beam="2">  1        1 0.13753813E+00 0.24076468E+03</pdfrwt>
<totfact> 0.20786125E+03</totfact>
</mgrwt>
</event>
<event>
 5    0  0.1014204E+000  0.4480118E+03  0.7546771E-02  0.1028317E+00
         21   -1    0    0  503  502  0.00000000000E+00  0.00000000000E+00  0.12087384200E+03  0.12087384200E+03  0.00000000000E+00 0. -1.
         -3   -1    0    0    0  501 -0.00000000000E+00 -0.00000000000E+00 -0.21443288196E+04  0.21443288196E+04  0.00000000000E+00 0.  1.
         25    1    1    2    0    0 -0.35306116441E+03 -0.11521507577E+03 -0.47607989667E+03  0.61660665543E+03  0.12500000000E+03 0.  0.
         21    1    1    2  503  501 -0.92260439852E+02 -0.50669199576E+01 -0.14164979174E+03  0.16912222190E+03  0.00000000000E+00 0.  1.
         -3    1    1    2    0  502  0.44532160426E+03  0.12028199572E+03 -0.14057252892E+04  0.14794737843E+04  0.00000000000E+00 0.  1.
<mgrwt>
<rscale>  4 0.44801177E+03</rscale>
<asrwt>0</asrwt>
<pdfrwt beam="1">  1       21 0.18595977E-01 0.44801177E+03</pdfrwt>
<pdfrwt beam="2">  1       -3 0.32989672E+00 0.44801177E+03</pdfrwt>
<totfact> 0.36701663E+01</totfact>
</mgrwt>
</event>
<event>
 5    0  0.1014204E+000  0.3161739E+03  0.7546771E-02  0.1077424E+00
         21   -1    0    0  501  502  0.00000000000E+00  0.00000000000E+00  0.25157122586E+03  0.25157122586E+03  0.00000000000E+00 0. -1.
          1   -1    0    0  503    0 -0.00000000000E+00 -0.00000000000E+00 -0.97778323518E+03  0.97778323518E+03  0.00000000000E+00 0. -1.
         25    1    1    2    0    0  0.23168527567E+03  0.16829780900E+03  0.88961469774E+02  0.32487130157E+03  0.12500000000E+03 0.  0.
         21    1    1    2  503  502  0.22436793852E+02  0.75708385051E+01 -0.31938951012E+03  0.32026611823E+03  0.00000000000E+00 0. -1.
          1    1    1    2  501    0 -0.25412206952E+03 -0.17586864751E+03 -0.49578396898E+03  0.58421704125E+03  0.00000000000E+00 0. -1.
<mgrwt>
<rscale>  4 0.31617389E+03</rscale>
<asrwt>0</asrwt>
<pdfrwt beam="1">  1       21 0.38703265E-01 0.31617389E+03</pdfrwt>
<pdfrwt beam="2">  1        1 0.15042819E+00 0.31617389E+03</pdfrwt>
<totfact> 0.11385184E+03</totfact>
</mgrwt>
</event>
<event>
 5    0  0.1014204E+000  0.2856734E+03  0.7546771E-02  0.1092630E+00
          4   -1    0    0  503    0 -0.00000000000E+00  0.00000000000E+00  0.13145543520E+03  0.13145543520E+03  0.00000000000E+00 0.  1.
         21   -1    0    0  501  502  0.00000000000E+00 -0.00000000000E+00 -0.19900699887E+04  0.19900699887E+04  0.00000000000E+00 0.  1.
         25    1    1    2    0    0 -0.12640966639E+02  0.29570827796E+03 -0.17256042590E+04  0.17552601626E+04  0.12500000000E+03 0.  0.
         21    1    1    2  503  502 -0.37183529574E+02 -0.16056070059E+03 -0.14792056938E+03  0.22145619949E+03  0.00000000000E+00 0.  1.
          4    1    1    2  501    0  0.49824496214E+02 -0.13514757736E+03  0.14910274881E+02  0.14480906183E+03  0.00000000000E+00 0.  1.
<mgrwt>
<rscale>  4 0.28567342E+03</rscale>
<asrwt>0</asrwt>
<pdfrwt beam="1">  1       21 0.30616461E+00 0.28567342E+03</pdfrwt>
<pdfrwt beam="2">  1        4 0.20223913E-01 0.28567342E+03</pdfrwt>
<totfact> 0.27380564E+01</totfact>
</mgrwt>
</event>
<event>
 5    0  0.1014204E+000  0.3429751E+03  0.7546771E-02  0.1065536E+00
          1   -1    0    0  503    0 -0.00000000000E+00  0.00000000000E+00  0.20393372563E+04  0.20393372563E+04  0.00000000000E+00 0. -1.
         21   -1    0    0  501  502  0.00000000000E+00 -0.00000000000E+00 -0.24726246441E+03  0.24726246441E+03  0.00000000000E+00 0.  1.
         25    1    1    2    0    0  0.31167672549E+03  0.68628012278E+02 -0.10444524331E+03  0.35830991353E+03  0.12500000000E+03 0.  0.
         21    1    1    2  503  502 -0.67831154704E+00  0.20466057009E+02  0.57632096335E+02  0.61161900919E+02  0.00000000000E+00 0.  1.
          1    1    1    2  501    0 -0.31099841395E+03 -0.89094069287E+02  0.18388879389E+04  0.18671279063E+04  0.00000000000E+00 0. -1.
<mgrwt>
<rscale>  4 0.34297506E+03</rscale>
<asrwt>0</asrwt>
<pdfrwt beam="1">  1       21 0.38040381E-01 0.34297506E+03</pdfrwt>
<pdfrwt beam="2">  1        1 0.31374418E+00 0.34297506E+03</pdfrwt>
<totfact> 0.22105879E+02</totfact>
</mgrwt>
</event>
<event>
 5    0  0.1014204E+000  0.2688911E+03  0.7546771E-02  0.1101916E+00
         21   -1    0    0  501  502  0.00000000000E+00  0.00000000000E+00  0.16674631271E+03  0.16674631271E+03  0.00000000000E+00 0.  1.
          2   -1    0    0  503    0 -0.00000000000E+00 -0.00000000000E+00 -0.48578106958E+04  0.48578106958E+04  0.00000000000E+00 0. -1.
         25    1    1    2    0    0 -0.18497415122E+03  0.14861459924E+03  0.50465602527E+02  0.27289835611E+03  0.12500000000E+03 0.  0.
         21    1    1    2  503  502 -0.19105203252E+02  0.27985319400E+02 -0.29366756150E+03  0.29561600696E+03  0.00000000000E+00 0.  1.
          2    1    1    2  501    0  0.20407935447E+03 -0.17659991864E+03 -0.44478624242E+04  0.44560426455E+04  0.00000000000E+00 0. -1.
<mgrwt>
<rscale>  4 0.26889108E+03</rscale>
<asrwt>0</asrwt>
<pdfrwt beam="1">  1       21 0.25653277E-01 0.26889108E+03</pdfrwt>
<pdfrwt beam="2">  1        2 0.74735554E+00 0.26889108E+03</pdfrwt>
<totfact> 0.13244492E+01</totfact>
</mgrwt>
</event>
<event>
 5    0  0.1014204E+000  0.3436323E+03  0.7546771E-02  0.1065259E+00
          2   -1    0    0  503    0 -0.00000000000E+00  0.00000000000E+00  0.14224716756E+04  0.14224716756E+04  0.00000000000E+00 0. -1.
         21   -1    0    0  501  502  0.00000000000E+00 -0.00000000000E+00 -0.67836125929E+03  0.67836125929E+03  0.00000000000E+00 0. -1.
         25    1    1    2    0    0 -0.31027288250E+03  0.79254762304E+02 -0.60912777963E+03  0.69943708142E+03  0.12500000000E+03 0.  0.
         21    1    1    2  503  502 -0.25472147883E+01 -0.24518383898E+02  0.30784461733E+03  0.30882996595E+03  0.00000000000E+00 0. -1.
          2    1    1    2  501    0  0.31282009728E+03 -0.54736378407E+02  0.10453935786E+04  0.10925658876E+04  0.00000000000E+00 0. -1.
<mgrwt>
<rscale>  4 0.34363226E+03</rscale>
<asrwt>0</asrwt>
<pdfrwt beam="1">  1       21 0.10436327E+00 0.34363226E+03</pdfrwt>
<pdfrwt beam="2">  1        2 0.21884180E+00 0.34363226E+03</pdfrwt>
<totfact> 0.12908267E+02</totfact>
</mgrwt>
</event>
<event>
 5    0  0.1014204E+000  0.2418798E+03  0.7546771E-02  0.1118547E+00
         21   -1    0    0  503  502  0.00000000000E+00  0.00000000000E+00  0.24782409883E+03  0.24782409883E+03  0.00000000000E+00 0.  1.
         -1   -1    0    0    0  501 -0.00000000000E+00 -0.00000000000E+00 -0.91685164930E+03  0.91685164930E+03  0.00000000000E+00 0.  1.
         25    1    1    2    0    0 -0.11500845342E+03  0.17240030934E+03  0.16405126422E+03  0.29238096434E+03  0.12500000000E+03 0.  0.
         21    1    1    2  503  501  0.36421595173E+02  0.21334730888E+02 -0.76627688412E+02  0.87484318414E+02  0.00000000000E+00 0. -1.
         -1    1    1    2    0  502  0.78586858245E+02 -0.19373504023E+03 -0.75645112628E+03  0.78481046537E+03  0.00000000000E+00 0.  1.
<mgrwt>
<rscale>  4 0.24187979E+03</rscale>
<asrwt>0</asrwt>
<pdfrwt beam="1">  1       21 0.38126784E-01 0.24187979E+03</pdfrwt>
<pdfrwt beam="2">  1       -1 0.14105410E+00 0.24187979E+03</pdfrwt>
<totfact> 0.27126207E+02</totfact>
</mgrwt>
</event>
<event>
 5    0  0.1014204E+000  0.3516052E+03  0.7546771E-02  0.1061958E+00
         21   -1    0    0  503  502  0.00000000000E+00  0.00000000000E+00  0.24419158508E+04  0.24419158508E+04  0.00000000000E+00 0.  1.
         -4   -1    0    0    0  501 -0.00000000000E+00 -0.00000000000E+00 -0.71358543817E+02  0.71358543817E+02  0.00000000000E+00 0.  1.
         25    1    1    2    0    0  0.68537361193E+02 -0.32829969581E+03  0.12410529981E+04  0.12916329216E+04  0.12500000000E+03 0.  0.
         21    1    1    2  503  501  0.20578166688E+02  0.17736043214E+02 -0.15942266904E+02  0.31498953112E+02  0.00000000000E+00 0.  1.
         -4    1    1    2    0  502 -0.89115527881E+02  0.31056365260E+03  0.11454465758E+04  0.11901425199E+04  0.00000000000E+00 0.  1.
<mgrwt>
<rscale>  4 0.35160518E+03</rscale>
<asrwt>0</asrwt>
<pdfrwt beam="1">  1       21 0.37567930E+00 0.35160518E+03</pdfrwt>
<pdfrwt beam="2">  1       -4 0.10978239E-01 0.35160518E+03</pdfrwt>
<totfact> 0.29776820E+01</totfact>
</mgrwt>
</event>
<event>
 5    0  0.1014204E+000  0.2743654E+03  0.7546771E-02  0.1098807E+00
         21   -1    0    0  501  502  0.00000000000E+00  0.00000000000E+00  0.34521027519E+03  0.34521027519E+03  0.00000000000E+00 0. -1.
          1   -1    0    0  503    0 -0.00000000000E+00 -0.00000000000E+00 -0.25814336843E+03  0.25814336843E+03  0.00000000000E+00 0. -1.
         25    1    1    2    0    0 -0.25777246050E+01 -0.24475059001E+03  0.16354841824E+03  0.31981648032E+03  0.12500000000E+03 0.  0.
         21    1    1    2  503  502 -0.20524048817E+02  0.20446290967E+01 -0.28300357683E+02  0.35018956766E+02  0.00000000000E+00 0.  1.
          1    1    1    2  501    0  0.23101773422E+02  0.24270596091E+03 -0.48181153802E+02  0.24851820653E+03  0.00000000000E+00 0. -1.
<mgrwt>
<rscale>  4 0.27436536E+03</rscale>
<asrwt>0</asrwt>
<pdfrwt beam="1">  1       21 0.53109273E-01 0.27436536E+03</pdfrwt>
<pdfrwt beam="2">  1        1 0.39714364E-01 0.27436536E+03</pdfrwt>
<totfact> 0.37916011E+03</totfact>
</mgrwt>
</event>
<event>
 5    0  0.1014204E+000  0.2439844E+03  0.7546771E-02  0.1117167E+00
         21   -1    0    0  501  502  0.00000000000E+00  0.00000000000E+00  0.13627773528E+03  0.13627773528E+03  0.00000000000E+00 0. -1.
          2   -1    0    0  503    0 -0.00000000000E+00 -0.00000000000E+00 -0.19741235471E+04  0.19741235471E+04  0.00000000000E+00 0. -1.
         25    1    1    2    0    0  0.18310491485E+03 -0.99726734273E+02  0.92621442269E+01  0.24327683549E+03  0.12500000000E+03 0.  0.
         21    1    1    2  503  502  0.26832484951E+02  0.14693187451E+02 -0.81598097664E+02  0.87144257117E+02  0.00000000000E+00 0.  1.
          2    1    1    2  501    0 -0.20993739980E+03  0.85033546821E+02 -0.17655098584E+04  0.17799801898E+04  0.00000000000E+00 0. -1.
<mgrwt>
<rscale>  4 0.24398438E+03</rscale>
<asrwt>0</asrwt>
<pdfrwt beam="1">  1       21 0.20965806E-01 0.24398438E+03</pdfrwt>
<pdfrwt beam="2">  1        2 0.30371131E+00 0.24398438E+03</pdfrwt>
<totfact> 0.20409663E+03</totfact>
</mgrwt>
</event>
<event>
 5    0  0.1014204E+000  0.3008314E+03  0.7546771E-02  0.1084826E+00
          1   -1    0    0  503    0 -0.00000000000E+00  0.00000000000E+00  0.13007042541E+04  0.13007042541E+04  0.00000000000E+00 0.  1.
         21   -1    0    0  501  502  0.00000000000E+00 -0.00000000000E+00 -0.64865188466E+03  0.64865188466E+03  0.00000000000E+00 0. -1.
         25    1    1    2    0    0  0.18264659317E+03  0.20110461423E+03 -0.57730672219E+03  0.65016220695E+03  0.12500000000E+03 0.  0.
         21    1    1    2  503  502  0.15675666013E+02  0.70781914468E+02  0.12291176236E+03  0.14269935966E+03  0.00000000000E+00 0. -1.
          1    1    1    2  501    0 -0.19832225918E+03 -0.27188652870E+03  0.11064473293E+04  0.11564945722E+04  0.00000000000E+00 0.  1.
<mgrwt>
<rscale>  4 0.30083141E+03</rscale>
<asrwt>0</asrwt>
<pdfrwt beam="1">  1       21 0.99792598E-01 0.30083141E+03</pdfrwt>
<pdfrwt beam="2">  1        1 0.20010835E+00 0.30083141E+03</pdfrwt>
<totfact> 0.83965263E+01</totfact>
</mgrwt>
</event>
<event>
 5    0  0.1014204E+000  0.4368767E+03  0.7546771E-02  0.1031709E+00
         21   -1    0    0  503  502  0.00000000000E+00  0.00000000000E+00  0.36988189030E+03  0.36988189030E+03  0.00000000000E+00 0. -1.
         -2   -1    0    0    0  501 -0.00000000000E+00 -0.00000000000E+00 -0.71557998690E+03  0.71557998690E+03  0.00000000000E+00 0.  1.
         25    1    1    2    0    0  0.22567063120E+03 -0.36895358840E+03  0.51586703520E+02  0.45314475850E+03  0.12500000000E+03 0.  0.
         21    1    1    2  503  501 -0.71931820778E+02  0.32874756915E+01 -0.14589148087E+03  0.16269394127E+03  0.00000000000E+00 0.  1.
         -2    1    1    2    0  502 -0.15373881042E+03  0.36566611271E+03 -0.25139331924E+03  0.46962317742E+03  0.00000000000E+00 0.  1.
<mgrwt>
<rscale>  4 0.43687675E+03</rscale>
<asrwt>0</asrwt>
<pdfrwt beam="1">  1       21 0.56904906E-01 0.43687675E+03</pdfrwt>
<pdfrwt beam="2">  1       -2 0.11008923E+00 0.43687675E+03</pdfrwt>
<totfact> 0.14968850E+02</totfact>
</mgrwt>
</event>
<event>
 5    0  0.1014204E+000  0.3269797E+03  0.7546771E-02  0.1072481E+00
         21   -1    0    0  501  502  0.00000000000E+00  0.00000000000E+00  0.12661429641E+03  0.12661429641E+03  0.00000000000E+00 0.  1.
          1   -1    0    0  503    0 -0.00000000000E+00 -0.00000000000E+00 -0.18906910179E+04  0.18906910179E+04  0.00000000000E+00 0.  1.
         25    1    1    2    0    0 -0.27557630715E+03  0.12870164416E+03 -0.13643517008E+03  0.35601400240E+03  0.12500000000E+03 0.  0.
         21    1    1    2  503  502  0.26382913430E+02  0.21325019343E+02 -0.85986439696E+02  0.92436369372E+02  0.00000000000E+00 0. -1.
          1    1    1    2  501    0  0.24919339372E+03 -0.15002666351E+03 -0.15416551117E+04  0.15688549425E+04  0.00000000000E+00 0.  1.
<mgrwt>
<rscale>  4 0.32697968E+03</rscale>
<asrwt>0</asrwt>
<pdfrwt beam="1">  1       21 0.19479123E-01 0.32697968E+03</pdfrwt>
<pdfrwt beam="2">  1        1 0.29087553E+00 0.32697968E+03</pdfrwt>
<totfact> 0.10299874E+03</totfact>
</mgrwt>
</event>
<event>
 5    0  0.1014204E+000  0.3270667E+03  0.7546771E-02  0.1072442E+00
          1   -1    0    0  503    0 -0.00000000000E+00  0.00000000000E+00  0.53601317623E+03  0.53601317623E+03  0.00000000000E+00 0.  1.
         21   -1    0    0  501  502  0.00000000000E+00 -0.00000000000E+00 -0.24066696743E+03  0.24066696743E+03  0.00000000000E+00 0.  1.
         25    1    1    2    0    0 -0.92680561920E+01 -0.29598052491E+03  0.95668566332E+01  0.32156942134E+03  0.12500000000E+03 0.  0.
         21    1    1    2  503  502  0.33778455166E+02 -0.18622399499E+02  0.33982496225E+02  0.51406107090E+02  0.00000000000E+00 0. -1.
          1    1    1    2  501    0 -0.24510398974E+02  0.31460292441E+03  0.25179685594E+03  0.40370461524E+03  0.00000000000E+00 0.  1.
<mgrwt>
<rscale>  4 0.32706668E+03</rscale>
<asrwt>0</asrwt>
<pdfrwt beam="1">  1       21 0.37025687E-01 0.32706668E+03</pdfrwt>
<pdfrwt beam="2">  1        1 0.82463565E-01 0.32706668E+03</pdfrwt>
<totfact> 0.30736772E+03</totfact>
</mgrwt>
</event>
<event>
 5    0  0.1014204E+000  0.6076412E+03  0.7546771E-02  0.9889679E-01
         21   -1    0    0  503  502  0.00000000000E+00  0.00000000000E+00  0.85736678122E+03  0.85736678122E+03  0.00000000000E+00 0.  1.
         -4   -1    0    0    0  501 -0.00000000000E+00 -0.00000000000E+00 -0.12874005084E+04  0.12874005084E+04  0.00000000000E+00 0. -1.
         25    1    1    2    0    0  0.13007782161E+03  0.57173711111E+03  0.60003419996E+03  0.84821554161E+03  0.12500000000E+03 0.  0.
         21    1    1    2  503  501 -0.57456628590E+02  0.79758001306E+02 -0.29842184958E+03  0.31419453090E+03  0.00000000000E+00 0.  1.
         -4    1    1    2    0  502 -0.72621193024E+02 -0.65149511242E+03 -0.73164607751E+03  0.98235721707E+03  0.00000000000E+00 0. -1.
<mgrwt>
<rscale>  4 0.60764122E+03</rscale>
<asrwt>0</asrwt>
<pdfrwt beam="1">  1       21 0.13190258E+00 0.60764122E+03</pdfrwt>
<pdfrwt beam="2">  1       -4 0.19806162E+00 0.60764122E+03</pdfrwt>
<totfact> 0.21885291E+00</totfact>
</mgrwt>
</event>
<event>
 5    0  0.1014204E+000  0.2457239E+03  0.7546771E-02  0.1116037E+00
         -3   -1    0    0    0  501 -0.00000000000E+00  0.00000000000E+00  0.37166425725E+03  0.37166425725E+03  0.00000000000E+00 0. -1.
         21   -1    0    0  503  502  0.00000000000E+00 -0.00000000000E+00 -0.44689068601E+03  0.44689068601E+03  0.00000000000E+00 0. -1.
         25    1    1    2    0    0 -0.16125553216E+03  0.13827555011E+03 -0.37148528841E+03  0.44581363137E+03  0.12500000000E+03 0.  0.
         21    1    1    2  503  501  0.18229042400E+02  0.90974608100E+01  0.34077296815E+02  0.39702946216E+02  0.00000000000E+00 0. -1.
         -3    1    1    2    0  502  0.14302648976E+03 -0.14737301092E+03  0.26218156284E+03  0.33303836568E+03  0.00000000000E+00 0. -1.
<mgrwt>
<rscale>  4 0.24572390E+03</rscale>
<asrwt>0</asrwt>
<pdfrwt beam="1">  1       21 0.68752413E-01 0.24572390E+03</pdfrwt>
<pdfrwt beam="2">  1       -3 0.57179116E-01 0.24572390E+03</pdfrwt>
<totfact> 0.28564723E+02</totfact>
</mgrwt>
</event>
