<event>
 5    0  0.1856407E+000  0.2605132E+03  0.7546771E-02  0.1106835E+00
         21   -1    0    0  502  501  0.00000000000E+00  0.00000000000E+00  0.89837588338E+02  0.89837588338E+02  0.00000000000E+00 0. -1.
         21   -1    0    0  503  502 -0.00000000000E+00 -0.00000000000E+00 -0.92918983144E+03  0.92918983144E+03  0.00000000000E+00 0. -1.
         25    1    1    2    0    0  0.12995733936E+03 -0.18802449881E+03 -0.70351758132E+03  0.75020271222E+03  0.12500000000E+03 0.  0.
         21    1    1    2  503  504 -0.10636147456E+02  0.42409811037E+02 -0.25827618923E+02  0.50781744792E+02  0.00000000000E+00 0. -1.
         21    1    1    2  504  501 -0.11932119190E+03  0.14561468777E+03 -0.11000704286E+03  0.21804296276E+03  0.00000000000E+00 0. -1.
<mgrwt>
<rscale>  4 0.26051319E+03</rscale>
<asrwt>0</asrwt>
<pdfrwt beam="1">  1       21 0.13821168E-01 0.26051319E+03</pdfrwt>
<pdfrwt beam="2">  1       21 0.14295227E+00 0.26051319E+03</pdfrwt>
<totfact> 0.14792211E+04</totfact>
</mgrwt>
</event>
<event>
 5    0  0.1856407E+000  0.2618980E+03  0.7546771E-02  0.1106008E+00
         21   -1    0    0  502  501  0.00000000000E+00  0.00000000000E+00  0.24140599565E+04  0.24140599565E+04  0.00000000000E+00 0. -1.
         21   -1    0    0  503  502 -0.00000000000E+00 -0.00000000000E+00 -0.30504039041E+02  0.30504039041E+02  0.00000000000E+00 0. -1.
         25    1    1    2    0    0  0.27665453405E+02 -0.22847356334E+03  0.17005862640E+04  0.17206348211E+04  0.12500000000E+03 0.  0.
         21    1    1    2  503  504 -0.87560298293E+01  0.18638943783E+03  0.46325262112E+03  0.49942034556E+03  0.00000000000E+00 0. -1.
         21    1    1    2  504  501 -0.18909423575E+02  0.42084125508E+02  0.21971703240E+03  0.22450882888E+03  0.00000000000E+00 0. -1.
<mgrwt>
<rscale>  4 0.26189797E+03</rscale>
<asrwt>0</asrwt>
<pdfrwt beam="1">  1       21 0.37139369E+00 0.26189797E+03</pdfrwt>
<pdfrwt beam="2">  1       21 0.46929310E-02 0.26189797E+03</pdfrwt>
<totfact> 0.36046858E+03</totfact>
</mgrwt>
</event>
<event>
 5    0  0.1856407E+000  0.2496901E+03  0.7546771E-02  0.1113501E+00
         21   -1    0    0  502  501  0.00000000000E+00  0.00000000000E+00  0.47867071393E+03  0.47867071393E+03  0.00000000000E+00 0.  1.
         21   -1    0    0  503  502 -0.00000000000E+00 -0.00000000000E+00 -0.16244161350E+03  0.16244161350E+03  0.00000000000E+00 0.  1.
         25    1    1    2    0    0  0.21400614380E+03 -0.30356863291E+02  0.33422706444E+03  0.41719647570E+03  0.12500000000E+03 0.  0.
         21    1    1    2  503  504 -0.86349563791E+02  0.18216629275E+02  0.19367251599E+02  0.90350335824E+02  0.00000000000E+00 0.  1.
         21    1    1    2  504  501 -0.12765658001E+03  0.12140234016E+02 -0.37365215604E+02  0.13356551590E+03  0.00000000000E+00 0.  1.
<mgrwt>
<rscale>  4 0.24969015E+03</rscale>
<asrwt>0</asrwt>
<pdfrwt beam="1">  1       21 0.73641648E-01 0.24969015E+03</pdfrwt>
<pdfrwt beam="2">  1       21 0.24991018E-01 0.24969015E+03</pdfrwt>
<totfact> 0.24354329E+04</totfact>
</mgrwt>
</event>
<event>
 5    0  0.1856407E+000  0.3432468E+03  0.7546771E-02  0.1065421E+00
         21   -1    0    0  502  501  0.00000000000E+00  0.00000000000E+00  0.27826578251E+03  0.27826578251E+03  0.00000000000E+00 0.  1.
         21   -1    0    0  503  502 -0.00000000000E+00 -0.00000000000E+00 -0.12488916304E+04  0.12488916304E+04  0.00000000000E+00 0.  1.
         25    1    1    2    0    0 -0.21071719788E+03  0.24858297932E+03  0.12517669180E+03  0.37079568398E+03  0.12500000000E+03 0.  0.
         21    1    1    2  503  504  0.21976187663E+02  0.88008728932E+01 -0.12001727713E+02  0.26541470494E+02  0.00000000000E+00 0. -1.
         21    1    1    2  504  501  0.18874101022E+03 -0.25738385221E+03 -0.10838008120E+04  0.11298202584E+04  0.00000000000E+00 0.  1.
<mgrwt>
<rscale>  4 0.34324678E+03</rscale>
<asrwt>0</asrwt>
<pdfrwt beam="1">  1       21 0.42810122E-01 0.34324678E+03</pdfrwt>
<pdfrwt beam="2">  1       21 0.19213717E+00 0.34324678E+03</pdfrwt>
<totfact> 0.69685944E+02</totfact>
</mgrwt>
</event>
<event>
 5    0  0.1856407E+000  0.2523471E+03  0.7546771E-02  0.1111830E+00
         21   -1    0    0  502  501  0.00000000000E+00  0.00000000000E+00  0.10555448319E+03  0.10555448319E+03  0.00000000000E+00 0.  1.
         21   -1    0    0  503  502 -0.00000000000E+00 -0.00000000000E+00 -0.18941265488E+04  0.18941265488E+04  0.00000000000E+00 0. -1.
         25    1    1    2    0    0 -0.70471314000E+02 -0.20917033982E+03 -0.74204121544E+02  0.26429091701E+03  0.12500000000E+03 0.  0.
         21    1    1    2  503  504  0.89575196157E+02  0.19074137184E+03 -0.10743185808E+04  0.10947905735E+04  0.00000000000E+00 0. -1.
         21    1    1    2  504  501 -0.19103882157E+02  0.18428967980E+02 -0.64004936329E+03  0.64059954154E+03  0.00000000000E+00 0.  1.
<mgrwt>
<rscale>  4 0.25234706E+03</rscale>
<asrwt>0</asrwt>
<pdfrwt beam="1">  1       21 0.16239152E-01 0.25234706E+03</pdfrwt>
<pdfrwt beam="2">  1       21 0.29140408E+00 0.25234706E+03</pdfrwt>
<totfact> 0.12123514E+03</totfact>
</mgrwt>
</event>
<event>
 5    0  0.1856407E+000  0.3152559E+03  0.7546771E-02  0.1077854E+00
         21   -1    0    0  502  501  0.00000000000E+00  0.00000000000E+00  0.14136920048E+03  0.14136920048E+03  0.00000000000E+00 0.  1.
         21   -1    0    0  503  502 -0.00000000000E+00 -0.00000000000E+00 -0.11574062110E+04  0.11574062110E+04  0.00000000000E+00 0.  1.
         25    1    1    2    0    0 -0.11513805882E+03 -0.26552688425E+03 -0.93385446745E+02  0.32879650319E+03  0.12500000000E+03 0.  0.
         21    1    1    2  503  504  0.13812358006E+02  0.82938415782E+02 -0.18255810652E+03  0.20099010996E+03  0.00000000000E+00 0.  1.
         21    1    1    2  504  501  0.10132570081E+03  0.18258846847E+03 -0.74009345722E+03  0.76898879828E+03  0.00000000000E+00 0.  1.
<mgrwt>
<rscale>  4 0.31525593E+03</rscale>
<asrwt>0</asrwt>
<pdfrwt beam="1">  1       21 0.21749106E-01 0.31525593E+03</pdfrwt>
<pdfrwt beam="2">  1       21 0.17806250E+00 0.31525593E+03</pdfrwt>
<totfact> 0.33827032E+03</totfact>
</mgrwt>
</event>
<event>
 5    0  0.1856407E+000  0.2274340E+03  0.7546771E-02  0.1128459E+00
         21   -1    0    0  502  501  0.00000000000E+00  0.00000000000E+00  0.15075626431E+03  0.15075626431E+03  0.00000000000E+00 0. -1.
         21   -1    0    0  503  502 -0.00000000000E+00 -0.00000000000E+00 -0.85811511577E+03  0.85811511577E+03  0.00000000000E+00 0.  1.
         25    1    1    2    0    0  0.17200277791E+03  0.10382851324E+03  0.17437242584E+02  0.23726435299E+03  0.12500000000E+03 0.  0.
         21    1    1    2  503  504 -0.13660474018E+03 -0.20575758354E+02 -0.61000910910E+03  0.62545609762E+03  0.00000000000E+00 0.  1.
         21    1    1    2  504  501 -0.35398037731E+02 -0.83252754890E+02 -0.11478698494E+03  0.14615092947E+03  0.00000000000E+00 0.  1.
<mgrwt>
<rscale>  4 0.22743403E+03</rscale>
<asrwt>0</asrwt>
<pdfrwt beam="1">  1       21 0.23193271E-01 0.22743403E+03</pdfrwt>
<pdfrwt beam="2">  1       21 0.13201771E+00 0.22743403E+03</pdfrwt>
<totfact> 0.70788122E+03</totfact>
</mgrwt>
</event>
<event>
 5    0  0.1856407E+000  0.2355482E+03  0.7546771E-02  0.1122794E+00
         21   -1    0    0  502  501  0.00000000000E+00  0.00000000000E+00  0.41254340660E+03  0.41254340660E+03  0.00000000000E+00 0. -1.
         21   -1    0    0  503  502 -0.00000000000E+00 -0.00000000000E+00 -0.73056776424E+03  0.73056776424E+03  0.00000000000E+00 0. -1.
         25    1    1    2    0    0 -0.13756940181E+03 -0.16651241563E+03  0.32838006684E+03  0.41244416976E+03  0.12500000000E+03 0.  0.
         21    1    1    2  503  504  0.79292752210E+02  0.29220285482E+02 -0.54214339182E+03  0.54868991510E+03  0.00000000000E+00 0. -1.
         21    1    1    2  504  501  0.58276649599E+02  0.13729213015E+03 -0.10426103266E+03  0.18197708598E+03  0.00000000000E+00 0. -1.
<mgrwt>
<rscale>  4 0.23554825E+03</rscale>
<asrwt>0</asrwt>
<pdfrwt beam="1">  1       21 0.63468216E-01 0.23554825E+03</pdfrwt>
<pdfrwt beam="2">  1       21 0.11239504E+00 0.23554825E+03</pdfrwt>
<totfact> 0.13690873E+03</totfact>
</mgrwt>
</event>
<event>
 5    0  0.1856407E+000  0.6363974E+03  0.7546771E-02  0.9835107E-01
         21   -1    0    0  502  501  0.00000000000E+00  0.00000000000E+00  0.12045717658E+04  0.12045717658E+04  0.00000000000E+00 0. -1.
         21   -1    0    0  503  502 -0.00000000000E+00 -0.00000000000E+00 -0.50373427695E+03  0.50373427695E+03  0.00000000000E+00 0. -1.
         25    1    1    2    0    0 -0.27298137235E+03  0.55534058241E+03  0.84597673137E+03  0.10555679145E+04  0.12500000000E+03 0.  0.
         21    1    1    2  503  504  0.20562058429E+03 -0.34349512390E+03 -0.15724878018E+03  0.43011150147E+03  0.00000000000E+00 0. -1.
         21    1    1    2  504  501  0.67360788059E+02 -0.21184545851E+03  0.12109537701E+02  0.22262662680E+03  0.00000000000E+00 0. -1.
<mgrwt>
<rscale>  4 0.63512067E+03</rscale>
<asrwt>0</asrwt>
<pdfrwt beam="1">  1       21 0.18531873E+00 0.63639741E+03</pdfrwt>
<pdfrwt beam="2">  1       21 0.77497581E-01 0.63639741E+03</pdfrwt>
<totfact> 0.18510034E+02</totfact>
</mgrwt>
</event>
<event>
 5    0  0.1856407E+000  0.2466474E+03  0.7546771E-02  0.1115442E+00
         21   -1    0    0  502  501  0.00000000000E+00  0.00000000000E+00  0.12894973361E+04  0.12894973361E+04  0.00000000000E+00 0.  1.
         21   -1    0    0  503  502 -0.00000000000E+00 -0.00000000000E+00 -0.47533393891E+02  0.47533393891E+02  0.00000000000E+00 0.  1.
         25    1    1    2    0    0 -0.88534771094E+02  0.19331713184E+03  0.88748435152E+03  0.92112072680E+03  0.12500000000E+03 0.  0.
         21    1    1    2  503  504  0.21597503429E+02 -0.76649650609E+02  0.16868967655E+03  0.18654175958E+03  0.00000000000E+00 0. -1.
         21    1    1    2  504  501  0.66937267666E+02 -0.11666748123E+03  0.18578991413E+03  0.22936824360E+03  0.00000000000E+00 0.  1.
<mgrwt>
<rscale>  4 0.24664736E+03</rscale>
<asrwt>0</asrwt>
<pdfrwt beam="1">  1       21 0.19838418E+00 0.24664736E+03</pdfrwt>
<pdfrwt beam="2">  1       21 0.73128308E-02 0.24664736E+03</pdfrwt>
<totfact> 0.18576114E+04</totfact>
</mgrwt>
</event>
