<event>
 5    0  0.1856407E+000  0.2560163E+03  0.7546771E-02  0.1109561E+00
         21   -1    0    0  502  501  0.00000000000E+00  0.00000000000E+00  0.45493952146E+03  0.45493952146E+03  0.00000000000E+00 0.  1.
         21   -1    0    0  503  502 -0.00000000000E+00 -0.00000000000E+00 -0.18929989152E+03  0.18929989152E+03  0.00000000000E+00 0.  1.
         25    1    1    2    0    0 -0.99506053074E+02 -0.20004477642E+03  0.30994649272E+03  0.40200894955E+03  0.12500000000E+03 0.  0.
         21    1    1    2  503  504  0.54291408271E+02  0.14862847141E+03 -0.64455987266E+02  0.17085828578E+03  0.00000000000E+00 0.  1.
         21    1    1    2  504  501  0.45214644803E+02  0.51416305013E+02  0.20149124485E+02  0.71372177656E+02  0.00000000000E+00 0.  1.
<mgrwt>
<rscale>  4 0.25601634E+03</rscale>
<asrwt>0</asrwt>
<pdfrwt beam="1">  1       21 0.69990695E-01 0.25601634E+03</pdfrwt>
<pdfrwt beam="2">  1       21 0.29123061E-01 0.25601634E+03</pdfrwt>
<totfact> 0.20219714E+04</totfact>
</mgrwt>
</event>
<event>
 5    0  0.1856407E+000  0.3748050E+03  0.7546771E-02  0.1052871E+00
         21   -1    0    0  502  501  0.00000000000E+00  0.00000000000E+00  0.15001728869E+04  0.15001728869E+04  0.00000000000E+00 0.  1.
         21   -1    0    0  503  502 -0.00000000000E+00 -0.00000000000E+00 -0.19045396200E+03  0.19045396200E+03  0.00000000000E+00 0. -1.
         25    1    1    2    0    0 -0.35114934054E+03 -0.39343909629E+02  0.12646639895E+04  0.13190351811E+04  0.12500000000E+03 0.  0.
         21    1    1    2  503  504  0.27316194014E+03  0.71910099860E+02  0.50312784173E+02  0.28691441974E+03  0.00000000000E+00 0. -1.
         21    1    1    2  504  501  0.77987400400E+02 -0.32566190231E+02 -0.52578487772E+01  0.84677248072E+02  0.00000000000E+00 0.  1.
<mgrwt>
<rscale>  4 0.37480502E+03</rscale>
<asrwt>0</asrwt>
<pdfrwt beam="1">  1       21 0.23079582E+00 0.37480502E+03</pdfrwt>
<pdfrwt beam="2">  1       21 0.29300610E-01 0.37480502E+03</pdfrwt>
<totfact> 0.82739150E+02</totfact>
</mgrwt>
</event>
<event>
 5    0  0.2096680E+000  0.2606969E+03  0.7546771E-02  0.1106725E+00
         21   -1    0    0  502  501  0.00000000000E+00  0.00000000000E+00  0.10406705165E+03  0.10406705165E+03  0.00000000000E+00 0.  1.
         21   -1    0    0  503  502 -0.00000000000E+00 -0.00000000000E+00 -0.63016278058E+03  0.63016278058E+03  0.00000000000E+00 0.  1.
         25    1    1    2    0    0 -0.50617372842E+01  0.22871868579E+03 -0.19481313604E+03  0.32544587320E+03  0.12500000000E+03 0.  0.
         21    1    1    2  503  504  0.32894743695E+02 -0.17848659005E+03 -0.26331294673E+03  0.31980186820E+03  0.00000000000E+00 0.  1.
         21    1    1    2  504  501 -0.27833006411E+02 -0.50232095736E+02 -0.67969646167E+02  0.88982090827E+02  0.00000000000E+00 0.  1.
<mgrwt>
<rscale>  4 0.26069687E+03</rscale>
<asrwt>0</asrwt>
<pdfrwt beam="1">  1       21 0.16010316E-01 0.26069687E+03</pdfrwt>
<pdfrwt beam="2">  1       21 0.96948119E-01 0.26069687E+03</pdfrwt>
<totfact> 0.29715352E+04</totfact>
</mgrwt>
</event>
<event>
 5    0  0.1856407E+000  0.5501680E+03  0.7546771E-02  0.1001455E+00
         21   -1    0    0  502  501  0.00000000000E+00  0.00000000000E+00  0.29557080578E+03  0.29557080578E+03  0.00000000000E+00 0.  1.
         21   -1    0    0  503  502 -0.00000000000E+00 -0.00000000000E+00 -0.17133210473E+04  0.17133210473E+04  0.00000000000E+00 0.  1.
         25    1    1    2    0    0 -0.37721762853E+03 -0.37089778765E+03 -0.10624753989E+03  0.55386988353E+03  0.12500000000E+03 0.  0.
         21    1    1    2  503  504  0.36562188334E+03  0.42958948892E+03 -0.12363376783E+04  0.13589545045E+04  0.00000000000E+00 0.  1.
         21    1    1    2  504  501  0.11595745184E+02 -0.58691701269E+02 -0.75165023305E+02  0.96067465006E+02  0.00000000000E+00 0. -1.
<mgrwt>
<rscale>  4 0.55016801E+03</rscale>
<asrwt>0</asrwt>
<pdfrwt beam="1">  1       21 0.45472430E-01 0.55016801E+03</pdfrwt>
<pdfrwt beam="2">  1       21 0.26358786E+00 0.55016801E+03</pdfrwt>
<totfact> 0.19333630E+02</totfact>
</mgrwt>
</event>
<event>
 5    0  0.2013204E+000  0.2422010E+03  0.7546771E-02  0.1118335E+00
         21   -1    0    0  502  501  0.00000000000E+00  0.00000000000E+00  0.29615130270E+03  0.29615130270E+03  0.00000000000E+00 0.  1.
         21   -1    0    0  503  502 -0.00000000000E+00 -0.00000000000E+00 -0.19977346668E+03  0.19977346668E+03  0.00000000000E+00 0.  1.
         25    1    1    2    0    0 -0.82072513083E+02 -0.19052665055E+03  0.13532263248E+03  0.27744101506E+03  0.12500000000E+03 0.  0.
         21    1    1    2  503  504  0.80281745272E+02  0.14007055530E+03 -0.45086453395E+02  0.16762370765E+03  0.00000000000E+00 0.  1.
         21    1    1    2  504  501  0.17907678113E+01  0.50456095254E+02  0.61416569375E+01  0.50860046673E+02  0.00000000000E+00 0.  1.
<mgrwt>
<rscale>  4 0.24220095E+03</rscale>
<asrwt>0</asrwt>
<pdfrwt beam="1">  1       21 0.45561739E-01 0.24220095E+03</pdfrwt>
<pdfrwt beam="2">  1       21 0.30734379E-01 0.24220095E+03</pdfrwt>
<totfact> 0.45894438E+04</totfact>
</mgrwt>
</event>
<event>
 5    0  0.1856407E+000  0.2393279E+03  0.7546771E-02  0.1120241E+00
         21   -1    0    0  502  501  0.00000000000E+00  0.00000000000E+00  0.23959670633E+03  0.23959670633E+03  0.00000000000E+00 0.  1.
         21   -1    0    0  503  502 -0.00000000000E+00 -0.00000000000E+00 -0.25916345657E+03  0.25916345657E+03  0.00000000000E+00 0. -1.
         25    1    1    2    0    0 -0.19184660452E+03  0.69625564848E+02  0.99547057230E+02  0.25920543117E+03  0.12500000000E+03 0.  0.
         21    1    1    2  503  504  0.26697185593E+02 -0.38300957014E+01 -0.31167648269E+02  0.41216885499E+02  0.00000000000E+00 0. -1.
         21    1    1    2  504  501  0.16514941892E+03 -0.65795469146E+02 -0.87946159196E+02  0.19833784623E+03  0.00000000000E+00 0. -1.
<mgrwt>
<rscale>  4 0.23932789E+03</rscale>
<asrwt>0</asrwt>
<pdfrwt beam="1">  1       21 0.36861032E-01 0.23932789E+03</pdfrwt>
<pdfrwt beam="2">  1       21 0.39871301E-01 0.23932789E+03</pdfrwt>
<totfact> 0.42094476E+04</totfact>
</mgrwt>
</event>
<event>
 5    0  0.1856407E+000  0.3060912E+03  0.7546771E-02  0.1082235E+00
         21   -1    0    0  502  501  0.00000000000E+00  0.00000000000E+00  0.69990746644E+03  0.69990746644E+03  0.00000000000E+00 0. -1.
         21   -1    0    0  503  502 -0.00000000000E+00 -0.00000000000E+00 -0.34805714213E+03  0.34805714213E+03  0.00000000000E+00 0.  1.
         25    1    1    2    0    0  0.19083557751E+03  0.20407996361E+03  0.59683544576E+03  0.67074913232E+03  0.12500000000E+03 0.  0.
         21    1    1    2  503  504 -0.14745817615E+03 -0.17620697637E+03 -0.22595432806E+03  0.32225482247E+03  0.00000000000E+00 0.  1.
         21    1    1    2  504  501 -0.43377401362E+02 -0.27872987243E+02 -0.19030793398E+02  0.54960653781E+02  0.00000000000E+00 0.  1.
<mgrwt>
<rscale>  4 0.30609124E+03</rscale>
<asrwt>0</asrwt>
<pdfrwt beam="1">  1       21 0.10767807E+00 0.30609124E+03</pdfrwt>
<pdfrwt beam="2">  1       21 0.53547253E-01 0.30609124E+03</pdfrwt>
<totfact> 0.20903298E+03</totfact>
</mgrwt>
</event>
<event>
 5    0  0.1856407E+000  0.2773927E+03  0.7546771E-02  0.1097122E+00
         21   -1    0    0  502  501  0.00000000000E+00  0.00000000000E+00  0.14517809332E+03  0.14517809332E+03  0.00000000000E+00 0. -1.
         21   -1    0    0  503  502 -0.00000000000E+00 -0.00000000000E+00 -0.12659284947E+04  0.12659284947E+04  0.00000000000E+00 0. -1.
         25    1    1    2    0    0  0.20723571402E+02 -0.24778896429E+03 -0.26307486541E+02  0.27954591945E+03  0.12500000000E+03 0.  0.
         21    1    1    2  503  504 -0.59357348806E+02  0.23709076738E+03 -0.87535164907E+03  0.90883212771E+03  0.00000000000E+00 0. -1.
         21    1    1    2  504  501  0.38633777404E+02  0.10698196907E+02 -0.21909126573E+03  0.22272854081E+03  0.00000000000E+00 0.  1.
<mgrwt>
<rscale>  4 0.27739272E+03</rscale>
<asrwt>0</asrwt>
<pdfrwt beam="1">  1       21 0.22335091E-01 0.27739272E+03</pdfrwt>
<pdfrwt beam="2">  1       21 0.19475823E+00 0.27739272E+03</pdfrwt>
<totfact> 0.25358372E+03</totfact>
</mgrwt>
</event>
<event>
 5    0  0.1856407E+000  0.2445477E+03  0.7546771E-02  0.1116800E+00
         21   -1    0    0  502  501  0.00000000000E+00  0.00000000000E+00  0.91043571864E+03  0.91043571864E+03  0.00000000000E+00 0.  1.
         21   -1    0    0  503  502 -0.00000000000E+00 -0.00000000000E+00 -0.86445467028E+02  0.86445467028E+02  0.00000000000E+00 0.  1.
         25    1    1    2    0    0 -0.23316215549E+03 -0.67241187463E+02  0.51904884595E+03  0.58644920712E+03  0.12500000000E+03 0.  0.
         21    1    1    2  503  504  0.75880740406E+02 -0.30005609079E+02  0.50740942678E+02  0.96087806742E+02  0.00000000000E+00 0. -1.
         21    1    1    2  504  501  0.15728141509E+03  0.97246796542E+02  0.25420046298E+03  0.31434417180E+03  0.00000000000E+00 0.  1.
<mgrwt>
<rscale>  4 0.24454773E+03</rscale>
<asrwt>0</asrwt>
<pdfrwt beam="1">  1       21 0.14006703E+00 0.24454773E+03</pdfrwt>
<pdfrwt beam="2">  1       21 0.13299303E-01 0.24454773E+03</pdfrwt>
<totfact> 0.16880126E+04</totfact>
</mgrwt>
</event>
<event>
 5    0  0.1856407E+000  0.2441272E+03  0.7546771E-02  0.1117074E+00
         21   -1    0    0  502  501  0.00000000000E+00  0.00000000000E+00  0.81564386050E+02  0.81564386050E+02  0.00000000000E+00 0. -1.
         21   -1    0    0  503  502 -0.00000000000E+00 -0.00000000000E+00 -0.67572757374E+03  0.67572757374E+03  0.00000000000E+00 0. -1.
         25    1    1    2    0    0 -0.18699368764E+03  0.94902339519E+02 -0.25381063028E+03  0.35216179422E+03  0.12500000000E+03 0.  0.
         21    1    1    2  503  504  0.55415707306E+02 -0.19431473589E+02 -0.15419308883E+03  0.16499694368E+03  0.00000000000E+00 0. -1.
         21    1    1    2  504  501  0.13157798033E+03 -0.75470865930E+02 -0.18615946858E+03  0.24013322189E+03  0.00000000000E+00 0. -1.
<mgrwt>
<rscale>  4 0.24412721E+03</rscale>
<asrwt>0</asrwt>
<pdfrwt beam="1">  1       21 0.12548368E-01 0.24412721E+03</pdfrwt>
<pdfrwt beam="2">  1       21 0.10395808E+00 0.24412721E+03</pdfrwt>
<totfact> 0.39499702E+04</totfact>
</mgrwt>
</event>
