<event>
 5    0  0.1911311E+001  0.2499856E+03  0.7546771E-02  0.1113314E+00
         21   -1    0    0  504  501  0.00000000000E+00  0.00000000000E+00  0.10796669508E+04  0.10796669508E+04  0.00000000000E+00 0.  1.
         21   -1    0    0  503  502 -0.00000000000E+00 -0.00000000000E+00 -0.29581172932E+03  0.29581172932E+03  0.00000000000E+00 0.  1.
         25    1    1    2    0    0  0.19924028040E+03 -0.15758648681E+03  0.88401673236E+03  0.92824607365E+03  0.12500000000E+03 0.  0.
         21    1    1    2  503  501 -0.17522778241E+03  0.12413050653E+03 -0.22783338922E+03  0.31308339404E+03  0.00000000000E+00 0.  1.
         21    1    1    2  504  502 -0.24012497997E+02  0.33455980276E+02  0.12767187837E+03  0.13414921246E+03  0.00000000000E+00 0.  1.
<mgrwt>
<rscale>  4 0.24998563E+03</rscale>
<asrwt>0</asrwt>
<pdfrwt beam="1">  1       21 0.16610261E+00 0.24998563E+03</pdfrwt>
<pdfrwt beam="2">  1       21 0.45509497E-01 0.24998563E+03</pdfrwt>
<totfact> 0.99690038E+02</totfact>
</mgrwt>
</event>
<event>
 5    0  0.1911311E+001  0.1837749E+03  0.7546771E-02  0.1164199E+00
         21   -1    0    0  504  501  0.00000000000E+00  0.00000000000E+00  0.14069099066E+03  0.14069099066E+03  0.00000000000E+00 0.  1.
         21   -1    0    0  503  502 -0.00000000000E+00 -0.00000000000E+00 -0.20256952083E+04  0.20256952083E+04  0.00000000000E+00 0.  1.
         25    1    1    2    0    0 -0.23329959416E+03 -0.72917657460E+02 -0.27971315364E+03  0.39193128699E+03  0.12500000000E+03 0.  0.
         21    1    1    2  503  501  0.12988752595E+03  0.59916556506E+01 -0.16410476821E+04  0.16461908043E+04  0.00000000000E+00 0.  1.
         21    1    1    2  504  502  0.10341206821E+03  0.66926001809E+02  0.35756618103E+02  0.12826410764E+03  0.00000000000E+00 0.  1.
<mgrwt>
<rscale>  4 0.18377489E+03</rscale>
<asrwt>0</asrwt>
<pdfrwt beam="1">  1       21 0.21644769E-01 0.18377489E+03</pdfrwt>
<pdfrwt beam="2">  1       21 0.31164540E+00 0.18377489E+03</pdfrwt>
<totfact> 0.58993003E+02</totfact>
</mgrwt>
</event>
<event>
 5    0  0.1911311E+001  0.6486456E+03  0.7546771E-02  0.9809324E-01
         21   -1    0    0  503  501  0.00000000000E+00  0.00000000000E+00  0.30696224266E+03  0.30696224266E+03  0.00000000000E+00 0.  1.
         21   -1    0    0  504  502 -0.00000000000E+00 -0.00000000000E+00 -0.15037021904E+04  0.15037021904E+04  0.00000000000E+00 0.  1.
         25    1    1    2    0    0  0.35096359694E+03 -0.51424081445E+03 -0.69547836920E+03  0.94177185329E+03  0.12500000000E+03 0.  0.
         21    1    1    2  503  502 -0.34806337524E+03  0.55473582166E+03 -0.50657426196E+03  0.82794772051E+03  0.00000000000E+00 0.  1.
         21    1    1    2  504  501 -0.29002217074E+01 -0.40495007216E+02  0.53126834051E+01  0.40944859266E+02  0.00000000000E+00 0. -1.
<mgrwt>
<rscale>  4 0.64864555E+03</rscale>
<asrwt>0</asrwt>
<pdfrwt beam="1">  1       21 0.47224960E-01 0.64864555E+03</pdfrwt>
<pdfrwt beam="2">  1       21 0.23133880E+00 0.64864555E+03</pdfrwt>
<totfact> 0.27242537E+02</totfact>
</mgrwt>
</event>
<event>
 5    0  0.2006438E+001  0.2279078E+03  0.7546771E-02  0.1128121E+00
         21   -1    0    0  503  501  0.00000000000E+00  0.00000000000E+00  0.17306694128E+04  0.17306694128E+04  0.00000000000E+00 0. -1.
         21   -1    0    0  504  502 -0.00000000000E+00 -0.00000000000E+00 -0.51434999884E+02  0.51434999884E+02  0.00000000000E+00 0. -1.
         25    1    1    2    0    0  0.15367126275E+03  0.16052098956E+03  0.13369150698E+04  0.13610101943E+04  0.12500000000E+03 0.  0.
         21    1    1    2  503  502 -0.12104670014E+03 -0.14011805449E+03  0.19530316345E+03  0.26912580415E+03  0.00000000000E+00 0. -1.
         21    1    1    2  504  501 -0.32624562608E+02 -0.20402935075E+02  0.14701617970E+03  0.15196841428E+03  0.00000000000E+00 0.  1.
<mgrwt>
<rscale>  4 0.22790777E+03</rscale>
<asrwt>0</asrwt>
<pdfrwt beam="1">  1       21 0.26625679E+00 0.22790777E+03</pdfrwt>
<pdfrwt beam="2">  1       21 0.79130782E-02 0.22790777E+03</pdfrwt>
<totfact> 0.63135105E+03</totfact>
</mgrwt>
</event>
<event>
 5    0  0.1911311E+001  0.2064260E+03  0.7546771E-02  0.1144428E+00
         21   -1    0    0  502  501  0.00000000000E+00  0.00000000000E+00  0.62025446462E+03  0.62025446462E+03  0.00000000000E+00 0. -1.
         21   -1    0    0  504  502 -0.00000000000E+00 -0.00000000000E+00 -0.15602943851E+03  0.15602943851E+03  0.00000000000E+00 0. -1.
         25    1    1    2    0    0  0.22845937656E+03 -0.11855116118E+03  0.87604704371E+02  0.29924513159E+03  0.12500000000E+03 0.  0.
         21    1    1    2  503  501 -0.12818021057E+03  0.77547116317E+02  0.32322720398E+03  0.35625769749E+03  0.00000000000E+00 0. -1.
         21    1    1    2  504  503 -0.10027916598E+03  0.41004044859E+02  0.53393117755E+02  0.12078107405E+03  0.00000000000E+00 0. -1.
<mgrwt>
<rscale>  4 0.20642597E+03</rscale>
<asrwt>0</asrwt>
<pdfrwt beam="1">  1       21 0.95423763E-01 0.20642597E+03</pdfrwt>
<pdfrwt beam="2">  1       21 0.24004529E-01 0.20642597E+03</pdfrwt>
<totfact> 0.14869429E+04</totfact>
</mgrwt>
</event>
