<event>
 5    0  0.3818133E+000  0.3143198E+03  0.7546771E-02  0.1078294E+00
         21   -1    0    0  502  501  0.00000000000E+00  0.00000000000E+00  0.26641527717E+03  0.26641527717E+03  0.00000000000E+00 0. -1.
         21   -1    0    0  503  502 -0.00000000000E+00 -0.00000000000E+00 -0.52344982687E+03  0.52344982687E+03  0.00000000000E+00 0. -1.
         25    1    1    2    0    0 -0.23991280442E+02  0.32159758566E+03  0.33595280497E+00  0.34586948623E+03  0.12500000000E+03 0.  0.
         21    1    1    2  503  504  0.28098087408E+02 -0.25035072887E+03 -0.99713550861E+02  0.27093870559E+03  0.00000000000E+00 0. -1.
         21    1    1    2  504  501 -0.41068069658E+01 -0.71246856788E+02 -0.15765695165E+03  0.17305691222E+03  0.00000000000E+00 0. -1.
<mgrwt>
<rscale>  4 0.31431984E+03</rscale>
<asrwt>0</asrwt>
<pdfrwt beam="1">  1       21 0.40986967E-01 0.31431984E+03</pdfrwt>
<pdfrwt beam="2">  1       21 0.80530741E-01 0.31431984E+03</pdfrwt>
<totfact> 0.72371492E+03</totfact>
</mgrwt>
</event>
<event>
 5    0  0.3033253E+000  0.2879133E+03  0.7546771E-02  0.1091444E+00
         21   -1    0    0  502  501  0.00000000000E+00  0.00000000000E+00  0.22539870134E+03  0.22539870134E+03  0.00000000000E+00 0.  1.
         21   -1    0    0  503  502 -0.00000000000E+00 -0.00000000000E+00 -0.34878461298E+03  0.34878461298E+03  0.00000000000E+00 0.  1.
         25    1    1    2    0    0  0.11999716671E+03 -0.22993424298E+03 -0.10252440325E+03  0.30562285480E+03  0.12500000000E+03 0.  0.
         21    1    1    2  503  504 -0.82391155418E+02  0.20838247892E+03 -0.12577547321E+02  0.22443207148E+03  0.00000000000E+00 0.  1.
         21    1    1    2  504  501 -0.37606011292E+02  0.21551764061E+02 -0.82839610806E+01  0.44128388036E+02  0.00000000000E+00 0.  1.
<mgrwt>
<rscale>  4 0.28791331E+03</rscale>
<asrwt>0</asrwt>
<pdfrwt beam="1">  1       21 0.34676723E-01 0.28791331E+03</pdfrwt>
<pdfrwt beam="2">  1       21 0.53659171E-01 0.28791331E+03</pdfrwt>
<totfact> 0.25158419E+04</totfact>
</mgrwt>
</event>
<event>
 5    0  0.1856407E+000  0.4995788E+03  0.7546771E-02  0.1013889E+00
         21   -1    0    0  502  501  0.00000000000E+00  0.00000000000E+00  0.66452559369E+03  0.66452559369E+03  0.00000000000E+00 0.  1.
         21   -1    0    0  503  502 -0.00000000000E+00 -0.00000000000E+00 -0.40284739825E+03  0.40284739825E+03  0.00000000000E+00 0.  1.
         25    1    1    2    0    0  0.32910117301E+03 -0.37180382062E+03  0.12391015807E+03  0.52680583746E+03  0.12500000000E+03 0.  0.
         21    1    1    2  503  504 -0.28083240498E+03  0.38077201920E+03  0.13155080064E+03  0.49108022099E+03  0.00000000000E+00 0.  1.
         21    1    1    2  504  501 -0.48268768034E+02 -0.89681985803E+01  0.62172367330E+01  0.49486933486E+02  0.00000000000E+00 0. -1.
<mgrwt>
<rscale>  4 0.49957877E+03</rscale>
<asrwt>0</asrwt>
<pdfrwt beam="1">  1       21 0.10223471E+00 0.49957877E+03</pdfrwt>
<pdfrwt beam="2">  1       21 0.61976523E-01 0.49957877E+03</pdfrwt>
<totfact> 0.15866077E+03</totfact>
</mgrwt>
</event>
<event>
 5    0  0.2128919E+000  0.3016161E+03  0.7546771E-02  0.1084435E+00
         21   -1    0    0  502  501  0.00000000000E+00  0.00000000000E+00  0.33267428357E+03  0.33267428357E+03  0.00000000000E+00 0.  1.
         21   -1    0    0  503  502 -0.00000000000E+00 -0.00000000000E+00 -0.38596217392E+03  0.38596217392E+03  0.00000000000E+00 0.  1.
         25    1    1    2    0    0  0.28323097765E+03  0.61466293008E+02  0.10892072781E+03  0.33389611681E+03  0.12500000000E+03 0.  0.
         21    1    1    2  503  504 -0.27789547353E+02 -0.53269876968E+02 -0.10784070263E+03  0.12344859609E+03  0.00000000000E+00 0.  1.
         21    1    1    2  504  501 -0.25544143030E+03 -0.81964160402E+01 -0.54367915542E+02  0.26129174458E+03  0.00000000000E+00 0.  1.
<mgrwt>
<rscale>  4 0.30161614E+03</rscale>
<asrwt>0</asrwt>
<pdfrwt beam="1">  1       21 0.51180659E-01 0.30161614E+03</pdfrwt>
<pdfrwt beam="2">  1       21 0.59378796E-01 0.30161614E+03</pdfrwt>
<totfact> 0.90365895E+03</totfact>
</mgrwt>
</event>
<event>
 5    0  0.2793772E+000  0.3762197E+03  0.7546771E-02  0.1052484E+00
         21   -1    0    0  502  501  0.00000000000E+00  0.00000000000E+00  0.27260247684E+03  0.27260247684E+03  0.00000000000E+00 0.  1.
         21   -1    0    0  503  502 -0.00000000000E+00 -0.00000000000E+00 -0.53553834365E+03  0.53553834365E+03  0.00000000000E+00 0.  1.
         25    1    1    2    0    0 -0.33617372110E+03 -0.10839983481E+03 -0.56243200512E+02  0.37888202986E+03  0.12500000000E+03 0.  0.
         21    1    1    2  503  504  0.86035680237E+02  0.23091561934E+02 -0.12333228992E+03  0.15213879269E+03  0.00000000000E+00 0.  1.
         21    1    1    2  504  501  0.25013804086E+03  0.85308272874E+02 -0.83360376385E+02  0.27711999794E+03  0.00000000000E+00 0.  1.
<mgrwt>
<rscale>  4 0.37583524E+03</rscale>
<asrwt>0</asrwt>
<pdfrwt beam="1">  1       21 0.41938843E-01 0.37621968E+03</pdfrwt>
<pdfrwt beam="2">  1       21 0.82390514E-01 0.37621968E+03</pdfrwt>
<totfact> 0.63818511E+03</totfact>
</mgrwt>
</event>
<event>
 5    0  0.1856407E+000  0.2731093E+03  0.7546771E-02  0.1099513E+00
         21   -1    0    0  502  501  0.00000000000E+00  0.00000000000E+00  0.19790334449E+03  0.19790334449E+03  0.00000000000E+00 0. -1.
         21   -1    0    0  503  502 -0.00000000000E+00 -0.00000000000E+00 -0.34711541203E+03  0.34711541203E+03  0.00000000000E+00 0. -1.
         25    1    1    2    0    0 -0.19598021111E+03  0.14337170161E+03 -0.65881122205E+02  0.28094307294E+03  0.12500000000E+03 0.  0.
         21    1    1    2  503  504  0.13540540031E+03 -0.67862645234E+02 -0.68163888377E+02  0.16609116993E+03  0.00000000000E+00 0. -1.
         21    1    1    2  504  501  0.60574810798E+02 -0.75509056374E+02 -0.15167056954E+02  0.97984513645E+02  0.00000000000E+00 0. -1.
<mgrwt>
<rscale>  4 0.27310930E+03</rscale>
<asrwt>0</asrwt>
<pdfrwt beam="1">  1       21 0.30446668E-01 0.27310930E+03</pdfrwt>
<pdfrwt beam="2">  1       21 0.53402371E-01 0.27310930E+03</pdfrwt>
<totfact> 0.33098400E+04</totfact>
</mgrwt>
</event>
<event>
 5    0  0.1856407E+000  0.2435235E+03  0.7546771E-02  0.1117468E+00
         21   -1    0    0  502  501  0.00000000000E+00  0.00000000000E+00  0.58676167028E+03  0.58676167028E+03  0.00000000000E+00 0. -1.
         21   -1    0    0  503  502 -0.00000000000E+00 -0.00000000000E+00 -0.19213879781E+03  0.19213879781E+03  0.00000000000E+00 0. -1.
         25    1    1    2    0    0  0.21264776312E+03  0.52635909388E+02  0.38280948594E+03  0.45842961580E+03  0.12500000000E+03 0.  0.
         21    1    1    2  503  504 -0.49274401777E+02  0.62950874878E+02 -0.68062259179E+02  0.10499166845E+03  0.00000000000E+00 0. -1.
         21    1    1    2  504  501 -0.16337336134E+03 -0.11558678427E+03  0.79875645709E+02  0.21547918384E+03  0.00000000000E+00 0. -1.
<mgrwt>
<rscale>  4 0.24352355E+03</rscale>
<asrwt>0</asrwt>
<pdfrwt beam="1">  1       21 0.90271026E-01 0.24352355E+03</pdfrwt>
<pdfrwt beam="2">  1       21 0.29559815E-01 0.24352355E+03</pdfrwt>
<totfact> 0.11081117E+04</totfact>
</mgrwt>
</event>
<event>
 5    0  0.1856407E+000  0.2403885E+03  0.7546771E-02  0.1119534E+00
         21   -1    0    0  502  501  0.00000000000E+00  0.00000000000E+00  0.12166288772E+04  0.12166288772E+04  0.00000000000E+00 0.  1.
         21   -1    0    0  503  502 -0.00000000000E+00 -0.00000000000E+00 -0.45325720172E+02  0.45325720172E+02  0.00000000000E+00 0.  1.
         25    1    1    2    0    0  0.19506562793E+03  0.64117512978E+02  0.81524443631E+03  0.84994714283E+03  0.12500000000E+03 0.  0.
         21    1    1    2  503  504 -0.17332900705E+03 -0.50839374502E+02  0.32516277477E+03  0.37196561236E+03  0.00000000000E+00 0.  1.
         21    1    1    2  504  501 -0.21736620875E+02 -0.13278138476E+02  0.30895945918E+02  0.40041842148E+02  0.00000000000E+00 0.  1.
<mgrwt>
<rscale>  4 0.24038855E+03</rscale>
<asrwt>0</asrwt>
<pdfrwt beam="1">  1       21 0.18717365E+00 0.24038855E+03</pdfrwt>
<pdfrwt beam="2">  1       21 0.69731886E-02 0.24038855E+03</pdfrwt>
<totfact> 0.24024891E+04</totfact>
</mgrwt>
</event>
<event>
 5    0  0.1856407E+000  0.2619066E+03  0.7546771E-02  0.1106003E+00
         21   -1    0    0  502  501  0.00000000000E+00  0.00000000000E+00  0.19886687655E+04  0.19886687655E+04  0.00000000000E+00 0.  1.
         21   -1    0    0  503  502 -0.00000000000E+00 -0.00000000000E+00 -0.32659362561E+02  0.32659362561E+02  0.00000000000E+00 0.  1.
         25    1    1    2    0    0  0.20867858965E+03  0.97073711905E+02  0.79745834464E+03  0.83936575506E+03  0.12500000000E+03 0.  0.
         21    1    1    2  503  504 -0.15464684807E+03 -0.77029838161E+02  0.76880605775E+03  0.78797969391E+03  0.00000000000E+00 0.  1.
         21    1    1    2  504  501 -0.54031741581E+02 -0.20043873744E+02  0.38974500054E+03  0.39398267908E+03  0.00000000000E+00 0.  1.
<mgrwt>
<rscale>  4 0.26190659E+03</rscale>
<asrwt>0</asrwt>
<pdfrwt beam="1">  1       21 0.30594895E+00 0.26190659E+03</pdfrwt>
<pdfrwt beam="2">  1       21 0.50245189E-02 0.26190659E+03</pdfrwt>
<totfact> 0.78727048E+03</totfact>
</mgrwt>
</event>
<event>
 5    0  0.1856407E+000  0.2572568E+03  0.7546771E-02  0.1108803E+00
         21   -1    0    0  502  501  0.00000000000E+00  0.00000000000E+00  0.11305155938E+03  0.11305155938E+03  0.00000000000E+00 0.  1.
         21   -1    0    0  503  502 -0.00000000000E+00 -0.00000000000E+00 -0.87912757825E+03  0.87912757825E+03  0.00000000000E+00 0.  1.
         25    1    1    2    0    0  0.10117266342E+03  0.22320213444E+03 -0.13565584240E+03  0.30672888390E+03  0.12500000000E+03 0.  0.
         21    1    1    2  503  504 -0.98270533142E+02 -0.16428659113E+03 -0.35038913488E+03  0.39927400060E+03  0.00000000000E+00 0.  1.
         21    1    1    2  504  501 -0.29021302769E+01 -0.58915543310E+02 -0.28003104159E+03  0.28617625314E+03  0.00000000000E+00 0.  1.
<mgrwt>
<rscale>  4 0.25725677E+03</rscale>
<asrwt>0</asrwt>
<pdfrwt beam="1">  1       21 0.17392547E-01 0.25725677E+03</pdfrwt>
<pdfrwt beam="2">  1       21 0.13525040E+00 0.25725677E+03</pdfrwt>
<totfact> 0.11218653E+04</totfact>
</mgrwt>
</event>
<event>
 5    0  0.1856407E+000  0.4166035E+03  0.7546771E-02  0.1038177E+00
         21   -1    0    0  502  501  0.00000000000E+00  0.00000000000E+00  0.60365233376E+03  0.60365233376E+03  0.00000000000E+00 0. -1.
         21   -1    0    0  503  502 -0.00000000000E+00 -0.00000000000E+00 -0.29844343282E+03  0.29844343282E+03  0.00000000000E+00 0. -1.
         25    1    1    2    0    0  0.36518505175E+03  0.13583405717E+03  0.11674365993E+03  0.42551744411E+03  0.12500000000E+03 0.  0.
         21    1    1    2  503  504 -0.38616513286E+03 -0.11900563962E+03  0.19533062014E+03  0.44882056912E+03  0.00000000000E+00 0. -1.
         21    1    1    2  504  501  0.20980081112E+02 -0.16828417545E+02 -0.68653791286E+01  0.27757753351E+02  0.00000000000E+00 0.  1.
<mgrwt>
<rscale>  4 0.41660349E+03</rscale>
<asrwt>0</asrwt>
<pdfrwt beam="1">  1       21 0.92869589E-01 0.41660349E+03</pdfrwt>
<pdfrwt beam="2">  1       21 0.45914374E-01 0.41660349E+03</pdfrwt>
<totfact> 0.39299155E+03</totfact>
</mgrwt>
</event>
<event>
 5    0  0.1856407E+000  0.2704333E+03  0.7546771E-02  0.1101032E+00
         21   -1    0    0  502  501  0.00000000000E+00  0.00000000000E+00  0.30419902190E+03  0.30419902190E+03  0.00000000000E+00 0.  1.
         21   -1    0    0  503  502 -0.00000000000E+00 -0.00000000000E+00 -0.51040615620E+03  0.51040615620E+03  0.00000000000E+00 0. -1.
         25    1    1    2    0    0  0.19476700114E+03 -0.13991056588E+03  0.19714012048E+03  0.33466158770E+03  0.12500000000E+03 0.  0.
         21    1    1    2  503  504 -0.14209366400E+03  0.12282883488E+03 -0.37094633664E+03  0.41578686450E+03  0.00000000000E+00 0. -1.
         21    1    1    2  504  501 -0.52673337145E+02  0.17081731006E+02 -0.32400918146E+02  0.64156725889E+02  0.00000000000E+00 0. -1.
<mgrwt>
<rscale>  4 0.27043327E+03</rscale>
<asrwt>0</asrwt>
<pdfrwt beam="1">  1       21 0.46799850E-01 0.27043327E+03</pdfrwt>
<pdfrwt beam="2">  1       21 0.78524024E-01 0.27043327E+03</pdfrwt>
<totfact> 0.59581104E+03</totfact>
</mgrwt>
</event>
<event>
 5    0  0.1856407E+000  0.3427280E+03  0.7546771E-02  0.1065640E+00
         21   -1    0    0  502  501  0.00000000000E+00  0.00000000000E+00  0.14104654018E+03  0.14104654018E+03  0.00000000000E+00 0. -1.
         21   -1    0    0  503  502 -0.00000000000E+00 -0.00000000000E+00 -0.12272232841E+04  0.12272232841E+04  0.00000000000E+00 0.  1.
         25    1    1    2    0    0 -0.28313052252E+03  0.14983779300E+03 -0.22038999703E+03  0.40842503325E+03  0.12500000000E+03 0.  0.
         21    1    1    2  503  504  0.31025894238E+03 -0.85433592248E+02 -0.55728187164E+03  0.64352357725E+03  0.00000000000E+00 0.  1.
         21    1    1    2  504  501 -0.27128419861E+02 -0.64404200752E+02 -0.30850487529E+03  0.31632121383E+03  0.00000000000E+00 0.  1.
<mgrwt>
<rscale>  4 0.34272802E+03</rscale>
<asrwt>0</asrwt>
<pdfrwt beam="1">  1       21 0.21699467E-01 0.34272802E+03</pdfrwt>
<pdfrwt beam="2">  1       21 0.18880358E+00 0.34272802E+03</pdfrwt>
<totfact> 0.28215228E+03</totfact>
</mgrwt>
</event>
