<event>
 5    0  0.2368098E+000  0.2391083E+03  0.7546771E-02  0.1120388E+00
         21   -1    0    0  502  501  0.00000000000E+00  0.00000000000E+00  0.86307395205E+02  0.86307395205E+02  0.00000000000E+00 0.  1.
         21   -1    0    0  503  502 -0.00000000000E+00 -0.00000000000E+00 -0.75791768960E+03  0.75791768960E+03  0.00000000000E+00 0.  1.
         25    1    1    2    0    0 -0.16573310079E+03 -0.15682249074E+03 -0.31799471704E+03  0.41086055343E+03  0.12500000000E+03 0.  0.
         21    1    1    2  503  504  0.78325165221E+01  0.54691805199E+02 -0.12957534513E+03  0.14086274147E+03  0.00000000000E+00 0.  1.
         21    1    1    2  504  501  0.15790058426E+03  0.10213068554E+03 -0.22404023222E+03  0.29250178990E+03  0.00000000000E+00 0.  1.
<mgrwt>
<rscale>  4 0.23910830E+03</rscale>
<asrwt>0</asrwt>
<pdfrwt beam="1">  1       21 0.13278061E-01 0.23910830E+03</pdfrwt>
<pdfrwt beam="2">  1       21 0.11660272E+00 0.23910830E+03</pdfrwt>
<totfact> 0.27022122E+04</totfact>
</mgrwt>
</event>
<event>
 5    0  0.2417703E+000  0.3413129E+03  0.7546771E-02  0.1066238E+00
         21   -1    0    0  502  501  0.00000000000E+00  0.00000000000E+00  0.16772254840E+03  0.16772254840E+03  0.00000000000E+00 0.  1.
         21   -1    0    0  503  502 -0.00000000000E+00 -0.00000000000E+00 -0.73263855888E+03  0.73263855888E+03  0.00000000000E+00 0. -1.
         25    1    1    2    0    0  0.50259863493E+02  0.31359758567E+03 -0.15109419330E+03  0.37326124211E+03  0.12500000000E+03 0.  0.
         21    1    1    2  503  504 -0.48559613984E+02 -0.27625801091E+03 -0.31681506636E+03  0.42314100602E+03  0.00000000000E+00 0. -1.
         21    1    1    2  504  501 -0.17002495096E+01 -0.37339574763E+02 -0.97006750817E+02  0.10395885915E+03  0.00000000000E+00 0.  1.
<mgrwt>
<rscale>  4 0.34131291E+03</rscale>
<asrwt>0</asrwt>
<pdfrwt beam="1">  1       21 0.25803469E-01 0.34131291E+03</pdfrwt>
<pdfrwt beam="2">  1       21 0.11271362E+00 0.34131291E+03</pdfrwt>
<totfact> 0.80746431E+03</totfact>
</mgrwt>
</event>
<event>
 5    0  0.1856407E+000  0.2509098E+03  0.7546771E-02  0.1112731E+00
         21   -1    0    0  502  501  0.00000000000E+00  0.00000000000E+00  0.78172147075E+03  0.78172147075E+03  0.00000000000E+00 0.  1.
         21   -1    0    0  503  502 -0.00000000000E+00 -0.00000000000E+00 -0.87768418632E+02  0.87768418632E+02  0.00000000000E+00 0.  1.
         25    1    1    2    0    0  0.71312201696E+02 -0.20553663581E+03  0.54931269422E+03  0.60390411060E+03  0.12500000000E+03 0.  0.
         21    1    1    2  503  504 -0.42733659468E+02  0.70407147333E+02  0.36114247824E+02  0.89930923174E+02  0.00000000000E+00 0.  1.
         21    1    1    2  504  501 -0.28578542227E+02  0.13512948847E+03  0.10852611008E+03  0.17565485561E+03  0.00000000000E+00 0.  1.
<mgrwt>
<rscale>  4 0.25090982E+03</rscale>
<asrwt>0</asrwt>
<pdfrwt beam="1">  1       21 0.12026484E+00 0.25090982E+03</pdfrwt>
<pdfrwt beam="2">  1       21 0.13502834E-01 0.25090982E+03</pdfrwt>
<totfact> 0.24133268E+04</totfact>
</mgrwt>
</event>
<event>
 5    0  0.1856407E+000  0.2682528E+03  0.7546771E-02  0.1102284E+00
         21   -1    0    0  502  501  0.00000000000E+00  0.00000000000E+00  0.81127964670E+02  0.81127964670E+02  0.00000000000E+00 0.  1.
         21   -1    0    0  503  502 -0.00000000000E+00 -0.00000000000E+00 -0.12653432877E+04  0.12653432877E+04  0.00000000000E+00 0. -1.
         25    1    1    2    0    0  0.28929539059E+02  0.23557937500E+03 -0.20718580461E+03  0.33894766231E+03  0.12500000000E+03 0.  0.
         21    1    1    2  503  504  0.12558398578E+02 -0.11032187655E+03 -0.52587707183E+03  0.53747123132E+03  0.00000000000E+00 0. -1.
         21    1    1    2  504  501 -0.41487937637E+02 -0.12525749845E+03 -0.45115244658E+03  0.47005235872E+03  0.00000000000E+00 0.  1.
<mgrwt>
<rscale>  4 0.26825279E+03</rscale>
<asrwt>0</asrwt>
<pdfrwt beam="1">  1       21 0.12481226E-01 0.26825279E+03</pdfrwt>
<pdfrwt beam="2">  1       21 0.19466818E+00 0.26825279E+03</pdfrwt>
<totfact> 0.75130867E+03</totfact>
</mgrwt>
</event>
<event>
 5    0  0.2432980E+000  0.2785800E+03  0.7546771E-02  0.1096467E+00
         21   -1    0    0  502  501  0.00000000000E+00  0.00000000000E+00  0.35866798155E+03  0.35866798155E+03  0.00000000000E+00 0.  1.
         21   -1    0    0  503  502 -0.00000000000E+00 -0.00000000000E+00 -0.24859248657E+03  0.24859248657E+03  0.00000000000E+00 0.  1.
         25    1    1    2    0    0  0.26069495649E+03  0.48664530503E+02  0.11235062085E+03  0.31397095228E+03  0.12500000000E+03 0.  0.
         21    1    1    2  503  504 -0.23364263586E+03  0.59573077886E+00  0.16006731928E+02  0.23419105802E+03  0.00000000000E+00 0.  1.
         21    1    1    2  504  501 -0.27052320628E+02 -0.49260261282E+02 -0.18281857797E+02  0.59098457826E+02  0.00000000000E+00 0.  1.
<mgrwt>
<rscale>  4 0.27858003E+03</rscale>
<asrwt>0</asrwt>
<pdfrwt beam="1">  1       21 0.55179689E-01 0.27858003E+03</pdfrwt>
<pdfrwt beam="2">  1       21 0.38244998E-01 0.27858003E+03</pdfrwt>
<totfact> 0.19536450E+04</totfact>
</mgrwt>
</event>
<event>
 5    0  0.2390257E+000  0.2893311E+03  0.7546771E-02  0.1090699E+00
         21   -1    0    0  502  501  0.00000000000E+00  0.00000000000E+00  0.15240234441E+03  0.15240234441E+03  0.00000000000E+00 0.  1.
         21   -1    0    0  503  502 -0.00000000000E+00 -0.00000000000E+00 -0.86559155884E+03  0.86559155884E+03  0.00000000000E+00 0.  1.
         25    1    1    2    0    0 -0.21170797341E+03 -0.16251725900E+03 -0.59754388598E+02  0.30071200913E+03  0.12500000000E+03 0.  0.
         21    1    1    2  503  504 -0.56637576210E+00  0.38791059077E+02 -0.17724585621E+03  0.18144189315E+03  0.00000000000E+00 0.  1.
         21    1    1    2  504  501  0.21227434917E+03  0.12372619992E+03 -0.47618896962E+03  0.53584000098E+03  0.00000000000E+00 0.  1.
<mgrwt>
<rscale>  4 0.28933112E+03</rscale>
<asrwt>0</asrwt>
<pdfrwt beam="1">  1       21 0.23446515E-01 0.28933112E+03</pdfrwt>
<pdfrwt beam="2">  1       21 0.13316793E+00 0.28933112E+03</pdfrwt>
<totfact> 0.65334207E+03</totfact>
</mgrwt>
</event>
<event>
 5    0  0.3148456E+000  0.2614223E+03  0.7546771E-02  0.1106292E+00
         21   -1    0    0  502  501  0.00000000000E+00  0.00000000000E+00  0.18788728285E+03  0.18788728285E+03  0.00000000000E+00 0.  1.
         21   -1    0    0  503  502 -0.00000000000E+00 -0.00000000000E+00 -0.43293794134E+03  0.43293794134E+03  0.00000000000E+00 0.  1.
         25    1    1    2    0    0  0.19110715919E+03  0.12725825915E+03  0.26629020137E+02  0.26277502836E+03  0.12500000000E+03 0.  0.
         21    1    1    2  503  504 -0.16441115971E+03 -0.12397329308E+03 -0.23316163305E+03  0.31107033604E+03  0.00000000000E+00 0.  1.
         21    1    1    2  504  501 -0.26695999478E+02 -0.32849660707E+01 -0.38518045576E+02  0.46979859783E+02  0.00000000000E+00 0.  1.
<mgrwt>
<rscale>  4 0.26142228E+03</rscale>
<asrwt>0</asrwt>
<pdfrwt beam="1">  1       21 0.28905736E-01 0.26142228E+03</pdfrwt>
<pdfrwt beam="2">  1       21 0.66605837E-01 0.26142228E+03</pdfrwt>
<totfact> 0.22838812E+04</totfact>
</mgrwt>
</event>
<event>
 5    0  0.1856407E+000  0.4390089E+03  0.7546771E-02  0.1031051E+00
         21   -1    0    0  502  501  0.00000000000E+00  0.00000000000E+00  0.97027049550E+03  0.97027049550E+03  0.00000000000E+00 0. -1.
         21   -1    0    0  503  502 -0.00000000000E+00 -0.00000000000E+00 -0.26756213373E+03  0.26756213373E+03  0.00000000000E+00 0. -1.
         25    1    1    2    0    0  0.23598289161E+03 -0.29338470453E+03  0.56035857014E+03  0.68657791773E+03  0.12500000000E+03 0.  0.
         21    1    1    2  503  504 -0.30535510255E+03  0.31588879854E+03  0.63612090204E+02  0.44393014058E+03  0.00000000000E+00 0. -1.
         21    1    1    2  504  501  0.69372210939E+02 -0.22504094011E+02  0.78737701418E+02  0.10732457092E+03  0.00000000000E+00 0. -1.
<mgrwt>
<rscale>  4 0.43900886E+03</rscale>
<asrwt>0</asrwt>
<pdfrwt beam="1">  1       21 0.14927238E+00 0.43900886E+03</pdfrwt>
<pdfrwt beam="2">  1       21 0.41163406E-01 0.43900886E+03</pdfrwt>
<totfact> 0.14713272E+03</totfact>
</mgrwt>
</event>
<event>
 5    0  0.1856407E+000  0.2445529E+03  0.7546771E-02  0.1116796E+00
         21   -1    0    0  502  501  0.00000000000E+00  0.00000000000E+00  0.16012787770E+04  0.16012787770E+04  0.00000000000E+00 0.  1.
         21   -1    0    0  503  502 -0.00000000000E+00 -0.00000000000E+00 -0.10922082816E+03  0.10922082816E+03  0.00000000000E+00 0. -1.
         25    1    1    2    0    0  0.20512876979E+03  0.45861764770E+02  0.14732112260E+04  0.14933711628E+04  0.12500000000E+03 0.  0.
         21    1    1    2  503  504 -0.31008230368E+02 -0.26633306931E+02 -0.54327957715E+00  0.40879561413E+02  0.00000000000E+00 0. -1.
         21    1    1    2  504  501 -0.17412053942E+03 -0.19228457839E+02  0.19390002489E+02  0.17624888095E+03  0.00000000000E+00 0. -1.
<mgrwt>
<rscale>  4 0.24455289E+03</rscale>
<asrwt>0</asrwt>
<pdfrwt beam="1">  1       21 0.24635056E+00 0.24455289E+03</pdfrwt>
<pdfrwt beam="2">  1       21 0.16803205E-01 0.24455289E+03</pdfrwt>
<totfact> 0.21123555E+03</totfact>
</mgrwt>
</event>
