<event>
 5    0  0.4930573E+000  0.2580007E+03  0.7546771E-02  0.1108350E+00
          4   -1    0    0  502    0 -0.00000000000E+00  0.00000000000E+00  0.45508218880E+03  0.45508218880E+03  0.00000000000E+00 0.  1.
         21   -1    0    0  503  502  0.00000000000E+00 -0.00000000000E+00 -0.13608035986E+04  0.13608035986E+04  0.00000000000E+00 0.  1.
         25    1    1    2    0    0 -0.35447908801E+03  0.60222729779E+02 -0.63266794576E+03  0.73836029864E+03  0.12500000000E+03 0.  0.
         21    1    1    2  503  501  0.13532675403E+03 -0.43591587588E+02 -0.63683167161E+03  0.65250910709E+03  0.00000000000E+00 0.  1.
          4    1    1    2  501    0  0.21915233398E+03 -0.16631142191E+02  0.36377820758E+03  0.42501638167E+03  0.00000000000E+00 0.  1.
<mgrwt>
<rscale>  4 0.25800066E+03</rscale>
<asrwt>0</asrwt>
<pdfrwt beam="1">  1       21 0.20935440E+00 0.25800066E+03</pdfrwt>
<pdfrwt beam="2">  1        4 0.70012644E-01 0.25800066E+03</pdfrwt>
<totfact> 0.90022088E+00</totfact>
</mgrwt>
</event>
<event>
 5    0  0.4930573E+000  0.3717741E+03  0.7546771E-02  0.1054017E+00
          2   -1    0    0  502    0 -0.00000000000E+00  0.00000000000E+00  0.22608900565E+03  0.22608900565E+03  0.00000000000E+00 0. -1.
         21   -1    0    0  503  502  0.00000000000E+00 -0.00000000000E+00 -0.21295346832E+04  0.21295346832E+04  0.00000000000E+00 0. -1.
         25    1    1    2    0    0 -0.77500633110E+02 -0.36955281608E+03 -0.24561714242E+03  0.46747022649E+03  0.12500000000E+03 0.  0.
         21    1    1    2  503  501  0.18127461043E+02  0.43184753084E+02 -0.15330065012E+04  0.15337217676E+04  0.00000000000E+00 0. -1.
          2    1    1    2  501    0  0.59373172067E+02  0.32636806299E+03 -0.12482203396E+03  0.35443169478E+03  0.00000000000E+00 0. -1.
<mgrwt>
<rscale>  4 0.37177408E+03</rscale>
<asrwt>0</asrwt>
<pdfrwt beam="1">  1       21 0.32762071E+00 0.37177408E+03</pdfrwt>
<pdfrwt beam="2">  1        2 0.34782925E-01 0.37177408E+03</pdfrwt>
<totfact> 0.36835790E+01</totfact>
</mgrwt>
</event>
<event>
 5    0  0.4930573E+000  0.3679269E+03  0.7546771E-02  0.1055488E+00
          2   -1    0    0  502    0 -0.00000000000E+00  0.00000000000E+00  0.70829881574E+03  0.70829881574E+03  0.00000000000E+00 0. -1.
         21   -1    0    0  503  502  0.00000000000E+00 -0.00000000000E+00 -0.36223737354E+03  0.36223737354E+03  0.00000000000E+00 0. -1.
         25    1    1    2    0    0 -0.25322837199E+03 -0.21301651558E+03 -0.14906506567E+03  0.38385679373E+03  0.12500000000E+03 0.  0.
         21    1    1    2  503  501 -0.67234668449E+00 -0.26546243138E+02 -0.39849906004E+02  0.47887055488E+02  0.00000000000E+00 0.  1.
          2    1    1    2  501    0  0.25390071867E+03  0.23956275872E+03  0.53497641388E+03  0.63879234006E+03  0.00000000000E+00 0. -1.
<mgrwt>
<rscale>  4 0.36792693E+03</rscale>
<asrwt>0</asrwt>
<pdfrwt beam="1">  1       21 0.55728827E-01 0.36792693E+03</pdfrwt>
<pdfrwt beam="2">  1        2 0.10896905E+00 0.36792693E+03</pdfrwt>
<totfact> 0.14827404E+03</totfact>
</mgrwt>
</event>
<event>
 5    0  0.4930573E+000  0.2301374E+03  0.7546771E-02  0.1126543E+00
         21   -1    0    0  503  502  0.00000000000E+00  0.00000000000E+00  0.17570960811E+03  0.17570960811E+03  0.00000000000E+00 0. -1.
          1   -1    0    0  502    0 -0.00000000000E+00 -0.00000000000E+00 -0.11762454597E+04  0.11762454597E+04  0.00000000000E+00 0. -1.
         25    1    1    2    0    0  0.11348564481E+03 -0.18453789121E+03 -0.14551230102E+03  0.28936491601E+03  0.12500000000E+03 0.  0.
         21    1    1    2  503  501 -0.13100618541E+02  0.23037311611E+02  0.92475414984E+02  0.96197953767E+02  0.00000000000E+00 0. -1.
          1    1    1    2  501    0 -0.10038502627E+03  0.16150057960E+03 -0.94749896558E+03  0.96639219807E+03  0.00000000000E+00 0. -1.
<mgrwt>
<rscale>  4 0.23013743E+03</rscale>
<asrwt>0</asrwt>
<pdfrwt beam="1">  1       21 0.27032246E-01 0.23013743E+03</pdfrwt>
<pdfrwt beam="2">  1        1 0.18096085E+00 0.23013743E+03</pdfrwt>
<totfact> 0.17191616E+03</totfact>
</mgrwt>
</event>
<event>
 5    0  0.4930573E+000  0.2852017E+03  0.7546771E-02  0.1092881E+00
          2   -1    0    0  502    0 -0.00000000000E+00  0.00000000000E+00  0.15207197662E+03  0.15207197662E+03  0.00000000000E+00 0.  1.
         21   -1    0    0  503  502  0.00000000000E+00 -0.00000000000E+00 -0.76787859200E+03  0.76787859200E+03  0.00000000000E+00 0.  1.
         25    1    1    2    0    0 -0.27284066312E+03 -0.13556745437E+03 -0.19656010015E+03  0.38351197518E+03  0.12500000000E+03 0.  0.
         21    1    1    2  503  501  0.80965402305E+02  0.32969549225E+02 -0.23701730767E+03  0.25262539794E+03  0.00000000000E+00 0.  1.
          2    1    1    2  501    0  0.19187526081E+03  0.10259790515E+03 -0.18222920755E+03  0.28381319549E+03  0.00000000000E+00 0.  1.
<mgrwt>
<rscale>  4 0.28520165E+03</rscale>
<asrwt>0</asrwt>
<pdfrwt beam="1">  1       21 0.11813517E+00 0.28520165E+03</pdfrwt>
<pdfrwt beam="2">  1        2 0.23395689E-01 0.28520165E+03</pdfrwt>
<totfact> 0.15044605E+03</totfact>
</mgrwt>
</event>
<event>
 5    0  0.4930573E+000  0.2421246E+03  0.7546771E-02  0.1118386E+00
          1   -1    0    0  502    0 -0.00000000000E+00  0.00000000000E+00  0.67481658557E+03  0.67481658557E+03  0.00000000000E+00 0. -1.
         21   -1    0    0  503  502  0.00000000000E+00 -0.00000000000E+00 -0.13584423803E+03  0.13584423803E+03  0.00000000000E+00 0. -1.
         25    1    1    2    0    0 -0.14667938209E+03 -0.17343752672E+03  0.10096398448E+03  0.27823397163E+03  0.12500000000E+03 0.  0.
         21    1    1    2  503  501  0.11251743044E+03  0.14997723533E+03  0.14637408997E+03  0.23786281232E+03  0.00000000000E+00 0. -1.
          1    1    1    2  501    0  0.34161951653E+02  0.23460291391E+02  0.29163427310E+03  0.29456403966E+03  0.00000000000E+00 0. -1.
<mgrwt>
<rscale>  4 0.24212456E+03</rscale>
<asrwt>0</asrwt>
<pdfrwt beam="1">  1       21 0.20899114E-01 0.24212456E+03</pdfrwt>
<pdfrwt beam="2">  1        1 0.10381793E+00 0.24212456E+03</pdfrwt>
<totfact> 0.69400062E+03</totfact>
</mgrwt>
</event>
<event>
 5    0  0.4930573E+000  0.2624258E+03  0.7546771E-02  0.1105694E+00
          1   -1    0    0  502    0 -0.00000000000E+00  0.00000000000E+00  0.93698737922E+03  0.93698737922E+03  0.00000000000E+00 0. -1.
         21   -1    0    0  503  502  0.00000000000E+00 -0.00000000000E+00 -0.95318923904E+02  0.95318923904E+02  0.00000000000E+00 0. -1.
         25    1    1    2    0    0 -0.20533095033E+03 -0.11832997629E+03  0.63363059604E+03  0.68795022690E+03  0.12500000000E+03 0.  0.
         21    1    1    2  503  501  0.40403111487E+01  0.27230772714E+02 -0.14201036437E+02  0.30975934734E+02  0.00000000000E+00 0. -1.
          1    1    1    2  501    0  0.20129063918E+03  0.91099203576E+02  0.22223889571E+03  0.31338014149E+03  0.00000000000E+00 0. -1.
<mgrwt>
<rscale>  4 0.26242582E+03</rscale>
<asrwt>0</asrwt>
<pdfrwt beam="1">  1       21 0.14664450E-01 0.26242582E+03</pdfrwt>
<pdfrwt beam="2">  1        1 0.14415190E+00 0.26242582E+03</pdfrwt>
<totfact> 0.80352729E+03</totfact>
</mgrwt>
</event>
<event>
 5    0  0.4930573E+000  0.2946820E+03  0.7546771E-02  0.1087930E+00
          2   -1    0    0  502    0 -0.00000000000E+00  0.00000000000E+00  0.26623948924E+03  0.26623948924E+03  0.00000000000E+00 0.  1.
         21   -1    0    0  503  502  0.00000000000E+00 -0.00000000000E+00 -0.14186395676E+04  0.14186395676E+04  0.00000000000E+00 0.  1.
         25    1    1    2    0    0 -0.21119752589E+03  0.21005413332E+03 -0.40252656810E+03  0.51611992007E+03  0.12500000000E+03 0.  0.
         21    1    1    2  503  501  0.94008378109E+01 -0.43706694243E+02 -0.87688702517E+03  0.87802591408E+03  0.00000000000E+00 0.  1.
          2    1    1    2  501    0  0.20179668808E+03 -0.16634743907E+03  0.12701351491E+03  0.29073322269E+03  0.00000000000E+00 0.  1.
<mgrwt>
<rscale>  4 0.29468201E+03</rscale>
<asrwt>0</asrwt>
<pdfrwt beam="1">  1       21 0.21825224E+00 0.29468201E+03</pdfrwt>
<pdfrwt beam="2">  1        2 0.40959922E-01 0.29468201E+03</pdfrwt>
<totfact> 0.14722405E+02</totfact>
</mgrwt>
</event>
<event>
 5    0  0.4930573E+000  0.3858860E+03  0.7546771E-02  0.1048779E+00
         21   -1    0    0  501  502  0.00000000000E+00  0.00000000000E+00  0.38535028580E+03  0.38535028580E+03  0.00000000000E+00 0.  1.
         -3   -1    0    0    0  501 -0.00000000000E+00 -0.00000000000E+00 -0.40961597846E+03  0.40961597846E+03  0.00000000000E+00 0.  1.
         25    1    1    2    0    0 -0.37923981398E+03  0.70666385548E+01 -0.12436690183E+02  0.39956532025E+03  0.12500000000E+03 0.  0.
         21    1    1    2  503  502  0.25833261801E+02  0.22788510517E+01  0.29712733393E+02  0.39438523084E+02  0.00000000000E+00 0. -1.
         -3    1    1    2    0  503  0.35340655218E+03 -0.93454896064E+01 -0.41541735872E+02  0.35596242093E+03  0.00000000000E+00 0.  1.
<mgrwt>
<rscale>  4 0.38588598E+03</rscale>
<asrwt>0</asrwt>
<pdfrwt beam="1">  1       21 0.59284660E-01 0.38588598E+03</pdfrwt>
<pdfrwt beam="2">  1       -3 0.63017843E-01 0.38588598E+03</pdfrwt>
<totfact> 0.31458971E+02</totfact>
</mgrwt>
</event>
<event>
 5    0  0.4930573E+000  0.2042293E+03  0.7546771E-02  0.1146219E+00
         21   -1    0    0  503  502  0.00000000000E+00  0.00000000000E+00  0.25566373554E+03  0.25566373554E+03  0.00000000000E+00 0.  1.
          2   -1    0    0  502    0 -0.00000000000E+00 -0.00000000000E+00 -0.16474949815E+04  0.16474949815E+04  0.00000000000E+00 0.  1.
         25    1    1    2    0    0 -0.17790452192E+03 -0.11539264197E+03 -0.83892504229E+03  0.87429154595E+03  0.12500000000E+03 0.  0.
         21    1    1    2  503  501  0.30670225984E+02  0.10248081313E+03  0.21857948116E+03  0.24335153463E+03  0.00000000000E+00 0.  1.
          2    1    1    2  501    0  0.14723429594E+03  0.12911828844E+02 -0.77148568482E+03  0.78551563645E+03  0.00000000000E+00 0.  1.
<mgrwt>
<rscale>  4 0.20422930E+03</rscale>
<asrwt>0</asrwt>
<pdfrwt beam="1">  1       21 0.39332881E-01 0.20422930E+03</pdfrwt>
<pdfrwt beam="2">  1        2 0.25346078E+00 0.20422930E+03</pdfrwt>
<totfact> 0.90795350E+02</totfact>
</mgrwt>
</event>
<event>
 5    0  0.4930573E+000  0.2997512E+03  0.7546771E-02  0.1085365E+00
          2   -1    0    0  502    0 -0.00000000000E+00  0.00000000000E+00  0.56962798162E+03  0.56962798162E+03  0.00000000000E+00 0.  1.
         21   -1    0    0  503  502  0.00000000000E+00 -0.00000000000E+00 -0.15843833968E+03  0.15843833968E+03  0.00000000000E+00 0.  1.
         25    1    1    2    0    0 -0.25644474367E+03 -0.91988372870E+02  0.16505945618E+03  0.34219203874E+03  0.12500000000E+03 0.  0.
         21    1    1    2  503  501  0.13679072842E+03  0.49768504931E+02  0.53242057581E+02  0.15499459397E+03  0.00000000000E+00 0.  1.
          2    1    1    2  501    0  0.11965401526E+03  0.42219867939E+02  0.19288812817E+03  0.23087968859E+03  0.00000000000E+00 0.  1.
<mgrwt>
<rscale>  4 0.29975118E+03</rscale>
<asrwt>0</asrwt>
<pdfrwt beam="1">  1       21 0.24375129E-01 0.29975118E+03</pdfrwt>
<pdfrwt beam="2">  1        2 0.87635073E-01 0.29975118E+03</pdfrwt>
<totfact> 0.10461401E+04</totfact>
</mgrwt>
</event>
<event>
 5    0  0.4930573E+000  0.3898789E+03  0.7546771E-02  0.1047342E+00
         21   -1    0    0  503  502  0.00000000000E+00  0.00000000000E+00  0.84453979689E+03  0.84453979689E+03  0.00000000000E+00 0.  1.
          2   -1    0    0  502    0 -0.00000000000E+00 -0.00000000000E+00 -0.68778539823E+03  0.68778539823E+03  0.00000000000E+00 0.  1.
         25    1    1    2    0    0 -0.14109119757E+03 -0.33480142551E+03  0.28466471044E+03  0.47818167878E+03  0.12500000000E+03 0.  0.
         21    1    1    2  503  501  0.21225999904E+02 -0.15586073348E+02  0.40463775949E+03  0.40549375477E+03  0.00000000000E+00 0.  1.
          2    1    1    2  501    0  0.11986519767E+03  0.35038749886E+03 -0.53254807127E+03  0.64864976156E+03  0.00000000000E+00 0.  1.
<mgrwt>
<rscale>  4 0.38987891E+03</rscale>
<asrwt>0</asrwt>
<pdfrwt beam="1">  1       21 0.12992920E+00 0.38987891E+03</pdfrwt>
<pdfrwt beam="2">  1        2 0.10581314E+00 0.38987891E+03</pdfrwt>
<totfact> 0.20996767E+02</totfact>
</mgrwt>
</event>
<event>
 5    0  0.4930573E+000  0.3399028E+03  0.7546771E-02  0.1066837E+00
         21   -1    0    0  503  502  0.00000000000E+00  0.00000000000E+00  0.19398877536E+03  0.19398877536E+03  0.00000000000E+00 0. -1.
          2   -1    0    0  502    0 -0.00000000000E+00 -0.00000000000E+00 -0.23099631869E+04  0.23099631869E+04  0.00000000000E+00 0.  1.
         25    1    1    2    0    0 -0.97801431372E+02  0.31151679243E+03 -0.35715469403E+02  0.35143765692E+03  0.12500000000E+03 0.  0.
         21    1    1    2  503  501  0.53620555204E+02  0.97756521340E+00 -0.55248586587E+01  0.53913297408E+02  0.00000000000E+00 0. -1.
          2    1    1    2  501    0  0.44180876167E+02 -0.31249435764E+03 -0.20747340834E+04  0.20986010079E+04  0.00000000000E+00 0.  1.
<mgrwt>
<rscale>  4 0.33990283E+03</rscale>
<asrwt>0</asrwt>
<pdfrwt beam="1">  1       21 0.29844424E-01 0.33990283E+03</pdfrwt>
<pdfrwt beam="2">  1        2 0.35537898E+00 0.33990283E+03</pdfrwt>
<totfact> 0.65455598E+02</totfact>
</mgrwt>
</event>
<event>
 5    0  0.4930573E+000  0.3231750E+03  0.7546771E-02  0.1074197E+00
          2   -1    0    0  502    0 -0.00000000000E+00  0.00000000000E+00  0.32145412727E+04  0.32145412727E+04  0.00000000000E+00 0.  1.
         21   -1    0    0  503  502  0.00000000000E+00 -0.00000000000E+00 -0.74732621955E+02  0.74732621955E+02  0.00000000000E+00 0.  1.
         25    1    1    2    0    0 -0.58109768190E+02 -0.32860052221E+03  0.51892544887E+03  0.62949477348E+03  0.12500000000E+03 0.  0.
         21    1    1    2  503  501 -0.15118206981E+01  0.42010630573E+02  0.28193475030E+02  0.50616703935E+02  0.00000000000E+00 0.  1.
          2    1    1    2  501    0  0.59621588888E+02  0.28658989163E+03  0.25926897268E+04  0.26091624172E+04  0.00000000000E+00 0.  1.
<mgrwt>
<rscale>  4 0.32317500E+03</rscale>
<asrwt>0</asrwt>
<pdfrwt beam="1">  1       21 0.11497329E-01 0.32317500E+03</pdfrwt>
<pdfrwt beam="2">  1        2 0.49454470E+00 0.32317500E+03</pdfrwt>
<totfact> 0.11959744E+03</totfact>
</mgrwt>
</event>
<event>
 5    0  0.4930573E+000  0.2036974E+03  0.7546771E-02  0.1146656E+00
         21   -1    0    0  501  502  0.00000000000E+00  0.00000000000E+00  0.11611013837E+04  0.11611013837E+04  0.00000000000E+00 0. -1.
         -1   -1    0    0    0  501 -0.00000000000E+00 -0.00000000000E+00 -0.71339764379E+03  0.71339764379E+03  0.00000000000E+00 0.  1.
         25    1    1    2    0    0  0.19745398037E+03 -0.85925061268E+02  0.29609071689E+03  0.38686677700E+03  0.12500000000E+03 0.  0.
         21    1    1    2  503  502 -0.45369757311E+02  0.38362088462E+02  0.80901492840E+03  0.81119370010E+03  0.00000000000E+00 0. -1.
         -1    1    1    2    0  503 -0.15208422306E+03  0.47562972806E+02 -0.65740190537E+03  0.67643855040E+03  0.00000000000E+00 0.  1.
<mgrwt>
<rscale>  4 0.20369740E+03</rscale>
<asrwt>0</asrwt>
<pdfrwt beam="1">  1       21 0.17863098E+00 0.20369740E+03</pdfrwt>
<pdfrwt beam="2">  1       -1 0.10975348E+00 0.20369740E+03</pdfrwt>
<totfact> 0.14097394E+01</totfact>
</mgrwt>
</event>
<event>
 5    0  0.4930573E+000  0.4002890E+03  0.7546771E-02  0.1043680E+00
         21   -1    0    0  503  502  0.00000000000E+00  0.00000000000E+00  0.14690228736E+03  0.14690228736E+03  0.00000000000E+00 0. -1.
          2   -1    0    0  502    0 -0.00000000000E+00 -0.00000000000E+00 -0.13788231013E+04  0.13788231013E+04  0.00000000000E+00 0.  1.
         25    1    1    2    0    0  0.28334218438E+03 -0.24015804278E+03 -0.72708449345E+03  0.82597550786E+03  0.12500000000E+03 0.  0.
         21    1    1    2  503  501  0.54720915030E+02  0.35014413733E+02 -0.90723309187E+01  0.65594930437E+02  0.00000000000E+00 0. -1.
          2    1    1    2  501    0 -0.33806309941E+03  0.20514362905E+03 -0.49576398962E+03  0.63415495040E+03  0.00000000000E+00 0.  1.
<mgrwt>
<rscale>  4 0.40028898E+03</rscale>
<asrwt>0</asrwt>
<pdfrwt beam="1">  1       21 0.22600351E-01 0.40028898E+03</pdfrwt>
<pdfrwt beam="2">  1        2 0.21212664E+00 0.40028898E+03</pdfrwt>
<totfact> 0.34857695E+03</totfact>
</mgrwt>
</event>
<event>
 5    0  0.4930573E+000  0.2770932E+03  0.7546771E-02  0.1097287E+00
         21   -1    0    0  503  502  0.00000000000E+00  0.00000000000E+00  0.72505178393E+03  0.72505178393E+03  0.00000000000E+00 0.  1.
          3   -1    0    0  502    0 -0.00000000000E+00 -0.00000000000E+00 -0.11539965109E+03  0.11539965109E+03  0.00000000000E+00 0.  1.
         25    1    1    2    0    0  0.10013531468E+03 -0.22611621585E+03  0.15751110131E+03  0.31873244478E+03  0.12500000000E+03 0.  0.
         21    1    1    2  503  501 -0.51482111383E+02  0.90981835421E+02  0.27155572070E+03  0.29098214999E+03  0.00000000000E+00 0.  1.
          3    1    1    2  501    0 -0.48653203299E+02  0.13513438043E+03  0.18058531082E+03  0.23073684025E+03  0.00000000000E+00 0.  1.
<mgrwt>
<rscale>  4 0.27709317E+03</rscale>
<asrwt>0</asrwt>
<pdfrwt beam="1">  1       21 0.11154643E+00 0.27709317E+03</pdfrwt>
<pdfrwt beam="2">  1        3 0.17753793E-01 0.27709317E+03</pdfrwt>
<totfact> 0.84825751E+02</totfact>
</mgrwt>
</event>
<event>
 5    0  0.4930573E+000  0.3472114E+03  0.7546771E-02  0.1063765E+00
          1   -1    0    0  502    0 -0.00000000000E+00  0.00000000000E+00  0.13241156445E+04  0.13241156445E+04  0.00000000000E+00 0.  1.
         21   -1    0    0  503  502  0.00000000000E+00 -0.00000000000E+00 -0.35259528190E+03  0.35259528190E+03  0.00000000000E+00 0. -1.
         25    1    1    2    0    0  0.33602139039E+03 -0.55347630373E+02 -0.20299472214E+03  0.41569892014E+03  0.12500000000E+03 0.  0.
         21    1    1    2  503  501 -0.20575431045E+02 -0.13175709272E+02 -0.14869007096E+02  0.28601312025E+02  0.00000000000E+00 0. -1.
          1    1    1    2  501    0 -0.31544595935E+03  0.68523339645E+02  0.11893840919E+04  0.12324106943E+04  0.00000000000E+00 0.  1.
<mgrwt>
<rscale>  4 0.34721141E+03</rscale>
<asrwt>0</asrwt>
<pdfrwt beam="1">  1       21 0.54245429E-01 0.34721141E+03</pdfrwt>
<pdfrwt beam="2">  1        1 0.20371010E+00 0.34721141E+03</pdfrwt>
<totfact> 0.31355872E+02</totfact>
</mgrwt>
</event>
<event>
 5    0  0.4930573E+000  0.2346279E+03  0.7546771E-02  0.1123424E+00
         21   -1    0    0  503  502  0.00000000000E+00  0.00000000000E+00  0.27937891972E+03  0.27937891972E+03  0.00000000000E+00 0. -1.
          2   -1    0    0  502    0 -0.00000000000E+00 -0.00000000000E+00 -0.37064145057E+04  0.37064145057E+04  0.00000000000E+00 0.  1.
         25    1    1    2    0    0  0.21581780145E+03  0.14829104402E+02  0.20312837593E+03  0.32199901066E+03  0.12500000000E+03 0.  0.
         21    1    1    2  503  501 -0.12107683895E+03 -0.38108084110E+02 -0.23383943845E+03  0.26606899477E+03  0.00000000000E+00 0. -1.
          2    1    1    2  501    0 -0.94740962497E+02  0.23278979708E+02 -0.33963245235E+04  0.33977254200E+04  0.00000000000E+00 0.  1.
<mgrwt>
<rscale>  4 0.23462787E+03</rscale>
<asrwt>0</asrwt>
<pdfrwt beam="1">  1       21 0.42981375E-01 0.23462787E+03</pdfrwt>
<pdfrwt beam="2">  1        2 0.57021758E+00 0.23462787E+03</pdfrwt>
<totfact> 0.48622466E+01</totfact>
</mgrwt>
</event>
<event>
 5    0  0.4930573E+000  0.2343798E+03  0.7546771E-02  0.1123595E+00
          2   -1    0    0  502    0 -0.00000000000E+00  0.00000000000E+00  0.13798901709E+04  0.13798901709E+04  0.00000000000E+00 0. -1.
         21   -1    0    0  503  502  0.00000000000E+00 -0.00000000000E+00 -0.49022438274E+02  0.49022438274E+02  0.00000000000E+00 0. -1.
         25    1    1    2    0    0 -0.10878816722E+03  0.17752577787E+03  0.76756053189E+03  0.80506175989E+03  0.12500000000E+03 0.  0.
         21    1    1    2  503  501 -0.64463091035E+01 -0.25894769902E+02 -0.25471544360E+01  0.26806379932E+02  0.00000000000E+00 0. -1.
          2    1    1    2  501    0  0.11523447632E+03 -0.15163100796E+03  0.56585435518E+03  0.59704446935E+03  0.00000000000E+00 0. -1.
<mgrwt>
<rscale>  4 0.23437977E+03</rscale>
<asrwt>0</asrwt>
<pdfrwt beam="1">  1       21 0.75419146E-02 0.23437977E+03</pdfrwt>
<pdfrwt beam="2">  1        2 0.21229077E+00 0.23437977E+03</pdfrwt>
<totfact> 0.26782990E+04</totfact>
</mgrwt>
</event>
<event>
 5    0  0.4930573E+000  0.2820232E+03  0.7546771E-02  0.1094589E+00
          2   -1    0    0  502    0 -0.00000000000E+00  0.00000000000E+00  0.20871993025E+04  0.20871993025E+04  0.00000000000E+00 0.  1.
         21   -1    0    0  503  502  0.00000000000E+00 -0.00000000000E+00 -0.23588104481E+03  0.23588104481E+03  0.00000000000E+00 0.  1.
         25    1    1    2    0    0 -0.18085526654E+03 -0.36304519903E+03  0.26607339319E+03  0.50092963033E+03  0.12500000000E+03 0.  0.
         21    1    1    2  503  501  0.11210265073E+03  0.13142378372E+03 -0.41422997218E+02  0.17763749583E+03  0.00000000000E+00 0.  1.
          2    1    1    2  501    0  0.68752615814E+02  0.23162141531E+03  0.16266678617E+04  0.16445132212E+04  0.00000000000E+00 0.  1.
<mgrwt>
<rscale>  4 0.28202321E+03</rscale>
<asrwt>0</asrwt>
<pdfrwt beam="1">  1       21 0.36289393E-01 0.28202321E+03</pdfrwt>
<pdfrwt beam="2">  1        2 0.32110757E+00 0.28202321E+03</pdfrwt>
<totfact> 0.59989975E+02</totfact>
</mgrwt>
</event>
<event>
 5    0  0.4930573E+000  0.2475280E+03  0.7546771E-02  0.1114877E+00
          1   -1    0    0  502    0 -0.00000000000E+00  0.00000000000E+00  0.93234032597E+03  0.93234032597E+03  0.00000000000E+00 0.  1.
         21   -1    0    0  503  502  0.00000000000E+00 -0.00000000000E+00 -0.18117682485E+03  0.18117682485E+03  0.00000000000E+00 0. -1.
         25    1    1    2    0    0 -0.13028267397E+03  0.19922696125E+03 -0.35427487292E+02  0.27119193218E+03  0.12500000000E+03 0.  0.
         21    1    1    2  503  501  0.98725698526E+01 -0.25428805778E+02 -0.54846199393E+00  0.27283559324E+02  0.00000000000E+00 0. -1.
          1    1    1    2  501    0  0.12041010412E+03 -0.17379815547E+03  0.78713945041E+03  0.81504165931E+03  0.00000000000E+00 0.  1.
<mgrwt>
<rscale>  4 0.24752803E+03</rscale>
<asrwt>0</asrwt>
<pdfrwt beam="1">  1       21 0.27873358E-01 0.24752803E+03</pdfrwt>
<pdfrwt beam="2">  1        1 0.14343697E+00 0.24752803E+03</pdfrwt>
<totfact> 0.24279291E+03</totfact>
</mgrwt>
</event>
<event>
 5    0  0.4930573E+000  0.2690443E+03  0.7546771E-02  0.1101828E+00
          2   -1    0    0  502    0 -0.00000000000E+00  0.00000000000E+00  0.16589904618E+04  0.16589904618E+04  0.00000000000E+00 0. -1.
         21   -1    0    0  503  502  0.00000000000E+00 -0.00000000000E+00 -0.21717718614E+03  0.21717718614E+03  0.00000000000E+00 0. -1.
         25    1    1    2    0    0 -0.20112411208E+03  0.15843691611E+03  0.17117510710E+02  0.28543155751E+03  0.12500000000E+03 0.  0.
         21    1    1    2  503  501  0.24227323448E+02 -0.65827860528E+00 -0.71698567648E+02  0.75684087726E+02  0.00000000000E+00 0.  1.
          2    1    1    2  501    0  0.17689678864E+03 -0.15777863750E+03  0.14963943326E+04  0.15150520027E+04  0.00000000000E+00 0. -1.
<mgrwt>
<rscale>  4 0.26904431E+03</rscale>
<asrwt>0</asrwt>
<pdfrwt beam="1">  1       21 0.33411876E-01 0.26904431E+03</pdfrwt>
<pdfrwt beam="2">  1        2 0.25522929E+00 0.26904431E+03</pdfrwt>
<totfact> 0.11975017E+03</totfact>
</mgrwt>
</event>
<event>
 5    0  0.4930573E+000  0.2189976E+03  0.7546771E-02  0.1134633E+00
         21   -1    0    0  503  502  0.00000000000E+00  0.00000000000E+00  0.47230215809E+03  0.47230215809E+03  0.00000000000E+00 0.  1.
          2   -1    0    0  502    0 -0.00000000000E+00 -0.00000000000E+00 -0.43608619096E+03  0.43608619096E+03  0.00000000000E+00 0.  1.
         25    1    1    2    0    0  0.20515249563E+03 -0.46001717535E+02  0.32345151216E+03  0.40552384048E+03  0.12500000000E+03 0.  0.
         21    1    1    2  503  501 -0.32040890428E+02  0.40097010087E+01  0.84605351216E+02  0.90558057708E+02  0.00000000000E+00 0.  1.
          2    1    1    2  501    0 -0.17311160520E+03  0.41992016526E+02 -0.37184089625E+03  0.41230645087E+03  0.00000000000E+00 0.  1.
<mgrwt>
<rscale>  4 0.21899762E+03</rscale>
<asrwt>0</asrwt>
<pdfrwt beam="1">  1       21 0.72661871E-01 0.21899762E+03</pdfrwt>
<pdfrwt beam="2">  1        2 0.67090183E-01 0.21899762E+03</pdfrwt>
<totfact> 0.15273628E+03</totfact>
</mgrwt>
</event>
<event>
 5    0  0.4930573E+000  0.2048990E+03  0.7546771E-02  0.1145670E+00
         21   -1    0    0  503  502  0.00000000000E+00  0.00000000000E+00  0.20681040802E+03  0.20681040802E+03  0.00000000000E+00 0. -1.
          2   -1    0    0  502    0 -0.00000000000E+00 -0.00000000000E+00 -0.35272371971E+04  0.35272371971E+04  0.00000000000E+00 0. -1.
         25    1    1    2    0    0 -0.13993697442E+03  0.17699349009E+03 -0.26487030513E+04  0.26612331552E+04  0.12500000000E+03 0.  0.
         21    1    1    2  503  501  0.64140690253E+02 -0.14839364139E+03  0.16569038203E+03  0.23149082843E+03  0.00000000000E+00 0. -1.
          2    1    1    2  501    0  0.75796284164E+02 -0.28599848693E+02 -0.83741411982E+03  0.84132362151E+03  0.00000000000E+00 0. -1.
<mgrwt>
<rscale>  4 0.20489899E+03</rscale>
<asrwt>0</asrwt>
<pdfrwt beam="1">  1       21 0.31816989E-01 0.20489899E+03</pdfrwt>
<pdfrwt beam="2">  1        2 0.54265183E+00 0.20489899E+03</pdfrwt>
<totfact> 0.12129110E+02</totfact>
</mgrwt>
</event>
<event>
 5    0  0.4930573E+000  0.1751072E+03  0.7546771E-02  0.1172624E+00
         21   -1    0    0  503  502  0.00000000000E+00  0.00000000000E+00  0.23401821295E+04  0.23401821295E+04  0.00000000000E+00 0.  1.
          2   -1    0    0  502    0 -0.00000000000E+00 -0.00000000000E+00 -0.36680465146E+02  0.36680465146E+02  0.00000000000E+00 0.  1.
         25    1    1    2    0    0  0.72606506226E+02 -0.20181116092E+03  0.12395426671E+04  0.12641560319E+04  0.12500000000E+03 0.  0.
         21    1    1    2  503  501 -0.33180522742E+02  0.97005552227E+02  0.94033999852E+03  0.94591243626E+03  0.00000000000E+00 0.  1.
          2    1    1    2  501    0 -0.39425983484E+02  0.10480560869E+03  0.12361899878E+03  0.16679412653E+03  0.00000000000E+00 0.  1.
<mgrwt>
<rscale>  4 0.17510717E+03</rscale>
<asrwt>0</asrwt>
<pdfrwt beam="1">  1       21 0.36002790E+00 0.17510717E+03</pdfrwt>
<pdfrwt beam="2">  1        2 0.56431503E-02 0.17510717E+03</pdfrwt>
<totfact> 0.25044150E+02</totfact>
</mgrwt>
</event>
<event>
 5    0  0.4930573E+000  0.2567416E+03  0.7546771E-02  0.1109117E+00
          2   -1    0    0  502    0 -0.00000000000E+00  0.00000000000E+00  0.16687490120E+04  0.16687490120E+04  0.00000000000E+00 0. -1.
         21   -1    0    0  503  502  0.00000000000E+00 -0.00000000000E+00 -0.12535400648E+03  0.12535400648E+03  0.00000000000E+00 0.  1.
         25    1    1    2    0    0 -0.11097792396E+03 -0.28079182226E+03  0.34791340284E+03  0.47731423919E+03  0.12500000000E+03 0.  0.
         21    1    1    2  503  501  0.11636438805E+03  0.65471320737E+02  0.37133688590E+02  0.13858598585E+03  0.00000000000E+00 0. -1.
          2    1    1    2  501    0 -0.53864640898E+01  0.21532050153E+03  0.11583479141E+04  0.11782027935E+04  0.00000000000E+00 0. -1.
<mgrwt>
<rscale>  4 0.25674162E+03</rscale>
<asrwt>0</asrwt>
<pdfrwt beam="1">  1       21 0.19285233E-01 0.25674162E+03</pdfrwt>
<pdfrwt beam="2">  1        2 0.25673060E+00 0.25674162E+03</pdfrwt>
<totfact> 0.34335230E+03</totfact>
</mgrwt>
</event>
<event>
 5    0  0.4930573E+000  0.2425205E+03  0.7546771E-02  0.1118125E+00
          2   -1    0    0  502    0 -0.00000000000E+00  0.00000000000E+00  0.18017958281E+04  0.18017958281E+04  0.00000000000E+00 0.  1.
         21   -1    0    0  503  502  0.00000000000E+00 -0.00000000000E+00 -0.45586644622E+02  0.45586644622E+02  0.00000000000E+00 0.  1.
         25    1    1    2    0    0  0.19296892662E+03  0.12895057645E+03  0.57263877893E+03  0.63040100645E+03  0.12500000000E+03 0.  0.
         21    1    1    2  503  501 -0.60862907781E+02  0.23443967474E+02  0.14476920924E+03  0.15878298744E+03  0.00000000000E+00 0.  1.
          2    1    1    2  501    0 -0.13210601884E+03 -0.15239454392E+03  0.10388011954E+04  0.10581984789E+04  0.00000000000E+00 0.  1.
<mgrwt>
<rscale>  4 0.24252048E+03</rscale>
<asrwt>0</asrwt>
<pdfrwt beam="1">  1       21 0.70133313E-02 0.24252048E+03</pdfrwt>
<pdfrwt beam="2">  1        2 0.27719930E+00 0.24252048E+03</pdfrwt>
<totfact> 0.18122274E+04</totfact>
</mgrwt>
</event>
<event>
 5    0  0.4930573E+000  0.3945694E+03  0.7546771E-02  0.1045676E+00
         21   -1    0    0  503  502  0.00000000000E+00  0.00000000000E+00  0.61044812796E+03  0.61044812796E+03  0.00000000000E+00 0. -1.
          4   -1    0    0  502    0 -0.00000000000E+00 -0.00000000000E+00 -0.26459936956E+03  0.26459936956E+03  0.00000000000E+00 0. -1.
         25    1    1    2    0    0  0.46331621035E+02  0.38001352351E+03  0.13711268093E+03  0.42541953931E+03  0.12500000000E+03 0.  0.
         21    1    1    2  503  501 -0.18922597933E+02 -0.15311312535E+02  0.40057248362E+02  0.46873064231E+02  0.00000000000E+00 0. -1.
          4    1    1    2  501    0 -0.27409023103E+02 -0.36470221097E+03  0.16867882910E+03  0.40275489398E+03  0.00000000000E+00 0. -1.
<mgrwt>
<rscale>  4 0.39456944E+03</rscale>
<asrwt>0</asrwt>
<pdfrwt beam="1">  1       21 0.93915096E-01 0.39456944E+03</pdfrwt>
<pdfrwt beam="2">  1        4 0.40707596E-01 0.39456944E+03</pdfrwt>
<totfact> 0.22758819E+02</totfact>
</mgrwt>
</event>
<event>
 5    0  0.4930573E+000  0.1862218E+03  0.7546771E-02  0.1161914E+00
         21   -1    0    0  503  502  0.00000000000E+00  0.00000000000E+00  0.92678840149E+02  0.92678840149E+02  0.00000000000E+00 0. -1.
          2   -1    0    0  502    0 -0.00000000000E+00 -0.00000000000E+00 -0.33182440687E+04  0.33182440687E+04  0.00000000000E+00 0.  1.
         25    1    1    2    0    0  0.71108778277E+02  0.19901186930E+03 -0.52315457597E+03  0.57790820450E+03  0.12500000000E+03 0.  0.
         21    1    1    2  503  501 -0.65542587498E+01 -0.81803079878E+02  0.37224940783E+02  0.90113253196E+02  0.00000000000E+00 0. -1.
          2    1    1    2  501    0 -0.64554519527E+02 -0.11720878942E+03 -0.27396355934E+04  0.27429014512E+04  0.00000000000E+00 0.  1.
<mgrwt>
<rscale>  4 0.18622180E+03</rscale>
<asrwt>0</asrwt>
<pdfrwt beam="1">  1       21 0.14258282E-01 0.18622180E+03</pdfrwt>
<pdfrwt beam="2">  1        2 0.51049914E+00 0.18622180E+03</pdfrwt>
<totfact> 0.76252671E+02</totfact>
</mgrwt>
</event>
<event>
 5    0  0.4930573E+000  0.2465506E+03  0.7546771E-02  0.1115504E+00
         21   -1    0    0  503  502  0.00000000000E+00  0.00000000000E+00  0.14193170967E+03  0.14193170967E+03  0.00000000000E+00 0.  1.
          1   -1    0    0  502    0 -0.00000000000E+00 -0.00000000000E+00 -0.11859714866E+04  0.11859714866E+04  0.00000000000E+00 0.  1.
         25    1    1    2    0    0 -0.17101834220E+03  0.13269417693E+03 -0.13420329302E+01  0.24996363538E+03  0.12500000000E+03 0.  0.
         21    1    1    2  503  501 -0.14493480557E+02 -0.29328823174E+02 -0.34209980964E+02  0.47334592478E+02  0.00000000000E+00 0.  1.
          1    1    1    2  501    0  0.18551182276E+03 -0.10336535376E+03 -0.10084877630E+04  0.10306049684E+04  0.00000000000E+00 0.  1.
<mgrwt>
<rscale>  4 0.24655059E+03</rscale>
<asrwt>0</asrwt>
<pdfrwt beam="1">  1       21 0.21835648E-01 0.24655059E+03</pdfrwt>
<pdfrwt beam="2">  1        1 0.18245715E+00 0.24655059E+03</pdfrwt>
<totfact> 0.25287579E+03</totfact>
</mgrwt>
</event>
<event>
 5    0  0.4930573E+000  0.3237751E+03  0.7546771E-02  0.1073925E+00
          2   -1    0    0  502    0 -0.00000000000E+00  0.00000000000E+00  0.41063928492E+03  0.41063928492E+03  0.00000000000E+00 0. -1.
         21   -1    0    0  503  502  0.00000000000E+00 -0.00000000000E+00 -0.54167145495E+03  0.54167145495E+03  0.00000000000E+00 0. -1.
         25    1    1    2    0    0  0.29603428311E+03 -0.57629731295E+02 -0.40681300312E+03  0.52161221441E+03  0.12500000000E+03 0.  0.
         21    1    1    2  503  501 -0.25570888958E+02 -0.25915618554E+02  0.13436408443E+01  0.36432060302E+02  0.00000000000E+00 0. -1.
          2    1    1    2  501    0 -0.27046339415E+03  0.83545349849E+02  0.27443719225E+03  0.39426646516E+03  0.00000000000E+00 0. -1.
<mgrwt>
<rscale>  4 0.32377511E+03</rscale>
<asrwt>0</asrwt>
<pdfrwt beam="1">  1       21 0.83334069E-01 0.32377511E+03</pdfrwt>
<pdfrwt beam="2">  1        2 0.63175275E-01 0.32377511E+03</pdfrwt>
<totfact> 0.11507816E+03</totfact>
</mgrwt>
</event>
<event>
 5    0  0.4930573E+000  0.2566851E+03  0.7546771E-02  0.1109151E+00
          2   -1    0    0  502    0 -0.00000000000E+00  0.00000000000E+00  0.16928636939E+04  0.16928636939E+04  0.00000000000E+00 0.  1.
         21   -1    0    0  503  502  0.00000000000E+00 -0.00000000000E+00 -0.57633430932E+03  0.57633430932E+03  0.00000000000E+00 0. -1.
         25    1    1    2    0    0 -0.47464405386E+02 -0.20523074710E+03 -0.26547771384E+03  0.36121454273E+03  0.12500000000E+03 0.  0.
         21    1    1    2  503  501 -0.30555350806E+02 -0.53453106312E+01 -0.25437757699E+03  0.25626188457E+03  0.00000000000E+00 0. -1.
          2    1    1    2  501    0  0.78019756192E+02  0.21057605773E+03  0.16363846754E+04  0.16517215759E+04  0.00000000000E+00 0.  1.
<mgrwt>
<rscale>  4 0.25668509E+03</rscale>
<asrwt>0</asrwt>
<pdfrwt beam="1">  1       21 0.88666817E-01 0.25668509E+03</pdfrwt>
<pdfrwt beam="2">  1        2 0.26044057E+00 0.25668509E+03</pdfrwt>
<totfact> 0.14355207E+02</totfact>
</mgrwt>
</event>
<event>
 5    0  0.4930573E+000  0.4420616E+03  0.7546771E-02  0.1030116E+00
         21   -1    0    0  503  502  0.00000000000E+00  0.00000000000E+00  0.13703321524E+04  0.13703321524E+04  0.00000000000E+00 0. -1.
          2   -1    0    0  502    0 -0.00000000000E+00 -0.00000000000E+00 -0.40787846682E+03  0.40787846682E+03  0.00000000000E+00 0. -1.
         25    1    1    2    0    0  0.38874869648E+03  0.45636815809E+02  0.11721645110E+04  0.12420961753E+04  0.12500000000E+03 0.  0.
         21    1    1    2  503  501  0.35045160032E+02  0.98524635533E+01  0.29015834520E+02  0.46552689854E+02  0.00000000000E+00 0.  1.
          2    1    1    2  501    0 -0.42379385651E+03 -0.55489279362E+02 -0.23872665987E+03  0.48956175409E+03  0.00000000000E+00 0. -1.
<mgrwt>
<rscale>  4 0.44206158E+03</rscale>
<asrwt>0</asrwt>
<pdfrwt beam="1">  1       21 0.21082033E+00 0.44206158E+03</pdfrwt>
<pdfrwt beam="2">  1        2 0.62750534E-01 0.44206158E+03</pdfrwt>
<totfact> 0.95784386E+01</totfact>
</mgrwt>
</event>
<event>
 5    0  0.4930573E+000  0.4162039E+03  0.7546771E-02  0.1038309E+00
         21   -1    0    0  503  502  0.00000000000E+00  0.00000000000E+00  0.21645340321E+04  0.21645340321E+04  0.00000000000E+00 0.  1.
          3   -1    0    0  502    0 -0.00000000000E+00 -0.00000000000E+00 -0.22740032009E+03  0.22740032009E+03  0.00000000000E+00 0.  1.
         25    1    1    2    0    0 -0.38615408336E+03 -0.16977850030E+02  0.18031206306E+04  0.18483160530E+04  0.12500000000E+03 0.  0.
         21    1    1    2  503  501 -0.10468766871E+02 -0.17714777457E+02  0.14389464884E+03  0.14535844794E+03  0.00000000000E+00 0.  1.
          3    1    1    2  501    0  0.39662285023E+03  0.34692627487E+02 -0.98815674020E+01  0.39825985123E+03  0.00000000000E+00 0.  1.
<mgrwt>
<rscale>  4 0.41620386E+03</rscale>
<asrwt>0</asrwt>
<pdfrwt beam="1">  1       21 0.33300522E+00 0.41620386E+03</pdfrwt>
<pdfrwt beam="2">  1        3 0.34984666E-01 0.41620386E+03</pdfrwt>
<totfact> 0.73530360E+00</totfact>
</mgrwt>
</event>
<event>
 5    0  0.4930573E+000  0.2483994E+03  0.7546771E-02  0.1114321E+00
         21   -1    0    0  503  502  0.00000000000E+00  0.00000000000E+00  0.36154332353E+03  0.36154332353E+03  0.00000000000E+00 0.  1.
          2   -1    0    0  502    0 -0.00000000000E+00 -0.00000000000E+00 -0.33855638893E+03  0.33855638893E+03  0.00000000000E+00 0. -1.
         25    1    1    2    0    0 -0.41928318316E+02  0.25749576047E+03 -0.40502518054E+01  0.28931549401E+03  0.12500000000E+03 0.  0.
         21    1    1    2  503  501  0.31405051876E+02 -0.59891951233E+02  0.15910242043E+03  0.17287829040E+03  0.00000000000E+00 0.  1.
          2    1    1    2  501    0  0.10523266440E+02 -0.19760380923E+03 -0.13206523402E+03  0.23790592804E+03  0.00000000000E+00 0. -1.
<mgrwt>
<rscale>  4 0.24839945E+03</rscale>
<asrwt>0</asrwt>
<pdfrwt beam="1">  1       21 0.55622050E-01 0.24839945E+03</pdfrwt>
<pdfrwt beam="2">  1        2 0.52085598E-01 0.24839945E+03</pdfrwt>
<totfact> 0.35628774E+03</totfact>
</mgrwt>
</event>
<event>
 5    0  0.4930573E+000  0.2144894E+03  0.7546771E-02  0.1138059E+00
          4   -1    0    0  502    0 -0.00000000000E+00  0.00000000000E+00  0.10536939362E+03  0.10536939362E+03  0.00000000000E+00 0. -1.
         21   -1    0    0  503  502  0.00000000000E+00 -0.00000000000E+00 -0.10066396133E+04  0.10066396133E+04  0.00000000000E+00 0.  1.
         25    1    1    2    0    0 -0.20384601897E+02  0.20760128428E+03 -0.67712956078E+03  0.71947429927E+03  0.12500000000E+03 0.  0.
         21    1    1    2  503  501  0.10877612406E+03 -0.11023903703E+03 -0.20905576186E+03  0.26017148579E+03  0.00000000000E+00 0.  1.
          4    1    1    2  501    0 -0.88391522162E+02 -0.97362247246E+02 -0.15084897025E+02  0.13236322184E+03  0.00000000000E+00 0. -1.
<mgrwt>
<rscale>  4 0.21448935E+03</rscale>
<asrwt>0</asrwt>
<pdfrwt beam="1">  1       21 0.15486763E+00 0.21448935E+03</pdfrwt>
<pdfrwt beam="2">  1        4 0.16210677E-01 0.21448935E+03</pdfrwt>
<totfact> 0.37777560E+02</totfact>
</mgrwt>
</event>
<event>
 5    0  0.4930573E+000  0.4122972E+03  0.7546771E-02  0.1039603E+00
         21   -1    0    0  503  502  0.00000000000E+00  0.00000000000E+00  0.27795400955E+03  0.27795400955E+03  0.00000000000E+00 0. -1.
          2   -1    0    0  502    0 -0.00000000000E+00 -0.00000000000E+00 -0.10016110698E+04  0.10016110698E+04  0.00000000000E+00 0.  1.
         25    1    1    2    0    0  0.36007315345E+03  0.75228626872E+02 -0.11856303037E+03  0.40619479847E+03  0.12500000000E+03 0.  0.
         21    1    1    2  503  501  0.14239002450E+02  0.78392055701E+02  0.56629800906E+02  0.97749669761E+02  0.00000000000E+00 0. -1.
          2    1    1    2  501    0 -0.37431215590E+03 -0.15362068257E+03 -0.66172383084E+03  0.77562061117E+03  0.00000000000E+00 0.  1.
<mgrwt>
<rscale>  4 0.41229722E+03</rscale>
<asrwt>0</asrwt>
<pdfrwt beam="1">  1       21 0.42762156E-01 0.41229722E+03</pdfrwt>
<pdfrwt beam="2">  1        2 0.15409401E+00 0.41229722E+03</pdfrwt>
<totfact> 0.16189127E+03</totfact>
</mgrwt>
</event>
<event>
 5    0  0.4930573E+000  0.2509726E+03  0.7546771E-02  0.1112692E+00
         21   -1    0    0  503  502  0.00000000000E+00  0.00000000000E+00  0.71896851401E+02  0.71896851401E+02  0.00000000000E+00 0. -1.
          2   -1    0    0  502    0 -0.00000000000E+00 -0.00000000000E+00 -0.13008283866E+04  0.13008283866E+04  0.00000000000E+00 0. -1.
         25    1    1    2    0    0 -0.23186817742E+03 -0.33382921184E+02 -0.35705405557E+03  0.44496052603E+03  0.12500000000E+03 0.  0.
         21    1    1    2  503  501  0.25792347633E+02 -0.20862683830E+02 -0.31954400106E+01  0.33327280266E+02  0.00000000000E+00 0. -1.
          2    1    1    2  501    0  0.20607582978E+03  0.54245605015E+02 -0.86868203965E+03  0.89443743174E+03  0.00000000000E+00 0. -1.
<mgrwt>
<rscale>  4 0.25097263E+03</rscale>
<asrwt>0</asrwt>
<pdfrwt beam="1">  1       21 0.11061055E-01 0.25097263E+03</pdfrwt>
<pdfrwt beam="2">  1        2 0.20012742E+00 0.25097263E+03</pdfrwt>
<totfact> 0.14994963E+04</totfact>
</mgrwt>
</event>
<event>
 5    0  0.4930573E+000  0.2563321E+03  0.7546771E-02  0.1109367E+00
         21   -1    0    0  503  502  0.00000000000E+00  0.00000000000E+00  0.27044339854E+03  0.27044339854E+03  0.00000000000E+00 0.  1.
          4   -1    0    0  502    0 -0.00000000000E+00 -0.00000000000E+00 -0.45393234687E+03  0.45393234687E+03  0.00000000000E+00 0.  1.
         25    1    1    2    0    0  0.25306694930E+03  0.18285665256E+01  0.85328308857E+02  0.29487649071E+03  0.12500000000E+03 0.  0.
         21    1    1    2  503  501 -0.36447719198E+02  0.27942460074E+02  0.33178124365E+02  0.56656908194E+02  0.00000000000E+00 0. -1.
          4    1    1    2  501    0 -0.21661923010E+03 -0.29771026600E+02 -0.30199538155E+03  0.37284234651E+03  0.00000000000E+00 0.  1.
<mgrwt>
<rscale>  4 0.25633210E+03</rscale>
<asrwt>0</asrwt>
<pdfrwt beam="1">  1       21 0.41606677E-01 0.25633210E+03</pdfrwt>
<pdfrwt beam="2">  1        4 0.69835746E-01 0.25633210E+03</pdfrwt>
<totfact> 0.44590006E+02</totfact>
</mgrwt>
</event>
<event>
 5    0  0.4930573E+000  0.2489496E+03  0.7546771E-02  0.1113970E+00
          2   -1    0    0  502    0 -0.00000000000E+00  0.00000000000E+00  0.81806972575E+03  0.81806972575E+03  0.00000000000E+00 0.  1.
         21   -1    0    0  503  502  0.00000000000E+00 -0.00000000000E+00 -0.18481312867E+03  0.18481312867E+03  0.00000000000E+00 0.  1.
         25    1    1    2    0    0 -0.91893708436E+02 -0.23661110089E+03 -0.28495056212E+02  0.28436989107E+03  0.12500000000E+03 0.  0.
         21    1    1    2  503  501  0.18364701794E+02  0.38764019756E+02  0.29759549991E+02  0.52206726725E+02  0.00000000000E+00 0. -1.
          2    1    1    2  501    0  0.73529006642E+02  0.19784708114E+03  0.63199210330E+03  0.66630623663E+03  0.00000000000E+00 0.  1.
<mgrwt>
<rscale>  4 0.24894962E+03</rscale>
<asrwt>0</asrwt>
<pdfrwt beam="1">  1       21 0.28432789E-01 0.24894962E+03</pdfrwt>
<pdfrwt beam="2">  1        2 0.12585688E+00 0.24894962E+03</pdfrwt>
<totfact> 0.50619965E+03</totfact>
</mgrwt>
</event>
<event>
 5    0  0.4930573E+000  0.3081576E+03  0.7546771E-02  0.1081232E+00
         21   -1    0    0  503  502  0.00000000000E+00  0.00000000000E+00  0.62797594789E+02  0.62797594789E+02  0.00000000000E+00 0. -1.
          2   -1    0    0  502    0 -0.00000000000E+00 -0.00000000000E+00 -0.16068866430E+04  0.16068866430E+04  0.00000000000E+00 0.  1.
         25    1    1    2    0    0  0.17764553421E+03  0.23449759524E+03 -0.85442938926E+03  0.91226182603E+03  0.12500000000E+03 0.  0.
         21    1    1    2  503  501 -0.16425935819E+02 -0.17352843163E+02 -0.99488241357E+01  0.25882651237E+02  0.00000000000E+00 0. -1.
          2    1    1    2  501    0 -0.16121959840E+03 -0.21714475208E+03 -0.67971083485E+03  0.73153976056E+03  0.00000000000E+00 0.  1.
<mgrwt>
<rscale>  4 0.30815764E+03</rscale>
<asrwt>0</asrwt>
<pdfrwt beam="1">  1       21 0.96611695E-02 0.30815764E+03</pdfrwt>
<pdfrwt beam="2">  1        2 0.24721330E+00 0.30815764E+03</pdfrwt>
<totfact> 0.12859368E+04</totfact>
</mgrwt>
</event>
<event>
 5    0  0.4930573E+000  0.1903299E+03  0.7546771E-02  0.1158164E+00
          1   -1    0    0  502    0 -0.00000000000E+00  0.00000000000E+00  0.17557553509E+04  0.17557553509E+04  0.00000000000E+00 0. -1.
         21   -1    0    0  503  502  0.00000000000E+00 -0.00000000000E+00 -0.57799983469E+03  0.57799983469E+03  0.00000000000E+00 0.  1.
         25    1    1    2    0    0 -0.20679076857E+03  0.10421360621E+03  0.38183642667E+03  0.46373155426E+03  0.12500000000E+03 0.  0.
         21    1    1    2  503  501  0.10373502850E+03 -0.14678406634E+02 -0.52840017064E+03  0.53868650632E+03  0.00000000000E+00 0.  1.
          1    1    1    2  501    0  0.10305574007E+03 -0.89535199573E+02  0.13243192602E+04  0.13313371250E+04  0.00000000000E+00 0. -1.
<mgrwt>
<rscale>  4 0.19032991E+03</rscale>
<asrwt>0</asrwt>
<pdfrwt beam="1">  1       21 0.88923052E-01 0.19032991E+03</pdfrwt>
<pdfrwt beam="2">  1        1 0.27011621E+00 0.19032991E+03</pdfrwt>
<totfact> 0.60048088E+01</totfact>
</mgrwt>
</event>
<event>
 5    0  0.4930573E+000  0.3699669E+03  0.7546771E-02  0.1054706E+00
         21   -1    0    0  503  502  0.00000000000E+00  0.00000000000E+00  0.24878846671E+04  0.24878846671E+04  0.00000000000E+00 0.  1.
          2   -1    0    0  502    0 -0.00000000000E+00 -0.00000000000E+00 -0.19275329047E+03  0.19275329047E+03  0.00000000000E+00 0.  1.
         25    1    1    2    0    0 -0.18294679902E+03  0.31168155978E+03  0.78479589389E+03  0.87300888944E+03  0.12500000000E+03 0.  0.
         21    1    1    2  503  501 -0.16517690805E+01 -0.20151037656E+02  0.14585667773E+04  0.14587069056E+04  0.00000000000E+00 0.  1.
          2    1    1    2  501    0  0.18459856810E+03 -0.29153052212E+03  0.51768705525E+02  0.34892216259E+03  0.00000000000E+00 0.  1.
<mgrwt>
<rscale>  4 0.36996687E+03</rscale>
<asrwt>0</asrwt>
<pdfrwt beam="1">  1       21 0.38275146E+00 0.36996687E+03</pdfrwt>
<pdfrwt beam="2">  1        2 0.29654354E-01 0.36996687E+03</pdfrwt>
<totfact> 0.20242171E+01</totfact>
</mgrwt>
</event>
<event>
 5    0  0.4930573E+000  0.2736976E+03  0.7546771E-02  0.1099182E+00
         21   -1    0    0  503  502  0.00000000000E+00  0.00000000000E+00  0.98408510216E+03  0.98408510216E+03  0.00000000000E+00 0.  1.
          1   -1    0    0  502    0 -0.00000000000E+00 -0.00000000000E+00 -0.13763387631E+04  0.13763387631E+04  0.00000000000E+00 0.  1.
         25    1    1    2    0    0  0.25244797299E+03  0.71862190583E+00  0.60216009539E+03  0.66479491271E+03  0.12500000000E+03 0.  0.
         21    1    1    2  503  501 -0.13390030216E+03 -0.24741043090E+03  0.27716988994E+03  0.39492323320E+03  0.00000000000E+00 0.  1.
          1    1    1    2  501    0 -0.11854767084E+03  0.24669180899E+03 -0.12715836462E+04  0.13007057193E+04  0.00000000000E+00 0.  1.
<mgrwt>
<rscale>  4 0.27369764E+03</rscale>
<asrwt>0</asrwt>
<pdfrwt beam="1">  1       21 0.15139771E+00 0.27369764E+03</pdfrwt>
<pdfrwt beam="2">  1        1 0.21174442E+00 0.27369764E+03</pdfrwt>
<totfact> 0.26490519E+01</totfact>
</mgrwt>
</event>
<event>
 5    0  0.4930573E+000  0.2648161E+03  0.7546771E-02  0.1104284E+00
         21   -1    0    0  503  502  0.00000000000E+00  0.00000000000E+00  0.51093398487E+02  0.51093398487E+02  0.00000000000E+00 0. -1.
          2   -1    0    0  502    0 -0.00000000000E+00 -0.00000000000E+00 -0.16186589010E+04  0.16186589010E+04  0.00000000000E+00 0.  1.
         25    1    1    2    0    0  0.21888790560E+03  0.51138586531E+02 -0.46836216801E+03  0.53433621501E+03  0.12500000000E+03 0.  0.
         21    1    1    2  503  501  0.18384671997E+02 -0.33992993976E+02 -0.80377480122E+02  0.89185531981E+02  0.00000000000E+00 0. -1.
          2    1    1    2  501    0 -0.23727257759E+03 -0.17145592555E+02 -0.10188258543E+04  0.10462305525E+04  0.00000000000E+00 0.  1.
<mgrwt>
<rscale>  4 0.26481610E+03</rscale>
<asrwt>0</asrwt>
<pdfrwt beam="1">  1       21 0.78605241E-02 0.26481610E+03</pdfrwt>
<pdfrwt beam="2">  1        2 0.24902441E+00 0.26481610E+03</pdfrwt>
<totfact> 0.18434902E+04</totfact>
</mgrwt>
</event>
<event>
 5    0  0.4930573E+000  0.2295407E+03  0.7546771E-02  0.1126963E+00
          2   -1    0    0  502    0 -0.00000000000E+00  0.00000000000E+00  0.21417049678E+04  0.21417049678E+04  0.00000000000E+00 0.  1.
         21   -1    0    0  503  502  0.00000000000E+00 -0.00000000000E+00 -0.11351120227E+03  0.11351120227E+03  0.00000000000E+00 0.  1.
         25    1    1    2    0    0  0.10628421548E+03  0.19458814917E+03  0.70364225517E+02  0.26407765239E+03  0.12500000000E+03 0.  0.
         21    1    1    2  503  501  0.36433270469E+01 -0.14435358452E+03  0.34787915215E+03  0.37665784964E+03  0.00000000000E+00 0.  1.
          2    1    1    2  501    0 -0.10992754252E+03 -0.50234564652E+02  0.16099503879E+04  0.16144806681E+04  0.00000000000E+00 0.  1.
<mgrwt>
<rscale>  4 0.22954065E+03</rscale>
<asrwt>0</asrwt>
<pdfrwt beam="1">  1       21 0.17463263E-01 0.22954065E+03</pdfrwt>
<pdfrwt beam="2">  1        2 0.32949304E+00 0.22954065E+03</pdfrwt>
<totfact> 0.23627245E+03</totfact>
</mgrwt>
</event>
<event>
 5    0  0.4930573E+000  0.2383891E+03  0.7546771E-02  0.1120871E+00
          1   -1    0    0  502    0 -0.00000000000E+00  0.00000000000E+00  0.31233150466E+03  0.31233150466E+03  0.00000000000E+00 0.  1.
         21   -1    0    0  503  502  0.00000000000E+00 -0.00000000000E+00 -0.18373704509E+04  0.18373704509E+04  0.00000000000E+00 0.  1.
         25    1    1    2    0    0 -0.18397758285E+03  0.15668117705E+03  0.20442417169E+01  0.27207705003E+03  0.12500000000E+03 0.  0.
         21    1    1    2  503  501  0.50998405999E+02 -0.22902971618E+02 -0.16509934379E+04  0.16519396828E+04  0.00000000000E+00 0.  1.
          1    1    1    2  501    0  0.13297917685E+03 -0.13377820543E+03  0.12391024995E+03  0.22568522274E+03  0.00000000000E+00 0.  1.
<mgrwt>
<rscale>  4 0.23838907E+03</rscale>
<asrwt>0</asrwt>
<pdfrwt beam="1">  1       21 0.28267236E+00 0.23838907E+03</pdfrwt>
<pdfrwt beam="2">  1        1 0.48051003E-01 0.23838907E+03</pdfrwt>
<totfact> 0.37157198E+01</totfact>
</mgrwt>
</event>
<event>
 5    0  0.4930573E+000  0.2473119E+03  0.7546771E-02  0.1115015E+00
          1   -1    0    0  502    0 -0.00000000000E+00  0.00000000000E+00  0.16922736293E+03  0.16922736293E+03  0.00000000000E+00 0. -1.
         21   -1    0    0  503  502  0.00000000000E+00 -0.00000000000E+00 -0.71651105405E+03  0.71651105405E+03  0.00000000000E+00 0. -1.
         25    1    1    2    0    0 -0.19442384260E+03  0.84993903745E+02 -0.53497247886E+03  0.58893560547E+03  0.12500000000E+03 0.  0.
         21    1    1    2  503  501 -0.11362491406E+02 -0.26908859259E+02 -0.69560847995E+02  0.75444711487E+02  0.00000000000E+00 0.  1.
          1    1    1    2  501    0  0.20578633400E+03 -0.58085044487E+02  0.57249635735E+02  0.22135810002E+03  0.00000000000E+00 0. -1.
<mgrwt>
<rscale>  4 0.24731192E+03</rscale>
<asrwt>0</asrwt>
<pdfrwt beam="1">  1       21 0.11023247E+00 0.24731192E+03</pdfrwt>
<pdfrwt beam="2">  1        1 0.26034979E-01 0.24731192E+03</pdfrwt>
<totfact> 0.12455357E+03</totfact>
</mgrwt>
</event>
<event>
 5    0  0.4930573E+000  0.2860961E+03  0.7546771E-02  0.1092405E+00
          2   -1    0    0  502    0 -0.00000000000E+00  0.00000000000E+00  0.21611082673E+04  0.21611082673E+04  0.00000000000E+00 0.  1.
         21   -1    0    0  503  502  0.00000000000E+00 -0.00000000000E+00 -0.84914367274E+03  0.84914367274E+03  0.00000000000E+00 0.  1.
         25    1    1    2    0    0  0.19472026442E+03  0.18250317292E+03 -0.72930866007E+03  0.78659996896E+03  0.12500000000E+03 0.  0.
         21    1    1    2  503  501  0.13856526243E+02 -0.31895219551E+02 -0.79792388111E+02  0.87040987759E+02  0.00000000000E+00 0. -1.
          2    1    1    2  501    0 -0.20857679067E+03 -0.15060795337E+03  0.21210656428E+04  0.21366109834E+04  0.00000000000E+00 0.  1.
<mgrwt>
<rscale>  4 0.28609615E+03</rscale>
<asrwt>0</asrwt>
<pdfrwt beam="1">  1       21 0.13063749E+00 0.28609615E+03</pdfrwt>
<pdfrwt beam="2">  1        2 0.33247819E+00 0.28609615E+03</pdfrwt>
<totfact> 0.30927150E+01</totfact>
</mgrwt>
</event>
<event>
 5    0  0.4930573E+000  0.2389559E+03  0.7546771E-02  0.1120490E+00
          2   -1    0    0  502    0 -0.00000000000E+00  0.00000000000E+00  0.44593947072E+03  0.44593947072E+03  0.00000000000E+00 0. -1.
         21   -1    0    0  503  502  0.00000000000E+00 -0.00000000000E+00 -0.15684693415E+03  0.15684693415E+03  0.00000000000E+00 0. -1.
         25    1    1    2    0    0 -0.14471515186E+03  0.17860664723E+03  0.91654658580E+02  0.27725148521E+03  0.12500000000E+03 0.  0.
         21    1    1    2  503  501  0.56995476704E+01 -0.44406686491E+02 -0.57536944073E+01  0.45139158700E+02  0.00000000000E+00 0.  1.
          2    1    1    2  501    0  0.13901560419E+03 -0.13419996074E+03  0.20319157239E+03  0.28039576096E+03  0.00000000000E+00 0. -1.
<mgrwt>
<rscale>  4 0.23895588E+03</rscale>
<asrwt>0</asrwt>
<pdfrwt beam="1">  1       21 0.24130298E-01 0.23895588E+03</pdfrwt>
<pdfrwt beam="2">  1        2 0.68606072E-01 0.23895588E+03</pdfrwt>
<totfact> 0.14206484E+04</totfact>
</mgrwt>
</event>
<event>
 5    0  0.4930573E+000  0.3291555E+03  0.7546771E-02  0.1071511E+00
         21   -1    0    0  503  502  0.00000000000E+00  0.00000000000E+00  0.18963536924E+03  0.18963536924E+03  0.00000000000E+00 0. -1.
          2   -1    0    0  502    0 -0.00000000000E+00 -0.00000000000E+00 -0.34036887277E+04  0.34036887277E+04  0.00000000000E+00 0. -1.
         25    1    1    2    0    0  0.28703349706E+03  0.51381318886E+02 -0.45692131459E+02  0.32053243087E+03  0.12500000000E+03 0.  0.
         21    1    1    2  503  501  0.18174910901E+02 -0.42451876218E+02  0.33091255948E+02  0.56811270017E+02  0.00000000000E+00 0. -1.
          2    1    1    2  501    0 -0.30520840796E+03 -0.89294426677E+01 -0.32014524830E+04  0.32159803961E+04  0.00000000000E+00 0. -1.
<mgrwt>
<rscale>  4 0.32915551E+03</rscale>
<asrwt>0</asrwt>
<pdfrwt beam="1">  1       21 0.29174674E-01 0.32915551E+03</pdfrwt>
<pdfrwt beam="2">  1        2 0.52364440E+00 0.32915551E+03</pdfrwt>
<totfact> 0.15716732E+02</totfact>
</mgrwt>
</event>
<event>
 5    0  0.4930573E+000  0.2627739E+03  0.7546771E-02  0.1105488E+00
          2   -1    0    0  502    0 -0.00000000000E+00  0.00000000000E+00  0.91915264254E+03  0.91915264254E+03  0.00000000000E+00 0.  1.
         21   -1    0    0  503  502  0.00000000000E+00 -0.00000000000E+00 -0.97075762948E+02  0.97075762948E+02  0.00000000000E+00 0. -1.
         25    1    1    2    0    0  0.85797396487E+02 -0.23128966595E+03  0.19922740675E+03  0.34084111022E+03  0.12500000000E+03 0.  0.
         21    1    1    2  503  501 -0.23311775123E+02  0.13356890251E+02  0.28030684243E+02  0.38827369672E+02  0.00000000000E+00 0.  1.
          2    1    1    2  501    0 -0.62485621364E+02  0.21793277570E+03  0.59481878860E+03  0.63655992560E+03  0.00000000000E+00 0.  1.
<mgrwt>
<rscale>  4 0.26277390E+03</rscale>
<asrwt>0</asrwt>
<pdfrwt beam="1">  1       21 0.14934733E-01 0.26277390E+03</pdfrwt>
<pdfrwt beam="2">  1        2 0.14140809E+00 0.26277390E+03</pdfrwt>
<totfact> 0.14578294E+04</totfact>
</mgrwt>
</event>
<event>
 5    0  0.4930573E+000  0.2255697E+03  0.7546771E-02  0.1129797E+00
         -1   -1    0    0    0  501 -0.00000000000E+00  0.00000000000E+00  0.12211784100E+04  0.12211784100E+04  0.00000000000E+00 0.  1.
         21   -1    0    0  501  502  0.00000000000E+00 -0.00000000000E+00 -0.46544051083E+02  0.46544051083E+02  0.00000000000E+00 0.  1.
         25    1    1    2    0    0  0.68253218075E+02 -0.19034762951E+03  0.60268491604E+03  0.64787717190E+03  0.12500000000E+03 0.  0.
         21    1    1    2  503  502  0.89857035426E+01  0.28656027141E+02  0.12731600985E+02  0.32619080664E+02  0.00000000000E+00 0.  1.
         -1    1    1    2    0  503 -0.77238921617E+02  0.16169160237E+03  0.55921784188E+03  0.58722620851E+03  0.00000000000E+00 0.  1.
<mgrwt>
<rscale>  4 0.22556969E+03</rscale>
<asrwt>0</asrwt>
<pdfrwt beam="1">  1       21 0.71606242E-02 0.22556969E+03</pdfrwt>
<pdfrwt beam="2">  1       -1 0.18787358E+00 0.22556969E+03</pdfrwt>
<totfact> 0.27678879E+03</totfact>
</mgrwt>
</event>
<event>
 5    0  0.4930573E+000  0.2584921E+03  0.7546771E-02  0.1108053E+00
         21   -1    0    0  503  502  0.00000000000E+00  0.00000000000E+00  0.41090428725E+03  0.41090428725E+03  0.00000000000E+00 0. -1.
          2   -1    0    0  502    0 -0.00000000000E+00 -0.00000000000E+00 -0.89699999259E+03  0.89699999259E+03  0.00000000000E+00 0.  1.
         25    1    1    2    0    0 -0.18872864811E+03  0.76636390616E+02  0.33681061336E+03  0.41298671680E+03  0.12500000000E+03 0.  0.
         21    1    1    2  503  501 -0.22137668590E+02  0.78722302405E+01  0.14254724338E+02  0.27481731123E+02  0.00000000000E+00 0. -1.
          2    1    1    2  501    0  0.21086631670E+03 -0.84508620856E+02 -0.83716104303E+03  0.86743583191E+03  0.00000000000E+00 0.  1.
<mgrwt>
<rscale>  4 0.25849210E+03</rscale>
<asrwt>0</asrwt>
<pdfrwt beam="1">  1       21 0.63216044E-01 0.25849210E+03</pdfrwt>
<pdfrwt beam="2">  1        2 0.13800000E+00 0.25849210E+03</pdfrwt>
<totfact> 0.86532441E+02</totfact>
</mgrwt>
</event>
<event>
 5    0  0.4930573E+000  0.1839707E+03  0.7546771E-02  0.1164015E+00
         21   -1    0    0  503  502  0.00000000000E+00  0.00000000000E+00  0.35873485820E+03  0.35873485820E+03  0.00000000000E+00 0. -1.
          2   -1    0    0  502    0 -0.00000000000E+00 -0.00000000000E+00 -0.65841035682E+03  0.65841035682E+03  0.00000000000E+00 0. -1.
         25    1    1    2    0    0  0.23009094492E+03 -0.64351145493E+02  0.12234578607E+03  0.29610201659E+03  0.12500000000E+03 0.  0.
         21    1    1    2  503  501 -0.11030698845E+03  0.10858013256E+02  0.12000895640E+03  0.16336363661E+03  0.00000000000E+00 0. -1.
          2    1    1    2  501    0 -0.11978395647E+03  0.53493132237E+02 -0.54203024108E+03  0.55767956182E+03  0.00000000000E+00 0. -1.
<mgrwt>
<rscale>  4 0.18397071E+03</rscale>
<asrwt>0</asrwt>
<pdfrwt beam="1">  1       21 0.55189978E-01 0.18397071E+03</pdfrwt>
<pdfrwt beam="2">  1        2 0.10129390E+00 0.18397071E+03</pdfrwt>
<totfact> 0.17696415E+03</totfact>
</mgrwt>
</event>
<event>
 5    0  0.4930573E+000  0.4028670E+03  0.7546771E-02  0.1042791E+00
          2   -1    0    0  502    0 -0.00000000000E+00  0.00000000000E+00  0.51164252905E+03  0.51164252905E+03  0.00000000000E+00 0.  1.
         21   -1    0    0  503  502  0.00000000000E+00 -0.00000000000E+00 -0.46631142552E+03  0.46631142552E+03  0.00000000000E+00 0.  1.
         25    1    1    2    0    0  0.24683480404E+03 -0.27983557948E+03  0.23925600381E+03  0.46054729115E+03  0.12500000000E+03 0.  0.
         21    1    1    2  503  501  0.62887441571E+02  0.55254709082E+01 -0.73641978525E+01  0.63557789028E+02  0.00000000000E+00 0.  1.
          2    1    1    2  501    0 -0.30972224561E+03  0.27431010858E+03 -0.18656070242E+03  0.45384887438E+03  0.00000000000E+00 0.  1.
<mgrwt>
<rscale>  4 0.40286697E+03</rscale>
<asrwt>0</asrwt>
<pdfrwt beam="1">  1       21 0.71740219E-01 0.40286697E+03</pdfrwt>
<pdfrwt beam="2">  1        2 0.78714235E-01 0.40286697E+03</pdfrwt>
<totfact> 0.12385283E+03</totfact>
</mgrwt>
</event>
<event>
 5    0  0.4930573E+000  0.2715712E+03  0.7546771E-02  0.1100384E+00
         21   -1    0    0  503  502  0.00000000000E+00  0.00000000000E+00  0.51258942464E+02  0.51258942464E+02  0.00000000000E+00 0. -1.
          1   -1    0    0  502    0 -0.00000000000E+00 -0.00000000000E+00 -0.20255569061E+04  0.20255569061E+04  0.00000000000E+00 0.  1.
         25    1    1    2    0    0 -0.11124618762E+03  0.21527229520E+03 -0.47947312210E+03  0.55157714797E+03  0.12500000000E+03 0.  0.
         21    1    1    2  503  501 -0.18031919611E+02 -0.11919319129E+02 -0.15955458733E+02  0.26866279176E+02  0.00000000000E+00 0.  1.
          1    1    1    2  501    0  0.12927810723E+03 -0.20335297607E+03 -0.14788693828E+04  0.14983724214E+04  0.00000000000E+00 0.  1.
<mgrwt>
<rscale>  4 0.27157119E+03</rscale>
<asrwt>0</asrwt>
<pdfrwt beam="1">  1       21 0.78859901E-02 0.27157119E+03</pdfrwt>
<pdfrwt beam="2">  1        1 0.31162418E+00 0.27157119E+03</pdfrwt>
<totfact> 0.44279308E+03</totfact>
</mgrwt>
</event>
<event>
 5    0  0.4930573E+000  0.2934243E+03  0.7546771E-02  0.1088575E+00
         21   -1    0    0  503  502  0.00000000000E+00  0.00000000000E+00  0.14250284078E+03  0.14250284078E+03  0.00000000000E+00 0. -1.
          2   -1    0    0  502    0 -0.00000000000E+00 -0.00000000000E+00 -0.13261623960E+04  0.13261623960E+04  0.00000000000E+00 0.  1.
         25    1    1    2    0    0  0.10577838102E+03  0.19398363855E+03 -0.94781123466E+03  0.98121855591E+03  0.12500000000E+03 0.  0.
         21    1    1    2  503  501 -0.99470204806E+02 -0.25400214838E+03 -0.31765390233E+02  0.27462784463E+03  0.00000000000E+00 0. -1.
          2    1    1    2  501    0 -0.63081762170E+01  0.60018509836E+02 -0.20408293028E+03  0.21281883621E+03  0.00000000000E+00 0.  1.
<mgrwt>
<rscale>  4 0.29342434E+03</rscale>
<asrwt>0</asrwt>
<pdfrwt beam="1">  1       21 0.21923514E-01 0.29342434E+03</pdfrwt>
<pdfrwt beam="2">  1        2 0.20402498E+00 0.29342434E+03</pdfrwt>
<totfact> 0.40670767E+03</totfact>
</mgrwt>
</event>
<event>
 5    0  0.4930573E+000  0.3488021E+03  0.7546771E-02  0.1063108E+00
          2   -1    0    0  502    0 -0.00000000000E+00  0.00000000000E+00  0.10016257022E+04  0.10016257022E+04  0.00000000000E+00 0. -1.
         21   -1    0    0  503  502  0.00000000000E+00 -0.00000000000E+00 -0.15249011190E+03  0.15249011190E+03  0.00000000000E+00 0. -1.
         25    1    1    2    0    0  0.26738858904E+03  0.12781722697E+03  0.20197384702E+03  0.37980565548E+03  0.12500000000E+03 0.  0.
         21    1    1    2  503  501  0.87298648478E+01  0.76112390916E+02  0.75852193005E+02  0.10780937703E+03  0.00000000000E+00 0. -1.
          2    1    1    2  501    0 -0.27611845389E+03 -0.20392961788E+03  0.57130955031E+03  0.66650078162E+03  0.00000000000E+00 0. -1.
<mgrwt>
<rscale>  4 0.34880213E+03</rscale>
<asrwt>0</asrwt>
<pdfrwt beam="1">  1       21 0.23460018E-01 0.34880213E+03</pdfrwt>
<pdfrwt beam="2">  1        2 0.15409626E+00 0.34880213E+03</pdfrwt>
<totfact> 0.54416016E+03</totfact>
</mgrwt>
</event>
<event>
 5    0  0.4930573E+000  0.1884420E+03  0.7546771E-02  0.1159874E+00
         21   -1    0    0  501  502  0.00000000000E+00  0.00000000000E+00  0.43972619047E+03  0.43972619047E+03  0.00000000000E+00 0. -1.
         -3   -1    0    0    0  501 -0.00000000000E+00 -0.00000000000E+00 -0.46480843958E+03  0.46480843958E+03  0.00000000000E+00 0.  1.
         25    1    1    2    0    0 -0.18677074023E+03 -0.72340605054E+02  0.14198955007E+03  0.27550409230E+03  0.12500000000E+03 0.  0.
         21    1    1    2  503  502  0.48840108353E+02  0.65542366556E+02  0.21113234886E+03  0.22640235585E+03  0.00000000000E+00 0. -1.
         -3    1    1    2    0  503  0.13793063188E+03  0.67982384987E+01 -0.37820414804E+03  0.40262818189E+03  0.00000000000E+00 0.  1.
<mgrwt>
<rscale>  4 0.18844195E+03</rscale>
<asrwt>0</asrwt>
<pdfrwt beam="1">  1       21 0.67650183E-01 0.18844195E+03</pdfrwt>
<pdfrwt beam="2">  1       -3 0.71508991E-01 0.18844195E+03</pdfrwt>
<totfact> 0.18778594E+02</totfact>
</mgrwt>
</event>
<event>
 5    0  0.4930573E+000  0.4336466E+03  0.7546771E-02  0.1051017E+00
          2   -1    0    0  502    0 -0.00000000000E+00  0.00000000000E+00  0.15677374396E+04  0.15677374396E+04  0.00000000000E+00 0. -1.
         21   -1    0    0  503  502  0.00000000000E+00 -0.00000000000E+00 -0.28439263145E+03  0.28439263145E+03  0.00000000000E+00 0.  1.
         25    1    1    2    0    0  0.64257725568E+02  0.21288033773E+03  0.87951952884E+02  0.26982890784E+03  0.12500000000E+03 0.  0.
         21    1    1    2  503  501  0.14281330122E+03  0.22768887595E+03 -0.23495965304E+02  0.26979607785E+03  0.00000000000E+00 0.  1.
          2    1    1    2  501    0 -0.20707102679E+03 -0.44056921368E+03  0.12188888205E+04  0.13125050853E+04  0.00000000000E+00 0. -1.
<mgrwt>
<rscale>  4 0.37977496E+03</rscale>
<asrwt>0</asrwt>
<pdfrwt beam="1">  1       21 0.43752714E-01 0.43364663E+03</pdfrwt>
<pdfrwt beam="2">  1        2 0.24119037E+00 0.43364663E+03</pdfrwt>
<totfact> 0.72773413E+02</totfact>
</mgrwt>
</event>
<event>
 5    0  0.4930573E+000  0.3172257E+03  0.7546771E-02  0.1076933E+00
         -3   -1    0    0    0  501 -0.00000000000E+00  0.00000000000E+00  0.11768563195E+04  0.11768563195E+04  0.00000000000E+00 0.  1.
         21   -1    0    0  501  502  0.00000000000E+00 -0.00000000000E+00 -0.12848135432E+03  0.12848135432E+03  0.00000000000E+00 0.  1.
         25    1    1    2    0    0  0.15855177539E+03  0.26625824967E+03  0.54393181748E+03  0.63837210392E+03  0.12500000000E+03 0.  0.
         21    1    1    2  503  502 -0.36085317577E+02 -0.15675164732E+02 -0.39458990798E+02  0.55721386278E+02  0.00000000000E+00 0. -1.
         -3    1    1    2    0  503 -0.12246645781E+03 -0.25058308494E+03  0.54390213846E+03  0.61124418359E+03  0.00000000000E+00 0.  1.
<mgrwt>
<rscale>  4 0.31722570E+03</rscale>
<asrwt>0</asrwt>
<pdfrwt beam="1">  1       21 0.19766363E-01 0.31722570E+03</pdfrwt>
<pdfrwt beam="2">  1       -3 0.18105481E+00 0.31722570E+03</pdfrwt>
<totfact> 0.23876442E+02</totfact>
</mgrwt>
</event>
<event>
 5    0  0.4930573E+000  0.2327972E+03  0.7546771E-02  0.1124686E+00
          2   -1    0    0  502    0 -0.00000000000E+00  0.00000000000E+00  0.21075813085E+04  0.21075813085E+04  0.00000000000E+00 0.  1.
         21   -1    0    0  503  502  0.00000000000E+00 -0.00000000000E+00 -0.52341047785E+03  0.52341047785E+03  0.00000000000E+00 0.  1.
         25    1    1    2    0    0 -0.25112327968E+03  0.20328507890E+02 -0.37987659118E+03  0.47265989290E+03  0.12500000000E+03 0.  0.
         21    1    1    2  503  501  0.58714482700E+02  0.15941671182E+02 -0.82462323486E+02  0.10247712991E+03  0.00000000000E+00 0.  1.
          2    1    1    2  501    0  0.19240879698E+03 -0.36270179072E+02  0.20465097454E+04  0.20558547636E+04  0.00000000000E+00 0.  1.
<mgrwt>
<rscale>  4 0.23279723E+03</rscale>
<asrwt>0</asrwt>
<pdfrwt beam="1">  1       21 0.80524690E-01 0.23279723E+03</pdfrwt>
<pdfrwt beam="2">  1        2 0.32424327E+00 0.23279723E+03</pdfrwt>
<totfact> 0.11058751E+02</totfact>
</mgrwt>
</event>
<event>
 5    0  0.4930573E+000  0.2493104E+03  0.7546771E-02  0.1113741E+00
          2   -1    0    0  502    0 -0.00000000000E+00  0.00000000000E+00  0.14378665301E+04  0.14378665301E+04  0.00000000000E+00 0.  1.
         21   -1    0    0  503  502  0.00000000000E+00 -0.00000000000E+00 -0.74828654604E+02  0.74828654604E+02  0.00000000000E+00 0.  1.
         25    1    1    2    0    0  0.53479064828E+02 -0.20521141333E+03  0.63685743683E+03  0.68277677859E+03  0.12500000000E+03 0.  0.
         21    1    1    2  503  501  0.41881802382E+02  0.71104261980E+01 -0.23580418027E+02  0.48586825847E+02  0.00000000000E+00 0. -1.
          2    1    1    2  501    0 -0.95360867211E+02  0.19810098713E+03  0.74976085670E+03  0.78133158028E+03  0.00000000000E+00 0.  1.
<mgrwt>
<rscale>  4 0.24931036E+03</rscale>
<asrwt>0</asrwt>
<pdfrwt beam="1">  1       21 0.11512102E-01 0.24931036E+03</pdfrwt>
<pdfrwt beam="2">  1        2 0.22121021E+00 0.24931036E+03</pdfrwt>
<totfact> 0.11755231E+04</totfact>
</mgrwt>
</event>
<event>
 5    0  0.4930573E+000  0.2228399E+03  0.7546771E-02  0.1131783E+00
         21   -1    0    0  501  502  0.00000000000E+00  0.00000000000E+00  0.72250380025E+03  0.72250380025E+03  0.00000000000E+00 0.  1.
         -3   -1    0    0    0  501 -0.00000000000E+00 -0.00000000000E+00 -0.15356015329E+03  0.15356015329E+03  0.00000000000E+00 0.  1.
         25    1    1    2    0    0  0.28758697175E+02 -0.20609254498E+03  0.58021894849E+03  0.62895168968E+03  0.12500000000E+03 0.  0.
         21    1    1    2  503  502  0.49820000772E+01  0.27321291650E+02  0.48269162301E+02  0.55688287201E+02  0.00000000000E+00 0.  1.
         -3    1    1    2    0  503 -0.33740697253E+02  0.17877125333E+03 -0.59544463833E+02  0.19142397666E+03  0.00000000000E+00 0.  1.
<mgrwt>
<rscale>  4 0.22283993E+03</rscale>
<asrwt>0</asrwt>
<pdfrwt beam="1">  1       21 0.11115443E+00 0.22283993E+03</pdfrwt>
<pdfrwt beam="2">  1       -3 0.23624639E-01 0.22283993E+03</pdfrwt>
<totfact> 0.51880804E+02</totfact>
</mgrwt>
</event>
<event>
 5    0  0.4930573E+000  0.2389666E+03  0.7546771E-02  0.1120483E+00
         21   -1    0    0  503  502  0.00000000000E+00  0.00000000000E+00  0.88804249416E+03  0.88804249416E+03  0.00000000000E+00 0.  1.
          1   -1    0    0  502    0 -0.00000000000E+00 -0.00000000000E+00 -0.15786176694E+03  0.15786176694E+03  0.00000000000E+00 0.  1.
         25    1    1    2    0    0 -0.44751918255E+02  0.22940031204E+03  0.58355286888E+03  0.64092603952E+03  0.12500000000E+03 0.  0.
         21    1    1    2  503  501 -0.79281095337E+02 -0.16843848364E+03  0.18406206377E+03  0.26179354112E+03  0.00000000000E+00 0.  1.
          1    1    1    2  501    0  0.12403301359E+03 -0.60961828401E+02 -0.37434205434E+02  0.14318468046E+03  0.00000000000E+00 0.  1.
<mgrwt>
<rscale>  4 0.23896658E+03</rscale>
<asrwt>0</asrwt>
<pdfrwt beam="1">  1       21 0.13662192E+00 0.23896658E+03</pdfrwt>
<pdfrwt beam="2">  1        1 0.24286426E-01 0.23896658E+03</pdfrwt>
<totfact> 0.79769960E+02</totfact>
</mgrwt>
</event>
<event>
 5    0  0.4930573E+000  0.2838067E+03  0.7546771E-02  0.1093628E+00
          2   -1    0    0  502    0 -0.00000000000E+00  0.00000000000E+00  0.10674749173E+04  0.10674749173E+04  0.00000000000E+00 0.  1.
         21   -1    0    0  503  502  0.00000000000E+00 -0.00000000000E+00 -0.31394430009E+03  0.31394430009E+03  0.00000000000E+00 0.  1.
         25    1    1    2    0    0  0.11079175523E+03  0.29684566384E+03 -0.11043714491E+03  0.35806916112E+03  0.12500000000E+03 0.  0.
         21    1    1    2  503  501 -0.36013211794E+02 -0.57934124210E+02 -0.44217871786E+02  0.81292892414E+02  0.00000000000E+00 0.  1.
          2    1    1    2  501    0 -0.74778543432E+02 -0.23891153963E+03  0.90818563395E+03  0.94205716389E+03  0.00000000000E+00 0.  1.
<mgrwt>
<rscale>  4 0.28380672E+03</rscale>
<asrwt>0</asrwt>
<pdfrwt beam="1">  1       21 0.48299124E-01 0.28380672E+03</pdfrwt>
<pdfrwt beam="2">  1        2 0.16422691E+00 0.28380672E+03</pdfrwt>
<totfact> 0.11920192E+03</totfact>
</mgrwt>
</event>
<event>
 5    0  0.4930573E+000  0.2634418E+03  0.7546771E-02  0.1105093E+00
          1   -1    0    0  502    0 -0.00000000000E+00  0.00000000000E+00  0.68521715473E+03  0.68521715473E+03  0.00000000000E+00 0. -1.
         21   -1    0    0  503  502  0.00000000000E+00 -0.00000000000E+00 -0.18215790606E+04  0.18215790606E+04  0.00000000000E+00 0. -1.
         25    1    1    2    0    0  0.58762652095E+02 -0.19753982737E+03 -0.49165610019E+03  0.54756346987E+03  0.12500000000E+03 0.  0.
         21    1    1    2  503  501  0.26098831682E+02 -0.19403922406E+02 -0.12811155226E+04  0.12815282452E+04  0.00000000000E+00 0. -1.
          1    1    1    2  501    0 -0.84861483777E+02  0.21694374978E+03  0.63640971683E+03  0.67770450026E+03  0.00000000000E+00 0. -1.
<mgrwt>
<rscale>  4 0.26344176E+03</rscale>
<asrwt>0</asrwt>
<pdfrwt beam="1">  1       21 0.28024292E+00 0.26344176E+03</pdfrwt>
<pdfrwt beam="2">  1        1 0.10541803E+00 0.26344176E+03</pdfrwt>
<totfact> 0.13195053E+01</totfact>
</mgrwt>
</event>
<event>
 5    0  0.4930573E+000  0.3673193E+03  0.7546771E-02  0.1055723E+00
         21   -1    0    0  503  502  0.00000000000E+00  0.00000000000E+00  0.25509234201E+03  0.25509234201E+03  0.00000000000E+00 0.  1.
          1   -1    0    0  502    0 -0.00000000000E+00 -0.00000000000E+00 -0.10274084908E+04  0.10274084908E+04  0.00000000000E+00 0.  1.
         25    1    1    2    0    0  0.32090081071E+03 -0.11246953955E+03  0.44714659977E+02  0.36503579066E+03  0.12500000000E+03 0.  0.
         21    1    1    2  503  501  0.26122659519E+02 -0.25091047872E+02 -0.32553631204E+02  0.48700030063E+02  0.00000000000E+00 0. -1.
          1    1    1    2  501    0 -0.34702347023E+03  0.13756058742E+03 -0.78447717757E+03  0.86876501209E+03  0.00000000000E+00 0.  1.
<mgrwt>
<rscale>  4 0.36731933E+03</rscale>
<asrwt>0</asrwt>
<pdfrwt beam="1">  1       21 0.39244976E-01 0.36731933E+03</pdfrwt>
<pdfrwt beam="2">  1        1 0.15806284E+00 0.36731933E+03</pdfrwt>
<totfact> 0.99851957E+02</totfact>
</mgrwt>
</event>
<event>
 5    0  0.4930573E+000  0.2826708E+03  0.7546771E-02  0.1094239E+00
         21   -1    0    0  503  502  0.00000000000E+00  0.00000000000E+00  0.12510587849E+04  0.12510587849E+04  0.00000000000E+00 0. -1.
          2   -1    0    0  502    0 -0.00000000000E+00 -0.00000000000E+00 -0.25220956512E+03  0.25220956512E+03  0.00000000000E+00 0.  1.
         25    1    1    2    0    0 -0.31274372478E+02 -0.22821876029E+03  0.24361126882E+03  0.35781746634E+03  0.12500000000E+03 0.  0.
         21    1    1    2  503  501  0.11863892684E+03 -0.23961045509E+02  0.85276031938E+03  0.86130684949E+03  0.00000000000E+00 0. -1.
          2    1    1    2  501    0 -0.87364554365E+02  0.25217980580E+03 -0.97522368440E+02  0.28414403418E+03  0.00000000000E+00 0.  1.
<mgrwt>
<rscale>  4 0.28267081E+03</rscale>
<asrwt>0</asrwt>
<pdfrwt beam="1">  1       21 0.19247058E+00 0.28267081E+03</pdfrwt>
<pdfrwt beam="2">  1        2 0.38801472E-01 0.28267081E+03</pdfrwt>
<totfact> 0.23080005E+02</totfact>
</mgrwt>
</event>
<event>
 5    0  0.4930573E+000  0.2480498E+03  0.7546771E-02  0.1114544E+00
          2   -1    0    0  502    0 -0.00000000000E+00  0.00000000000E+00  0.81994728158E+03  0.81994728158E+03  0.00000000000E+00 0.  1.
         21   -1    0    0  503  502  0.00000000000E+00 -0.00000000000E+00 -0.51903805779E+03  0.51903805779E+03  0.00000000000E+00 0. -1.
         25    1    1    2    0    0 -0.18823626834E+03 -0.10862184076E+03 -0.39733515720E+03  0.46982105546E+03  0.12500000000E+03 0.  0.
         21    1    1    2  503  501 -0.10145599305E+02  0.27800708605E+02 -0.67669807149E+02  0.73858075955E+02  0.00000000000E+00 0. -1.
          2    1    1    2  501    0  0.19838186764E+03  0.80821132150E+02  0.76591418814E+03  0.79530620795E+03  0.00000000000E+00 0.  1.
<mgrwt>
<rscale>  4 0.24804983E+03</rscale>
<asrwt>0</asrwt>
<pdfrwt beam="1">  1       21 0.79852009E-01 0.24804983E+03</pdfrwt>
<pdfrwt beam="2">  1        2 0.12614574E+00 0.24804983E+03</pdfrwt>
<totfact> 0.58157978E+02</totfact>
</mgrwt>
</event>
<event>
 5    0  0.4930573E+000  0.3372411E+03  0.7546771E-02  0.1068727E+00
          2   -1    0    0  502    0 -0.00000000000E+00  0.00000000000E+00  0.72272509516E+03  0.72272509516E+03  0.00000000000E+00 0. -1.
         21   -1    0    0  503  502  0.00000000000E+00 -0.00000000000E+00 -0.43710880331E+03  0.43710880331E+03  0.00000000000E+00 0. -1.
         25    1    1    2    0    0  0.21818199606E+02  0.31623224949E+03 -0.41915876610E+02  0.34330862233E+03  0.12500000000E+03 0.  0.
         21    1    1    2  503  501  0.31704747013E+03 -0.13378152756E+03  0.63827287045E+02  0.34998645403E+03  0.00000000000E+00 0. -1.
          2    1    1    2  501    0 -0.33886566973E+03 -0.18245072193E+03  0.26370488141E+03  0.46653882211E+03  0.00000000000E+00 0. -1.
<mgrwt>
<rscale>  4 0.33550501E+03</rscale>
<asrwt>0</asrwt>
<pdfrwt beam="1">  1       21 0.67247508E-01 0.33724107E+03</pdfrwt>
<pdfrwt beam="2">  1        2 0.11118848E+00 0.33724107E+03</pdfrwt>
<totfact> 0.96759078E+02</totfact>
</mgrwt>
</event>
