<event>
 5    0  0.2754780E-002  0.7615340E+03  0.7546771E-02  0.9617427E-01
         -2   -1    0    0    0  501 -0.00000000000E+00  0.00000000000E+00  0.79520947131E+03  0.79520947131E+03  0.00000000000E+00 0. -1.
          2   -1    0    0  503    0  0.00000000000E+00 -0.00000000000E+00 -0.26980147293E+03  0.26980147293E+03  0.00000000000E+00 0.  1.
         25    1    1    2    0    0  0.29072839871E+02 -0.41906249552E+03  0.28243493747E+03  0.52139533856E+03  0.12500000000E+03 0.  0.
         21    1    1    2  502  501  0.33027634116E+02  0.10518470276E+03 -0.39194312794E+02  0.11700786498E+03  0.00000000000E+00 0.  1.
         21    1    1    2  503  502 -0.62100473987E+02  0.31387779275E+03  0.28216737370E+03  0.42660774071E+03  0.00000000000E+00 0.  1.
<mgrwt>
<rscale>  4 0.76153402E+03</rscale>
<asrwt>0</asrwt>
<pdfrwt beam="1">  1        2 0.41507919E-01 0.76153402E+03</pdfrwt>
<pdfrwt beam="2">  1       -2 0.12233992E+00 0.76153402E+03</pdfrwt>
<totfact> 0.63125752E+01</totfact>
</mgrwt>
</event>
<event>
 5    0  0.2754780E-002  0.5149167E+03  0.7546771E-02  0.1009957E+00
          2   -1    0    0  502    0  0.00000000000E+00  0.00000000000E+00  0.16822049297E+04  0.16822049297E+04  0.00000000000E+00 0. -1.
         -2   -1    0    0    0  501 -0.00000000000E+00 -0.00000000000E+00 -0.20843637131E+03  0.20843637131E+03  0.00000000000E+00 0.  1.
         25    1    1    2    0    0 -0.18865598856E+02 -0.23552910552E+03  0.15267731126E+03  0.30783962016E+03  0.12500000000E+03 0.  0.
         21    1    1    2  502  503  0.32640428285E+02  0.21195890328E+03 -0.42758733550E+02  0.21867849353E+03  0.00000000000E+00 0. -1.
         21    1    1    2  503  501 -0.13774829429E+02  0.23570202237E+02  0.13638499807E+04  0.13641231873E+04  0.00000000000E+00 0. -1.
<mgrwt>
<rscale>  4 0.51491672E+03</rscale>
<asrwt>0</asrwt>
<pdfrwt beam="1">  1        2 0.25880075E+00 0.51491672E+03</pdfrwt>
<pdfrwt beam="2">  1       -2 0.32067135E-01 0.51491672E+03</pdfrwt>
<totfact> 0.95276191E+01</totfact>
</mgrwt>
</event>
<event>
 5    0  0.2754780E-002  0.1059367E+04  0.7546771E-02  0.9245727E-01
         -2   -1    0    0    0  501 -0.00000000000E+00  0.00000000000E+00  0.30025693735E+03  0.30025693735E+03  0.00000000000E+00 0. -1.
          2   -1    0    0  503    0  0.00000000000E+00 -0.00000000000E+00 -0.12947740677E+04  0.12947740677E+04  0.00000000000E+00 0.  1.
         25    1    1    2    0    0  0.44175420670E+03  0.11855787625E+02 -0.59680324335E+03  0.75305142594E+03  0.12500000000E+03 0.  0.
         21    1    1    2  502  501  0.41958780771E+02 -0.42627980692E+02 -0.34985546515E+03  0.35493172656E+03  0.00000000000E+00 0. -1.
         21    1    1    2  503  502 -0.48371298747E+03  0.30772193066E+02 -0.47858421841E+02  0.48704785253E+03  0.00000000000E+00 0. -1.
<mgrwt>
<rscale>  4 0.10593666E+04</rscale>
<asrwt>0</asrwt>
<pdfrwt beam="1">  1        2 0.19919601E+00 0.10593666E+04</pdfrwt>
<pdfrwt beam="2">  1       -2 0.46193376E-01 0.10593666E+04</pdfrwt>
<totfact> 0.73537420E+01</totfact>
</mgrwt>
</event>
<event>
 5    0  0.2754780E-002  0.4849997E+03  0.7546771E-02  0.1017770E+00
          2   -1    0    0  503    0  0.00000000000E+00  0.00000000000E+00  0.18096143332E+04  0.18096143332E+04  0.00000000000E+00 0.  1.
         -2   -1    0    0    0  501 -0.00000000000E+00 -0.00000000000E+00 -0.45850436214E+02  0.45850436214E+02  0.00000000000E+00 0. -1.
         25    1    1    2    0    0 -0.67714298311E+02  0.21622749640E+03  0.94230477513E+03  0.97719130452E+03  0.12500000000E+03 0.  0.
         21    1    1    2  502  501 -0.12474679902E+02 -0.38105617574E+02  0.50356722190E+03  0.50516096712E+03  0.00000000000E+00 0.  1.
         21    1    1    2  503  502  0.80188978213E+02 -0.17812187883E+03  0.31789190000E+03  0.37311249782E+03  0.00000000000E+00 0. -1.
<mgrwt>
<rscale>  4 0.48499969E+03</rscale>
<asrwt>0</asrwt>
<pdfrwt beam="1">  1        2 0.27840215E+00 0.48499969E+03</pdfrwt>
<pdfrwt beam="2">  1       -2 0.70539147E-02 0.48499969E+03</pdfrwt>
<totfact> 0.10595789E+03</totfact>
</mgrwt>
</event>
<event>
 5    0  0.2754780E-002  0.8024558E+03  0.7546771E-02  0.9556469E-01
         -1   -1    0    0    0  501 -0.00000000000E+00  0.00000000000E+00  0.12839996289E+03  0.12839996289E+03  0.00000000000E+00 0. -1.
          1   -1    0    0  503    0  0.00000000000E+00 -0.00000000000E+00 -0.18188490149E+04  0.18188490149E+04  0.00000000000E+00 0.  1.
         25    1    1    2    0    0 -0.25799992039E+03  0.25587084231E+03 -0.30290866099E+03  0.48929797033E+03  0.12500000000E+03 0.  0.
         21    1    1    2  502  501  0.24511265396E+02  0.46748959257E+00 -0.56219964011E+03  0.56273391227E+03  0.00000000000E+00 0. -1.
         21    1    1    2  503  502  0.23348865500E+03 -0.25633833190E+03 -0.82534075087E+03  0.89521709516E+03  0.00000000000E+00 0.  1.
<mgrwt>
<rscale>  4 0.80245575E+03</rscale>
<asrwt>0</asrwt>
<pdfrwt beam="1">  1        1 0.27982292E+00 0.80245575E+03</pdfrwt>
<pdfrwt beam="2">  1       -1 0.19753841E-01 0.80245575E+03</pdfrwt>
<totfact> 0.84429671E+01</totfact>
</mgrwt>
</event>
<event>
 5    0  0.2754780E-002  0.4932027E+03  0.7546771E-02  0.1015568E+00
         -2   -1    0    0    0  501 -0.00000000000E+00  0.00000000000E+00  0.60456188284E+02  0.60456188284E+02  0.00000000000E+00 0. -1.
          2   -1    0    0  502    0  0.00000000000E+00 -0.00000000000E+00 -0.12647573165E+04  0.12647573165E+04  0.00000000000E+00 0.  1.
         25    1    1    2    0    0  0.23580449302E+03  0.25022571815E+02 -0.52624679144E+03  0.59058494184E+03  0.12500000000E+03 0.  0.
         21    1    1    2  502  503 -0.20757183918E+03 -0.65599403016E+02 -0.62632516580E+03  0.66307809752E+03  0.00000000000E+00 0.  1.
         21    1    1    2  503  501 -0.28232653848E+02  0.40576831201E+02 -0.51729171012E+02  0.71550465458E+02  0.00000000000E+00 0.  1.
<mgrwt>
<rscale>  4 0.49320270E+03</rscale>
<asrwt>0</asrwt>
<pdfrwt beam="1">  1        2 0.19457802E+00 0.49320270E+03</pdfrwt>
<pdfrwt beam="2">  1       -2 0.93009533E-02 0.49320270E+03</pdfrwt>
<totfact> 0.13589494E+03</totfact>
</mgrwt>
</event>
<event>
 5    0  0.2754780E-002  0.4597543E+03  0.7546771E-02  0.1024853E+00
         -4   -1    0    0    0  501 -0.00000000000E+00  0.00000000000E+00  0.24075154305E+03  0.24075154305E+03  0.00000000000E+00 0. -1.
          4   -1    0    0  502    0  0.00000000000E+00 -0.00000000000E+00 -0.29012220492E+03  0.29012220492E+03  0.00000000000E+00 0.  1.
         25    1    1    2    0    0  0.14346152184E+03 -0.15924468006E+03 -0.52050904048E+02  0.25352391009E+03  0.12500000000E+03 0.  0.
         21    1    1    2  502  503 -0.12149046019E+03  0.15188550562E+03  0.69566474118E+02  0.20656387161E+03  0.00000000000E+00 0. -1.
         21    1    1    2  503  501 -0.21971061644E+02  0.73591744446E+01 -0.66886231936E+02  0.70785966271E+02  0.00000000000E+00 0.  1.
<mgrwt>
<rscale>  4 0.45975425E+03</rscale>
<asrwt>0</asrwt>
<pdfrwt beam="1">  1        4 0.44634185E-01 0.45975425E+03</pdfrwt>
<pdfrwt beam="2">  1       -4 0.37038699E-01 0.45975425E+03</pdfrwt>
<totfact> 0.67037142E+01</totfact>
</mgrwt>
</event>
<event>
 5    0  0.2754780E-002  0.5688769E+03  0.7546771E-02  0.9972167E-01
         -2   -1    0    0    0  501 -0.00000000000E+00  0.00000000000E+00  0.72787111362E+03  0.72787111362E+03  0.00000000000E+00 0. -1.
          2   -1    0    0  502    0  0.00000000000E+00 -0.00000000000E+00 -0.42516190726E+03  0.42516190726E+03  0.00000000000E+00 0.  1.
         25    1    1    2    0    0 -0.19489841966E+02 -0.27190899479E+03 -0.10667616385E+03  0.31830670637E+03  0.12500000000E+03 0.  0.
         21    1    1    2  502  503 -0.21488757817E+03  0.14030086622E+03  0.49081787102E+03  0.55386206480E+03  0.00000000000E+00 0. -1.
         21    1    1    2  503  501  0.23437742014E+03  0.13160812857E+03 -0.81432500811E+02  0.28086424971E+03  0.00000000000E+00 0. -1.
<mgrwt>
<rscale>  4 0.56887693E+03</rscale>
<asrwt>0</asrwt>
<pdfrwt beam="1">  1        2 0.65409524E-01 0.56887693E+03</pdfrwt>
<pdfrwt beam="2">  1       -2 0.11198017E+00 0.56887693E+03</pdfrwt>
<totfact> 0.47854260E+01</totfact>
</mgrwt>
</event>
<event>
 5    0  0.2754780E-002  0.1172102E+04  0.7546771E-02  0.9137633E-01
         -1   -1    0    0    0  501 -0.00000000000E+00  0.00000000000E+00  0.65940830925E+03  0.65940830925E+03  0.00000000000E+00 0. -1.
          1   -1    0    0  503    0  0.00000000000E+00 -0.00000000000E+00 -0.52085409593E+03  0.52085409593E+03  0.00000000000E+00 0.  1.
         25    1    1    2    0    0 -0.40135418712E+03 -0.17655255650E+02  0.47276706405E+03  0.63287486000E+03  0.12500000000E+03 0.  0.
         21    1    1    2  502  501  0.77439891664E+02 -0.25802386519E+02 -0.15370683184E+03  0.17403588746E+03  0.00000000000E+00 0.  1.
         21    1    1    2  503  502  0.32391429546E+03  0.43457642169E+02 -0.18050601889E+03  0.37335165772E+03  0.00000000000E+00 0.  1.
<mgrwt>
<rscale>  4 0.11721016E+04</rscale>
<asrwt>0</asrwt>
<pdfrwt beam="1">  1        1 0.80131399E-01 0.11721016E+04</pdfrwt>
<pdfrwt beam="2">  1       -1 0.10144743E+00 0.11721016E+04</pdfrwt>
<totfact> 0.38313710E+01</totfact>
</mgrwt>
</event>
<event>
 5    0  0.2754780E-002  0.5251543E+03  0.7546771E-02  0.1007414E+00
         -2   -1    0    0    0  501 -0.00000000000E+00  0.00000000000E+00  0.28142761322E+02  0.28142761322E+02  0.00000000000E+00 0. -1.
          2   -1    0    0  503    0  0.00000000000E+00 -0.00000000000E+00 -0.28195056841E+04  0.28195056841E+04  0.00000000000E+00 0.  1.
         25    1    1    2    0    0 -0.24695966988E+03  0.22710579731E+02 -0.12622824017E+04  0.12924730986E+04  0.12500000000E+03 0.  0.
         21    1    1    2  502  501 -0.26317336410E+00 -0.21597256190E+02 -0.33897813343E+03  0.33966554974E+03  0.00000000000E+00 0.  1.
         21    1    1    2  503  502  0.24722284324E+03 -0.11133235410E+01 -0.11901023877E+04  0.12155097971E+04  0.00000000000E+00 0.  1.
<mgrwt>
<rscale>  4 0.52515431E+03</rscale>
<asrwt>0</asrwt>
<pdfrwt beam="1">  1        2 0.43377019E+00 0.52515431E+03</pdfrwt>
<pdfrwt beam="2">  1       -2 0.43296547E-02 0.52515431E+03</pdfrwt>
<totfact> 0.62280941E+02</totfact>
</mgrwt>
</event>
<event>
 5    0  0.2754780E-002  0.7670735E+03  0.7546771E-02  0.9608939E-01
          2   -1    0    0  503    0  0.00000000000E+00  0.00000000000E+00  0.24182551869E+04  0.24182551869E+04  0.00000000000E+00 0.  1.
         -2   -1    0    0    0  501 -0.00000000000E+00 -0.00000000000E+00 -0.75820167126E+02  0.75820167126E+02  0.00000000000E+00 0. -1.
         25    1    1    2    0    0  0.19642653261E+03 -0.15974053551E+03  0.16001704973E+04  0.16248910861E+04  0.12500000000E+03 0.  0.
         21    1    1    2  502  501  0.21599491567E+02 -0.58528901762E+02  0.41410552560E+03  0.41877864882E+03  0.00000000000E+00 0.  1.
         21    1    1    2  503  502 -0.21802602418E+03  0.21826943727E+03  0.32815899694E+03  0.45040561912E+03  0.00000000000E+00 0. -1.
<mgrwt>
<rscale>  4 0.76707351E+03</rscale>
<asrwt>0</asrwt>
<pdfrwt beam="1">  1        2 0.37203920E+00 0.76707351E+03</pdfrwt>
<pdfrwt beam="2">  1       -2 0.11664643E-01 0.76707351E+03</pdfrwt>
<totfact> 0.21391246E+02</totfact>
</mgrwt>
</event>
<event>
 5    0  0.2754780E-002  0.4488750E+03  0.7546771E-02  0.1028058E+00
          2   -1    0    0  502    0  0.00000000000E+00  0.00000000000E+00  0.57930669616E+03  0.57930669616E+03  0.00000000000E+00 0. -1.
         -2   -1    0    0    0  501 -0.00000000000E+00 -0.00000000000E+00 -0.22426164707E+03  0.22426164707E+03  0.00000000000E+00 0.  1.
         25    1    1    2    0    0  0.38421787489E+02 -0.24213950058E+03  0.14588383645E+02  0.27558227888E+03  0.12500000000E+03 0.  0.
         21    1    1    2  502  503  0.11859723334E+02  0.17298203801E+03 -0.36387382737E+01  0.17342629249E+03  0.00000000000E+00 0. -1.
         21    1    1    2  503  501 -0.50281510823E+02  0.69157462574E+02  0.34409540372E+03  0.35455977186E+03  0.00000000000E+00 0. -1.
<mgrwt>
<rscale>  4 0.44887504E+03</rscale>
<asrwt>0</asrwt>
<pdfrwt beam="1">  1        2 0.89124106E-01 0.44887504E+03</pdfrwt>
<pdfrwt beam="2">  1       -2 0.34501792E-01 0.44887504E+03</pdfrwt>
<totfact> 0.41401978E+02</totfact>
</mgrwt>
</event>
<event>
 5    0  0.2754780E-002  0.5173713E+03  0.7546771E-02  0.1009342E+00
         -4   -1    0    0    0  501 -0.00000000000E+00  0.00000000000E+00  0.75728720587E+02  0.75728720587E+02  0.00000000000E+00 0. -1.
          4   -1    0    0  503    0  0.00000000000E+00 -0.00000000000E+00 -0.14834863408E+04  0.14834863408E+04  0.00000000000E+00 0.  1.
         25    1    1    2    0    0  0.14920006140E+03 -0.20020590139E+03 -0.40310266395E+03  0.49036702474E+03  0.12500000000E+03 0.  0.
         21    1    1    2  502  501 -0.70779074712E+02  0.12070109043E+03 -0.91500567787E+03  0.92564238299E+03  0.00000000000E+00 0.  1.
         21    1    1    2  503  502 -0.78420986689E+02  0.79504810956E+02 -0.89649278350E+02  0.14320565361E+03  0.00000000000E+00 0.  1.
<mgrwt>
<rscale>  4 0.51737128E+03</rscale>
<asrwt>0</asrwt>
<pdfrwt beam="1">  1        4 0.22822865E+00 0.51737128E+03</pdfrwt>
<pdfrwt beam="2">  1       -4 0.11650574E-01 0.51737128E+03</pdfrwt>
<totfact> 0.10567925E+01</totfact>
</mgrwt>
</event>
<event>
 5    0  0.2754780E-002  0.5161673E+03  0.7546771E-02  0.1009643E+00
          4   -1    0    0  503    0  0.00000000000E+00  0.00000000000E+00  0.16069418278E+03  0.16069418278E+03  0.00000000000E+00 0.  1.
         -4   -1    0    0    0  501 -0.00000000000E+00 -0.00000000000E+00 -0.83775146942E+03  0.83775146942E+03  0.00000000000E+00 0. -1.
         25    1    1    2    0    0  0.16617073134E+03  0.12651889881E+03 -0.17884620597E+03  0.30204421712E+03  0.12500000000E+03 0.  0.
         21    1    1    2  502  501  0.33406192186E+02 -0.55864140756E+02  0.66653897544E+02  0.93163930556E+02  0.00000000000E+00 0. -1.
         21    1    1    2  503  502 -0.19957692352E+03 -0.70654758051E+02 -0.56486497821E+03  0.60323750451E+03  0.00000000000E+00 0. -1.
<mgrwt>
<rscale>  4 0.51616729E+03</rscale>
<asrwt>0</asrwt>
<pdfrwt beam="1">  1        4 0.24722182E-01 0.51616729E+03</pdfrwt>
<pdfrwt beam="2">  1       -4 0.12888484E+00 0.51616729E+03</pdfrwt>
<totfact> 0.13482657E+01</totfact>
</mgrwt>
</event>
<event>
 5    0  0.2754780E-002  0.5638150E+03  0.7546771E-02  0.9983459E-01
          1   -1    0    0  503    0  0.00000000000E+00  0.00000000000E+00  0.86446638350E+03  0.86446638350E+03  0.00000000000E+00 0. -1.
         -1   -1    0    0    0  501 -0.00000000000E+00 -0.00000000000E+00 -0.10870939234E+03  0.10870939234E+03  0.00000000000E+00 0.  1.
         25    1    1    2    0    0  0.62731901879E+02 -0.27694920492E+03  0.38415348816E+03  0.49379657358E+03  0.12500000000E+03 0.  0.
         21    1    1    2  502  501  0.13189554988E+02  0.36157616350E+02  0.10670465746E+03  0.11343377585E+03  0.00000000000E+00 0. -1.
         21    1    1    2  503  502 -0.75921456867E+02  0.24079158857E+03  0.26489884554E+03  0.36594542641E+03  0.00000000000E+00 0. -1.
<mgrwt>
<rscale>  4 0.56381502E+03</rscale>
<asrwt>0</asrwt>
<pdfrwt beam="1">  1        1 0.13299482E+00 0.56381502E+03</pdfrwt>
<pdfrwt beam="2">  1       -1 0.16724522E-01 0.56381502E+03</pdfrwt>
<totfact> 0.54362069E+02</totfact>
</mgrwt>
</event>
<event>
 5    0  0.2754780E-002  0.6142178E+03  0.7546771E-02  0.9876340E-01
          1   -1    0    0  503    0  0.00000000000E+00  0.00000000000E+00  0.29368186653E+03  0.29368186653E+03  0.00000000000E+00 0.  1.
         -1   -1    0    0    0  501 -0.00000000000E+00 -0.00000000000E+00 -0.38330407502E+03  0.38330407502E+03  0.00000000000E+00 0. -1.
         25    1    1    2    0    0  0.73417794583E+02  0.19422603017E+03 -0.26727989386E+03  0.36080114331E+03  0.12500000000E+03 0.  0.
         21    1    1    2  502  501  0.38621799271E+02 -0.20246602360E+01  0.32771478095E+02  0.50692330825E+02  0.00000000000E+00 0.  1.
         21    1    1    2  503  502 -0.11203959385E+03 -0.19220136993E+03  0.14488620727E+03  0.26549246741E+03  0.00000000000E+00 0.  1.
<mgrwt>
<rscale>  4 0.61421777E+03</rscale>
<asrwt>0</asrwt>
<pdfrwt beam="1">  1        1 0.45181825E-01 0.61421777E+03</pdfrwt>
<pdfrwt beam="2">  1       -1 0.58969858E-01 0.61421777E+03</pdfrwt>
<totfact> 0.26715654E+02</totfact>
</mgrwt>
</event>
<event>
 5    0  0.2754780E-002  0.6481004E+03  0.7546771E-02  0.9810350E-01
         -1   -1    0    0    0  501 -0.00000000000E+00  0.00000000000E+00  0.28868297872E+03  0.28868297872E+03  0.00000000000E+00 0. -1.
          1   -1    0    0  503    0  0.00000000000E+00 -0.00000000000E+00 -0.50393631511E+03  0.50393631511E+03  0.00000000000E+00 0.  1.
         25    1    1    2    0    0  0.93618813269E+02  0.22693043468E+03  0.12538039439E+03  0.30266672707E+03  0.12500000000E+03 0.  0.
         21    1    1    2  502  501 -0.12344133709E+03 -0.12049959024E+03 -0.33790215933E+03  0.37938869808E+03  0.00000000000E+00 0.  1.
         21    1    1    2  503  502  0.29822523824E+02 -0.10643084444E+03 -0.27315714377E+01  0.11056386868E+03  0.00000000000E+00 0. -1.
<mgrwt>
<rscale>  4 0.64810038E+03</rscale>
<asrwt>0</asrwt>
<pdfrwt beam="1">  1        1 0.77528663E-01 0.64810038E+03</pdfrwt>
<pdfrwt beam="2">  1       -1 0.44412766E-01 0.64810038E+03</pdfrwt>
<totfact> 0.22398218E+02</totfact>
</mgrwt>
</event>
<event>
 5    0  0.2754780E-002  0.5935115E+03  0.7546771E-02  0.9918960E-01
          1   -1    0    0  502    0  0.00000000000E+00  0.00000000000E+00  0.76166600003E+03  0.76166600003E+03  0.00000000000E+00 0. -1.
         -1   -1    0    0    0  501 -0.00000000000E+00 -0.00000000000E+00 -0.13460774270E+03  0.13460774270E+03  0.00000000000E+00 0.  1.
         25    1    1    2    0    0 -0.23368405601E+03 -0.49391590770E+02  0.13028722270E+03  0.29941196982E+03  0.12500000000E+03 0.  0.
         21    1    1    2  502  503  0.27714626257E+03  0.64183655730E+02  0.43813659244E+03  0.52239187030E+03  0.00000000000E+00 0. -1.
         21    1    1    2  503  501 -0.43462206553E+02 -0.14792064961E+02  0.58634442188E+02  0.74469902611E+02  0.00000000000E+00 0.  1.
<mgrwt>
<rscale>  4 0.59351151E+03</rscale>
<asrwt>0</asrwt>
<pdfrwt beam="1">  1        1 0.11717938E+00 0.59351151E+03</pdfrwt>
<pdfrwt beam="2">  1       -1 0.20708884E-01 0.59351151E+03</pdfrwt>
<totfact> 0.46716999E+02</totfact>
</mgrwt>
</event>
<event>
 5    0  0.2754780E-002  0.6990449E+03  0.7546771E-02  0.9718867E-01
          2   -1    0    0  502    0  0.00000000000E+00  0.00000000000E+00  0.85512343972E+03  0.85512343972E+03  0.00000000000E+00 0. -1.
         -2   -1    0    0    0  501 -0.00000000000E+00 -0.00000000000E+00 -0.16171734694E+03  0.16171734694E+03  0.00000000000E+00 0.  1.
         25    1    1    2    0    0  0.54171387817E+02  0.32661987587E+03  0.23181017274E+03  0.42305559771E+03  0.12500000000E+03 0.  0.
         21    1    1    2  502  503 -0.31568829943E+02 -0.33377579900E+03  0.37058099020E+03  0.49973307407E+03  0.00000000000E+00 0.  1.
         21    1    1    2  503  501 -0.22602557874E+02  0.71559231285E+01  0.91014929844E+02  0.94052114877E+02  0.00000000000E+00 0. -1.
<mgrwt>
<rscale>  4 0.69904493E+03</rscale>
<asrwt>0</asrwt>
<pdfrwt beam="1">  1        2 0.13155745E+00 0.69904493E+03</pdfrwt>
<pdfrwt beam="2">  1       -2 0.24879592E-01 0.69904493E+03</pdfrwt>
<totfact> 0.45846040E+02</totfact>
</mgrwt>
</event>
<event>
 5    0  0.2754780E-002  0.6363579E+03  0.7546771E-02  0.9832720E-01
          1   -1    0    0  503    0  0.00000000000E+00  0.00000000000E+00  0.23759982266E+04  0.23759982266E+04  0.00000000000E+00 0. -1.
         -1   -1    0    0    0  501 -0.00000000000E+00 -0.00000000000E+00 -0.47189891109E+02  0.47189891109E+02  0.00000000000E+00 0.  1.
         25    1    1    2    0    0 -0.21238604780E+03  0.20639598993E+03  0.89370679248E+03  0.94975995329E+03  0.12500000000E+03 0.  0.
         21    1    1    2  502  501  0.22190600407E+02  0.24828686032E+02  0.11031930818E+03  0.11523556810E+03  0.00000000000E+00 0.  1.
         21    1    1    2  503  502  0.19019544739E+03 -0.23122467596E+03  0.13247822348E+04  0.13581925963E+04  0.00000000000E+00 0. -1.
<mgrwt>
<rscale>  4 0.63635792E+03</rscale>
<asrwt>0</asrwt>
<pdfrwt beam="1">  1        1 0.36553810E+00 0.63635792E+03</pdfrwt>
<pdfrwt beam="2">  1       -1 0.72599851E-02 0.63635792E+03</pdfrwt>
<totfact> 0.18096115E+02</totfact>
</mgrwt>
</event>
<event>
 5    0  0.2754780E-002  0.4853049E+03  0.7546771E-02  0.1017687E+00
          1   -1    0    0  502    0  0.00000000000E+00  0.00000000000E+00  0.10303897198E+03  0.10303897198E+03  0.00000000000E+00 0. -1.
         -1   -1    0    0    0  501 -0.00000000000E+00 -0.00000000000E+00 -0.12842808850E+04  0.12842808850E+04  0.00000000000E+00 0.  1.
         25    1    1    2    0    0  0.23531781508E+03  0.48543805277E+02 -0.47835345658E+03  0.54970719892E+03  0.12500000000E+03 0.  0.
         21    1    1    2  502  503 -0.11445761659E+03 -0.16216548153E+03 -0.62230327848E+03  0.65319182466E+03  0.00000000000E+00 0.  1.
         21    1    1    2  503  501 -0.12086019849E+03  0.11362167625E+03 -0.80585178006E+02  0.18442083344E+03  0.00000000000E+00 0. -1.
<mgrwt>
<rscale>  4 0.48530487E+03</rscale>
<asrwt>0</asrwt>
<pdfrwt beam="1">  1        1 0.15852150E-01 0.48530487E+03</pdfrwt>
<pdfrwt beam="2">  1       -1 0.19758167E+00 0.48530487E+03</pdfrwt>
<totfact> 0.58557292E+01</totfact>
</mgrwt>
</event>
<event>
 5    0  0.2754780E-002  0.5546644E+03  0.7546771E-02  0.1000420E+00
         -2   -1    0    0    0  501 -0.00000000000E+00  0.00000000000E+00  0.15360285918E+03  0.15360285918E+03  0.00000000000E+00 0.  1.
          2   -1    0    0  503    0  0.00000000000E+00 -0.00000000000E+00 -0.59620243554E+03  0.59620243554E+03  0.00000000000E+00 0. -1.
         25    1    1    2    0    0 -0.17337603330E+03  0.10265259212E+03 -0.38190254043E+03  0.44952347434E+03  0.12500000000E+03 0.  0.
         21    1    1    2  502  501  0.79299570923E+01  0.18761601198E+02 -0.90632780034E+02  0.92893394360E+02  0.00000000000E+00 0. -1.
         21    1    1    2  503  502  0.16544607621E+03 -0.12141419331E+03  0.29935744101E+02  0.20738842602E+03  0.00000000000E+00 0.  1.
<mgrwt>
<rscale>  4 0.55466442E+03</rscale>
<asrwt>0</asrwt>
<pdfrwt beam="1">  1        2 0.91723451E-01 0.55466442E+03</pdfrwt>
<pdfrwt beam="2">  1       -2 0.23631209E-01 0.55466442E+03</pdfrwt>
<totfact> 0.79748703E+02</totfact>
</mgrwt>
</event>
<event>
 5    0  0.2754780E-002  0.5629812E+03  0.7546771E-02  0.9985332E-01
          2   -1    0    0  503    0  0.00000000000E+00  0.00000000000E+00  0.16929782820E+04  0.16929782820E+04  0.00000000000E+00 0.  1.
         -2   -1    0    0    0  501 -0.00000000000E+00 -0.00000000000E+00 -0.54965996986E+02  0.54965996986E+02  0.00000000000E+00 0. -1.
         25    1    1    2    0    0 -0.15511895506E+02  0.25710326206E+03  0.95896810545E+03  0.10007934520E+04  0.12500000000E+03 0.  0.
         21    1    1    2  502  501 -0.33757466317E+02 -0.65775901442E+01  0.21291286932E+03  0.21567271767E+03  0.00000000000E+00 0.  1.
         21    1    1    2  503  502  0.49269361823E+02 -0.25052567192E+03  0.46613131021E+03  0.53147810929E+03  0.00000000000E+00 0. -1.
<mgrwt>
<rscale>  4 0.56298117E+03</rscale>
<asrwt>0</asrwt>
<pdfrwt beam="1">  1        2 0.26045816E+00 0.56298117E+03</pdfrwt>
<pdfrwt beam="2">  1       -2 0.84563085E-02 0.56298117E+03</pdfrwt>
<totfact> 0.91417884E+02</totfact>
</mgrwt>
</event>
<event>
 5    0  0.2754780E-002  0.4859629E+03  0.7546771E-02  0.1017509E+00
          3   -1    0    0  503    0  0.00000000000E+00  0.00000000000E+00  0.56976640793E+03  0.56976640793E+03  0.00000000000E+00 0.  1.
         -3   -1    0    0    0  501 -0.00000000000E+00 -0.00000000000E+00 -0.10362139860E+03  0.10362139860E+03  0.00000000000E+00 0. -1.
         25    1    1    2    0    0  0.15791327037E+03 -0.13824339628E+03  0.14009674817E+03  0.28160244392E+03  0.12500000000E+03 0.  0.
         21    1    1    2  502  501 -0.64098941166E+02  0.43323590205E+02  0.76555450055E+02  0.10884091446E+03  0.00000000000E+00 0.  1.
         21    1    1    2  503  502 -0.93814329206E+02  0.94919806075E+02  0.24949281111E+03  0.28294444816E+03  0.00000000000E+00 0.  1.
<mgrwt>
<rscale>  4 0.48596293E+03</rscale>
<asrwt>0</asrwt>
<pdfrwt beam="1">  1        3 0.87656369E-01 0.48596293E+03</pdfrwt>
<pdfrwt beam="2">  1       -3 0.15941754E-01 0.48596293E+03</pdfrwt>
<totfact> 0.10623025E+02</totfact>
</mgrwt>
</event>
<event>
 5    0  0.2754780E-002  0.7582859E+03  0.7546771E-02  0.9622440E-01
          2   -1    0    0  502    0  0.00000000000E+00  0.00000000000E+00  0.87860195549E+03  0.87860195549E+03  0.00000000000E+00 0. -1.
         -2   -1    0    0    0  501 -0.00000000000E+00 -0.00000000000E+00 -0.25871244486E+03  0.25871244486E+03  0.00000000000E+00 0.  1.
         25    1    1    2    0    0 -0.40491088103E+03 -0.47735896778E+02  0.18005068948E+03  0.46289824821E+03  0.12500000000E+03 0.  0.
         21    1    1    2  502  503  0.26521653105E+03 -0.43041263247E+01  0.45280899432E+03  0.52478025800E+03  0.00000000000E+00 0. -1.
         21    1    1    2  503  501  0.13969434998E+03  0.52040023103E+02 -0.12970173174E+02  0.14963589414E+03  0.00000000000E+00 0. -1.
<mgrwt>
<rscale>  4 0.75828586E+03</rscale>
<asrwt>0</asrwt>
<pdfrwt beam="1">  1        2 0.13516953E+00 0.75828586E+03</pdfrwt>
<pdfrwt beam="2">  1       -2 0.39801915E-01 0.75828586E+03</pdfrwt>
<totfact> 0.18284655E+02</totfact>
</mgrwt>
</event>
<event>
 5    0  0.2754780E-002  0.4901942E+03  0.7546771E-02  0.1016371E+00
          1   -1    0    0  502    0  0.00000000000E+00  0.00000000000E+00  0.37566667353E+03  0.37566667353E+03  0.00000000000E+00 0. -1.
         -1   -1    0    0    0  501 -0.00000000000E+00 -0.00000000000E+00 -0.15990925251E+03  0.15990925251E+03  0.00000000000E+00 0.  1.
         25    1    1    2    0    0  0.16090041228E+03 -0.15927528500E+03  0.13340284016E+03  0.29099635195E+03  0.12500000000E+03 0.  0.
         21    1    1    2  502  503 -0.14963819397E+03  0.13701830411E+03  0.61338491439E+02  0.21196229685E+03  0.00000000000E+00 0.  1.
         21    1    1    2  503  501 -0.11262218306E+02  0.22256980894E+02  0.21016089428E+02  0.32617277240E+02  0.00000000000E+00 0. -1.
<mgrwt>
<rscale>  4 0.49019415E+03</rscale>
<asrwt>0</asrwt>
<pdfrwt beam="1">  1        1 0.57794872E-01 0.49019415E+03</pdfrwt>
<pdfrwt beam="2">  1       -1 0.24601424E-01 0.49019415E+03</pdfrwt>
<totfact> 0.94222307E+02</totfact>
</mgrwt>
</event>
<event>
 5    0  0.2754780E-002  0.6058724E+03  0.7546771E-02  0.9893297E-01
         -2   -1    0    0    0  501 -0.00000000000E+00  0.00000000000E+00  0.11472679976E+03  0.11472679976E+03  0.00000000000E+00 0. -1.
          2   -1    0    0  503    0  0.00000000000E+00 -0.00000000000E+00 -0.79990319749E+03  0.79990319749E+03  0.00000000000E+00 0.  1.
         25    1    1    2    0    0 -0.51907092726E+01 -0.27273409932E+03 -0.22373901380E+03  0.37429263777E+03  0.12500000000E+03 0.  0.
         21    1    1    2  502  501 -0.25159915516E+01  0.28197483018E+02 -0.99631150710E+02  0.10357506676E+03  0.00000000000E+00 0.  1.
         21    1    1    2  503  502  0.77067008242E+01  0.24453661630E+03 -0.36180623321E+03  0.43676229272E+03  0.00000000000E+00 0.  1.
<mgrwt>
<rscale>  4 0.60587238E+03</rscale>
<asrwt>0</asrwt>
<pdfrwt beam="1">  1        2 0.12306203E+00 0.60587238E+03</pdfrwt>
<pdfrwt beam="2">  1       -2 0.17650277E-01 0.60587238E+03</pdfrwt>
<totfact> 0.91895645E+02</totfact>
</mgrwt>
</event>
<event>
 5    0  0.2754780E-002  0.7859556E+03  0.7546771E-02  0.9580571E-01
         -2   -1    0    0    0  501 -0.00000000000E+00  0.00000000000E+00  0.42456807188E+03  0.42456807188E+03  0.00000000000E+00 0. -1.
          2   -1    0    0  503    0  0.00000000000E+00 -0.00000000000E+00 -0.84652390483E+03  0.84652390483E+03  0.00000000000E+00 0.  1.
         25    1    1    2    0    0  0.14929964535E+03 -0.15545061481E+03 -0.56130662995E+02  0.25540346332E+03  0.12500000000E+03 0.  0.
         21    1    1    2  502  501 -0.37398182919E+03  0.33501999424E+03 -0.49076146230E+03  0.70210228456E+03  0.00000000000E+00 0.  1.
         21    1    1    2  503  502  0.22468218384E+03 -0.17956937943E+03  0.12493629235E+03  0.31358622883E+03  0.00000000000E+00 0. -1.
<mgrwt>
<rscale>  4 0.78595564E+03</rscale>
<asrwt>0</asrwt>
<pdfrwt beam="1">  1        2 0.13023445E+00 0.78595564E+03</pdfrwt>
<pdfrwt beam="2">  1       -2 0.65318166E-01 0.78595564E+03</pdfrwt>
<totfact> 0.69698279E+01</totfact>
</mgrwt>
</event>
<event>
 5    0  0.2754780E-002  0.5843498E+03  0.7546771E-02  0.9938418E-01
          2   -1    0    0  503    0  0.00000000000E+00  0.00000000000E+00  0.11570352448E+04  0.11570352448E+04  0.00000000000E+00 0.  1.
         -2   -1    0    0    0  501 -0.00000000000E+00 -0.00000000000E+00 -0.73780094467E+02  0.73780094467E+02  0.00000000000E+00 0. -1.
         25    1    1    2    0    0 -0.24864113678E+02 -0.25395981182E+03  0.74227827717E+03  0.79480554284E+03  0.12500000000E+03 0.  0.
         21    1    1    2  502  501  0.10916325631E+02  0.10134341601E+03  0.21382411115E+03  0.23687634885E+03  0.00000000000E+00 0.  1.
         21    1    1    2  503  502  0.13947788047E+02  0.15261639580E+03  0.12715276202E+03  0.19913344759E+03  0.00000000000E+00 0. -1.
<mgrwt>
<rscale>  4 0.58434979E+03</rscale>
<asrwt>0</asrwt>
<pdfrwt beam="1">  1        2 0.17800541E+00 0.58434979E+03</pdfrwt>
<pdfrwt beam="2">  1       -2 0.11350785E-01 0.58434979E+03</pdfrwt>
<totfact> 0.11337960E+03</totfact>
</mgrwt>
</event>
<event>
 5    0  0.2754780E-002  0.5425760E+03  0.7546771E-02  0.1003227E+00
          2   -1    0    0  503    0  0.00000000000E+00  0.00000000000E+00  0.51979466316E+03  0.51979466316E+03  0.00000000000E+00 0. -1.
         -2   -1    0    0    0  501 -0.00000000000E+00 -0.00000000000E+00 -0.16069990631E+03  0.16069990631E+03  0.00000000000E+00 0.  1.
         25    1    1    2    0    0 -0.46546447977E+02  0.24767114118E+03  0.14321658047E+03  0.31566367373E+03  0.12500000000E+03 0.  0.
         21    1    1    2  502  501  0.33193179386E+02  0.95673591734E+01  0.12870145349E+02  0.36864103957E+02  0.00000000000E+00 0. -1.
         21    1    1    2  503  502  0.13353268591E+02 -0.25723850035E+03  0.20300803103E+03  0.32796679177E+03  0.00000000000E+00 0.  1.
<mgrwt>
<rscale>  4 0.54257598E+03</rscale>
<asrwt>0</asrwt>
<pdfrwt beam="1">  1        2 0.79968409E-01 0.54257598E+03</pdfrwt>
<pdfrwt beam="2">  1       -2 0.24723063E-01 0.54257598E+03</pdfrwt>
<totfact> 0.86451331E+02</totfact>
</mgrwt>
</event>
<event>
 5    0  0.2754780E-002  0.4726719E+03  0.7546771E-02  0.1021169E+00
          2   -1    0    0  502    0  0.00000000000E+00  0.00000000000E+00  0.46902971581E+03  0.46902971581E+03  0.00000000000E+00 0.  1.
         -2   -1    0    0    0  501 -0.00000000000E+00 -0.00000000000E+00 -0.24619645819E+03  0.24619645819E+03  0.00000000000E+00 0. -1.
         25    1    1    2    0    0  0.15009182279E+02  0.22280575355E+03 -0.10871181361E+03  0.27804844504E+03  0.12500000000E+03 0.  0.
         21    1    1    2  502  503  0.64014718260E+02 -0.14175607479E+03  0.11710959780E+03  0.19469804002E+03  0.00000000000E+00 0.  1.
         21    1    1    2  503  501 -0.79023900538E+02 -0.81049678765E+02  0.21443547343E+03  0.24247968894E+03  0.00000000000E+00 0.  1.
<mgrwt>
<rscale>  4 0.47267189E+03</rscale>
<asrwt>0</asrwt>
<pdfrwt beam="1">  1        2 0.72158418E-01 0.47267189E+03</pdfrwt>
<pdfrwt beam="2">  1       -2 0.37876378E-01 0.47267189E+03</pdfrwt>
<totfact> 0.44208857E+02</totfact>
</mgrwt>
</event>
<event>
 5    0  0.2754780E-002  0.4428933E+03  0.7546771E-02  0.1029863E+00
          2   -1    0    0  502    0  0.00000000000E+00  0.00000000000E+00  0.67321744957E+02  0.67321744957E+02  0.00000000000E+00 0. -1.
         -2   -1    0    0    0  501 -0.00000000000E+00 -0.00000000000E+00 -0.11621065965E+04  0.11621065965E+04  0.00000000000E+00 0.  1.
         25    1    1    2    0    0  0.18833450447E+03  0.10818845972E+03 -0.67850285374E+03  0.72330197769E+03  0.12500000000E+03 0.  0.
         21    1    1    2  502  503 -0.98613926911E+02 -0.15382901323E+03 -0.30922628469E+03  0.35917818285E+03  0.00000000000E+00 0. -1.
         21    1    1    2  503  501 -0.89720577564E+02  0.45640553510E+02 -0.10705571307E+03  0.14694818088E+03  0.00000000000E+00 0. -1.
<mgrwt>
<rscale>  4 0.44289327E+03</rscale>
<asrwt>0</asrwt>
<pdfrwt beam="1">  1        2 0.10357191E-01 0.44289327E+03</pdfrwt>
<pdfrwt beam="2">  1       -2 0.17878564E+00 0.44289327E+03</pdfrwt>
<totfact> 0.12070417E+02</totfact>
</mgrwt>
</event>
<event>
 5    0  0.2754780E-002  0.4907650E+03  0.7546771E-02  0.1016218E+00
         -2   -1    0    0    0  501 -0.00000000000E+00  0.00000000000E+00  0.17356474310E+03  0.17356474310E+03  0.00000000000E+00 0. -1.
          2   -1    0    0  503    0  0.00000000000E+00 -0.00000000000E+00 -0.43412496333E+03  0.43412496333E+03  0.00000000000E+00 0.  1.
         25    1    1    2    0    0 -0.17242374061E+03 -0.12555754935E+03 -0.64029589857E+02  0.25538095642E+03  0.12500000000E+03 0.  0.
         21    1    1    2  502  501 -0.32861356411E+02  0.21552749354E+00 -0.77000575646E+02  0.83719793640E+02  0.00000000000E+00 0.  1.
         21    1    1    2  503  502  0.20528509703E+03  0.12534202186E+03 -0.11953005473E+03  0.26858895637E+03  0.00000000000E+00 0. -1.
<mgrwt>
<rscale>  4 0.49076504E+03</rscale>
<asrwt>0</asrwt>
<pdfrwt beam="1">  1        2 0.66788455E-01 0.49076504E+03</pdfrwt>
<pdfrwt beam="2">  1       -2 0.26702268E-01 0.49076504E+03</pdfrwt>
<totfact> 0.92438612E+02</totfact>
</mgrwt>
</event>
<event>
 5    0  0.2754780E-002  0.7087738E+03  0.7546771E-02  0.9702344E-01
          2   -1    0    0  502    0  0.00000000000E+00  0.00000000000E+00  0.88097602544E+03  0.88097602544E+03  0.00000000000E+00 0. -1.
         -2   -1    0    0    0  501 -0.00000000000E+00 -0.00000000000E+00 -0.18416761423E+03  0.18416761423E+03  0.00000000000E+00 0.  1.
         25    1    1    2    0    0  0.29781230758E+03 -0.22466642888E+02  0.29182875110E+02  0.32507470032E+03  0.12500000000E+03 0.  0.
         21    1    1    2  502  503 -0.26276924872E+03 -0.57635144106E+01  0.48132752059E+03  0.54841323676E+03  0.00000000000E+00 0. -1.
         21    1    1    2  503  501 -0.35043058863E+02  0.28230157299E+02  0.18629801550E+03  0.19165570259E+03  0.00000000000E+00 0.  1.
<mgrwt>
<rscale>  4 0.70877381E+03</rscale>
<asrwt>0</asrwt>
<pdfrwt beam="1">  1        2 0.13553477E+00 0.70877381E+03</pdfrwt>
<pdfrwt beam="2">  1       -2 0.28333480E-01 0.70877381E+03</pdfrwt>
<totfact> 0.34732184E+02</totfact>
</mgrwt>
</event>
<event>
 5    0  0.2754780E-002  0.8084708E+03  0.7546771E-02  0.9547836E-01
         -3   -1    0    0    0  501 -0.00000000000E+00  0.00000000000E+00  0.84320817837E+03  0.84320817837E+03  0.00000000000E+00 0. -1.
          3   -1    0    0  503    0  0.00000000000E+00 -0.00000000000E+00 -0.29011084921E+03  0.29011084921E+03  0.00000000000E+00 0.  1.
         25    1    1    2    0    0 -0.57394222237E+01  0.37868995181E+03  0.86261395794E+02  0.40805030201E+03  0.12500000000E+03 0.  0.
         21    1    1    2  502  501  0.21865187838E+02 -0.84270986962E+02 -0.70713040549E+02  0.11216068735E+03  0.00000000000E+00 0.  1.
         21    1    1    2  503  502 -0.16125765614E+02 -0.29441896485E+03  0.53754897391E+03  0.61310803822E+03  0.00000000000E+00 0.  1.
<mgrwt>
<rscale>  4 0.80847077E+03</rscale>
<asrwt>0</asrwt>
<pdfrwt beam="1">  1        3 0.44632439E-01 0.80847077E+03</pdfrwt>
<pdfrwt beam="2">  1       -3 0.12972433E+00 0.80847077E+03</pdfrwt>
<totfact> 0.61040275E+00</totfact>
</mgrwt>
</event>
<event>
 5    0  0.2754780E-002  0.5158272E+03  0.7546771E-02  0.1009728E+00
         -3   -1    0    0    0  501 -0.00000000000E+00  0.00000000000E+00  0.43135140587E+03  0.43135140587E+03  0.00000000000E+00 0.  1.
          3   -1    0    0  502    0  0.00000000000E+00 -0.00000000000E+00 -0.19415940270E+03  0.19415940270E+03  0.00000000000E+00 0. -1.
         25    1    1    2    0    0  0.15653995399E+03  0.18544335948E+03  0.18384336015E+03  0.32911605528E+03  0.12500000000E+03 0.  0.
         21    1    1    2  502  503 -0.16843968720E+03 -0.16875216618E+03  0.89631668718E+02  0.25472153002E+03  0.00000000000E+00 0. -1.
         21    1    1    2  503  501  0.11899733219E+02 -0.16691193294E+02 -0.36283025698E+02  0.41673223274E+02  0.00000000000E+00 0. -1.
<mgrwt>
<rscale>  4 0.51582723E+03</rscale>
<asrwt>0</asrwt>
<pdfrwt beam="1">  1        3 0.29870678E-01 0.51582723E+03</pdfrwt>
<pdfrwt beam="2">  1       -3 0.66361754E-01 0.51582723E+03</pdfrwt>
<totfact> 0.62487761E+01</totfact>
</mgrwt>
</event>
<event>
 5    0  0.2754780E-002  0.7836795E+03  0.7546771E-02  0.9583946E-01
          2   -1    0    0  503    0  0.00000000000E+00  0.00000000000E+00  0.10142340888E+04  0.10142340888E+04  0.00000000000E+00 0. -1.
         -2   -1    0    0    0  501 -0.00000000000E+00 -0.00000000000E+00 -0.40152815310E+03  0.40152815310E+03  0.00000000000E+00 0.  1.
         25    1    1    2    0    0  0.13428048577E+03 -0.29808803921E+03  0.70291929072E+02  0.35700655915E+03  0.12500000000E+03 0.  0.
         21    1    1    2  502  501 -0.16702401576E+03  0.11544710347E+03  0.75194508648E+03  0.77887513031E+03  0.00000000000E+00 0. -1.
         21    1    1    2  503  502  0.32743529991E+02  0.18264093574E+03 -0.20953107990E+03  0.27988055240E+03  0.00000000000E+00 0. -1.
<mgrwt>
<rscale>  4 0.78367946E+03</rscale>
<asrwt>0</asrwt>
<pdfrwt beam="1">  1        2 0.15603601E+00 0.78367946E+03</pdfrwt>
<pdfrwt beam="2">  1       -2 0.61773562E-01 0.78367946E+03</pdfrwt>
<totfact> 0.60792770E+01</totfact>
</mgrwt>
</event>
<event>
 5    0  0.2754780E-002  0.4900054E+03  0.7546771E-02  0.1016421E+00
         -2   -1    0    0    0  501 -0.00000000000E+00  0.00000000000E+00  0.70942757706E+02  0.70942757706E+02  0.00000000000E+00 0.  1.
          2   -1    0    0  502    0  0.00000000000E+00 -0.00000000000E+00 -0.14878854931E+04  0.14878854931E+04  0.00000000000E+00 0. -1.
         25    1    1    2    0    0 -0.23260127695E+03 -0.80088816956E+02 -0.41937997725E+03  0.50201806537E+03  0.12500000000E+03 0.  0.
         21    1    1    2  502  503  0.20439922673E+03  0.61882480945E+02 -0.36155553287E+03  0.41991771657E+03  0.00000000000E+00 0.  1.
         21    1    1    2  503  501  0.28202050215E+02  0.18206336011E+02 -0.63600722524E+03  0.63689246884E+03  0.00000000000E+00 0.  1.
<mgrwt>
<rscale>  4 0.49000542E+03</rscale>
<asrwt>0</asrwt>
<pdfrwt beam="1">  1        2 0.22890547E+00 0.49000542E+03</pdfrwt>
<pdfrwt beam="2">  1       -2 0.10914270E-01 0.49000542E+03</pdfrwt>
<totfact> 0.78704495E+02</totfact>
</mgrwt>
</event>
<event>
 5    0  0.2754780E-002  0.3869979E+03  0.7546771E-02  0.1048377E+00
          1   -1    0    0  502    0  0.00000000000E+00  0.00000000000E+00  0.17959095616E+03  0.17959095616E+03  0.00000000000E+00 0.  1.
         -1   -1    0    0    0  501 -0.00000000000E+00 -0.00000000000E+00 -0.54003107737E+03  0.54003107737E+03  0.00000000000E+00 0. -1.
         25    1    1    2    0    0  0.10609351024E+03  0.17404833587E+03 -0.21279907620E+03  0.32008921095E+03  0.12500000000E+03 0.  0.
         21    1    1    2  502  503 -0.19103097795E+02 -0.71398039327E+02  0.96030875569E+02  0.12117977318E+03  0.00000000000E+00 0.  1.
         21    1    1    2  503  501 -0.86990412447E+02 -0.10265029654E+03 -0.24367192058E+03  0.27835304941E+03  0.00000000000E+00 0.  1.
<mgrwt>
<rscale>  4 0.38699789E+03</rscale>
<asrwt>0</asrwt>
<pdfrwt beam="1">  1        1 0.27629378E-01 0.38699789E+03</pdfrwt>
<pdfrwt beam="2">  1       -1 0.83081703E-01 0.38699789E+03</pdfrwt>
<totfact> 0.25309151E+02</totfact>
</mgrwt>
</event>
<event>
 5    0  0.2754780E-002  0.5589640E+03  0.7546771E-02  0.9994402E-01
          2   -1    0    0  503    0  0.00000000000E+00  0.00000000000E+00  0.23313655930E+03  0.23313655930E+03  0.00000000000E+00 0.  1.
         -2   -1    0    0    0  501 -0.00000000000E+00 -0.00000000000E+00 -0.39301634232E+03  0.39301634232E+03  0.00000000000E+00 0. -1.
         25    1    1    2    0    0 -0.22787027815E+03 -0.10041412820E+03 -0.14093009881E+03  0.31224053798E+03  0.12500000000E+03 0.  0.
         21    1    1    2  502  501 -0.25282732936E+02 -0.24588233616E+01  0.26717531595E+02  0.36865822812E+02  0.00000000000E+00 0. -1.
         21    1    1    2  503  502  0.25315301109E+03  0.10287295156E+03 -0.45667215795E+02  0.27704654083E+03  0.00000000000E+00 0. -1.
<mgrwt>
<rscale>  4 0.55896396E+03</rscale>
<asrwt>0</asrwt>
<pdfrwt beam="1">  1        2 0.35867163E-01 0.55896396E+03</pdfrwt>
<pdfrwt beam="2">  1       -2 0.60464052E-01 0.55896396E+03</pdfrwt>
<totfact> 0.37472184E+02</totfact>
</mgrwt>
</event>
<event>
 5    0  0.2754780E-002  0.4742182E+03  0.7546771E-02  0.1020736E+00
         -1   -1    0    0    0  501 -0.00000000000E+00  0.00000000000E+00  0.22413234924E+03  0.22413234924E+03  0.00000000000E+00 0.  1.
          1   -1    0    0  503    0  0.00000000000E+00 -0.00000000000E+00 -0.48536251462E+03  0.48536251462E+03  0.00000000000E+00 0. -1.
         25    1    1    2    0    0  0.17269050546E+03 -0.13592083761E+03 -0.10257054621E+03  0.27284098248E+03  0.12500000000E+03 0.  0.
         21    1    1    2  502  501  0.23428202490E+01  0.59390572397E+02 -0.22631869520E+03  0.23399333472E+03  0.00000000000E+00 0. -1.
         21    1    1    2  503  502 -0.17503332571E+03  0.76530265215E+02  0.67659076021E+02  0.20266054666E+03  0.00000000000E+00 0.  1.
<mgrwt>
<rscale>  4 0.47421819E+03</rscale>
<asrwt>0</asrwt>
<pdfrwt beam="1">  1        1 0.74671156E-01 0.47421819E+03</pdfrwt>
<pdfrwt beam="2">  1       -1 0.34481900E-01 0.47421819E+03</pdfrwt>
<totfact> 0.37536736E+02</totfact>
</mgrwt>
</event>
<event>
 5    0  0.2754780E-002  0.4870745E+03  0.7546771E-02  0.1017209E+00
         -1   -1    0    0    0  501 -0.00000000000E+00  0.00000000000E+00  0.87868787509E+02  0.87868787509E+02  0.00000000000E+00 0. -1.
          1   -1    0    0  503    0  0.00000000000E+00 -0.00000000000E+00 -0.79802984537E+03  0.79802984537E+03  0.00000000000E+00 0.  1.
         25    1    1    2    0    0 -0.19784114762E+03 -0.82393972374E+02 -0.51874083880E+03  0.57501908161E+03  0.12500000000E+03 0.  0.
         21    1    1    2  502  501  0.28685357147E+02  0.11850715127E+02 -0.10264568373E+03  0.10723537453E+03  0.00000000000E+00 0. -1.
         21    1    1    2  503  502  0.16915579048E+03  0.70543257247E+02 -0.88774535335E+02  0.20364417674E+03  0.00000000000E+00 0. -1.
<mgrwt>
<rscale>  4 0.48707447E+03</rscale>
<asrwt>0</asrwt>
<pdfrwt beam="1">  1        1 0.12277382E+00 0.48707447E+03</pdfrwt>
<pdfrwt beam="2">  1       -1 0.13518275E-01 0.48707447E+03</pdfrwt>
<totfact> 0.87423900E+02</totfact>
</mgrwt>
</event>
<event>
 5    0  0.2754780E-002  0.7847727E+03  0.7546771E-02  0.9582323E-01
          1   -1    0    0  503    0  0.00000000000E+00  0.00000000000E+00  0.44396907499E+03  0.44396907499E+03  0.00000000000E+00 0. -1.
         -1   -1    0    0    0  501 -0.00000000000E+00 -0.00000000000E+00 -0.39986207402E+03  0.39986207402E+03  0.00000000000E+00 0.  1.
         25    1    1    2    0    0  0.88530273105E+01 -0.36257886556E+03 -0.25642872948E+02  0.38447934506E+03  0.12500000000E+03 0.  0.
         21    1    1    2  502  501 -0.15323635961E+02 -0.36805323717E+02  0.43570983101E+02  0.59058244483E+02  0.00000000000E+00 0.  1.
         21    1    1    2  503  502  0.64706086506E+01  0.39938418928E+03  0.26178890823E+02  0.40029355946E+03  0.00000000000E+00 0. -1.
<mgrwt>
<rscale>  4 0.78477272E+03</rscale>
<asrwt>0</asrwt>
<pdfrwt beam="1">  1        1 0.68302935E-01 0.78477272E+03</pdfrwt>
<pdfrwt beam="2">  1       -1 0.61517242E-01 0.78477272E+03</pdfrwt>
<totfact> 0.14167770E+02</totfact>
</mgrwt>
</event>
<event>
 5    0  0.2754780E-002  0.4660154E+03  0.7546771E-02  0.1023051E+00
         -4   -1    0    0    0  501 -0.00000000000E+00  0.00000000000E+00  0.99637139321E+03  0.99637139321E+03  0.00000000000E+00 0. -1.
          4   -1    0    0  503    0  0.00000000000E+00 -0.00000000000E+00 -0.72329272855E+02  0.72329272855E+02  0.00000000000E+00 0.  1.
         25    1    1    2    0    0 -0.84908551968E+02  0.19503624204E+03  0.58041130609E+03  0.63067494174E+03  0.12500000000E+03 0.  0.
         21    1    1    2  502  501 -0.49814630240E+02 -0.37860331494E+02  0.58394574887E+02  0.85585211708E+02  0.00000000000E+00 0.  1.
         21    1    1    2  503  502  0.13472318221E+03 -0.15717591054E+03  0.28523623938E+03  0.35244051262E+03  0.00000000000E+00 0. -1.
<mgrwt>
<rscale>  4 0.46601537E+03</rscale>
<asrwt>0</asrwt>
<pdfrwt beam="1">  1        4 0.11127581E-01 0.46601537E+03</pdfrwt>
<pdfrwt beam="2">  1       -4 0.15328790E+00 0.46601537E+03</pdfrwt>
<totfact> 0.36254810E+01</totfact>
</mgrwt>
</event>
<event>
 5    0  0.2754780E-002  0.8395247E+03  0.7546771E-02  0.9504505E-01
         -1   -1    0    0    0  501 -0.00000000000E+00  0.00000000000E+00  0.85680775166E+03  0.85680775166E+03  0.00000000000E+00 0.  1.
          1   -1    0    0  503    0  0.00000000000E+00 -0.00000000000E+00 -0.40866937935E+03  0.40866937935E+03  0.00000000000E+00 0. -1.
         25    1    1    2    0    0  0.40408021821E+03 -0.27212779969E-01  0.24258139546E+03  0.48759774089E+03  0.12500000000E+03 0.  0.
         21    1    1    2  502  501 -0.33811239644E+00 -0.24948126423E+02 -0.20207020305E+03  0.20360474035E+03  0.00000000000E+00 0.  1.
         21    1    1    2  503  502 -0.40374210582E+03  0.24975339203E+02  0.40762717990E+03  0.57427464977E+03  0.00000000000E+00 0. -1.
<mgrwt>
<rscale>  4 0.83952474E+03</rscale>
<asrwt>0</asrwt>
<pdfrwt beam="1">  1        1 0.62872212E-01 0.83952474E+03</pdfrwt>
<pdfrwt beam="2">  1       -1 0.13181658E+00 0.83952474E+03</pdfrwt>
<totfact> 0.28985606E+01</totfact>
</mgrwt>
</event>
<event>
 5    0  0.2754780E-002  0.3999996E+03  0.7546771E-02  0.1043780E+00
          2   -1    0    0  503    0  0.00000000000E+00  0.00000000000E+00  0.14103282122E+04  0.14103282122E+04  0.00000000000E+00 0. -1.
         -2   -1    0    0    0  501 -0.00000000000E+00 -0.00000000000E+00 -0.48134448681E+02  0.48134448681E+02  0.00000000000E+00 0.  1.
         25    1    1    2    0    0 -0.15777289176E+03  0.13442168481E+03  0.40677291890E+03  0.47333992254E+03  0.12500000000E+03 0.  0.
         21    1    1    2  502  501  0.25977369757E+02 -0.70809724594E+02  0.52760831890E+03  0.53297221223E+03  0.00000000000E+00 0.  1.
         21    1    1    2  503  502  0.13179552200E+03 -0.63611960216E+02  0.42781252575E+03  0.45215052615E+03  0.00000000000E+00 0. -1.
<mgrwt>
<rscale>  4 0.39999963E+03</rscale>
<asrwt>0</asrwt>
<pdfrwt beam="1">  1        2 0.21697354E+00 0.39999963E+03</pdfrwt>
<pdfrwt beam="2">  1       -2 0.74053009E-02 0.39999963E+03</pdfrwt>
<totfact> 0.16220561E+03</totfact>
</mgrwt>
</event>
<event>
 5    0  0.2754780E-002  0.5558258E+03  0.7546771E-02  0.1000154E+00
          1   -1    0    0  503    0  0.00000000000E+00  0.00000000000E+00  0.10789980970E+04  0.10789980970E+04  0.00000000000E+00 0.  1.
         -1   -1    0    0    0  501 -0.00000000000E+00 -0.00000000000E+00 -0.71580822484E+02  0.71580822484E+02  0.00000000000E+00 0. -1.
         25    1    1    2    0    0  0.38101302325E+02 -0.20090100984E+03  0.18589631380E+03  0.30330737623E+03  0.12500000000E+03 0.  0.
         21    1    1    2  502  501 -0.15439094041E+02  0.26750315859E+02  0.98569684004E+02  0.10329534175E+03  0.00000000000E+00 0.  1.
         21    1    1    2  503  502 -0.22662208284E+02  0.17415069398E+03  0.72295127669E+03  0.74397620147E+03  0.00000000000E+00 0.  1.
<mgrwt>
<rscale>  4 0.55582577E+03</rscale>
<asrwt>0</asrwt>
<pdfrwt beam="1">  1        1 0.16599970E+00 0.55582577E+03</pdfrwt>
<pdfrwt beam="2">  1       -1 0.11012435E-01 0.55582577E+03</pdfrwt>
<totfact> 0.72376170E+02</totfact>
</mgrwt>
</event>
<event>
 5    0  0.2754780E-002  0.8753263E+03  0.7546771E-02  0.9456961E-01
          1   -1    0    0  502    0  0.00000000000E+00  0.00000000000E+00  0.30926759574E+03  0.30926759574E+03  0.00000000000E+00 0. -1.
         -1   -1    0    0    0  501 -0.00000000000E+00 -0.00000000000E+00 -0.16363081892E+04  0.16363081892E+04  0.00000000000E+00 0.  1.
         25    1    1    2    0    0 -0.68540834609E+02 -0.38739937926E+03 -0.10214313925E+04  0.11016910704E+04  0.12500000000E+03 0.  0.
         21    1    1    2  502  503  0.45721286286E+02  0.41773870550E+03 -0.49580485445E+03  0.64993731681E+03  0.00000000000E+00 0. -1.
         21    1    1    2  503  501  0.22819548323E+02 -0.30339326244E+02  0.19019565344E+03  0.19394739774E+03  0.00000000000E+00 0. -1.
<mgrwt>
<rscale>  4 0.87532633E+03</rscale>
<asrwt>0</asrwt>
<pdfrwt beam="1">  1        1 0.47579631E-01 0.87532633E+03</pdfrwt>
<pdfrwt beam="2">  1       -1 0.25173972E+00 0.87532633E+03</pdfrwt>
<totfact> 0.58507751E+00</totfact>
</mgrwt>
</event>
<event>
 5    0  0.2754780E-002  0.5360131E+03  0.7546771E-02  0.1004784E+00
         -1   -1    0    0    0  501 -0.00000000000E+00  0.00000000000E+00  0.47288069358E+03  0.47288069358E+03  0.00000000000E+00 0.  1.
          1   -1    0    0  503    0  0.00000000000E+00 -0.00000000000E+00 -0.54233982206E+03  0.54233982206E+03  0.00000000000E+00 0. -1.
         25    1    1    2    0    0 -0.13942092873E+03  0.16156217562E+03  0.10803812799E+03  0.26988473291E+03  0.12500000000E+03 0.  0.
         21    1    1    2  502  501 -0.68291236813E+02  0.32720778308E+02 -0.38557112798E+03  0.39293693780E+03  0.00000000000E+00 0. -1.
         21    1    1    2  503  502  0.20771216555E+03 -0.19428295392E+03  0.20807387151E+03  0.35239884493E+03  0.00000000000E+00 0.  1.
<mgrwt>
<rscale>  4 0.53601311E+03</rscale>
<asrwt>0</asrwt>
<pdfrwt beam="1">  1        1 0.83436895E-01 0.53601311E+03</pdfrwt>
<pdfrwt beam="2">  1       -1 0.72750877E-01 0.53601311E+03</pdfrwt>
<totfact> 0.78294063E+01</totfact>
</mgrwt>
</event>
<event>
 5    0  0.2754780E-002  0.5140960E+03  0.7546771E-02  0.1010164E+00
          4   -1    0    0  503    0  0.00000000000E+00  0.00000000000E+00  0.22171593923E+04  0.22171593923E+04  0.00000000000E+00 0.  1.
         -4   -1    0    0    0  501 -0.00000000000E+00 -0.00000000000E+00 -0.39418660457E+02  0.39418660457E+02  0.00000000000E+00 0. -1.
         25    1    1    2    0    0 -0.19042644585E+03  0.11450968949E+03  0.10417490788E+04  0.10724928174E+04  0.12500000000E+03 0.  0.
         21    1    1    2  502  501 -0.30842273967E+02 -0.79316251992E+01  0.51947411801E+03  0.52044934031E+03  0.00000000000E+00 0.  1.
         21    1    1    2  503  502  0.22126871981E+03 -0.10657806429E+03  0.61651753507E+03  0.66363589505E+03  0.00000000000E+00 0. -1.
<mgrwt>
<rscale>  4 0.51409605E+03</rscale>
<asrwt>0</asrwt>
<pdfrwt beam="1">  1        4 0.34110135E+00 0.51409605E+03</pdfrwt>
<pdfrwt beam="2">  1       -4 0.60644110E-02 0.51409605E+03</pdfrwt>
<totfact> 0.65880338E+00</totfact>
</mgrwt>
</event>
<event>
 5    0  0.2754780E-002  0.5215031E+03  0.7546771E-02  0.1008314E+00
         -1   -1    0    0    0  501 -0.00000000000E+00  0.00000000000E+00  0.33328306736E+03  0.33328306736E+03  0.00000000000E+00 0. -1.
          1   -1    0    0  502    0  0.00000000000E+00 -0.00000000000E+00 -0.25731512260E+03  0.25731512260E+03  0.00000000000E+00 0.  1.
         25    1    1    2    0    0 -0.18952894871E+03 -0.79023444491E+02  0.12302939732E+03  0.27005029121E+03  0.12500000000E+03 0.  0.
         21    1    1    2  502  503  0.24809522312E+03  0.67391961391E+02 -0.32906057386E+02  0.25918280192E+03  0.00000000000E+00 0.  1.
         21    1    1    2  503  501 -0.58566274413E+02  0.11631483100E+02 -0.14155395175E+02  0.61365096841E+02  0.00000000000E+00 0. -1.
<mgrwt>
<rscale>  4 0.52150307E+03</rscale>
<asrwt>0</asrwt>
<pdfrwt beam="1">  1        1 0.39586942E-01 0.52150307E+03</pdfrwt>
<pdfrwt beam="2">  1       -1 0.51274318E-01 0.52150307E+03</pdfrwt>
<totfact> 0.41572887E+02</totfact>
</mgrwt>
</event>
<event>
 5    0  0.2754780E-002  0.8362186E+03  0.7546771E-02  0.9509023E-01
          2   -1    0    0  503    0  0.00000000000E+00  0.00000000000E+00  0.16837749503E+04  0.16837749503E+04  0.00000000000E+00 0. -1.
         -2   -1    0    0    0  501 -0.00000000000E+00 -0.00000000000E+00 -0.10382349252E+03  0.10382349252E+03  0.00000000000E+00 0.  1.
         25    1    1    2    0    0 -0.28055955751E+03 -0.48095917454E+02  0.19007027502E+03  0.36438796911E+03  0.12500000000E+03 0.  0.
         21    1    1    2  502  501  0.83092342979E+02  0.67529267826E+02  0.44199775628E+03  0.45478187742E+03  0.00000000000E+00 0. -1.
         21    1    1    2  503  502  0.19746721453E+03 -0.19433350371E+02  0.94788342648E+03  0.96842859629E+03  0.00000000000E+00 0. -1.
<mgrwt>
<rscale>  4 0.83621862E+03</rscale>
<asrwt>0</asrwt>
<pdfrwt beam="1">  1        2 0.25904228E+00 0.83621862E+03</pdfrwt>
<pdfrwt beam="2">  1       -2 0.15972846E-01 0.83621862E+03</pdfrwt>
<totfact> 0.31862056E+02</totfact>
</mgrwt>
</event>
<event>
 5    0  0.2754780E-002  0.6410016E+03  0.7546771E-02  0.9823812E-01
         -2   -1    0    0    0  501 -0.00000000000E+00  0.00000000000E+00  0.58972433635E+02  0.58972433635E+02  0.00000000000E+00 0.  1.
          2   -1    0    0  503    0  0.00000000000E+00 -0.00000000000E+00 -0.21644838972E+04  0.21644838972E+04  0.00000000000E+00 0. -1.
         25    1    1    2    0    0 -0.32031263684E+02 -0.31759761724E+03 -0.80588810550E+03  0.87577102425E+03  0.12500000000E+03 0.  0.
         21    1    1    2  502  501  0.54160448322E+01  0.25050938619E+02 -0.41035074806E+03  0.41115036119E+03  0.00000000000E+00 0.  1.
         21    1    1    2  503  502  0.26615218852E+02  0.29254667863E+03 -0.88927260998E+03  0.93653494538E+03  0.00000000000E+00 0. -1.
<mgrwt>
<rscale>  4 0.64100162E+03</rscale>
<asrwt>0</asrwt>
<pdfrwt beam="1">  1        2 0.33299745E+00 0.64100162E+03</pdfrwt>
<pdfrwt beam="2">  1       -2 0.90726840E-02 0.64100162E+03</pdfrwt>
<totfact> 0.45065568E+02</totfact>
</mgrwt>
</event>
<event>
 5    0  0.2754780E-002  0.4182150E+03  0.7546771E-02  0.1037649E+00
          1   -1    0    0  502    0  0.00000000000E+00  0.00000000000E+00  0.17678558645E+04  0.17678558645E+04  0.00000000000E+00 0. -1.
         -1   -1    0    0    0  501 -0.00000000000E+00 -0.00000000000E+00 -0.45644182886E+02  0.45644182886E+02  0.00000000000E+00 0.  1.
         25    1    1    2    0    0 -0.18086736789E+03 -0.10840137584E+03  0.58666321045E+03  0.63581647159E+03  0.12500000000E+03 0.  0.
         21    1    1    2  502  503  0.16854611785E+03 -0.26653649866E+02  0.51663753551E+03  0.54408873724E+03  0.00000000000E+00 0. -1.
         21    1    1    2  503  501  0.12321250036E+02  0.13505502571E+03  0.61891093570E+03  0.63359483860E+03  0.00000000000E+00 0. -1.
<mgrwt>
<rscale>  4 0.41821498E+03</rscale>
<asrwt>0</asrwt>
<pdfrwt beam="1">  1        1 0.27197777E+00 0.41821498E+03</pdfrwt>
<pdfrwt beam="2">  1       -1 0.70221834E-02 0.41821498E+03</pdfrwt>
<totfact> 0.49395567E+02</totfact>
</mgrwt>
</event>
<event>
 5    0  0.2754780E-002  0.4926786E+03  0.7546771E-02  0.1015708E+00
         -1   -1    0    0    0  501 -0.00000000000E+00  0.00000000000E+00  0.44996800443E+03  0.44996800443E+03  0.00000000000E+00 0. -1.
          1   -1    0    0  503    0  0.00000000000E+00 -0.00000000000E+00 -0.17047273766E+03  0.17047273766E+03  0.00000000000E+00 0.  1.
         25    1    1    2    0    0 -0.16663012840E+03 -0.15336152000E+03  0.63867255530E+02  0.26643832652E+03  0.12500000000E+03 0.  0.
         21    1    1    2  502  501  0.28650801485E+02  0.98061427824E+01 -0.26693965809E+02  0.40368263186E+02  0.00000000000E+00 0.  1.
         21    1    1    2  503  502  0.13797932692E+03  0.14355537722E+03  0.24232197705E+03  0.31363415239E+03  0.00000000000E+00 0. -1.
<mgrwt>
<rscale>  4 0.49267863E+03</rscale>
<asrwt>0</asrwt>
<pdfrwt beam="1">  1        1 0.26226575E-01 0.49267863E+03</pdfrwt>
<pdfrwt beam="2">  1       -1 0.69225846E-01 0.49267863E+03</pdfrwt>
<totfact> 0.39312694E+02</totfact>
</mgrwt>
</event>
<event>
 5    0  0.2754780E-002  0.5683632E+03  0.7546771E-02  0.9973307E-01
          1   -1    0    0  502    0  0.00000000000E+00  0.00000000000E+00  0.20075292622E+03  0.20075292622E+03  0.00000000000E+00 0.  1.
         -1   -1    0    0    0  501 -0.00000000000E+00 -0.00000000000E+00 -0.53291444093E+03  0.53291444093E+03  0.00000000000E+00 0. -1.
         25    1    1    2    0    0  0.11034893019E+03  0.24773468661E+03 -0.96829464365E+02  0.31392723124E+03  0.12500000000E+03 0.  0.
         21    1    1    2  502  503 -0.15498987644E+03 -0.19465612018E+03 -0.24561376527E+03  0.34962692776E+03  0.00000000000E+00 0. -1.
         21    1    1    2  503  501  0.44640946248E+02 -0.53078566430E+02  0.10281714928E+02  0.70113208157E+02  0.00000000000E+00 0.  1.
<mgrwt>
<rscale>  4 0.56836323E+03</rscale>
<asrwt>0</asrwt>
<pdfrwt beam="1">  1        1 0.30885066E-01 0.56836323E+03</pdfrwt>
<pdfrwt beam="2">  1       -1 0.81986837E-01 0.56836323E+03</pdfrwt>
<totfact> 0.22339814E+02</totfact>
</mgrwt>
</event>
<event>
 5    0  0.2754780E-002  0.4076818E+03  0.7546771E-02  0.1041152E+00
         -1   -1    0    0    0  501 -0.00000000000E+00  0.00000000000E+00  0.13579629708E+03  0.13579629708E+03  0.00000000000E+00 0. -1.
          1   -1    0    0  502    0  0.00000000000E+00 -0.00000000000E+00 -0.78310117806E+03  0.78310117806E+03  0.00000000000E+00 0.  1.
         25    1    1    2    0    0 -0.20853910986E+03 -0.45738791937E+02 -0.57978035135E+02  0.25410047223E+03  0.12500000000E+03 0.  0.
         21    1    1    2  502  503  0.14472450917E+03 -0.19733737968E+02 -0.12711830381E+03  0.19363281523E+03  0.00000000000E+00 0.  1.
         21    1    1    2  503  501  0.63814600687E+02  0.65472529905E+02 -0.46220854203E+03  0.47116418768E+03  0.00000000000E+00 0.  1.
<mgrwt>
<rscale>  4 0.40768179E+03</rscale>
<asrwt>0</asrwt>
<pdfrwt beam="1">  1        1 0.12047710E+00 0.40768179E+03</pdfrwt>
<pdfrwt beam="2">  1       -1 0.20891738E-01 0.40768179E+03</pdfrwt>
<totfact> 0.44523135E+02</totfact>
</mgrwt>
</event>
<event>
 5    0  0.2754780E-002  0.4566296E+03  0.7546771E-02  0.1025763E+00
          2   -1    0    0  503    0  0.00000000000E+00  0.00000000000E+00  0.19120787655E+04  0.19120787655E+04  0.00000000000E+00 0.  1.
         -2   -1    0    0    0  501 -0.00000000000E+00 -0.00000000000E+00 -0.14537947564E+03  0.14537947564E+03  0.00000000000E+00 0. -1.
         25    1    1    2    0    0 -0.68265888435E+02 -0.22141738681E+03  0.19395480759E+03  0.32700054755E+03  0.12500000000E+03 0.  0.
         21    1    1    2  502  501 -0.42201398474E+02  0.82629090883E+02  0.15486703004E+04  0.15514471386E+04  0.00000000000E+00 0.  1.
         21    1    1    2  503  502  0.11046728691E+03  0.13878829593E+03  0.24074181930E+02  0.17901055500E+03  0.00000000000E+00 0.  1.
<mgrwt>
<rscale>  4 0.45662960E+03</rscale>
<asrwt>0</asrwt>
<pdfrwt beam="1">  1        2 0.29416595E+00 0.45662960E+03</pdfrwt>
<pdfrwt beam="2">  1       -2 0.22366075E-01 0.45662960E+03</pdfrwt>
<totfact> 0.13884530E+02</totfact>
</mgrwt>
</event>
<event>
 5    0  0.2754780E-002  0.4653286E+03  0.7546771E-02  0.1023247E+00
         -1   -1    0    0    0  501 -0.00000000000E+00  0.00000000000E+00  0.33404892067E+03  0.33404892067E+03  0.00000000000E+00 0. -1.
          1   -1    0    0  503    0  0.00000000000E+00 -0.00000000000E+00 -0.67347102096E+03  0.67347102096E+03  0.00000000000E+00 0.  1.
         25    1    1    2    0    0 -0.37183624870E+02 -0.22286506138E+03  0.15824306081E+03  0.30284868142E+03  0.12500000000E+03 0.  0.
         21    1    1    2  502  501  0.39222169908E+02  0.30618532929E+02 -0.50961926532E+03  0.51204264349E+03  0.00000000000E+00 0.  1.
         21    1    1    2  503  502 -0.20385450380E+01  0.19224652846E+03  0.11954104222E+02  0.19262861671E+03  0.00000000000E+00 0.  1.
<mgrwt>
<rscale>  4 0.46532857E+03</rscale>
<asrwt>0</asrwt>
<pdfrwt beam="1">  1        1 0.10361093E+00 0.46532857E+03</pdfrwt>
<pdfrwt beam="2">  1       -1 0.51392142E-01 0.46532857E+03</pdfrwt>
<totfact> 0.11471242E+02</totfact>
</mgrwt>
</event>
<event>
 5    0  0.2754780E-002  0.8611761E+03  0.7546771E-02  0.9475458E-01
          1   -1    0    0  502    0  0.00000000000E+00  0.00000000000E+00  0.58835473750E+03  0.58835473750E+03  0.00000000000E+00 0.  1.
         -1   -1    0    0    0  501 -0.00000000000E+00 -0.00000000000E+00 -0.33393705244E+03  0.33393705244E+03  0.00000000000E+00 0. -1.
         25    1    1    2    0    0  0.17713583197E+03 -0.13328106734E+03 -0.25117129952E+03  0.35756533330E+03  0.12500000000E+03 0.  0.
         21    1    1    2  502  503 -0.18477872706E+03  0.11005825539E+03  0.49153104241E+03  0.53652470885E+03  0.00000000000E+00 0.  1.
         21    1    1    2  503  501  0.76428950967E+01  0.23222811944E+02  0.14057942176E+02  0.28201747788E+02  0.00000000000E+00 0. -1.
<mgrwt>
<rscale>  4 0.86117605E+03</rscale>
<asrwt>0</asrwt>
<pdfrwt beam="1">  1        1 0.90516113E-01 0.86117605E+03</pdfrwt>
<pdfrwt beam="2">  1       -1 0.51374931E-01 0.86117605E+03</pdfrwt>
<totfact> 0.13555829E+02</totfact>
</mgrwt>
</event>
<event>
 5    0  0.2754780E-002  0.6773377E+03  0.7546771E-02  0.9756792E-01
          1   -1    0    0  503    0  0.00000000000E+00  0.00000000000E+00  0.16360841995E+04  0.16360841995E+04  0.00000000000E+00 0.  1.
         -1   -1    0    0    0  501 -0.00000000000E+00 -0.00000000000E+00 -0.13629476985E+03  0.13629476985E+03  0.00000000000E+00 0. -1.
         25    1    1    2    0    0 -0.25563692737E+03 -0.11951981264E+03  0.98371574992E+02  0.32394010405E+03  0.12500000000E+03 0.  0.
         21    1    1    2  502  501  0.39919726646E+02  0.11424479634E+02  0.79062887715E+03  0.79171846303E+03  0.00000000000E+00 0.  1.
         21    1    1    2  503  502  0.21571720072E+03  0.10809533301E+03  0.61078897748E+03  0.65672040224E+03  0.00000000000E+00 0.  1.
<mgrwt>
<rscale>  4 0.67733768E+03</rscale>
<asrwt>0</asrwt>
<pdfrwt beam="1">  1        1 0.25170525E+00 0.67733768E+03</pdfrwt>
<pdfrwt beam="2">  1       -1 0.20968427E-01 0.67733768E+03</pdfrwt>
<totfact> 0.10266719E+02</totfact>
</mgrwt>
</event>
<event>
 5    0  0.2754780E-002  0.4820921E+03  0.7546771E-02  0.1018562E+00
          2   -1    0    0  502    0  0.00000000000E+00  0.00000000000E+00  0.12538446909E+04  0.12538446909E+04  0.00000000000E+00 0.  1.
         -2   -1    0    0    0  501 -0.00000000000E+00 -0.00000000000E+00 -0.10534870578E+03  0.10534870578E+03  0.00000000000E+00 0. -1.
         25    1    1    2    0    0 -0.82193581249E+02  0.22044912918E+03  0.14466558367E+03  0.30316123508E+03  0.12500000000E+03 0.  0.
         21    1    1    2  502  503  0.28949788592E+02 -0.17908621435E+03  0.31186970170E+03  0.36079450282E+03  0.00000000000E+00 0.  1.
         21    1    1    2  503  501  0.53243792657E+02 -0.41362914835E+02  0.69196069976E+03  0.69523765878E+03  0.00000000000E+00 0.  1.
<mgrwt>
<rscale>  4 0.48209206E+03</rscale>
<asrwt>0</asrwt>
<pdfrwt beam="1">  1        2 0.19289917E+00 0.48209206E+03</pdfrwt>
<pdfrwt beam="2">  1       -2 0.16207494E-01 0.48209206E+03</pdfrwt>
<totfact> 0.55282589E+02</totfact>
</mgrwt>
</event>
<event>
 5    0  0.2754780E-002  0.5305382E+03  0.7546771E-02  0.1006102E+00
          4   -1    0    0  503    0  0.00000000000E+00  0.00000000000E+00  0.52464659794E+03  0.52464659794E+03  0.00000000000E+00 0.  1.
         -4   -1    0    0    0  501 -0.00000000000E+00 -0.00000000000E+00 -0.20960205116E+03  0.20960205116E+03  0.00000000000E+00 0. -1.
         25    1    1    2    0    0  0.17754381157E+03 -0.15929784032E+03  0.22905953621E+02  0.27027262101E+03  0.12500000000E+03 0.  0.
         21    1    1    2  502  501  0.43554460910E+00 -0.22850063852E+02  0.18711358936E+03  0.18850413905E+03  0.00000000000E+00 0.  1.
         21    1    1    2  503  502 -0.17797935618E+03  0.18214790418E+03  0.10502500380E+03  0.27547188903E+03  0.00000000000E+00 0. -1.
<mgrwt>
<rscale>  4 0.53053816E+03</rscale>
<asrwt>0</asrwt>
<pdfrwt beam="1">  1        4 0.80714861E-01 0.53053816E+03</pdfrwt>
<pdfrwt beam="2">  1       -4 0.32246470E-01 0.53053816E+03</pdfrwt>
<totfact> 0.24839420E+01</totfact>
</mgrwt>
</event>
<event>
 5    0  0.2754780E-002  0.5899212E+03  0.7546771E-02  0.9926540E-01
         -1   -1    0    0    0  501 -0.00000000000E+00  0.00000000000E+00  0.89734031164E+02  0.89734031164E+02  0.00000000000E+00 0. -1.
          1   -1    0    0  502    0  0.00000000000E+00 -0.00000000000E+00 -0.10414665717E+04  0.10414665717E+04  0.00000000000E+00 0.  1.
         25    1    1    2    0    0 -0.88375324768E+02  0.25111216138E+03 -0.32779724568E+03  0.44039022457E+03  0.12500000000E+03 0.  0.
         21    1    1    2  502  503  0.72948931520E+02 -0.26551165238E+03 -0.58315523717E+03  0.64489380118E+03  0.00000000000E+00 0.  1.
         21    1    1    2  503  501  0.15426393247E+02  0.14399491004E+02 -0.40780057717E+02  0.45916577150E+02  0.00000000000E+00 0. -1.
<mgrwt>
<rscale>  4 0.58992117E+03</rscale>
<asrwt>0</asrwt>
<pdfrwt beam="1">  1        1 0.16022564E+00 0.58992117E+03</pdfrwt>
<pdfrwt beam="2">  1       -1 0.13805235E-01 0.58992117E+03</pdfrwt>
<totfact> 0.53752699E+02</totfact>
</mgrwt>
</event>
<event>
 5    0  0.2754780E-002  0.4830354E+03  0.7546771E-02  0.1018304E+00
         -2   -1    0    0    0  501 -0.00000000000E+00  0.00000000000E+00  0.82015617267E+02  0.82015617267E+02  0.00000000000E+00 0.  1.
          2   -1    0    0  502    0  0.00000000000E+00 -0.00000000000E+00 -0.16938375090E+04  0.16938375090E+04  0.00000000000E+00 0. -1.
         25    1    1    2    0    0 -0.21969628569E+03  0.15482376102E+03 -0.87959414326E+03  0.92819594471E+03  0.12500000000E+03 0.  0.
         21    1    1    2  502  503  0.39170028853E+02 -0.12062991805E+03 -0.42323223148E+02  0.13370536080E+03  0.00000000000E+00 0.  1.
         21    1    1    2  503  501  0.18052625684E+03 -0.34193842973E+02 -0.68990452537E+03  0.71395182080E+03  0.00000000000E+00 0.  1.
<mgrwt>
<rscale>  4 0.48303542E+03</rscale>
<asrwt>0</asrwt>
<pdfrwt beam="1">  1        2 0.26059036E+00 0.48303542E+03</pdfrwt>
<pdfrwt beam="2">  1       -2 0.12617788E-01 0.48303542E+03</pdfrwt>
<totfact> 0.47985468E+02</totfact>
</mgrwt>
</event>
<event>
 5    0  0.2754780E-002  0.7135168E+03  0.7546771E-02  0.9694392E-01
         -2   -1    0    0    0  501 -0.00000000000E+00  0.00000000000E+00  0.14229110668E+04  0.14229110668E+04  0.00000000000E+00 0.  1.
          2   -1    0    0  502    0  0.00000000000E+00 -0.00000000000E+00 -0.39129740931E+03  0.39129740931E+03  0.00000000000E+00 0. -1.
         25    1    1    2    0    0  0.13711294793E+03 -0.20140093220E+03  0.17559685257E+03  0.32530224501E+03  0.12500000000E+03 0.  0.
         21    1    1    2  502  503 -0.17241732388E+03  0.19740631838E+03  0.11567546694E+04  0.11860768749E+04  0.00000000000E+00 0.  1.
         21    1    1    2  503  501  0.35304375957E+02  0.39946138138E+01 -0.30073786440E+03  0.30282935622E+03  0.00000000000E+00 0. -1.
<mgrwt>
<rscale>  4 0.71351683E+03</rscale>
<asrwt>0</asrwt>
<pdfrwt beam="1">  1        2 0.60199602E-01 0.71351683E+03</pdfrwt>
<pdfrwt beam="2">  1       -2 0.21890939E+00 0.71351683E+03</pdfrwt>
<totfact> 0.83986200E+00</totfact>
</mgrwt>
</event>
<event>
 5    0  0.2754780E-002  0.4555629E+03  0.7546771E-02  0.1026076E+00
          1   -1    0    0  502    0  0.00000000000E+00  0.00000000000E+00  0.42933096076E+03  0.42933096076E+03  0.00000000000E+00 0. -1.
         -1   -1    0    0    0  501 -0.00000000000E+00 -0.00000000000E+00 -0.17238214772E+03  0.17238214772E+03  0.00000000000E+00 0.  1.
         25    1    1    2    0    0  0.20801647651E+03 -0.53132870397E+02  0.22575738994E+02  0.24945665036E+03  0.12500000000E+03 0.  0.
         21    1    1    2  502  503 -0.14492135918E+03  0.20367820150E+01  0.22884216501E+03  0.27087835889E+03  0.00000000000E+00 0. -1.
         21    1    1    2  503  501 -0.63095117332E+02  0.51096088382E+02  0.55309090377E+01  0.81378099228E+02  0.00000000000E+00 0. -1.
<mgrwt>
<rscale>  4 0.45556290E+03</rscale>
<asrwt>0</asrwt>
<pdfrwt beam="1">  1        1 0.66050917E-01 0.45556290E+03</pdfrwt>
<pdfrwt beam="2">  1       -1 0.26520331E-01 0.45556290E+03</pdfrwt>
<totfact> 0.69667936E+02</totfact>
</mgrwt>
</event>
<event>
 5    0  0.2754780E-002  0.5573750E+03  0.7546771E-02  0.9998012E-01
          1   -1    0    0  503    0  0.00000000000E+00  0.00000000000E+00  0.15239886514E+04  0.15239886514E+04  0.00000000000E+00 0. -1.
         -1   -1    0    0    0  501 -0.00000000000E+00 -0.00000000000E+00 -0.10954045768E+03  0.10954045768E+03  0.00000000000E+00 0.  1.
         25    1    1    2    0    0  0.18945046549E+03  0.18900925233E+03  0.36942071247E+03  0.47298270491E+03  0.12500000000E+03 0.  0.
         21    1    1    2  502  501  0.58120309959E+01 -0.20433784875E+02  0.81392855765E+03  0.81420575792E+03  0.00000000000E+00 0. -1.
         21    1    1    2  503  502 -0.19526249648E+03 -0.16857546746E+03  0.23109892363E+03  0.34634064628E+03  0.00000000000E+00 0. -1.
<mgrwt>
<rscale>  4 0.55737503E+03</rscale>
<asrwt>0</asrwt>
<pdfrwt beam="1">  1        1 0.23445978E+00 0.55737503E+03</pdfrwt>
<pdfrwt beam="2">  1       -1 0.16852379E-01 0.55737503E+03</pdfrwt>
<totfact> 0.17753452E+02</totfact>
</mgrwt>
</event>
<event>
 5    0  0.2754780E-002  0.7053190E+03  0.7546771E-02  0.9708179E-01
          2   -1    0    0  502    0  0.00000000000E+00  0.00000000000E+00  0.52799456164E+03  0.52799456164E+03  0.00000000000E+00 0. -1.
         -2   -1    0    0    0  501 -0.00000000000E+00 -0.00000000000E+00 -0.28749660169E+03  0.28749660169E+03  0.00000000000E+00 0.  1.
         25    1    1    2    0    0 -0.20851328222E+03  0.25129509114E+03 -0.48142352780E+02  0.35294432680E+03  0.12500000000E+03 0.  0.
         21    1    1    2  502  503  0.18429079404E+03 -0.25007172246E+03  0.19721095088E+03  0.36795532649E+03  0.00000000000E+00 0. -1.
         21    1    1    2  503  501  0.24222488173E+02 -0.12233686767E+01  0.91429361851E+02  0.94591510045E+02  0.00000000000E+00 0.  1.
<mgrwt>
<rscale>  4 0.70531898E+03</rscale>
<asrwt>0</asrwt>
<pdfrwt beam="1">  1        2 0.81229932E-01 0.70531898E+03</pdfrwt>
<pdfrwt beam="2">  1       -2 0.44230247E-01 0.70531898E+03</pdfrwt>
<totfact> 0.28276975E+02</totfact>
</mgrwt>
</event>
<event>
 5    0  0.2754780E-002  0.6901520E+03  0.7546771E-02  0.9734223E-01
          1   -1    0    0  502    0  0.00000000000E+00  0.00000000000E+00  0.13836985015E+03  0.13836985015E+03  0.00000000000E+00 0. -1.
         -1   -1    0    0    0  501 -0.00000000000E+00 -0.00000000000E+00 -0.10986547964E+04  0.10986547964E+04  0.00000000000E+00 0.  1.
         25    1    1    2    0    0  0.18898703722E+03  0.24405000459E+03 -0.34448088193E+03  0.47913315790E+03  0.12500000000E+03 0.  0.
         21    1    1    2  502  503 -0.17674707712E+03 -0.28910933684E+03 -0.62439327847E+03  0.71041586702E+03  0.00000000000E+00 0.  1.
         21    1    1    2  503  501 -0.12239960101E+02  0.45059332251E+02  0.85892141796E+01  0.47475621601E+02  0.00000000000E+00 0. -1.
<mgrwt>
<rscale>  4 0.69015197E+03</rscale>
<asrwt>0</asrwt>
<pdfrwt beam="1">  1        1 0.21287669E-01 0.69015197E+03</pdfrwt>
<pdfrwt beam="2">  1       -1 0.16902382E+00 0.69015197E+03</pdfrwt>
<totfact> 0.61835711E+01</totfact>
</mgrwt>
</event>
<event>
 5    0  0.2754780E-002  0.5410064E+03  0.7546771E-02  0.1003597E+00
          1   -1    0    0  503    0  0.00000000000E+00  0.00000000000E+00  0.52197121257E+03  0.52197121257E+03  0.00000000000E+00 0. -1.
         -1   -1    0    0    0  501 -0.00000000000E+00 -0.00000000000E+00 -0.17114794275E+03  0.17114794275E+03  0.00000000000E+00 0.  1.
         25    1    1    2    0    0  0.22034188547E+03 -0.15949474344E+03  0.14130399799E+03  0.33103011876E+03  0.12500000000E+03 0.  0.
         21    1    1    2  502  501 -0.27849395789E+02  0.13584582756E+02  0.84723561631E+02  0.90212037057E+02  0.00000000000E+00 0.  1.
         21    1    1    2  503  502 -0.19249248968E+03  0.14591016068E+03  0.12479571020E+03  0.27187699950E+03  0.00000000000E+00 0. -1.
<mgrwt>
<rscale>  4 0.54100641E+03</rscale>
<asrwt>0</asrwt>
<pdfrwt beam="1">  1        1 0.80303263E-01 0.54100641E+03</pdfrwt>
<pdfrwt beam="2">  1       -1 0.26330453E-01 0.54100641E+03</pdfrwt>
<totfact> 0.54098519E+02</totfact>
</mgrwt>
</event>
<event>
 5    0  0.2754780E-002  0.4842212E+03  0.7546771E-02  0.1017981E+00
          2   -1    0    0  502    0  0.00000000000E+00  0.00000000000E+00  0.13896640620E+04  0.13896640620E+04  0.00000000000E+00 0.  1.
         -2   -1    0    0    0  501 -0.00000000000E+00 -0.00000000000E+00 -0.45855913935E+02  0.45855913935E+02  0.00000000000E+00 0. -1.
         25    1    1    2    0    0  0.61874521954E+02  0.19039286340E+03  0.43255338605E+03  0.49275280890E+03  0.12500000000E+03 0.  0.
         21    1    1    2  502  503 -0.67756407317E+02 -0.21003480616E+03  0.84941536756E+03  0.87761723843E+03  0.00000000000E+00 0.  1.
         21    1    1    2  503  501  0.58818853630E+01  0.19641942759E+02  0.61839394419E+02  0.65149928572E+02  0.00000000000E+00 0. -1.
<mgrwt>
<rscale>  4 0.48422121E+03</rscale>
<asrwt>0</asrwt>
<pdfrwt beam="1">  1        2 0.21379444E+00 0.48422121E+03</pdfrwt>
<pdfrwt beam="2">  1       -2 0.70547571E-02 0.48422121E+03</pdfrwt>
<totfact> 0.17932605E+03</totfact>
</mgrwt>
</event>
<event>
 5    0  0.2754780E-002  0.6661314E+03  0.7546771E-02  0.9776972E-01
          2   -1    0    0  502    0  0.00000000000E+00  0.00000000000E+00  0.49238023809E+03  0.49238023809E+03  0.00000000000E+00 0.  1.
         -2   -1    0    0    0  501 -0.00000000000E+00 -0.00000000000E+00 -0.37681617008E+03  0.37681617008E+03  0.00000000000E+00 0. -1.
         25    1    1    2    0    0 -0.30944109574E+03 -0.40311930884E+02  0.18371423793E+02  0.33666207496E+03  0.12500000000E+03 0.  0.
         21    1    1    2  502  503  0.31930982077E+03  0.93637356227E+01 -0.98402931460E+02  0.33425974646E+03  0.00000000000E+00 0.  1.
         21    1    1    2  503  501 -0.98687250235E+01  0.30948195261E+02  0.19559557568E+03  0.19827458675E+03  0.00000000000E+00 0.  1.
<mgrwt>
<rscale>  4 0.66613140E+03</rscale>
<asrwt>0</asrwt>
<pdfrwt beam="1">  1        2 0.75750806E-01 0.66613140E+03</pdfrwt>
<pdfrwt beam="2">  1       -2 0.57971718E-01 0.66613140E+03</pdfrwt>
<totfact> 0.17695645E+02</totfact>
</mgrwt>
</event>
<event>
 5    0  0.2754780E-002  0.7775233E+03  0.7546771E-02  0.9593133E-01
          2   -1    0    0  503    0  0.00000000000E+00  0.00000000000E+00  0.55873754989E+03  0.55873754989E+03  0.00000000000E+00 0.  1.
         -2   -1    0    0    0  501 -0.00000000000E+00 -0.00000000000E+00 -0.27049483555E+03  0.27049483555E+03  0.00000000000E+00 0. -1.
         25    1    1    2    0    0 -0.20410885938E+03 -0.24675050335E+03 -0.57514364889E+02  0.34853857685E+03  0.12500000000E+03 0.  0.
         21    1    1    2  502  501  0.76089981518E+01  0.33815138553E+02  0.81397425018E+02  0.88469775900E+02  0.00000000000E+00 0.  1.
         21    1    1    2  503  502  0.19649986123E+03  0.21293536480E+03  0.26435965421E+03  0.39222403269E+03  0.00000000000E+00 0.  1.
<mgrwt>
<rscale>  4 0.77752330E+03</rscale>
<asrwt>0</asrwt>
<pdfrwt beam="1">  1        2 0.85959623E-01 0.77752330E+03</pdfrwt>
<pdfrwt beam="2">  1       -2 0.41614590E-01 0.77752330E+03</pdfrwt>
<totfact> 0.29761200E+02</totfact>
</mgrwt>
</event>
<event>
 5    0  0.2754780E-002  0.5924936E+03  0.7546771E-02  0.9921103E-01
         -2   -1    0    0    0  501 -0.00000000000E+00  0.00000000000E+00  0.94434538159E+02  0.94434538159E+02  0.00000000000E+00 0. -1.
          2   -1    0    0  502    0  0.00000000000E+00 -0.00000000000E+00 -0.11225589466E+04  0.11225589466E+04  0.00000000000E+00 0.  1.
         25    1    1    2    0    0 -0.26802111353E+02  0.21774178204E+03 -0.14291877182E+03  0.29013895318E+03  0.12500000000E+03 0.  0.
         21    1    1    2  502  503  0.27383368392E+02 -0.23944416443E+03 -0.69886464671E+03  0.73925310359E+03  0.00000000000E+00 0. -1.
         21    1    1    2  503  501 -0.58125703935E+00  0.21702382391E+02 -0.18634098995E+03  0.18760142802E+03  0.00000000000E+00 0. -1.
<mgrwt>
<rscale>  4 0.59249361E+03</rscale>
<asrwt>0</asrwt>
<pdfrwt beam="1">  1        2 0.17270137E+00 0.59249361E+03</pdfrwt>
<pdfrwt beam="2">  1       -2 0.14528391E-01 0.59249361E+03</pdfrwt>
<totfact> 0.78942138E+02</totfact>
</mgrwt>
</event>
<event>
 5    0  0.2754780E-002  0.4777280E+03  0.7546771E-02  0.1019761E+00
          1   -1    0    0  503    0  0.00000000000E+00  0.00000000000E+00  0.90758051880E+03  0.90758051880E+03  0.00000000000E+00 0.  1.
         -1   -1    0    0    0  501 -0.00000000000E+00 -0.00000000000E+00 -0.74089184902E+02  0.74089184902E+02  0.00000000000E+00 0. -1.
         25    1    1    2    0    0 -0.12831699837E+03  0.16339998944E+03  0.58234365389E+03  0.63080420088E+03  0.12500000000E+03 0.  0.
         21    1    1    2  502  501  0.50714306290E+01 -0.24739469722E+02  0.12257814013E+03  0.12515255174E+03  0.00000000000E+00 0.  1.
         21    1    1    2  503  502  0.12324556774E+03 -0.13866051972E+03  0.12856953988E+03  0.22571295107E+03  0.00000000000E+00 0. -1.
<mgrwt>
<rscale>  4 0.47772802E+03</rscale>
<asrwt>0</asrwt>
<pdfrwt beam="1">  1        1 0.13962776E+00 0.47772802E+03</pdfrwt>
<pdfrwt beam="2">  1       -1 0.11398337E-01 0.47772802E+03</pdfrwt>
<totfact> 0.93137367E+02</totfact>
</mgrwt>
</event>
<event>
 5    0  0.2754780E-002  0.9834273E+03  0.7546771E-02  0.9326911E-01
         -2   -1    0    0    0  501 -0.00000000000E+00  0.00000000000E+00  0.29588449976E+03  0.29588449976E+03  0.00000000000E+00 0. -1.
          2   -1    0    0  502    0  0.00000000000E+00 -0.00000000000E+00 -0.14845773787E+04  0.14845773787E+04  0.00000000000E+00 0.  1.
         25    1    1    2    0    0 -0.29528403824E+03  0.58231095678E+02  0.16794113465E+03  0.36662344231E+03  0.12500000000E+03 0.  0.
         21    1    1    2  502  503  0.28332760247E+03 -0.23482041124E+02 -0.69111688550E+03  0.74730749093E+03  0.00000000000E+00 0.  1.
         21    1    1    2  503  501  0.11956435772E+02 -0.34749054553E+02 -0.66551712814E+03  0.66653094526E+03  0.00000000000E+00 0.  1.
<mgrwt>
<rscale>  4 0.98342730E+03</rscale>
<asrwt>0</asrwt>
<pdfrwt beam="1">  1        2 0.22839652E+00 0.98342730E+03</pdfrwt>
<pdfrwt beam="2">  1       -2 0.45520692E-01 0.98342730E+03</pdfrwt>
<totfact> 0.59280636E+01</totfact>
</mgrwt>
</event>
<event>
 5    0  0.2754780E-002  0.3984736E+03  0.7546771E-02  0.1044309E+00
         -2   -1    0    0    0  501 -0.00000000000E+00  0.00000000000E+00  0.65688464195E+02  0.65688464195E+02  0.00000000000E+00 0. -1.
          2   -1    0    0  502    0  0.00000000000E+00 -0.00000000000E+00 -0.96568785385E+03  0.96568785385E+03  0.00000000000E+00 0.  1.
         25    1    1    2    0    0  0.62912019720E+02 -0.19276594802E+03 -0.33845908966E+03  0.41387943693E+03  0.12500000000E+03 0.  0.
         21    1    1    2  502  503 -0.46349550433E+02  0.15329257275E+03 -0.21378054681E+03  0.26711236564E+03  0.00000000000E+00 0.  1.
         21    1    1    2  503  501 -0.16562469287E+02  0.39473375273E+02 -0.34775975319E+03  0.35038451547E+03  0.00000000000E+00 0.  1.
<mgrwt>
<rscale>  4 0.39847361E+03</rscale>
<asrwt>0</asrwt>
<pdfrwt beam="1">  1        2 0.14856735E+00 0.39847361E+03</pdfrwt>
<pdfrwt beam="2">  1       -2 0.10105918E-01 0.39847361E+03</pdfrwt>
<totfact> 0.17997708E+03</totfact>
</mgrwt>
</event>
<event>
 5    0  0.2754780E-002  0.4606673E+03  0.7546771E-02  0.1024588E+00
         -1   -1    0    0    0  501 -0.00000000000E+00  0.00000000000E+00  0.57019106013E+03  0.57019106013E+03  0.00000000000E+00 0. -1.
          1   -1    0    0  503    0  0.00000000000E+00 -0.00000000000E+00 -0.16010309271E+03  0.16010309271E+03  0.00000000000E+00 0.  1.
         25    1    1    2    0    0  0.79260907313E+02  0.18828348332E+03  0.40846593189E+03  0.47350013625E+03  0.12500000000E+03 0.  0.
         21    1    1    2  502  501  0.18697826376E+01 -0.33259817646E+02 -0.62190698399E+02  0.70550652189E+02  0.00000000000E+00 0. -1.
         21    1    1    2  503  502 -0.81130689951E+02 -0.15502366567E+03  0.63812733923E+02  0.18624336439E+03  0.00000000000E+00 0.  1.
<mgrwt>
<rscale>  4 0.46066729E+03</rscale>
<asrwt>0</asrwt>
<pdfrwt beam="1">  1        1 0.24631245E-01 0.46066729E+03</pdfrwt>
<pdfrwt beam="2">  1       -1 0.87721701E-01 0.46066729E+03</pdfrwt>
<totfact> 0.26029778E+02</totfact>
</mgrwt>
</event>
<event>
 5    0  0.2754780E-002  0.5124822E+03  0.7546771E-02  0.1010571E+00
          2   -1    0    0  502    0  0.00000000000E+00  0.00000000000E+00  0.28652056323E+03  0.28652056323E+03  0.00000000000E+00 0.  1.
         -2   -1    0    0    0  501 -0.00000000000E+00 -0.00000000000E+00 -0.27774620008E+03  0.27774620008E+03  0.00000000000E+00 0. -1.
         25    1    1    2    0    0 -0.23756926666E+03  0.83705401343E+02  0.30234746400E+02  0.28281600125E+03  0.12500000000E+03 0.  0.
         21    1    1    2  502  503  0.20376940007E+03 -0.90037727344E+02 -0.59086479734E+02  0.23047770573E+03  0.00000000000E+00 0. -1.
         21    1    1    2  503  501  0.33799866588E+02  0.63323260017E+01  0.37626096488E+02  0.50973056323E+02  0.00000000000E+00 0. -1.
<mgrwt>
<rscale>  4 0.51248220E+03</rscale>
<asrwt>0</asrwt>
<pdfrwt beam="1">  1        2 0.44080087E-01 0.51248220E+03</pdfrwt>
<pdfrwt beam="2">  1       -2 0.42730185E-01 0.51248220E+03</pdfrwt>
<totfact> 0.60447785E+02</totfact>
</mgrwt>
</event>
<event>
 5    0  0.2754780E-002  0.4701624E+03  0.7546771E-02  0.1021874E+00
          2   -1    0    0  503    0  0.00000000000E+00  0.00000000000E+00  0.12428498761E+04  0.12428498761E+04  0.00000000000E+00 0. -1.
         -2   -1    0    0    0  501 -0.00000000000E+00 -0.00000000000E+00 -0.80833693243E+02  0.80833693243E+02  0.00000000000E+00 0.  1.
         25    1    1    2    0    0 -0.39344421993E+02 -0.21434372711E+03  0.43723201426E+03  0.50426981982E+03  0.12500000000E+03 0.  0.
         21    1    1    2  502  501 -0.77476651280E+02  0.43323931323E+02  0.52222443749E+03  0.52971497773E+03  0.00000000000E+00 0. -1.
         21    1    1    2  503  502  0.11682107327E+03  0.17101979579E+03  0.20255973113E+03  0.28969877181E+03  0.00000000000E+00 0. -1.
<mgrwt>
<rscale>  4 0.47016236E+03</rscale>
<asrwt>0</asrwt>
<pdfrwt beam="1">  1        2 0.19120766E+00 0.47016236E+03</pdfrwt>
<pdfrwt beam="2">  1       -2 0.12435954E-01 0.47016236E+03</pdfrwt>
<totfact> 0.87323485E+02</totfact>
</mgrwt>
</event>
<event>
 5    0  0.2754780E-002  0.1014503E+04  0.7546771E-02  0.9292779E-01
         -2   -1    0    0    0  501 -0.00000000000E+00  0.00000000000E+00  0.39938157637E+03  0.39938157637E+03  0.00000000000E+00 0. -1.
          2   -1    0    0  503    0  0.00000000000E+00 -0.00000000000E+00 -0.64425666652E+03  0.64425666652E+03  0.00000000000E+00 0.  1.
         25    1    1    2    0    0  0.22473775640E+03  0.18932506115E+03  0.28483165046E+03  0.42790782540E+03  0.12500000000E+03 0.  0.
         21    1    1    2  502  501 -0.68453856181E+02 -0.87596350547E+02 -0.29953527360E+03  0.31950028355E+03  0.00000000000E+00 0.  1.
         21    1    1    2  503  502 -0.15628390022E+03 -0.10172871060E+03 -0.23017146701E+03  0.29623013394E+03  0.00000000000E+00 0.  1.
<mgrwt>
<rscale>  4 0.10145033E+04</rscale>
<asrwt>0</asrwt>
<pdfrwt beam="1">  1        2 0.99116409E-01 0.10145033E+04</pdfrwt>
<pdfrwt beam="2">  1       -2 0.61443320E-01 0.10145033E+04</pdfrwt>
<totfact> 0.11174597E+02</totfact>
</mgrwt>
</event>
<event>
 5    0  0.2754780E-002  0.6963917E+03  0.7546771E-02  0.9723423E-01
          2   -1    0    0  503    0  0.00000000000E+00  0.00000000000E+00  0.25708150827E+04  0.25708150827E+04  0.00000000000E+00 0. -1.
         -2   -1    0    0    0  501 -0.00000000000E+00 -0.00000000000E+00 -0.47160274387E+02  0.47160274387E+02  0.00000000000E+00 0.  1.
         25    1    1    2    0    0 -0.30724562050E+03  0.82730703732E+02  0.99328564708E+03  0.10504692367E+04  0.12500000000E+03 0.  0.
         21    1    1    2  502  501  0.22568043386E+03 -0.11146778630E+03  0.10844017767E+04  0.11132313052E+04  0.00000000000E+00 0. -1.
         21    1    1    2  503  502  0.81565186639E+02  0.28737082570E+02  0.44596738456E+03  0.45427481515E+03  0.00000000000E+00 0. -1.
<mgrwt>
<rscale>  4 0.69639168E+03</rscale>
<asrwt>0</asrwt>
<pdfrwt beam="1">  1        2 0.39550990E+00 0.69639168E+03</pdfrwt>
<pdfrwt beam="2">  1       -2 0.72554288E-02 0.69639168E+03</pdfrwt>
<totfact> 0.38052550E+02</totfact>
</mgrwt>
</event>
<event>
 5    0  0.2754780E-002  0.4529447E+03  0.7546771E-02  0.1026848E+00
          1   -1    0    0  503    0  0.00000000000E+00  0.00000000000E+00  0.21822814502E+03  0.21822814502E+03  0.00000000000E+00 0.  1.
         -1   -1    0    0    0  501 -0.00000000000E+00 -0.00000000000E+00 -0.28001205427E+03  0.28001205427E+03  0.00000000000E+00 0. -1.
         25    1    1    2    0    0 -0.15501522903E+03 -0.12637864628E+03  0.53061685358E+02  0.24174744243E+03  0.12500000000E+03 0.  0.
         21    1    1    2  502  501  0.25028157947E+02  0.16178012216E+02  0.22727218025E+02  0.37478836810E+02  0.00000000000E+00 0. -1.
         21    1    1    2  503  502  0.12998707109E+03  0.11020063407E+03 -0.13757281263E+03  0.21901392004E+03  0.00000000000E+00 0. -1.
<mgrwt>
<rscale>  4 0.45294470E+03</rscale>
<asrwt>0</asrwt>
<pdfrwt beam="1">  1        1 0.33573561E-01 0.45294470E+03</pdfrwt>
<pdfrwt beam="2">  1       -1 0.43078778E-01 0.45294470E+03</pdfrwt>
<totfact> 0.71046015E+02</totfact>
</mgrwt>
</event>
<event>
 5    0  0.2754780E-002  0.4174346E+03  0.7546771E-02  0.1037905E+00
         -1   -1    0    0    0  501 -0.00000000000E+00  0.00000000000E+00  0.77733005358E+03  0.77733005358E+03  0.00000000000E+00 0.  1.
          1   -1    0    0  503    0  0.00000000000E+00 -0.00000000000E+00 -0.92294487830E+02  0.92294487830E+02  0.00000000000E+00 0. -1.
         25    1    1    2    0    0 -0.14276703034E+03 -0.15550957213E+03  0.42040516192E+03  0.48675574177E+03  0.12500000000E+03 0.  0.
         21    1    1    2  502  501  0.17030968331E+02  0.38036470837E+02 -0.23071091070E+02  0.47635094617E+02  0.00000000000E+00 0. -1.
         21    1    1    2  503  502  0.12573606201E+03  0.11747310129E+03  0.28770149490E+03  0.33523370503E+03  0.00000000000E+00 0.  1.
<mgrwt>
<rscale>  4 0.41743456E+03</rscale>
<asrwt>0</asrwt>
<pdfrwt beam="1">  1        1 0.14199152E-01 0.41743456E+03</pdfrwt>
<pdfrwt beam="2">  1       -1 0.11958923E+00 0.41743456E+03</pdfrwt>
<totfact> 0.26595367E+02</totfact>
</mgrwt>
</event>
<event>
 5    0  0.2754780E-002  0.4044278E+03  0.7546771E-02  0.1042257E+00
          1   -1    0    0  502    0  0.00000000000E+00  0.00000000000E+00  0.85624192780E+03  0.85624192780E+03  0.00000000000E+00 0. -1.
         -1   -1    0    0    0  501 -0.00000000000E+00 -0.00000000000E+00 -0.10477960309E+03  0.10477960309E+03  0.00000000000E+00 0.  1.
         25    1    1    2    0    0 -0.39208570080E+02 -0.21276986898E+03  0.15241918873E+03  0.29268573284E+03  0.12500000000E+03 0.  0.
         21    1    1    2  502  503  0.22155628812E+02  0.14943012747E+03  0.14437471645E+03  0.20896002880E+03  0.00000000000E+00 0. -1.
         21    1    1    2  503  501  0.17052941268E+02  0.63339741511E+02  0.45466841952E+03  0.45937576925E+03  0.00000000000E+00 0. -1.
<mgrwt>
<rscale>  4 0.40442780E+03</rscale>
<asrwt>0</asrwt>
<pdfrwt beam="1">  1        1 0.13172952E+00 0.40442780E+03</pdfrwt>
<pdfrwt beam="2">  1       -1 0.16119939E-01 0.40442780E+03</pdfrwt>
<totfact> 0.59061348E+02</totfact>
</mgrwt>
</event>
<event>
 5    0  0.2754780E-002  0.5453922E+03  0.7546771E-02  0.1002566E+00
         -2   -1    0    0    0  501 -0.00000000000E+00  0.00000000000E+00  0.70739218440E+03  0.70739218440E+03  0.00000000000E+00 0.  1.
          2   -1    0    0  502    0  0.00000000000E+00 -0.00000000000E+00 -0.12367675890E+03  0.12367675890E+03  0.00000000000E+00 0. -1.
         25    1    1    2    0    0 -0.15684007313E+03  0.16929852297E+03  0.32271463026E+03  0.41596938710E+03  0.12500000000E+03 0.  0.
         21    1    1    2  502  503  0.18388964577E+03 -0.20659452350E+03  0.21959838122E+03  0.35315739833E+03  0.00000000000E+00 0. -1.
         21    1    1    2  503  501 -0.27049572635E+02  0.37296000525E+02  0.41402414020E+02  0.61942157870E+02  0.00000000000E+00 0. -1.
<mgrwt>
<rscale>  4 0.54539216E+03</rscale>
<asrwt>0</asrwt>
<pdfrwt beam="1">  1        2 0.19027194E-01 0.54539216E+03</pdfrwt>
<pdfrwt beam="2">  1       -2 0.10882956E+00 0.54539216E+03</pdfrwt>
<totfact> 0.20603252E+02</totfact>
</mgrwt>
</event>
<event>
 5    0  0.2754780E-002  0.5507275E+03  0.7546771E-02  0.1001326E+00
         -2   -1    0    0    0  501 -0.00000000000E+00  0.00000000000E+00  0.19900254198E+03  0.19900254198E+03  0.00000000000E+00 0. -1.
          2   -1    0    0  502    0  0.00000000000E+00 -0.00000000000E+00 -0.47619147987E+03  0.47619147987E+03  0.00000000000E+00 0.  1.
         25    1    1    2    0    0 -0.14220197341E+03  0.21331330199E+03 -0.18973093390E+03  0.34255918222E+03  0.12500000000E+03 0.  0.
         21    1    1    2  502  503  0.17847994861E+03 -0.17086149820E+03 -0.24210626601E+02  0.24826376712E+03  0.00000000000E+00 0. -1.
         21    1    1    2  503  501 -0.36277975194E+02 -0.42451803783E+02 -0.63247377391E+02  0.84371072504E+02  0.00000000000E+00 0. -1.
<mgrwt>
<rscale>  4 0.55072749E+03</rscale>
<asrwt>0</asrwt>
<pdfrwt beam="1">  1        2 0.73260226E-01 0.55072749E+03</pdfrwt>
<pdfrwt beam="2">  1       -2 0.30615776E-01 0.55072749E+03</pdfrwt>
<totfact> 0.64769624E+02</totfact>
</mgrwt>
</event>
<event>
 5    0  0.2754780E-002  0.5021731E+03  0.7546771E-02  0.1013213E+00
         -2   -1    0    0    0  501 -0.00000000000E+00  0.00000000000E+00  0.12748438579E+03  0.12748438579E+03  0.00000000000E+00 0. -1.
          2   -1    0    0  503    0  0.00000000000E+00 -0.00000000000E+00 -0.80954435968E+03  0.80954435968E+03  0.00000000000E+00 0.  1.
         25    1    1    2    0    0  0.15173163581E+03  0.15164641810E+03 -0.27458514432E+03  0.37019066291E+03  0.12500000000E+03 0.  0.
         21    1    1    2  502  501  0.19077423670E+02  0.92416623040E+01 -0.31326595861E+03  0.31398235180E+03  0.00000000000E+00 0.  1.
         21    1    1    2  503  502 -0.17080905948E+03 -0.16088808040E+03 -0.94208870961E+02  0.25285573077E+03  0.00000000000E+00 0. -1.
<mgrwt>
<rscale>  4 0.50217306E+03</rscale>
<asrwt>0</asrwt>
<pdfrwt beam="1">  1        2 0.12454528E+00 0.50217306E+03</pdfrwt>
<pdfrwt beam="2">  1       -2 0.19612983E-01 0.50217306E+03</pdfrwt>
<totfact> 0.75612785E+02</totfact>
</mgrwt>
</event>
<event>
 5    0  0.2754780E-002  0.6320711E+03  0.7546771E-02  0.9841015E-01
         -1   -1    0    0    0  501 -0.00000000000E+00  0.00000000000E+00  0.99506434477E+02  0.99506434477E+02  0.00000000000E+00 0.  1.
          1   -1    0    0  503    0  0.00000000000E+00 -0.00000000000E+00 -0.10037388230E+04  0.10037388230E+04  0.00000000000E+00 0. -1.
         25    1    1    2    0    0 -0.19434737430E+03  0.15432810859E+03 -0.16759811416E+03  0.32450299670E+03  0.12500000000E+03 0.  0.
         21    1    1    2  502  501  0.61723592498E+02 -0.42166713373E+02 -0.29118467282E+03  0.30062659110E+03  0.00000000000E+00 0. -1.
         21    1    1    2  503  502  0.13262378180E+03 -0.11216139522E+03 -0.44544960154E+03  0.47811566967E+03  0.00000000000E+00 0. -1.
<mgrwt>
<rscale>  4 0.63207111E+03</rscale>
<asrwt>0</asrwt>
<pdfrwt beam="1">  1        1 0.15442136E+00 0.63207111E+03</pdfrwt>
<pdfrwt beam="2">  1       -1 0.15308682E-01 0.63207111E+03</pdfrwt>
<totfact> 0.48499984E+02</totfact>
</mgrwt>
</event>
<event>
 5    0  0.2754780E-002  0.4016387E+03  0.7546771E-02  0.1043214E+00
         -1   -1    0    0    0  501 -0.00000000000E+00  0.00000000000E+00  0.12372189898E+03  0.12372189898E+03  0.00000000000E+00 0. -1.
          1   -1    0    0  503    0  0.00000000000E+00 -0.00000000000E+00 -0.50154774762E+03  0.50154774762E+03  0.00000000000E+00 0.  1.
         25    1    1    2    0    0  0.10218477554E+03 -0.17703058381E+03 -0.10044153064E+03  0.25979810822E+03  0.12500000000E+03 0.  0.
         21    1    1    2  502  501 -0.14231350946E+02  0.44797046167E+02 -0.16329835894E+03  0.16992839882E+03  0.00000000000E+00 0.  1.
         21    1    1    2  503  502 -0.87953424589E+02  0.13223353765E+03 -0.11408595907E+03  0.19554313957E+03  0.00000000000E+00 0.  1.
<mgrwt>
<rscale>  4 0.40163865E+03</rscale>
<asrwt>0</asrwt>
<pdfrwt beam="1">  1        1 0.77161192E-01 0.40163865E+03</pdfrwt>
<pdfrwt beam="2">  1       -1 0.19034138E-01 0.40163865E+03</pdfrwt>
<totfact> 0.98505222E+02</totfact>
</mgrwt>
</event>
<event>
 5    0  0.2754780E-002  0.1391270E+04  0.7546771E-02  0.8960162E-01
         -1   -1    0    0    0  501 -0.00000000000E+00  0.00000000000E+00  0.57953514012E+03  0.57953514012E+03  0.00000000000E+00 0.  1.
          1   -1    0    0  502    0  0.00000000000E+00 -0.00000000000E+00 -0.11666331896E+04  0.11666331896E+04  0.00000000000E+00 0. -1.
         25    1    1    2    0    0 -0.16334272422E+03  0.63698587280E+03  0.12006431881E+03  0.68005315112E+03  0.12500000000E+03 0.  0.
         21    1    1    2  502  503  0.15191891813E+03 -0.18824475053E+03 -0.16585599610E+02  0.24246757701E+03  0.00000000000E+00 0. -1.
         21    1    1    2  503  501  0.11423806082E+02 -0.44874112227E+03 -0.69057676873E+03  0.82364760163E+03  0.00000000000E+00 0. -1.
<mgrwt>
<rscale>  4 0.13912697E+04</rscale>
<asrwt>0</asrwt>
<pdfrwt beam="1">  1        1 0.17948203E+00 0.13912697E+04</pdfrwt>
<pdfrwt beam="2">  1       -1 0.89159254E-01 0.13912697E+04</pdfrwt>
<totfact> 0.13548978E+01</totfact>
</mgrwt>
</event>
<event>
 5    0  0.2754780E-002  0.5705680E+03  0.7546771E-02  0.9968422E-01
          1   -1    0    0  502    0  0.00000000000E+00  0.00000000000E+00  0.11863140448E+04  0.11863140448E+04  0.00000000000E+00 0.  1.
         -1   -1    0    0    0  501 -0.00000000000E+00 -0.00000000000E+00 -0.68604905640E+02  0.68604905640E+02  0.00000000000E+00 0. -1.
         25    1    1    2    0    0  0.22269493904E+03 -0.99063294408E+02  0.33332008075E+03  0.43143232192E+03  0.12500000000E+03 0.  0.
         21    1    1    2  502  503 -0.18626746429E+03  0.95480455986E+02  0.59898257716E+03  0.63450154725E+03  0.00000000000E+00 0. -1.
         21    1    1    2  503  501 -0.36427474745E+02  0.35828384220E+01  0.18540648125E+03  0.18898508125E+03  0.00000000000E+00 0.  1.
<mgrwt>
<rscale>  4 0.57056801E+03</rscale>
<asrwt>0</asrwt>
<pdfrwt beam="1">  1        1 0.18250984E+00 0.57056801E+03</pdfrwt>
<pdfrwt beam="2">  1       -1 0.10554602E-01 0.57056801E+03</pdfrwt>
<totfact> 0.64550737E+02</totfact>
</mgrwt>
</event>
<event>
 5    0  0.2754780E-002  0.7447806E+03  0.7546771E-02  0.9643574E-01
         -2   -1    0    0    0  501 -0.00000000000E+00  0.00000000000E+00  0.12588623362E+03  0.12588623362E+03  0.00000000000E+00 0.  1.
          2   -1    0    0  502    0  0.00000000000E+00 -0.00000000000E+00 -0.14396161368E+04  0.14396161368E+04  0.00000000000E+00 0. -1.
         25    1    1    2    0    0  0.17051509987E+03 -0.13315310839E+03 -0.97121104029E+03  0.10028364943E+04  0.12500000000E+03 0.  0.
         21    1    1    2  502  503 -0.19289161790E+03  0.12179359862E+03 -0.91022072056E+01  0.22830616964E+03  0.00000000000E+00 0.  1.
         21    1    1    2  503  501  0.22376518031E+02  0.11359509766E+02 -0.33341665571E+03  0.33435970649E+03  0.00000000000E+00 0.  1.
<mgrwt>
<rscale>  4 0.74478064E+03</rscale>
<asrwt>0</asrwt>
<pdfrwt beam="1">  1        2 0.22147939E+00 0.74478064E+03</pdfrwt>
<pdfrwt beam="2">  1       -2 0.19367114E-01 0.74478064E+03</pdfrwt>
<totfact> 0.31400803E+02</totfact>
</mgrwt>
</event>
<event>
 5    0  0.2754780E-002  0.5287257E+03  0.7546771E-02  0.1006542E+00
         -2   -1    0    0    0  501 -0.00000000000E+00  0.00000000000E+00  0.82443485868E+02  0.82443485868E+02  0.00000000000E+00 0.  1.
          2   -1    0    0  503    0  0.00000000000E+00 -0.00000000000E+00 -0.16253004070E+04  0.16253004070E+04  0.00000000000E+00 0. -1.
         25    1    1    2    0    0 -0.54530184412E+02  0.26852059101E+03 -0.31451576964E+03  0.43545610360E+03  0.12500000000E+03 0.  0.
         21    1    1    2  502  501  0.21413276694E+02 -0.72331173109E+02 -0.75596785233E+03  0.75972213393E+03  0.00000000000E+00 0. -1.
         21    1    1    2  503  502  0.33116907718E+02 -0.19618941790E+03 -0.47237329917E+03  0.51256565535E+03  0.00000000000E+00 0. -1.
<mgrwt>
<rscale>  4 0.52872568E+03</rscale>
<asrwt>0</asrwt>
<pdfrwt beam="1">  1        2 0.25004621E+00 0.52872568E+03</pdfrwt>
<pdfrwt beam="2">  1       -2 0.12683613E-01 0.52872568E+03</pdfrwt>
<totfact> 0.51616580E+02</totfact>
</mgrwt>
</event>
<event>
 5    0  0.2754780E-002  0.6505041E+03  0.7546771E-02  0.9805834E-01
          1   -1    0    0  503    0  0.00000000000E+00  0.00000000000E+00  0.34346974954E+03  0.34346974954E+03  0.00000000000E+00 0.  1.
         -1   -1    0    0    0  501 -0.00000000000E+00 -0.00000000000E+00 -0.36636102416E+03  0.36636102416E+03  0.00000000000E+00 0. -1.
         25    1    1    2    0    0 -0.29688903765E+03  0.67097118101E+01 -0.15758599713E+03  0.35867320419E+03  0.12500000000E+03 0.  0.
         21    1    1    2  502  501  0.28661315639E+02  0.42637463608E+02  0.25832837903E+02  0.57504433144E+02  0.00000000000E+00 0.  1.
         21    1    1    2  503  502  0.26822772202E+03 -0.49347175418E+02  0.10886188460E+03  0.29365313637E+03  0.00000000000E+00 0. -1.
<mgrwt>
<rscale>  4 0.65050412E+03</rscale>
<asrwt>0</asrwt>
<pdfrwt beam="1">  1        1 0.52841500E-01 0.65050412E+03</pdfrwt>
<pdfrwt beam="2">  1       -1 0.56363234E-01 0.65050412E+03</pdfrwt>
<totfact> 0.23775397E+02</totfact>
</mgrwt>
</event>
<event>
 5    0  0.2754780E-002  0.8469134E+03  0.7546771E-02  0.9494489E-01
         -2   -1    0    0    0  501 -0.00000000000E+00  0.00000000000E+00  0.12990243304E+03  0.12990243304E+03  0.00000000000E+00 0.  1.
          2   -1    0    0  503    0  0.00000000000E+00 -0.00000000000E+00 -0.13803865123E+04  0.13803865123E+04  0.00000000000E+00 0. -1.
         25    1    1    2    0    0  0.26137559052E+03 -0.25393528713E+03 -0.30536090866E+03  0.49160005483E+03  0.12500000000E+03 0.  0.
         21    1    1    2  502  501 -0.21480974479E+03  0.22089493819E+03 -0.87838834252E+03  0.93086190192E+03  0.00000000000E+00 0. -1.
         21    1    1    2  503  502 -0.46565845737E+02  0.33040348942E+02 -0.66734828086E+02  0.87826988603E+02  0.00000000000E+00 0. -1.
<mgrwt>
<rscale>  4 0.84691338E+03</rscale>
<asrwt>0</asrwt>
<pdfrwt beam="1">  1        2 0.21236715E+00 0.84691338E+03</pdfrwt>
<pdfrwt beam="2">  1       -2 0.19984990E-01 0.84691338E+03</pdfrwt>
<totfact> 0.31913718E+02</totfact>
</mgrwt>
</event>
<event>
 5    0  0.4803350E-002  0.1072273E+04  0.7546771E-02  0.9232646E-01
         -2   -1    0    0    0  501 -0.00000000000E+00  0.00000000000E+00  0.52022267773E+03  0.52022267773E+03  0.00000000000E+00 0.  1.
          2   -1    0    0  503    0  0.00000000000E+00 -0.00000000000E+00 -0.57656373167E+03  0.57656373167E+03  0.00000000000E+00 0. -1.
         25    1    1    2    0    0 -0.38379854457E+03 -0.10736215334E+03 -0.38294391833E+03  0.56665597973E+03  0.12500000000E+03 0.  0.
         21    1    1    2  502  501  0.20515012837E+02  0.38077819271E+01 -0.10922991537E+02  0.23551575298E+02  0.00000000000E+00 0. -1.
         21    1    1    2  503  502  0.36328353173E+03  0.10355437141E+03  0.33752585593E+03  0.50657885436E+03  0.00000000000E+00 0.  1.
<mgrwt>
<rscale>  4 0.10722734E+04</rscale>
<asrwt>0</asrwt>
<pdfrwt beam="1">  1        2 0.88702112E-01 0.10722734E+04</pdfrwt>
<pdfrwt beam="2">  1       -2 0.80034259E-01 0.10722734E+04</pdfrwt>
<totfact> 0.71487149E+01</totfact>
</mgrwt>
</event>
<event>
 5    0  0.2754780E-002  0.6696763E+03  0.7546771E-02  0.9770543E-01
          2   -1    0    0  503    0  0.00000000000E+00  0.00000000000E+00  0.13868627870E+04  0.13868627870E+04  0.00000000000E+00 0. -1.
         -2   -1    0    0    0  501 -0.00000000000E+00 -0.00000000000E+00 -0.80841873094E+02  0.80841873094E+02  0.00000000000E+00 0.  1.
         25    1    1    2    0    0 -0.92942352765E+02  0.28406640542E+03  0.44130114951E+03  0.54745201450E+03  0.12500000000E+03 0.  0.
         21    1    1    2  502  501 -0.13902277079E+02 -0.93838611437E+02  0.21879750265E+03  0.23847705439E+03  0.00000000000E+00 0.  1.
         21    1    1    2  503  502  0.10684462984E+03 -0.19022779399E+03  0.64592226173E+03  0.68177559118E+03  0.00000000000E+00 0.  1.
<mgrwt>
<rscale>  4 0.66967630E+03</rscale>
<asrwt>0</asrwt>
<pdfrwt beam="1">  1        2 0.21336349E+00 0.66967630E+03</pdfrwt>
<pdfrwt beam="2">  1       -2 0.12437212E-01 0.66967630E+03</pdfrwt>
<totfact> 0.71599483E+02</totfact>
</mgrwt>
</event>
<event>
 5    0  0.2754780E-002  0.6433693E+03  0.7546771E-02  0.9819301E-01
         -2   -1    0    0    0  501 -0.00000000000E+00  0.00000000000E+00  0.17452575900E+03  0.17452575900E+03  0.00000000000E+00 0. -1.
          2   -1    0    0  503    0  0.00000000000E+00 -0.00000000000E+00 -0.11117237646E+04  0.11117237646E+04  0.00000000000E+00 0.  1.
         25    1    1    2    0    0 -0.29717760272E+01  0.29046307006E+03 -0.19963431445E+03  0.37397391089E+03  0.12500000000E+03 0.  0.
         21    1    1    2  502  501 -0.18863482675E+02  0.35812640933E+02 -0.51529465574E+03  0.51688195795E+03  0.00000000000E+00 0.  1.
         21    1    1    2  503  502  0.21835258702E+02 -0.32627571099E+03 -0.22226903540E+03  0.39539365474E+03  0.00000000000E+00 0.  1.
<mgrwt>
<rscale>  4 0.64336927E+03</rscale>
<asrwt>0</asrwt>
<pdfrwt beam="1">  1        2 0.17103442E+00 0.64336927E+03</pdfrwt>
<pdfrwt beam="2">  1       -2 0.26850117E-01 0.64336927E+03</pdfrwt>
<totfact> 0.27388359E+02</totfact>
</mgrwt>
</event>
<event>
 5    0  0.2754780E-002  0.1060263E+04  0.7546771E-02  0.9244812E-01
         -2   -1    0    0    0  501 -0.00000000000E+00  0.00000000000E+00  0.18062835258E+03  0.18062835258E+03  0.00000000000E+00 0. -1.
          2   -1    0    0  503    0  0.00000000000E+00 -0.00000000000E+00 -0.18849534160E+04  0.18849534160E+04  0.00000000000E+00 0.  1.
         25    1    1    2    0    0 -0.15847483245E+03  0.52706890775E+03 -0.89890828230E+03  0.10614033192E+04  0.12500000000E+03 0.  0.
         21    1    1    2  502  501  0.61840547010E+02 -0.52091800859E+02 -0.27047872296E+03  0.28230577136E+03  0.00000000000E+00 0. -1.
         21    1    1    2  503  502  0.96634285440E+02 -0.47497710689E+03 -0.53493805821E+03  0.72187267805E+03  0.00000000000E+00 0.  1.
<mgrwt>
<rscale>  4 0.10602632E+04</rscale>
<asrwt>0</asrwt>
<pdfrwt beam="1">  1        2 0.28999282E+00 0.10602632E+04</pdfrwt>
<pdfrwt beam="2">  1       -2 0.27788978E-01 0.10602632E+04</pdfrwt>
<totfact> 0.91222019E+01</totfact>
</mgrwt>
</event>
<event>
 5    0  0.2754780E-002  0.3980563E+03  0.7546771E-02  0.1044455E+00
          2   -1    0    0  503    0  0.00000000000E+00  0.00000000000E+00  0.33485222000E+04  0.33485222000E+04  0.00000000000E+00 0. -1.
         -2   -1    0    0    0  501 -0.00000000000E+00 -0.00000000000E+00 -0.22244262612E+02  0.22244262612E+02  0.00000000000E+00 0.  1.
         25    1    1    2    0    0 -0.20848429041E+03  0.95104502076E+02  0.14567972642E+04  0.14799979171E+04  0.12500000000E+03 0.  0.
         21    1    1    2  502  501  0.98731240432E+02 -0.26950058611E+02  0.14030136382E+04  0.14067414235E+04  0.00000000000E+00 0.  1.
         21    1    1    2  503  502  0.10975304998E+03 -0.68154443465E+02  0.46646703495E+03  0.48402712200E+03  0.00000000000E+00 0.  1.
<mgrwt>
<rscale>  4 0.39805626E+03</rscale>
<asrwt>0</asrwt>
<pdfrwt beam="1">  1        2 0.51515686E+00 0.39805626E+03</pdfrwt>
<pdfrwt beam="2">  1       -2 0.34221969E-02 0.39805626E+03</pdfrwt>
<totfact> 0.42995598E+02</totfact>
</mgrwt>
</event>
<event>
 5    0  0.2754780E-002  0.4579132E+03  0.7546771E-02  0.1025388E+00
         -2   -1    0    0    0  501 -0.00000000000E+00  0.00000000000E+00  0.59606324902E+02  0.59606324902E+02  0.00000000000E+00 0.  1.
          2   -1    0    0  502    0  0.00000000000E+00 -0.00000000000E+00 -0.87945590943E+03  0.87945590943E+03  0.00000000000E+00 0. -1.
         25    1    1    2    0    0 -0.14036773801E+03 -0.15352344099E+03 -0.43227886829E+03  0.49574445915E+03  0.12500000000E+03 0.  0.
         21    1    1    2  502  503  0.11989170112E+03  0.14169275016E+03 -0.30145504262E+03  0.35401412142E+03  0.00000000000E+00 0. -1.
         21    1    1    2  503  501  0.20476036887E+02  0.11830690832E+02 -0.86115673622E+02  0.89303653764E+02  0.00000000000E+00 0.  1.
<mgrwt>
<rscale>  4 0.45791324E+03</rscale>
<asrwt>0</asrwt>
<pdfrwt beam="1">  1        2 0.13530091E+00 0.45791324E+03</pdfrwt>
<pdfrwt beam="2">  1       -2 0.91702035E-02 0.45791324E+03</pdfrwt>
<totfact> 0.23952973E+03</totfact>
</mgrwt>
</event>
<event>
 5    0  0.2754780E-002  0.4207707E+03  0.7546771E-02  0.1036816E+00
         -2   -1    0    0    0  501 -0.00000000000E+00  0.00000000000E+00  0.44894955342E+02  0.44894955342E+02  0.00000000000E+00 0. -1.
          2   -1    0    0  503    0  0.00000000000E+00 -0.00000000000E+00 -0.26872421473E+04  0.26872421473E+04  0.00000000000E+00 0.  1.
         25    1    1    2    0    0 -0.83510400520E+02 -0.19868377887E+03 -0.51410241322E+03  0.57129285157E+03  0.12500000000E+03 0.  0.
         21    1    1    2  502  501  0.21666480303E+02  0.40698898216E+02 -0.16940909310E+04  0.16947182419E+04  0.00000000000E+00 0.  1.
         21    1    1    2  503  502  0.61843920217E+02  0.15798488065E+03 -0.43415384769E+03  0.46612600919E+03  0.00000000000E+00 0.  1.
<mgrwt>
<rscale>  4 0.42077067E+03</rscale>
<asrwt>0</asrwt>
<pdfrwt beam="1">  1        2 0.41342178E+00 0.42077067E+03</pdfrwt>
<pdfrwt beam="2">  1       -2 0.69069176E-02 0.42077067E+03</pdfrwt>
<totfact> 0.36498021E+02</totfact>
</mgrwt>
</event>
<event>
 5    0  0.2754780E-002  0.5604273E+03  0.7546771E-02  0.9991088E-01
         -3   -1    0    0    0  501 -0.00000000000E+00  0.00000000000E+00  0.41775481958E+03  0.41775481958E+03  0.00000000000E+00 0.  1.
          3   -1    0    0  502    0  0.00000000000E+00 -0.00000000000E+00 -0.18795639502E+03  0.18795639502E+03  0.00000000000E+00 0. -1.
         25    1    1    2    0    0 -0.24865651849E+03  0.61097288938E+02  0.11988625100E+03  0.30912886646E+03  0.12500000000E+03 0.  0.
         21    1    1    2  502  503  0.20795799772E+03 -0.74967613059E+01  0.85914534039E+02  0.22513115601E+03  0.00000000000E+00 0.  1.
         21    1    1    2  503  501  0.40698520766E+02 -0.53600527632E+02  0.23997639524E+02  0.71451192137E+02  0.00000000000E+00 0. -1.
<mgrwt>
<rscale>  4 0.56042730E+03</rscale>
<asrwt>0</asrwt>
<pdfrwt beam="1">  1        3 0.28916368E-01 0.56042730E+03</pdfrwt>
<pdfrwt beam="2">  1       -3 0.64269972E-01 0.56042730E+03</pdfrwt>
<totfact> 0.71463844E+01</totfact>
</mgrwt>
</event>
<event>
 5    0  0.2754780E-002  0.5069211E+03  0.7546771E-02  0.1011988E+00
          2   -1    0    0  503    0  0.00000000000E+00  0.00000000000E+00  0.15686967731E+03  0.15686967731E+03  0.00000000000E+00 0.  1.
         -2   -1    0    0    0  501 -0.00000000000E+00 -0.00000000000E+00 -0.81945466825E+03  0.81945466825E+03  0.00000000000E+00 0. -1.
         25    1    1    2    0    0 -0.21463436408E+03 -0.24853575152E+02 -0.11646803183E+03  0.27545491987E+03  0.12500000000E+03 0.  0.
         21    1    1    2  502  501  0.79744593319E+02 -0.17669471540E+03 -0.28303005904E+03  0.34305427695E+03  0.00000000000E+00 0. -1.
         21    1    1    2  503  502  0.13488977076E+03  0.20154829055E+03 -0.26308690007E+03  0.35781514874E+03  0.00000000000E+00 0. -1.
<mgrwt>
<rscale>  4 0.50692113E+03</rscale>
<asrwt>0</asrwt>
<pdfrwt beam="1">  1        2 0.24133797E-01 0.50692113E+03</pdfrwt>
<pdfrwt beam="2">  1       -2 0.12606995E+00 0.50692113E+03</pdfrwt>
<totfact> 0.10922701E+02</totfact>
</mgrwt>
</event>
<event>
 5    0  0.2754780E-002  0.5160508E+03  0.7546771E-02  0.1009672E+00
         -1   -1    0    0    0  501 -0.00000000000E+00  0.00000000000E+00  0.13531054489E+03  0.13531054489E+03  0.00000000000E+00 0.  1.
          1   -1    0    0  502    0  0.00000000000E+00 -0.00000000000E+00 -0.14180859084E+04  0.14180859084E+04  0.00000000000E+00 0. -1.
         25    1    1    2    0    0  0.22214525661E+03 -0.61593097512E+02 -0.15045553878E+03  0.30233109970E+03  0.12500000000E+03 0.  0.
         21    1    1    2  502  503 -0.24322079309E+03  0.62501366155E+02 -0.20682352818E+03  0.32532867499E+03  0.00000000000E+00 0.  1.
         21    1    1    2  503  501  0.21075536480E+02 -0.90826864265E+00 -0.92549629658E+03  0.92573667864E+03  0.00000000000E+00 0. -1.
<mgrwt>
<rscale>  4 0.51605083E+03</rscale>
<asrwt>0</asrwt>
<pdfrwt beam="1">  1        1 0.21816706E+00 0.51605083E+03</pdfrwt>
<pdfrwt beam="2">  1       -1 0.20817007E-01 0.51605083E+03</pdfrwt>
<totfact> 0.14869708E+02</totfact>
</mgrwt>
</event>
<event>
 5    0  0.2754780E-002  0.5306733E+03  0.7546771E-02  0.1006069E+00
          1   -1    0    0  502    0  0.00000000000E+00  0.00000000000E+00  0.20744511027E+03  0.20744511027E+03  0.00000000000E+00 0. -1.
         -1   -1    0    0    0  501 -0.00000000000E+00 -0.00000000000E+00 -0.57527976269E+03  0.57527976269E+03  0.00000000000E+00 0.  1.
         25    1    1    2    0    0 -0.36447651932E+02  0.20745136496E+03 -0.74348464408E+02  0.25596326751E+03  0.12500000000E+03 0.  0.
         21    1    1    2  502  503 -0.29951155993E+01 -0.23058348237E+03 -0.37096371798E+03  0.43679719907E+03  0.00000000000E+00 0.  1.
         21    1    1    2  503  501  0.39442767532E+02  0.23132117413E+02  0.77477529963E+02  0.89964406383E+02  0.00000000000E+00 0. -1.
<mgrwt>
<rscale>  4 0.53067327E+03</rscale>
<asrwt>0</asrwt>
<pdfrwt beam="1">  1        1 0.31914633E-01 0.53067327E+03</pdfrwt>
<pdfrwt beam="2">  1       -1 0.88504578E-01 0.53067327E+03</pdfrwt>
<totfact> 0.18204189E+02</totfact>
</mgrwt>
</event>
<event>
 5    0  0.2754780E-002  0.6810052E+03  0.7546771E-02  0.9750279E-01
         -1   -1    0    0    0  501 -0.00000000000E+00  0.00000000000E+00  0.94275069600E+03  0.94275069600E+03  0.00000000000E+00 0. -1.
          1   -1    0    0  503    0  0.00000000000E+00 -0.00000000000E+00 -0.24623308235E+03  0.24623308235E+03  0.00000000000E+00 0.  1.
         25    1    1    2    0    0 -0.24907305248E+03 -0.84254021680E+02  0.15565480930E+03  0.33013564681E+03  0.12500000000E+03 0.  0.
         21    1    1    2  502  501  0.21642427031E+03  0.26161239237E+03  0.58207248697E+03  0.67386117910E+03  0.00000000000E+00 0.  1.
         21    1    1    2  503  502  0.32648782168E+02 -0.17735837069E+03 -0.41209682619E+02  0.18498695244E+03  0.00000000000E+00 0.  1.
<mgrwt>
<rscale>  4 0.68100519E+03</rscale>
<asrwt>0</asrwt>
<pdfrwt beam="1">  1        1 0.37882013E-01 0.68100519E+03</pdfrwt>
<pdfrwt beam="2">  1       -1 0.14503857E+00 0.68100519E+03</pdfrwt>
<totfact> 0.44443821E+01</totfact>
</mgrwt>
</event>
<event>
 5    0  0.2754780E-002  0.8092905E+03  0.7546771E-02  0.9546666E-01
          2   -1    0    0  502    0  0.00000000000E+00  0.00000000000E+00  0.32557746749E+03  0.32557746749E+03  0.00000000000E+00 0.  1.
         -2   -1    0    0    0  501 -0.00000000000E+00 -0.00000000000E+00 -0.12200578941E+04  0.12200578941E+04  0.00000000000E+00 0. -1.
         25    1    1    2    0    0 -0.33521279350E+03 -0.84670228332E+02 -0.10434099003E+04  0.11062847213E+04  0.12500000000E+03 0.  0.
         21    1    1    2  502  503  0.10804902402E+03  0.42333758952E+02  0.17161160476E+03  0.20716486581E+03  0.00000000000E+00 0.  1.
         21    1    1    2  503  501  0.22716376948E+03  0.42336469379E+02 -0.22682131046E+02  0.23218577448E+03  0.00000000000E+00 0.  1.
<mgrwt>
<rscale>  4 0.80929046E+03</rscale>
<asrwt>0</asrwt>
<pdfrwt beam="1">  1        2 0.50088841E-01 0.80929046E+03</pdfrwt>
<pdfrwt beam="2">  1       -2 0.18770122E+00 0.80929046E+03</pdfrwt>
<totfact> 0.16271231E+01</totfact>
</mgrwt>
</event>
<event>
 5    0  0.2754780E-002  0.4892094E+03  0.7546771E-02  0.1016634E+00
         -1   -1    0    0    0  501 -0.00000000000E+00  0.00000000000E+00  0.10814206886E+03  0.10814206886E+03  0.00000000000E+00 0. -1.
          1   -1    0    0  503    0  0.00000000000E+00 -0.00000000000E+00 -0.95867247447E+03  0.95867247447E+03  0.00000000000E+00 0.  1.
         25    1    1    2    0    0 -0.17488012460E+03 -0.21456328549E+03 -0.35658216479E+03  0.46839758934E+03  0.12500000000E+03 0.  0.
         21    1    1    2  502  501  0.94182779452E+02  0.52586496220E+02 -0.35277754753E+03  0.36890070964E+03  0.00000000000E+00 0. -1.
         21    1    1    2  503  502  0.80697345148E+02  0.16197678927E+03 -0.14117069330E+03  0.22951624435E+03  0.00000000000E+00 0. -1.
<mgrwt>
<rscale>  4 0.48920937E+03</rscale>
<asrwt>0</asrwt>
<pdfrwt beam="1">  1        1 0.14748808E+00 0.48920937E+03</pdfrwt>
<pdfrwt beam="2">  1       -1 0.16637241E-01 0.48920937E+03</pdfrwt>
<totfact> 0.46260667E+02</totfact>
</mgrwt>
</event>
<event>
 5    0  0.2754780E-002  0.9160519E+03  0.7546771E-02  0.9405735E-01
         -2   -1    0    0    0  501 -0.00000000000E+00  0.00000000000E+00  0.37732789305E+03  0.37732789305E+03  0.00000000000E+00 0. -1.
          2   -1    0    0  503    0  0.00000000000E+00 -0.00000000000E+00 -0.61202356000E+03  0.61202356000E+03  0.00000000000E+00 0.  1.
         25    1    1    2    0    0  0.10227268759E+03  0.24730228841E+03  0.27580282415E+03  0.40411671864E+03  0.12500000000E+03 0.  0.
         21    1    1    2  502  501  0.18805321287E+02 -0.15111831519E+02 -0.49072442440E+02  0.54681918104E+02  0.00000000000E+00 0. -1.
         21    1    1    2  503  502 -0.12107800888E+03 -0.23219045689E+03 -0.46142604866E+03  0.53055281631E+03  0.00000000000E+00 0.  1.
<mgrwt>
<rscale>  4 0.91605194E+03</rscale>
<asrwt>0</asrwt>
<pdfrwt beam="1">  1        2 0.94157470E-01 0.91605194E+03</pdfrwt>
<pdfrwt beam="2">  1       -2 0.58050446E-01 0.91605194E+03</pdfrwt>
<totfact> 0.13482275E+02</totfact>
</mgrwt>
</event>
<event>
 5    0  0.2754780E-002  0.4404524E+03  0.7546771E-02  0.1030608E+00
         -3   -1    0    0    0  501 -0.00000000000E+00  0.00000000000E+00  0.12516427697E+04  0.12516427697E+04  0.00000000000E+00 0. -1.
          3   -1    0    0  502    0  0.00000000000E+00 -0.00000000000E+00 -0.65179694908E+02  0.65179694908E+02  0.00000000000E+00 0.  1.
         25    1    1    2    0    0  0.95374068442E+02  0.20749343740E+03  0.46708156313E+03  0.53473350943E+03  0.12500000000E+03 0.  0.
         21    1    1    2  502  503 -0.15679749709E+02 -0.50186384337E+02  0.48972597030E+03  0.49254040821E+03  0.00000000000E+00 0. -1.
         21    1    1    2  503  501 -0.79694318733E+02 -0.15730705306E+03  0.22965554141E+03  0.28954854702E+03  0.00000000000E+00 0.  1.
<mgrwt>
<rscale>  4 0.44045240E+03</rscale>
<asrwt>0</asrwt>
<pdfrwt beam="1">  1        3 0.10027646E-01 0.44045240E+03</pdfrwt>
<pdfrwt beam="2">  1       -3 0.19256041E+00 0.44045240E+03</pdfrwt>
<totfact> 0.33013182E+01</totfact>
</mgrwt>
</event>
<event>
 5    0  0.2754780E-002  0.5721659E+03  0.7546771E-02  0.9964897E-01
         -3   -1    0    0    0  501 -0.00000000000E+00  0.00000000000E+00  0.40091999362E+03  0.40091999362E+03  0.00000000000E+00 0.  1.
          3   -1    0    0  503    0  0.00000000000E+00 -0.00000000000E+00 -0.27859035807E+03  0.27859035807E+03  0.00000000000E+00 0. -1.
         25    1    1    2    0    0 -0.28492921369E+03 -0.42290777726E+02  0.18383903253E+02  0.31454114929E+03  0.12500000000E+03 0.  0.
         21    1    1    2  502  501  0.23798700420E+03 -0.55353621290E+01  0.15205901063E+03  0.28247194040E+03  0.00000000000E+00 0. -1.
         21    1    1    2  503  502  0.46942209496E+02  0.47826139854E+02 -0.48113278336E+02  0.82497262003E+02  0.00000000000E+00 0. -1.
<mgrwt>
<rscale>  4 0.57216592E+03</rscale>
<asrwt>0</asrwt>
<pdfrwt beam="1">  1        3 0.42860055E-01 0.57216592E+03</pdfrwt>
<pdfrwt beam="2">  1       -3 0.61679999E-01 0.57216592E+03</pdfrwt>
<totfact> 0.36343182E+01</totfact>
</mgrwt>
</event>
<event>
 5    0  0.2754780E-002  0.4908182E+03  0.7546771E-02  0.1016204E+00
         -2   -1    0    0    0  501 -0.00000000000E+00  0.00000000000E+00  0.86758232260E+02  0.86758232260E+02  0.00000000000E+00 0.  1.
          2   -1    0    0  502    0  0.00000000000E+00 -0.00000000000E+00 -0.96057999701E+03  0.96057999701E+03  0.00000000000E+00 0. -1.
         25    1    1    2    0    0  0.21228116352E+03 -0.88917939875E+02 -0.51506740951E+03  0.57783140167E+03  0.12500000000E+03 0.  0.
         21    1    1    2  502  503 -0.18625515997E+03  0.40434303052E+02 -0.12166554490E+03  0.22611594878E+03  0.00000000000E+00 0.  1.
         21    1    1    2  503  501 -0.26026003553E+02  0.48483636823E+02 -0.23708881034E+03  0.24339087881E+03  0.00000000000E+00 0. -1.
<mgrwt>
<rscale>  4 0.49081818E+03</rscale>
<asrwt>0</asrwt>
<pdfrwt beam="1">  1        2 0.14778154E+00 0.49081818E+03</pdfrwt>
<pdfrwt beam="2">  1       -2 0.13347420E-01 0.49081818E+03</pdfrwt>
<totfact> 0.11496943E+03</totfact>
</mgrwt>
</event>
<event>
 5    0  0.2754780E-002  0.5454470E+03  0.7546771E-02  0.1002553E+00
          4   -1    0    0  503    0  0.00000000000E+00  0.00000000000E+00  0.12598551784E+03  0.12598551784E+03  0.00000000000E+00 0. -1.
         -4   -1    0    0    0  501 -0.00000000000E+00 -0.00000000000E+00 -0.67697836309E+03  0.67697836309E+03  0.00000000000E+00 0.  1.
         25    1    1    2    0    0 -0.23262957188E+03  0.27183531551E+02 -0.11062624163E+03  0.28760846204E+03  0.12500000000E+03 0.  0.
         21    1    1    2  502  501  0.25829114977E+02 -0.49742367973E+00  0.24016108886E+01  0.25945295251E+02  0.00000000000E+00 0. -1.
         21    1    1    2  503  502  0.20680045691E+03 -0.26686107871E+02 -0.44276821451E+03  0.48941012363E+03  0.00000000000E+00 0.  1.
<mgrwt>
<rscale>  4 0.54544703E+03</rscale>
<asrwt>0</asrwt>
<pdfrwt beam="1">  1        4 0.19382388E-01 0.54544703E+03</pdfrwt>
<pdfrwt beam="2">  1       -4 0.10415052E+00 0.54544703E+03</pdfrwt>
<totfact> 0.35984702E+01</totfact>
</mgrwt>
</event>
<event>
 5    0  0.2754780E-002  0.5204066E+03  0.7546771E-02  0.1008586E+00
         -4   -1    0    0    0  501 -0.00000000000E+00  0.00000000000E+00  0.67476814312E+03  0.67476814312E+03  0.00000000000E+00 0.  1.
          4   -1    0    0  502    0  0.00000000000E+00 -0.00000000000E+00 -0.12250765163E+03  0.12250765163E+03  0.00000000000E+00 0. -1.
         25    1    1    2    0    0 -0.20824654897E+03 -0.91666395800E+02  0.20993706444E+03  0.33386812412E+03  0.12500000000E+03 0.  0.
         21    1    1    2  502  503  0.22918198157E+03  0.99009871113E+02  0.35784869212E+03  0.43632902918E+03  0.00000000000E+00 0.  1.
         21    1    1    2  503  501 -0.20935432594E+02 -0.73434753132E+01 -0.15525265067E+02  0.27078641454E+02  0.00000000000E+00 0. -1.
<mgrwt>
<rscale>  4 0.52040656E+03</rscale>
<asrwt>0</asrwt>
<pdfrwt beam="1">  1        4 0.18847331E-01 0.52040656E+03</pdfrwt>
<pdfrwt beam="2">  1       -4 0.10381048E+00 0.52040656E+03</pdfrwt>
<totfact> 0.38059215E+01</totfact>
</mgrwt>
</event>
<event>
 5    0  0.2754780E-002  0.5226149E+03  0.7546771E-02  0.1008039E+00
         -1   -1    0    0    0  501 -0.00000000000E+00  0.00000000000E+00  0.61044103922E+02  0.61044103922E+02  0.00000000000E+00 0.  1.
          1   -1    0    0  503    0  0.00000000000E+00 -0.00000000000E+00 -0.17163140297E+04  0.17163140297E+04  0.00000000000E+00 0. -1.
         25    1    1    2    0    0  0.16146601448E+03 -0.19057302363E+03 -0.75614843116E+03  0.80608610031E+03  0.12500000000E+03 0.  0.
         21    1    1    2  502  501  0.52638267024E+02  0.93312633212E+02 -0.46881585442E+03  0.48090159079E+03  0.00000000000E+00 0. -1.
         21    1    1    2  503  502 -0.21410428151E+03  0.97260390416E+02 -0.43030564016E+03  0.49037044248E+03  0.00000000000E+00 0. -1.
<mgrwt>
<rscale>  4 0.52261487E+03</rscale>
<asrwt>0</asrwt>
<pdfrwt beam="1">  1        1 0.26404834E+00 0.52261487E+03</pdfrwt>
<pdfrwt beam="2">  1       -1 0.93913996E-02 0.52261487E+03</pdfrwt>
<totfact> 0.33688505E+02</totfact>
</mgrwt>
</event>
<event>
 5    0  0.2754780E-002  0.4679582E+03  0.7546771E-02  0.1022498E+00
          2   -1    0    0  502    0  0.00000000000E+00  0.00000000000E+00  0.25017756758E+04  0.25017756758E+04  0.00000000000E+00 0.  1.
         -2   -1    0    0    0  501 -0.00000000000E+00 -0.00000000000E+00 -0.67365090084E+02  0.67365090084E+02  0.00000000000E+00 0. -1.
         25    1    1    2    0    0 -0.10210694017E+03 -0.21874083583E+03  0.39691787409E+03  0.48108437853E+03  0.12500000000E+03 0.  0.
         21    1    1    2  502  503  0.96209609320E+02  0.16859575643E+03  0.35336493438E+03  0.40317191725E+03  0.00000000000E+00 0. -1.
         21    1    1    2  503  501  0.58973308511E+01  0.50145079402E+02  0.16841277772E+04  0.16848844701E+04  0.00000000000E+00 0.  1.
<mgrwt>
<rscale>  4 0.46795823E+03</rscale>
<asrwt>0</asrwt>
<pdfrwt beam="1">  1        2 0.38488849E+00 0.46795823E+03</pdfrwt>
<pdfrwt beam="2">  1       -2 0.10363862E-01 0.46795823E+03</pdfrwt>
<totfact> 0.24157753E+02</totfact>
</mgrwt>
</event>
<event>
 5    0  0.2754780E-002  0.5138046E+03  0.7546771E-02  0.1010237E+00
          2   -1    0    0  503    0  0.00000000000E+00  0.00000000000E+00  0.13601774067E+04  0.13601774067E+04  0.00000000000E+00 0.  1.
         -2   -1    0    0    0  501 -0.00000000000E+00 -0.00000000000E+00 -0.61592510679E+02  0.61592510679E+02  0.00000000000E+00 0. -1.
         25    1    1    2    0    0  0.18931180225E+03  0.77652604344E+02  0.24834127680E+03  0.34520613435E+03  0.12500000000E+03 0.  0.
         21    1    1    2  502  501 -0.13134835600E+02  0.16541485366E+02  0.28130962459E+03  0.28210148800E+03  0.00000000000E+00 0. -1.
         21    1    1    2  503  502 -0.17617696665E+03 -0.94194089710E+02  0.76893399464E+03  0.79446229504E+03  0.00000000000E+00 0.  1.
<mgrwt>
<rscale>  4 0.51380458E+03</rscale>
<asrwt>0</asrwt>
<pdfrwt beam="1">  1        2 0.20925804E+00 0.51380458E+03</pdfrwt>
<pdfrwt beam="2">  1       -2 0.94757718E-02 0.51380458E+03</pdfrwt>
<totfact> 0.11634741E+03</totfact>
</mgrwt>
</event>
<event>
 5    0  0.2754780E-002  0.5953010E+03  0.7546771E-02  0.9915203E-01
         -1   -1    0    0    0  501 -0.00000000000E+00  0.00000000000E+00  0.68180289428E+02  0.68180289428E+02  0.00000000000E+00 0.  1.
          1   -1    0    0  502    0  0.00000000000E+00 -0.00000000000E+00 -0.18959208327E+04  0.18959208327E+04  0.00000000000E+00 0. -1.
         25    1    1    2    0    0  0.21729019526E+03  0.75467092233E+02 -0.10471190989E+04  0.10793487473E+04  0.12500000000E+03 0.  0.
         21    1    1    2  502  503 -0.19588596103E+03 -0.11675345553E+03 -0.20313263694E+03  0.30539408523E+03  0.00000000000E+00 0.  1.
         21    1    1    2  503  501 -0.21404234231E+02  0.41286363296E+02 -0.57748880747E+03  0.57935828966E+03  0.00000000000E+00 0.  1.
<mgrwt>
<rscale>  4 0.59530102E+03</rscale>
<asrwt>0</asrwt>
<pdfrwt beam="1">  1        1 0.29168016E+00 0.59530102E+03</pdfrwt>
<pdfrwt beam="2">  1       -1 0.10489274E-01 0.59530102E+03</pdfrwt>
<totfact> 0.21350509E+02</totfact>
</mgrwt>
</event>
<event>
 5    0  0.2754780E-002  0.6711094E+03  0.7546771E-02  0.9767956E-01
         -1   -1    0    0    0  501 -0.00000000000E+00  0.00000000000E+00  0.15372243320E+03  0.15372243320E+03  0.00000000000E+00 0. -1.
          1   -1    0    0  503    0  0.00000000000E+00 -0.00000000000E+00 -0.11987901430E+04  0.11987901430E+04  0.00000000000E+00 0.  1.
         25    1    1    2    0    0 -0.17245855148E+03  0.21852612357E+03 -0.51311718752E+03  0.59700072595E+03  0.12500000000E+03 0.  0.
         21    1    1    2  502  501  0.32934959735E+03 -0.11821705885E+03 -0.33400387173E+03  0.48374065016E+03  0.00000000000E+00 0. -1.
         21    1    1    2  503  502 -0.15689104587E+03 -0.10030906472E+03 -0.19794665058E+03  0.27177120012E+03  0.00000000000E+00 0.  1.
<mgrwt>
<rscale>  4 0.67110940E+03</rscale>
<asrwt>0</asrwt>
<pdfrwt beam="1">  1        1 0.18442926E+00 0.67110940E+03</pdfrwt>
<pdfrwt beam="2">  1       -1 0.23649604E-01 0.67110940E+03</pdfrwt>
<totfact> 0.16858550E+02</totfact>
</mgrwt>
</event>
<event>
 5    0  0.2754780E-002  0.8000333E+03  0.7546771E-02  0.9559969E-01
         -2   -1    0    0    0  501 -0.00000000000E+00  0.00000000000E+00  0.25045010987E+03  0.25045010987E+03  0.00000000000E+00 0.  1.
          2   -1    0    0  503    0  0.00000000000E+00 -0.00000000000E+00 -0.83650873318E+03  0.83650873318E+03  0.00000000000E+00 0. -1.
         25    1    1    2    0    0  0.79895489595E+02  0.32733456744E+03 -0.18203349325E+03  0.40285531020E+03  0.12500000000E+03 0.  0.
         21    1    1    2  502  501 -0.37217596721E+02  0.10287457681E+03 -0.32636511630E+02  0.11416422360E+03  0.00000000000E+00 0.  1.
         21    1    1    2  503  502 -0.42677892874E+02 -0.43020914424E+03 -0.37138861843E+03  0.56993930925E+03  0.00000000000E+00 0. -1.
<mgrwt>
<rscale>  4 0.80003334E+03</rscale>
<asrwt>0</asrwt>
<pdfrwt beam="1">  1        2 0.12869365E+00 0.80003334E+03</pdfrwt>
<pdfrwt beam="2">  1       -2 0.38530787E-01 0.80003334E+03</pdfrwt>
<totfact> 0.20780483E+02</totfact>
</mgrwt>
</event>
<event>
 5    0  0.2754780E-002  0.7707925E+03  0.7546771E-02  0.9603283E-01
          2   -1    0    0  502    0  0.00000000000E+00  0.00000000000E+00  0.14149409752E+04  0.14149409752E+04  0.00000000000E+00 0.  1.
         -2   -1    0    0    0  501 -0.00000000000E+00 -0.00000000000E+00 -0.15271298072E+03  0.15271298072E+03  0.00000000000E+00 0. -1.
         25    1    1    2    0    0 -0.32199376434E+03 -0.22258735207E+02  0.14850270369E+03  0.37663442297E+03  0.12500000000E+03 0.  0.
         21    1    1    2  502  503  0.32882082017E+03 -0.13903092794E+02  0.67712423382E+03  0.75287027820E+03  0.00000000000E+00 0.  1.
         21    1    1    2  503  501 -0.68270558335E+01  0.36161828001E+02  0.43660105697E+03  0.43814925476E+03  0.00000000000E+00 0. -1.
<mgrwt>
<rscale>  4 0.77079247E+03</rscale>
<asrwt>0</asrwt>
<pdfrwt beam="1">  1        2 0.21768322E+00 0.77079247E+03</pdfrwt>
<pdfrwt beam="2">  1       -2 0.23494306E-01 0.77079247E+03</pdfrwt>
<totfact> 0.23012261E+02</totfact>
</mgrwt>
</event>
<event>
 5    0  0.2754780E-002  0.6410886E+03  0.7546771E-02  0.9823646E-01
          2   -1    0    0  502    0  0.00000000000E+00  0.00000000000E+00  0.95557767651E+03  0.95557767651E+03  0.00000000000E+00 0.  1.
         -2   -1    0    0    0  501 -0.00000000000E+00 -0.00000000000E+00 -0.14979314356E+03  0.14979314356E+03  0.00000000000E+00 0. -1.
         25    1    1    2    0    0 -0.10691060226E+03  0.17514547463E+03  0.64146394739E+03  0.68498672247E+03  0.12500000000E+03 0.  0.
         21    1    1    2  502  503  0.15784689987E+03 -0.95823030304E+02 -0.45657095182E+02  0.19021636963E+03  0.00000000000E+00 0. -1.
         21    1    1    2  503  501 -0.50936297616E+02 -0.79322444325E+02  0.20997768074E+03  0.23016772797E+03  0.00000000000E+00 0.  1.
<mgrwt>
<rscale>  4 0.64108864E+03</rscale>
<asrwt>0</asrwt>
<pdfrwt beam="1">  1        2 0.14701195E+00 0.64108864E+03</pdfrwt>
<pdfrwt beam="2">  1       -2 0.23045100E-01 0.64108864E+03</pdfrwt>
<totfact> 0.45156165E+02</totfact>
</mgrwt>
</event>
<event>
 5    0  0.2754780E-002  0.4386888E+03  0.7546771E-02  0.1031150E+00
         -2   -1    0    0    0  501 -0.00000000000E+00  0.00000000000E+00  0.10966953736E+03  0.10966953736E+03  0.00000000000E+00 0. -1.
          2   -1    0    0  502    0  0.00000000000E+00 -0.00000000000E+00 -0.59515836429E+03  0.59515836429E+03  0.00000000000E+00 0.  1.
         25    1    1    2    0    0 -0.92268454508E+02 -0.20851841599E+03 -0.22794548609E+03  0.34579985850E+03  0.12500000000E+03 0.  0.
         21    1    1    2  502  503  0.84479953719E+02  0.15649649390E+03 -0.12772022398E+03  0.21895312466E+03  0.00000000000E+00 0.  1.
         21    1    1    2  503  501  0.77885007893E+01  0.52021922091E+02 -0.12982311686E+03  0.14007491850E+03  0.00000000000E+00 0.  1.
<mgrwt>
<rscale>  4 0.43868877E+03</rscale>
<asrwt>0</asrwt>
<pdfrwt beam="1">  1        2 0.91562826E-01 0.43868877E+03</pdfrwt>
<pdfrwt beam="2">  1       -2 0.16872236E-01 0.43868877E+03</pdfrwt>
<totfact> 0.14359064E+03</totfact>
</mgrwt>
</event>
<event>
 5    0  0.2754780E-002  0.4845093E+03  0.7546771E-02  0.1017903E+00
          2   -1    0    0  503    0  0.00000000000E+00  0.00000000000E+00  0.83841424981E+03  0.83841424981E+03  0.00000000000E+00 0. -1.
         -2   -1    0    0    0  501 -0.00000000000E+00 -0.00000000000E+00 -0.21726533307E+03  0.21726533307E+03  0.00000000000E+00 0.  1.
         25    1    1    2    0    0  0.20747989151E+03  0.33686185539E+02 -0.81982411172E+02  0.25793173558E+03  0.12500000000E+03 0.  0.
         21    1    1    2  502  501 -0.25946108518E+02  0.32491393231E+01  0.56762037243E+03  0.56822235493E+03  0.00000000000E+00 0. -1.
         21    1    1    2  503  502 -0.18153378299E+03 -0.36935324862E+02  0.13551095549E+03  0.22952549237E+03  0.00000000000E+00 0. -1.
<mgrwt>
<rscale>  4 0.48450928E+03</rscale>
<asrwt>0</asrwt>
<pdfrwt beam="1">  1        2 0.12898681E+00 0.48450928E+03</pdfrwt>
<pdfrwt beam="2">  1       -2 0.33425436E-01 0.48450928E+03</pdfrwt>
<totfact> 0.27670469E+02</totfact>
</mgrwt>
</event>
<event>
 5    0  0.2754780E-002  0.5689623E+03  0.7546771E-02  0.9971978E-01
          2   -1    0    0  502    0  0.00000000000E+00  0.00000000000E+00  0.58171241856E+03  0.58171241856E+03  0.00000000000E+00 0.  1.
         -2   -1    0    0    0  501 -0.00000000000E+00 -0.00000000000E+00 -0.16799435484E+03  0.16799435484E+03  0.00000000000E+00 0. -1.
         25    1    1    2    0    0 -0.22657295334E+03 -0.99489208506E+02  0.27313244017E+03  0.38917828263E+03  0.12500000000E+03 0.  0.
         21    1    1    2  502  503  0.22849065428E+03  0.12209458537E+03  0.45821765075E+02  0.26308686973E+03  0.00000000000E+00 0. -1.
         21    1    1    2  503  501 -0.19177009365E+01 -0.22605376864E+02  0.94763858467E+02  0.97441621043E+02  0.00000000000E+00 0.  1.
<mgrwt>
<rscale>  4 0.56896225E+03</rscale>
<asrwt>0</asrwt>
<pdfrwt beam="1">  1        2 0.89494218E-01 0.56896225E+03</pdfrwt>
<pdfrwt beam="2">  1       -2 0.25845286E-01 0.56896225E+03</pdfrwt>
<totfact> 0.69923747E+02</totfact>
</mgrwt>
</event>
<event>
 5    0  0.2754780E-002  0.4912313E+03  0.7546771E-02  0.1016093E+00
         -2   -1    0    0    0  501 -0.00000000000E+00  0.00000000000E+00  0.71786881375E+02  0.71786881375E+02  0.00000000000E+00 0.  1.
          2   -1    0    0  502    0  0.00000000000E+00 -0.00000000000E+00 -0.18048209901E+04  0.18048209901E+04  0.00000000000E+00 0. -1.
         25    1    1    2    0    0 -0.35022523678E+02 -0.23979749172E+03 -0.35836553691E+03  0.45031130592E+03  0.12500000000E+03 0.  0.
         21    1    1    2  502  503  0.21310382548E+02  0.21076608486E+03 -0.41362879329E+03  0.46472061883E+03  0.00000000000E+00 0. -1.
         21    1    1    2  503  501  0.13712141129E+02  0.29031406860E+02 -0.96103977858E+03  0.96157594677E+03  0.00000000000E+00 0. -1.
<mgrwt>
<rscale>  4 0.49123129E+03</rscale>
<asrwt>0</asrwt>
<pdfrwt beam="1">  1        2 0.27766475E+00 0.49123129E+03</pdfrwt>
<pdfrwt beam="2">  1       -2 0.11044136E-01 0.49123129E+03</pdfrwt>
<totfact> 0.51982256E+02</totfact>
</mgrwt>
</event>
<event>
 5    0  0.2754780E-002  0.5509900E+03  0.7546771E-02  0.1001265E+00
         -4   -1    0    0    0  501 -0.00000000000E+00  0.00000000000E+00  0.49665997059E+02  0.49665997059E+02  0.00000000000E+00 0.  1.
          4   -1    0    0  503    0  0.00000000000E+00 -0.00000000000E+00 -0.15281583001E+04  0.15281583001E+04  0.00000000000E+00 0. -1.
         25    1    1    2    0    0 -0.11024301187E+03  0.20505853358E+03 -0.46462597905E+03  0.53451363338E+03  0.12500000000E+03 0.  0.
         21    1    1    2  502  501  0.34475303885E+02 -0.89389580248E+02 -0.58242820574E+03  0.59025558742E+03  0.00000000000E+00 0. -1.
         21    1    1    2  503  502  0.75767707982E+02 -0.11566895334E+03 -0.43143811826E+03  0.45305507638E+03  0.00000000000E+00 0.  1.
<mgrwt>
<rscale>  4 0.55099004E+03</rscale>
<asrwt>0</asrwt>
<pdfrwt beam="1">  1        4 0.23510128E+00 0.55099004E+03</pdfrwt>
<pdfrwt beam="2">  1       -4 0.76409226E-02 0.55099004E+03</pdfrwt>
<totfact> 0.19847878E+01</totfact>
</mgrwt>
</event>
<event>
 5    0  0.2754780E-002  0.5632297E+03  0.7546771E-02  0.9984773E-01
          2   -1    0    0  502    0  0.00000000000E+00  0.00000000000E+00  0.20487931574E+04  0.20487931574E+04  0.00000000000E+00 0. -1.
         -2   -1    0    0    0  501 -0.00000000000E+00 -0.00000000000E+00 -0.41911276671E+02  0.41911276671E+02  0.00000000000E+00 0.  1.
         25    1    1    2    0    0 -0.23697786924E+03  0.22527398890E+02  0.57505587803E+03  0.63480725978E+03  0.12500000000E+03 0.  0.
         21    1    1    2  502  503  0.23045150857E+03 -0.43137992138E+02  0.13794887098E+04  0.13992704830E+04  0.00000000000E+00 0.  1.
         21    1    1    2  503  501  0.65263606709E+01  0.20610593248E+02  0.52337292924E+02  0.56626691306E+02  0.00000000000E+00 0. -1.
<mgrwt>
<rscale>  4 0.56322972E+03</rscale>
<asrwt>0</asrwt>
<pdfrwt beam="1">  1        2 0.31519887E+00 0.56322972E+03</pdfrwt>
<pdfrwt beam="2">  1       -2 0.64478903E-02 0.56322972E+03</pdfrwt>
<totfact> 0.90229489E+02</totfact>
</mgrwt>
</event>
<event>
 5    0  0.2754780E-002  0.4632348E+03  0.7546771E-02  0.1023847E+00
         -1   -1    0    0    0  501 -0.00000000000E+00  0.00000000000E+00  0.12322722369E+03  0.12322722369E+03  0.00000000000E+00 0. -1.
          1   -1    0    0  503    0  0.00000000000E+00 -0.00000000000E+00 -0.59228442022E+03  0.59228442022E+03  0.00000000000E+00 0.  1.
         25    1    1    2    0    0 -0.90412785544E+02 -0.20256791479E+03 -0.29857605823E+03  0.39240399392E+03  0.12500000000E+03 0.  0.
         21    1    1    2  502  501  0.27991124749E+02  0.39924532651E+02 -0.13738515377E+03  0.14578117796E+03  0.00000000000E+00 0.  1.
         21    1    1    2  503  502  0.62421660795E+02  0.16264338214E+03 -0.33095984529E+02  0.17732647203E+03  0.00000000000E+00 0. -1.
<mgrwt>
<rscale>  4 0.46323478E+03</rscale>
<asrwt>0</asrwt>
<pdfrwt beam="1">  1        1 0.91120681E-01 0.46323478E+03</pdfrwt>
<pdfrwt beam="2">  1       -1 0.18958034E-01 0.46323478E+03</pdfrwt>
<totfact> 0.78741553E+02</totfact>
</mgrwt>
</event>
<event>
 5    0  0.2754780E-002  0.7892531E+03  0.7546771E-02  0.9575704E-01
          1   -1    0    0  503    0  0.00000000000E+00  0.00000000000E+00  0.15485096164E+04  0.15485096164E+04  0.00000000000E+00 0.  1.
         -1   -1    0    0    0  501 -0.00000000000E+00 -0.00000000000E+00 -0.25221694192E+03  0.25221694192E+03  0.00000000000E+00 0. -1.
         25    1    1    2    0    0 -0.37893342511E+03 -0.64520307050E+02  0.63272752822E+02  0.40912327230E+03  0.12500000000E+03 0.  0.
         21    1    1    2  502  501  0.39505182067E+02 -0.88038060679E+01  0.92954415848E+03  0.93042490776E+03  0.00000000000E+00 0.  1.
         21    1    1    2  503  502  0.33942824305E+03  0.73324113118E+02  0.30347576320E+03  0.46117837828E+03  0.00000000000E+00 0.  1.
<mgrwt>
<rscale>  4 0.78925312E+03</rscale>
<asrwt>0</asrwt>
<pdfrwt beam="1">  1        1 0.23823224E+00 0.78925312E+03</pdfrwt>
<pdfrwt beam="2">  1       -1 0.38802608E-01 0.78925312E+03</pdfrwt>
<totfact> 0.39988114E+01</totfact>
</mgrwt>
</event>
<event>
 5    0  0.2754780E-002  0.4708242E+03  0.7546771E-02  0.1021688E+00
          1   -1    0    0  503    0  0.00000000000E+00  0.00000000000E+00  0.23818779644E+03  0.23818779644E+03  0.00000000000E+00 0.  1.
         -1   -1    0    0    0  501 -0.00000000000E+00 -0.00000000000E+00 -0.37434074895E+03  0.37434074895E+03  0.00000000000E+00 0. -1.
         25    1    1    2    0    0  0.18471429838E+03  0.17058601594E+03 -0.21119740182E+02  0.28158480834E+03  0.12500000000E+03 0.  0.
         21    1    1    2  502  501 -0.11788878491E+03 -0.14166644851E+02  0.10997104333E+02  0.11924510782E+03  0.00000000000E+00 0.  1.
         21    1    1    2  503  502 -0.66825513470E+02 -0.15641937109E+03 -0.12603031666E+03  0.21169862924E+03  0.00000000000E+00 0. -1.
<mgrwt>
<rscale>  4 0.47082418E+03</rscale>
<asrwt>0</asrwt>
<pdfrwt beam="1">  1        1 0.36644277E-01 0.47082418E+03</pdfrwt>
<pdfrwt beam="2">  1       -1 0.57590884E-01 0.47082418E+03</pdfrwt>
<totfact> 0.36821869E+02</totfact>
</mgrwt>
</event>
<event>
 5    0  0.2754780E-002  0.5668166E+03  0.7546771E-02  0.9976748E-01
          2   -1    0    0  503    0  0.00000000000E+00  0.00000000000E+00  0.19556139251E+03  0.19556139251E+03  0.00000000000E+00 0. -1.
         -2   -1    0    0    0  501 -0.00000000000E+00 -0.00000000000E+00 -0.48982530262E+03  0.48982530262E+03  0.00000000000E+00 0.  1.
         25    1    1    2    0    0  0.35526134864E+01 -0.25071998856E+03 -0.64281311838E+01  0.28024891542E+03  0.12500000000E+03 0.  0.
         21    1    1    2  502  501  0.43091306123E+02  0.29406773259E+02 -0.23418802084E+02  0.57184432042E+02  0.00000000000E+00 0. -1.
         21    1    1    2  503  502 -0.46643919609E+02  0.22131321530E+03 -0.26441697684E+03  0.34795334766E+03  0.00000000000E+00 0.  1.
<mgrwt>
<rscale>  4 0.56681656E+03</rscale>
<asrwt>0</asrwt>
<pdfrwt beam="1">  1        2 0.30086369E-01 0.56681656E+03</pdfrwt>
<pdfrwt beam="2">  1       -2 0.75357738E-01 0.56681656E+03</pdfrwt>
<totfact> 0.28358979E+02</totfact>
</mgrwt>
</event>
<event>
 5    0  0.2754780E-002  0.7478594E+03  0.7546771E-02  0.9638715E-01
         -2   -1    0    0    0  501 -0.00000000000E+00  0.00000000000E+00  0.10674047023E+03  0.10674047023E+03  0.00000000000E+00 0. -1.
          2   -1    0    0  503    0  0.00000000000E+00 -0.00000000000E+00 -0.14704928508E+04  0.14704928508E+04  0.00000000000E+00 0.  1.
         25    1    1    2    0    0  0.27129177503E+03 -0.53037156385E+02 -0.11376055451E+04  0.11773629616E+04  0.12500000000E+03 0.  0.
         21    1    1    2  502  501 -0.29047172124E+02  0.15050407148E+02 -0.13397934251E+03  0.13791561617E+03  0.00000000000E+00 0. -1.
         21    1    1    2  503  502 -0.24224460291E+03  0.37986749237E+02 -0.92167492992E+02  0.26195474327E+03  0.00000000000E+00 0. -1.
<mgrwt>
<rscale>  4 0.74785943E+03</rscale>
<asrwt>0</asrwt>
<pdfrwt beam="1">  1        2 0.22622966E+00 0.74785943E+03</pdfrwt>
<pdfrwt beam="2">  1       -2 0.16421612E-01 0.74785943E+03</pdfrwt>
<totfact> 0.40101045E+02</totfact>
</mgrwt>
</event>
<event>
 5    0  0.2754780E-002  0.1718564E+04  0.7546771E-02  0.8750847E-01
         -1   -1    0    0    0  501 -0.00000000000E+00  0.00000000000E+00  0.49416827989E+03  0.49416827989E+03  0.00000000000E+00 0.  1.
          1   -1    0    0  502    0  0.00000000000E+00 -0.00000000000E+00 -0.16938753165E+04  0.16938753165E+04  0.00000000000E+00 0. -1.
         25    1    1    2    0    0  0.36217878303E+02 -0.22061860108E+03 -0.15092576388E+04  0.15308389602E+04  0.12500000000E+03 0.  0.
         21    1    1    2  502  503  0.64843256088E+02  0.23934697841E+03  0.43152465249E+03  0.49769985899E+03  0.00000000000E+00 0.  1.
         21    1    1    2  503  501 -0.10106113439E+03 -0.18728377324E+02 -0.12197405034E+03  0.15950477723E+03  0.00000000000E+00 0.  1.
<mgrwt>
<rscale>  4 0.17185637E+04</rscale>
<asrwt>0</asrwt>
<pdfrwt beam="1">  1        1 0.26059621E+00 0.17185637E+04</pdfrwt>
<pdfrwt beam="2">  1       -1 0.76025888E-01 0.17185637E+04</pdfrwt>
<totfact> 0.79250575E+00</totfact>
</mgrwt>
</event>
<event>
 5    0  0.2754780E-002  0.5817888E+03  0.7546771E-02  0.9943926E-01
          2   -1    0    0  502    0  0.00000000000E+00  0.00000000000E+00  0.14886022390E+04  0.14886022390E+04  0.00000000000E+00 0.  1.
         -2   -1    0    0    0  501 -0.00000000000E+00 -0.00000000000E+00 -0.73679741012E+02  0.73679741012E+02  0.00000000000E+00 0. -1.
         25    1    1    2    0    0  0.83094004439E+02  0.25842510607E+03  0.43936835422E+03  0.53137340892E+03  0.12500000000E+03 0.  0.
         21    1    1    2  502  503 -0.29955881839E+02 -0.26474691755E+03  0.67598810332E+03  0.72660044112E+03  0.00000000000E+00 0.  1.
         21    1    1    2  503  501 -0.53138122600E+02  0.63218114839E+01  0.29956604044E+03  0.30430812996E+03  0.00000000000E+00 0.  1.
<mgrwt>
<rscale>  4 0.58178878E+03</rscale>
<asrwt>0</asrwt>
<pdfrwt beam="1">  1        2 0.22901571E+00 0.58178878E+03</pdfrwt>
<pdfrwt beam="2">  1       -2 0.11335346E-01 0.58178878E+03</pdfrwt>
<totfact> 0.73521356E+02</totfact>
</mgrwt>
</event>
<event>
 5    0  0.2754780E-002  0.5611354E+03  0.7546771E-02  0.9989489E-01
         -1   -1    0    0    0  501 -0.00000000000E+00  0.00000000000E+00  0.11286004842E+03  0.11286004842E+03  0.00000000000E+00 0. -1.
          1   -1    0    0  502    0  0.00000000000E+00 -0.00000000000E+00 -0.16932720062E+04  0.16932720062E+04  0.00000000000E+00 0.  1.
         25    1    1    2    0    0  0.17180865007E+03  0.27535828142E+03 -0.35307936153E+03  0.49561116908E+03  0.12500000000E+03 0.  0.
         21    1    1    2  502  503 -0.83000274797E+02 -0.19519147977E+03 -0.25873877750E+03  0.33456615843E+03  0.00000000000E+00 0. -1.
         21    1    1    2  503  501 -0.88808375270E+02 -0.80166801652E+02 -0.96859381876E+03  0.97595472710E+03  0.00000000000E+00 0. -1.
<mgrwt>
<rscale>  4 0.56113542E+03</rscale>
<asrwt>0</asrwt>
<pdfrwt beam="1">  1        1 0.26050339E+00 0.56113542E+03</pdfrwt>
<pdfrwt beam="2">  1       -1 0.17363084E-01 0.56113542E+03</pdfrwt>
<totfact> 0.13005959E+02</totfact>
</mgrwt>
</event>
<event>
 5    0  0.2754780E-002  0.4641064E+03  0.7546771E-02  0.1023597E+00
          1   -1    0    0  503    0  0.00000000000E+00  0.00000000000E+00  0.45954838379E+03  0.45954838379E+03  0.00000000000E+00 0.  1.
         -1   -1    0    0    0  501 -0.00000000000E+00 -0.00000000000E+00 -0.15083694577E+03  0.15083694577E+03  0.00000000000E+00 0. -1.
         25    1    1    2    0    0 -0.30819880637E+02  0.20940221539E+03  0.20874808858E+03  0.32249018177E+03  0.12500000000E+03 0.  0.
         21    1    1    2  502  501 -0.14837897374E+01 -0.24720711358E+02  0.97288048654E+02  0.10039063509E+03  0.00000000000E+00 0. -1.
         21    1    1    2  503  502  0.32303670374E+02 -0.18468150403E+03  0.26753007858E+01  0.18750451271E+03  0.00000000000E+00 0.  1.
<mgrwt>
<rscale>  4 0.46410639E+03</rscale>
<asrwt>0</asrwt>
<pdfrwt beam="1">  1        1 0.70699751E-01 0.46410639E+03</pdfrwt>
<pdfrwt beam="2">  1       -1 0.23205684E-01 0.46410639E+03</pdfrwt>
<totfact> 0.79726524E+02</totfact>
</mgrwt>
</event>
<event>
 5    0  0.2754780E-002  0.5856691E+03  0.7546771E-02  0.9935592E-01
         -4   -1    0    0    0  501 -0.00000000000E+00  0.00000000000E+00  0.63716020299E+03  0.63716020299E+03  0.00000000000E+00 0.  1.
          4   -1    0    0  502    0  0.00000000000E+00 -0.00000000000E+00 -0.21778678081E+03  0.21778678081E+03  0.00000000000E+00 0. -1.
         25    1    1    2    0    0  0.13107574420E+03  0.22417365712E+03  0.15249807966E+03  0.32606033730E+03  0.12500000000E+03 0.  0.
         21    1    1    2  502  503 -0.16113033780E+03 -0.22474789361E+03  0.34676316916E+03  0.44353049154E+03  0.00000000000E+00 0.  1.
         21    1    1    2  503  501  0.30054593598E+02  0.57423649752E+00 -0.79887826635E+02  0.85356154953E+02  0.00000000000E+00 0. -1.
<mgrwt>
<rscale>  4 0.58566906E+03</rscale>
<asrwt>0</asrwt>
<pdfrwt beam="1">  1        4 0.33505659E-01 0.58566906E+03</pdfrwt>
<pdfrwt beam="2">  1       -4 0.98024646E-01 0.58566906E+03</pdfrwt>
<totfact> 0.14756231E+01</totfact>
</mgrwt>
</event>
<event>
 5    0  0.2754780E-002  0.4865628E+03  0.7546771E-02  0.1017347E+00
          2   -1    0    0  503    0  0.00000000000E+00  0.00000000000E+00  0.38046980975E+04  0.38046980975E+04  0.00000000000E+00 0. -1.
         -2   -1    0    0    0  501 -0.00000000000E+00 -0.00000000000E+00 -0.41181431080E+02  0.41181431080E+02  0.00000000000E+00 0.  1.
         25    1    1    2    0    0  0.40957370512E+02  0.23395746281E+03  0.53491301171E+03  0.59847350041E+03  0.12500000000E+03 0.  0.
         21    1    1    2  502  501 -0.44676991732E+02 -0.56505453928E+02  0.23474044886E+04  0.23485094705E+04  0.00000000000E+00 0.  1.
         21    1    1    2  503  502  0.37196212200E+01 -0.17745200888E+03  0.88119916619E+03  0.89889655774E+03  0.00000000000E+00 0. -1.
<mgrwt>
<rscale>  4 0.48656283E+03</rscale>
<asrwt>0</asrwt>
<pdfrwt beam="1">  1        2 0.58533789E+00 0.48656283E+03</pdfrwt>
<pdfrwt beam="2">  1       -2 0.63356078E-02 0.48656283E+03</pdfrwt>
<totfact> 0.79544796E+01</totfact>
</mgrwt>
</event>
<event>
 5    0  0.2754780E-002  0.5626873E+03  0.7546771E-02  0.9985992E-01
         -2   -1    0    0    0  501 -0.00000000000E+00  0.00000000000E+00  0.54371995650E+02  0.54371995650E+02  0.00000000000E+00 0.  1.
          2   -1    0    0  502    0  0.00000000000E+00 -0.00000000000E+00 -0.17200785659E+04  0.17200785659E+04  0.00000000000E+00 0. -1.
         25    1    1    2    0    0  0.10333121204E+03  0.22571618218E+03 -0.46880736715E+03  0.54500502913E+03  0.12500000000E+03 0.  0.
         21    1    1    2  502  503 -0.12952823489E+03 -0.20625957725E+03 -0.96499502551E+03  0.99525673878E+03  0.00000000000E+00 0. -1.
         21    1    1    2  503  501  0.26197022854E+02 -0.19456604923E+02 -0.23190417761E+03  0.23418879366E+03  0.00000000000E+00 0. -1.
<mgrwt>
<rscale>  4 0.56268731E+03</rscale>
<asrwt>0</asrwt>
<pdfrwt beam="1">  1        2 0.26462741E+00 0.56268731E+03</pdfrwt>
<pdfrwt beam="2">  1       -2 0.83649245E-02 0.56268731E+03</pdfrwt>
<totfact> 0.89928453E+02</totfact>
</mgrwt>
</event>
<event>
 5    0  0.2754780E-002  0.6709275E+03  0.7546771E-02  0.9768284E-01
          1   -1    0    0  502    0  0.00000000000E+00  0.00000000000E+00  0.12343025888E+04  0.12343025888E+04  0.00000000000E+00 0.  1.
         -1   -1    0    0    0  501 -0.00000000000E+00 -0.00000000000E+00 -0.13567809853E+03  0.13567809853E+03  0.00000000000E+00 0. -1.
         25    1    1    2    0    0  0.17108263125E+03 -0.15011422601E+03  0.64073791392E+03  0.69135636390E+03  0.12500000000E+03 0.  0.
         21    1    1    2  502  503 -0.14705189036E+03  0.27950387226E+03  0.16235167516E+03  0.35511229139E+03  0.00000000000E+00 0. -1.
         21    1    1    2  503  501 -0.24030740890E+02 -0.12938964625E+03  0.29553490123E+03  0.32351203210E+03  0.00000000000E+00 0.  1.
<mgrwt>
<rscale>  4 0.67092754E+03</rscale>
<asrwt>0</asrwt>
<pdfrwt beam="1">  1        1 0.18989270E+00 0.67092754E+03</pdfrwt>
<pdfrwt beam="2">  1       -1 0.20873554E-01 0.67092754E+03</pdfrwt>
<totfact> 0.19608178E+02</totfact>
</mgrwt>
</event>
<event>
 5    0  0.2754780E-002  0.5398846E+03  0.7546771E-02  0.1003863E+00
          2   -1    0    0  503    0  0.00000000000E+00  0.00000000000E+00  0.43719531129E+03  0.43719531129E+03  0.00000000000E+00 0. -1.
         -2   -1    0    0    0  501 -0.00000000000E+00 -0.00000000000E+00 -0.21367721910E+03  0.21367721910E+03  0.00000000000E+00 0.  1.
         25    1    1    2    0    0 -0.17562082523E+03 -0.15452617449E+03  0.82781982034E+02  0.27784684523E+03  0.12500000000E+03 0.  0.
         21    1    1    2  502  501 -0.52311899516E+02  0.18206138435E+01  0.74045485517E+02  0.90678461562E+02  0.00000000000E+00 0. -1.
         21    1    1    2  503  502  0.22793272474E+03  0.15270556064E+03  0.66690624635E+02  0.28234722360E+03  0.00000000000E+00 0.  1.
<mgrwt>
<rscale>  4 0.53988456E+03</rscale>
<asrwt>0</asrwt>
<pdfrwt beam="1">  1        2 0.67260817E-01 0.53988456E+03</pdfrwt>
<pdfrwt beam="2">  1       -2 0.32873418E-01 0.53988456E+03</pdfrwt>
<totfact> 0.62510966E+02</totfact>
</mgrwt>
</event>
<event>
 5    0  0.2754780E-002  0.3865323E+03  0.7546771E-02  0.1048545E+00
         -1   -1    0    0    0  501 -0.00000000000E+00  0.00000000000E+00  0.13481904107E+03  0.13481904107E+03  0.00000000000E+00 0.  1.
          1   -1    0    0  503    0  0.00000000000E+00 -0.00000000000E+00 -0.54839097588E+03  0.54839097588E+03  0.00000000000E+00 0. -1.
         25    1    1    2    0    0  0.54977308612E+02  0.19313362363E+03 -0.90861189574E+02  0.25338479988E+03  0.12500000000E+03 0.  0.
         21    1    1    2  502  501 -0.19511710899E+02 -0.47391353660E+02 -0.26370834380E+03  0.26864239773E+03  0.00000000000E+00 0. -1.
         21    1    1    2  503  502 -0.35465597713E+02 -0.14574226997E+03 -0.59002401424E+02  0.16118281934E+03  0.00000000000E+00 0. -1.
<mgrwt>
<rscale>  4 0.38653229E+03</rscale>
<asrwt>0</asrwt>
<pdfrwt beam="1">  1        1 0.84367844E-01 0.38653229E+03</pdfrwt>
<pdfrwt beam="2">  1       -1 0.20741391E-01 0.38653229E+03</pdfrwt>
<totfact> 0.75732012E+02</totfact>
</mgrwt>
</event>
<event>
 5    0  0.2754780E-002  0.5024337E+03  0.7546771E-02  0.1013146E+00
          1   -1    0    0  502    0  0.00000000000E+00  0.00000000000E+00  0.63278373914E+03  0.63278373914E+03  0.00000000000E+00 0.  1.
         -1   -1    0    0    0  501 -0.00000000000E+00 -0.00000000000E+00 -0.11432653665E+03  0.11432653665E+03  0.00000000000E+00 0. -1.
         25    1    1    2    0    0 -0.15187526376E+03 -0.17297983321E+03  0.35307434203E+03  0.43963008250E+03  0.12500000000E+03 0.  0.
         21    1    1    2  502  503  0.15122052461E+03  0.15052506795E+03  0.94928768944E+02  0.23353139900E+03  0.00000000000E+00 0. -1.
         21    1    1    2  503  501  0.65473914137E+00  0.22454765265E+02  0.70454091514E+02  0.73948794294E+02  0.00000000000E+00 0. -1.
<mgrwt>
<rscale>  4 0.50243367E+03</rscale>
<asrwt>0</asrwt>
<pdfrwt beam="1">  1        1 0.97351343E-01 0.50243367E+03</pdfrwt>
<pdfrwt beam="2">  1       -1 0.17588698E-01 0.50243367E+03</pdfrwt>
<totfact> 0.80939397E+02</totfact>
</mgrwt>
</event>
<event>
 5    0  0.2754780E-002  0.5612926E+03  0.7546771E-02  0.9989134E-01
         -1   -1    0    0    0  501 -0.00000000000E+00  0.00000000000E+00  0.22201533373E+03  0.22201533373E+03  0.00000000000E+00 0. -1.
          1   -1    0    0  502    0  0.00000000000E+00 -0.00000000000E+00 -0.43502393617E+03  0.43502393617E+03  0.00000000000E+00 0.  1.
         25    1    1    2    0    0 -0.21491603534E+03  0.15455983351E+02  0.94064940925E+02  0.26627242211E+03  0.12500000000E+03 0.  0.
         21    1    1    2  502  503  0.18811514327E+03  0.27702158397E+02 -0.25414259911E+03  0.31740065751E+03  0.00000000000E+00 0.  1.
         21    1    1    2  503  501  0.26800892062E+02 -0.43158141748E+02 -0.52930944257E+02  0.73366190268E+02  0.00000000000E+00 0.  1.
<mgrwt>
<rscale>  4 0.56129262E+03</rscale>
<asrwt>0</asrwt>
<pdfrwt beam="1">  1        1 0.66926759E-01 0.56129262E+03</pdfrwt>
<pdfrwt beam="2">  1       -1 0.34156206E-01 0.56129262E+03</pdfrwt>
<totfact> 0.44044567E+02</totfact>
</mgrwt>
</event>
<event>
 5    0  0.2754780E-002  0.6003372E+03  0.7546771E-02  0.9904707E-01
          1   -1    0    0  502    0  0.00000000000E+00  0.00000000000E+00  0.10234869595E+04  0.10234869595E+04  0.00000000000E+00 0.  1.
         -1   -1    0    0    0  501 -0.00000000000E+00 -0.00000000000E+00 -0.10684229967E+03  0.10684229967E+03  0.00000000000E+00 0. -1.
         25    1    1    2    0    0 -0.16137607268E+03  0.13578562000E+03  0.81547554992E+03  0.85153117615E+03  0.12500000000E+03 0.  0.
         21    1    1    2  502  503  0.11104708504E+03 -0.10533457693E+03 -0.96206105655E+01  0.15336030888E+03  0.00000000000E+00 0. -1.
         21    1    1    2  503  501  0.50328987642E+02 -0.30451043065E+02  0.11078972050E+03  0.12543777418E+03  0.00000000000E+00 0.  1.
<mgrwt>
<rscale>  4 0.60033717E+03</rscale>
<asrwt>0</asrwt>
<pdfrwt beam="1">  1        1 0.15745953E+00 0.60033717E+03</pdfrwt>
<pdfrwt beam="2">  1       -1 0.16437278E-01 0.60033717E+03</pdfrwt>
<totfact> 0.41786066E+02</totfact>
</mgrwt>
</event>
<event>
 5    0  0.2754780E-002  0.8245136E+03  0.7546771E-02  0.9525197E-01
         -1   -1    0    0    0  501 -0.00000000000E+00  0.00000000000E+00  0.70091214118E+03  0.70091214118E+03  0.00000000000E+00 0.  1.
          1   -1    0    0  503    0  0.00000000000E+00 -0.00000000000E+00 -0.40263918353E+03  0.40263918353E+03  0.00000000000E+00 0. -1.
         25    1    1    2    0    0 -0.16205097257E+03 -0.24090509136E+03  0.74436894727E+01  0.31619011570E+03  0.12500000000E+03 0.  0.
         21    1    1    2  502  501  0.19726196488E+03  0.46097435612E+03  0.14855311230E+03  0.52295092214E+03  0.00000000000E+00 0. -1.
         21    1    1    2  503  502 -0.35210992308E+02 -0.22006926476E+03  0.14227615587E+03  0.26441028687E+03  0.00000000000E+00 0. -1.
<mgrwt>
<rscale>  4 0.82451360E+03</rscale>
<asrwt>0</asrwt>
<pdfrwt beam="1">  1        1 0.61944490E-01 0.82451360E+03</pdfrwt>
<pdfrwt beam="2">  1       -1 0.10783264E+00 0.82451360E+03</pdfrwt>
<totfact> 0.48286629E+01</totfact>
</mgrwt>
</event>
<event>
 5    0  0.2754780E-002  0.5032766E+03  0.7546771E-02  0.1012927E+00
         -2   -1    0    0    0  501 -0.00000000000E+00  0.00000000000E+00  0.84317095848E+02  0.84317095848E+02  0.00000000000E+00 0.  1.
          2   -1    0    0  503    0  0.00000000000E+00 -0.00000000000E+00 -0.99432987521E+03  0.99432987521E+03  0.00000000000E+00 0. -1.
         25    1    1    2    0    0 -0.60448036269E+02 -0.20596998098E+03 -0.44988264409E+03  0.51390367931E+03  0.12500000000E+03 0.  0.
         21    1    1    2  502  501  0.49352751982E+01 -0.25968056648E+02 -0.23596466259E+03  0.23744055867E+03  0.00000000000E+00 0. -1.
         21    1    1    2  503  502  0.55512761071E+02  0.23193803763E+03 -0.22416547268E+03  0.32730273308E+03  0.00000000000E+00 0.  1.
<mgrwt>
<rscale>  4 0.50327663E+03</rscale>
<asrwt>0</asrwt>
<pdfrwt beam="1">  1        2 0.15297383E+00 0.50327663E+03</pdfrwt>
<pdfrwt beam="2">  1       -2 0.12971861E-01 0.50327663E+03</pdfrwt>
<totfact> 0.11468981E+03</totfact>
</mgrwt>
</event>
<event>
 5    0  0.2754780E-002  0.5905895E+03  0.7546771E-02  0.9925124E-01
          2   -1    0    0  502    0  0.00000000000E+00  0.00000000000E+00  0.37100682027E+04  0.37100682027E+04  0.00000000000E+00 0. -1.
         -2   -1    0    0    0  501 -0.00000000000E+00 -0.00000000000E+00 -0.49681688104E+02  0.49681688104E+02  0.00000000000E+00 0.  1.
         25    1    1    2    0    0 -0.27595327186E+03  0.15113687197E+03  0.14827398643E+04  0.15208994271E+04  0.12500000000E+03 0.  0.
         21    1    1    2  502  503  0.17504018469E+03  0.51112638718E+02  0.32662197257E+03  0.37407683845E+03  0.00000000000E+00 0. -1.
         21    1    1    2  503  501  0.10091308717E+03 -0.20224951069E+03  0.18510246778E+04  0.18647736253E+04  0.00000000000E+00 0. -1.
<mgrwt>
<rscale>  4 0.59058953E+03</rscale>
<asrwt>0</asrwt>
<pdfrwt beam="1">  1        2 0.57077951E+00 0.59058953E+03</pdfrwt>
<pdfrwt beam="2">  1       -2 0.76433396E-02 0.59058953E+03</pdfrwt>
<totfact> 0.67769907E+01</totfact>
</mgrwt>
</event>
<event>
 5    0  0.2754780E-002  0.6281369E+03  0.7546771E-02  0.9848691E-01
         -2   -1    0    0    0  501 -0.00000000000E+00  0.00000000000E+00  0.53668650813E+03  0.53668650813E+03  0.00000000000E+00 0.  1.
          2   -1    0    0  502    0  0.00000000000E+00 -0.00000000000E+00 -0.18379256086E+03  0.18379256086E+03  0.00000000000E+00 0. -1.
         25    1    1    2    0    0 -0.19678636413E+03 -0.51624172711E+02  0.43024325826E+03  0.49206116448E+03  0.12500000000E+03 0.  0.
         21    1    1    2  502  503  0.13458195792E+03  0.65978154205E+02 -0.43032169043E+02  0.15593969283E+03  0.00000000000E+00 0. -1.
         21    1    1    2  503  501  0.62204406211E+02 -0.14353981494E+02 -0.34317141936E+02  0.72478211674E+02  0.00000000000E+00 0. -1.
<mgrwt>
<rscale>  4 0.62813689E+03</rscale>
<asrwt>0</asrwt>
<pdfrwt beam="1">  1        2 0.28275779E-01 0.62813689E+03</pdfrwt>
<pdfrwt beam="2">  1       -2 0.82567154E-01 0.62813689E+03</pdfrwt>
<totfact> 0.24767936E+02</totfact>
</mgrwt>
</event>
<event>
 5    0  0.2754780E-002  0.8338374E+03  0.7546771E-02  0.9512290E-01
          1   -1    0    0  503    0  0.00000000000E+00  0.00000000000E+00  0.43875354683E+03  0.43875354683E+03  0.00000000000E+00 0.  1.
         -1   -1    0    0    0  501 -0.00000000000E+00 -0.00000000000E+00 -0.53165111463E+03  0.53165111463E+03  0.00000000000E+00 0. -1.
         25    1    1    2    0    0  0.16397331724E+03  0.16089678039E+03  0.25475300694E+03  0.36510151637E+03  0.12500000000E+03 0.  0.
         21    1    1    2  502  501 -0.48937584626E+01 -0.47370115255E+02  0.10334164506E+03  0.11378652071E+03  0.00000000000E+00 0. -1.
         21    1    1    2  503  502 -0.15907955878E+03 -0.11352666514E+03 -0.45099221981E+03  0.49151662438E+03  0.00000000000E+00 0. -1.
<mgrwt>
<rscale>  4 0.83383740E+03</rscale>
<asrwt>0</asrwt>
<pdfrwt beam="1">  1        1 0.67500546E-01 0.83383740E+03</pdfrwt>
<pdfrwt beam="2">  1       -1 0.81792479E-01 0.83383740E+03</pdfrwt>
<totfact> 0.79855687E+01</totfact>
</mgrwt>
</event>
<event>
 5    0  0.2754780E-002  0.4598960E+03  0.7546771E-02  0.1024811E+00
          1   -1    0    0  502    0  0.00000000000E+00  0.00000000000E+00  0.87358761169E+03  0.87358761169E+03  0.00000000000E+00 0.  1.
         -1   -1    0    0    0  501 -0.00000000000E+00 -0.00000000000E+00 -0.60527505981E+02  0.60527505981E+02  0.00000000000E+00 0. -1.
         25    1    1    2    0    0 -0.33309964543E+02 -0.19943697594E+03  0.44983550585E+03  0.50878447641E+03  0.12500000000E+03 0.  0.
         21    1    1    2  502  503  0.48259343660E+02  0.14261471732E+03  0.19005131533E+03  0.24246118103E+03  0.00000000000E+00 0. -1.
         21    1    1    2  503  501 -0.14949379117E+02  0.56822258618E+02  0.17317328453E+03  0.18286946023E+03  0.00000000000E+00 0. -1.
<mgrwt>
<rscale>  4 0.45989599E+03</rscale>
<asrwt>0</asrwt>
<pdfrwt beam="1">  1        1 0.13439808E+00 0.45989599E+03</pdfrwt>
<pdfrwt beam="2">  1       -1 0.93119246E-02 0.45989599E+03</pdfrwt>
<totfact> 0.13639388E+03</totfact>
</mgrwt>
</event>
<event>
 5    0  0.2754780E-002  0.5131714E+03  0.7546771E-02  0.1010397E+00
         -1   -1    0    0    0  501 -0.00000000000E+00  0.00000000000E+00  0.29418286869E+03  0.29418286869E+03  0.00000000000E+00 0.  1.
          1   -1    0    0  502    0  0.00000000000E+00 -0.00000000000E+00 -0.24488073142E+03  0.24488073142E+03  0.00000000000E+00 0. -1.
         25    1    1    2    0    0  0.18295468128E+03  0.14638911531E+03  0.48893160935E+02  0.27003283072E+03  0.12500000000E+03 0.  0.
         21    1    1    2  502  503 -0.20413760535E+03 -0.13664448530E+03  0.20219127923E+01  0.24565822887E+03  0.00000000000E+00 0.  1.
         21    1    1    2  503  501  0.21182924072E+02 -0.97446300061E+01 -0.16129364592E+01  0.23372540517E+02  0.00000000000E+00 0. -1.
<mgrwt>
<rscale>  4 0.51317144E+03</rscale>
<asrwt>0</asrwt>
<pdfrwt beam="1">  1        1 0.37673959E-01 0.51317144E+03</pdfrwt>
<pdfrwt beam="2">  1       -1 0.45258903E-01 0.51317144E+03</pdfrwt>
<totfact> 0.55938270E+02</totfact>
</mgrwt>
</event>
<event>
 5    0  0.2754780E-002  0.5571604E+03  0.7546771E-02  0.9998500E-01
         -1   -1    0    0    0  501 -0.00000000000E+00  0.00000000000E+00  0.72357064884E+02  0.72357064884E+02  0.00000000000E+00 0.  1.
          1   -1    0    0  503    0  0.00000000000E+00 -0.00000000000E+00 -0.16009603636E+04  0.16009603636E+04  0.00000000000E+00 0. -1.
         25    1    1    2    0    0  0.14500503979E+03 -0.22961678575E+03 -0.60084812681E+03  0.67111385126E+03  0.12500000000E+03 0.  0.
         21    1    1    2  502  501  0.22984971359E+01  0.21277522502E+02 -0.52494559680E+03  0.52538166665E+03  0.00000000000E+00 0.  1.
         21    1    1    2  503  502 -0.14730353693E+03  0.20833926325E+03 -0.40280957508E+03  0.47682191055E+03  0.00000000000E+00 0. -1.
<mgrwt>
<rscale>  4 0.55716042E+03</rscale>
<asrwt>0</asrwt>
<pdfrwt beam="1">  1        1 0.24630160E+00 0.55716042E+03</pdfrwt>
<pdfrwt beam="2">  1       -1 0.11131856E-01 0.55716042E+03</pdfrwt>
<totfact> 0.30681260E+02</totfact>
</mgrwt>
</event>
<event>
 5    0  0.2754780E-002  0.6070771E+03  0.7546771E-02  0.9890831E-01
          2   -1    0    0  502    0  0.00000000000E+00  0.00000000000E+00  0.79306722844E+03  0.79306722844E+03  0.00000000000E+00 0. -1.
         -2   -1    0    0    0  501 -0.00000000000E+00 -0.00000000000E+00 -0.14862147188E+03  0.14862147188E+03  0.00000000000E+00 0.  1.
         25    1    1    2    0    0 -0.25363794658E+03  0.27875400067E+02  0.10255956563E+03  0.30208063555E+03  0.12500000000E+03 0.  0.
         21    1    1    2  502  503  0.28264325410E+03 -0.25174975415E+02  0.37533659814E+03  0.47053007383E+03  0.00000000000E+00 0. -1.
         21    1    1    2  503  501 -0.29005307518E+02 -0.27004246519E+01  0.16654959279E+03  0.16907799093E+03  0.00000000000E+00 0.  1.
<mgrwt>
<rscale>  4 0.60707707E+03</rscale>
<asrwt>0</asrwt>
<pdfrwt beam="1">  1        2 0.12201034E+00 0.60707707E+03</pdfrwt>
<pdfrwt beam="2">  1       -2 0.22864842E-01 0.60707707E+03</pdfrwt>
<totfact> 0.59155927E+02</totfact>
</mgrwt>
</event>
<event>
 5    0  0.2754780E-002  0.3798715E+03  0.7546771E-02  0.1050981E+00
         -2   -1    0    0    0  501 -0.00000000000E+00  0.00000000000E+00  0.40311308166E+02  0.40311308166E+02  0.00000000000E+00 0. -1.
          2   -1    0    0  502    0  0.00000000000E+00 -0.00000000000E+00 -0.26837903111E+04  0.26837903111E+04  0.00000000000E+00 0.  1.
         25    1    1    2    0    0  0.20590313031E+03 -0.30840727090E+02 -0.61706039615E+03  0.66312576636E+03  0.12500000000E+03 0.  0.
         21    1    1    2  502  503 -0.13374032125E+03  0.10152811839E+02 -0.25636648975E+03  0.28933255984E+03  0.00000000000E+00 0.  1.
         21    1    1    2  503  501 -0.72162809063E+02  0.20687915251E+02 -0.17700521170E+04  0.17716432930E+04  0.00000000000E+00 0.  1.
<mgrwt>
<rscale>  4 0.37987148E+03</rscale>
<asrwt>0</asrwt>
<pdfrwt beam="1">  1        2 0.41289105E+00 0.37987148E+03</pdfrwt>
<pdfrwt beam="2">  1       -2 0.62017363E-02 0.37987148E+03</pdfrwt>
<totfact> 0.43674435E+02</totfact>
</mgrwt>
</event>
<event>
 5    0  0.2754780E-002  0.7082212E+03  0.7546771E-02  0.9703275E-01
         -2   -1    0    0    0  501 -0.00000000000E+00  0.00000000000E+00  0.80908331054E+03  0.80908331054E+03  0.00000000000E+00 0. -1.
          2   -1    0    0  502    0  0.00000000000E+00 -0.00000000000E+00 -0.37234892101E+03  0.37234892101E+03  0.00000000000E+00 0.  1.
         25    1    1    2    0    0  0.26591077408E+03  0.89522733145E+02  0.62425664708E+03  0.69573286608E+03  0.12500000000E+03 0.  0.
         21    1    1    2  502  503 -0.21606340113E+03 -0.14804935318E+03  0.21683237073E+02  0.26281584247E+03  0.00000000000E+00 0.  1.
         21    1    1    2  503  501 -0.49847372956E+02  0.58526620030E+02 -0.20920549463E+03  0.22288352300E+03  0.00000000000E+00 0.  1.
<mgrwt>
<rscale>  4 0.70822122E+03</rscale>
<asrwt>0</asrwt>
<pdfrwt beam="1">  1        2 0.57284450E-01 0.70822122E+03</pdfrwt>
<pdfrwt beam="2">  1       -2 0.12447435E+00 0.70822122E+03</pdfrwt>
<totfact> 0.42361489E+01</totfact>
</mgrwt>
</event>
<event>
 5    0  0.2754780E-002  0.5419567E+03  0.7546771E-02  0.1003373E+00
         -2   -1    0    0    0  501 -0.00000000000E+00  0.00000000000E+00  0.12595558970E+03  0.12595558970E+03  0.00000000000E+00 0.  1.
          2   -1    0    0  502    0  0.00000000000E+00 -0.00000000000E+00 -0.79908250201E+03  0.79908250201E+03  0.00000000000E+00 0. -1.
         25    1    1    2    0    0  0.25138992196E+03 -0.76035157436E+02 -0.16080809379E+03  0.33235896416E+03  0.12500000000E+03 0.  0.
         21    1    1    2  502  503 -0.22573213580E+03  0.40006090379E+02 -0.30986648934E+03  0.38545132717E+03  0.00000000000E+00 0. -1.
         21    1    1    2  503  501 -0.25657786157E+02  0.36029067058E+02 -0.20245232917E+03  0.20722780038E+03  0.00000000000E+00 0. -1.
<mgrwt>
<rscale>  4 0.54195669E+03</rscale>
<asrwt>0</asrwt>
<pdfrwt beam="1">  1        2 0.12293577E+00 0.54195669E+03</pdfrwt>
<pdfrwt beam="2">  1       -2 0.19377783E-01 0.54195669E+03</pdfrwt>
<totfact> 0.78450145E+02</totfact>
</mgrwt>
</event>
<event>
 5    0  0.2754780E-002  0.5700416E+03  0.7546771E-02  0.9969587E-01
          2   -1    0    0  502    0  0.00000000000E+00  0.00000000000E+00  0.23760099714E+04  0.23760099714E+04  0.00000000000E+00 0.  1.
         -2   -1    0    0    0  501 -0.00000000000E+00 -0.00000000000E+00 -0.57382582341E+02  0.57382582341E+02  0.00000000000E+00 0. -1.
         25    1    1    2    0    0 -0.20904234960E+03 -0.14701887269E+03  0.50906300689E+03  0.58316669816E+03  0.12500000000E+03 0.  0.
         21    1    1    2  502  503  0.23281278219E+03  0.12704306137E+03  0.85577287243E+03  0.89592909328E+03  0.00000000000E+00 0.  1.
         21    1    1    2  503  501 -0.23770432584E+02  0.19975811315E+02  0.95379150972E+03  0.95429676229E+03  0.00000000000E+00 0. -1.
<mgrwt>
<rscale>  4 0.57004156E+03</rscale>
<asrwt>0</asrwt>
<pdfrwt beam="1">  1        2 0.36553992E+00 0.57004156E+03</pdfrwt>
<pdfrwt beam="2">  1       -2 0.88280914E-02 0.57004156E+03</pdfrwt>
<totfact> 0.36265574E+02</totfact>
</mgrwt>
</event>
<event>
 5    0  0.2992449E-002  0.4390607E+03  0.7546771E-02  0.1031035E+00
          2   -1    0    0  503    0  0.00000000000E+00  0.00000000000E+00  0.15860179377E+04  0.15860179377E+04  0.00000000000E+00 0.  1.
         -2   -1    0    0    0  501 -0.00000000000E+00 -0.00000000000E+00 -0.25853438741E+03  0.25853438741E+03  0.00000000000E+00 0. -1.
         25    1    1    2    0    0  0.77510922189E+02  0.19484523460E+03  0.85896317647E+03  0.89298115716E+03  0.12500000000E+03 0.  0.
         21    1    1    2  502  501 -0.15245983834E+03 -0.14922913620E+02 -0.20187492086E+03  0.25341700679E+03  0.00000000000E+00 0. -1.
         21    1    1    2  503  502  0.74948916154E+02 -0.17992232098E+03  0.67039529468E+03  0.69815416116E+03  0.00000000000E+00 0.  1.
<mgrwt>
<rscale>  4 0.43906067E+03</rscale>
<asrwt>0</asrwt>
<pdfrwt beam="1">  1        2 0.24400275E+00 0.43906067E+03</pdfrwt>
<pdfrwt beam="2">  1       -2 0.39774522E-01 0.43906067E+03</pdfrwt>
<totfact> 0.72227058E+01</totfact>
</mgrwt>
</event>
<event>
 5    0  0.2754780E-002  0.5882483E+03  0.7546771E-02  0.9930092E-01
          2   -1    0    0  503    0  0.00000000000E+00  0.00000000000E+00  0.71802560806E+03  0.71802560806E+03  0.00000000000E+00 0.  1.
         -2   -1    0    0    0  501 -0.00000000000E+00 -0.00000000000E+00 -0.15602412953E+03  0.15602412953E+03  0.00000000000E+00 0. -1.
         25    1    1    2    0    0  0.19247023180E+03  0.21257374077E+03  0.30577759766E+03  0.43744408171E+03  0.12500000000E+03 0.  0.
         21    1    1    2  502  501 -0.74103098479E+02  0.30471658977E+02  0.83919547013E+02  0.11602707260E+03  0.00000000000E+00 0. -1.
         21    1    1    2  503  502 -0.11836713332E+03 -0.24304539974E+03  0.17230433386E+03  0.32057858328E+03  0.00000000000E+00 0. -1.
<mgrwt>
<rscale>  4 0.58824827E+03</rscale>
<asrwt>0</asrwt>
<pdfrwt beam="1">  1        2 0.11046548E+00 0.58824827E+03</pdfrwt>
<pdfrwt beam="2">  1       -2 0.24003713E-01 0.58824827E+03</pdfrwt>
<totfact> 0.61689317E+02</totfact>
</mgrwt>
</event>
<event>
 5    0  0.2754780E-002  0.7651114E+03  0.7546771E-02  0.9611937E-01
          1   -1    0    0  502    0  0.00000000000E+00  0.00000000000E+00  0.54257278741E+03  0.54257278741E+03  0.00000000000E+00 0.  1.
         -1   -1    0    0    0  501 -0.00000000000E+00 -0.00000000000E+00 -0.26973127181E+03  0.26973127181E+03  0.00000000000E+00 0. -1.
         25    1    1    2    0    0 -0.20002864050E+03  0.29077098276E+03  0.59159768328E+02  0.37905685540E+03  0.12500000000E+03 0.  0.
         21    1    1    2  502  503  0.12621759649E+03 -0.25530582781E+03  0.12063430911E+03  0.30929691869E+03  0.00000000000E+00 0.  1.
         21    1    1    2  503  501  0.73811044019E+02 -0.35465154952E+02  0.93047438159E+02  0.12395028513E+03  0.00000000000E+00 0. -1.
<mgrwt>
<rscale>  4 0.76511136E+03</rscale>
<asrwt>0</asrwt>
<pdfrwt beam="1">  1        1 0.83472736E-01 0.76511136E+03</pdfrwt>
<pdfrwt beam="2">  1       -1 0.41497119E-01 0.76511136E+03</pdfrwt>
<totfact> 0.22775630E+02</totfact>
</mgrwt>
</event>
<event>
 5    0  0.2754780E-002  0.5781064E+03  0.7546771E-02  0.9951899E-01
         -2   -1    0    0    0  501 -0.00000000000E+00  0.00000000000E+00  0.57860732509E+02  0.57860732509E+02  0.00000000000E+00 0.  1.
          2   -1    0    0  503    0  0.00000000000E+00 -0.00000000000E+00 -0.18344000885E+04  0.18344000885E+04  0.00000000000E+00 0. -1.
         25    1    1    2    0    0 -0.12398240942E+03 -0.25928585202E+03 -0.10926949980E+04  0.11367533371E+04  0.12500000000E+03 0.  0.
         21    1    1    2  502  501  0.39157253731E+02  0.44815178355E+02 -0.31439623935E+03  0.31997919627E+03  0.00000000000E+00 0. -1.
         21    1    1    2  503  502  0.84825155693E+02  0.21447067367E+03 -0.36944811863E+03  0.43552828755E+03  0.00000000000E+00 0.  1.
<mgrwt>
<rscale>  4 0.57810640E+03</rscale>
<asrwt>0</asrwt>
<pdfrwt beam="1">  1        2 0.28221544E+00 0.57810640E+03</pdfrwt>
<pdfrwt beam="2">  1       -2 0.89016499E-02 0.57810640E+03</pdfrwt>
<totfact> 0.70532751E+02</totfact>
</mgrwt>
</event>
<event>
 5    0  0.2754780E-002  0.5540526E+03  0.7546771E-02  0.1000560E+00
         -1   -1    0    0    0  501 -0.00000000000E+00  0.00000000000E+00  0.55745226647E+03  0.55745226647E+03  0.00000000000E+00 0.  1.
          1   -1    0    0  502    0  0.00000000000E+00 -0.00000000000E+00 -0.24929810694E+03  0.24929810694E+03  0.00000000000E+00 0. -1.
         25    1    1    2    0    0  0.37047944171E+02  0.25298006144E+03  0.14010525353E+03  0.31721592602E+03  0.12500000000E+03 0.  0.
         21    1    1    2  502  503  0.49438409051E+02 -0.25349474405E+03  0.25778323487E+03  0.36490538189E+03  0.00000000000E+00 0. -1.
         21    1    1    2  503  501 -0.86486353222E+02  0.51468260671E+00 -0.89734328861E+02  0.12462906550E+03  0.00000000000E+00 0.  1.
<mgrwt>
<rscale>  4 0.55405255E+03</rscale>
<asrwt>0</asrwt>
<pdfrwt beam="1">  1        1 0.38353555E-01 0.55405255E+03</pdfrwt>
<pdfrwt beam="2">  1       -1 0.85761887E-01 0.55405255E+03</pdfrwt>
<totfact> 0.15364191E+02</totfact>
</mgrwt>
</event>
<event>
 5    0  0.2754780E-002  0.7598313E+03  0.7546771E-02  0.9620052E-01
         -1   -1    0    0    0  501 -0.00000000000E+00  0.00000000000E+00  0.93743845818E+03  0.93743845818E+03  0.00000000000E+00 0. -1.
          1   -1    0    0  502    0  0.00000000000E+00 -0.00000000000E+00 -0.35530657431E+03  0.35530657431E+03  0.00000000000E+00 0.  1.
         25    1    1    2    0    0 -0.19616282454E+03 -0.14051127543E+03  0.31143231131E+03  0.41332596916E+03  0.12500000000E+03 0.  0.
         21    1    1    2  502  503  0.29206996088E+02 -0.21555474264E+02  0.52987713275E+03  0.53111906660E+03  0.00000000000E+00 0. -1.
         21    1    1    2  503  501  0.16695582845E+03  0.16206674969E+03 -0.25917756019E+03  0.34829999672E+03  0.00000000000E+00 0.  1.
<mgrwt>
<rscale>  4 0.75983127E+03</rscale>
<asrwt>0</asrwt>
<pdfrwt beam="1">  1        1 0.54662550E-01 0.75983127E+03</pdfrwt>
<pdfrwt beam="2">  1       -1 0.14422130E+00 0.75983127E+03</pdfrwt>
<totfact> 0.27831059E+01</totfact>
</mgrwt>
</event>
<event>
 5    0  0.2754780E-002  0.4355972E+03  0.7546771E-02  0.1032106E+00
         -1   -1    0    0    0  501 -0.00000000000E+00  0.00000000000E+00  0.53797956839E+02  0.53797956839E+02  0.00000000000E+00 0. -1.
          1   -1    0    0  502    0  0.00000000000E+00 -0.00000000000E+00 -0.10110498583E+04  0.10110498583E+04  0.00000000000E+00 0.  1.
         25    1    1    2    0    0  0.20612491919E+03 -0.63904214379E+01 -0.57199313574E+03  0.62074911771E+03  0.12500000000E+03 0.  0.
         21    1    1    2  502  503 -0.18592579747E+03 -0.70531020776E+01 -0.28072442757E+03  0.33678532131E+03  0.00000000000E+00 0. -1.
         21    1    1    2  503  501 -0.20199121719E+02  0.13443523515E+02 -0.10453433813E+03  0.10731337611E+03  0.00000000000E+00 0. -1.
<mgrwt>
<rscale>  4 0.43559724E+03</rscale>
<asrwt>0</asrwt>
<pdfrwt beam="1">  1        1 0.15554612E+00 0.43559724E+03</pdfrwt>
<pdfrwt beam="2">  1       -1 0.82766093E-02 0.43559724E+03</pdfrwt>
<totfact> 0.12788374E+03</totfact>
</mgrwt>
</event>
<event>
 5    0  0.2754780E-002  0.6291948E+03  0.7546771E-02  0.9846621E-01
          1   -1    0    0  502    0  0.00000000000E+00  0.00000000000E+00  0.22753433573E+03  0.22753433573E+03  0.00000000000E+00 0. -1.
         -1   -1    0    0    0  501 -0.00000000000E+00 -0.00000000000E+00 -0.71338917450E+03  0.71338917450E+03  0.00000000000E+00 0.  1.
         25    1    1    2    0    0 -0.28051589109E+02 -0.30234205074E+03 -0.29037762192E+03  0.43833978899E+03  0.12500000000E+03 0.  0.
         21    1    1    2  502  503  0.65156999842E+02  0.29360291425E+03 -0.27934097656E+03  0.41046252821E+03  0.00000000000E+00 0. -1.
         21    1    1    2  503  501 -0.37105410733E+02  0.87391364940E+01  0.83863759707E+02  0.92121193026E+02  0.00000000000E+00 0. -1.
<mgrwt>
<rscale>  4 0.62919480E+03</rscale>
<asrwt>0</asrwt>
<pdfrwt beam="1">  1        1 0.35005283E-01 0.62919480E+03</pdfrwt>
<pdfrwt beam="2">  1       -1 0.10975218E+00 0.62919480E+03</pdfrwt>
<totfact> 0.98764015E+01</totfact>
</mgrwt>
</event>
<event>
 5    0  0.2754780E-002  0.4593433E+03  0.7546771E-02  0.1024972E+00
         -2   -1    0    0    0  501 -0.00000000000E+00  0.00000000000E+00  0.16104629883E+04  0.16104629883E+04  0.00000000000E+00 0. -1.
          2   -1    0    0  502    0  0.00000000000E+00 -0.00000000000E+00 -0.43273394485E+03  0.43273394485E+03  0.00000000000E+00 0.  1.
         25    1    1    2    0    0  0.11664684739E+03  0.20857707433E+03  0.67174687829E+03  0.72386445654E+03  0.12500000000E+03 0.  0.
         21    1    1    2  502  503 -0.14883608809E+03 -0.54891451104E+02  0.89022280891E+03  0.90424659360E+03  0.00000000000E+00 0.  1.
         21    1    1    2  503  501  0.32189240703E+02 -0.15368562323E+03 -0.38424064373E+03  0.41508588304E+03  0.00000000000E+00 0.  1.
<mgrwt>
<rscale>  4 0.45934332E+03</rscale>
<asrwt>0</asrwt>
<pdfrwt beam="1">  1        2 0.66574454E-01 0.45934332E+03</pdfrwt>
<pdfrwt beam="2">  1       -2 0.24776353E+00 0.45934332E+03</pdfrwt>
<totfact> 0.51979114E+00</totfact>
</mgrwt>
</event>
<event>
 5    0  0.2754780E-002  0.9659801E+03  0.7546771E-02  0.9346665E-01
         -1   -1    0    0    0  501 -0.00000000000E+00  0.00000000000E+00  0.10019199424E+03  0.10019199424E+03  0.00000000000E+00 0. -1.
          1   -1    0    0  503    0  0.00000000000E+00 -0.00000000000E+00 -0.26309883970E+04  0.26309883970E+04  0.00000000000E+00 0.  1.
         25    1    1    2    0    0 -0.40272022984E+03 -0.21075497976E+03 -0.15693605794E+04  0.16386332333E+04  0.12500000000E+03 0.  0.
         21    1    1    2  502  501  0.23818856662E+02 -0.86277235960E+01 -0.28917056025E+03  0.29027812261E+03  0.00000000000E+00 0. -1.
         21    1    1    2  503  502  0.37890137318E+03  0.21938270335E+03 -0.67226526313E+03  0.80226903538E+03  0.00000000000E+00 0. -1.
<mgrwt>
<rscale>  4 0.96598006E+03</rscale>
<asrwt>0</asrwt>
<pdfrwt beam="1">  1        1 0.40476748E+00 0.96598006E+03</pdfrwt>
<pdfrwt beam="2">  1       -1 0.15414152E-01 0.96598006E+03</pdfrwt>
<totfact> 0.35272942E+01</totfact>
</mgrwt>
</event>
<event>
 5    0  0.2754780E-002  0.5304694E+03  0.7546771E-02  0.1006118E+00
          2   -1    0    0  503    0  0.00000000000E+00  0.00000000000E+00  0.88077291825E+03  0.88077291825E+03  0.00000000000E+00 0.  1.
         -2   -1    0    0    0  501 -0.00000000000E+00 -0.00000000000E+00 -0.92178194333E+02  0.92178194333E+02  0.00000000000E+00 0. -1.
         25    1    1    2    0    0  0.19405332982E+03  0.52360382884E+02  0.11661527496E+03  0.26386062015E+03  0.12500000000E+03 0.  0.
         21    1    1    2  502  501 -0.12927599690E+02  0.25796508322E+02  0.97858397586E+02  0.10202376514E+03  0.00000000000E+00 0. -1.
         21    1    1    2  503  502 -0.18112573013E+03 -0.78156891206E+02  0.57412105137E+03  0.60706672730E+03  0.00000000000E+00 0.  1.
<mgrwt>
<rscale>  4 0.53046939E+03</rscale>
<asrwt>0</asrwt>
<pdfrwt beam="1">  1        2 0.13550352E+00 0.53046939E+03</pdfrwt>
<pdfrwt beam="2">  1       -2 0.14181261E-01 0.53046939E+03</pdfrwt>
<totfact> 0.11716707E+03</totfact>
</mgrwt>
</event>
<event>
 5    0  0.2754780E-002  0.4191824E+03  0.7546771E-02  0.1037333E+00
         -1   -1    0    0    0  501 -0.00000000000E+00  0.00000000000E+00  0.19476015838E+04  0.19476015838E+04  0.00000000000E+00 0.  1.
          1   -1    0    0  502    0  0.00000000000E+00 -0.00000000000E+00 -0.44244700264E+02  0.44244700264E+02  0.00000000000E+00 0. -1.
         25    1    1    2    0    0  0.12424409765E+01 -0.20371471196E+03  0.12991098707E+04  0.13209135792E+04  0.12500000000E+03 0.  0.
         21    1    1    2  502  503 -0.49040267516E+01  0.31974334247E+02 -0.94076723904E+01  0.33688452454E+02  0.00000000000E+00 0. -1.
         21    1    1    2  503  501  0.36615857751E+01  0.17174037771E+03  0.61365468522E+03  0.63724425242E+03  0.00000000000E+00 0. -1.
<mgrwt>
<rscale>  4 0.41918236E+03</rscale>
<asrwt>0</asrwt>
<pdfrwt beam="1">  1        1 0.68068785E-02 0.41918236E+03</pdfrwt>
<pdfrwt beam="2">  1       -1 0.29963095E+00 0.41918236E+03</pdfrwt>
<totfact> 0.41111747E+01</totfact>
</mgrwt>
</event>
<event>
 5    0  0.2754780E-002  0.6942420E+03  0.7546771E-02  0.9727130E-01
         -1   -1    0    0    0  501 -0.00000000000E+00  0.00000000000E+00  0.18970046947E+03  0.18970046947E+03  0.00000000000E+00 0.  1.
          1   -1    0    0  503    0  0.00000000000E+00 -0.00000000000E+00 -0.81605160394E+03  0.81605160394E+03  0.00000000000E+00 0. -1.
         25    1    1    2    0    0  0.10445790590E+03 -0.32673520106E+03 -0.28324319516E+03  0.46208121940E+03  0.12500000000E+03 0.  0.
         21    1    1    2  502  501 -0.22807713146E+02  0.12244349057E+02 -0.17676160311E+03  0.17864708281E+03  0.00000000000E+00 0. -1.
         21    1    1    2  503  502 -0.81650192750E+02  0.31449085200E+03 -0.16634633620E+03  0.36502377120E+03  0.00000000000E+00 0.  1.
<mgrwt>
<rscale>  4 0.69424197E+03</rscale>
<asrwt>0</asrwt>
<pdfrwt beam="1">  1        1 0.12554640E+00 0.69424197E+03</pdfrwt>
<pdfrwt beam="2">  1       -1 0.29184688E-01 0.69424197E+03</pdfrwt>
<totfact> 0.23277131E+02</totfact>
</mgrwt>
</event>
<event>
 5    0  0.2754780E-002  0.3740362E+03  0.7546771E-02  0.1053160E+00
          2   -1    0    0  502    0  0.00000000000E+00  0.00000000000E+00  0.34311403630E+03  0.34311403630E+03  0.00000000000E+00 0.  1.
         -2   -1    0    0    0  501 -0.00000000000E+00 -0.00000000000E+00 -0.20840685646E+03  0.20840685646E+03  0.00000000000E+00 0. -1.
         25    1    1    2    0    0  0.10557184239E+02 -0.20118692339E+03 -0.82836093854E+01  0.23723669713E+03  0.12500000000E+03 0.  0.
         21    1    1    2  502  503 -0.40353310398E+02  0.13054883543E+03 -0.16194337244E+02  0.13759958086E+03  0.00000000000E+00 0. -1.
         21    1    1    2  503  501  0.29796126159E+02  0.70638087958E+02  0.15918512647E+03  0.17668461476E+03  0.00000000000E+00 0.  1.
<mgrwt>
<rscale>  4 0.37403618E+03</rscale>
<asrwt>0</asrwt>
<pdfrwt beam="1">  1        2 0.52786775E-01 0.37403618E+03</pdfrwt>
<pdfrwt beam="2">  1       -2 0.32062593E-01 0.37403618E+03</pdfrwt>
<totfact> 0.85765913E+02</totfact>
</mgrwt>
</event>
<event>
 5    0  0.2754780E-002  0.4569891E+03  0.7546771E-02  0.1025658E+00
         -2   -1    0    0    0  501 -0.00000000000E+00  0.00000000000E+00  0.39890717878E+02  0.39890717878E+02  0.00000000000E+00 0.  1.
          2   -1    0    0  503    0  0.00000000000E+00 -0.00000000000E+00 -0.17670302675E+04  0.17670302675E+04  0.00000000000E+00 0. -1.
         25    1    1    2    0    0  0.29726371730E+02 -0.22749081033E+03 -0.73756812903E+03  0.78247522064E+03  0.12500000000E+03 0.  0.
         21    1    1    2  502  501  0.16190466200E+02  0.37257118333E+02 -0.42464580249E+03  0.42658443670E+03  0.00000000000E+00 0. -1.
         21    1    1    2  503  502 -0.45916837930E+02  0.19023369199E+03 -0.56492561814E+03  0.59786132807E+03  0.00000000000E+00 0. -1.
<mgrwt>
<rscale>  4 0.45698909E+03</rscale>
<asrwt>0</asrwt>
<pdfrwt beam="1">  1        2 0.27185088E+00 0.45698909E+03</pdfrwt>
<pdfrwt beam="2">  1       -2 0.61370320E-02 0.45698909E+03</pdfrwt>
<totfact> 0.13915928E+03</totfact>
</mgrwt>
</event>
<event>
 5    0  0.2754780E-002  0.5340946E+03  0.7546771E-02  0.1005244E+00
         -2   -1    0    0    0  501 -0.00000000000E+00  0.00000000000E+00  0.91194665364E+02  0.91194665364E+02  0.00000000000E+00 0. -1.
          2   -1    0    0  503    0  0.00000000000E+00 -0.00000000000E+00 -0.95511965892E+03  0.95511965892E+03  0.00000000000E+00 0.  1.
         25    1    1    2    0    0 -0.21200418552E+03 -0.42934951457E+02 -0.47951350434E+03  0.54069158083E+03  0.12500000000E+03 0.  0.
         21    1    1    2  502  501 -0.49226983131E+02 -0.16523926824E+01 -0.12682920070E+03  0.13605760699E+03  0.00000000000E+00 0. -1.
         21    1    1    2  503  502  0.26123116865E+03  0.44587344139E+02 -0.25758228850E+03  0.36956513645E+03  0.00000000000E+00 0. -1.
<mgrwt>
<rscale>  4 0.53409464E+03</rscale>
<asrwt>0</asrwt>
<pdfrwt beam="1">  1        2 0.14694148E+00 0.53409464E+03</pdfrwt>
<pdfrwt beam="2">  1       -2 0.14029949E-01 0.53409464E+03</pdfrwt>
<totfact> 0.10656274E+03</totfact>
</mgrwt>
</event>
<event>
 5    0  0.2754780E-002  0.5854256E+03  0.7546771E-02  0.9936113E-01
          1   -1    0    0  502    0  0.00000000000E+00  0.00000000000E+00  0.11741219241E+03  0.11741219241E+03  0.00000000000E+00 0. -1.
         -1   -1    0    0    0  501 -0.00000000000E+00 -0.00000000000E+00 -0.89361519083E+03  0.89361519083E+03  0.00000000000E+00 0.  1.
         25    1    1    2    0    0 -0.23162289697E+03  0.57058641247E+02 -0.67273994019E+03  0.72464396918E+03  0.12500000000E+03 0.  0.
         21    1    1    2  502  503  0.17687290281E+03 -0.85048053594E+02 -0.44601971405E+02  0.20126234377E+03  0.00000000000E+00 0. -1.
         21    1    1    2  503  501  0.54749994164E+02  0.27989412347E+02 -0.58861086820E+02  0.85121070283E+02  0.00000000000E+00 0. -1.
<mgrwt>
<rscale>  4 0.58542556E+03</rscale>
<asrwt>0</asrwt>
<pdfrwt beam="1">  1        1 0.18063414E-01 0.58542556E+03</pdfrwt>
<pdfrwt beam="2">  1       -1 0.13747926E+00 0.58542556E+03</pdfrwt>
<totfact> 0.13524200E+02</totfact>
</mgrwt>
</event>
<event>
 5    0  0.2754780E-002  0.6384278E+03  0.7546771E-02  0.9828739E-01
          2   -1    0    0  503    0  0.00000000000E+00  0.00000000000E+00  0.43977869736E+03  0.43977869736E+03  0.00000000000E+00 0.  1.
         -2   -1    0    0    0  501 -0.00000000000E+00 -0.00000000000E+00 -0.26239822927E+03  0.26239822927E+03  0.00000000000E+00 0. -1.
         25    1    1    2    0    0  0.48060918291E+02 -0.28666308373E+03  0.21212100481E+03  0.38092767834E+03  0.12500000000E+03 0.  0.
         21    1    1    2  502  501 -0.15586069172E+02  0.26079511003E+02  0.38103895094E+02  0.48733697456E+02  0.00000000000E+00 0. -1.
         21    1    1    2  503  502 -0.32474849118E+02  0.26058357273E+03 -0.72844431812E+02  0.27251555083E+03  0.00000000000E+00 0. -1.
<mgrwt>
<rscale>  4 0.63842783E+03</rscale>
<asrwt>0</asrwt>
<pdfrwt beam="1">  1        2 0.67658261E-01 0.63842783E+03</pdfrwt>
<pdfrwt beam="2">  1       -2 0.40368958E-01 0.63842783E+03</pdfrwt>
<totfact> 0.41855105E+02</totfact>
</mgrwt>
</event>
<event>
 5    0  0.2754780E-002  0.4276640E+03  0.7546771E-02  0.1034600E+00
          1   -1    0    0  503    0  0.00000000000E+00  0.00000000000E+00  0.25458941209E+04  0.25458941209E+04  0.00000000000E+00 0.  1.
         -1   -1    0    0    0  501 -0.00000000000E+00 -0.00000000000E+00 -0.53769545467E+02  0.53769545467E+02  0.00000000000E+00 0. -1.
         25    1    1    2    0    0 -0.19312373784E+03 -0.12804143696E+03  0.16745137723E+04  0.16950848832E+04  0.12500000000E+03 0.  0.
         21    1    1    2  502  501  0.14056204717E+03  0.80152256443E+02  0.81761501809E+03  0.83347248972E+03  0.00000000000E+00 0. -1.
         21    1    1    2  503  502  0.52561690672E+02  0.47889180516E+02 -0.42150275676E-02  0.71106293354E+02  0.00000000000E+00 0. -1.
<mgrwt>
<rscale>  4 0.42766398E+03</rscale>
<asrwt>0</asrwt>
<pdfrwt beam="1">  1        1 0.39167592E+00 0.42766398E+03</pdfrwt>
<pdfrwt beam="2">  1       -1 0.82722398E-02 0.42766398E+03</pdfrwt>
<totfact> 0.11678390E+02</totfact>
</mgrwt>
</event>
<event>
 5    0  0.2754780E-002  0.6092523E+03  0.7546771E-02  0.9886394E-01
          2   -1    0    0  502    0  0.00000000000E+00  0.00000000000E+00  0.13541356762E+04  0.13541356762E+04  0.00000000000E+00 0. -1.
         -2   -1    0    0    0  501 -0.00000000000E+00 -0.00000000000E+00 -0.68528660747E+02  0.68528660747E+02  0.00000000000E+00 0.  1.
         25    1    1    2    0    0  0.70229534643E+02  0.22972650163E+03  0.30478068257E+03  0.40770420350E+03  0.12500000000E+03 0.  0.
         21    1    1    2  502  503 -0.90456910973E+02 -0.17360315070E+03  0.65150132720E+03  0.68027530164E+03  0.00000000000E+00 0. -1.
         21    1    1    2  503  501  0.20227376330E+02 -0.56123350928E+02  0.32932500569E+03  0.33468483181E+03  0.00000000000E+00 0. -1.
<mgrwt>
<rscale>  4 0.60925234E+03</rscale>
<asrwt>0</asrwt>
<pdfrwt beam="1">  1        2 0.20832855E+00 0.60925234E+03</pdfrwt>
<pdfrwt beam="2">  1       -2 0.10542872E-01 0.60925234E+03</pdfrwt>
<totfact> 0.98273197E+02</totfact>
</mgrwt>
</event>
<event>
 5    0  0.2754780E-002  0.6432207E+03  0.7546771E-02  0.9819584E-01
         -1   -1    0    0    0  501 -0.00000000000E+00  0.00000000000E+00  0.17261083728E+03  0.17261083728E+03  0.00000000000E+00 0. -1.
          1   -1    0    0  502    0  0.00000000000E+00 -0.00000000000E+00 -0.80119209529E+03  0.80119209529E+03  0.00000000000E+00 0.  1.
         25    1    1    2    0    0  0.19764221391E+03 -0.23662345808E+03 -0.13266004847E+03  0.35815749901E+03  0.12500000000E+03 0.  0.
         21    1    1    2  502  503 -0.22371484807E+03  0.17519149743E+03 -0.32247209886E+03  0.42980070796E+03  0.00000000000E+00 0.  1.
         21    1    1    2  503  501  0.26072634164E+02  0.61431960659E+02 -0.17344911067E+03  0.18584472561E+03  0.00000000000E+00 0.  1.
<mgrwt>
<rscale>  4 0.64322070E+03</rscale>
<asrwt>0</asrwt>
<pdfrwt beam="1">  1        1 0.12326032E+00 0.64322070E+03</pdfrwt>
<pdfrwt beam="2">  1       -1 0.26555514E-01 0.64322070E+03</pdfrwt>
<totfact> 0.28289670E+02</totfact>
</mgrwt>
</event>
<event>
 5    0  0.2754780E-002  0.9179559E+03  0.7546771E-02  0.9403410E-01
          1   -1    0    0  502    0  0.00000000000E+00  0.00000000000E+00  0.48377526324E+03  0.48377526324E+03  0.00000000000E+00 0.  1.
         -1   -1    0    0    0  501 -0.00000000000E+00 -0.00000000000E+00 -0.57715040262E+03  0.57715040262E+03  0.00000000000E+00 0. -1.
         25    1    1    2    0    0  0.40063234147E+03  0.12340386584E+03  0.65614629827E+02  0.44234044217E+03  0.12500000000E+03 0.  0.
         21    1    1    2  502  503 -0.41515533476E+03 -0.66194548592E+02 -0.26521290880E+03  0.49706494267E+03  0.00000000000E+00 0. -1.
         21    1    1    2  503  501  0.14522993293E+02 -0.57209317252E+02  0.10622313959E+03  0.12152028102E+03  0.00000000000E+00 0. -1.
<mgrwt>
<rscale>  4 0.91795588E+03</rscale>
<asrwt>0</asrwt>
<pdfrwt beam="1">  1        1 0.74426964E-01 0.91795588E+03</pdfrwt>
<pdfrwt beam="2">  1       -1 0.88792369E-01 0.91795588E+03</pdfrwt>
<totfact> 0.58201974E+01</totfact>
</mgrwt>
</event>
<event>
 5    0  0.2754780E-002  0.7463409E+03  0.7546771E-02  0.9641108E-01
          2   -1    0    0  502    0  0.00000000000E+00  0.00000000000E+00  0.11660695076E+04  0.11660695076E+04  0.00000000000E+00 0.  1.
         -2   -1    0    0    0  501 -0.00000000000E+00 -0.00000000000E+00 -0.68283343858E+03  0.68283343858E+03  0.00000000000E+00 0. -1.
         25    1    1    2    0    0  0.98227385976E+02  0.29909863614E+03 -0.61030017715E+02  0.34417768167E+03  0.12500000000E+03 0.  0.
         21    1    1    2  502  503 -0.15863437225E+03 -0.30813480417E+03 -0.41660502761E+03  0.54191481861E+03  0.00000000000E+00 0.  1.
         21    1    1    2  503  501  0.60406986279E+02  0.90361680264E+01  0.96087111431E+03  0.96281044585E+03  0.00000000000E+00 0.  1.
<mgrwt>
<rscale>  4 0.74634086E+03</rscale>
<asrwt>0</asrwt>
<pdfrwt beam="1">  1        2 0.17939531E+00 0.74634086E+03</pdfrwt>
<pdfrwt beam="2">  1       -2 0.10505130E+00 0.74634086E+03</pdfrwt>
<totfact> 0.14857992E+01</totfact>
</mgrwt>
</event>
<event>
 5    0  0.2754780E-002  0.5338888E+03  0.7546771E-02  0.1005293E+00
         -2   -1    0    0    0  501 -0.00000000000E+00  0.00000000000E+00  0.64503713306E+02  0.64503713306E+02  0.00000000000E+00 0.  1.
          2   -1    0    0  502    0  0.00000000000E+00 -0.00000000000E+00 -0.15200157126E+04  0.15200157126E+04  0.00000000000E+00 0. -1.
         25    1    1    2    0    0  0.71649507429E+02 -0.24863618611E+03 -0.79137252682E+03  0.84193175564E+03  0.12500000000E+03 0.  0.
         21    1    1    2  502  503 -0.10153435454E+03  0.19617643218E+03 -0.29496466712E+03  0.36850857866E+03  0.00000000000E+00 0.  1.
         21    1    1    2  503  501  0.29884847107E+02  0.52459753928E+02 -0.36917480535E+03  0.37407909160E+03  0.00000000000E+00 0.  1.
<mgrwt>
<rscale>  4 0.53388885E+03</rscale>
<asrwt>0</asrwt>
<pdfrwt beam="1">  1        2 0.23384855E+00 0.53388885E+03</pdfrwt>
<pdfrwt beam="2">  1       -2 0.99236491E-02 0.53388885E+03</pdfrwt>
<totfact> 0.87959443E+02</totfact>
</mgrwt>
</event>
<event>
 5    0  0.2754780E-002  0.5467828E+03  0.7546771E-02  0.1002241E+00
         -1   -1    0    0    0  501 -0.00000000000E+00  0.00000000000E+00  0.24074460990E+04  0.24074460990E+04  0.00000000000E+00 0. -1.
          1   -1    0    0  503    0  0.00000000000E+00 -0.00000000000E+00 -0.14053890704E+03  0.14053890704E+03  0.00000000000E+00 0.  1.
         25    1    1    2    0    0 -0.23705532387E+03 -0.69272165822E+02  0.17321696289E+04  0.17541466537E+04  0.12500000000E+03 0.  0.
         21    1    1    2  502  501  0.26394866613E+02 -0.24446378941E+02 -0.10649790987E+03  0.11241049432E+03  0.00000000000E+00 0. -1.
         21    1    1    2  503  502  0.21066045726E+03  0.93718544762E+02  0.64123547293E+03  0.68142785797E+03  0.00000000000E+00 0.  1.
<mgrwt>
<rscale>  4 0.54678279E+03</rscale>
<asrwt>0</asrwt>
<pdfrwt beam="1">  1        1 0.21621372E-01 0.54678279E+03</pdfrwt>
<pdfrwt beam="2">  1       -1 0.37037629E+00 0.54678279E+03</pdfrwt>
<totfact> 0.29467381E+00</totfact>
</mgrwt>
</event>
<event>
 5    0  0.2754780E-002  0.5256802E+03  0.7546771E-02  0.1007285E+00
         -2   -1    0    0    0  501 -0.00000000000E+00  0.00000000000E+00  0.12199743763E+03  0.12199743763E+03  0.00000000000E+00 0. -1.
          2   -1    0    0  502    0  0.00000000000E+00 -0.00000000000E+00 -0.83692574501E+03  0.83692574501E+03  0.00000000000E+00 0.  1.
         25    1    1    2    0    0 -0.23666210833E+03  0.87479306805E+02 -0.18699272978E+03  0.33801311162E+03  0.12500000000E+03 0.  0.
         21    1    1    2  502  503  0.21260764276E+03 -0.10482102588E+03 -0.26196632344E+03  0.35329281318E+03  0.00000000000E+00 0.  1.
         21    1    1    2  503  501  0.24054465573E+02  0.17341719076E+02 -0.26596925416E+03  0.26761725784E+03  0.00000000000E+00 0.  1.
<mgrwt>
<rscale>  4 0.52568018E+03</rscale>
<asrwt>0</asrwt>
<pdfrwt beam="1">  1        2 0.12875781E+00 0.52568018E+03</pdfrwt>
<pdfrwt beam="2">  1       -2 0.18768837E-01 0.52568018E+03</pdfrwt>
<totfact> 0.78020124E+02</totfact>
</mgrwt>
</event>
<event>
 5    0  0.2754780E-002  0.6695806E+03  0.7546771E-02  0.9770716E-01
         -3   -1    0    0    0  501 -0.00000000000E+00  0.00000000000E+00  0.38897433427E+03  0.38897433427E+03  0.00000000000E+00 0. -1.
          3   -1    0    0  502    0  0.00000000000E+00 -0.00000000000E+00 -0.39747247059E+03  0.39747247059E+03  0.00000000000E+00 0.  1.
         25    1    1    2    0    0 -0.17550229224E+03 -0.26579888359E+03 -0.90380400286E+01  0.34228173668E+03  0.12500000000E+03 0.  0.
         21    1    1    2  502  503  0.19147980139E+03  0.25218951739E+03  0.10809050299E+03  0.33458574963E+03  0.00000000000E+00 0. -1.
         21    1    1    2  503  501 -0.15977509149E+02  0.13609366199E+02 -0.10755059928E+03  0.10957931855E+03  0.00000000000E+00 0. -1.
<mgrwt>
<rscale>  4 0.66958062E+03</rscale>
<asrwt>0</asrwt>
<pdfrwt beam="1">  1        3 0.61149611E-01 0.66958062E+03</pdfrwt>
<pdfrwt beam="2">  1       -3 0.59842205E-01 0.66958062E+03</pdfrwt>
<totfact> 0.18708640E+01</totfact>
</mgrwt>
</event>
<event>
 5    0  0.2754780E-002  0.8138131E+03  0.7546771E-02  0.9540236E-01
         -2   -1    0    0    0  501 -0.00000000000E+00  0.00000000000E+00  0.79864144127E+02  0.79864144127E+02  0.00000000000E+00 0. -1.
          2   -1    0    0  503    0  0.00000000000E+00 -0.00000000000E+00 -0.24097699663E+04  0.24097699663E+04  0.00000000000E+00 0.  1.
         25    1    1    2    0    0 -0.12966316722E+03  0.36069337260E+03 -0.11178453434E+04  0.11883246432E+04  0.12500000000E+03 0.  0.
         21    1    1    2  502  501 -0.10056260704E+02  0.20198594391E+02 -0.32602594920E+03  0.32680580035E+03  0.00000000000E+00 0. -1.
         21    1    1    2  503  502  0.13971942793E+03 -0.38089196700E+03 -0.88603452956E+03  0.97450366681E+03  0.00000000000E+00 0. -1.
<mgrwt>
<rscale>  4 0.81381309E+03</rscale>
<asrwt>0</asrwt>
<pdfrwt beam="1">  1        2 0.37073386E+00 0.81381309E+03</pdfrwt>
<pdfrwt beam="2">  1       -2 0.12286791E-01 0.81381309E+03</pdfrwt>
<totfact> 0.19758658E+02</totfact>
</mgrwt>
</event>
<event>
 5    0  0.2754780E-002  0.4608393E+03  0.7546771E-02  0.1024538E+00
          2   -1    0    0  502    0  0.00000000000E+00  0.00000000000E+00  0.71836523549E+03  0.71836523549E+03  0.00000000000E+00 0.  1.
         -2   -1    0    0    0  501 -0.00000000000E+00 -0.00000000000E+00 -0.95755302911E+02  0.95755302911E+02  0.00000000000E+00 0. -1.
         25    1    1    2    0    0 -0.22036823883E+03 -0.83351094761E+02  0.26704548409E+03  0.37742264936E+03  0.12500000000E+03 0.  0.
         21    1    1    2  502  503  0.18052436421E+03  0.70734960581E+02  0.21253157177E+03  0.28768411448E+03  0.00000000000E+00 0.  1.
         21    1    1    2  503  501  0.39843874617E+02  0.12616134180E+02  0.14303287672E+03  0.14901377456E+03  0.00000000000E+00 0. -1.
<mgrwt>
<rscale>  4 0.46083929E+03</rscale>
<asrwt>0</asrwt>
<pdfrwt beam="1">  1        2 0.11051772E+00 0.46083929E+03</pdfrwt>
<pdfrwt beam="2">  1       -2 0.14731586E-01 0.46083929E+03</pdfrwt>
<totfact> 0.14354979E+03</totfact>
</mgrwt>
</event>
<event>
 5    0  0.2754780E-002  0.4693682E+03  0.7546771E-02  0.1022099E+00
          2   -1    0    0  502    0  0.00000000000E+00  0.00000000000E+00  0.10868839826E+04  0.10868839826E+04  0.00000000000E+00 0.  1.
         -2   -1    0    0    0  501 -0.00000000000E+00 -0.00000000000E+00 -0.64443819047E+02  0.64443819047E+02  0.00000000000E+00 0. -1.
         25    1    1    2    0    0 -0.22285605092E+03 -0.93407163777E+00  0.58337612786E+03  0.63688177747E+03  0.12500000000E+03 0.  0.
         21    1    1    2  502  503  0.19437575304E+03  0.67139814217E+01  0.22075175569E+03  0.29420800219E+03  0.00000000000E+00 0.  1.
         21    1    1    2  503  501  0.28480297882E+02 -0.57799097839E+01  0.21831227998E+03  0.22023802195E+03  0.00000000000E+00 0. -1.
<mgrwt>
<rscale>  4 0.46936822E+03</rscale>
<asrwt>0</asrwt>
<pdfrwt beam="1">  1        2 0.16721291E+00 0.46936822E+03</pdfrwt>
<pdfrwt beam="2">  1       -2 0.99144345E-02 0.46936822E+03</pdfrwt>
<totfact> 0.15606468E+03</totfact>
</mgrwt>
</event>
<event>
 5    0  0.2754780E-002  0.7494549E+03  0.7546771E-02  0.9636206E-01
          2   -1    0    0  503    0  0.00000000000E+00  0.00000000000E+00  0.26412993766E+04  0.26412993766E+04  0.00000000000E+00 0. -1.
         -2   -1    0    0    0  501 -0.00000000000E+00 -0.00000000000E+00 -0.72503353317E+02  0.72503353317E+02  0.00000000000E+00 0.  1.
         25    1    1    2    0    0 -0.56471178054E+02 -0.30431074026E+03  0.41160147406E+03  0.52993848137E+03  0.12500000000E+03 0.  0.
         21    1    1    2  502  501 -0.21250309503E+02  0.42832058328E+02  0.68106271482E+03  0.68273902949E+03  0.00000000000E+00 0. -1.
         21    1    1    2  503  502  0.77721487557E+02  0.26147868194E+03  0.14761318344E+04  0.15011252191E+04  0.00000000000E+00 0. -1.
<mgrwt>
<rscale>  4 0.74945494E+03</rscale>
<asrwt>0</asrwt>
<pdfrwt beam="1">  1        2 0.40635368E+00 0.74945494E+03</pdfrwt>
<pdfrwt beam="2">  1       -2 0.11154364E-01 0.74945494E+03</pdfrwt>
<totfact> 0.17218961E+02</totfact>
</mgrwt>
</event>
<event>
 5    0  0.2754780E-002  0.1498262E+04  0.7546771E-02  0.8885609E-01
         -1   -1    0    0    0  501 -0.00000000000E+00  0.00000000000E+00  0.51898856597E+03  0.51898856597E+03  0.00000000000E+00 0. -1.
          1   -1    0    0  502    0  0.00000000000E+00 -0.00000000000E+00 -0.10813291954E+04  0.10813291954E+04  0.00000000000E+00 0.  1.
         25    1    1    2    0    0  0.24548376442E+03 -0.20624434170E+03  0.43113917421E+03  0.55163846368E+03  0.12500000000E+03 0.  0.
         21    1    1    2  502  503 -0.24101936850E+03  0.17191109831E+03 -0.82066393765E+03  0.87242940131E+03  0.00000000000E+00 0.  1.
         21    1    1    2  503  501 -0.44643959207E+01  0.34333243382E+02 -0.17281586601E+03  0.17624989639E+03  0.00000000000E+00 0. -1.
<mgrwt>
<rscale>  4 0.14982623E+04</rscale>
<asrwt>0</asrwt>
<pdfrwt beam="1">  1        1 0.16635834E+00 0.14982623E+04</pdfrwt>
<pdfrwt beam="2">  1       -1 0.79844395E-01 0.14982623E+04</pdfrwt>
<totfact> 0.19852671E+01</totfact>
</mgrwt>
</event>
<event>
 5    0  0.2754780E-002  0.6340006E+03  0.7546771E-02  0.9837273E-01
          1   -1    0    0  502    0  0.00000000000E+00  0.00000000000E+00  0.11463299414E+04  0.11463299414E+04  0.00000000000E+00 0.  1.
         -1   -1    0    0    0  501 -0.00000000000E+00 -0.00000000000E+00 -0.16497508206E+03  0.16497508206E+03  0.00000000000E+00 0. -1.
         25    1    1    2    0    0 -0.21887289359E+03 -0.30643683796E+02  0.44261445039E+03  0.51027142836E+03  0.12500000000E+03 0.  0.
         21    1    1    2  502  503  0.26286795333E+03  0.43337139830E+02  0.61591412449E+01  0.26648752991E+03  0.00000000000E+00 0. -1.
         21    1    1    2  503  501 -0.43995059738E+02 -0.12693456034E+02  0.53258126769E+03  0.53454606518E+03  0.00000000000E+00 0.  1.
<mgrwt>
<rscale>  4 0.63400059E+03</rscale>
<asrwt>0</asrwt>
<pdfrwt beam="1">  1        1 0.17635845E+00 0.63400059E+03</pdfrwt>
<pdfrwt beam="2">  1       -1 0.25380783E-01 0.63400059E+03</pdfrwt>
<totfact> 0.16376041E+02</totfact>
</mgrwt>
</event>
<event>
 5    0  0.2754780E-002  0.4800552E+03  0.7546771E-02  0.1019120E+00
         -2   -1    0    0    0  501 -0.00000000000E+00  0.00000000000E+00  0.49353403883E+02  0.49353403883E+02  0.00000000000E+00 0.  1.
          2   -1    0    0  503    0  0.00000000000E+00 -0.00000000000E+00 -0.21506311767E+04  0.21506311767E+04  0.00000000000E+00 0. -1.
         25    1    1    2    0    0 -0.45424289173E+02  0.19703242831E+03 -0.75628204658E+03  0.79276268696E+03  0.12500000000E+03 0.  0.
         21    1    1    2  502  501 -0.37948034224E+02  0.90488380461E+01 -0.97356539640E+03  0.97434671234E+03  0.00000000000E+00 0. -1.
         21    1    1    2  503  502  0.83372323397E+02 -0.20608126635E+03 -0.37143032980E+03  0.43287518125E+03  0.00000000000E+00 0.  1.
<mgrwt>
<rscale>  4 0.48005518E+03</rscale>
<asrwt>0</asrwt>
<pdfrwt beam="1">  1        2 0.33086645E+00 0.48005518E+03</pdfrwt>
<pdfrwt beam="2">  1       -2 0.75928286E-02 0.48005518E+03</pdfrwt>
<totfact> 0.61850735E+02</totfact>
</mgrwt>
</event>
<event>
 5    0  0.2754780E-002  0.6248450E+03  0.7546771E-02  0.9855160E-01
         -2   -1    0    0    0  501 -0.00000000000E+00  0.00000000000E+00  0.79959856103E+03  0.79959856103E+03  0.00000000000E+00 0. -1.
          2   -1    0    0  502    0  0.00000000000E+00 -0.00000000000E+00 -0.22135418078E+03  0.22135418078E+03  0.00000000000E+00 0.  1.
         25    1    1    2    0    0 -0.22714191117E+03 -0.11140843588E+03  0.13089606966E+03  0.31106923417E+03  0.12500000000E+03 0.  0.
         21    1    1    2  502  503  0.21812615663E+03  0.16836984277E+03  0.53683527071E+03  0.60342317824E+03  0.00000000000E+00 0. -1.
         21    1    1    2  503  501  0.90157545430E+01 -0.56961406893E+02 -0.89486960110E+02  0.10646032940E+03  0.00000000000E+00 0.  1.
<mgrwt>
<rscale>  4 0.62484496E+03</rscale>
<asrwt>0</asrwt>
<pdfrwt beam="1">  1        2 0.34054490E-01 0.62484496E+03</pdfrwt>
<pdfrwt beam="2">  1       -2 0.12301516E+00 0.62484496E+03</pdfrwt>
<totfact> 0.78204227E+01</totfact>
</mgrwt>
</event>
<event>
 5    0  0.2754780E-002  0.6209944E+03  0.7546771E-02  0.9862782E-01
          1   -1    0    0  502    0  0.00000000000E+00  0.00000000000E+00  0.76168956756E+03  0.76168956756E+03  0.00000000000E+00 0.  1.
         -1   -1    0    0    0  501 -0.00000000000E+00 -0.00000000000E+00 -0.15432941500E+03  0.15432941500E+03  0.00000000000E+00 0. -1.
         25    1    1    2    0    0  0.84189935279E+02 -0.22005101670E+03  0.43726661764E+03  0.51218892027E+03  0.12500000000E+03 0.  0.
         21    1    1    2  502  503 -0.10596261630E+03  0.24960836734E+03  0.46787670314E+02  0.27517539714E+03  0.00000000000E+00 0. -1.
         21    1    1    2  503  501  0.21772681018E+02 -0.29557350637E+02  0.12330586461E+03  0.12865466514E+03  0.00000000000E+00 0.  1.
<mgrwt>
<rscale>  4 0.62099438E+03</rscale>
<asrwt>0</asrwt>
<pdfrwt beam="1">  1        1 0.11718301E+00 0.62099438E+03</pdfrwt>
<pdfrwt beam="2">  1       -1 0.23742987E-01 0.62099438E+03</pdfrwt>
<totfact> 0.37095781E+02</totfact>
</mgrwt>
</event>
<event>
 5    0  0.2754780E-002  0.5784737E+03  0.7546771E-02  0.9951101E-01
          1   -1    0    0  502    0  0.00000000000E+00  0.00000000000E+00  0.84241199570E+02  0.84241199570E+02  0.00000000000E+00 0. -1.
         -1   -1    0    0    0  501 -0.00000000000E+00 -0.00000000000E+00 -0.13590781192E+04  0.13590781192E+04  0.00000000000E+00 0.  1.
         25    1    1    2    0    0  0.15564573225E+03  0.22930519269E+03 -0.87348905691E+03  0.92488626214E+03  0.12500000000E+03 0.  0.
         21    1    1    2  502  503 -0.14224797382E+03 -0.21313752371E+03 -0.41890425406E+03  0.49106299406E+03  0.00000000000E+00 0. -1.
         21    1    1    2  503  501 -0.13397758435E+02 -0.16167668979E+02  0.17556391304E+02  0.27370062603E+02  0.00000000000E+00 0. -1.
<mgrwt>
<rscale>  4 0.57847370E+03</rscale>
<asrwt>0</asrwt>
<pdfrwt beam="1">  1        1 0.12960185E-01 0.57847370E+03</pdfrwt>
<pdfrwt beam="2">  1       -1 0.20908893E+00 0.57847370E+03</pdfrwt>
<totfact> 0.63617060E+01</totfact>
</mgrwt>
</event>
<event>
 5    0  0.2754780E-002  0.6585068E+03  0.7546771E-02  0.9790946E-01
         -2   -1    0    0    0  501 -0.00000000000E+00  0.00000000000E+00  0.15573900268E+03  0.15573900268E+03  0.00000000000E+00 0. -1.
          2   -1    0    0  502    0  0.00000000000E+00 -0.00000000000E+00 -0.69608641424E+03  0.69608641424E+03  0.00000000000E+00 0.  1.
         25    1    1    2    0    0 -0.25383295889E+03 -0.10723074845E+03 -0.86490639474E+02  0.31469864179E+03  0.12500000000E+03 0.  0.
         21    1    1    2  502  503  0.20252895966E+03  0.11679363319E+03 -0.38938652943E+03  0.45418124307E+03  0.00000000000E+00 0.  1.
         21    1    1    2  503  501  0.51303999226E+02 -0.95628847453E+01 -0.64470242655E+02  0.82945532063E+02  0.00000000000E+00 0.  1.
<mgrwt>
<rscale>  4 0.65850681E+03</rscale>
<asrwt>0</asrwt>
<pdfrwt beam="1">  1        2 0.10709022E+00 0.65850681E+03</pdfrwt>
<pdfrwt beam="2">  1       -2 0.23959847E-01 0.65850681E+03</pdfrwt>
<totfact> 0.64234173E+02</totfact>
</mgrwt>
</event>
<event>
 5    0  0.2754780E-002  0.7329439E+03  0.7546771E-02  0.9662495E-01
         -2   -1    0    0    0  501 -0.00000000000E+00  0.00000000000E+00  0.40165109779E+03  0.40165109779E+03  0.00000000000E+00 0. -1.
          2   -1    0    0  503    0  0.00000000000E+00 -0.00000000000E+00 -0.41713897932E+03  0.41713897932E+03  0.00000000000E+00 0.  1.
         25    1    1    2    0    0 -0.97010575533E+02  0.27741340358E+03 -0.19101590048E+03  0.37213078680E+03  0.12500000000E+03 0.  0.
         21    1    1    2  502  501  0.78209335022E+02  0.19115939915E+02 -0.29406996634E+02  0.85714005241E+02  0.00000000000E+00 0. -1.
         21    1    1    2  503  502  0.18801240511E+02 -0.29652934349E+03  0.20493501559E+03  0.36094528506E+03  0.00000000000E+00 0. -1.
<mgrwt>
<rscale>  4 0.73294392E+03</rscale>
<asrwt>0</asrwt>
<pdfrwt beam="1">  1        2 0.64175227E-01 0.73294392E+03</pdfrwt>
<pdfrwt beam="2">  1       -2 0.61792477E-01 0.73294392E+03</pdfrwt>
<totfact> 0.18638558E+02</totfact>
</mgrwt>
</event>
<event>
 5    0  0.2754780E-002  0.5568101E+03  0.7546771E-02  0.9999298E-01
          2   -1    0    0  503    0  0.00000000000E+00  0.00000000000E+00  0.43285792232E+03  0.43285792232E+03  0.00000000000E+00 0.  1.
         -2   -1    0    0    0  501 -0.00000000000E+00 -0.00000000000E+00 -0.21859037254E+03  0.21859037254E+03  0.00000000000E+00 0. -1.
         25    1    1    2    0    0 -0.17821838620E+03  0.18357808751E+03 -0.91018633852E+01  0.28490445997E+03  0.12500000000E+03 0.  0.
         21    1    1    2  502  501 -0.11962180609E+02 -0.26442714094E+02  0.70703189399E+02  0.76428083089E+02  0.00000000000E+00 0.  1.
         21    1    1    2  503  502  0.19018056681E+03 -0.15713537341E+03  0.15266622376E+03  0.29011575181E+03  0.00000000000E+00 0.  1.
<mgrwt>
<rscale>  4 0.55681013E+03</rscale>
<asrwt>0</asrwt>
<pdfrwt beam="1">  1        2 0.66593526E-01 0.55681013E+03</pdfrwt>
<pdfrwt beam="2">  1       -2 0.33629288E-01 0.55681013E+03</pdfrwt>
<totfact> 0.60559116E+02</totfact>
</mgrwt>
</event>
<event>
 5    0  0.2754780E-002  0.5175997E+03  0.7546771E-02  0.1009285E+00
          2   -1    0    0  502    0  0.00000000000E+00  0.00000000000E+00  0.18823824474E+04  0.18823824474E+04  0.00000000000E+00 0. -1.
         -2   -1    0    0    0  501 -0.00000000000E+00 -0.00000000000E+00 -0.45554042846E+02  0.45554042846E+02  0.00000000000E+00 0.  1.
         25    1    1    2    0    0 -0.22500797472E+03  0.84970275740E+02  0.54828065435E+03  0.61162505866E+03  0.12500000000E+03 0.  0.
         21    1    1    2  502  503  0.16546952485E+03 -0.11410546303E+03  0.10278871493E+04  0.10473548644E+04  0.00000000000E+00 0. -1.
         21    1    1    2  503  501  0.59538449874E+02  0.29135187290E+02  0.26066060090E+03  0.26895656715E+03  0.00000000000E+00 0. -1.
<mgrwt>
<rscale>  4 0.51759969E+03</rscale>
<asrwt>0</asrwt>
<pdfrwt beam="1">  1        2 0.28959724E+00 0.51759969E+03</pdfrwt>
<pdfrwt beam="2">  1       -2 0.70083158E-02 0.51759969E+03</pdfrwt>
<totfact> 0.97617681E+02</totfact>
</mgrwt>
</event>
<event>
 5    0  0.2754780E-002  0.7139332E+03  0.7546771E-02  0.9693697E-01
          1   -1    0    0  503    0  0.00000000000E+00  0.00000000000E+00  0.34686012891E+03  0.34686012891E+03  0.00000000000E+00 0.  1.
         -1   -1    0    0    0  501 -0.00000000000E+00 -0.00000000000E+00 -0.36736751909E+03  0.36736751909E+03  0.00000000000E+00 0. -1.
         25    1    1    2    0    0  0.53467379816E+01 -0.34039150176E+03 -0.22930549954E+01  0.36266405967E+03  0.12500000000E+03 0.  0.
         21    1    1    2  502  501 -0.11733583664E+02  0.24834975784E+02  0.19516882146E+02  0.33695128676E+02  0.00000000000E+00 0. -1.
         21    1    1    2  503  502  0.63868456822E+01  0.31555652597E+03 -0.37731217328E+02  0.31786845965E+03  0.00000000000E+00 0. -1.
<mgrwt>
<rscale>  4 0.71393318E+03</rscale>
<asrwt>0</asrwt>
<pdfrwt beam="1">  1        1 0.53363097E-01 0.71393318E+03</pdfrwt>
<pdfrwt beam="2">  1       -1 0.56518080E-01 0.71393318E+03</pdfrwt>
<totfact> 0.23282708E+02</totfact>
</mgrwt>
</event>
<event>
 5    0  0.2754780E-002  0.3994397E+03  0.7546771E-02  0.1043974E+00
         -2   -1    0    0    0  501 -0.00000000000E+00  0.00000000000E+00  0.94783214835E+02  0.94783214835E+02  0.00000000000E+00 0.  1.
          2   -1    0    0  503    0  0.00000000000E+00 -0.00000000000E+00 -0.74103981862E+03  0.74103981862E+03  0.00000000000E+00 0. -1.
         25    1    1    2    0    0 -0.26787955886E+02 -0.20045535508E+03 -0.19688974118E+03  0.30869161657E+03  0.12500000000E+03 0.  0.
         21    1    1    2  502  501  0.34054183336E+02  0.38985301051E+02 -0.30824223013E+03  0.31255849618E+03  0.00000000000E+00 0. -1.
         21    1    1    2  503  502 -0.72662274497E+01  0.16147005402E+03 -0.14112463249E+03  0.21457292071E+03  0.00000000000E+00 0. -1.
<mgrwt>
<rscale>  4 0.39943968E+03</rscale>
<asrwt>0</asrwt>
<pdfrwt beam="1">  1        2 0.11400612E+00 0.39943968E+03</pdfrwt>
<pdfrwt beam="2">  1       -2 0.14582034E-01 0.39943968E+03</pdfrwt>
<totfact> 0.14042283E+03</totfact>
</mgrwt>
</event>
<event>
 5    0  0.2754780E-002  0.5880267E+03  0.7546771E-02  0.9930563E-01
          1   -1    0    0  503    0  0.00000000000E+00  0.00000000000E+00  0.14647914471E+04  0.14647914471E+04  0.00000000000E+00 0.  1.
         -1   -1    0    0    0  501 -0.00000000000E+00 -0.00000000000E+00 -0.79577781859E+02  0.79577781859E+02  0.00000000000E+00 0. -1.
         25    1    1    2    0    0 -0.16966178417E+03 -0.24888345816E+03  0.63078023954E+03  0.71009633666E+03  0.12500000000E+03 0.  0.
         21    1    1    2  502  501  0.49436527998E+02  0.18953006092E+02  0.34851534726E+03  0.35251401960E+03  0.00000000000E+00 0. -1.
         21    1    1    2  503  502  0.12022525617E+03  0.22993045207E+03  0.40591807845E+03  0.48175887270E+03  0.00000000000E+00 0.  1.
<mgrwt>
<rscale>  4 0.58802673E+03</rscale>
<asrwt>0</asrwt>
<pdfrwt beam="1">  1        1 0.22535251E+00 0.58802673E+03</pdfrwt>
<pdfrwt beam="2">  1       -1 0.12242737E-01 0.58802673E+03</pdfrwt>
<totfact> 0.32528982E+02</totfact>
</mgrwt>
</event>
<event>
 5    0  0.2754780E-002  0.5729299E+03  0.7546771E-02  0.9963216E-01
          3   -1    0    0  502    0  0.00000000000E+00  0.00000000000E+00  0.92179709981E+03  0.92179709981E+03  0.00000000000E+00 0. -1.
         -3   -1    0    0    0  501 -0.00000000000E+00 -0.00000000000E+00 -0.98753947670E+02  0.98753947670E+02  0.00000000000E+00 0.  1.
         25    1    1    2    0    0 -0.12317716617E+03  0.16737568574E+03  0.69928759548E+03  0.74014550977E+03  0.12500000000E+03 0.  0.
         21    1    1    2  502  503  0.13209254548E+03 -0.14593558640E+03  0.50012657579E+02  0.20309333290E+03  0.00000000000E+00 0.  1.
         21    1    1    2  503  501 -0.89153793120E+01 -0.21440099339E+02  0.73742899073E+02  0.77312204804E+02  0.00000000000E+00 0. -1.
<mgrwt>
<rscale>  4 0.57292988E+03</rscale>
<asrwt>0</asrwt>
<pdfrwt beam="1">  1        3 0.14181493E+00 0.57292988E+03</pdfrwt>
<pdfrwt beam="2">  1       -3 0.15192916E-01 0.57292988E+03</pdfrwt>
<totfact> 0.36883488E+01</totfact>
</mgrwt>
</event>
<event>
 5    0  0.2754780E-002  0.5201720E+03  0.7546771E-02  0.1008644E+00
          2   -1    0    0  502    0  0.00000000000E+00  0.00000000000E+00  0.51773483013E+03  0.51773483013E+03  0.00000000000E+00 0.  1.
         -2   -1    0    0    0  501 -0.00000000000E+00 -0.00000000000E+00 -0.13065515533E+03  0.13065515533E+03  0.00000000000E+00 0. -1.
         25    1    1    2    0    0  0.88091919601E+02  0.22068738621E+03  0.22983383075E+03  0.35342849133E+03  0.12500000000E+03 0.  0.
         21    1    1    2  502  503 -0.61867793141E+02 -0.21357183334E+03  0.14146087204E+03  0.26353696163E+03  0.00000000000E+00 0. -1.
         21    1    1    2  503  501 -0.26224126459E+02 -0.71155528712E+01  0.15784972016E+02  0.31424532499E+02  0.00000000000E+00 0.  1.
<mgrwt>
<rscale>  4 0.52017199E+03</rscale>
<asrwt>0</asrwt>
<pdfrwt beam="1">  1        2 0.79651511E-01 0.52017199E+03</pdfrwt>
<pdfrwt beam="2">  1       -2 0.20100793E-01 0.52017199E+03</pdfrwt>
<totfact> 0.12516381E+03</totfact>
</mgrwt>
</event>
<event>
 5    0  0.2754780E-002  0.5291147E+03  0.7546771E-02  0.1006447E+00
          1   -1    0    0  502    0  0.00000000000E+00  0.00000000000E+00  0.28850381287E+03  0.28850381287E+03  0.00000000000E+00 0. -1.
         -1   -1    0    0    0  501 -0.00000000000E+00 -0.00000000000E+00 -0.24259852224E+03  0.24259852224E+03  0.00000000000E+00 0.  1.
         25    1    1    2    0    0  0.22023784233E+03 -0.10122552608E+03 -0.13979314875E+02  0.27307825906E+03  0.12500000000E+03 0.  0.
         21    1    1    2  502  503 -0.19337006669E+03  0.97173311422E+02  0.31436200364E+02  0.21868440694E+03  0.00000000000E+00 0.  1.
         21    1    1    2  503  501 -0.26867775642E+02  0.40522146596E+01  0.28448405141E+02  0.39339669122E+02  0.00000000000E+00 0.  1.
<mgrwt>
<rscale>  4 0.52911473E+03</rscale>
<asrwt>0</asrwt>
<pdfrwt beam="1">  1        1 0.44385202E-01 0.52911473E+03</pdfrwt>
<pdfrwt beam="2">  1       -1 0.37322850E-01 0.52911473E+03</pdfrwt>
<totfact> 0.64300121E+02</totfact>
</mgrwt>
</event>
<event>
 5    0  0.2754780E-002  0.4295932E+03  0.7546771E-02  0.1033989E+00
          3   -1    0    0  503    0  0.00000000000E+00  0.00000000000E+00  0.12699825360E+03  0.12699825360E+03  0.00000000000E+00 0. -1.
         -3   -1    0    0    0  501 -0.00000000000E+00 -0.00000000000E+00 -0.60853311193E+03  0.60853311193E+03  0.00000000000E+00 0.  1.
         25    1    1    2    0    0 -0.21462775922E+02  0.20397501531E+03 -0.22592663477E+03  0.32974884673E+03  0.12500000000E+03 0.  0.
         21    1    1    2  502  501 -0.12664793244E+02 -0.28515378620E+02  0.45764078511E+02  0.55388398494E+02  0.00000000000E+00 0.  1.
         21    1    1    2  503  502  0.34127569167E+02 -0.17545963669E+03 -0.30137230206E+03  0.35039412029E+03  0.00000000000E+00 0. -1.
<mgrwt>
<rscale>  4 0.42959316E+03</rscale>
<asrwt>0</asrwt>
<pdfrwt beam="1">  1        3 0.19538192E-01 0.42959316E+03</pdfrwt>
<pdfrwt beam="2">  1       -3 0.93620481E-01 0.42959316E+03</pdfrwt>
<totfact> 0.63113799E+01</totfact>
</mgrwt>
</event>
<event>
 5    0  0.2754780E-002  0.5618185E+03  0.7546771E-02  0.9987948E-01
         -2   -1    0    0    0  501 -0.00000000000E+00  0.00000000000E+00  0.73706445393E+02  0.73706445393E+02  0.00000000000E+00 0.  1.
          2   -1    0    0  503    0  0.00000000000E+00 -0.00000000000E+00 -0.12141534892E+04  0.12141534892E+04  0.00000000000E+00 0. -1.
         25    1    1    2    0    0 -0.17899029183E+03 -0.10956037619E+03 -0.90940109523E+03  0.94163493595E+03  0.12500000000E+03 0.  0.
         21    1    1    2  502  501  0.79644879488E+01  0.23204527463E+02 -0.12471540239E+03  0.12710552606E+03  0.00000000000E+00 0.  1.
         21    1    1    2  503  502  0.17102580388E+03  0.86355848726E+02 -0.10633054616E+03  0.21911947255E+03  0.00000000000E+00 0.  1.
<mgrwt>
<rscale>  4 0.56181850E+03</rscale>
<asrwt>0</asrwt>
<pdfrwt beam="1">  1        2 0.18679284E+00 0.56181850E+03</pdfrwt>
<pdfrwt beam="2">  1       -2 0.11339453E-01 0.56181850E+03</pdfrwt>
<totfact> 0.10517582E+03</totfact>
</mgrwt>
</event>
<event>
 5    0  0.2754780E-002  0.6269797E+03  0.7546771E-02  0.9850961E-01
          1   -1    0    0  502    0  0.00000000000E+00  0.00000000000E+00  0.80358029095E+03  0.80358029095E+03  0.00000000000E+00 0. -1.
         -1   -1    0    0    0  501 -0.00000000000E+00 -0.00000000000E+00 -0.14965317435E+03  0.14965317435E+03  0.00000000000E+00 0.  1.
         25    1    1    2    0    0  0.27570885208E+03  0.10224860656E+03  0.35574687967E+03  0.47817464493E+03  0.12500000000E+03 0.  0.
         21    1    1    2  502  503 -0.25499886941E+03 -0.15212249443E+03  0.18550590432E+03  0.35011157829E+03  0.00000000000E+00 0. -1.
         21    1    1    2  503  501 -0.20709982674E+02  0.49873887869E+02  0.11267433261E+03  0.12494724208E+03  0.00000000000E+00 0. -1.
<mgrwt>
<rscale>  4 0.62697966E+03</rscale>
<asrwt>0</asrwt>
<pdfrwt beam="1">  1        1 0.12362773E+00 0.62697966E+03</pdfrwt>
<pdfrwt beam="2">  1       -1 0.23023566E-01 0.62697966E+03</pdfrwt>
<totfact> 0.35907719E+02</totfact>
</mgrwt>
</event>
<event>
 5    0  0.2754780E-002  0.6348261E+03  0.7546771E-02  0.9835676E-01
         -2   -1    0    0    0  501 -0.00000000000E+00  0.00000000000E+00  0.14221072393E+03  0.14221072393E+03  0.00000000000E+00 0. -1.
          2   -1    0    0  503    0  0.00000000000E+00 -0.00000000000E+00 -0.17996761469E+04  0.17996761469E+04  0.00000000000E+00 0.  1.
         25    1    1    2    0    0 -0.21046811447E+03 -0.45289740938E+02 -0.45783318618E+03  0.52113742354E+03  0.12500000000E+03 0.  0.
         21    1    1    2  502  501  0.21202021143E+03  0.30853836765E+03 -0.10570049762E+04  0.11213420594E+04  0.00000000000E+00 0.  1.
         21    1    1    2  503  502 -0.15520969640E+01 -0.26324862672E+03 -0.14262726055E+03  0.29940738789E+03  0.00000000000E+00 0. -1.
<mgrwt>
<rscale>  4 0.63482611E+03</rscale>
<asrwt>0</asrwt>
<pdfrwt beam="1">  1        2 0.27687325E+00 0.63482611E+03</pdfrwt>
<pdfrwt beam="2">  1       -2 0.21878573E-01 0.63482611E+03</pdfrwt>
<totfact> 0.16220823E+02</totfact>
</mgrwt>
</event>
<event>
 5    0  0.2754780E-002  0.5291257E+03  0.7546771E-02  0.1006444E+00
          2   -1    0    0  503    0  0.00000000000E+00  0.00000000000E+00  0.19186077685E+04  0.19186077685E+04  0.00000000000E+00 0. -1.
         -2   -1    0    0    0  501 -0.00000000000E+00 -0.00000000000E+00 -0.62286002126E+02  0.62286002126E+02  0.00000000000E+00 0.  1.
         25    1    1    2    0    0 -0.75094315551E+02 -0.21327856989E+03  0.29369616262E+03  0.39116408391E+03  0.12500000000E+03 0.  0.
         21    1    1    2  502  501 -0.91373318682E+01  0.26990458458E+02  0.78995344301E+03  0.79046721489E+03  0.00000000000E+00 0.  1.
         21    1    1    2  503  502  0.84231647419E+02  0.18628811144E+03  0.77267216070E+03  0.79926247179E+03  0.00000000000E+00 0. -1.
<mgrwt>
<rscale>  4 0.52912568E+03</rscale>
<asrwt>0</asrwt>
<pdfrwt beam="1">  1        2 0.29517038E+00 0.52912568E+03</pdfrwt>
<pdfrwt beam="2">  1       -2 0.95824634E-02 0.52912568E+03</pdfrwt>
<totfact> 0.56639991E+02</totfact>
</mgrwt>
</event>
<event>
 5    0  0.2754780E-002  0.5299681E+03  0.7546771E-02  0.1006240E+00
         -2   -1    0    0    0  501 -0.00000000000E+00  0.00000000000E+00  0.24543355795E+03  0.24543355795E+03  0.00000000000E+00 0.  1.
          2   -1    0    0  503    0  0.00000000000E+00 -0.00000000000E+00 -0.36552917964E+03  0.36552917964E+03  0.00000000000E+00 0. -1.
         25    1    1    2    0    0  0.12145484181E+02 -0.21905810492E+03 -0.11284966814E+03  0.27657551178E+03  0.12500000000E+03 0.  0.
         21    1    1    2  502  501  0.35673709144E+02 -0.26215382950E+02 -0.64299039898E+02  0.78065526061E+02  0.00000000000E+00 0.  1.
         21    1    1    2  503  502 -0.47819193324E+02  0.24527348787E+03  0.57053086346E+02  0.25632169975E+03  0.00000000000E+00 0.  1.
<mgrwt>
<rscale>  4 0.52996809E+03</rscale>
<asrwt>0</asrwt>
<pdfrwt beam="1">  1        2 0.56235258E-01 0.52996809E+03</pdfrwt>
<pdfrwt beam="2">  1       -2 0.37759009E-01 0.52996809E+03</pdfrwt>
<totfact> 0.58715247E+02</totfact>
</mgrwt>
</event>
<event>
 5    0  0.2754780E-002  0.4615887E+03  0.7546771E-02  0.1024321E+00
          1   -1    0    0  502    0  0.00000000000E+00  0.00000000000E+00  0.97093419188E+03  0.97093419188E+03  0.00000000000E+00 0.  1.
         -1   -1    0    0    0  501 -0.00000000000E+00 -0.00000000000E+00 -0.14498874595E+03  0.14498874595E+03  0.00000000000E+00 0. -1.
         25    1    1    2    0    0 -0.84685674329E+02 -0.18249545927E+03  0.12306020956E+03  0.26691772378E+03  0.12500000000E+03 0.  0.
         21    1    1    2  502  503  0.82112878148E+02  0.20892972004E+03  0.10036681367E+03  0.24590170792E+03  0.00000000000E+00 0. -1.
         21    1    1    2  503  501  0.25727961802E+01 -0.26434260770E+02  0.60251842270E+03  0.60310350614E+03  0.00000000000E+00 0.  1.
<mgrwt>
<rscale>  4 0.46158871E+03</rscale>
<asrwt>0</asrwt>
<pdfrwt beam="1">  1        1 0.14937449E+00 0.46158871E+03</pdfrwt>
<pdfrwt beam="2">  1       -1 0.22305962E-01 0.46158871E+03</pdfrwt>
<totfact> 0.27980843E+02</totfact>
</mgrwt>
</event>
<event>
 5    0  0.2754780E-002  0.4338480E+03  0.7546771E-02  0.1032651E+00
          2   -1    0    0  503    0  0.00000000000E+00  0.00000000000E+00  0.20058812707E+04  0.20058812707E+04  0.00000000000E+00 0.  1.
         -2   -1    0    0    0  501 -0.00000000000E+00 -0.00000000000E+00 -0.12282513680E+03  0.12282513680E+03  0.00000000000E+00 0. -1.
         25    1    1    2    0    0 -0.21516767338E+03 -0.22669697245E+02  0.72382130464E+02  0.26014460527E+03  0.12500000000E+03 0.  0.
         21    1    1    2  502  501  0.73620676027E+02 -0.44271171591E+02  0.16180403622E+04  0.16203192754E+04  0.00000000000E+00 0.  1.
         21    1    1    2  503  502  0.14154699735E+03  0.66940868836E+02  0.19263364122E+03  0.24824252679E+03  0.00000000000E+00 0.  1.
<mgrwt>
<rscale>  4 0.43384803E+03</rscale>
<asrwt>0</asrwt>
<pdfrwt beam="1">  1        2 0.30859709E+00 0.43384803E+03</pdfrwt>
<pdfrwt beam="2">  1       -2 0.18896176E-01 0.43384803E+03</pdfrwt>
<totfact> 0.16645554E+02</totfact>
</mgrwt>
</event>
<event>
 5    0  0.2754780E-002  0.4841841E+03  0.7546771E-02  0.1017992E+00
         -2   -1    0    0    0  501 -0.00000000000E+00  0.00000000000E+00  0.11288873872E+03  0.11288873872E+03  0.00000000000E+00 0. -1.
          2   -1    0    0  502    0  0.00000000000E+00 -0.00000000000E+00 -0.60024901846E+03  0.60024901846E+03  0.00000000000E+00 0.  1.
         25    1    1    2    0    0  0.25984594741E+01  0.20419446064E+03 -0.31828505152E+03  0.39828696159E+03  0.12500000000E+03 0.  0.
         21    1    1    2  502  503  0.25813516803E+02 -0.22272732967E+03 -0.11755536492E+03  0.25316608157E+03  0.00000000000E+00 0. -1.
         21    1    1    2  503  501 -0.28411976277E+02  0.18532869035E+02 -0.51519863291E+02  0.61684714024E+02  0.00000000000E+00 0. -1.
<mgrwt>
<rscale>  4 0.48418405E+03</rscale>
<asrwt>0</asrwt>
<pdfrwt beam="1">  1        2 0.92346000E-01 0.48418405E+03</pdfrwt>
<pdfrwt beam="2">  1       -2 0.17367499E-01 0.48418405E+03</pdfrwt>
<totfact> 0.13535508E+03</totfact>
</mgrwt>
</event>
<event>
 5    0  0.2754780E-002  0.6914638E+03  0.7546771E-02  0.9731943E-01
         -2   -1    0    0    0  501 -0.00000000000E+00  0.00000000000E+00  0.10439477309E+03  0.10439477309E+03  0.00000000000E+00 0. -1.
          2   -1    0    0  502    0  0.00000000000E+00 -0.00000000000E+00 -0.15073699782E+04  0.15073699782E+04  0.00000000000E+00 0.  1.
         25    1    1    2    0    0 -0.89178435906E+02 -0.26190097266E+03 -0.85842622428E+03  0.91053033746E+03  0.12500000000E+03 0.  0.
         21    1    1    2  502  503  0.15522541526E+02  0.33225200277E+03 -0.35784564379E+03  0.48855485610E+03  0.00000000000E+00 0. -1.
         21    1    1    2  503  501  0.73655894381E+02 -0.70351030103E+02 -0.18670333700E+03  0.21267955770E+03  0.00000000000E+00 0.  1.
<mgrwt>
<rscale>  4 0.69146375E+03</rscale>
<asrwt>0</asrwt>
<pdfrwt beam="1">  1        2 0.23190308E+00 0.69146375E+03</pdfrwt>
<pdfrwt beam="2">  1       -2 0.16060734E-01 0.69146375E+03</pdfrwt>
<totfact> 0.39863830E+02</totfact>
</mgrwt>
</event>
<event>
 5    0  0.2754780E-002  0.4633233E+03  0.7546771E-02  0.1023822E+00
          2   -1    0    0  503    0  0.00000000000E+00  0.00000000000E+00  0.37670712983E+03  0.37670712983E+03  0.00000000000E+00 0.  1.
         -2   -1    0    0    0  501 -0.00000000000E+00 -0.00000000000E+00 -0.16812308826E+03  0.16812308826E+03  0.00000000000E+00 0. -1.
         25    1    1    2    0    0  0.20311609794E+03 -0.43337607125E+02  0.15297562186E+03  0.28663711957E+03  0.12500000000E+03 0.  0.
         21    1    1    2  502  501 -0.20709424202E+01  0.20007313833E+02  0.52013083343E+02  0.55766856179E+02  0.00000000000E+00 0.  1.
         21    1    1    2  503  502 -0.20104515552E+03  0.23330293293E+02  0.35953363631E+01  0.20242624234E+03  0.00000000000E+00 0.  1.
<mgrwt>
<rscale>  4 0.46332333E+03</rscale>
<asrwt>0</asrwt>
<pdfrwt beam="1">  1        2 0.57954943E-01 0.46332333E+03</pdfrwt>
<pdfrwt beam="2">  1       -2 0.25865091E-01 0.46332333E+03</pdfrwt>
<totfact> 0.11465060E+03</totfact>
</mgrwt>
</event>
<event>
 5    0  0.2754780E-002  0.6539454E+03  0.7546771E-02  0.9799404E-01
         -1   -1    0    0    0  501 -0.00000000000E+00  0.00000000000E+00  0.37274199934E+04  0.37274199934E+04  0.00000000000E+00 0. -1.
          1   -1    0    0  503    0  0.00000000000E+00 -0.00000000000E+00 -0.45302370219E+02  0.45302370219E+02  0.00000000000E+00 0.  1.
         25    1    1    2    0    0 -0.31109585860E+03  0.58400099166E+02  0.16878383263E+04  0.17218055699E+04  0.12500000000E+03 0.  0.
         21    1    1    2  502  501  0.14678691016E+02  0.25147260663E+02 -0.36910609526E+01  0.29350853817E+02  0.00000000000E+00 0.  1.
         21    1    1    2  503  502  0.29641716759E+03 -0.83547359829E+02  0.19979703579E+04  0.20215659399E+04  0.00000000000E+00 0. -1.
<mgrwt>
<rscale>  4 0.65394541E+03</rscale>
<asrwt>0</asrwt>
<pdfrwt beam="1">  1        1 0.69695984E-02 0.65394541E+03</pdfrwt>
<pdfrwt beam="2">  1       -1 0.57344899E+00 0.65394541E+03</pdfrwt>
<totfact> 0.66070024E-01</totfact>
</mgrwt>
</event>
<event>
 5    0  0.2754780E-002  0.7190077E+03  0.7546771E-02  0.9685267E-01
          2   -1    0    0  503    0  0.00000000000E+00  0.00000000000E+00  0.85171001430E+02  0.85171001430E+02  0.00000000000E+00 0. -1.
         -2   -1    0    0    0  501 -0.00000000000E+00 -0.00000000000E+00 -0.21316637744E+04  0.21316637744E+04  0.00000000000E+00 0.  1.
         25    1    1    2    0    0  0.27471855506E+03  0.28494282725E+02 -0.42335977341E+03  0.52071173060E+03  0.12500000000E+03 0.  0.
         21    1    1    2  502  501  0.89361397364E+01 -0.26178576210E+02  0.16449435823E+02  0.32183169276E+02  0.00000000000E+00 0. -1.
         21    1    1    2  503  502 -0.28365469480E+03 -0.23157065156E+01 -0.16395824354E+04  0.16639398760E+04  0.00000000000E+00 0. -1.
<mgrwt>
<rscale>  4 0.71900771E+03</rscale>
<asrwt>0</asrwt>
<pdfrwt beam="1">  1        2 0.13103231E-01 0.71900771E+03</pdfrwt>
<pdfrwt beam="2">  1       -2 0.32794827E+00 0.71900771E+03</pdfrwt>
<totfact> 0.10632489E+01</totfact>
</mgrwt>
</event>
<event>
 5    0  0.2754780E-002  0.5332362E+03  0.7546771E-02  0.1005450E+00
          4   -1    0    0  502    0  0.00000000000E+00  0.00000000000E+00  0.16155499806E+03  0.16155499806E+03  0.00000000000E+00 0. -1.
         -4   -1    0    0    0  501 -0.00000000000E+00 -0.00000000000E+00 -0.58826080530E+03  0.58826080530E+03  0.00000000000E+00 0.  1.
         25    1    1    2    0    0  0.26703105723E+02 -0.22019347337E+03 -0.28459978484E+03  0.38186418935E+03  0.12500000000E+03 0.  0.
         21    1    1    2  502  503 -0.72071248932E+02 -0.14941028668E+02 -0.10100617053E+03  0.12497898121E+03  0.00000000000E+00 0. -1.
         21    1    1    2  503  501  0.45368143209E+02  0.23513450204E+03 -0.41099851859E+02  0.24297263280E+03  0.00000000000E+00 0. -1.
<mgrwt>
<rscale>  4 0.53323616E+03</rscale>
<asrwt>0</asrwt>
<pdfrwt beam="1">  1        4 0.24854615E-01 0.53323616E+03</pdfrwt>
<pdfrwt beam="2">  1       -4 0.90501661E-01 0.53323616E+03</pdfrwt>
<totfact> 0.31508042E+01</totfact>
</mgrwt>
</event>
<event>
 5    0  0.2754780E-002  0.4861192E+03  0.7546771E-02  0.1017467E+00
         -4   -1    0    0    0  501 -0.00000000000E+00  0.00000000000E+00  0.38267856124E+03  0.38267856124E+03  0.00000000000E+00 0. -1.
          4   -1    0    0  502    0  0.00000000000E+00 -0.00000000000E+00 -0.24307586221E+03  0.24307586221E+03  0.00000000000E+00 0.  1.
         25    1    1    2    0    0  0.14174707572E+03  0.15959006841E+03  0.57253550236E+02  0.25389799610E+03  0.12500000000E+03 0.  0.
         21    1    1    2  502  503 -0.18725540515E+03 -0.13049188384E+03  0.15894510908E+03  0.27812994482E+03  0.00000000000E+00 0.  1.
         21    1    1    2  503  501  0.45508329426E+02 -0.29098184565E+02 -0.76595960292E+02  0.93726482518E+02  0.00000000000E+00 0. -1.
<mgrwt>
<rscale>  4 0.48611919E+03</rscale>
<asrwt>0</asrwt>
<pdfrwt beam="1">  1        4 0.37396287E-01 0.48611919E+03</pdfrwt>
<pdfrwt beam="2">  1       -4 0.58873625E-01 0.48611919E+03</pdfrwt>
<totfact> 0.36989279E+01</totfact>
</mgrwt>
</event>
<event>
 5    0  0.2754780E-002  0.6929522E+03  0.7546771E-02  0.9729361E-01
         -1   -1    0    0    0  501 -0.00000000000E+00  0.00000000000E+00  0.76763238141E+03  0.76763238141E+03  0.00000000000E+00 0. -1.
          1   -1    0    0  503    0  0.00000000000E+00 -0.00000000000E+00 -0.17133627043E+03  0.17133627043E+03  0.00000000000E+00 0.  1.
         25    1    1    2    0    0 -0.93305623930E+02  0.32895942420E+03  0.35469153789E+03  0.50828272573E+03  0.12500000000E+03 0.  0.
         21    1    1    2  502  501  0.19423706261E+02 -0.11020914155E+02 -0.33538229882E+01  0.22582936974E+02  0.00000000000E+00 0.  1.
         21    1    1    2  503  502  0.73881917668E+02 -0.31793851004E+03  0.24495839609E+03  0.40810298913E+03  0.00000000000E+00 0.  1.
<mgrwt>
<rscale>  4 0.69295219E+03</rscale>
<asrwt>0</asrwt>
<pdfrwt beam="1">  1        1 0.26359427E-01 0.69295219E+03</pdfrwt>
<pdfrwt beam="2">  1       -1 0.11809729E+00 0.69295219E+03</pdfrwt>
<totfact> 0.11935707E+02</totfact>
</mgrwt>
</event>
<event>
 5    0  0.2754780E-002  0.1149094E+04  0.7546771E-02  0.9158619E-01
         -2   -1    0    0    0  501 -0.00000000000E+00  0.00000000000E+00  0.54252458814E+03  0.54252458814E+03  0.00000000000E+00 0.  1.
          2   -1    0    0  503    0  0.00000000000E+00 -0.00000000000E+00 -0.67829290763E+03  0.67829290763E+03  0.00000000000E+00 0. -1.
         25    1    1    2    0    0  0.52358278230E+03  0.14498739866E+01 -0.21135235483E+03  0.57830428837E+03  0.12500000000E+03 0.  0.
         21    1    1    2  502  501  0.33918009471E+02  0.18151496962E+02 -0.57340730732E+02  0.69049747352E+02  0.00000000000E+00 0.  1.
         21    1    1    2  503  502 -0.55750079177E+03 -0.19601370948E+02  0.13292476607E+03  0.57346346004E+03  0.00000000000E+00 0. -1.
<mgrwt>
<rscale>  4 0.11490945E+04</rscale>
<asrwt>0</asrwt>
<pdfrwt beam="1">  1        2 0.10435275E+00 0.11490945E+04</pdfrwt>
<pdfrwt beam="2">  1       -2 0.83465322E-01 0.11490945E+04</pdfrwt>
<totfact> 0.52973604E+01</totfact>
</mgrwt>
</event>
<event>
 5    0  0.2754780E-002  0.5060707E+03  0.7546771E-02  0.1012206E+00
         -2   -1    0    0    0  501 -0.00000000000E+00  0.00000000000E+00  0.31536537020E+02  0.31536537020E+02  0.00000000000E+00 0. -1.
          2   -1    0    0  503    0  0.00000000000E+00 -0.00000000000E+00 -0.25130270647E+04  0.25130270647E+04  0.00000000000E+00 0.  1.
         25    1    1    2    0    0 -0.85772962185E+02  0.20380790255E+03 -0.14918217137E+04  0.15132916730E+04  0.12500000000E+03 0.  0.
         21    1    1    2  502  501  0.20916203448E+02 -0.26431215365E+01 -0.46712203660E+03  0.46759755211E+03  0.00000000000E+00 0.  1.
         21    1    1    2  503  502  0.64856758737E+02 -0.20116478101E+03 -0.52254677740E+03  0.56367437661E+03  0.00000000000E+00 0. -1.
<mgrwt>
<rscale>  4 0.50607070E+03</rscale>
<asrwt>0</asrwt>
<pdfrwt beam="1">  1        2 0.38661968E+00 0.50607070E+03</pdfrwt>
<pdfrwt beam="2">  1       -2 0.48517733E-02 0.50607070E+03</pdfrwt>
<totfact> 0.78463781E+02</totfact>
</mgrwt>
</event>
<event>
 5    0  0.2754780E-002  0.7211062E+03  0.7546771E-02  0.9681803E-01
          1   -1    0    0  503    0  0.00000000000E+00  0.00000000000E+00  0.52127188159E+03  0.52127188159E+03  0.00000000000E+00 0. -1.
         -1   -1    0    0    0  501 -0.00000000000E+00 -0.00000000000E+00 -0.61670946760E+03  0.61670946760E+03  0.00000000000E+00 0.  1.
         25    1    1    2    0    0  0.64794984434E+02  0.27376420032E+03 -0.41469255727E+03  0.51646891915E+03  0.12500000000E+03 0.  0.
         21    1    1    2  502  501 -0.10576469328E+02  0.31742195429E+02  0.30926696394E+03  0.31107150891E+03  0.00000000000E+00 0.  1.
         21    1    1    2  503  502 -0.54218515106E+02 -0.30550639575E+03  0.99880073251E+01  0.31044092113E+03  0.00000000000E+00 0. -1.
<mgrwt>
<rscale>  4 0.72110617E+03</rscale>
<asrwt>0</asrwt>
<pdfrwt beam="1">  1        1 0.80195675E-01 0.72110617E+03</pdfrwt>
<pdfrwt beam="2">  1       -1 0.94878379E-01 0.72110617E+03</pdfrwt>
<totfact> 0.46016522E+01</totfact>
</mgrwt>
</event>
<event>
 5    0  0.2754780E-002  0.5292678E+03  0.7546771E-02  0.1006410E+00
          2   -1    0    0  503    0  0.00000000000E+00  0.00000000000E+00  0.48641891357E+03  0.48641891357E+03  0.00000000000E+00 0. -1.
         -2   -1    0    0    0  501 -0.00000000000E+00 -0.00000000000E+00 -0.22281251891E+03  0.22281251891E+03  0.00000000000E+00 0.  1.
         25    1    1    2    0    0  0.11227332929E+03  0.23314846482E+03 -0.27089848829E+02  0.28865613977E+03  0.12500000000E+03 0.  0.
         21    1    1    2  502  501 -0.17771775508E+02 -0.38961190990E+02  0.16549663350E+03  0.17094720269E+03  0.00000000000E+00 0. -1.
         21    1    1    2  503  502 -0.94501553778E+02 -0.19418727383E+03  0.12519960999E+03  0.24962809002E+03  0.00000000000E+00 0. -1.
<mgrwt>
<rscale>  4 0.52926778E+03</rscale>
<asrwt>0</asrwt>
<pdfrwt beam="1">  1        2 0.74833679E-01 0.52926778E+03</pdfrwt>
<pdfrwt beam="2">  1       -2 0.34278849E-01 0.52926778E+03</pdfrwt>
<totfact> 0.51197681E+02</totfact>
</mgrwt>
</event>
<event>
 5    0  0.2754780E-002  0.8013608E+03  0.7546771E-02  0.9558049E-01
          2   -1    0    0  502    0  0.00000000000E+00  0.00000000000E+00  0.23435930466E+04  0.23435930466E+04  0.00000000000E+00 0.  1.
         -2   -1    0    0    0  501 -0.00000000000E+00 -0.00000000000E+00 -0.88434161372E+02  0.88434161372E+02  0.00000000000E+00 0. -1.
         25    1    1    2    0    0 -0.38163233868E+03 -0.18210615217E+03  0.10064721355E+04  0.10988253055E+04  0.12500000000E+03 0.  0.
         21    1    1    2  502  503  0.32322335809E+03  0.12707793540E+03  0.11713489305E+04  0.12217530265E+04  0.00000000000E+00 0. -1.
         21    1    1    2  503  501  0.58408980594E+02  0.55028216771E+02  0.77337819292E+02  0.11144887594E+03  0.00000000000E+00 0. -1.
<mgrwt>
<rscale>  4 0.80136084E+03</rscale>
<asrwt>0</asrwt>
<pdfrwt beam="1">  1        2 0.36055273E+00 0.80136084E+03</pdfrwt>
<pdfrwt beam="2">  1       -2 0.13605257E-01 0.80136084E+03</pdfrwt>
<totfact> 0.18176581E+02</totfact>
</mgrwt>
</event>
<event>
 5    0  0.2754780E-002  0.4521613E+03  0.7546771E-02  0.1027079E+00
         -2   -1    0    0    0  501 -0.00000000000E+00  0.00000000000E+00  0.39425960858E+02  0.39425960858E+02  0.00000000000E+00 0. -1.
          2   -1    0    0  503    0  0.00000000000E+00 -0.00000000000E+00 -0.21105476087E+04  0.21105476087E+04  0.00000000000E+00 0.  1.
         25    1    1    2    0    0  0.23084191434E+03 -0.24628649603E+02 -0.11316823288E+04  0.11619915891E+04  0.12500000000E+03 0.  0.
         21    1    1    2  502  501 -0.90702245793E+02 -0.26131446717E+02 -0.69719862128E+03  0.70355928494E+03  0.00000000000E+00 0. -1.
         21    1    1    2  503  502 -0.14013966855E+03  0.50760096320E+02 -0.24224069771E+03  0.28442269548E+03  0.00000000000E+00 0. -1.
<mgrwt>
<rscale>  4 0.45216125E+03</rscale>
<asrwt>0</asrwt>
<pdfrwt beam="1">  1        2 0.32469963E+00 0.45216125E+03</pdfrwt>
<pdfrwt beam="2">  1       -2 0.60655325E-02 0.45216125E+03</pdfrwt>
<totfact> 0.92746460E+02</totfact>
</mgrwt>
</event>
<event>
 5    0  0.2754780E-002  0.5324180E+03  0.7546771E-02  0.1005647E+00
          1   -1    0    0  503    0  0.00000000000E+00  0.00000000000E+00  0.16154870357E+04  0.16154870357E+04  0.00000000000E+00 0. -1.
         -1   -1    0    0    0  501 -0.00000000000E+00 -0.00000000000E+00 -0.70333538556E+02  0.70333538556E+02  0.00000000000E+00 0.  1.
         25    1    1    2    0    0 -0.20723371377E+03 -0.11989055519E+03  0.68051912444E+03  0.73215492628E+03  0.12500000000E+03 0.  0.
         21    1    1    2  502  501 -0.13499065854E+02  0.42315313924E+02  0.59507326375E+03  0.59672858136E+03  0.00000000000E+00 0. -1.
         21    1    1    2  503  502  0.22073277963E+03  0.77575241269E+02  0.26956110890E+03  0.35693706657E+03  0.00000000000E+00 0.  1.
<mgrwt>
<rscale>  4 0.53241799E+03</rscale>
<asrwt>0</asrwt>
<pdfrwt beam="1">  1        1 0.24853644E+00 0.53241799E+03</pdfrwt>
<pdfrwt beam="2">  1       -1 0.10820546E-01 0.53241799E+03</pdfrwt>
<totfact> 0.31446866E+02</totfact>
</mgrwt>
</event>
<event>
 5    0  0.2754780E-002  0.5132044E+03  0.7546771E-02  0.1010389E+00
          1   -1    0    0  503    0  0.00000000000E+00  0.00000000000E+00  0.76636492413E+03  0.76636492413E+03  0.00000000000E+00 0. -1.
         -1   -1    0    0    0  501 -0.00000000000E+00 -0.00000000000E+00 -0.96232227917E+02  0.96232227917E+02  0.00000000000E+00 0.  1.
         25    1    1    2    0    0  0.12783173045E+02 -0.23449432311E+03  0.31038237276E+03  0.40879483168E+03  0.12500000000E+03 0.  0.
         21    1    1    2  502  501  0.27551910261E+02 -0.91216418189E+01  0.48166521047E+02  0.56234561066E+02  0.00000000000E+00 0.  1.
         21    1    1    2  503  502 -0.40335083306E+02  0.24361596493E+03  0.31158380240E+03  0.39756775930E+03  0.00000000000E+00 0. -1.
<mgrwt>
<rscale>  4 0.51320435E+03</rscale>
<asrwt>0</asrwt>
<pdfrwt beam="1">  1        1 0.11790229E+00 0.51320435E+03</pdfrwt>
<pdfrwt beam="2">  1       -1 0.14804959E-01 0.51320435E+03</pdfrwt>
<totfact> 0.80409741E+02</totfact>
</mgrwt>
</event>
<event>
 5    0  0.2754780E-002  0.7095746E+03  0.7546771E-02  0.9700997E-01
         -2   -1    0    0    0  501 -0.00000000000E+00  0.00000000000E+00  0.51636846605E+03  0.51636846605E+03  0.00000000000E+00 0.  1.
          2   -1    0    0  503    0  0.00000000000E+00 -0.00000000000E+00 -0.39033035051E+03  0.39033035051E+03  0.00000000000E+00 0. -1.
         25    1    1    2    0    0 -0.10240486481E+03  0.25996847237E+03 -0.14584799396E+03  0.33906784027E+03  0.12500000000E+03 0.  0.
         21    1    1    2  502  501  0.10893969912E+03 -0.84254311044E+02 -0.90530986897E+02  0.16481051715E+03  0.00000000000E+00 0.  1.
         21    1    1    2  503  502 -0.65348343117E+01 -0.17571416132E+03  0.36241709640E+03  0.40282045915E+03  0.00000000000E+00 0.  1.
<mgrwt>
<rscale>  4 0.70957457E+03</rscale>
<asrwt>0</asrwt>
<pdfrwt beam="1">  1        2 0.60050823E-01 0.70957457E+03</pdfrwt>
<pdfrwt beam="2">  1       -2 0.79441302E-01 0.70957457E+03</pdfrwt>
<totfact> 0.11619401E+02</totfact>
</mgrwt>
</event>
<event>
 5    0  0.2754780E-002  0.7595915E+03  0.7546771E-02  0.9620422E-01
         -2   -1    0    0    0  501 -0.00000000000E+00  0.00000000000E+00  0.23613881110E+03  0.23613881110E+03  0.00000000000E+00 0. -1.
          2   -1    0    0  502    0  0.00000000000E+00 -0.00000000000E+00 -0.67807933433E+03  0.67807933433E+03  0.00000000000E+00 0.  1.
         25    1    1    2    0    0  0.24528846843E+03 -0.21478613918E+03 -0.20220571072E+02  0.34976190448E+03  0.12500000000E+03 0.  0.
         21    1    1    2  502  503 -0.25529733980E+03  0.23367559930E+03 -0.36108546113E+03  0.50016370086E+03  0.00000000000E+00 0.  1.
         21    1    1    2  503  501  0.10008871364E+02 -0.18889460123E+02 -0.60634491020E+02  0.64292540088E+02  0.00000000000E+00 0.  1.
<mgrwt>
<rscale>  4 0.75959150E+03</rscale>
<asrwt>0</asrwt>
<pdfrwt beam="1">  1        2 0.10431990E+00 0.75959150E+03</pdfrwt>
<pdfrwt beam="2">  1       -2 0.36329048E-01 0.75959150E+03</pdfrwt>
<totfact> 0.30625208E+02</totfact>
</mgrwt>
</event>
<event>
 5    0  0.2754780E-002  0.1200884E+04  0.7546771E-02  0.9112083E-01
         -1   -1    0    0    0  501 -0.00000000000E+00  0.00000000000E+00  0.57441054993E+03  0.57441054993E+03  0.00000000000E+00 0. -1.
          1   -1    0    0  503    0  0.00000000000E+00 -0.00000000000E+00 -0.66498657051E+03  0.66498657051E+03  0.00000000000E+00 0.  1.
         25    1    1    2    0    0  0.19977624697E+03 -0.50096786944E+03  0.22118403618E+03  0.59617676315E+03  0.12500000000E+03 0.  0.
         21    1    1    2  502  501  0.12570656118E+02  0.30022306323E+02  0.10670211000E+02  0.34252206862E+02  0.00000000000E+00 0.  1.
         21    1    1    2  503  502 -0.21234690309E+03  0.47094556311E+03 -0.32243026776E+03  0.60896815043E+03  0.00000000000E+00 0.  1.
<mgrwt>
<rscale>  4 0.12008845E+04</rscale>
<asrwt>0</asrwt>
<pdfrwt beam="1">  1        1 0.10230563E+00 0.12008845E+04</pdfrwt>
<pdfrwt beam="2">  1       -1 0.88370854E-01 0.12008845E+04</pdfrwt>
<totfact> 0.36640900E+01</totfact>
</mgrwt>
</event>
<event>
 5    0  0.2754780E-002  0.6340444E+03  0.7546771E-02  0.9837188E-01
         -2   -1    0    0    0  501 -0.00000000000E+00  0.00000000000E+00  0.36174942551E+02  0.36174942551E+02  0.00000000000E+00 0. -1.
          2   -1    0    0  503    0  0.00000000000E+00 -0.00000000000E+00 -0.27782509007E+04  0.27782509007E+04  0.00000000000E+00 0.  1.
         25    1    1    2    0    0 -0.18047448283E+02  0.21233603199E+03 -0.46761646409E+03  0.52886903706E+03  0.12500000000E+03 0.  0.
         21    1    1    2  502  501 -0.18805294401E+02 -0.24914267662E+02 -0.46407424010E+03  0.46512284416E+03  0.00000000000E+00 0. -1.
         21    1    1    2  503  502  0.36852742684E+02 -0.18742176433E+03 -0.18103852540E+04  0.18204339620E+04  0.00000000000E+00 0. -1.
<mgrwt>
<rscale>  4 0.63404437E+03</rscale>
<asrwt>0</asrwt>
<pdfrwt beam="1">  1        2 0.42742339E+00 0.63404437E+03</pdfrwt>
<pdfrwt beam="2">  1       -2 0.55653735E-02 0.63404437E+03</pdfrwt>
<totfact> 0.44107946E+02</totfact>
</mgrwt>
</event>
<event>
 5    0  0.2754780E-002  0.4418532E+03  0.7546771E-02  0.1030180E+00
          2   -1    0    0  503    0  0.00000000000E+00  0.00000000000E+00  0.15485257966E+04  0.15485257966E+04  0.00000000000E+00 0. -1.
         -2   -1    0    0    0  501 -0.00000000000E+00 -0.00000000000E+00 -0.12999050052E+03  0.12999050052E+03  0.00000000000E+00 0.  1.
         25    1    1    2    0    0  0.33850653727E+02 -0.21029079277E+03  0.18679796911E+03  0.30965555953E+03  0.12500000000E+03 0.  0.
         21    1    1    2  502  501 -0.56295985546E+02  0.24231518107E+02  0.11699142211E+04  0.11715185398E+04  0.00000000000E+00 0. -1.
         21    1    1    2  503  502  0.22445331818E+02  0.18605927466E+03  0.61823105923E+02  0.19734219781E+03  0.00000000000E+00 0.  1.
<mgrwt>
<rscale>  4 0.44185324E+03</rscale>
<asrwt>0</asrwt>
<pdfrwt beam="1">  1        2 0.23823472E+00 0.44185324E+03</pdfrwt>
<pdfrwt beam="2">  1       -2 0.19998540E-01 0.44185324E+03</pdfrwt>
<totfact> 0.26536110E+02</totfact>
</mgrwt>
</event>
<event>
 5    0  0.2754780E-002  0.5260118E+03  0.7546771E-02  0.1007204E+00
         -1   -1    0    0    0  501 -0.00000000000E+00  0.00000000000E+00  0.73282503424E+02  0.73282503424E+02  0.00000000000E+00 0. -1.
          1   -1    0    0  502    0  0.00000000000E+00 -0.00000000000E+00 -0.18272458027E+04  0.18272458027E+04  0.00000000000E+00 0.  1.
         25    1    1    2    0    0 -0.55519165929E+02  0.23467628200E+03 -0.26924386105E+03  0.38245599987E+03  0.12500000000E+03 0.  0.
         21    1    1    2  502  503  0.51387319305E+02 -0.19449662228E+03 -0.60787525613E+03  0.64029830523E+03  0.00000000000E+00 0.  1.
         21    1    1    2  503  501  0.41318466242E+01 -0.40179659723E+02 -0.87684418210E+03  0.87777400103E+03  0.00000000000E+00 0.  1.
<mgrwt>
<rscale>  4 0.52601181E+03</rscale>
<asrwt>0</asrwt>
<pdfrwt beam="1">  1        1 0.28111472E+00 0.52601181E+03</pdfrwt>
<pdfrwt beam="2">  1       -1 0.11274232E-01 0.52601181E+03</pdfrwt>
<totfact> 0.21308769E+02</totfact>
</mgrwt>
</event>
<event>
 5    0  0.2754780E-002  0.4290329E+03  0.7546771E-02  0.1034166E+00
          2   -1    0    0  502    0  0.00000000000E+00  0.00000000000E+00  0.10016580393E+04  0.10016580393E+04  0.00000000000E+00 0.  1.
         -2   -1    0    0    0  501 -0.00000000000E+00 -0.00000000000E+00 -0.64620741417E+02  0.64620741417E+02  0.00000000000E+00 0. -1.
         25    1    1    2    0    0  0.13214292174E+02 -0.20001611476E+03  0.28173704354E+03  0.36767081117E+03  0.12500000000E+03 0.  0.
         21    1    1    2  502  503 -0.15412270652E+01  0.18253314985E+03  0.37043684768E+03  0.41296995568E+03  0.00000000000E+00 0. -1.
         21    1    1    2  503  501 -0.11673065109E+02  0.17482964910E+02  0.28486340662E+03  0.28563801383E+03  0.00000000000E+00 0.  1.
<mgrwt>
<rscale>  4 0.42903289E+03</rscale>
<asrwt>0</asrwt>
<pdfrwt beam="1">  1        2 0.15410123E+00 0.42903289E+03</pdfrwt>
<pdfrwt beam="2">  1       -2 0.99416532E-02 0.42903289E+03</pdfrwt>
<totfact> 0.17537638E+03</totfact>
</mgrwt>
</event>
<event>
 5    0  0.2754780E-002  0.6272587E+03  0.7546771E-02  0.9850413E-01
         -1   -1    0    0    0  501 -0.00000000000E+00  0.00000000000E+00  0.38956904985E+03  0.38956904985E+03  0.00000000000E+00 0. -1.
          1   -1    0    0  503    0  0.00000000000E+00 -0.00000000000E+00 -0.48277183905E+03  0.48277183905E+03  0.00000000000E+00 0.  1.
         25    1    1    2    0    0 -0.69683745075E+02  0.28958228148E+03  0.22198217003E+03  0.39193724739E+03  0.12500000000E+03 0.  0.
         21    1    1    2  502  501  0.16376846357E+02 -0.65611779192E+02 -0.22193448600E+03  0.23200866954E+03  0.00000000000E+00 0.  1.
         21    1    1    2  503  502  0.53306898718E+02 -0.22397050229E+03 -0.93250473227E+02  0.24839497198E+03  0.00000000000E+00 0.  1.
<mgrwt>
<rscale>  4 0.62725872E+03</rscale>
<asrwt>0</asrwt>
<pdfrwt beam="1">  1        1 0.74272590E-01 0.62725872E+03</pdfrwt>
<pdfrwt beam="2">  1       -1 0.59933700E-01 0.62725872E+03</pdfrwt>
<totfact> 0.13447200E+02</totfact>
</mgrwt>
</event>
<event>
 5    0  0.2754780E-002  0.6979845E+03  0.7546771E-02  0.9720685E-01
          3   -1    0    0  502    0  0.00000000000E+00  0.00000000000E+00  0.83833656206E+03  0.83833656206E+03  0.00000000000E+00 0.  1.
         -3   -1    0    0    0  501 -0.00000000000E+00 -0.00000000000E+00 -0.16670865594E+03  0.16670865594E+03  0.00000000000E+00 0. -1.
         25    1    1    2    0    0 -0.62653352032E+02  0.22660029238E+03  0.58946766168E+03  0.64681547539E+03  0.12500000000E+03 0.  0.
         21    1    1    2  502  503  0.57617713478E+02 -0.24653888982E+03 -0.20046567957E+02  0.25397458531E+03  0.00000000000E+00 0. -1.
         21    1    1    2  503  501  0.50356385539E+01  0.19938597436E+02  0.10220681240E+03  0.10425515730E+03  0.00000000000E+00 0.  1.
<mgrwt>
<rscale>  4 0.69798449E+03</rscale>
<asrwt>0</asrwt>
<pdfrwt beam="1">  1        3 0.12897485E+00 0.69798449E+03</pdfrwt>
<pdfrwt beam="2">  1       -3 0.25647486E-01 0.69798449E+03</pdfrwt>
<totfact> 0.18206215E+01</totfact>
</mgrwt>
</event>
<event>
 5    0  0.2754780E-002  0.8323605E+03  0.7546771E-02  0.9514323E-01
         -2   -1    0    0    0  501 -0.00000000000E+00  0.00000000000E+00  0.12568547831E+03  0.12568547831E+03  0.00000000000E+00 0. -1.
          2   -1    0    0  502    0  0.00000000000E+00 -0.00000000000E+00 -0.13780908616E+04  0.13780908616E+04  0.00000000000E+00 0.  1.
         25    1    1    2    0    0 -0.22564070364E+02 -0.29075262072E+03 -0.13033483554E+03  0.34301369226E+03  0.12500000000E+03 0.  0.
         21    1    1    2  502  503  0.21252112437E+02  0.26906755264E+03 -0.95923230808E+03  0.99648162103E+03  0.00000000000E+00 0.  1.
         21    1    1    2  503  501  0.13119579266E+01  0.21685068073E+02 -0.16283823969E+03  0.16428102665E+03  0.00000000000E+00 0.  1.
<mgrwt>
<rscale>  4 0.83236052E+03</rscale>
<asrwt>0</asrwt>
<pdfrwt beam="1">  1        2 0.21201398E+00 0.83236052E+03</pdfrwt>
<pdfrwt beam="2">  1       -2 0.19336227E-01 0.83236052E+03</pdfrwt>
<totfact> 0.33939672E+02</totfact>
</mgrwt>
</event>
<event>
 5    0  0.2754780E-002  0.1439419E+04  0.7546771E-02  0.8925769E-01
          2   -1    0    0  503    0  0.00000000000E+00  0.00000000000E+00  0.12734838641E+04  0.12734838641E+04  0.00000000000E+00 0. -1.
         -2   -1    0    0    0  501 -0.00000000000E+00 -0.00000000000E+00 -0.40674372049E+03  0.40674372049E+03  0.00000000000E+00 0.  1.
         25    1    1    2    0    0  0.33195539023E+01 -0.42713901860E+03 -0.22996798566E+03  0.50096809786E+03  0.12500000000E+03 0.  0.
         21    1    1    2  502  501 -0.11629089338E+02  0.17930027915E+02  0.90573711666E+02  0.93060834215E+02  0.00000000000E+00 0. -1.
         21    1    1    2  503  502  0.83095354354E+01  0.40920899068E+03  0.10061344176E+04  0.10861986525E+04  0.00000000000E+00 0. -1.
<mgrwt>
<rscale>  4 0.14394187E+04</rscale>
<asrwt>0</asrwt>
<pdfrwt beam="1">  1        2 0.19592059E+00 0.14394187E+04</pdfrwt>
<pdfrwt beam="2">  1       -2 0.62575958E-01 0.14394187E+04</pdfrwt>
<totfact> 0.39383088E+01</totfact>
</mgrwt>
</event>
<event>
 5    0  0.2754780E-002  0.5526080E+03  0.7546771E-02  0.1000892E+00
          1   -1    0    0  503    0  0.00000000000E+00  0.00000000000E+00  0.19100727031E+04  0.19100727031E+04  0.00000000000E+00 0.  1.
         -1   -1    0    0    0  501 -0.00000000000E+00 -0.00000000000E+00 -0.39969109794E+02  0.39969109794E+02  0.00000000000E+00 0. -1.
         25    1    1    2    0    0  0.22387364789E+03 -0.10014951568E+03  0.84753931203E+03  0.89112132796E+03  0.12500000000E+03 0.  0.
         21    1    1    2  502  501 -0.87487339350E+02 -0.20070482696E+02  0.42198747084E+03  0.43142819144E+03  0.00000000000E+00 0. -1.
         21    1    1    2  503  502 -0.13638630854E+03  0.12021999837E+03  0.60057681047E+03  0.62749229353E+03  0.00000000000E+00 0.  1.
<mgrwt>
<rscale>  4 0.55260802E+03</rscale>
<asrwt>0</asrwt>
<pdfrwt beam="1">  1        1 0.29385727E+00 0.55260802E+03</pdfrwt>
<pdfrwt beam="2">  1       -1 0.61490953E-02 0.55260802E+03</pdfrwt>
<totfact> 0.48230657E+02</totfact>
</mgrwt>
</event>
<event>
 5    0  0.2754780E-002  0.5636966E+03  0.7546771E-02  0.9983725E-01
         -1   -1    0    0    0  501 -0.00000000000E+00  0.00000000000E+00  0.40262104136E+03  0.40262104136E+03  0.00000000000E+00 0. -1.
          1   -1    0    0  502    0  0.00000000000E+00 -0.00000000000E+00 -0.29815412263E+03  0.29815412263E+03  0.00000000000E+00 0.  1.
         25    1    1    2    0    0 -0.20692227664E+03  0.14705400216E+03  0.19794980212E+03  0.34532713806E+03  0.12500000000E+03 0.  0.
         21    1    1    2  502  503  0.22027478622E+03 -0.12598331387E+03  0.50489610888E+01  0.25380754288E+03  0.00000000000E+00 0.  1.
         21    1    1    2  503  501 -0.13352509581E+02 -0.21070688289E+02 -0.98531844484E+02  0.10164048305E+03  0.00000000000E+00 0. -1.
<mgrwt>
<rscale>  4 0.56369661E+03</rscale>
<asrwt>0</asrwt>
<pdfrwt beam="1">  1        1 0.45869865E-01 0.56369661E+03</pdfrwt>
<pdfrwt beam="2">  1       -1 0.61941698E-01 0.56369661E+03</pdfrwt>
<totfact> 0.23842533E+02</totfact>
</mgrwt>
</event>
<event>
 5    0  0.2754780E-002  0.7376184E+03  0.7546771E-02  0.9654978E-01
          2   -1    0    0  502    0  0.00000000000E+00  0.00000000000E+00  0.10277518870E+04  0.10277518870E+04  0.00000000000E+00 0.  1.
         -2   -1    0    0    0  501 -0.00000000000E+00 -0.00000000000E+00 -0.15055854253E+03  0.15055854253E+03  0.00000000000E+00 0. -1.
         25    1    1    2    0    0 -0.31186140299E+03  0.70966331160E+02  0.23056173667E+03  0.41361512212E+03  0.12500000000E+03 0.  0.
         21    1    1    2  502  503  0.35475044191E+03 -0.79402539705E+02  0.55974579158E+03  0.66743388478E+03  0.00000000000E+00 0.  1.
         21    1    1    2  503  501 -0.42889038927E+02  0.84362085455E+01  0.86885816238E+02  0.97261422661E+02  0.00000000000E+00 0. -1.
<mgrwt>
<rscale>  4 0.73761844E+03</rscale>
<asrwt>0</asrwt>
<pdfrwt beam="1">  1        2 0.15811567E+00 0.73761844E+03</pdfrwt>
<pdfrwt beam="2">  1       -2 0.23162853E-01 0.73761844E+03</pdfrwt>
<totfact> 0.40062617E+02</totfact>
</mgrwt>
</event>
<event>
 5    0  0.2754780E-002  0.4680524E+03  0.7546771E-02  0.1022471E+00
         -2   -1    0    0    0  501 -0.00000000000E+00  0.00000000000E+00  0.56573353106E+02  0.56573353106E+02  0.00000000000E+00 0. -1.
          2   -1    0    0  502    0  0.00000000000E+00 -0.00000000000E+00 -0.30406805159E+04  0.30406805159E+04  0.00000000000E+00 0.  1.
         25    1    1    2    0    0  0.41344265146E+02  0.21366825966E+03 -0.58474148451E+03  0.63632623485E+03  0.12500000000E+03 0.  0.
         21    1    1    2  502  503 -0.75332820044E+02 -0.19613162954E+03 -0.32998786595E+03  0.39119642324E+03  0.00000000000E+00 0.  1.
         21    1    1    2  503  501  0.33988554897E+02 -0.17536630120E+02 -0.20693778123E+04  0.20697312109E+04  0.00000000000E+00 0.  1.
<mgrwt>
<rscale>  4 0.46805238E+03</rscale>
<asrwt>0</asrwt>
<pdfrwt beam="1">  1        2 0.46779688E+00 0.46805238E+03</pdfrwt>
<pdfrwt beam="2">  1       -2 0.87035951E-02 0.46805238E+03</pdfrwt>
<totfact> 0.15552931E+02</totfact>
</mgrwt>
</event>
<event>
 5    0  0.2754780E-002  0.1077959E+04  0.7546771E-02  0.9226945E-01
          2   -1    0    0  502    0  0.00000000000E+00  0.00000000000E+00  0.44527601785E+03  0.44527601785E+03  0.00000000000E+00 0. -1.
         -2   -1    0    0    0  501 -0.00000000000E+00 -0.00000000000E+00 -0.80719550908E+03  0.80719550908E+03  0.00000000000E+00 0.  1.
         25    1    1    2    0    0 -0.47105106809E+03 -0.27088172789E+03 -0.84961141672E+02  0.56401189247E+03  0.12500000000E+03 0.  0.
         21    1    1    2  502  503  0.42407086532E+03  0.23746440397E+03 -0.34740849551E+03  0.59742623370E+03  0.00000000000E+00 0.  1.
         21    1    1    2  503  501  0.46980202771E+02  0.33417323920E+02  0.70450145942E+02  0.91033400758E+02  0.00000000000E+00 0.  1.
<mgrwt>
<rscale>  4 0.10779587E+04</rscale>
<asrwt>0</asrwt>
<pdfrwt beam="1">  1        2 0.68504004E-01 0.10779587E+04</pdfrwt>
<pdfrwt beam="2">  1       -2 0.12418392E+00 0.10779587E+04</pdfrwt>
<totfact> 0.34041317E+01</totfact>
</mgrwt>
</event>
<event>
 5    0  0.2754780E-002  0.4369733E+03  0.7546771E-02  0.1031680E+00
          2   -1    0    0  503    0  0.00000000000E+00  0.00000000000E+00  0.20329563823E+04  0.20329563823E+04  0.00000000000E+00 0. -1.
         -2   -1    0    0    0  501 -0.00000000000E+00 -0.00000000000E+00 -0.34882756168E+02  0.34882756168E+02  0.00000000000E+00 0.  1.
         25    1    1    2    0    0  0.17783535342E+03  0.10883771700E+03  0.13218527844E+04  0.13440204036E+04  0.12500000000E+03 0.  0.
         21    1    1    2  502  501 -0.70134278875E+02 -0.47680556748E+02  0.50739826561E+03  0.51443683043E+03  0.00000000000E+00 0.  1.
         21    1    1    2  503  502 -0.10770107455E+03 -0.61157160249E+02  0.16882257609E+03  0.20938190443E+03  0.00000000000E+00 0.  1.
<mgrwt>
<rscale>  4 0.43697334E+03</rscale>
<asrwt>0</asrwt>
<pdfrwt beam="1">  1        2 0.31276243E+00 0.43697334E+03</pdfrwt>
<pdfrwt beam="2">  1       -2 0.53665795E-02 0.43697334E+03</pdfrwt>
<totfact> 0.12362435E+03</totfact>
</mgrwt>
</event>
<event>
 5    0  0.2754780E-002  0.4528098E+03  0.7546771E-02  0.1026887E+00
         -1   -1    0    0    0  501 -0.00000000000E+00  0.00000000000E+00  0.33488782078E+02  0.33488782078E+02  0.00000000000E+00 0. -1.
          1   -1    0    0  502    0  0.00000000000E+00 -0.00000000000E+00 -0.24271382616E+04  0.24271382616E+04  0.00000000000E+00 0.  1.
         25    1    1    2    0    0 -0.19555832076E+03  0.14691802934E+03 -0.94099110083E+03  0.98026385020E+03  0.12500000000E+03 0.  0.
         21    1    1    2  502  503  0.11287421758E+03 -0.13727672071E+03 -0.66573338263E+03  0.68904747572E+03  0.00000000000E+00 0.  1.
         21    1    1    2  503  501  0.82684103185E+02 -0.96413086268E+01 -0.78692499605E+03  0.79131571775E+03  0.00000000000E+00 0.  1.
<mgrwt>
<rscale>  4 0.45280982E+03</rscale>
<asrwt>0</asrwt>
<pdfrwt beam="1">  1        1 0.37340594E+00 0.45280982E+03</pdfrwt>
<pdfrwt beam="2">  1       -1 0.51521196E-02 0.45280982E+03</pdfrwt>
<totfact> 0.28944486E+02</totfact>
</mgrwt>
</event>
<event>
 5    0  0.2754780E-002  0.5062594E+03  0.7546771E-02  0.1012158E+00
          1   -1    0    0  503    0  0.00000000000E+00  0.00000000000E+00  0.60789492419E+03  0.60789492419E+03  0.00000000000E+00 0. -1.
         -1   -1    0    0    0  501 -0.00000000000E+00 -0.00000000000E+00 -0.32274034234E+03  0.32274034234E+03  0.00000000000E+00 0.  1.
         25    1    1    2    0    0 -0.59632938889E+02  0.21196396308E+03 -0.15142382007E+02  0.25365153415E+03  0.12500000000E+03 0.  0.
         21    1    1    2  502  501 -0.59780010233E+00  0.25005199425E+02  0.40874409726E+03  0.40950867440E+03  0.00000000000E+00 0. -1.
         21    1    1    2  503  502  0.60230738992E+02 -0.23696916251E+03 -0.10844713341E+03  0.26747505798E+03  0.00000000000E+00 0.  1.
<mgrwt>
<rscale>  4 0.50625938E+03</rscale>
<asrwt>0</asrwt>
<pdfrwt beam="1">  1        1 0.93522296E-01 0.50625938E+03</pdfrwt>
<pdfrwt beam="2">  1       -1 0.49652360E-01 0.50625938E+03</pdfrwt>
<totfact> 0.14139883E+02</totfact>
</mgrwt>
</event>
<event>
 5    0  0.2754780E-002  0.7890095E+03  0.7546771E-02  0.9576063E-01
          2   -1    0    0  502    0  0.00000000000E+00  0.00000000000E+00  0.17324734872E+04  0.17324734872E+04  0.00000000000E+00 0.  1.
         -2   -1    0    0    0  501 -0.00000000000E+00 -0.00000000000E+00 -0.10938523450E+03  0.10938523450E+03  0.00000000000E+00 0. -1.
         25    1    1    2    0    0  0.29055786738E+02 -0.27725511066E+03  0.12386236828E+04  0.12757461592E+04  0.12500000000E+03 0.  0.
         21    1    1    2  502  503 -0.75892394069E+02  0.25381920383E+03  0.11026031817E+03  0.28695153158E+03  0.00000000000E+00 0. -1.
         21    1    1    2  503  501  0.46836607330E+02  0.23435906822E+02  0.27420425173E+03  0.27916103091E+03  0.00000000000E+00 0. -1.
<mgrwt>
<rscale>  4 0.78900952E+03</rscale>
<asrwt>0</asrwt>
<pdfrwt beam="1">  1        2 0.26653436E+00 0.78900952E+03</pdfrwt>
<pdfrwt beam="2">  1       -2 0.16828499E-01 0.78900952E+03</pdfrwt>
<totfact> 0.27489284E+02</totfact>
</mgrwt>
</event>
<event>
 5    0  0.2754780E-002  0.8852182E+03  0.7546771E-02  0.9444250E-01
         -2   -1    0    0    0  501 -0.00000000000E+00  0.00000000000E+00  0.15186277956E+03  0.15186277956E+03  0.00000000000E+00 0. -1.
          2   -1    0    0  502    0  0.00000000000E+00 -0.00000000000E+00 -0.14841880450E+04  0.14841880450E+04  0.00000000000E+00 0.  1.
         25    1    1    2    0    0 -0.22566393272E+03  0.24634005296E+03 -0.10651691130E+04  0.11233066685E+04  0.12500000000E+03 0.  0.
         21    1    1    2  502  503  0.22550645102E+03 -0.22007414586E+03 -0.81806702230E+02  0.32554281693E+03  0.00000000000E+00 0. -1.
         21    1    1    2  503  501  0.15748170161E+00 -0.26265907098E+02 -0.18534945019E+03  0.18720133910E+03  0.00000000000E+00 0. -1.
<mgrwt>
<rscale>  4 0.88521823E+03</rscale>
<asrwt>0</asrwt>
<pdfrwt beam="1">  1        2 0.22833663E+00 0.88521823E+03</pdfrwt>
<pdfrwt beam="2">  1       -2 0.23363503E-01 0.88521823E+03</pdfrwt>
<totfact> 0.21091013E+02</totfact>
</mgrwt>
</event>
<event>
 5    0  0.2754780E-002  0.5691392E+03  0.7546771E-02  0.9971585E-01
          2   -1    0    0  503    0  0.00000000000E+00  0.00000000000E+00  0.40776582202E+03  0.40776582202E+03  0.00000000000E+00 0. -1.
         -2   -1    0    0    0  501 -0.00000000000E+00 -0.00000000000E+00 -0.31118865884E+03  0.31118865884E+03  0.00000000000E+00 0.  1.
         25    1    1    2    0    0 -0.22801403968E+03  0.16600295194E+03 -0.29689330556E+02  0.30992553733E+03  0.12500000000E+03 0.  0.
         21    1    1    2  502  501  0.32816321008E+02  0.66281888022E+01  0.14400222683E+03  0.14784277169E+03  0.00000000000E+00 0.  1.
         21    1    1    2  503  502  0.19519771867E+03 -0.17263114074E+03 -0.17735733093E+02  0.26118617183E+03  0.00000000000E+00 0.  1.
<mgrwt>
<rscale>  4 0.56913922E+03</rscale>
<asrwt>0</asrwt>
<pdfrwt beam="1">  1        2 0.62733203E-01 0.56913922E+03</pdfrwt>
<pdfrwt beam="2">  1       -2 0.47875178E-01 0.56913922E+03</pdfrwt>
<totfact> 0.32586916E+02</totfact>
</mgrwt>
</event>
<event>
 5    0  0.2754780E-002  0.4781961E+03  0.7546771E-02  0.1019632E+00
         -1   -1    0    0    0  501 -0.00000000000E+00  0.00000000000E+00  0.13408320733E+03  0.13408320733E+03  0.00000000000E+00 0.  1.
          1   -1    0    0  502    0  0.00000000000E+00 -0.00000000000E+00 -0.64371839475E+03  0.64371839475E+03  0.00000000000E+00 0. -1.
         25    1    1    2    0    0  0.23276769878E+03  0.37502116015E+02 -0.15689800064E+03  0.30956290622E+03  0.12500000000E+03 0.  0.
         21    1    1    2  502  503 -0.17278582808E+03 -0.11277430245E+03 -0.19772538604E+03  0.28577668547E+03  0.00000000000E+00 0.  1.
         21    1    1    2  503  501 -0.59981870707E+02  0.75272186433E+02 -0.15501180075E+03  0.18246201039E+03  0.00000000000E+00 0. -1.
<mgrwt>
<rscale>  4 0.47819607E+03</rscale>
<asrwt>0</asrwt>
<pdfrwt beam="1">  1        1 0.99033598E-01 0.47819607E+03</pdfrwt>
<pdfrwt beam="2">  1       -1 0.20628186E-01 0.47819607E+03</pdfrwt>
<totfact> 0.60779623E+02</totfact>
</mgrwt>
</event>
<event>
 5    0  0.2754780E-002  0.4864619E+03  0.7546771E-02  0.1017374E+00
          2   -1    0    0  503    0  0.00000000000E+00  0.00000000000E+00  0.92318567808E+03  0.92318567808E+03  0.00000000000E+00 0. -1.
         -2   -1    0    0    0  501 -0.00000000000E+00 -0.00000000000E+00 -0.92515095489E+02  0.92515095489E+02  0.00000000000E+00 0.  1.
         25    1    1    2    0    0 -0.57143071061E+01  0.20368434954E+03  0.38245269461E+03  0.45101555535E+03  0.12500000000E+03 0.  0.
         21    1    1    2  502  501 -0.10887161896E+02  0.24498568442E+02  0.27858598440E+03  0.27987293698E+03  0.00000000000E+00 0.  1.
         21    1    1    2  503  502  0.16601469002E+02 -0.22818291798E+03  0.16963190358E+03  0.28481228124E+03  0.00000000000E+00 0. -1.
<mgrwt>
<rscale>  4 0.48646192E+03</rscale>
<asrwt>0</asrwt>
<pdfrwt beam="1">  1        2 0.14202856E+00 0.48646192E+03</pdfrwt>
<pdfrwt beam="2">  1       -2 0.14233092E-01 0.48646192E+03</pdfrwt>
<totfact> 0.10924709E+03</totfact>
</mgrwt>
</event>
<event>
 5    0  0.2754780E-002  0.6191006E+03  0.7546771E-02  0.9866552E-01
         -2   -1    0    0    0  501 -0.00000000000E+00  0.00000000000E+00  0.55920091194E+03  0.55920091194E+03  0.00000000000E+00 0.  1.
          2   -1    0    0  502    0  0.00000000000E+00 -0.00000000000E+00 -0.64432598402E+03  0.64432598402E+03  0.00000000000E+00 0. -1.
         25    1    1    2    0    0  0.27990746269E+03  0.22527927400E+02  0.15621016977E+03  0.34479314425E+03  0.12500000000E+03 0.  0.
         21    1    1    2  502  503 -0.30828133911E+03 -0.12364070618E+02  0.23100903253E+03  0.38542888760E+03  0.00000000000E+00 0.  1.
         21    1    1    2  503  501  0.28373876419E+02 -0.10163856782E+02 -0.47234427438E+03  0.47330486411E+03  0.00000000000E+00 0. -1.
<mgrwt>
<rscale>  4 0.61910056E+03</rscale>
<asrwt>0</asrwt>
<pdfrwt beam="1">  1        2 0.99127075E-01 0.61910056E+03</pdfrwt>
<pdfrwt beam="2">  1       -2 0.86030909E-01 0.61910056E+03</pdfrwt>
<totfact> 0.54500306E+01</totfact>
</mgrwt>
</event>
<event>
 5    0  0.2754780E-002  0.8187159E+03  0.7546771E-02  0.9533315E-01
         -1   -1    0    0    0  501 -0.00000000000E+00  0.00000000000E+00  0.13981816855E+03  0.13981816855E+03  0.00000000000E+00 0.  1.
          1   -1    0    0  502    0  0.00000000000E+00 -0.00000000000E+00 -0.15465120639E+04  0.15465120639E+04  0.00000000000E+00 0. -1.
         25    1    1    2    0    0 -0.15184814812E+03  0.13565556484E+03 -0.11756831015E+04  0.11997149860E+04  0.12500000000E+03 0.  0.
         21    1    1    2  502  503  0.12763046244E+03 -0.71926024132E+02  0.80890141656E+02  0.16735024024E+03  0.00000000000E+00 0.  1.
         21    1    1    2  503  501  0.24217685681E+02 -0.63729540708E+02 -0.31190093547E+03  0.31926500624E+03  0.00000000000E+00 0. -1.
<mgrwt>
<rscale>  4 0.81871589E+03</rscale>
<asrwt>0</asrwt>
<pdfrwt beam="1">  1        1 0.23792495E+00 0.81871589E+03</pdfrwt>
<pdfrwt beam="2">  1       -1 0.21510486E-01 0.81871589E+03</pdfrwt>
<totfact> 0.11167569E+02</totfact>
</mgrwt>
</event>
<event>
 5    0  0.2754780E-002  0.1019438E+04  0.7546771E-02  0.9287479E-01
         -1   -1    0    0    0  501 -0.00000000000E+00  0.00000000000E+00  0.30572627339E+03  0.30572627339E+03  0.00000000000E+00 0. -1.
          1   -1    0    0  503    0  0.00000000000E+00 -0.00000000000E+00 -0.10730109995E+04  0.10730109995E+04  0.00000000000E+00 0.  1.
         25    1    1    2    0    0 -0.22481990798E+03  0.47179741588E+03 -0.54610353125E+03  0.76615328720E+03  0.12500000000E+03 0.  0.
         21    1    1    2  502  501  0.19521216162E+03 -0.36829110124E+03 -0.63473094863E+02  0.42163367639E+03  0.00000000000E+00 0.  1.
         21    1    1    2  503  502  0.29607746354E+02 -0.10350631464E+03 -0.15770810001E+03  0.19095030930E+03  0.00000000000E+00 0.  1.
<mgrwt>
<rscale>  4 0.10194382E+04</rscale>
<asrwt>0</asrwt>
<pdfrwt beam="1">  1        1 0.16507861E+00 0.10194382E+04</pdfrwt>
<pdfrwt beam="2">  1       -1 0.47034812E-01 0.10194382E+04</pdfrwt>
<totfact> 0.59972790E+01</totfact>
</mgrwt>
</event>
<event>
 5    0  0.2754780E-002  0.6057440E+03  0.7546771E-02  0.9893560E-01
         -1   -1    0    0    0  501 -0.00000000000E+00  0.00000000000E+00  0.79661161548E+03  0.79661161548E+03  0.00000000000E+00 0.  1.
          1   -1    0    0  502    0  0.00000000000E+00 -0.00000000000E+00 -0.20568382332E+03  0.20568382332E+03  0.00000000000E+00 0. -1.
         25    1    1    2    0    0 -0.83391118644E+02  0.22303525757E+03  0.39378607933E+03  0.47685561867E+03  0.12500000000E+03 0.  0.
         21    1    1    2  502  503  0.16595883744E+03 -0.39322630741E+02  0.26306170722E+03  0.31351246677E+03  0.00000000000E+00 0. -1.
         21    1    1    2  503  501 -0.82567718791E+02 -0.18371262683E+03 -0.65919994386E+02  0.21192735336E+03  0.00000000000E+00 0. -1.
<mgrwt>
<rscale>  4 0.60574402E+03</rscale>
<asrwt>0</asrwt>
<pdfrwt beam="1">  1        1 0.31643666E-01 0.60574402E+03</pdfrwt>
<pdfrwt beam="2">  1       -1 0.12255563E+00 0.60574402E+03</pdfrwt>
<totfact> 0.86529705E+01</totfact>
</mgrwt>
</event>
<event>
 5    0  0.2754780E-002  0.5089053E+03  0.7546771E-02  0.1011480E+00
          2   -1    0    0  502    0  0.00000000000E+00  0.00000000000E+00  0.11989040591E+04  0.11989040591E+04  0.00000000000E+00 0.  1.
         -2   -1    0    0    0  501 -0.00000000000E+00 -0.00000000000E+00 -0.66413720209E+02  0.66413720209E+02  0.00000000000E+00 0. -1.
         25    1    1    2    0    0 -0.18355095991E+03  0.15864027623E+03  0.44565245806E+03  0.52257899451E+03  0.12500000000E+03 0.  0.
         21    1    1    2  502  503  0.19496030763E+03 -0.12798153734E+03  0.48373150172E+03  0.53701486125E+03  0.00000000000E+00 0. -1.
         21    1    1    2  503  501 -0.11409347723E+02 -0.30658738886E+02  0.20310637913E+03  0.20572392357E+03  0.00000000000E+00 0.  1.
<mgrwt>
<rscale>  4 0.50890529E+03</rscale>
<asrwt>0</asrwt>
<pdfrwt beam="1">  1        2 0.18444676E+00 0.50890529E+03</pdfrwt>
<pdfrwt beam="2">  1       -2 0.10217496E-01 0.50890529E+03</pdfrwt>
<totfact> 0.12742100E+03</totfact>
</mgrwt>
</event>
<event>
 5    0  0.2754780E-002  0.8116286E+03  0.7546771E-02  0.9543336E-01
          1   -1    0    0  502    0  0.00000000000E+00  0.00000000000E+00  0.18169054835E+04  0.18169054835E+04  0.00000000000E+00 0.  1.
         -1   -1    0    0    0  501 -0.00000000000E+00 -0.00000000000E+00 -0.10300137118E+03  0.10300137118E+03  0.00000000000E+00 0. -1.
         25    1    1    2    0    0 -0.63034570774E+02  0.37007657005E+03  0.64080810370E+03  0.75312020991E+03  0.12500000000E+03 0.  0.
         21    1    1    2  502  503  0.11189234074E+03 -0.38503607041E+03  0.10018755350E+04  0.10791326420E+04  0.00000000000E+00 0.  1.
         21    1    1    2  503  501 -0.48857769968E+02  0.14959500361E+02  0.71220473671E+02  0.87654002802E+02  0.00000000000E+00 0.  1.
<mgrwt>
<rscale>  4 0.81162860E+03</rscale>
<asrwt>0</asrwt>
<pdfrwt beam="1">  1        1 0.27952390E+00 0.81162860E+03</pdfrwt>
<pdfrwt beam="2">  1       -1 0.15846366E-01 0.81162860E+03</pdfrwt>
<totfact> 0.12174952E+02</totfact>
</mgrwt>
</event>
<event>
 5    0  0.2754780E-002  0.4785399E+03  0.7546771E-02  0.1019537E+00
          1   -1    0    0  503    0  0.00000000000E+00  0.00000000000E+00  0.44175324211E+03  0.44175324211E+03  0.00000000000E+00 0. -1.
         -1   -1    0    0    0  501 -0.00000000000E+00 -0.00000000000E+00 -0.14221839636E+03  0.14221839636E+03  0.00000000000E+00 0.  1.
         25    1    1    2    0    0 -0.19678193259E+02 -0.20367468475E+03  0.22611769273E+03  0.32958279607E+03  0.12500000000E+03 0.  0.
         21    1    1    2  502  501 -0.19146832272E+02 -0.11166202690E+02  0.19469052751E+02  0.29501343759E+02  0.00000000000E+00 0. -1.
         21    1    1    2  503  502  0.38825025531E+02  0.21484088744E+03  0.53948100262E+02  0.22488749865E+03  0.00000000000E+00 0. -1.
<mgrwt>
<rscale>  4 0.47853992E+03</rscale>
<asrwt>0</asrwt>
<pdfrwt beam="1">  1        1 0.67962037E-01 0.47853992E+03</pdfrwt>
<pdfrwt beam="2">  1       -1 0.21879754E-01 0.47853992E+03</pdfrwt>
<totfact> 0.92700685E+02</totfact>
</mgrwt>
</event>
<event>
 5    0  0.2754780E-002  0.4810101E+03  0.7546771E-02  0.1018858E+00
          2   -1    0    0  502    0  0.00000000000E+00  0.00000000000E+00  0.47627179509E+03  0.47627179509E+03  0.00000000000E+00 0. -1.
         -2   -1    0    0    0  501 -0.00000000000E+00 -0.00000000000E+00 -0.14659532575E+03  0.14659532575E+03  0.00000000000E+00 0.  1.
         25    1    1    2    0    0  0.20548516841E+03  0.28567438983E+02  0.17677749378E+03  0.29985919248E+03  0.12500000000E+03 0.  0.
         21    1    1    2  502  503 -0.22907788665E+03 -0.35188228114E+02  0.78532715397E+02  0.24470855510E+03  0.00000000000E+00 0.  1.
         21    1    1    2  503  501  0.23592718246E+02  0.66207891307E+01  0.74366260159E+02  0.78299373261E+02  0.00000000000E+00 0. -1.
<mgrwt>
<rscale>  4 0.48101011E+03</rscale>
<asrwt>0</asrwt>
<pdfrwt beam="1">  1        2 0.73272583E-01 0.48101011E+03</pdfrwt>
<pdfrwt beam="2">  1       -2 0.22553127E-01 0.48101011E+03</pdfrwt>
<totfact> 0.11255970E+03</totfact>
</mgrwt>
</event>
<event>
 5    0  0.2754780E-002  0.4902861E+03  0.7546771E-02  0.1016346E+00
         -1   -1    0    0    0  501 -0.00000000000E+00  0.00000000000E+00  0.42258321953E+02  0.42258321953E+02  0.00000000000E+00 0.  1.
          1   -1    0    0  502    0  0.00000000000E+00 -0.00000000000E+00 -0.15794888552E+04  0.15794888552E+04  0.00000000000E+00 0. -1.
         25    1    1    2    0    0  0.36772992866E+02  0.21990090146E+03 -0.89807573025E+03  0.93374176126E+03  0.12500000000E+03 0.  0.
         21    1    1    2  502  503 -0.61567071784E+02 -0.21765047139E+03 -0.53372990866E+03  0.57968081512E+03  0.00000000000E+00 0.  1.
         21    1    1    2  503  501  0.24794078918E+02 -0.22504300732E+01 -0.10542489433E+03  0.10832460076E+03  0.00000000000E+00 0.  1.
<mgrwt>
<rscale>  4 0.49028615E+03</rscale>
<asrwt>0</asrwt>
<pdfrwt beam="1">  1        1 0.24299824E+00 0.49028615E+03</pdfrwt>
<pdfrwt beam="2">  1       -1 0.65012814E-02 0.49028615E+03</pdfrwt>
<totfact> 0.73793329E+02</totfact>
</mgrwt>
</event>
<event>
 5    0  0.2754780E-002  0.9690064E+03  0.7546771E-02  0.9343207E-01
         -2   -1    0    0    0  501 -0.00000000000E+00  0.00000000000E+00  0.21441316303E+03  0.21441316303E+03  0.00000000000E+00 0. -1.
          2   -1    0    0  503    0  0.00000000000E+00 -0.00000000000E+00 -0.13958027655E+04  0.13958027655E+04  0.00000000000E+00 0.  1.
         25    1    1    2    0    0 -0.45400616556E+03  0.13293812222E+03 -0.59544963307E+03  0.77070059571E+03  0.12500000000E+03 0.  0.
         21    1    1    2  502  501  0.21747565134E+02  0.17316435531E+02 -0.29701150408E+03  0.29830965302E+03  0.00000000000E+00 0.  1.
         21    1    1    2  503  502  0.43225860043E+03 -0.15025455775E+03 -0.28892846532E+03  0.54120567979E+03  0.00000000000E+00 0. -1.
<mgrwt>
<rscale>  4 0.96900643E+03</rscale>
<asrwt>0</asrwt>
<pdfrwt beam="1">  1        2 0.21473889E+00 0.96900643E+03</pdfrwt>
<pdfrwt beam="2">  1       -2 0.32986640E-01 0.96900643E+03</pdfrwt>
<totfact> 0.12476660E+02</totfact>
</mgrwt>
</event>
<event>
 5    0  0.2754780E-002  0.4147661E+03  0.7546771E-02  0.1038783E+00
          1   -1    0    0  503    0  0.00000000000E+00  0.00000000000E+00  0.16417643008E+03  0.16417643008E+03  0.00000000000E+00 0. -1.
         -1   -1    0    0    0  501 -0.00000000000E+00 -0.00000000000E+00 -0.63048281935E+03  0.63048281935E+03  0.00000000000E+00 0.  1.
         25    1    1    2    0    0  0.22717234483E+03 -0.44861206594E+02 -0.33000924372E+03  0.42207926157E+03  0.12500000000E+03 0.  0.
         21    1    1    2  502  501 -0.76464085679E+02  0.60011131512E+02  0.67732372581E+02  0.11847264072E+03  0.00000000000E+00 0. -1.
         21    1    1    2  503  502 -0.15070825915E+03 -0.15149924919E+02 -0.20402951814E+03  0.25410734714E+03  0.00000000000E+00 0. -1.
<mgrwt>
<rscale>  4 0.41476612E+03</rscale>
<asrwt>0</asrwt>
<pdfrwt beam="1">  1        1 0.25257913E-01 0.41476612E+03</pdfrwt>
<pdfrwt beam="2">  1       -1 0.96997355E-01 0.41476612E+03</pdfrwt>
<totfact> 0.20261622E+02</totfact>
</mgrwt>
</event>
<event>
 5    0  0.2754780E-002  0.4260679E+03  0.7546771E-02  0.1035109E+00
          2   -1    0    0  503    0  0.00000000000E+00  0.00000000000E+00  0.14182693977E+03  0.14182693977E+03  0.00000000000E+00 0.  1.
         -2   -1    0    0    0  501 -0.00000000000E+00 -0.00000000000E+00 -0.92713268297E+03  0.92713268297E+03  0.00000000000E+00 0. -1.
         25    1    1    2    0    0  0.20103811817E+03 -0.53657565351E+02 -0.51380927097E+03  0.56826087866E+03  0.12500000000E+03 0.  0.
         21    1    1    2  502  501 -0.51071479939E+02 -0.51034047789E+02  0.77971117451E+02  0.10626507071E+03  0.00000000000E+00 0.  1.
         21    1    1    2  503  502 -0.14996663824E+03  0.10469161314E+03 -0.34946758968E+03  0.39443367337E+03  0.00000000000E+00 0. -1.
<mgrwt>
<rscale>  4 0.42606791E+03</rscale>
<asrwt>0</asrwt>
<pdfrwt beam="1">  1        2 0.21819529E-01 0.42606791E+03</pdfrwt>
<pdfrwt beam="2">  1       -2 0.14263580E+00 0.42606791E+03</pdfrwt>
<totfact> 0.90106670E+01</totfact>
</mgrwt>
</event>
<event>
 5    0  0.2754780E-002  0.8601845E+03  0.7546771E-02  0.9476769E-01
          1   -1    0    0  503    0  0.00000000000E+00  0.00000000000E+00  0.89346379105E+03  0.89346379105E+03  0.00000000000E+00 0.  1.
         -1   -1    0    0    0  501 -0.00000000000E+00 -0.00000000000E+00 -0.24297131272E+03  0.24297131272E+03  0.00000000000E+00 0. -1.
         25    1    1    2    0    0 -0.34363426633E+03 -0.62888613990E+02  0.60088839778E+03  0.70620914279E+03  0.12500000000E+03 0.  0.
         21    1    1    2  502  501  0.40997739717E+02  0.29052769123E+02  0.10894626911E+03  0.11997569590E+03  0.00000000000E+00 0.  1.
         21    1    1    2  503  502  0.30263652662E+03  0.33835844867E+02 -0.59342188558E+02  0.31025026508E+03  0.00000000000E+00 0. -1.
<mgrwt>
<rscale>  4 0.86018453E+03</rscale>
<asrwt>0</asrwt>
<pdfrwt beam="1">  1        1 0.13745597E+00 0.86018453E+03</pdfrwt>
<pdfrwt beam="2">  1       -1 0.37380202E-01 0.86018453E+03</pdfrwt>
<totfact> 0.12815208E+02</totfact>
</mgrwt>
</event>
<event>
 5    0  0.2754780E-002  0.4979455E+03  0.7546771E-02  0.1014317E+00
         -1   -1    0    0    0  501 -0.00000000000E+00  0.00000000000E+00  0.23645419422E+03  0.23645419422E+03  0.00000000000E+00 0.  1.
          1   -1    0    0  502    0  0.00000000000E+00 -0.00000000000E+00 -0.36456716875E+03  0.36456716875E+03  0.00000000000E+00 0. -1.
         25    1    1    2    0    0 -0.22276888840E+03 -0.29742028903E+02  0.36063150746E+02  0.25968464868E+03  0.12500000000E+03 0.  0.
         21    1    1    2  502  503  0.23008328450E+03  0.10236010070E+02 -0.64028746265E+02  0.23904554808E+03  0.00000000000E+00 0. -1.
         21    1    1    2  503  501 -0.73143961017E+01  0.19506018833E+02 -0.10014737901E+03  0.10229116620E+03  0.00000000000E+00 0. -1.
<mgrwt>
<rscale>  4 0.49794551E+03</rscale>
<asrwt>0</asrwt>
<pdfrwt beam="1">  1        1 0.56087257E-01 0.49794551E+03</pdfrwt>
<pdfrwt beam="2">  1       -1 0.36377568E-01 0.49794551E+03</pdfrwt>
<totfact> 0.49790462E+02</totfact>
</mgrwt>
</event>
<event>
 5    0  0.2754780E-002  0.6853364E+03  0.7546771E-02  0.9742643E-01
         -2   -1    0    0    0  501 -0.00000000000E+00  0.00000000000E+00  0.14538152920E+03  0.14538152920E+03  0.00000000000E+00 0. -1.
          2   -1    0    0  502    0  0.00000000000E+00 -0.00000000000E+00 -0.96530853443E+03  0.96530853443E+03  0.00000000000E+00 0.  1.
         25    1    1    2    0    0 -0.27797969748E+02 -0.32254483696E+03 -0.51103137442E+03  0.61772644805E+03  0.12500000000E+03 0.  0.
         21    1    1    2  502  503  0.54278975431E+02  0.29826848444E+03 -0.16603601193E+03  0.34565626458E+03  0.00000000000E+00 0. -1.
         21    1    1    2  503  501 -0.26481005683E+02  0.24276352526E+02 -0.14285961887E+03  0.14730735100E+03  0.00000000000E+00 0.  1.
<mgrwt>
<rscale>  4 0.68533642E+03</rscale>
<asrwt>0</asrwt>
<pdfrwt beam="1">  1        2 0.14850901E+00 0.68533642E+03</pdfrwt>
<pdfrwt beam="2">  1       -2 0.22366388E-01 0.68533642E+03</pdfrwt>
<totfact> 0.46840888E+02</totfact>
</mgrwt>
</event>
<event>
 5    0  0.2754780E-002  0.4281996E+03  0.7546771E-02  0.1034430E+00
          2   -1    0    0  503    0  0.00000000000E+00  0.00000000000E+00  0.14984535576E+04  0.14984535576E+04  0.00000000000E+00 0. -1.
         -2   -1    0    0    0  501 -0.00000000000E+00 -0.00000000000E+00 -0.80987300995E+02  0.80987300995E+02  0.00000000000E+00 0.  1.
         25    1    1    2    0    0  0.20855248556E+03  0.20601113924E+02  0.32959871836E+03  0.41009615979E+03  0.12500000000E+03 0.  0.
         21    1    1    2  502  501 -0.29467551668E+02 -0.27124554756E+02  0.92899161371E+03  0.92985455659E+03  0.00000000000E+00 0. -1.
         21    1    1    2  503  502 -0.17908493389E+03  0.65234408317E+01  0.15887592456E+03  0.23949014224E+03  0.00000000000E+00 0. -1.
<mgrwt>
<rscale>  4 0.42819959E+03</rscale>
<asrwt>0</asrwt>
<pdfrwt beam="1">  1        2 0.23053130E+00 0.42819959E+03</pdfrwt>
<pdfrwt beam="2">  1       -2 0.12459586E-01 0.42819959E+03</pdfrwt>
<totfact> 0.62817672E+02</totfact>
</mgrwt>
</event>
<event>
 5    0  0.2754780E-002  0.6059746E+03  0.7546771E-02  0.9893088E-01
          1   -1    0    0  502    0  0.00000000000E+00  0.00000000000E+00  0.46350008709E+03  0.46350008709E+03  0.00000000000E+00 0. -1.
         -1   -1    0    0    0  501 -0.00000000000E+00 -0.00000000000E+00 -0.60620263821E+03  0.60620263821E+03  0.00000000000E+00 0.  1.
         25    1    1    2    0    0  0.17267508020E+03 -0.14178978040E+03 -0.32559772429E+02  0.25808170010E+03  0.12500000000E+03 0.  0.
         21    1    1    2  502  503  0.17499969073E+02 -0.54706909692E+02 -0.40524731207E+03  0.40929754315E+03  0.00000000000E+00 0.  1.
         21    1    1    2  503  501 -0.19017504927E+03  0.19649669009E+03  0.29510453339E+03  0.40232348205E+03  0.00000000000E+00 0. -1.
<mgrwt>
<rscale>  4 0.60597463E+03</rscale>
<asrwt>0</asrwt>
<pdfrwt beam="1">  1        1 0.71307706E-01 0.60597463E+03</pdfrwt>
<pdfrwt beam="2">  1       -1 0.93261944E-01 0.60597463E+03</pdfrwt>
<totfact> 0.56744572E+01</totfact>
</mgrwt>
</event>
<event>
 5    0  0.2754780E-002  0.6220445E+03  0.7546771E-02  0.9860698E-01
         -2   -1    0    0    0  501 -0.00000000000E+00  0.00000000000E+00  0.10854120469E+03  0.10854120469E+03  0.00000000000E+00 0.  1.
          2   -1    0    0  502    0  0.00000000000E+00 -0.00000000000E+00 -0.22694394742E+04  0.22694394742E+04  0.00000000000E+00 0. -1.
         25    1    1    2    0    0  0.14645407394E+03  0.15469587069E+03 -0.44394095012E+03  0.50802379410E+03  0.12500000000E+03 0.  0.
         21    1    1    2  502  503 -0.32741103745E+02  0.10458413382E+03  0.18861469837E+02  0.11120061135E+03  0.00000000000E+00 0.  1.
         21    1    1    2  503  501 -0.11371297020E+03 -0.25928000451E+03 -0.17358187892E+04  0.17587562734E+04  0.00000000000E+00 0. -1.
<mgrwt>
<rscale>  4 0.62204449E+03</rscale>
<asrwt>0</asrwt>
<pdfrwt beam="1">  1        2 0.34914448E+00 0.62204449E+03</pdfrwt>
<pdfrwt beam="2">  1       -2 0.16698649E-01 0.62204449E+03</pdfrwt>
<totfact> 0.14407374E+02</totfact>
</mgrwt>
</event>
<event>
 5    0  0.2754780E-002  0.6600957E+03  0.7546771E-02  0.9788017E-01
          2   -1    0    0  503    0  0.00000000000E+00  0.00000000000E+00  0.95791830984E+03  0.95791830984E+03  0.00000000000E+00 0.  1.
         -2   -1    0    0    0  501 -0.00000000000E+00 -0.00000000000E+00 -0.22074163294E+03  0.22074163294E+03  0.00000000000E+00 0. -1.
         25    1    1    2    0    0 -0.34323142806E+03  0.99140041886E+02  0.41881707072E+03  0.56450801574E+03  0.12500000000E+03 0.  0.
         21    1    1    2  502  501  0.27783741173E+03 -0.18943527233E+02  0.39647093406E+03  0.48450148208E+03  0.00000000000E+00 0.  1.
         21    1    1    2  503  502  0.65394016327E+02 -0.80196514653E+02 -0.78111327878E+02  0.12965044495E+03  0.00000000000E+00 0. -1.
<mgrwt>
<rscale>  4 0.66009575E+03</rscale>
<asrwt>0</asrwt>
<pdfrwt beam="1">  1        2 0.14737205E+00 0.66009575E+03</pdfrwt>
<pdfrwt beam="2">  1       -2 0.33960252E-01 0.66009575E+03</pdfrwt>
<totfact> 0.22089552E+02</totfact>
</mgrwt>
</event>
<event>
 5    0  0.2754780E-002  0.9935884E+03  0.7546771E-02  0.9315605E-01
         -2   -1    0    0    0  501 -0.00000000000E+00  0.00000000000E+00  0.15313785066E+04  0.15313785066E+04  0.00000000000E+00 0.  1.
          2   -1    0    0  503    0  0.00000000000E+00 -0.00000000000E+00 -0.61272830815E+03  0.61272830815E+03  0.00000000000E+00 0. -1.
         25    1    1    2    0    0 -0.24125857522E+03  0.22262131472E+03  0.18392663047E+03  0.39650971651E+03  0.12500000000E+03 0.  0.
         21    1    1    2  502  501  0.33788098773E+03 -0.34439835323E+03 -0.38492763524E+03  0.61720585865E+03  0.00000000000E+00 0. -1.
         21    1    1    2  503  502 -0.96622412509E+02  0.12177703851E+03  0.11196512032E+04  0.11303912396E+04  0.00000000000E+00 0.  1.
<mgrwt>
<rscale>  4 0.99358838E+03</rscale>
<asrwt>0</asrwt>
<pdfrwt beam="1">  1        2 0.94265894E-01 0.99358838E+03</pdfrwt>
<pdfrwt beam="2">  1       -2 0.23559669E+00 0.99358838E+03</pdfrwt>
<totfact> 0.38059364E+00</totfact>
</mgrwt>
</event>
<event>
 5    0  0.2754780E-002  0.4168802E+03  0.7546771E-02  0.1038086E+00
          1   -1    0    0  502    0  0.00000000000E+00  0.00000000000E+00  0.39283164813E+03  0.39283164813E+03  0.00000000000E+00 0.  1.
         -1   -1    0    0    0  501 -0.00000000000E+00 -0.00000000000E+00 -0.16327088307E+03  0.16327088307E+03  0.00000000000E+00 0. -1.
         25    1    1    2    0    0  0.20315200195E+03 -0.39260620278E+02  0.61722987868E+02  0.24949320518E+03  0.12500000000E+03 0.  0.
         21    1    1    2  502  503 -0.14176911827E+03  0.96012109934E+02  0.95467582866E+02  0.19603792369E+03  0.00000000000E+00 0.  1.
         21    1    1    2  503  501 -0.61382883679E+02 -0.56751489656E+02  0.72370194329E+02  0.11057140233E+03  0.00000000000E+00 0.  1.
<mgrwt>
<rscale>  4 0.41688021E+03</rscale>
<asrwt>0</asrwt>
<pdfrwt beam="1">  1        1 0.60435638E-01 0.41688021E+03</pdfrwt>
<pdfrwt beam="2">  1       -1 0.25118597E-01 0.41688021E+03</pdfrwt>
<totfact> 0.85859907E+02</totfact>
</mgrwt>
</event>
<event>
 5    0  0.2754780E-002  0.4370782E+03  0.7546771E-02  0.1031647E+00
          2   -1    0    0  503    0  0.00000000000E+00  0.00000000000E+00  0.48095800001E+03  0.48095800001E+03  0.00000000000E+00 0. -1.
         -2   -1    0    0    0  501 -0.00000000000E+00 -0.00000000000E+00 -0.13336089892E+03  0.13336089892E+03  0.00000000000E+00 0.  1.
         25    1    1    2    0    0 -0.21270039037E+03 -0.33386541081E+02  0.21176426888E+03  0.32684128069E+03  0.12500000000E+03 0.  0.
         21    1    1    2  502  501  0.47595005058E+02 -0.49448894424E+02  0.35661195526E+02  0.77344673589E+02  0.00000000000E+00 0. -1.
         21    1    1    2  503  502  0.16510538531E+03  0.82835435505E+02  0.10017163669E+03  0.21013294466E+03  0.00000000000E+00 0.  1.
<mgrwt>
<rscale>  4 0.43707815E+03</rscale>
<asrwt>0</asrwt>
<pdfrwt beam="1">  1        2 0.73993538E-01 0.43707815E+03</pdfrwt>
<pdfrwt beam="2">  1       -2 0.20517062E-01 0.43707815E+03</pdfrwt>
<totfact> 0.13133606E+03</totfact>
</mgrwt>
</event>
<event>
 5    0  0.2754780E-002  0.4993365E+03  0.7546771E-02  0.1013952E+00
          1   -1    0    0  503    0  0.00000000000E+00  0.00000000000E+00  0.81749071241E+03  0.81749071241E+03  0.00000000000E+00 0. -1.
         -1   -1    0    0    0  501 -0.00000000000E+00 -0.00000000000E+00 -0.10082616021E+03  0.10082616021E+03  0.00000000000E+00 0.  1.
         25    1    1    2    0    0  0.76348902811E+02 -0.18553782114E+03  0.23483692134E+03  0.33320686917E+03  0.12500000000E+03 0.  0.
         21    1    1    2  502  501  0.29625318615E+02 -0.53187704082E+02  0.15637988880E+03  0.16781317287E+03  0.00000000000E+00 0. -1.
         21    1    1    2  503  502 -0.10597422143E+03  0.23872552522E+03  0.32544774206E+03  0.41729683058E+03  0.00000000000E+00 0.  1.
<mgrwt>
<rscale>  4 0.49933646E+03</rscale>
<asrwt>0</asrwt>
<pdfrwt beam="1">  1        1 0.12576780E+00 0.49933646E+03</pdfrwt>
<pdfrwt beam="2">  1       -1 0.15511718E-01 0.49933646E+03</pdfrwt>
<totfact> 0.67414027E+02</totfact>
</mgrwt>
</event>
<event>
 5    0  0.2754780E-002  0.6576141E+03  0.7546771E-02  0.9792596E-01
         -1   -1    0    0    0  501 -0.00000000000E+00  0.00000000000E+00  0.17944728160E+03  0.17944728160E+03  0.00000000000E+00 0.  1.
          1   -1    0    0  503    0  0.00000000000E+00 -0.00000000000E+00 -0.82589794848E+03  0.82589794848E+03  0.00000000000E+00 0. -1.
         25    1    1    2    0    0 -0.46391545953E+02 -0.28841044305E+03 -0.33614476378E+03  0.46254844223E+03  0.12500000000E+03 0.  0.
         21    1    1    2  502  501  0.12075458648E+02 -0.17631721089E+02 -0.22116490729E+03  0.22219498308E+03  0.00000000000E+00 0.  1.
         21    1    1    2  503  502  0.34316087305E+02  0.30604216414E+03 -0.89140995819E+02  0.32060180476E+03  0.00000000000E+00 0.  1.
<mgrwt>
<rscale>  4 0.65761412E+03</rscale>
<asrwt>0</asrwt>
<pdfrwt beam="1">  1        1 0.12706122E+00 0.65761412E+03</pdfrwt>
<pdfrwt beam="2">  1       -1 0.27607274E-01 0.65761412E+03</pdfrwt>
<totfact> 0.25187957E+02</totfact>
</mgrwt>
</event>
<event>
 5    0  0.2754780E-002  0.4892856E+03  0.7546771E-02  0.1016614E+00
         -1   -1    0    0    0  501 -0.00000000000E+00  0.00000000000E+00  0.37398902818E+02  0.37398902818E+02  0.00000000000E+00 0. -1.
          1   -1    0    0  502    0  0.00000000000E+00 -0.00000000000E+00 -0.20044244525E+04  0.20044244525E+04  0.00000000000E+00 0.  1.
         25    1    1    2    0    0 -0.52945636985E+02  0.21082404795E+03 -0.88510204971E+03  0.91993513797E+03  0.12500000000E+03 0.  0.
         21    1    1    2  502  503  0.87009078944E+02 -0.22064285280E+03 -0.71620843930E+03  0.75445899612E+03  0.00000000000E+00 0.  1.
         21    1    1    2  503  501 -0.34063441959E+02  0.98188048448E+01 -0.36571506066E+03  0.36742922121E+03  0.00000000000E+00 0.  1.
<mgrwt>
<rscale>  4 0.48928564E+03</rscale>
<asrwt>0</asrwt>
<pdfrwt beam="1">  1        1 0.30837310E+00 0.48928564E+03</pdfrwt>
<pdfrwt beam="2">  1       -1 0.57536753E-02 0.48928564E+03</pdfrwt>
<totfact> 0.46504912E+02</totfact>
</mgrwt>
</event>
<event>
 5    0  0.2754780E-002  0.4374465E+03  0.7546771E-02  0.1031533E+00
          2   -1    0    0  502    0  0.00000000000E+00  0.00000000000E+00  0.68258710092E+03  0.68258710092E+03  0.00000000000E+00 0.  1.
         -2   -1    0    0    0  501 -0.00000000000E+00 -0.00000000000E+00 -0.16041752596E+03  0.16041752596E+03  0.00000000000E+00 0. -1.
         25    1    1    2    0    0 -0.37806064862E+02 -0.20473037754E+03  0.33367071191E+03  0.41268022731E+03  0.12500000000E+03 0.  0.
         21    1    1    2  502  503 -0.27155918631E+02  0.21312571516E+02 -0.86679284893E+02  0.93300418278E+02  0.00000000000E+00 0. -1.
         21    1    1    2  503  501  0.64961983493E+02  0.18341780602E+03  0.27517814793E+03  0.33702398129E+03  0.00000000000E+00 0.  1.
<mgrwt>
<rscale>  4 0.43744653E+03</rscale>
<asrwt>0</asrwt>
<pdfrwt beam="1">  1        2 0.10501340E+00 0.43744653E+03</pdfrwt>
<pdfrwt beam="2">  1       -2 0.24679620E-01 0.43744653E+03</pdfrwt>
<totfact> 0.62819024E+02</totfact>
</mgrwt>
</event>
<event>
 5    0  0.2754780E-002  0.6245370E+03  0.7546771E-02  0.9855768E-01
         -2   -1    0    0    0  501 -0.00000000000E+00  0.00000000000E+00  0.12877603183E+03  0.12877603183E+03  0.00000000000E+00 0. -1.
          2   -1    0    0  502    0  0.00000000000E+00 -0.00000000000E+00 -0.87905359338E+03  0.87905359338E+03  0.00000000000E+00 0.  1.
         25    1    1    2    0    0 -0.24377411867E+03 -0.33519512117E+02 -0.84395302970E+02  0.28861210264E+03  0.12500000000E+03 0.  0.
         21    1    1    2  502  503  0.24331720133E+03  0.13046706493E+02 -0.55027547969E+03  0.60181108378E+03  0.00000000000E+00 0.  1.
         21    1    1    2  503  501  0.45691734294E+00  0.20472805624E+02 -0.11560677889E+03  0.11740643879E+03  0.00000000000E+00 0. -1.
<mgrwt>
<rscale>  4 0.62453699E+03</rscale>
<asrwt>0</asrwt>
<pdfrwt beam="1">  1        2 0.13523901E+00 0.62453699E+03</pdfrwt>
<pdfrwt beam="2">  1       -2 0.19811697E-01 0.62453699E+03</pdfrwt>
<totfact> 0.66266345E+02</totfact>
</mgrwt>
</event>
<event>
 5    0  0.2754780E-002  0.5088756E+03  0.7546771E-02  0.1011488E+00
          1   -1    0    0  503    0  0.00000000000E+00  0.00000000000E+00  0.14690725741E+03  0.14690725741E+03  0.00000000000E+00 0.  1.
         -1   -1    0    0    0  501 -0.00000000000E+00 -0.00000000000E+00 -0.44067655156E+03  0.44067655156E+03  0.00000000000E+00 0. -1.
         25    1    1    2    0    0  0.17000947874E+03  0.14591760716E+03 -0.77271423082E+02  0.26793850743E+03  0.12500000000E+03 0.  0.
         21    1    1    2  502  501 -0.30493228143E+02 -0.62848999993E+01 -0.72085179499E+01  0.31957779360E+02  0.00000000000E+00 0.  1.
         21    1    1    2  503  502 -0.13951625060E+03 -0.13963270716E+03 -0.20928935311E+03  0.28768752217E+03  0.00000000000E+00 0. -1.
<mgrwt>
<rscale>  4 0.50887556E+03</rscale>
<asrwt>0</asrwt>
<pdfrwt beam="1">  1        1 0.22601117E-01 0.50887556E+03</pdfrwt>
<pdfrwt beam="2">  1       -1 0.67796390E-01 0.50887556E+03</pdfrwt>
<totfact> 0.49737284E+02</totfact>
</mgrwt>
</event>
<event>
 5    0  0.2754780E-002  0.7958955E+03  0.7546771E-02  0.9565977E-01
          2   -1    0    0  503    0  0.00000000000E+00  0.00000000000E+00  0.74298784677E+03  0.74298784677E+03  0.00000000000E+00 0.  1.
         -2   -1    0    0    0  501 -0.00000000000E+00 -0.00000000000E+00 -0.98168605531E+03  0.98168605531E+03  0.00000000000E+00 0. -1.
         25    1    1    2    0    0 -0.16360277731E+03 -0.13836012774E+03  0.93807269112E+01  0.24823857825E+03  0.12500000000E+03 0.  0.
         21    1    1    2  502  501 -0.17717815356E+03  0.82163873640E+02  0.56244649857E+03  0.59538984203E+03  0.00000000000E+00 0.  1.
         21    1    1    2  503  502  0.34078093087E+03  0.56196254101E+02 -0.81052543403E+03  0.88104548181E+03  0.00000000000E+00 0. -1.
<mgrwt>
<rscale>  4 0.79589550E+03</rscale>
<asrwt>0</asrwt>
<pdfrwt beam="1">  1        2 0.11430582E+00 0.79589550E+03</pdfrwt>
<pdfrwt beam="2">  1       -2 0.15102862E+00 0.79589550E+03</pdfrwt>
<totfact> 0.11289727E+01</totfact>
</mgrwt>
</event>
<event>
 5    0  0.2754780E-002  0.5217787E+03  0.7546771E-02  0.1008246E+00
          1   -1    0    0  503    0  0.00000000000E+00  0.00000000000E+00  0.17307283795E+04  0.17307283795E+04  0.00000000000E+00 0.  1.
         -1   -1    0    0    0  501 -0.00000000000E+00 -0.00000000000E+00 -0.44591365056E+02  0.44591365056E+02  0.00000000000E+00 0. -1.
         25    1    1    2    0    0  0.45881522649E+02  0.22512689327E+03  0.53985003854E+03  0.59987523395E+03  0.12500000000E+03 0.  0.
         21    1    1    2  502  501  0.20924069502E+02 -0.10978686317E+01  0.18301388845E+03  0.18420940629E+03  0.00000000000E+00 0.  1.
         21    1    1    2  503  502 -0.66805592150E+02 -0.22402902463E+03  0.96327308742E+03  0.99123510429E+03  0.00000000000E+00 0.  1.
<mgrwt>
<rscale>  4 0.52177867E+03</rscale>
<asrwt>0</asrwt>
<pdfrwt beam="1">  1        1 0.26626585E+00 0.52177867E+03</pdfrwt>
<pdfrwt beam="2">  1       -1 0.68602113E-02 0.52177867E+03</pdfrwt>
<totfact> 0.53717581E+02</totfact>
</mgrwt>
</event>
<event>
 5    0  0.2754780E-002  0.5856900E+03  0.7546771E-02  0.9935548E-01
          1   -1    0    0  503    0  0.00000000000E+00  0.00000000000E+00  0.65169341588E+03  0.65169341588E+03  0.00000000000E+00 0.  1.
         -1   -1    0    0    0  501 -0.00000000000E+00 -0.00000000000E+00 -0.16609180352E+03  0.16609180352E+03  0.00000000000E+00 0. -1.
         25    1    1    2    0    0  0.25806272680E+03  0.50073102581E+02  0.19063013190E+03  0.34794903902E+03  0.12500000000E+03 0.  0.
         21    1    1    2  502  501  0.29116819905E+02  0.13966133724E+02  0.12698249623E+03  0.13102441162E+03  0.00000000000E+00 0.  1.
         21    1    1    2  503  502 -0.28717954670E+03 -0.64039236306E+02  0.16798898423E+03  0.33881176876E+03  0.00000000000E+00 0. -1.
<mgrwt>
<rscale>  4 0.58568997E+03</rscale>
<asrwt>0</asrwt>
<pdfrwt beam="1">  1        1 0.10026052E+00 0.58568997E+03</pdfrwt>
<pdfrwt beam="2">  1       -1 0.25552586E-01 0.58568997E+03</pdfrwt>
<totfact> 0.41499419E+02</totfact>
</mgrwt>
</event>
<event>
 5    0  0.2754780E-002  0.3968372E+03  0.7546771E-02  0.1044880E+00
          2   -1    0    0  502    0  0.00000000000E+00  0.00000000000E+00  0.12627883847E+04  0.12627883847E+04  0.00000000000E+00 0. -1.
         -2   -1    0    0    0  501 -0.00000000000E+00 -0.00000000000E+00 -0.29868085699E+03  0.29868085699E+03  0.00000000000E+00 0.  1.
         25    1    1    2    0    0 -0.20055394006E+03 -0.29187799600E+01 -0.12151345546E+03  0.26574597270E+03  0.12500000000E+03 0.  0.
         21    1    1    2  502  503  0.15676523613E+03 -0.21889883569E+02 -0.44547020866E+02  0.16443522533E+03  0.00000000000E+00 0. -1.
         21    1    1    2  503  501  0.43788703924E+02  0.24808663529E+02  0.11301680040E+04  0.11312880436E+04  0.00000000000E+00 0. -1.
<mgrwt>
<rscale>  4 0.39683722E+03</rscale>
<asrwt>0</asrwt>
<pdfrwt beam="1">  1        2 0.19427513E+00 0.39683722E+03</pdfrwt>
<pdfrwt beam="2">  1       -2 0.45950902E-01 0.39683722E+03</pdfrwt>
<totfact> 0.82748103E+01</totfact>
</mgrwt>
</event>
<event>
 5    0  0.2754780E-002  0.7458026E+03  0.7546771E-02  0.9641959E-01
         -1   -1    0    0    0  501 -0.00000000000E+00  0.00000000000E+00  0.82527719258E+02  0.82527719258E+02  0.00000000000E+00 0. -1.
          1   -1    0    0  503    0  0.00000000000E+00 -0.00000000000E+00 -0.20438014482E+04  0.20438014482E+04  0.00000000000E+00 0.  1.
         25    1    1    2    0    0 -0.33380283246E+03 -0.39728503927E+02 -0.12049381426E+04  0.12571808193E+04  0.12500000000E+03 0.  0.
         21    1    1    2  502  501  0.17432876563E+02 -0.24893324489E+02 -0.34440578282E+03  0.34574401806E+03  0.00000000000E+00 0. -1.
         21    1    1    2  503  502  0.31636995589E+03  0.64621828416E+02 -0.41192980350E+03  0.52340433005E+03  0.00000000000E+00 0. -1.
<mgrwt>
<rscale>  4 0.74580260E+03</rscale>
<asrwt>0</asrwt>
<pdfrwt beam="1">  1        1 0.31443099E+00 0.74580260E+03</pdfrwt>
<pdfrwt beam="2">  1       -1 0.12696572E-01 0.74580260E+03</pdfrwt>
<totfact> 0.12366127E+02</totfact>
</mgrwt>
</event>
<event>
 5    0  0.2754780E-002  0.4852792E+03  0.7546771E-02  0.1017694E+00
          1   -1    0    0  502    0  0.00000000000E+00  0.00000000000E+00  0.60222045356E+03  0.60222045356E+03  0.00000000000E+00 0. -1.
         -1   -1    0    0    0  501 -0.00000000000E+00 -0.00000000000E+00 -0.11853029271E+03  0.11853029271E+03  0.00000000000E+00 0.  1.
         25    1    1    2    0    0 -0.18058856564E+03 -0.13245065668E+03  0.11112157528E+03  0.27951459888E+03  0.12500000000E+03 0.  0.
         21    1    1    2  502  503  0.16509342127E+03  0.11515928632E+03  0.27412285006E+03  0.34008945278E+03  0.00000000000E+00 0. -1.
         21    1    1    2  503  501  0.15495144375E+02  0.17291370357E+02  0.98445735514E+02  0.10114669460E+03  0.00000000000E+00 0.  1.
<mgrwt>
<rscale>  4 0.48527921E+03</rscale>
<asrwt>0</asrwt>
<pdfrwt beam="1">  1        1 0.92649299E-01 0.48527921E+03</pdfrwt>
<pdfrwt beam="2">  1       -1 0.18235430E-01 0.48527921E+03</pdfrwt>
<totfact> 0.81933227E+02</totfact>
</mgrwt>
</event>
<event>
 5    0  0.2754780E-002  0.9904452E+03  0.7546771E-02  0.9319087E-01
          2   -1    0    0  503    0  0.00000000000E+00  0.00000000000E+00  0.23773464578E+04  0.23773464578E+04  0.00000000000E+00 0.  1.
         -2   -1    0    0    0  501 -0.00000000000E+00 -0.00000000000E+00 -0.12018616265E+03  0.12018616265E+03  0.00000000000E+00 0. -1.
         25    1    1    2    0    0 -0.38281313827E+03  0.31146485191E+03  0.92240788754E+03  0.10535737107E+04  0.12500000000E+03 0.  0.
         21    1    1    2  502  501  0.25551592610E+02  0.78641156811E+01  0.32694920765E+03  0.32804041304E+03  0.00000000000E+00 0. -1.
         21    1    1    2  503  502  0.35726154566E+03 -0.31932896759E+03  0.10078031999E+04  0.11159184967E+04  0.00000000000E+00 0.  1.
<mgrwt>
<rscale>  4 0.99044515E+03</rscale>
<asrwt>0</asrwt>
<pdfrwt beam="1">  1        2 0.36574557E+00 0.99044515E+03</pdfrwt>
<pdfrwt beam="2">  1       -2 0.18490181E-01 0.99044515E+03</pdfrwt>
<totfact> 0.10132492E+02</totfact>
</mgrwt>
</event>
<event>
 5    0  0.2754780E-002  0.5490721E+03  0.7546771E-02  0.1001709E+00
         -1   -1    0    0    0  501 -0.00000000000E+00  0.00000000000E+00  0.13014137289E+03  0.13014137289E+03  0.00000000000E+00 0.  1.
          1   -1    0    0  502    0  0.00000000000E+00 -0.00000000000E+00 -0.11478782552E+04  0.11478782552E+04  0.00000000000E+00 0. -1.
         25    1    1    2    0    0 -0.20632042492E+03  0.21282347398E+03 -0.25948715071E+03  0.41330440380E+03  0.12500000000E+03 0.  0.
         21    1    1    2  502  503  0.20716595077E+03 -0.52745014101E+01 -0.40720996139E+03  0.45690863877E+03  0.00000000000E+00 0.  1.
         21    1    1    2  503  501 -0.84552584344E+00 -0.20754897257E+03 -0.35103977019E+03  0.40780658551E+03  0.00000000000E+00 0. -1.
<mgrwt>
<rscale>  4 0.54907207E+03</rscale>
<asrwt>0</asrwt>
<pdfrwt beam="1">  1        1 0.17659665E+00 0.54907207E+03</pdfrwt>
<pdfrwt beam="2">  1       -1 0.20021750E-01 0.54907207E+03</pdfrwt>
<totfact> 0.24498176E+02</totfact>
</mgrwt>
</event>
<event>
 5    0  0.2754780E-002  0.6474283E+03  0.7546771E-02  0.9811617E-01
         -4   -1    0    0    0  501 -0.00000000000E+00  0.00000000000E+00  0.12260138414E+04  0.12260138414E+04  0.00000000000E+00 0.  1.
          4   -1    0    0  503    0  0.00000000000E+00 -0.00000000000E+00 -0.85472807778E+02  0.85472807778E+02  0.00000000000E+00 0. -1.
         25    1    1    2    0    0  0.22684951853E+03 -0.29272549602E+02  0.99941705571E+03  0.10328489906E+04  0.12500000000E+03 0.  0.
         21    1    1    2  502  501 -0.18855067564E+02  0.24700387338E+02  0.96768998191E+01  0.32546353061E+02  0.00000000000E+00 0.  1.
         21    1    1    2  503  502 -0.20799445097E+03  0.45721622642E+01  0.13144707813E+03  0.24609130551E+03  0.00000000000E+00 0.  1.
<mgrwt>
<rscale>  4 0.64742828E+03</rscale>
<asrwt>0</asrwt>
<pdfrwt beam="1">  1        4 0.13149664E-01 0.64742828E+03</pdfrwt>
<pdfrwt beam="2">  1       -4 0.18861750E+00 0.64742828E+03</pdfrwt>
<totfact> 0.15451411E+01</totfact>
</mgrwt>
</event>
<event>
 5    0  0.2754780E-002  0.5093071E+03  0.7546771E-02  0.1011378E+00
         -2   -1    0    0    0  501 -0.00000000000E+00  0.00000000000E+00  0.18359543916E+03  0.18359543916E+03  0.00000000000E+00 0.  1.
          2   -1    0    0  502    0  0.00000000000E+00 -0.00000000000E+00 -0.44046425084E+03  0.44046425084E+03  0.00000000000E+00 0. -1.
         25    1    1    2    0    0 -0.16553831407E+03 -0.17516647582E+03 -0.24836902891E+02  0.27263180192E+03  0.12500000000E+03 0.  0.
         21    1    1    2  502  503  0.15533474183E+03  0.15545016368E+03 -0.14907131462E+03  0.26554828610E+03  0.00000000000E+00 0. -1.
         21    1    1    2  503  501  0.10203572244E+02  0.19716312137E+02 -0.82960594165E+02  0.85879601973E+02  0.00000000000E+00 0. -1.
<mgrwt>
<rscale>  4 0.50930712E+03</rscale>
<asrwt>0</asrwt>
<pdfrwt beam="1">  1        2 0.67763730E-01 0.50930712E+03</pdfrwt>
<pdfrwt beam="2">  1       -2 0.28245452E-01 0.50930712E+03</pdfrwt>
<totfact> 0.82106117E+02</totfact>
</mgrwt>
</event>
<event>
 5    0  0.2754780E-002  0.5857592E+03  0.7546771E-02  0.9935400E-01
         -2   -1    0    0    0  501 -0.00000000000E+00  0.00000000000E+00  0.86387881017E+02  0.86387881017E+02  0.00000000000E+00 0. -1.
          2   -1    0    0  502    0  0.00000000000E+00 -0.00000000000E+00 -0.10910560868E+04  0.10910560868E+04  0.00000000000E+00 0.  1.
         25    1    1    2    0    0 -0.60352534871E+02 -0.20307054316E+03 -0.16497306623E+03  0.29617762668E+03  0.12500000000E+03 0.  0.
         21    1    1    2  502  503  0.52616914023E+02  0.23000422297E+03 -0.78667235734E+03  0.82129402776E+03  0.00000000000E+00 0.  1.
         21    1    1    2  503  501  0.77356208481E+01 -0.26933679809E+02 -0.53022782166E+02  0.59972313333E+02  0.00000000000E+00 0.  1.
<mgrwt>
<rscale>  4 0.58575924E+03</rscale>
<asrwt>0</asrwt>
<pdfrwt beam="1">  1        2 0.16785478E+00 0.58575924E+03</pdfrwt>
<pdfrwt beam="2">  1       -2 0.13290444E-01 0.58575924E+03</pdfrwt>
<totfact> 0.95745559E+02</totfact>
</mgrwt>
</event>
<event>
 5    0  0.2754780E-002  0.4591422E+03  0.7546771E-02  0.1025030E+00
         -1   -1    0    0    0  501 -0.00000000000E+00  0.00000000000E+00  0.28360212199E+03  0.28360212199E+03  0.00000000000E+00 0.  1.
          1   -1    0    0  503    0  0.00000000000E+00 -0.00000000000E+00 -0.39388768615E+03  0.39388768615E+03  0.00000000000E+00 0. -1.
         25    1    1    2    0    0 -0.11519714854E+03  0.16578018211E+03  0.18390593994E+03  0.30033289290E+03  0.12500000000E+03 0.  0.
         21    1    1    2  502  501  0.83577267363E+01 -0.10157074408E+03 -0.18605382510E+03  0.21213791147E+03  0.00000000000E+00 0. -1.
         21    1    1    2  503  502  0.10683942181E+03 -0.64209438037E+02 -0.10813767900E+03  0.16501900377E+03  0.00000000000E+00 0. -1.
<mgrwt>
<rscale>  4 0.45914220E+03</rscale>
<asrwt>0</asrwt>
<pdfrwt beam="1">  1        1 0.60598105E-01 0.45914220E+03</pdfrwt>
<pdfrwt beam="2">  1       -1 0.43631096E-01 0.45914220E+03</pdfrwt>
<totfact> 0.32486402E+02</totfact>
</mgrwt>
</event>
<event>
 5    0  0.2754780E-002  0.5176268E+03  0.7546771E-02  0.1009278E+00
         -2   -1    0    0    0  501 -0.00000000000E+00  0.00000000000E+00  0.74248185557E+02  0.74248185557E+02  0.00000000000E+00 0.  1.
          2   -1    0    0  503    0  0.00000000000E+00 -0.00000000000E+00 -0.15200599912E+04  0.15200599912E+04  0.00000000000E+00 0. -1.
         25    1    1    2    0    0  0.37488349816E+02 -0.21669525364E+03 -0.27529608810E+03  0.37386514340E+03  0.12500000000E+03 0.  0.
         21    1    1    2  502  501 -0.59564096403E+01 -0.20935275120E+02 -0.61535508243E+03  0.61573991428E+03  0.00000000000E+00 0.  1.
         21    1    1    2  503  502 -0.31531940175E+02  0.23763052876E+03 -0.55516063509E+03  0.60470311906E+03  0.00000000000E+00 0. -1.
<mgrwt>
<rscale>  4 0.51762677E+03</rscale>
<asrwt>0</asrwt>
<pdfrwt beam="1">  1        2 0.23385539E+00 0.51762677E+03</pdfrwt>
<pdfrwt beam="2">  1       -2 0.11422798E-01 0.51762677E+03</pdfrwt>
<totfact> 0.70033740E+02</totfact>
</mgrwt>
</event>
<event>
 5    0  0.2754780E-002  0.5363533E+03  0.7546771E-02  0.1004703E+00
          1   -1    0    0  502    0  0.00000000000E+00  0.00000000000E+00  0.22909923635E+03  0.22909923635E+03  0.00000000000E+00 0. -1.
         -1   -1    0    0    0  501 -0.00000000000E+00 -0.00000000000E+00 -0.35440989446E+03  0.35440989446E+03  0.00000000000E+00 0.  1.
         25    1    1    2    0    0  0.12275623502E+02 -0.20561503116E+03  0.62189659275E+02  0.24883887496E+03  0.12500000000E+03 0.  0.
         21    1    1    2  502  503 -0.12633392862E+02  0.22624273993E+03 -0.20653664300E+03  0.30659870333E+03  0.00000000000E+00 0.  1.
         21    1    1    2  503  501  0.35776935963E+00 -0.20627708766E+02  0.19036325609E+02  0.28071552514E+02  0.00000000000E+00 0.  1.
<mgrwt>
<rscale>  4 0.53635329E+03</rscale>
<asrwt>0</asrwt>
<pdfrwt beam="1">  1        1 0.35246037E-01 0.53635329E+03</pdfrwt>
<pdfrwt beam="2">  1       -1 0.54524599E-01 0.53635329E+03</pdfrwt>
<totfact> 0.42913594E+02</totfact>
</mgrwt>
</event>
<event>
 5    0  0.2754780E-002  0.7136965E+03  0.7546771E-02  0.9694092E-01
          1   -1    0    0  503    0  0.00000000000E+00  0.00000000000E+00  0.37106257000E+03  0.37106257000E+03  0.00000000000E+00 0. -1.
         -1   -1    0    0    0  501 -0.00000000000E+00 -0.00000000000E+00 -0.13097311951E+04  0.13097311951E+04  0.00000000000E+00 0.  1.
         25    1    1    2    0    0 -0.12948497555E+03 -0.29186129910E+03 -0.24679171472E+03  0.42246955779E+03  0.12500000000E+03 0.  0.
         21    1    1    2  502  501  0.25558863666E+02  0.12065181104E+03  0.25885069503E+03  0.28672948459E+03  0.00000000000E+00 0.  1.
         21    1    1    2  503  502  0.10392611188E+03  0.17120948805E+03 -0.95072760541E+03  0.97159472272E+03  0.00000000000E+00 0. -1.
<mgrwt>
<rscale>  4 0.71369650E+03</rscale>
<asrwt>0</asrwt>
<pdfrwt beam="1">  1        1 0.57086549E-01 0.71369650E+03</pdfrwt>
<pdfrwt beam="2">  1       -1 0.20149711E+00 0.71369650E+03</pdfrwt>
<totfact> 0.10094887E+01</totfact>
</mgrwt>
</event>
<event>
 5    0  0.2754780E-002  0.5268707E+03  0.7546771E-02  0.1006994E+00
          1   -1    0    0  503    0  0.00000000000E+00  0.00000000000E+00  0.56229499250E+03  0.56229499250E+03  0.00000000000E+00 0.  1.
         -1   -1    0    0    0  501 -0.00000000000E+00 -0.00000000000E+00 -0.20751721917E+03  0.20751721917E+03  0.00000000000E+00 0. -1.
         25    1    1    2    0    0  0.22712119113E+03  0.88828646183E+02 -0.33711034772E+02  0.27610867010E+03  0.12500000000E+03 0.  0.
         21    1    1    2  502  501 -0.10490510047E+03  0.50953741023E+02  0.18043686192E+03  0.21484604946E+03  0.00000000000E+00 0.  1.
         21    1    1    2  503  502 -0.12221609066E+03 -0.13978238721E+03  0.20805194618E+03  0.27885749210E+03  0.00000000000E+00 0.  1.
<mgrwt>
<rscale>  4 0.52687066E+03</rscale>
<asrwt>0</asrwt>
<pdfrwt beam="1">  1        1 0.86506921E-01 0.52687066E+03</pdfrwt>
<pdfrwt beam="2">  1       -1 0.31925726E-01 0.52687066E+03</pdfrwt>
<totfact> 0.35015502E+02</totfact>
</mgrwt>
</event>
<event>
 5    0  0.2754780E-002  0.6258294E+03  0.7546771E-02  0.9853221E-01
          1   -1    0    0  502    0  0.00000000000E+00  0.00000000000E+00  0.45405683247E+03  0.45405683247E+03  0.00000000000E+00 0.  1.
         -1   -1    0    0    0  501 -0.00000000000E+00 -0.00000000000E+00 -0.28968168646E+03  0.28968168646E+03  0.00000000000E+00 0. -1.
         25    1    1    2    0    0  0.19917352074E+03  0.14522117072E+03 -0.12931636058E+03  0.30513439810E+03  0.12500000000E+03 0.  0.
         21    1    1    2  502  503 -0.22470316608E+03 -0.14506471465E+03  0.18074097454E+03  0.32280425052E+03  0.00000000000E+00 0.  1.
         21    1    1    2  503  501  0.25529645334E+02 -0.15645607007E+00  0.11295053206E+03  0.11579987030E+03  0.00000000000E+00 0.  1.
<mgrwt>
<rscale>  4 0.62582941E+03</rscale>
<asrwt>0</asrwt>
<pdfrwt beam="1">  1        1 0.69854897E-01 0.62582941E+03</pdfrwt>
<pdfrwt beam="2">  1       -1 0.44566413E-01 0.62582941E+03</pdfrwt>
<totfact> 0.25666704E+02</totfact>
</mgrwt>
</event>
<event>
 5    0  0.2754780E-002  0.4327518E+03  0.7546771E-02  0.1032994E+00
         -2   -1    0    0    0  501 -0.00000000000E+00  0.00000000000E+00  0.14371612448E+03  0.14371612448E+03  0.00000000000E+00 0.  1.
          2   -1    0    0  503    0  0.00000000000E+00 -0.00000000000E+00 -0.50668695217E+03  0.50668695217E+03  0.00000000000E+00 0. -1.
         25    1    1    2    0    0 -0.57194714680E+02 -0.20006603811E+03 -0.77331508612E+02  0.25476031327E+03  0.12500000000E+03 0.  0.
         21    1    1    2  502  501  0.67903015090E+01  0.19753140893E+02 -0.17892552415E+03  0.18014060609E+03  0.00000000000E+00 0.  1.
         21    1    1    2  503  502  0.50404413171E+02  0.18031289721E+03 -0.10671379493E+03  0.21550215729E+03  0.00000000000E+00 0. -1.
<mgrwt>
<rscale>  4 0.43275180E+03</rscale>
<asrwt>0</asrwt>
<pdfrwt beam="1">  1        2 0.77951838E-01 0.43275180E+03</pdfrwt>
<pdfrwt beam="2">  1       -2 0.22110173E-01 0.43275180E+03</pdfrwt>
<totfact> 0.10859244E+03</totfact>
</mgrwt>
</event>
<event>
 5    0  0.5951167E-002  0.1076781E+04  0.7546771E-02  0.9228123E-01
          1   -1    0    0  502    0  0.00000000000E+00  0.00000000000E+00  0.25754265013E+04  0.25754265013E+04  0.00000000000E+00 0. -1.
         -1   -1    0    0    0  501 -0.00000000000E+00 -0.00000000000E+00 -0.18001988611E+03  0.18001988611E+03  0.00000000000E+00 0.  1.
         25    1    1    2    0    0 -0.31340609949E+03  0.14705455727E+03  0.14580446036E+04  0.15037843902E+04  0.12500000000E+03 0.  0.
         21    1    1    2  502  503  0.47466737699E+02 -0.26718131814E+02  0.95752045063E+03  0.95906848720E+03  0.00000000000E+00 0.  1.
         21    1    1    2  503  501  0.26593936179E+03 -0.12033642545E+03 -0.20158439062E+02  0.29259351002E+03  0.00000000000E+00 0.  1.
<mgrwt>
<rscale>  4 0.10767808E+04</rscale>
<asrwt>0</asrwt>
<pdfrwt beam="1">  1        1 0.39621944E+00 0.10767808E+04</pdfrwt>
<pdfrwt beam="2">  1       -1 0.27695369E-01 0.10767808E+04</pdfrwt>
<totfact> 0.14208626E+01</totfact>
</mgrwt>
</event>
<event>
 5    0  0.2754780E-002  0.4695686E+03  0.7546771E-02  0.1022042E+00
          3   -1    0    0  502    0  0.00000000000E+00  0.00000000000E+00  0.58163624334E+03  0.58163624334E+03  0.00000000000E+00 0.  1.
         -3   -1    0    0    0  501 -0.00000000000E+00 -0.00000000000E+00 -0.11276160631E+03  0.11276160631E+03  0.00000000000E+00 0. -1.
         25    1    1    2    0    0 -0.89472458886E+02 -0.18029595880E+03  0.87488697246E+02  0.25256924952E+03  0.12500000000E+03 0.  0.
         21    1    1    2  502  503  0.48796344973E+02  0.17374784898E+03  0.32826852911E+03  0.37460596032E+03  0.00000000000E+00 0.  1.
         21    1    1    2  503  501  0.40676113913E+02  0.65481098196E+01  0.53117410683E+02  0.67222639809E+02  0.00000000000E+00 0.  1.
<mgrwt>
<rscale>  4 0.46956860E+03</rscale>
<asrwt>0</asrwt>
<pdfrwt beam="1">  1        3 0.89482497E-01 0.46956860E+03</pdfrwt>
<pdfrwt beam="2">  1       -3 0.17347940E-01 0.46956860E+03</pdfrwt>
<totfact> 0.87109222E+01</totfact>
</mgrwt>
</event>
<event>
 5    0  0.2754780E-002  0.5190645E+03  0.7546771E-02  0.1008919E+00
          2   -1    0    0  503    0  0.00000000000E+00  0.00000000000E+00  0.68797701286E+03  0.68797701286E+03  0.00000000000E+00 0. -1.
         -2   -1    0    0    0  501 -0.00000000000E+00 -0.00000000000E+00 -0.25524742715E+03  0.25524742715E+03  0.00000000000E+00 0.  1.
         25    1    1    2    0    0 -0.12854421015E+03  0.18156907336E+03 -0.14313825542E+03  0.29258247133E+03  0.12500000000E+03 0.  0.
         21    1    1    2  502  501  0.60419214952E+02 -0.33538185487E+02  0.41828941308E+03  0.42395910713E+03  0.00000000000E+00 0. -1.
         21    1    1    2  503  502  0.68124995201E+02 -0.14803088787E+03  0.15757842805E+03  0.22668286155E+03  0.00000000000E+00 0. -1.
<mgrwt>
<rscale>  4 0.51906451E+03</rscale>
<asrwt>0</asrwt>
<pdfrwt beam="1">  1        2 0.10584262E+00 0.51906451E+03</pdfrwt>
<pdfrwt beam="2">  1       -2 0.39268835E-01 0.51906451E+03</pdfrwt>
<totfact> 0.26186830E+02</totfact>
</mgrwt>
</event>
<event>
 5    0  0.2754780E-002  0.5876815E+03  0.7546771E-02  0.9931298E-01
          2   -1    0    0  502    0  0.00000000000E+00  0.00000000000E+00  0.10164765635E+04  0.10164765635E+04  0.00000000000E+00 0. -1.
         -2   -1    0    0    0  501 -0.00000000000E+00 -0.00000000000E+00 -0.28606959344E+03  0.28606959344E+03  0.00000000000E+00 0.  1.
         25    1    1    2    0    0  0.29020727446E+03 -0.11955226309E+02 -0.51739014716E+02  0.32041397477E+03  0.12500000000E+03 0.  0.
         21    1    1    2  502  503 -0.25821097747E+03  0.15054386099E+02  0.68236184354E+02  0.26749900987E+03  0.00000000000E+00 0. -1.
         21    1    1    2  503  501 -0.31996296988E+02 -0.30991597901E+01  0.71390980042E+03  0.71463317230E+03  0.00000000000E+00 0. -1.
<mgrwt>
<rscale>  4 0.58768148E+03</rscale>
<asrwt>0</asrwt>
<pdfrwt beam="1">  1        2 0.15638101E+00 0.58768148E+03</pdfrwt>
<pdfrwt beam="2">  1       -2 0.44010707E-01 0.58768148E+03</pdfrwt>
<totfact> 0.12346086E+02</totfact>
</mgrwt>
</event>
<event>
 5    0  0.2754780E-002  0.4116353E+03  0.7546771E-02  0.1039824E+00
          2   -1    0    0  503    0  0.00000000000E+00  0.00000000000E+00  0.14710281898E+04  0.14710281898E+04  0.00000000000E+00 0.  1.
         -2   -1    0    0    0  501 -0.00000000000E+00 -0.00000000000E+00 -0.41213078331E+02  0.41213078331E+02  0.00000000000E+00 0. -1.
         25    1    1    2    0    0  0.14510594454E+03 -0.13769002906E+03  0.76902868391E+03  0.80439069856E+03  0.12500000000E+03 0.  0.
         21    1    1    2  502  501  0.69786731678E+01  0.72261666469E+02  0.33064923746E+03  0.33852528496E+03  0.00000000000E+00 0.  1.
         21    1    1    2  503  502 -0.15208461771E+03  0.65428362590E+02  0.33013719010E+03  0.36932528463E+03  0.00000000000E+00 0. -1.
<mgrwt>
<rscale>  4 0.41163526E+03</rscale>
<asrwt>0</asrwt>
<pdfrwt beam="1">  1        2 0.22631199E+00 0.41163526E+03</pdfrwt>
<pdfrwt beam="2">  1       -2 0.63404747E-02 0.41163526E+03</pdfrwt>
<totfact> 0.19151400E+03</totfact>
</mgrwt>
</event>
<event>
 5    0  0.2754780E-002  0.4517573E+03  0.7546771E-02  0.1027199E+00
         -2   -1    0    0    0  501 -0.00000000000E+00  0.00000000000E+00  0.84737601883E+02  0.84737601883E+02  0.00000000000E+00 0. -1.
          2   -1    0    0  502    0  0.00000000000E+00 -0.00000000000E+00 -0.10414630300E+04  0.10414630300E+04  0.00000000000E+00 0.  1.
         25    1    1    2    0    0 -0.56189199680E+02 -0.21816705297E+03 -0.32355822381E+03  0.41360490007E+03  0.12500000000E+03 0.  0.
         21    1    1    2  502  503 -0.11435058732E+02  0.19344387392E+03 -0.21988452260E+03  0.29308786431E+03  0.00000000000E+00 0.  1.
         21    1    1    2  503  501  0.67624258412E+02  0.24723179052E+02 -0.41328268174E+03  0.41950786755E+03  0.00000000000E+00 0.  1.
<mgrwt>
<rscale>  4 0.45175729E+03</rscale>
<asrwt>0</asrwt>
<pdfrwt beam="1">  1        2 0.16022508E+00 0.45175729E+03</pdfrwt>
<pdfrwt beam="2">  1       -2 0.13036555E-01 0.45175729E+03</pdfrwt>
<totfact> 0.10645936E+03</totfact>
</mgrwt>
</event>
<event>
 5    0  0.2754780E-002  0.8425152E+03  0.7546771E-02  0.9500438E-01
          2   -1    0    0  503    0  0.00000000000E+00  0.00000000000E+00  0.20685367539E+04  0.20685367539E+04  0.00000000000E+00 0. -1.
         -2   -1    0    0    0  501 -0.00000000000E+00 -0.00000000000E+00 -0.47679025570E+03  0.47679025570E+03  0.00000000000E+00 0.  1.
         25    1    1    2    0    0 -0.20653899533E+03  0.14936117711E+03  0.24146652027E+03  0.37269048583E+03  0.12500000000E+03 0.  0.
         21    1    1    2  502  501  0.23198336550E+03 -0.30267873687E+03  0.17251656468E+04  0.17668127259E+04  0.00000000000E+00 0. -1.
         21    1    1    2  503  502 -0.25444370173E+02  0.15331755976E+03 -0.37488566891E+03  0.40582379780E+03  0.00000000000E+00 0.  1.
<mgrwt>
<rscale>  4 0.84251523E+03</rscale>
<asrwt>0</asrwt>
<pdfrwt beam="1">  1        2 0.31823642E+00 0.84251523E+03</pdfrwt>
<pdfrwt beam="2">  1       -2 0.73352348E-01 0.84251523E+03</pdfrwt>
<totfact> 0.10501963E+01</totfact>
</mgrwt>
</event>
<event>
 5    0  0.2754780E-002  0.4925492E+03  0.7546771E-02  0.1015742E+00
         -1   -1    0    0    0  501 -0.00000000000E+00  0.00000000000E+00  0.12942570419E+03  0.12942570419E+03  0.00000000000E+00 0.  1.
          1   -1    0    0  502    0  0.00000000000E+00 -0.00000000000E+00 -0.59846314356E+03  0.59846314356E+03  0.00000000000E+00 0. -1.
         25    1    1    2    0    0  0.21985497074E+01 -0.22156158388E+03 -0.31688252651E+03  0.40636671207E+03  0.12500000000E+03 0.  0.
         21    1    1    2  502  503 -0.89188868033E+01  0.19360424508E+03 -0.30108493401E+02  0.19613432037E+03  0.00000000000E+00 0.  1.
         21    1    1    2  503  501  0.67203370960E+01  0.27957338808E+02 -0.12204641947E+03  0.12538781531E+03  0.00000000000E+00 0. -1.
<mgrwt>
<rscale>  4 0.49254921E+03</rscale>
<asrwt>0</asrwt>
<pdfrwt beam="1">  1        1 0.92071251E-01 0.49254921E+03</pdfrwt>
<pdfrwt beam="2">  1       -1 0.19911647E-01 0.49254921E+03</pdfrwt>
<totfact> 0.71516437E+02</totfact>
</mgrwt>
</event>
<event>
 5    0  0.2754780E-002  0.5567314E+03  0.7546771E-02  0.9999478E-01
         -2   -1    0    0    0  501 -0.00000000000E+00  0.00000000000E+00  0.42761532030E+03  0.42761532030E+03  0.00000000000E+00 0. -1.
          2   -1    0    0  503    0  0.00000000000E+00 -0.00000000000E+00 -0.18120831887E+03  0.18120831887E+03  0.00000000000E+00 0.  1.
         25    1    1    2    0    0  0.55656806291E+02 -0.19387465776E+03  0.30985511909E+03  0.39028227969E+03  0.12500000000E+03 0.  0.
         21    1    1    2  502  501  0.81365482380E+01  0.22507481555E+02 -0.18479623752E+02  0.30237173102E+02  0.00000000000E+00 0. -1.
         21    1    1    2  503  502 -0.63793354529E+02  0.17136717621E+03 -0.44968493905E+02  0.18830418638E+03  0.00000000000E+00 0.  1.
<mgrwt>
<rscale>  4 0.55673137E+03</rscale>
<asrwt>0</asrwt>
<pdfrwt beam="1">  1        2 0.27878203E-01 0.55673137E+03</pdfrwt>
<pdfrwt beam="2">  1       -2 0.65786972E-01 0.55673137E+03</pdfrwt>
<totfact> 0.41543733E+02</totfact>
</mgrwt>
</event>
<event>
 5    0  0.2754780E-002  0.9585027E+03  0.7546771E-02  0.9355267E-01
         -2   -1    0    0    0  501 -0.00000000000E+00  0.00000000000E+00  0.19610087539E+03  0.19610087539E+03  0.00000000000E+00 0.  1.
          2   -1    0    0  503    0  0.00000000000E+00 -0.00000000000E+00 -0.12996244602E+04  0.12996244602E+04  0.00000000000E+00 0. -1.
         25    1    1    2    0    0  0.47379910283E+03 -0.47483302256E+02 -0.39833083876E+03  0.63327143544E+03  0.12500000000E+03 0.  0.
         21    1    1    2  502  501 -0.22591940581E+02  0.26563373258E+02 -0.10921587371E+03  0.11464778955E+03  0.00000000000E+00 0.  1.
         21    1    1    2  503  502 -0.45120716225E+03  0.20919928998E+02 -0.59597687235E+03  0.74780611062E+03  0.00000000000E+00 0. -1.
<mgrwt>
<rscale>  4 0.95850267E+03</rscale>
<asrwt>0</asrwt>
<pdfrwt beam="1">  1        2 0.19994222E+00 0.95850267E+03</pdfrwt>
<pdfrwt beam="2">  1       -2 0.30169366E-01 0.95850267E+03</pdfrwt>
<totfact> 0.16772756E+02</totfact>
</mgrwt>
</event>
<event>
 5    0  0.2754780E-002  0.5115270E+03  0.7546771E-02  0.1010813E+00
          2   -1    0    0  502    0  0.00000000000E+00  0.00000000000E+00  0.44943169538E+03  0.44943169538E+03  0.00000000000E+00 0.  1.
         -2   -1    0    0    0  501 -0.00000000000E+00 -0.00000000000E+00 -0.20964896227E+03  0.20964896227E+03  0.00000000000E+00 0. -1.
         25    1    1    2    0    0 -0.18017192913E+03 -0.16727038871E+03 -0.29871487943E+02  0.27741415389E+03  0.12500000000E+03 0.  0.
         21    1    1    2  502  503  0.16061361316E+03  0.11825522133E+03  0.14586743493E+03  0.24709985568E+03  0.00000000000E+00 0.  1.
         21    1    1    2  503  501  0.19558315967E+02  0.49015167383E+02  0.12378678612E+03  0.13456664807E+03  0.00000000000E+00 0.  1.
<mgrwt>
<rscale>  4 0.51152701E+03</rscale>
<asrwt>0</asrwt>
<pdfrwt beam="1">  1        2 0.69143338E-01 0.51152701E+03</pdfrwt>
<pdfrwt beam="2">  1       -2 0.32253687E-01 0.51152701E+03</pdfrwt>
<totfact> 0.62818124E+02</totfact>
</mgrwt>
</event>
<event>
 5    0  0.2754780E-002  0.5312413E+03  0.7546771E-02  0.1005932E+00
         -1   -1    0    0    0  501 -0.00000000000E+00  0.00000000000E+00  0.27810438042E+03  0.27810438042E+03  0.00000000000E+00 0.  1.
          1   -1    0    0  503    0  0.00000000000E+00 -0.00000000000E+00 -0.36536973517E+03  0.36536973517E+03  0.00000000000E+00 0. -1.
         25    1    1    2    0    0  0.11456560860E+03 -0.17326349899E+03  0.13602503479E+03  0.27798080661E+03  0.12500000000E+03 0.  0.
         21    1    1    2  502  501  0.37668315629E+02  0.85256903378E+01 -0.10506103060E+03  0.11193484510E+03  0.00000000000E+00 0.  1.
         21    1    1    2  503  502 -0.15223392423E+03  0.16473780865E+03 -0.11822935894E+03  0.25355846387E+03  0.00000000000E+00 0. -1.
<mgrwt>
<rscale>  4 0.53124129E+03</rscale>
<asrwt>0</asrwt>
<pdfrwt beam="1">  1        1 0.56210729E-01 0.53124129E+03</pdfrwt>
<pdfrwt beam="2">  1       -1 0.42785289E-01 0.53124129E+03</pdfrwt>
<totfact> 0.37018851E+02</totfact>
</mgrwt>
</event>
<event>
 5    0  0.2754780E-002  0.4023463E+03  0.7546771E-02  0.1042970E+00
          2   -1    0    0  502    0  0.00000000000E+00  0.00000000000E+00  0.20727114209E+04  0.20727114209E+04  0.00000000000E+00 0. -1.
         -2   -1    0    0    0  501 -0.00000000000E+00 -0.00000000000E+00 -0.36986010484E+02  0.36986010484E+02  0.00000000000E+00 0.  1.
         25    1    1    2    0    0 -0.43735008990E+02 -0.21775466617E+03  0.10844718715E+04  0.11140170940E+04  0.12500000000E+03 0.  0.
         21    1    1    2  502  503  0.77334166012E+02  0.12180760488E+03  0.80337739085E+03  0.81623090972E+03  0.00000000000E+00 0. -1.
         21    1    1    2  503  501 -0.33599157022E+02  0.95947061287E+02  0.14787614801E+03  0.17944942762E+03  0.00000000000E+00 0. -1.
<mgrwt>
<rscale>  4 0.40234627E+03</rscale>
<asrwt>0</asrwt>
<pdfrwt beam="1">  1        2 0.31887859E+00 0.40234627E+03</pdfrwt>
<pdfrwt beam="2">  1       -2 0.56901571E-02 0.40234627E+03</pdfrwt>
<totfact> 0.10779874E+03</totfact>
</mgrwt>
</event>
<event>
 5    0  0.2754780E-002  0.4183894E+03  0.7546771E-02  0.1037592E+00
         -2   -1    0    0    0  501 -0.00000000000E+00  0.00000000000E+00  0.41685703842E+02  0.41685703842E+02  0.00000000000E+00 0.  1.
          2   -1    0    0  502    0  0.00000000000E+00 -0.00000000000E+00 -0.20140071215E+04  0.20140071215E+04  0.00000000000E+00 0. -1.
         25    1    1    2    0    0  0.10820486305E+03  0.18807904515E+03 -0.61071374678E+03  0.66005931560E+03  0.12500000000E+03 0.  0.
         21    1    1    2  502  503 -0.85980691499E+02 -0.14429589836E+03 -0.41431578481E+03  0.44706996671E+03  0.00000000000E+00 0. -1.
         21    1    1    2  503  501 -0.22224171548E+02 -0.43783146784E+02 -0.94729188606E+03  0.94856354301E+03  0.00000000000E+00 0. -1.
<mgrwt>
<rscale>  4 0.41838942E+03</rscale>
<asrwt>0</asrwt>
<pdfrwt beam="1">  1        2 0.30984726E+00 0.41838942E+03</pdfrwt>
<pdfrwt beam="2">  1       -2 0.64131849E-02 0.41838942E+03</pdfrwt>
<totfact> 0.96084742E+02</totfact>
</mgrwt>
</event>
<event>
 5    0  0.2754780E-002  0.6843743E+03  0.7546771E-02  0.9744334E-01
          2   -1    0    0  503    0  0.00000000000E+00  0.00000000000E+00  0.20287779131E+04  0.20287779131E+04  0.00000000000E+00 0.  1.
         -2   -1    0    0    0  501 -0.00000000000E+00 -0.00000000000E+00 -0.93886455797E+02  0.93886455797E+02  0.00000000000E+00 0. -1.
         25    1    1    2    0    0  0.43920833823E+02 -0.34414924950E+03  0.58447494143E+03  0.69108878065E+03  0.12500000000E+03 0.  0.
         21    1    1    2  502  501 -0.11015185414E+03  0.20087678578E+03  0.11684218628E+04  0.11906697962E+04  0.00000000000E+00 0. -1.
         21    1    1    2  503  502  0.66231020316E+02  0.14327246372E+03  0.18199465308E+03  0.24090579209E+03  0.00000000000E+00 0. -1.
<mgrwt>
<rscale>  4 0.68437427E+03</rscale>
<asrwt>0</asrwt>
<pdfrwt beam="1">  1        2 0.31211965E+00 0.68437427E+03</pdfrwt>
<pdfrwt beam="2">  1       -2 0.14444072E-01 0.68437427E+03</pdfrwt>
<totfact> 0.24777086E+02</totfact>
</mgrwt>
</event>
<event>
 5    0  0.2754780E-002  0.5562502E+03  0.7546771E-02  0.1000058E+00
         -1   -1    0    0    0  501 -0.00000000000E+00  0.00000000000E+00  0.51098610911E+02  0.51098610911E+02  0.00000000000E+00 0. -1.
          1   -1    0    0  503    0  0.00000000000E+00 -0.00000000000E+00 -0.15138097492E+04  0.15138097492E+04  0.00000000000E+00 0.  1.
         25    1    1    2    0    0  0.85228514052E+02  0.18313953599E+03 -0.29806549912E+03  0.38114568214E+03  0.12500000000E+03 0.  0.
         21    1    1    2  502  501 -0.10229243801E+02 -0.28821372661E+02 -0.34490444660E+03  0.34625768762E+03  0.00000000000E+00 0. -1.
         21    1    1    2  503  502 -0.74999270251E+02 -0.15431816333E+03 -0.81974119260E+03  0.83750499038E+03  0.00000000000E+00 0.  1.
<mgrwt>
<rscale>  4 0.55625021E+03</rscale>
<asrwt>0</asrwt>
<pdfrwt beam="1">  1        1 0.23289381E+00 0.55625021E+03</pdfrwt>
<pdfrwt beam="2">  1       -1 0.78613245E-02 0.55625021E+03</pdfrwt>
<totfact> 0.60660141E+02</totfact>
</mgrwt>
</event>
<event>
 5    0  0.2754780E-002  0.6420875E+03  0.7546771E-02  0.9821741E-01
          2   -1    0    0  503    0  0.00000000000E+00  0.00000000000E+00  0.31463819048E+03  0.31463819048E+03  0.00000000000E+00 0.  1.
         -2   -1    0    0    0  501 -0.00000000000E+00 -0.00000000000E+00 -0.95995382052E+03  0.95995382052E+03  0.00000000000E+00 0. -1.
         25    1    1    2    0    0 -0.21506890647E+03  0.81975560618E+02 -0.12174261463E+03  0.28882674960E+03  0.12500000000E+03 0.  0.
         21    1    1    2  502  501 -0.45633169065E+02 -0.13964087612E+02  0.20420982379E+03  0.20971178792E+03  0.00000000000E+00 0.  1.
         21    1    1    2  503  502  0.26070207554E+03 -0.68011473007E+02 -0.72778283920E+03  0.77605347347E+03  0.00000000000E+00 0. -1.
<mgrwt>
<rscale>  4 0.64208753E+03</rscale>
<asrwt>0</asrwt>
<pdfrwt beam="1">  1        2 0.48405876E-01 0.64208753E+03</pdfrwt>
<pdfrwt beam="2">  1       -2 0.14768520E+00 0.64208753E+03</pdfrwt>
<totfact> 0.33150461E+01</totfact>
</mgrwt>
</event>
<event>
 5    0  0.2754780E-002  0.4225742E+03  0.7546771E-02  0.1036232E+00
          2   -1    0    0  502    0  0.00000000000E+00  0.00000000000E+00  0.16406183390E+04  0.16406183390E+04  0.00000000000E+00 0. -1.
         -2   -1    0    0    0  501 -0.00000000000E+00 -0.00000000000E+00 -0.68502334974E+02  0.68502334974E+02  0.00000000000E+00 0.  1.
         25    1    1    2    0    0  0.52064279981E+02  0.19919908282E+03  0.29389955932E+03  0.37999067727E+03  0.12500000000E+03 0.  0.
         21    1    1    2  502  503 -0.66849580399E+02 -0.16576945777E+03  0.29286641940E+03  0.34310219927E+03  0.00000000000E+00 0. -1.
         21    1    1    2  503  501  0.14785300418E+02 -0.33429625047E+02  0.98535002535E+03  0.98602779748E+03  0.00000000000E+00 0. -1.
<mgrwt>
<rscale>  4 0.42257425E+03</rscale>
<asrwt>0</asrwt>
<pdfrwt beam="1">  1        2 0.25240279E+00 0.42257425E+03</pdfrwt>
<pdfrwt beam="2">  1       -2 0.10538822E-01 0.42257425E+03</pdfrwt>
<totfact> 0.69148010E+02</totfact>
</mgrwt>
</event>
<event>
 5    0  0.2754780E-002  0.5053239E+03  0.7546771E-02  0.1012399E+00
          2   -1    0    0  503    0  0.00000000000E+00  0.00000000000E+00  0.11802113195E+04  0.11802113195E+04  0.00000000000E+00 0.  1.
         -2   -1    0    0    0  501 -0.00000000000E+00 -0.00000000000E+00 -0.93916014340E+02  0.93916014340E+02  0.00000000000E+00 0. -1.
         25    1    1    2    0    0 -0.21193404584E+03  0.25248659147E+02  0.50513982000E+03  0.56244535052E+03  0.12500000000E+03 0.  0.
         21    1    1    2  502  501  0.20987207861E+02  0.22165411265E+02  0.49659822750E+03  0.49753549412E+03  0.00000000000E+00 0.  1.
         21    1    1    2  503  502  0.19094683798E+03 -0.47414070412E+02  0.84557257627E+02  0.21414648917E+03  0.00000000000E+00 0. -1.
<mgrwt>
<rscale>  4 0.50532390E+03</rscale>
<asrwt>0</asrwt>
<pdfrwt beam="1">  1        2 0.18157096E+00 0.50532390E+03</pdfrwt>
<pdfrwt beam="2">  1       -2 0.14448618E-01 0.50532390E+03</pdfrwt>
<totfact> 0.73909221E+02</totfact>
</mgrwt>
</event>
<event>
 5    0  0.2754780E-002  0.4988352E+03  0.7546771E-02  0.1014083E+00
         -2   -1    0    0    0  501 -0.00000000000E+00  0.00000000000E+00  0.69899337107E+02  0.69899337107E+02  0.00000000000E+00 0. -1.
          2   -1    0    0  502    0  0.00000000000E+00 -0.00000000000E+00 -0.11025238229E+04  0.11025238229E+04  0.00000000000E+00 0.  1.
         25    1    1    2    0    0  0.16947133077E+03  0.11668157775E+03 -0.64055847060E+03  0.68430642025E+03  0.12500000000E+03 0.  0.
         21    1    1    2  502  503 -0.18874608436E+03 -0.97434939664E+02 -0.19237869782E+03  0.28658020728E+03  0.00000000000E+00 0. -1.
         21    1    1    2  503  501  0.19274753588E+02 -0.19246638084E+02 -0.19968731734E+03  0.20153653244E+03  0.00000000000E+00 0. -1.
<mgrwt>
<rscale>  4 0.49883516E+03</rscale>
<asrwt>0</asrwt>
<pdfrwt beam="1">  1        2 0.16961904E+00 0.49883516E+03</pdfrwt>
<pdfrwt beam="2">  1       -2 0.10753745E-01 0.49883516E+03</pdfrwt>
<totfact> 0.13379883E+03</totfact>
</mgrwt>
</event>
<event>
 5    0  0.2754780E-002  0.6452042E+03  0.7546771E-02  0.9815820E-01
         -2   -1    0    0    0  501 -0.00000000000E+00  0.00000000000E+00  0.22437160767E+03  0.22437160767E+03  0.00000000000E+00 0.  1.
          2   -1    0    0  502    0  0.00000000000E+00 -0.00000000000E+00 -0.67042917276E+03  0.67042917276E+03  0.00000000000E+00 0. -1.
         25    1    1    2    0    0  0.91639174839E+01 -0.33427819547E+03 -0.55070794993E+02  0.36122525079E+03  0.12500000000E+03 0.  0.
         21    1    1    2  502  503 -0.73716722591E+01  0.26436074144E+03 -0.20419914945E+03  0.33412308481E+03  0.00000000000E+00 0. -1.
         21    1    1    2  503  501 -0.17922452247E+01  0.69917454024E+02 -0.18678762065E+03  0.19945244483E+03  0.00000000000E+00 0. -1.
<mgrwt>
<rscale>  4 0.64520416E+03</rscale>
<asrwt>0</asrwt>
<pdfrwt beam="1">  1        2 0.10314295E+00 0.64520416E+03</pdfrwt>
<pdfrwt beam="2">  1       -2 0.34518709E-01 0.64520416E+03</pdfrwt>
<totfact> 0.34393914E+02</totfact>
</mgrwt>
</event>
<event>
 5    0  0.2754780E-002  0.4375507E+03  0.7546771E-02  0.1031501E+00
         -2   -1    0    0    0  501 -0.00000000000E+00  0.00000000000E+00  0.27357729185E+02  0.27357729185E+02  0.00000000000E+00 0. -1.
          2   -1    0    0  502    0  0.00000000000E+00 -0.00000000000E+00 -0.31375502477E+04  0.31375502477E+04  0.00000000000E+00 0.  1.
         25    1    1    2    0    0 -0.85032579404E+02  0.19626117394E+03 -0.98423127276E+03  0.10149311239E+04  0.12500000000E+03 0.  0.
         21    1    1    2  502  503  0.10154200036E+03 -0.16036827723E+03 -0.75661876547E+03  0.78006456043E+03  0.00000000000E+00 0.  1.
         21    1    1    2  503  501 -0.16509420956E+02 -0.35892896713E+02 -0.13693424803E+04  0.13699122925E+04  0.00000000000E+00 0.  1.
<mgrwt>
<rscale>  4 0.43755074E+03</rscale>
<asrwt>0</asrwt>
<pdfrwt beam="1">  1        2 0.48270000E+00 0.43755074E+03</pdfrwt>
<pdfrwt beam="2">  1       -2 0.42088817E-02 0.43755074E+03</pdfrwt>
<totfact> 0.42366457E+02</totfact>
</mgrwt>
</event>
<event>
 5    0  0.2754780E-002  0.7654411E+03  0.7546771E-02  0.9611432E-01
         -2   -1    0    0    0  501 -0.00000000000E+00  0.00000000000E+00  0.14870053465E+03  0.14870053465E+03  0.00000000000E+00 0. -1.
          2   -1    0    0  502    0  0.00000000000E+00 -0.00000000000E+00 -0.12661705476E+04  0.12661705476E+04  0.00000000000E+00 0.  1.
         25    1    1    2    0    0  0.29591321586E+03 -0.15200663987E+03 -0.66426524359E+03  0.75335513785E+03  0.12500000000E+03 0.  0.
         21    1    1    2  502  503 -0.29340464505E+03  0.17204299074E+03 -0.17486238125E+03  0.38244205937E+03  0.00000000000E+00 0. -1.
         21    1    1    2  503  501 -0.25085708035E+01 -0.20036350868E+02 -0.27834238813E+03  0.27907388504E+03  0.00000000000E+00 0.  1.
<mgrwt>
<rscale>  4 0.76544112E+03</rscale>
<asrwt>0</asrwt>
<pdfrwt beam="1">  1        2 0.19479547E+00 0.76544112E+03</pdfrwt>
<pdfrwt beam="2">  1       -2 0.22877005E-01 0.76544112E+03</pdfrwt>
<totfact> 0.29371130E+02</totfact>
</mgrwt>
</event>
<event>
 5    0  0.2754780E-002  0.1166551E+04  0.7546771E-02  0.9142649E-01
          2   -1    0    0  502    0  0.00000000000E+00  0.00000000000E+00  0.95128185736E+03  0.95128185736E+03  0.00000000000E+00 0. -1.
         -2   -1    0    0    0  501 -0.00000000000E+00 -0.00000000000E+00 -0.59315722109E+03  0.59315722109E+03  0.00000000000E+00 0.  1.
         25    1    1    2    0    0 -0.24895674620E+03  0.17479264371E+03 -0.27021489509E+03  0.42564424031E+03  0.12500000000E+03 0.  0.
         21    1    1    2  502  503 -0.40120068332E+02 -0.18127176428E+03 -0.18104072327E+03  0.25931605405E+03  0.00000000000E+00 0. -1.
         21    1    1    2  503  501  0.28907681454E+03  0.64791205727E+01  0.80938025463E+03  0.85947878409E+03  0.00000000000E+00 0. -1.
<mgrwt>
<rscale>  4 0.11665513E+04</rscale>
<asrwt>0</asrwt>
<pdfrwt beam="1">  1        2 0.14635106E+00 0.11665513E+04</pdfrwt>
<pdfrwt beam="2">  1       -2 0.91254957E-01 0.11665513E+04</pdfrwt>
<totfact> 0.27287900E+01</totfact>
</mgrwt>
</event>
<event>
 5    0  0.2754780E-002  0.7838209E+03  0.7546771E-02  0.9583735E-01
          2   -1    0    0  503    0  0.00000000000E+00  0.00000000000E+00  0.98246924213E+03  0.98246924213E+03  0.00000000000E+00 0.  1.
         -2   -1    0    0    0  501 -0.00000000000E+00 -0.00000000000E+00 -0.17545615620E+03  0.17545615620E+03  0.00000000000E+00 0. -1.
         25    1    1    2    0    0  0.37912011028E+03 -0.69561391476E+02  0.36464298699E+03  0.54512416307E+03  0.12500000000E+03 0.  0.
         21    1    1    2  502  501 -0.14815475846E+02 -0.33114341219E+02  0.84277397868E+02  0.91753679547E+02  0.00000000000E+00 0. -1.
         21    1    1    2  503  502 -0.36430463443E+03  0.10267573269E+03  0.35809270108E+03  0.52104755572E+03  0.00000000000E+00 0. -1.
<mgrwt>
<rscale>  4 0.78382094E+03</rscale>
<asrwt>0</asrwt>
<pdfrwt beam="1">  1        2 0.15114911E+00 0.78382094E+03</pdfrwt>
<pdfrwt beam="2">  1       -2 0.26993255E-01 0.78382094E+03</pdfrwt>
<totfact> 0.32411486E+02</totfact>
</mgrwt>
</event>
<event>
 5    0  0.2754780E-002  0.4347671E+03  0.7546771E-02  0.1032365E+00
         -3   -1    0    0    0  501 -0.00000000000E+00  0.00000000000E+00  0.14585140980E+03  0.14585140980E+03  0.00000000000E+00 0. -1.
          3   -1    0    0  503    0  0.00000000000E+00 -0.00000000000E+00 -0.38449228880E+03  0.38449228880E+03  0.00000000000E+00 0.  1.
         25    1    1    2    0    0 -0.64642946821E+01 -0.20706869816E+03 -0.14772021400E+03  0.28348808526E+03  0.12500000000E+03 0.  0.
         21    1    1    2  502  501  0.16222508460E+02  0.21226845034E+02 -0.49431213875E+02  0.56188910258E+02  0.00000000000E+00 0.  1.
         21    1    1    2  503  502 -0.97582137782E+01  0.18584185312E+03 -0.41489451125E+02  0.19066670308E+03  0.00000000000E+00 0. -1.
<mgrwt>
<rscale>  4 0.43476714E+03</rscale>
<asrwt>0</asrwt>
<pdfrwt beam="1">  1        3 0.59152660E-01 0.43476714E+03</pdfrwt>
<pdfrwt beam="2">  1       -3 0.22438679E-01 0.43476714E+03</pdfrwt>
<totfact> 0.13462435E+02</totfact>
</mgrwt>
</event>
<event>
 5    0  0.2754780E-002  0.5947402E+03  0.7546771E-02  0.9916379E-01
          2   -1    0    0  502    0  0.00000000000E+00  0.00000000000E+00  0.51963731388E+03  0.51963731388E+03  0.00000000000E+00 0. -1.
         -2   -1    0    0    0  501 -0.00000000000E+00 -0.00000000000E+00 -0.24858318573E+03  0.24858318573E+03  0.00000000000E+00 0.  1.
         25    1    1    2    0    0  0.94010379403E+02  0.26026940974E+03  0.33065627873E+03  0.44892838153E+03  0.12500000000E+03 0.  0.
         21    1    1    2  502  503 -0.36171176397E+02 -0.31865026274E+02 -0.68205899571E+02  0.83521126894E+02  0.00000000000E+00 0.  1.
         21    1    1    2  503  501 -0.57839203006E+02 -0.22840438346E+03  0.86037489930E+01  0.23577099119E+03  0.00000000000E+00 0. -1.
<mgrwt>
<rscale>  4 0.59474017E+03</rscale>
<asrwt>0</asrwt>
<pdfrwt beam="1">  1        2 0.79944202E-01 0.59474017E+03</pdfrwt>
<pdfrwt beam="2">  1       -2 0.38243567E-01 0.59474017E+03</pdfrwt>
<totfact> 0.38435009E+02</totfact>
</mgrwt>
</event>
<event>
 5    0  0.2754780E-002  0.7017380E+03  0.7546771E-02  0.9714265E-01
          1   -1    0    0  502    0  0.00000000000E+00  0.00000000000E+00  0.11921070924E+04  0.11921070924E+04  0.00000000000E+00 0.  1.
         -1   -1    0    0    0  501 -0.00000000000E+00 -0.00000000000E+00 -0.15856709353E+03  0.15856709353E+03  0.00000000000E+00 0. -1.
         25    1    1    2    0    0  0.18960085788E+03  0.18967024232E+03  0.65683990873E+02  0.30308855602E+03  0.12500000000E+03 0.  0.
         21    1    1    2  502  503 -0.25233772076E+03 -0.16085982852E+03  0.56993573525E+03  0.64372117572E+03  0.00000000000E+00 0.  1.
         21    1    1    2  503  501  0.62736862883E+02 -0.28810413805E+02  0.39792027277E+03  0.40386445422E+03  0.00000000000E+00 0.  1.
<mgrwt>
<rscale>  4 0.70173801E+03</rscale>
<asrwt>0</asrwt>
<pdfrwt beam="1">  1        1 0.18340109E+00 0.70173801E+03</pdfrwt>
<pdfrwt beam="2">  1       -1 0.24394938E-01 0.70173801E+03</pdfrwt>
<totfact> 0.16134496E+02</totfact>
</mgrwt>
</event>
<event>
 5    0  0.2754780E-002  0.5301753E+03  0.7546771E-02  0.1006190E+00
         -2   -1    0    0    0  501 -0.00000000000E+00  0.00000000000E+00  0.51561748321E+02  0.51561748321E+02  0.00000000000E+00 0.  1.
          2   -1    0    0  503    0  0.00000000000E+00 -0.00000000000E+00 -0.22241307625E+04  0.22241307625E+04  0.00000000000E+00 0. -1.
         25    1    1    2    0    0  0.13044471124E+03  0.18773190145E+03 -0.49328051626E+03  0.55786177252E+03  0.12500000000E+03 0.  0.
         21    1    1    2  502  501 -0.37634629258E+02  0.45666738522E+02 -0.83185966470E+03  0.83396182051E+03  0.00000000000E+00 0. -1.
         21    1    1    2  503  502 -0.92810081979E+02 -0.23339863997E+03 -0.84742883320E+03  0.88386891776E+03  0.00000000000E+00 0. -1.
<mgrwt>
<rscale>  4 0.53017528E+03</rscale>
<asrwt>0</asrwt>
<pdfrwt beam="1">  1        2 0.34217391E+00 0.53017528E+03</pdfrwt>
<pdfrwt beam="2">  1       -2 0.79325779E-02 0.53017528E+03</pdfrwt>
<totfact> 0.52366737E+02</totfact>
</mgrwt>
</event>
<event>
 5    0  0.2754780E-002  0.7491610E+03  0.7546771E-02  0.9636667E-01
          2   -1    0    0  503    0  0.00000000000E+00  0.00000000000E+00  0.81662414063E+03  0.81662414063E+03  0.00000000000E+00 0.  1.
         -2   -1    0    0    0  501 -0.00000000000E+00 -0.00000000000E+00 -0.44878927901E+03  0.44878927901E+03  0.00000000000E+00 0. -1.
         25    1    1    2    0    0  0.41717752106E+03  0.10601556733E+02  0.23410089276E+02  0.43625968111E+03  0.12500000000E+03 0.  0.
         21    1    1    2  502  501 -0.13203251053E+03 -0.60354683213E+02  0.48579476850E+03  0.50702251304E+03  0.00000000000E+00 0.  1.
         21    1    1    2  503  502 -0.28514501053E+03  0.49753126480E+02 -0.14136999616E+03  0.32213122549E+03  0.00000000000E+00 0.  1.
<mgrwt>
<rscale>  4 0.74916102E+03</rscale>
<asrwt>0</asrwt>
<pdfrwt beam="1">  1        2 0.12563448E+00 0.74916102E+03</pdfrwt>
<pdfrwt beam="2">  1       -2 0.69044505E-01 0.74916102E+03</pdfrwt>
<totfact> 0.65056000E+01</totfact>
</mgrwt>
</event>
<event>
 5    0  0.2754780E-002  0.5633760E+03  0.7546771E-02  0.9984445E-01
          1   -1    0    0  502    0  0.00000000000E+00  0.00000000000E+00  0.95749947566E+03  0.95749947566E+03  0.00000000000E+00 0.  1.
         -1   -1    0    0    0  501 -0.00000000000E+00 -0.00000000000E+00 -0.14343376396E+03  0.14343376396E+03  0.00000000000E+00 0. -1.
         25    1    1    2    0    0  0.84103782274E+02 -0.22115785817E+03  0.43021391086E+03  0.50664904374E+03  0.12500000000E+03 0.  0.
         21    1    1    2  502  503 -0.13349757534E+03  0.15359368299E+03  0.21476591459E+01  0.20351224660E+03  0.00000000000E+00 0. -1.
         21    1    1    2  503  501  0.49393793064E+02  0.67564175188E+02  0.38170414169E+03  0.39077194928E+03  0.00000000000E+00 0. -1.
<mgrwt>
<rscale>  4 0.56337601E+03</rscale>
<asrwt>0</asrwt>
<pdfrwt beam="1">  1        1 0.14730761E+00 0.56337601E+03</pdfrwt>
<pdfrwt beam="2">  1       -1 0.22066733E-01 0.56337601E+03</pdfrwt>
<totfact> 0.28958146E+02</totfact>
</mgrwt>
</event>
<event>
 5    0  0.2754780E-002  0.5007359E+03  0.7546771E-02  0.1013587E+00
          2   -1    0    0  502    0  0.00000000000E+00  0.00000000000E+00  0.33522394014E+03  0.33522394014E+03  0.00000000000E+00 0. -1.
         -2   -1    0    0    0  501 -0.00000000000E+00 -0.00000000000E+00 -0.34848708869E+03  0.34848708869E+03  0.00000000000E+00 0.  1.
         25    1    1    2    0    0  0.10398359018E+03  0.21571457840E+03  0.57305304914E+02  0.27614174681E+03  0.12500000000E+03 0.  0.
         21    1    1    2  502  503 -0.53084812658E+02 -0.13040689825E+03 -0.19988929600E+03  0.24449884888E+03  0.00000000000E+00 0.  1.
         21    1    1    2  503  501 -0.50898777518E+02 -0.85307680151E+02  0.12932084254E+03  0.16307043313E+03  0.00000000000E+00 0.  1.
<mgrwt>
<rscale>  4 0.50073589E+03</rscale>
<asrwt>0</asrwt>
<pdfrwt beam="1">  1        2 0.51572914E-01 0.50073589E+03</pdfrwt>
<pdfrwt beam="2">  1       -2 0.53613398E-01 0.50073589E+03</pdfrwt>
<totfact> 0.32259168E+02</totfact>
</mgrwt>
</event>
<event>
 5    0  0.2754780E-002  0.4460128E+03  0.7546771E-02  0.1028918E+00
          1   -1    0    0  503    0  0.00000000000E+00  0.00000000000E+00  0.77559279499E+03  0.77559279499E+03  0.00000000000E+00 0.  1.
         -1   -1    0    0    0  501 -0.00000000000E+00 -0.00000000000E+00 -0.11849693533E+03  0.11849693533E+03  0.00000000000E+00 0. -1.
         25    1    1    2    0    0  0.97461355193E+02  0.21950967859E+03  0.16887053176E+03  0.31910103611E+03  0.12500000000E+03 0.  0.
         21    1    1    2  502  501 -0.79368744321E+01 -0.71136962714E+02  0.33847216405E+03  0.34595789813E+03  0.00000000000E+00 0. -1.
         21    1    1    2  503  502 -0.89524480761E+02 -0.14837271587E+03  0.14975316385E+03  0.22903079608E+03  0.00000000000E+00 0. -1.
<mgrwt>
<rscale>  4 0.44601283E+03</rscale>
<asrwt>0</asrwt>
<pdfrwt beam="1">  1        1 0.11932197E+00 0.44601283E+03</pdfrwt>
<pdfrwt beam="2">  1       -1 0.18230298E-01 0.44601283E+03</pdfrwt>
<totfact> 0.56429986E+02</totfact>
</mgrwt>
</event>
<event>
 5    0  0.2754780E-002  0.2092083E+04  0.7546771E-02  0.8564739E-01
          2   -1    0    0  502    0  0.00000000000E+00  0.00000000000E+00  0.35343510719E+04  0.35343510719E+04  0.00000000000E+00 0.  1.
         -2   -1    0    0    0  501 -0.00000000000E+00 -0.00000000000E+00 -0.52558360265E+03  0.52558360265E+03  0.00000000000E+00 0. -1.
         25    1    1    2    0    0 -0.98168639045E+03 -0.12715935037E+03  0.11387826359E+04  0.15140437779E+04  0.12500000000E+03 0.  0.
         21    1    1    2  502  503  0.10066193578E+04  0.93176750053E+02  0.41903408932E+03  0.10943281072E+04  0.00000000000E+00 0. -1.
         21    1    1    2  503  501 -0.24932967357E+02  0.33982600320E+02  0.14509507440E+04  0.14515627894E+04  0.00000000000E+00 0.  1.
<mgrwt>
<rscale>  4 0.20920829E+04</rscale>
<asrwt>0</asrwt>
<pdfrwt beam="1">  1        2 0.54374630E+00 0.20920829E+04</pdfrwt>
<pdfrwt beam="2">  1       -2 0.80859018E-01 0.20920829E+04</pdfrwt>
<totfact> 0.94887627E-01</totfact>
</mgrwt>
</event>
<event>
 5    0  0.2754780E-002  0.7351966E+03  0.7546771E-02  0.9658865E-01
          1   -1    0    0  503    0  0.00000000000E+00  0.00000000000E+00  0.11165429787E+04  0.11165429787E+04  0.00000000000E+00 0.  1.
         -1   -1    0    0    0  501 -0.00000000000E+00 -0.00000000000E+00 -0.18689970857E+03  0.18689970857E+03  0.00000000000E+00 0. -1.
         25    1    1    2    0    0  0.22945392863E+03  0.20525905278E+03  0.54182080114E+03  0.63559040636E+03  0.12500000000E+03 0.  0.
         21    1    1    2  502  501  0.17175070934E+00 -0.47600198206E+02  0.38638806627E+03  0.38930906247E+03  0.00000000000E+00 0.  1.
         21    1    1    2  503  502 -0.22962567934E+03 -0.15765885458E+03  0.14344027492E+01  0.27854321846E+03  0.00000000000E+00 0. -1.
<mgrwt>
<rscale>  4 0.73519662E+03</rscale>
<asrwt>0</asrwt>
<pdfrwt beam="1">  1        1 0.17177584E+00 0.73519662E+03</pdfrwt>
<pdfrwt beam="2">  1       -1 0.28753802E-01 0.73519662E+03</pdfrwt>
<totfact> 0.13788457E+02</totfact>
</mgrwt>
</event>
<event>
 5    0  0.2754780E-002  0.4347159E+03  0.7546771E-02  0.1032381E+00
          2   -1    0    0  502    0  0.00000000000E+00  0.00000000000E+00  0.46846472924E+03  0.46846472924E+03  0.00000000000E+00 0. -1.
         -2   -1    0    0    0  501 -0.00000000000E+00 -0.00000000000E+00 -0.12908881132E+03  0.12908881132E+03  0.00000000000E+00 0.  1.
         25    1    1    2    0    0  0.11123341194E+03  0.18073717180E+03  0.12147434862E+03  0.27462668220E+03  0.12500000000E+03 0.  0.
         21    1    1    2  502  503 -0.99036794672E+02 -0.15915410268E+03  0.12148978734E+03  0.22337878934E+03  0.00000000000E+00 0. -1.
         21    1    1    2  503  501 -0.12196617272E+02 -0.21583069122E+02  0.96411781965E+02  0.99548069028E+02  0.00000000000E+00 0. -1.
<mgrwt>
<rscale>  4 0.43471586E+03</rscale>
<asrwt>0</asrwt>
<pdfrwt beam="1">  1        2 0.72071496E-01 0.43471586E+03</pdfrwt>
<pdfrwt beam="2">  1       -2 0.19859817E-01 0.43471586E+03</pdfrwt>
<totfact> 0.14317362E+03</totfact>
</mgrwt>
</event>
<event>
 5    0  0.2754780E-002  0.4883229E+03  0.7546771E-02  0.1016873E+00
         -2   -1    0    0    0  501 -0.00000000000E+00  0.00000000000E+00  0.23919271188E+03  0.23919271188E+03  0.00000000000E+00 0. -1.
          2   -1    0    0  503    0  0.00000000000E+00 -0.00000000000E+00 -0.96922084938E+03  0.96922084938E+03  0.00000000000E+00 0.  1.
         25    1    1    2    0    0 -0.18146379103E+03 -0.11922462417E+03 -0.11149525260E+03  0.27422583725E+03  0.12500000000E+03 0.  0.
         21    1    1    2  502  501  0.20021952343E+02  0.20982844761E+02 -0.71939044120E+03  0.71997483653E+03  0.00000000000E+00 0.  1.
         21    1    1    2  503  502  0.16144183869E+03  0.98241779414E+02  0.10085755629E+03  0.21421288748E+03  0.00000000000E+00 0.  1.
<mgrwt>
<rscale>  4 0.48832287E+03</rscale>
<asrwt>0</asrwt>
<pdfrwt beam="1">  1        2 0.14911090E+00 0.48832287E+03</pdfrwt>
<pdfrwt beam="2">  1       -2 0.36798879E-01 0.48832287E+03</pdfrwt>
<totfact> 0.18891125E+02</totfact>
</mgrwt>
</event>
<event>
 5    0  0.2754780E-002  0.5393811E+03  0.7546771E-02  0.1003982E+00
          2   -1    0    0  502    0  0.00000000000E+00  0.00000000000E+00  0.17490987464E+04  0.17490987464E+04  0.00000000000E+00 0. -1.
         -2   -1    0    0    0  501 -0.00000000000E+00 -0.00000000000E+00 -0.79889424872E+02  0.79889424872E+02  0.00000000000E+00 0.  1.
         25    1    1    2    0    0  0.80630750024E+02 -0.23479593928E+03  0.52789715953E+03  0.59659941501E+03  0.12500000000E+03 0.  0.
         21    1    1    2  502  503 -0.10172579247E+03  0.23057888641E+03  0.30435012590E+03  0.39515029906E+03  0.00000000000E+00 0.  1.
         21    1    1    2  503  501  0.21095042442E+02  0.42170528651E+01  0.83696203606E+03  0.83723845716E+03  0.00000000000E+00 0. -1.
<mgrwt>
<rscale>  4 0.53938108E+03</rscale>
<asrwt>0</asrwt>
<pdfrwt beam="1">  1        2 0.26909209E+00 0.53938108E+03</pdfrwt>
<pdfrwt beam="2">  1       -2 0.12290682E-01 0.53938108E+03</pdfrwt>
<totfact> 0.46550937E+02</totfact>
</mgrwt>
</event>
<event>
 5    0  0.2754780E-002  0.4694482E+03  0.7546771E-02  0.1022076E+00
          1   -1    0    0  503    0  0.00000000000E+00  0.00000000000E+00  0.37853844145E+03  0.37853844145E+03  0.00000000000E+00 0. -1.
         -1   -1    0    0    0  501 -0.00000000000E+00 -0.00000000000E+00 -0.18614018446E+03  0.18614018446E+03  0.00000000000E+00 0.  1.
         25    1    1    2    0    0  0.59383448527E+02  0.19779095674E+03  0.16902365272E+02  0.24198831889E+03  0.12500000000E+03 0.  0.
         21    1    1    2  502  501  0.24372076008E+02  0.61787286721E+01  0.77356456109E+02  0.81340002943E+02  0.00000000000E+00 0. -1.
         21    1    1    2  503  502 -0.83755524535E+02 -0.20396968542E+03  0.98139435610E+02  0.24135030408E+03  0.00000000000E+00 0. -1.
<mgrwt>
<rscale>  4 0.46944820E+03</rscale>
<asrwt>0</asrwt>
<pdfrwt beam="1">  1        1 0.58236683E-01 0.46944820E+03</pdfrwt>
<pdfrwt beam="2">  1       -1 0.28636952E-01 0.46944820E+03</pdfrwt>
<totfact> 0.72047311E+02</totfact>
</mgrwt>
</event>
<event>
 5    0  0.2754780E-002  0.5436970E+03  0.7546771E-02  0.1002963E+00
         -2   -1    0    0    0  501 -0.00000000000E+00  0.00000000000E+00  0.23630790832E+03  0.23630790832E+03  0.00000000000E+00 0.  1.
          2   -1    0    0  502    0  0.00000000000E+00 -0.00000000000E+00 -0.31273440221E+03  0.31273440221E+03  0.00000000000E+00 0. -1.
         25    1    1    2    0    0 -0.24124028597E+03  0.64711450554E+02 -0.31932031798E+02  0.28112115193E+03  0.12500000000E+03 0.  0.
         21    1    1    2  502  503  0.18671319062E+03 -0.78411739476E+02 -0.56890101420E+02  0.21034899590E+03  0.00000000000E+00 0. -1.
         21    1    1    2  503  501  0.54527095348E+02  0.13700288922E+02  0.12395639335E+02  0.57572162702E+02  0.00000000000E+00 0. -1.
<mgrwt>
<rscale>  4 0.54369702E+03</rscale>
<asrwt>0</asrwt>
<pdfrwt beam="1">  1        2 0.48112985E-01 0.54369702E+03</pdfrwt>
<pdfrwt beam="2">  1       -2 0.36355063E-01 0.54369702E+03</pdfrwt>
<totfact> 0.75012736E+02</totfact>
</mgrwt>
</event>
<event>
 5    0  0.2754780E-002  0.5385696E+03  0.7546771E-02  0.1004175E+00
          2   -1    0    0  503    0  0.00000000000E+00  0.00000000000E+00  0.13220295213E+04  0.13220295213E+04  0.00000000000E+00 0. -1.
         -2   -1    0    0    0  501 -0.00000000000E+00 -0.00000000000E+00 -0.60327252444E+02  0.60327252444E+02  0.00000000000E+00 0.  1.
         25    1    1    2    0    0 -0.22180875861E+03  0.96399585149E+02  0.53789124546E+03  0.60286316636E+03  0.12500000000E+03 0.  0.
         21    1    1    2  502  501 -0.14803475342E+02  0.20143787843E+02  0.77621807946E+02  0.81547900891E+02  0.00000000000E+00 0. -1.
         21    1    1    2  503  502  0.23661223395E+03 -0.11654337299E+03  0.64618921543E+03  0.69794570647E+03  0.00000000000E+00 0.  1.
<mgrwt>
<rscale>  4 0.53856957E+03</rscale>
<asrwt>0</asrwt>
<pdfrwt beam="1">  1        2 0.20338914E+00 0.53856957E+03</pdfrwt>
<pdfrwt beam="2">  1       -2 0.92811168E-02 0.53856957E+03</pdfrwt>
<totfact> 0.12630161E+03</totfact>
</mgrwt>
</event>
<event>
 5    0  0.2754780E-002  0.5402060E+03  0.7546771E-02  0.1003787E+00
          1   -1    0    0  502    0  0.00000000000E+00  0.00000000000E+00  0.33007615302E+03  0.33007615302E+03  0.00000000000E+00 0. -1.
         -1   -1    0    0    0  501 -0.00000000000E+00 -0.00000000000E+00 -0.34161411999E+03  0.34161411999E+03  0.00000000000E+00 0.  1.
         25    1    1    2    0    0  0.19067227782E+03 -0.14806744273E+03  0.48495480974E+02  0.27614615116E+03  0.12500000000E+03 0.  0.
         21    1    1    2  502  503 -0.16689803166E+03  0.13907198253E+03 -0.17427433849E+03  0.27850945110E+03  0.00000000000E+00 0.  1.
         21    1    1    2  503  501 -0.23774246154E+02  0.89954601957E+01  0.11424089054E+03  0.11703467075E+03  0.00000000000E+00 0. -1.
<mgrwt>
<rscale>  4 0.54020599E+03</rscale>
<asrwt>0</asrwt>
<pdfrwt beam="1">  1        1 0.50780946E-01 0.54020599E+03</pdfrwt>
<pdfrwt beam="2">  1       -1 0.52556019E-01 0.54020599E+03</pdfrwt>
<totfact> 0.28777282E+02</totfact>
</mgrwt>
</event>
<event>
 5    0  0.2754780E-002  0.5455685E+03  0.7546771E-02  0.1002525E+00
          2   -1    0    0  502    0  0.00000000000E+00  0.00000000000E+00  0.21681021822E+04  0.21681021822E+04  0.00000000000E+00 0. -1.
         -2   -1    0    0    0  501 -0.00000000000E+00 -0.00000000000E+00 -0.49563817562E+02  0.49563817562E+02  0.00000000000E+00 0.  1.
         25    1    1    2    0    0  0.77804059909E+02 -0.21275615768E+03  0.37448549682E+03  0.45517363906E+03  0.12500000000E+03 0.  0.
         21    1    1    2  502  503 -0.82782369250E+02  0.17794012236E+03  0.10922458530E+04  0.11097371811E+04  0.00000000000E+00 0. -1.
         21    1    1    2  503  501  0.49783093411E+01  0.34816035315E+02  0.65180701477E+03  0.65275517952E+03  0.00000000000E+00 0. -1.
<mgrwt>
<rscale>  4 0.54556853E+03</rscale>
<asrwt>0</asrwt>
<pdfrwt beam="1">  1        2 0.33355411E+00 0.54556853E+03</pdfrwt>
<pdfrwt beam="2">  1       -2 0.76252044E-02 0.54556853E+03</pdfrwt>
<totfact> 0.59733868E+02</totfact>
</mgrwt>
</event>
<event>
 5    0  0.2754780E-002  0.5073178E+03  0.7546771E-02  0.1011886E+00
          2   -1    0    0  502    0  0.00000000000E+00  0.00000000000E+00  0.63205118936E+03  0.63205118936E+03  0.00000000000E+00 0.  1.
         -2   -1    0    0    0  501 -0.00000000000E+00 -0.00000000000E+00 -0.22942810629E+03  0.22942810629E+03  0.00000000000E+00 0. -1.
         25    1    1    2    0    0  0.12002353323E+02 -0.22206394138E+03  0.11856407532E+03  0.28131635307E+03  0.12500000000E+03 0.  0.
         21    1    1    2  502  503  0.50996204063E+02  0.21499465679E+03 -0.61082772562E+02  0.22924750899E+03  0.00000000000E+00 0.  1.
         21    1    1    2  503  501 -0.62998557385E+02  0.70692845953E+01  0.34514178031E+03  0.35091543360E+03  0.00000000000E+00 0.  1.
<mgrwt>
<rscale>  4 0.50731781E+03</rscale>
<asrwt>0</asrwt>
<pdfrwt beam="1">  1        2 0.97238644E-01 0.50731781E+03</pdfrwt>
<pdfrwt beam="2">  1       -2 0.35296632E-01 0.50731781E+03</pdfrwt>
<totfact> 0.35650802E+02</totfact>
</mgrwt>
</event>
<event>
 5    0  0.2754780E-002  0.6898969E+03  0.7546771E-02  0.9734668E-01
         -1   -1    0    0    0  501 -0.00000000000E+00  0.00000000000E+00  0.22760563171E+03  0.22760563171E+03  0.00000000000E+00 0.  1.
          1   -1    0    0  503    0  0.00000000000E+00 -0.00000000000E+00 -0.63842478702E+03  0.63842478702E+03  0.00000000000E+00 0. -1.
         25    1    1    2    0    0 -0.18971703720E+03  0.14117188407E+03  0.99130732389E+02  0.28526120865E+03  0.12500000000E+03 0.  0.
         21    1    1    2  502  501  0.15774856109E+03 -0.76614104031E+02 -0.46217457595E+03  0.49432749076E+03  0.00000000000E+00 0. -1.
         21    1    1    2  503  502  0.31968476101E+02 -0.64557780042E+02 -0.47775311742E+02  0.86441719327E+02  0.00000000000E+00 0. -1.
<mgrwt>
<rscale>  4 0.68989688E+03</rscale>
<asrwt>0</asrwt>
<pdfrwt beam="1">  1        1 0.98219197E-01 0.68989688E+03</pdfrwt>
<pdfrwt beam="2">  1       -1 0.35016251E-01 0.68989688E+03</pdfrwt>
<totfact> 0.24607415E+02</totfact>
</mgrwt>
</event>
<event>
 5    0  0.2754780E-002  0.5107043E+03  0.7546771E-02  0.1011022E+00
          1   -1    0    0  502    0  0.00000000000E+00  0.00000000000E+00  0.51463794705E+03  0.51463794705E+03  0.00000000000E+00 0.  1.
         -1   -1    0    0    0  501 -0.00000000000E+00 -0.00000000000E+00 -0.12670019936E+03  0.12670019936E+03  0.00000000000E+00 0. -1.
         25    1    1    2    0    0  0.36664590542E+02  0.21432177068E+03  0.91960605222E+02  0.26713267584E+03  0.12500000000E+03 0.  0.
         21    1    1    2  502  503 -0.43732089822E+02 -0.17426469484E+03  0.19401132082E+03  0.26442592943E+03  0.00000000000E+00 0.  1.
         21    1    1    2  503  501  0.70674992802E+01 -0.40057075847E+02  0.10196582164E+03  0.10977954115E+03  0.00000000000E+00 0.  1.
<mgrwt>
<rscale>  4 0.51070434E+03</rscale>
<asrwt>0</asrwt>
<pdfrwt beam="1">  1        1 0.79175068E-01 0.51070434E+03</pdfrwt>
<pdfrwt beam="2">  1       -1 0.19492339E-01 0.51070434E+03</pdfrwt>
<totfact> 0.91374651E+02</totfact>
</mgrwt>
</event>
<event>
 5    0  0.2754780E-002  0.3978250E+03  0.7546771E-02  0.1044535E+00
         -2   -1    0    0    0  501 -0.00000000000E+00  0.00000000000E+00  0.46262124814E+02  0.46262124814E+02  0.00000000000E+00 0.  1.
          2   -1    0    0  502    0  0.00000000000E+00 -0.00000000000E+00 -0.13997694964E+04  0.13997694964E+04  0.00000000000E+00 0. -1.
         25    1    1    2    0    0 -0.20173253884E+03  0.20591136580E+02 -0.61874792345E+03  0.66301885713E+03  0.12500000000E+03 0.  0.
         21    1    1    2  502  503  0.77587210641E+02  0.78530294422E+02 -0.26322676009E+03  0.28543845155E+03  0.00000000000E+00 0.  1.
         21    1    1    2  503  501  0.12414532820E+03 -0.99121431002E+02 -0.47153268807E+03  0.49757431256E+03  0.00000000000E+00 0.  1.
<mgrwt>
<rscale>  4 0.39782495E+03</rscale>
<asrwt>0</asrwt>
<pdfrwt beam="1">  1        2 0.21534915E+00 0.39782495E+03</pdfrwt>
<pdfrwt beam="2">  1       -2 0.71172501E-02 0.39782495E+03</pdfrwt>
<totfact> 0.17498786E+03</totfact>
</mgrwt>
</event>
<event>
 5    0  0.2754780E-002  0.7139599E+03  0.7546771E-02  0.9693652E-01
          2   -1    0    0  502    0  0.00000000000E+00  0.00000000000E+00  0.18334948678E+04  0.18334948678E+04  0.00000000000E+00 0. -1.
         -2   -1    0    0    0  501 -0.00000000000E+00 -0.00000000000E+00 -0.69503711578E+02  0.69503711578E+02  0.00000000000E+00 0.  1.
         25    1    1    2    0    0 -0.26710752205E+03  0.43851521345E+02  0.34810617919E+03  0.45833644439E+03  0.12500000000E+03 0.  0.
         21    1    1    2  502  503  0.21294351311E+03 -0.33465204733E+02  0.88296628773E+03  0.90889731267E+03  0.00000000000E+00 0. -1.
         21    1    1    2  503  501  0.54164008940E+02 -0.10386316612E+02  0.53291868930E+03  0.53576482233E+03  0.00000000000E+00 0. -1.
<mgrwt>
<rscale>  4 0.71395994E+03</rscale>
<asrwt>0</asrwt>
<pdfrwt beam="1">  1        2 0.28207610E+00 0.71395994E+03</pdfrwt>
<pdfrwt beam="2">  1       -2 0.10692880E-01 0.71395994E+03</pdfrwt>
<totfact> 0.51977770E+02</totfact>
</mgrwt>
</event>
<event>
 5    0  0.2754780E-002  0.4897242E+03  0.7546771E-02  0.1016496E+00
          3   -1    0    0  502    0  0.00000000000E+00  0.00000000000E+00  0.19296609313E+03  0.19296609313E+03  0.00000000000E+00 0.  1.
         -3   -1    0    0    0  501 -0.00000000000E+00 -0.00000000000E+00 -0.41417752159E+03  0.41417752159E+03  0.00000000000E+00 0. -1.
         25    1    1    2    0    0 -0.19758264404E+03  0.52743328903E+02  0.14442140744E+02  0.24011317207E+03  0.12500000000E+03 0.  0.
         21    1    1    2  502  503  0.14884841178E+03 -0.62230390278E+02 -0.26434442431E+03  0.30968765850E+03  0.00000000000E+00 0. -1.
         21    1    1    2  503  501  0.48734232262E+02  0.94870613757E+01  0.28690855105E+02  0.57342784152E+02  0.00000000000E+00 0.  1.
<mgrwt>
<rscale>  4 0.48972421E+03</rscale>
<asrwt>0</asrwt>
<pdfrwt beam="1">  1        3 0.29687092E-01 0.48972421E+03</pdfrwt>
<pdfrwt beam="2">  1       -3 0.63719618E-01 0.48972421E+03</pdfrwt>
<totfact> 0.68799205E+01</totfact>
</mgrwt>
</event>
<event>
 5    0  0.2754780E-002  0.4493860E+03  0.7546771E-02  0.1027905E+00
          4   -1    0    0  503    0  0.00000000000E+00  0.00000000000E+00  0.44185476343E+03  0.44185476343E+03  0.00000000000E+00 0.  1.
         -4   -1    0    0    0  501 -0.00000000000E+00 -0.00000000000E+00 -0.21661529725E+03  0.21661529725E+03  0.00000000000E+00 0. -1.
         25    1    1    2    0    0  0.34227456477E+02 -0.21227317325E+03 -0.72972000610E+02  0.25919361823E+03  0.12500000000E+03 0.  0.
         21    1    1    2  502  501  0.56127812407E+02  0.95176135865E+02  0.17407356750E+03  0.20618058848E+03  0.00000000000E+00 0.  1.
         21    1    1    2  503  502 -0.90355268883E+02  0.11709703739E+03  0.12413789929E+03  0.19309585397E+03  0.00000000000E+00 0.  1.
<mgrwt>
<rscale>  4 0.44938605E+03</rscale>
<asrwt>0</asrwt>
<pdfrwt beam="1">  1        4 0.67977655E-01 0.44938605E+03</pdfrwt>
<pdfrwt beam="2">  1       -4 0.33325431E-01 0.44938605E+03</pdfrwt>
<totfact> 0.33797058E+01</totfact>
</mgrwt>
</event>
<event>
 5    0  0.2754780E-002  0.5913023E+03  0.7546771E-02  0.9923617E-01
         -2   -1    0    0    0  501 -0.00000000000E+00  0.00000000000E+00  0.29841887187E+03  0.29841887187E+03  0.00000000000E+00 0. -1.
          2   -1    0    0  503    0  0.00000000000E+00 -0.00000000000E+00 -0.36212544502E+03  0.36212544502E+03  0.00000000000E+00 0.  1.
         25    1    1    2    0    0  0.22455728001E+03 -0.61095350250E+01 -0.15441828228E+03  0.29988881994E+03  0.12500000000E+03 0.  0.
         21    1    1    2  502  501  0.21899307071E+02 -0.19884156542E+02 -0.62604701542E+02  0.69240941550E+02  0.00000000000E+00 0.  1.
         21    1    1    2  503  502 -0.24645658708E+03  0.25993691567E+02  0.15331641066E+03  0.29141455540E+03  0.00000000000E+00 0. -1.
<mgrwt>
<rscale>  4 0.59130235E+03</rscale>
<asrwt>0</asrwt>
<pdfrwt beam="1">  1        2 0.55711607E-01 0.59130235E+03</pdfrwt>
<pdfrwt beam="2">  1       -2 0.45910596E-01 0.59130235E+03</pdfrwt>
<totfact> 0.40432269E+02</totfact>
</mgrwt>
</event>
<event>
 5    0  0.2754780E-002  0.9329077E+03  0.7546771E-02  0.9385355E-01
         -1   -1    0    0    0  501 -0.00000000000E+00  0.00000000000E+00  0.45942301280E+03  0.45942301280E+03  0.00000000000E+00 0. -1.
          1   -1    0    0  502    0  0.00000000000E+00 -0.00000000000E+00 -0.77932504226E+03  0.77932504226E+03  0.00000000000E+00 0.  1.
         25    1    1    2    0    0  0.34098265432E+03 -0.32802470276E+03  0.58423905496E+02  0.49285670220E+03  0.12500000000E+03 0.  0.
         21    1    1    2  502  503 -0.39454987034E+03  0.14103365283E+03 -0.14788306207E+03  0.44433038548E+03  0.00000000000E+00 0.  1.
         21    1    1    2  503  501  0.53567216017E+02  0.18699104993E+03 -0.23044287288E+03  0.30156096738E+03  0.00000000000E+00 0.  1.
<mgrwt>
<rscale>  4 0.93290766E+03</rscale>
<asrwt>0</asrwt>
<pdfrwt beam="1">  1        1 0.11989616E+00 0.93290766E+03</pdfrwt>
<pdfrwt beam="2">  1       -1 0.70680464E-01 0.93290766E+03</pdfrwt>
<totfact> 0.46981734E+01</totfact>
</mgrwt>
</event>
<event>
 5    0  0.2754780E-002  0.4816836E+03  0.7546771E-02  0.1018673E+00
         -1   -1    0    0    0  501 -0.00000000000E+00  0.00000000000E+00  0.24477458976E+02  0.24477458976E+02  0.00000000000E+00 0.  1.
          1   -1    0    0  503    0  0.00000000000E+00 -0.00000000000E+00 -0.27660940960E+04  0.27660940960E+04  0.00000000000E+00 0. -1.
         25    1    1    2    0    0 -0.20571517385E+03  0.10858610900E+03 -0.16762910209E+04  0.16969638366E+04  0.12500000000E+03 0.  0.
         21    1    1    2  502  501  0.22332948910E+02 -0.23629806215E+02 -0.31035125343E+03  0.31204972177E+03  0.00000000000E+00 0.  1.
         21    1    1    2  503  502  0.18338222494E+03 -0.84956302788E+02 -0.75497436261E+03  0.78155799657E+03  0.00000000000E+00 0.  1.
<mgrwt>
<rscale>  4 0.48168362E+03</rscale>
<asrwt>0</asrwt>
<pdfrwt beam="1">  1        1 0.42555296E+00 0.48168362E+03</pdfrwt>
<pdfrwt beam="2">  1       -1 0.37657628E-02 0.48168362E+03</pdfrwt>
<totfact> 0.27263641E+02</totfact>
</mgrwt>
</event>
<event>
 5    0  0.2754780E-002  0.7138069E+03  0.7546771E-02  0.9693908E-01
         -1   -1    0    0    0  501 -0.00000000000E+00  0.00000000000E+00  0.32636238168E+03  0.32636238168E+03  0.00000000000E+00 0. -1.
          1   -1    0    0  503    0  0.00000000000E+00 -0.00000000000E+00 -0.92939610335E+03  0.92939610335E+03  0.00000000000E+00 0.  1.
         25    1    1    2    0    0 -0.32023777215E+03 -0.18787468026E+03 -0.16729045288E+03  0.42598148060E+03  0.12500000000E+03 0.  0.
         21    1    1    2  502  501  0.63391260497E+02  0.84182684758E+02 -0.52754915101E+03  0.53797145189E+03  0.00000000000E+00 0.  1.
         21    1    1    2  503  502  0.25684651165E+03  0.10369199550E+03  0.91805882220E+02  0.29180555253E+03  0.00000000000E+00 0. -1.
<mgrwt>
<rscale>  4 0.71380691E+03</rscale>
<asrwt>0</asrwt>
<pdfrwt beam="1">  1        1 0.14298401E+00 0.71380691E+03</pdfrwt>
<pdfrwt beam="2">  1       -1 0.50209598E-01 0.71380691E+03</pdfrwt>
<totfact> 0.70268899E+01</totfact>
</mgrwt>
</event>
<event>
 5    0  0.2754780E-002  0.5996545E+03  0.7546771E-02  0.9906123E-01
          1   -1    0    0  502    0  0.00000000000E+00  0.00000000000E+00  0.18570597163E+04  0.18570597163E+04  0.00000000000E+00 0.  1.
         -1   -1    0    0    0  501 -0.00000000000E+00 -0.00000000000E+00 -0.72103487737E+02  0.72103487737E+02  0.00000000000E+00 0. -1.
         25    1    1    2    0    0  0.21641340718E+03 -0.60845563791E+02  0.10027191076E+04  0.10351847922E+04  0.12500000000E+03 0.  0.
         21    1    1    2  502  503 -0.22993005034E+03  0.19481125678E+02  0.18661880857E+03  0.29677250886E+03  0.00000000000E+00 0. -1.
         21    1    1    2  503  501  0.13516643159E+02  0.41364438113E+02  0.59561831243E+03  0.59720590292E+03  0.00000000000E+00 0.  1.
<mgrwt>
<rscale>  4 0.59965454E+03</rscale>
<asrwt>0</asrwt>
<pdfrwt beam="1">  1        1 0.28570146E+00 0.59965454E+03</pdfrwt>
<pdfrwt beam="2">  1       -1 0.11092846E-01 0.59965454E+03</pdfrwt>
<totfact> 0.20727933E+02</totfact>
</mgrwt>
</event>
<event>
 5    0  0.2754780E-002  0.4521096E+03  0.7546771E-02  0.1027095E+00
          1   -1    0    0  502    0  0.00000000000E+00  0.00000000000E+00  0.48458024908E+03  0.48458024908E+03  0.00000000000E+00 0. -1.
         -1   -1    0    0    0  501 -0.00000000000E+00 -0.00000000000E+00 -0.20213909864E+03  0.20213909864E+03  0.00000000000E+00 0.  1.
         25    1    1    2    0    0 -0.21133500373E+03  0.95832893170E+02 -0.32804093133E+02  0.26560786084E+03  0.12500000000E+03 0.  0.
         21    1    1    2  502  503  0.12978462480E+03  0.23523839509E+02  0.17999287986E+03  0.22314761182E+03  0.00000000000E+00 0. -1.
         21    1    1    2  503  501  0.81550378934E+02 -0.11935673268E+03  0.13525236371E+03  0.19796387506E+03  0.00000000000E+00 0. -1.
<mgrwt>
<rscale>  4 0.45210962E+03</rscale>
<asrwt>0</asrwt>
<pdfrwt beam="1">  1        1 0.74550807E-01 0.45210962E+03</pdfrwt>
<pdfrwt beam="2">  1       -1 0.31098323E-01 0.45210962E+03</pdfrwt>
<totfact> 0.45105081E+02</totfact>
</mgrwt>
</event>
<event>
 5    0  0.2754780E-002  0.5075211E+03  0.7546771E-02  0.1011834E+00
          2   -1    0    0  503    0  0.00000000000E+00  0.00000000000E+00  0.12487120615E+04  0.12487120615E+04  0.00000000000E+00 0. -1.
         -2   -1    0    0    0  501 -0.00000000000E+00 -0.00000000000E+00 -0.51568669246E+02  0.51568669246E+02  0.00000000000E+00 0.  1.
         25    1    1    2    0    0  0.17302263033E+02 -0.22946988482E+03  0.68132890974E+03  0.72992457117E+03  0.12500000000E+03 0.  0.
         21    1    1    2  502  501  0.26660692482E+02  0.40427505110E+02  0.84690564433E+02  0.97558533184E+02  0.00000000000E+00 0.  1.
         21    1    1    2  503  502 -0.43962955515E+02  0.18904237971E+03  0.43112391810E+03  0.47279762642E+03  0.00000000000E+00 0.  1.
<mgrwt>
<rscale>  4 0.50752111E+03</rscale>
<asrwt>0</asrwt>
<pdfrwt beam="1">  1        2 0.19210953E+00 0.50752111E+03</pdfrwt>
<pdfrwt beam="2">  1       -2 0.79336424E-02 0.50752111E+03</pdfrwt>
<totfact> 0.17888481E+03</totfact>
</mgrwt>
</event>
<event>
 5    0  0.2754780E-002  0.5396330E+03  0.7546771E-02  0.1003922E+00
          2   -1    0    0  502    0  0.00000000000E+00  0.00000000000E+00  0.63539590105E+03  0.63539590105E+03  0.00000000000E+00 0. -1.
         -2   -1    0    0    0  501 -0.00000000000E+00 -0.00000000000E+00 -0.16330385991E+03  0.16330385991E+03  0.00000000000E+00 0.  1.
         25    1    1    2    0    0 -0.65504414377E+02 -0.23435479946E+03  0.21557184238E+03  0.34829473088E+03  0.12500000000E+03 0.  0.
         21    1    1    2  502  503  0.15944747631E+03  0.20884344327E+03  0.13721107595E+03  0.29642193047E+03  0.00000000000E+00 0. -1.
         21    1    1    2  503  501 -0.93943061938E+02  0.25511356194E+02  0.11930912281E+03  0.15398309962E+03  0.00000000000E+00 0.  1.
<mgrwt>
<rscale>  4 0.53963301E+03</rscale>
<asrwt>0</asrwt>
<pdfrwt beam="1">  1        2 0.97753214E-01 0.53963301E+03</pdfrwt>
<pdfrwt beam="2">  1       -2 0.25123671E-01 0.53963301E+03</pdfrwt>
<totfact> 0.66223819E+02</totfact>
</mgrwt>
</event>
<event>
 5    0  0.2754780E-002  0.5629462E+03  0.7546771E-02  0.9985410E-01
          1   -1    0    0  502    0  0.00000000000E+00  0.00000000000E+00  0.56498252009E+03  0.56498252009E+03  0.00000000000E+00 0. -1.
         -1   -1    0    0    0  501 -0.00000000000E+00 -0.00000000000E+00 -0.19128676575E+03  0.19128676575E+03  0.00000000000E+00 0.  1.
         25    1    1    2    0    0 -0.19784767550E+03 -0.96718600758E+02  0.27476233637E+03  0.37365429466E+03  0.12500000000E+03 0.  0.
         21    1    1    2  502  503  0.19225098355E+03  0.12307142670E+03 -0.47975187919E+02  0.23325658705E+03  0.00000000000E+00 0.  1.
         21    1    1    2  503  501  0.55966919526E+01 -0.26352825943E+02  0.14690860590E+03  0.14935840413E+03  0.00000000000E+00 0. -1.
<mgrwt>
<rscale>  4 0.56294619E+03</rscale>
<asrwt>0</asrwt>
<pdfrwt beam="1">  1        1 0.86920387E-01 0.56294619E+03</pdfrwt>
<pdfrwt beam="2">  1       -1 0.29428734E-01 0.56294619E+03</pdfrwt>
<totfact> 0.40003885E+02</totfact>
</mgrwt>
</event>
<event>
 5    0  0.2754780E-002  0.8760293E+03  0.7546771E-02  0.9456052E-01
          2   -1    0    0  502    0  0.00000000000E+00  0.00000000000E+00  0.21530293839E+04  0.21530293839E+04  0.00000000000E+00 0. -1.
         -2   -1    0    0    0  501 -0.00000000000E+00 -0.00000000000E+00 -0.99956674396E+02  0.99956674396E+02  0.00000000000E+00 0.  1.
         25    1    1    2    0    0 -0.40169615889E+03  0.49893151572E+02  0.99300908601E+03  0.10796023229E+04  0.12500000000E+03 0.  0.
         21    1    1    2  502  503  0.44822550460E+03 -0.58528815215E+02  0.99561622631E+03  0.10934273617E+04  0.00000000000E+00 0. -1.
         21    1    1    2  503  501 -0.46529345704E+02  0.86356636426E+01  0.64447397158E+02  0.79956373721E+02  0.00000000000E+00 0. -1.
<mgrwt>
<rscale>  4 0.87602932E+03</rscale>
<asrwt>0</asrwt>
<pdfrwt beam="1">  1        2 0.33123525E+00 0.87602932E+03</pdfrwt>
<pdfrwt beam="2">  1       -2 0.15377952E-01 0.87602932E+03</pdfrwt>
<totfact> 0.18735841E+02</totfact>
</mgrwt>
</event>
<event>
 5    0  0.2754780E-002  0.5834587E+03  0.7546771E-02  0.9940331E-01
          1   -1    0    0  502    0  0.00000000000E+00  0.00000000000E+00  0.63760149163E+03  0.63760149163E+03  0.00000000000E+00 0.  1.
         -1   -1    0    0    0  501 -0.00000000000E+00 -0.00000000000E+00 -0.19934962839E+03  0.19934962839E+03  0.00000000000E+00 0. -1.
         25    1    1    2    0    0  0.24747448543E+03  0.66592067967E+02  0.10140648001E+03  0.30263244810E+03  0.12500000000E+03 0.  0.
         21    1    1    2  502  503 -0.28327527135E+03 -0.91809292513E+02  0.13354535724E+03  0.32635592226E+03  0.00000000000E+00 0.  1.
         21    1    1    2  503  501  0.35800785923E+02  0.25217224546E+02  0.20330002598E+03  0.20796274967E+03  0.00000000000E+00 0.  1.
<mgrwt>
<rscale>  4 0.58345866E+03</rscale>
<asrwt>0</asrwt>
<pdfrwt beam="1">  1        1 0.98092536E-01 0.58345866E+03</pdfrwt>
<pdfrwt beam="2">  1       -1 0.30669174E-01 0.58345866E+03</pdfrwt>
<totfact> 0.31302139E+02</totfact>
</mgrwt>
</event>
<event>
 5    0  0.2754780E-002  0.4972967E+03  0.7546771E-02  0.1014487E+00
         -2   -1    0    0    0  501 -0.00000000000E+00  0.00000000000E+00  0.26537939073E+03  0.26537939073E+03  0.00000000000E+00 0.  1.
          2   -1    0    0  503    0  0.00000000000E+00 -0.00000000000E+00 -0.49657837389E+03  0.49657837389E+03  0.00000000000E+00 0. -1.
         25    1    1    2    0    0  0.16594679633E+03  0.16213393710E+03 -0.44055804173E+02  0.26719219048E+03  0.12500000000E+03 0.  0.
         21    1    1    2  502  501 -0.26156645818E+02  0.58051049381E+01 -0.26232324690E+03  0.26368798840E+03  0.00000000000E+00 0. -1.
         21    1    1    2  503  502 -0.13979015051E+03 -0.16793904204E+03  0.75180067906E+02  0.23107758574E+03  0.00000000000E+00 0.  1.
<mgrwt>
<rscale>  4 0.49729674E+03</rscale>
<asrwt>0</asrwt>
<pdfrwt beam="1">  1        2 0.76396673E-01 0.49729674E+03</pdfrwt>
<pdfrwt beam="2">  1       -2 0.40827599E-01 0.49729674E+03</pdfrwt>
<totfact> 0.35808448E+02</totfact>
</mgrwt>
</event>
<event>
 5    0  0.2754780E-002  0.5832634E+03  0.7546771E-02  0.9940751E-01
         -1   -1    0    0    0  501 -0.00000000000E+00  0.00000000000E+00  0.12057472044E+03  0.12057472044E+03  0.00000000000E+00 0. -1.
          1   -1    0    0  503    0  0.00000000000E+00 -0.00000000000E+00 -0.81212686901E+03  0.81212686901E+03  0.00000000000E+00 0.  1.
         25    1    1    2    0    0  0.36954140007E+01 -0.21607837650E+03 -0.60544140127E+03  0.65489526739E+03  0.12500000000E+03 0.  0.
         21    1    1    2  502  501 -0.24321638371E+02  0.26585461119E+02 -0.79265868827E+02  0.87071274235E+02  0.00000000000E+00 0.  1.
         21    1    1    2  503  502  0.20626224370E+02  0.18949291538E+03 -0.68448784725E+01  0.19073504783E+03  0.00000000000E+00 0. -1.
<mgrwt>
<rscale>  4 0.58326336E+03</rscale>
<asrwt>0</asrwt>
<pdfrwt beam="1">  1        1 0.12494259E+00 0.58326336E+03</pdfrwt>
<pdfrwt beam="2">  1       -1 0.18549957E-01 0.58326336E+03</pdfrwt>
<totfact> 0.50702678E+02</totfact>
</mgrwt>
</event>
<event>
 5    0  0.2754780E-002  0.6322718E+03  0.7546771E-02  0.9840626E-01
         -1   -1    0    0    0  501 -0.00000000000E+00  0.00000000000E+00  0.11823357770E+04  0.11823357770E+04  0.00000000000E+00 0.  1.
          1   -1    0    0  502    0  0.00000000000E+00 -0.00000000000E+00 -0.10040857836E+03  0.10040857836E+03  0.00000000000E+00 0. -1.
         25    1    1    2    0    0  0.24017947046E+03 -0.19874464261E+03  0.47755216030E+03  0.58383788573E+03  0.12500000000E+03 0.  0.
         21    1    1    2  502  503 -0.24006914929E+03  0.16030145464E+03  0.59181402441E+03  0.65846305309E+03  0.00000000000E+00 0.  1.
         21    1    1    2  503  501 -0.11032117304E+00  0.38443187973E+02  0.12561013952E+02  0.40443416569E+02  0.00000000000E+00 0. -1.
<mgrwt>
<rscale>  4 0.63227177E+03</rscale>
<asrwt>0</asrwt>
<pdfrwt beam="1">  1        1 0.15447474E-01 0.63227177E+03</pdfrwt>
<pdfrwt beam="2">  1       -1 0.18189780E+00 0.63227177E+03</pdfrwt>
<totfact> 0.76877058E+01</totfact>
</mgrwt>
</event>
<event>
 5    0  0.2754780E-002  0.5804968E+03  0.7546771E-02  0.9946716E-01
          2   -1    0    0  502    0  0.00000000000E+00  0.00000000000E+00  0.89260719977E+03  0.89260719977E+03  0.00000000000E+00 0. -1.
         -2   -1    0    0    0  501 -0.00000000000E+00 -0.00000000000E+00 -0.56176929279E+03  0.56176929279E+03  0.00000000000E+00 0.  1.
         25    1    1    2    0    0  0.16414866941E+03  0.15966418761E+03 -0.36944425698E+03  0.45227369755E+03  0.12500000000E+03 0.  0.
         21    1    1    2  502  503 -0.23904123605E+03 -0.85749139112E+02 -0.37627517612E+02  0.25672837294E+03  0.00000000000E+00 0. -1.
         21    1    1    2  503  501  0.74892566640E+02 -0.73915048502E+02  0.73790968157E+03  0.74537442207E+03  0.00000000000E+00 0. -1.
<mgrwt>
<rscale>  4 0.58049678E+03</rscale>
<asrwt>0</asrwt>
<pdfrwt beam="1">  1        2 0.13732418E+00 0.58049678E+03</pdfrwt>
<pdfrwt beam="2">  1       -2 0.86426045E-01 0.58049678E+03</pdfrwt>
<totfact> 0.35526049E+01</totfact>
</mgrwt>
</event>
<event>
 5    0  0.2754780E-002  0.5179677E+03  0.7546771E-02  0.1009193E+00
         -2   -1    0    0    0  501 -0.00000000000E+00  0.00000000000E+00  0.14962282180E+03  0.14962282180E+03  0.00000000000E+00 0. -1.
          2   -1    0    0  502    0  0.00000000000E+00 -0.00000000000E+00 -0.13323383205E+04  0.13323383205E+04  0.00000000000E+00 0.  1.
         25    1    1    2    0    0 -0.60902608443E+02 -0.22055337765E+03 -0.18603206448E+03  0.32029025761E+03  0.12500000000E+03 0.  0.
         21    1    1    2  502  503  0.92939834055E+02  0.23626307586E+03 -0.11406639402E+03  0.27833288705E+03  0.00000000000E+00 0. -1.
         21    1    1    2  503  501 -0.32037225612E+02 -0.15709698210E+02 -0.88261704017E+03  0.88333799762E+03  0.00000000000E+00 0.  1.
<mgrwt>
<rscale>  4 0.51796774E+03</rscale>
<asrwt>0</asrwt>
<pdfrwt beam="1">  1        2 0.20497513E+00 0.51796774E+03</pdfrwt>
<pdfrwt beam="2">  1       -2 0.23018896E-01 0.51796774E+03</pdfrwt>
<totfact> 0.27100202E+02</totfact>
</mgrwt>
</event>
<event>
 5    0  0.2754780E-002  0.9185185E+03  0.7546771E-02  0.9402724E-01
         -1   -1    0    0    0  501 -0.00000000000E+00  0.00000000000E+00  0.44979103262E+03  0.44979103262E+03  0.00000000000E+00 0.  1.
          1   -1    0    0  503    0  0.00000000000E+00 -0.00000000000E+00 -0.14460314437E+04  0.14460314437E+04  0.00000000000E+00 0. -1.
         25    1    1    2    0    0 -0.15620293430E+03  0.17697154151E+03 -0.67484390045E+03  0.72578066464E+03  0.12500000000E+03 0.  0.
         21    1    1    2  502  501  0.32461979895E+03  0.35547774937E+03  0.72261896025E+02  0.48678971413E+03  0.00000000000E+00 0.  1.
         21    1    1    2  503  502 -0.16841686465E+03 -0.53244929088E+03 -0.39365840662E+03  0.68325209751E+03  0.00000000000E+00 0. -1.
<mgrwt>
<rscale>  4 0.91851845E+03</rscale>
<asrwt>0</asrwt>
<pdfrwt beam="1">  1        1 0.22246638E+00 0.91851845E+03</pdfrwt>
<pdfrwt beam="2">  1       -1 0.69198620E-01 0.91851845E+03</pdfrwt>
<totfact> 0.15282007E+01</totfact>
</mgrwt>
</event>
<event>
 5    0  0.2754780E-002  0.9752113E+03  0.7546771E-02  0.9336158E-01
          1   -1    0    0  503    0  0.00000000000E+00  0.00000000000E+00  0.95329227278E+03  0.95329227278E+03  0.00000000000E+00 0. -1.
         -1   -1    0    0    0  501 -0.00000000000E+00 -0.00000000000E+00 -0.34087178687E+03  0.34087178687E+03  0.00000000000E+00 0.  1.
         25    1    1    2    0    0 -0.46685633812E+03 -0.46258469968E+02  0.27574344782E+02  0.48629212515E+03  0.12500000000E+03 0.  0.
         21    1    1    2  502  501  0.35512606497E+03 -0.73768768428E+02  0.51435949980E+03  0.62938227513E+03  0.00000000000E+00 0. -1.
         21    1    1    2  503  502  0.11173027315E+03  0.12002723840E+03  0.70486641327E+02  0.17848965937E+03  0.00000000000E+00 0. -1.
<mgrwt>
<rscale>  4 0.97521130E+03</rscale>
<asrwt>0</asrwt>
<pdfrwt beam="1">  1        1 0.14666035E+00 0.97521130E+03</pdfrwt>
<pdfrwt beam="2">  1       -1 0.52441814E-01 0.97521130E+03</pdfrwt>
<totfact> 0.60610227E+01</totfact>
</mgrwt>
</event>
<event>
 5    0  0.2754780E-002  0.5275127E+03  0.7546771E-02  0.1006837E+00
          1   -1    0    0  503    0  0.00000000000E+00  0.00000000000E+00  0.33275927566E+03  0.33275927566E+03  0.00000000000E+00 0. -1.
         -1   -1    0    0    0  501 -0.00000000000E+00 -0.00000000000E+00 -0.25399204894E+03  0.25399204894E+03  0.00000000000E+00 0.  1.
         25    1    1    2    0    0 -0.25308941057E+03 -0.54174296407E+02  0.24908454606E+02  0.28850396054E+03  0.12500000000E+03 0.  0.
         21    1    1    2  502  501  0.20134304461E+02 -0.15830249336E+01  0.55125907378E+02  0.58709129174E+02  0.00000000000E+00 0. -1.
         21    1    1    2  503  502  0.23295510611E+03  0.55757321340E+02 -0.12671352643E+01  0.23953823490E+03  0.00000000000E+00 0. -1.
<mgrwt>
<rscale>  4 0.52751270E+03</rscale>
<asrwt>0</asrwt>
<pdfrwt beam="1">  1        1 0.51193735E-01 0.52751270E+03</pdfrwt>
<pdfrwt beam="2">  1       -1 0.39075700E-01 0.52751270E+03</pdfrwt>
<totfact> 0.49274682E+02</totfact>
</mgrwt>
</event>
<event>
 5    0  0.2754780E-002  0.4008339E+03  0.7546771E-02  0.1043491E+00
          1   -1    0    0  503    0  0.00000000000E+00  0.00000000000E+00  0.15557169355E+03  0.15557169355E+03  0.00000000000E+00 0.  1.
         -1   -1    0    0    0  501 -0.00000000000E+00 -0.00000000000E+00 -0.37953729051E+03  0.37953729051E+03  0.00000000000E+00 0. -1.
         25    1    1    2    0    0 -0.14404376511E+03  0.15190022251E+03 -0.11429162631E+03  0.26927654876E+03  0.12500000000E+03 0.  0.
         21    1    1    2  502  501  0.71563072418E+02 -0.15566620038E+02  0.51449237707E+01  0.73417050022E+02  0.00000000000E+00 0. -1.
         21    1    1    2  503  502  0.72480692697E+02 -0.13633360247E+03 -0.11481889442E+03  0.19241538528E+03  0.00000000000E+00 0. -1.
<mgrwt>
<rscale>  4 0.40083389E+03</rscale>
<asrwt>0</asrwt>
<pdfrwt beam="1">  1        1 0.23934107E-01 0.40083389E+03</pdfrwt>
<pdfrwt beam="2">  1       -1 0.58390352E-01 0.40083389E+03</pdfrwt>
<totfact> 0.62093143E+02</totfact>
</mgrwt>
</event>
<event>
 5    0  0.2754780E-002  0.5966146E+03  0.7546771E-02  0.9912455E-01
         -2   -1    0    0    0  501 -0.00000000000E+00  0.00000000000E+00  0.24836102561E+03  0.24836102561E+03  0.00000000000E+00 0.  1.
          2   -1    0    0  503    0  0.00000000000E+00 -0.00000000000E+00 -0.61311102864E+03  0.61311102864E+03  0.00000000000E+00 0. -1.
         25    1    1    2    0    0  0.24098213310E+03  0.14598782952E+03 -0.18555233481E+03  0.35977701954E+03  0.12500000000E+03 0.  0.
         21    1    1    2  502  501 -0.58495502303E+02  0.88238316006E+01 -0.24618174991E+03  0.25318972685E+03  0.00000000000E+00 0.  1.
         21    1    1    2  503  502 -0.18248663079E+03 -0.15481166112E+03  0.66984081688E+02  0.24850530786E+03  0.00000000000E+00 0.  1.
<mgrwt>
<rscale>  4 0.59661458E+03</rscale>
<asrwt>0</asrwt>
<pdfrwt beam="1">  1        2 0.94324772E-01 0.59661458E+03</pdfrwt>
<pdfrwt beam="2">  1       -2 0.38209389E-01 0.59661458E+03</pdfrwt>
<totfact> 0.31659639E+02</totfact>
</mgrwt>
</event>
<event>
 5    0  0.2754780E-002  0.7017905E+03  0.7546771E-02  0.9714175E-01
         -2   -1    0    0    0  501 -0.00000000000E+00  0.00000000000E+00  0.11998956985E+03  0.11998956985E+03  0.00000000000E+00 0. -1.
          2   -1    0    0  502    0  0.00000000000E+00 -0.00000000000E+00 -0.31293949045E+04  0.31293949045E+04  0.00000000000E+00 0.  1.
         25    1    1    2    0    0  0.99337228042E+02  0.20859277791E+03 -0.61299257398E+03  0.66690608606E+03  0.12500000000E+03 0.  0.
         21    1    1    2  502  503 -0.16681782511E+02  0.13949675393E+03  0.18056759630E+02  0.14164629466E+03  0.00000000000E+00 0. -1.
         21    1    1    2  503  501 -0.82655445531E+02 -0.34808953183E+03 -0.24144695203E+04  0.24408320936E+04  0.00000000000E+00 0.  1.
<mgrwt>
<rscale>  4 0.70179047E+03</rscale>
<asrwt>0</asrwt>
<pdfrwt beam="1">  1        2 0.48144534E+00 0.70179047E+03</pdfrwt>
<pdfrwt beam="2">  1       -2 0.18459935E-01 0.70179047E+03</pdfrwt>
<totfact> 0.37808179E+01</totfact>
</mgrwt>
</event>
<event>
 5    0  0.2754780E-002  0.1604393E+04  0.7546771E-02  0.8817854E-01
          2   -1    0    0  502    0  0.00000000000E+00  0.00000000000E+00  0.19589890504E+04  0.19589890504E+04  0.00000000000E+00 0. -1.
         -2   -1    0    0    0  501 -0.00000000000E+00 -0.00000000000E+00 -0.41796607603E+03  0.41796607603E+03  0.00000000000E+00 0.  1.
         25    1    1    2    0    0  0.19648401339E+03 -0.10785433448E+03 -0.36890802008E+03  0.44939587477E+03  0.12500000000E+03 0.  0.
         21    1    1    2  502  503 -0.17860804298E+03  0.13282539900E+03  0.14932357475E+04  0.15097338895E+04  0.00000000000E+00 0. -1.
         21    1    1    2  503  501 -0.17875970407E+02 -0.24971064526E+02  0.41669524701E+03  0.41782536215E+03  0.00000000000E+00 0.  1.
<mgrwt>
<rscale>  4 0.16043929E+04</rscale>
<asrwt>0</asrwt>
<pdfrwt beam="1">  1        2 0.30138293E+00 0.16043929E+04</pdfrwt>
<pdfrwt beam="2">  1       -2 0.64302474E-01 0.16043929E+04</pdfrwt>
<totfact> 0.15025208E+01</totfact>
</mgrwt>
</event>
<event>
 5    0  0.2754780E-002  0.5042202E+03  0.7546771E-02  0.1012683E+00
         -1   -1    0    0    0  501 -0.00000000000E+00  0.00000000000E+00  0.73149347915E+03  0.73149347915E+03  0.00000000000E+00 0. -1.
          1   -1    0    0  503    0  0.00000000000E+00 -0.00000000000E+00 -0.20323348226E+03  0.20323348226E+03  0.00000000000E+00 0.  1.
         25    1    1    2    0    0  0.49560502623E+02 -0.20986250679E+03  0.25071732311E+03  0.35352891152E+03  0.12500000000E+03 0.  0.
         21    1    1    2  502  501  0.19990977980E+02 -0.27325596464E+02 -0.11357963435E+03  0.11851860935E+03  0.00000000000E+00 0.  1.
         21    1    1    2  503  502 -0.69551480603E+02  0.23718810325E+03  0.39112230813E+03  0.46267944054E+03  0.00000000000E+00 0. -1.
<mgrwt>
<rscale>  4 0.50422015E+03</rscale>
<asrwt>0</asrwt>
<pdfrwt beam="1">  1        1 0.31266690E-01 0.50422015E+03</pdfrwt>
<pdfrwt beam="2">  1       -1 0.11253746E+00 0.50422015E+03</pdfrwt>
<totfact> 0.10871174E+02</totfact>
</mgrwt>
</event>
<event>
 5    0  0.2754780E-002  0.4673453E+03  0.7546771E-02  0.1022672E+00
         -2   -1    0    0    0  501 -0.00000000000E+00  0.00000000000E+00  0.41404276661E+02  0.41404276661E+02  0.00000000000E+00 0. -1.
          2   -1    0    0  503    0  0.00000000000E+00 -0.00000000000E+00 -0.14995134888E+04  0.14995134888E+04  0.00000000000E+00 0.  1.
         25    1    1    2    0    0  0.15449228873E+03  0.15160218503E+03 -0.81868244338E+03  0.85598892101E+03  0.12500000000E+03 0.  0.
         21    1    1    2  502  501 -0.19854478403E+02  0.17229856631E+02 -0.40716151164E+02  0.48465175516E+02  0.00000000000E+00 0.  1.
         21    1    1    2  503  502 -0.13463781032E+03 -0.16883204166E+03 -0.59871061756E+03  0.63646366891E+03  0.00000000000E+00 0. -1.
<mgrwt>
<rscale>  4 0.46734532E+03</rscale>
<asrwt>0</asrwt>
<pdfrwt beam="1">  1        2 0.23069435E+00 0.46734532E+03</pdfrwt>
<pdfrwt beam="2">  1       -2 0.63698895E-02 0.46734532E+03</pdfrwt>
<totfact> 0.18313607E+03</totfact>
</mgrwt>
</event>
<event>
 5    0  0.2754780E-002  0.7288966E+03  0.7546771E-02  0.9669053E-01
          2   -1    0    0  502    0  0.00000000000E+00  0.00000000000E+00  0.26859734909E+03  0.26859734909E+03  0.00000000000E+00 0.  1.
         -2   -1    0    0    0  501 -0.00000000000E+00 -0.00000000000E+00 -0.60670294339E+03  0.60670294339E+03  0.00000000000E+00 0. -1.
         25    1    1    2    0    0  0.33568263210E+03  0.68561045220E+02 -0.11184606648E+03  0.38146820182E+03  0.12500000000E+03 0.  0.
         21    1    1    2  502  503 -0.35945697519E+03  0.59929083363E+01 -0.19936883161E+03  0.41108778014E+03  0.00000000000E+00 0.  1.
         21    1    1    2  503  501  0.23774343086E+02 -0.74553953556E+02 -0.26890696208E+02  0.82744310515E+02  0.00000000000E+00 0.  1.
<mgrwt>
<rscale>  4 0.72889661E+03</rscale>
<asrwt>0</asrwt>
<pdfrwt beam="1">  1        2 0.41322669E-01 0.72889661E+03</pdfrwt>
<pdfrwt beam="2">  1       -2 0.93338914E-01 0.72889661E+03</pdfrwt>
<totfact> 0.12184639E+02</totfact>
</mgrwt>
</event>
<event>
 5    0  0.2754780E-002  0.5935238E+03  0.7546771E-02  0.9918934E-01
          2   -1    0    0  502    0  0.00000000000E+00  0.00000000000E+00  0.46230706535E+03  0.46230706535E+03  0.00000000000E+00 0. -1.
         -2   -1    0    0    0  501 -0.00000000000E+00 -0.00000000000E+00 -0.23852555665E+03  0.23852555665E+03  0.00000000000E+00 0.  1.
         25    1    1    2    0    0  0.22657181500E+03 -0.18225055939E+02  0.24913147948E+03  0.35966433530E+03  0.12500000000E+03 0.  0.
         21    1    1    2  502  503 -0.22516211661E+03 -0.19422454396E+02 -0.10789475751E+03  0.25043260409E+03  0.00000000000E+00 0.  1.
         21    1    1    2  503  501 -0.14096983894E+01  0.37647510335E+02  0.82544786733E+02  0.90735682622E+02  0.00000000000E+00 0.  1.
<mgrwt>
<rscale>  4 0.59352377E+03</rscale>
<asrwt>0</asrwt>
<pdfrwt beam="1">  1        2 0.71124164E-01 0.59352377E+03</pdfrwt>
<pdfrwt beam="2">  1       -2 0.36696240E-01 0.59352377E+03</pdfrwt>
<totfact> 0.47595063E+02</totfact>
</mgrwt>
</event>
<event>
 5    0  0.2754780E-002  0.4028269E+03  0.7546771E-02  0.1042805E+00
         -1   -1    0    0    0  501 -0.00000000000E+00  0.00000000000E+00  0.31930066370E+03  0.31930066370E+03  0.00000000000E+00 0. -1.
          1   -1    0    0  503    0  0.00000000000E+00 -0.00000000000E+00 -0.49988426840E+03  0.49988426840E+03  0.00000000000E+00 0.  1.
         25    1    1    2    0    0 -0.13964168696E+03  0.14415292575E+03  0.92163249813E+02  0.25376944527E+03  0.12500000000E+03 0.  0.
         21    1    1    2  502  501  0.87211472033E+01 -0.44183239082E+02 -0.37092727441E+03  0.37365125441E+03  0.00000000000E+00 0.  1.
         21    1    1    2  503  502  0.13092053975E+03 -0.99969686666E+02  0.98180419890E+02  0.19176423241E+03  0.00000000000E+00 0.  1.
<mgrwt>
<rscale>  4 0.40282694E+03</rscale>
<asrwt>0</asrwt>
<pdfrwt beam="1">  1        1 0.76905272E-01 0.40282694E+03</pdfrwt>
<pdfrwt beam="2">  1       -1 0.49123179E-01 0.40282694E+03</pdfrwt>
<totfact> 0.19100542E+02</totfact>
</mgrwt>
</event>
<event>
 5    0  0.2754780E-002  0.5461248E+03  0.7546771E-02  0.1002395E+00
         -3   -1    0    0    0  501 -0.00000000000E+00  0.00000000000E+00  0.75953969520E+02  0.75953969520E+02  0.00000000000E+00 0.  1.
          3   -1    0    0  503    0  0.00000000000E+00 -0.00000000000E+00 -0.11523124034E+04  0.11523124034E+04  0.00000000000E+00 0. -1.
         25    1    1    2    0    0  0.45782881331E+02 -0.25374092765E+03 -0.34972831738E+03  0.45212324267E+03  0.12500000000E+03 0.  0.
         21    1    1    2  502  501  0.43927736665E+01  0.20839720595E+02 -0.16076044890E+03  0.16216507745E+03  0.00000000000E+00 0. -1.
         21    1    1    2  503  502 -0.50175654997E+02  0.23290120705E+03 -0.56586966756E+03  0.61397805275E+03  0.00000000000E+00 0.  1.
<mgrwt>
<rscale>  4 0.54612480E+03</rscale>
<asrwt>0</asrwt>
<pdfrwt beam="1">  1        3 0.17727884E+00 0.54612480E+03</pdfrwt>
<pdfrwt beam="2">  1       -3 0.11685225E-01 0.54612480E+03</pdfrwt>
<totfact> 0.32363913E+01</totfact>
</mgrwt>
</event>
<event>
 5    0  0.2754780E-002  0.7969345E+03  0.7546771E-02  0.9564465E-01
         -2   -1    0    0    0  501 -0.00000000000E+00  0.00000000000E+00  0.15494558326E+03  0.15494558326E+03  0.00000000000E+00 0. -1.
          2   -1    0    0  503    0  0.00000000000E+00 -0.00000000000E+00 -0.13207203997E+04  0.13207203997E+04  0.00000000000E+00 0.  1.
         25    1    1    2    0    0  0.31012808837E+03  0.84442990466E+02 -0.24989716300E+03  0.42589158470E+03  0.12500000000E+03 0.  0.
         21    1    1    2  502  501  0.87107689988E+02  0.37333161484E+02 -0.21573627768E+03  0.23563458173E+03  0.00000000000E+00 0. -1.
         21    1    1    2  503  502 -0.39723577836E+03 -0.12177615195E+03 -0.70014137571E+03  0.81413981648E+03  0.00000000000E+00 0. -1.
<mgrwt>
<rscale>  4 0.79693453E+03</rscale>
<asrwt>0</asrwt>
<pdfrwt beam="1">  1        2 0.20318776E+00 0.79693453E+03</pdfrwt>
<pdfrwt beam="2">  1       -2 0.23837781E-01 0.79693453E+03</pdfrwt>
<totfact> 0.25328220E+02</totfact>
</mgrwt>
</event>
<event>
 5    0  0.2754780E-002  0.1443315E+04  0.7546771E-02  0.8923048E-01
          2   -1    0    0  502    0  0.00000000000E+00  0.00000000000E+00  0.17432201553E+04  0.17432201553E+04  0.00000000000E+00 0.  1.
         -2   -1    0    0    0  501 -0.00000000000E+00 -0.00000000000E+00 -0.43360769278E+03  0.43360769278E+03  0.00000000000E+00 0. -1.
         25    1    1    2    0    0 -0.14087464333E+03  0.21454991481E+03  0.11903141356E+04  0.12240711060E+04  0.12500000000E+03 0.  0.
         21    1    1    2  502  503 -0.24184150581E+02 -0.22896694640E+03 -0.37021119473E+03  0.43596681569E+03  0.00000000000E+00 0. -1.
         21    1    1    2  503  501  0.16505879392E+03  0.14417031587E+02  0.48950952160E+03  0.51678992636E+03  0.00000000000E+00 0. -1.
<mgrwt>
<rscale>  4 0.14433146E+04</rscale>
<asrwt>0</asrwt>
<pdfrwt beam="1">  1        2 0.26818771E+00 0.14433146E+04</pdfrwt>
<pdfrwt beam="2">  1       -2 0.66708877E-01 0.14433146E+04</pdfrwt>
<totfact> 0.18493031E+01</totfact>
</mgrwt>
</event>
<event>
 5    0  0.2754780E-002  0.4257918E+03  0.7546771E-02  0.1035198E+00
         -2   -1    0    0    0  501 -0.00000000000E+00  0.00000000000E+00  0.30881935836E+02  0.30881935836E+02  0.00000000000E+00 0. -1.
          2   -1    0    0  503    0  0.00000000000E+00 -0.00000000000E+00 -0.19945312141E+04  0.19945312141E+04  0.00000000000E+00 0.  1.
         25    1    1    2    0    0  0.15676913395E+03  0.13806421956E+03 -0.78256070299E+03  0.81955142849E+03  0.12500000000E+03 0.  0.
         21    1    1    2  502  501 -0.14726125064E+03 -0.71762733324E+02 -0.98793063450E+03  0.10014203435E+04  0.00000000000E+00 0.  1.
         21    1    1    2  503  502 -0.95078833129E+01 -0.66301486239E+02 -0.19315794081E+03  0.20444137795E+03  0.00000000000E+00 0.  1.
<mgrwt>
<rscale>  4 0.42579175E+03</rscale>
<asrwt>0</asrwt>
<pdfrwt beam="1">  1        2 0.30685093E+00 0.42579175E+03</pdfrwt>
<pdfrwt beam="2">  1       -2 0.47510675E-02 0.42579175E+03</pdfrwt>
<totfact> 0.15653201E+03</totfact>
</mgrwt>
</event>
<event>
 5    0  0.2754780E-002  0.4393164E+03  0.7546771E-02  0.1030957E+00
          2   -1    0    0  502    0  0.00000000000E+00  0.00000000000E+00  0.72951583775E+02  0.72951583775E+02  0.00000000000E+00 0. -1.
         -2   -1    0    0    0  501 -0.00000000000E+00 -0.00000000000E+00 -0.25523174478E+04  0.25523174478E+04  0.00000000000E+00 0.  1.
         25    1    1    2    0    0  0.16948122387E+03  0.15083850919E+03 -0.12960386488E+04  0.13216721682E+04  0.12500000000E+03 0.  0.
         21    1    1    2  502  503 -0.11913444354E+03 -0.12751664413E+03 -0.12229993784E+04  0.12353869798E+04  0.00000000000E+00 0.  1.
         21    1    1    2  503  501 -0.50346780335E+02 -0.23321865061E+02  0.39672163215E+02  0.68209883552E+02  0.00000000000E+00 0. -1.
<mgrwt>
<rscale>  4 0.43931641E+03</rscale>
<asrwt>0</asrwt>
<pdfrwt beam="1">  1        2 0.11223319E-01 0.43931641E+03</pdfrwt>
<pdfrwt beam="2">  1       -2 0.39266429E+00 0.43931641E+03</pdfrwt>
<totfact> 0.53170803E+00</totfact>
</mgrwt>
</event>
<event>
 5    0  0.2754780E-002  0.4723696E+03  0.7546771E-02  0.1021254E+00
          2   -1    0    0  503    0  0.00000000000E+00  0.00000000000E+00  0.18940634402E+04  0.18940634402E+04  0.00000000000E+00 0.  1.
         -2   -1    0    0    0  501 -0.00000000000E+00 -0.00000000000E+00 -0.10538590124E+03  0.10538590124E+03  0.00000000000E+00 0. -1.
         25    1    1    2    0    0 -0.12062407989E+03  0.18617505629E+03  0.13075380180E+03  0.28623919529E+03  0.12500000000E+03 0.  0.
         21    1    1    2  502  501 -0.14654595443E+02 -0.56920687210E+02  0.13608999413E+04  0.13621686284E+04  0.00000000000E+00 0.  1.
         21    1    1    2  503  502  0.13527867533E+03 -0.12925436908E+03  0.29702379588E+03  0.35104151784E+03  0.00000000000E+00 0.  1.
<mgrwt>
<rscale>  4 0.47236959E+03</rscale>
<asrwt>0</asrwt>
<pdfrwt beam="1">  1        2 0.29139435E+00 0.47236959E+03</pdfrwt>
<pdfrwt beam="2">  1       -2 0.16213217E-01 0.47236959E+03</pdfrwt>
<totfact> 0.24673464E+02</totfact>
</mgrwt>
</event>
<event>
 5    0  0.2754780E-002  0.3828723E+03  0.7546771E-02  0.1049877E+00
          2   -1    0    0  502    0  0.00000000000E+00  0.00000000000E+00  0.21483713867E+04  0.21483713867E+04  0.00000000000E+00 0. -1.
         -2   -1    0    0    0  501 -0.00000000000E+00 -0.00000000000E+00 -0.47412243883E+02  0.47412243883E+02  0.00000000000E+00 0.  1.
         25    1    1    2    0    0  0.19848759000E+03  0.47119502720E+02  0.36969364106E+03  0.44035889813E+03  0.12500000000E+03 0.  0.
         21    1    1    2  502  503 -0.12895300368E+03 -0.19863789703E+02  0.37398907911E+03  0.39609503733E+03  0.00000000000E+00 0. -1.
         21    1    1    2  503  501 -0.69534586321E+02 -0.27255713017E+02  0.13572764227E+04  0.13593296951E+04  0.00000000000E+00 0. -1.
<mgrwt>
<rscale>  4 0.38287230E+03</rscale>
<asrwt>0</asrwt>
<pdfrwt beam="1">  1        2 0.33051860E+00 0.38287230E+03</pdfrwt>
<pdfrwt beam="2">  1       -2 0.72941930E-02 0.38287230E+03</pdfrwt>
<totfact> 0.66784007E+02</totfact>
</mgrwt>
</event>
<event>
 5    0  0.2754780E-002  0.5414334E+03  0.7546771E-02  0.1003496E+00
         -2   -1    0    0    0  501 -0.00000000000E+00  0.00000000000E+00  0.19393052848E+03  0.19393052848E+03  0.00000000000E+00 0. -1.
          2   -1    0    0  503    0  0.00000000000E+00 -0.00000000000E+00 -0.71901741081E+03  0.71901741081E+03  0.00000000000E+00 0.  1.
         25    1    1    2    0    0 -0.10593415601E+03 -0.21733944074E+03 -0.17653315606E+03  0.32441860782E+03  0.12500000000E+03 0.  0.
         21    1    1    2  502  501  0.22860489730E+03  0.10844160734E+03 -0.34060836177E+03  0.42430394457E+03  0.00000000000E+00 0.  1.
         21    1    1    2  503  502 -0.12267074129E+03  0.10889783340E+03 -0.79453644985E+01  0.16422538690E+03  0.00000000000E+00 0. -1.
<mgrwt>
<rscale>  4 0.54143339E+03</rscale>
<asrwt>0</asrwt>
<pdfrwt beam="1">  1        2 0.11061806E+00 0.54143339E+03</pdfrwt>
<pdfrwt beam="2">  1       -2 0.29835466E-01 0.54143339E+03</pdfrwt>
<totfact> 0.41569989E+02</totfact>
</mgrwt>
</event>
<event>
 5    0  0.2754780E-002  0.6771102E+03  0.7546771E-02  0.9757198E-01
         -2   -1    0    0    0  501 -0.00000000000E+00  0.00000000000E+00  0.14198320696E+03  0.14198320696E+03  0.00000000000E+00 0. -1.
          2   -1    0    0  503    0  0.00000000000E+00 -0.00000000000E+00 -0.98165895304E+03  0.98165895304E+03  0.00000000000E+00 0.  1.
         25    1    1    2    0    0 -0.29733875369E+03  0.94714037613E+02 -0.33190967910E+03  0.47240884670E+03  0.12500000000E+03 0.  0.
         21    1    1    2  502  501 -0.24515523495E+02  0.17736884515E+02 -0.16511514153E+03  0.16786487997E+03  0.00000000000E+00 0. -1.
         21    1    1    2  503  502  0.32185427718E+03 -0.11245092213E+03 -0.34265092545E+03  0.48336843333E+03  0.00000000000E+00 0.  1.
<mgrwt>
<rscale>  4 0.67711018E+03</rscale>
<asrwt>0</asrwt>
<pdfrwt beam="1">  1        2 0.15102445E+00 0.67711018E+03</pdfrwt>
<pdfrwt beam="2">  1       -2 0.21843571E-01 0.67711018E+03</pdfrwt>
<totfact> 0.47690341E+02</totfact>
</mgrwt>
</event>
<event>
 5    0  0.2754780E-002  0.4789871E+03  0.7546771E-02  0.1019414E+00
          2   -1    0    0  503    0  0.00000000000E+00  0.00000000000E+00  0.56876751129E+03  0.56876751129E+03  0.00000000000E+00 0.  1.
         -2   -1    0    0    0  501 -0.00000000000E+00 -0.00000000000E+00 -0.15716756058E+03  0.15716756058E+03  0.00000000000E+00 0. -1.
         25    1    1    2    0    0  0.11751861262E+03  0.22281871822E+03  0.12763521341E+03  0.30882770796E+03  0.12500000000E+03 0.  0.
         21    1    1    2  502  501 -0.15085006858E+02 -0.17162074135E+03  0.23776993613E+03  0.29362523533E+03  0.00000000000E+00 0.  1.
         21    1    1    2  503  502 -0.10243360576E+03 -0.51197976869E+02  0.46194801164E+02  0.12348212858E+03  0.00000000000E+00 0. -1.
<mgrwt>
<rscale>  4 0.47898708E+03</rscale>
<asrwt>0</asrwt>
<pdfrwt beam="1">  1        2 0.87502693E-01 0.47898708E+03</pdfrwt>
<pdfrwt beam="2">  1       -2 0.24179625E-01 0.47898708E+03</pdfrwt>
<totfact> 0.81044860E+02</totfact>
</mgrwt>
</event>
<event>
 5    0  0.2754780E-002  0.4944905E+03  0.7546771E-02  0.1015227E+00
         -3   -1    0    0    0  501 -0.00000000000E+00  0.00000000000E+00  0.11850433462E+04  0.11850433462E+04  0.00000000000E+00 0. -1.
          3   -1    0    0  502    0  0.00000000000E+00 -0.00000000000E+00 -0.82308917070E+02  0.82308917070E+02  0.00000000000E+00 0.  1.
         25    1    1    2    0    0 -0.23364283462E+03  0.41491988774E+02  0.74993608230E+03  0.79645444743E+03  0.12500000000E+03 0.  0.
         21    1    1    2  502  503  0.21218514547E+03 -0.38462524145E+02  0.37951251587E+03  0.43649931435E+03  0.00000000000E+00 0. -1.
         21    1    1    2  503  501  0.21457689158E+02 -0.30294646288E+01 -0.26714169019E+02  0.34398501513E+02  0.00000000000E+00 0.  1.
<mgrwt>
<rscale>  4 0.49449049E+03</rscale>
<asrwt>0</asrwt>
<pdfrwt beam="1">  1        3 0.12662911E-01 0.49449049E+03</pdfrwt>
<pdfrwt beam="2">  1       -3 0.18231435E+00 0.49449049E+03</pdfrwt>
<totfact> 0.25883910E+01</totfact>
</mgrwt>
</event>
<event>
 5    0  0.2754780E-002  0.4527662E+03  0.7546771E-02  0.1026900E+00
          2   -1    0    0  502    0  0.00000000000E+00  0.00000000000E+00  0.52759332664E+03  0.52759332664E+03  0.00000000000E+00 0.  1.
         -2   -1    0    0    0  501 -0.00000000000E+00 -0.00000000000E+00 -0.16697249591E+03  0.16697249591E+03  0.00000000000E+00 0. -1.
         25    1    1    2    0    0  0.39262129757E+02  0.20828788270E+03  0.66955227271E+02  0.25501639039E+03  0.12500000000E+03 0.  0.
         21    1    1    2  502  503 -0.70566209136E+02 -0.19372753070E+03  0.76902945128E+02  0.22005455913E+03  0.00000000000E+00 0. -1.
         21    1    1    2  503  501  0.31304079379E+02 -0.14560351995E+02  0.21676265834E+03  0.21949487303E+03  0.00000000000E+00 0.  1.
<mgrwt>
<rscale>  4 0.45276620E+03</rscale>
<asrwt>0</asrwt>
<pdfrwt beam="1">  1        2 0.81168203E-01 0.45276620E+03</pdfrwt>
<pdfrwt beam="2">  1       -2 0.25688077E-01 0.45276620E+03</pdfrwt>
<totfact> 0.79411454E+02</totfact>
</mgrwt>
</event>
<event>
 5    0  0.2754780E-002  0.5135953E+03  0.7546771E-02  0.1010290E+00
         -4   -1    0    0    0  501 -0.00000000000E+00  0.00000000000E+00  0.12290189053E+03  0.12290189053E+03  0.00000000000E+00 0. -1.
          4   -1    0    0  503    0  0.00000000000E+00 -0.00000000000E+00 -0.53656656569E+03  0.53656656569E+03  0.00000000000E+00 0.  1.
         25    1    1    2    0    0 -0.78497555591E+02 -0.22066412160E+03 -0.16905015815E+03  0.31473397777E+03  0.12500000000E+03 0.  0.
         21    1    1    2  502  501 -0.94950647745E+01  0.17923462676E+02 -0.33085895558E+02  0.38808288474E+02  0.00000000000E+00 0. -1.
         21    1    1    2  503  502  0.87992620365E+02  0.20274065892E+03 -0.21152862145E+03  0.30592618998E+03  0.00000000000E+00 0.  1.
<mgrwt>
<rscale>  4 0.51359535E+03</rscale>
<asrwt>0</asrwt>
<pdfrwt beam="1">  1        4 0.82548702E-01 0.51359535E+03</pdfrwt>
<pdfrwt beam="2">  1       -4 0.18907983E-01 0.51359535E+03</pdfrwt>
<totfact> 0.64633722E+01</totfact>
</mgrwt>
</event>
<event>
 5    0  0.2754780E-002  0.4468025E+03  0.7546771E-02  0.1028680E+00
          3   -1    0    0  502    0  0.00000000000E+00  0.00000000000E+00  0.24214672862E+03  0.24214672862E+03  0.00000000000E+00 0. -1.
         -3   -1    0    0    0  501 -0.00000000000E+00 -0.00000000000E+00 -0.24425900920E+03  0.24425900920E+03  0.00000000000E+00 0.  1.
         25    1    1    2    0    0 -0.14969829065E+03 -0.15665369153E+03 -0.35670186522E+01  0.25017530037E+03  0.12500000000E+03 0.  0.
         21    1    1    2  502  503  0.13819132365E+03  0.13840290950E+03 -0.30223058174E+02  0.19790310896E+03  0.00000000000E+00 0. -1.
         21    1    1    2  503  501  0.11506966997E+02  0.18250782038E+02  0.31677796239E+02  0.38327328488E+02  0.00000000000E+00 0. -1.
<mgrwt>
<rscale>  4 0.44680252E+03</rscale>
<asrwt>0</asrwt>
<pdfrwt beam="1">  1        3 0.37253343E-01 0.44680252E+03</pdfrwt>
<pdfrwt beam="2">  1       -3 0.37578309E-01 0.44680252E+03</pdfrwt>
<totfact> 0.12986665E+02</totfact>
</mgrwt>
</event>
<event>
 5    0  0.2754780E-002  0.4725866E+03  0.7546771E-02  0.1021193E+00
          2   -1    0    0  503    0  0.00000000000E+00  0.00000000000E+00  0.14572525288E+04  0.14572525288E+04  0.00000000000E+00 0.  1.
         -2   -1    0    0    0  501 -0.00000000000E+00 -0.00000000000E+00 -0.49690827621E+02  0.49690827621E+02  0.00000000000E+00 0. -1.
         25    1    1    2    0    0  0.20246907134E+03 -0.16001706833E+01  0.93817802222E+03  0.96788392216E+03  0.12500000000E+03 0.  0.
         21    1    1    2  502  501 -0.31005547860E+02  0.48976547184E+02  0.24992579094E+03  0.25655983151E+03  0.00000000000E+00 0. -1.
         21    1    1    2  503  502 -0.17146352348E+03 -0.47376376501E+02  0.21945788801E+03  0.28249960273E+03  0.00000000000E+00 0.  1.
<mgrwt>
<rscale>  4 0.47258656E+03</rscale>
<asrwt>0</asrwt>
<pdfrwt beam="1">  1        2 0.22419266E+00 0.47258656E+03</pdfrwt>
<pdfrwt beam="2">  1       -2 0.76447438E-02 0.47258656E+03</pdfrwt>
<totfact> 0.14496736E+03</totfact>
</mgrwt>
</event>
<event>
 5    0  0.2754780E-002  0.7475763E+03  0.7546771E-02  0.9639161E-01
          2   -1    0    0  502    0  0.00000000000E+00  0.00000000000E+00  0.25419657215E+03  0.25419657215E+03  0.00000000000E+00 0.  1.
         -2   -1    0    0    0  501 -0.00000000000E+00 -0.00000000000E+00 -0.62139525482E+03  0.62139525482E+03  0.00000000000E+00 0. -1.
         25    1    1    2    0    0 -0.11088028543E+03 -0.28753635492E+03  0.79676115665E+01  0.33265609259E+03  0.12500000000E+03 0.  0.
         21    1    1    2  502  503  0.83305928172E+02  0.32074886381E+03 -0.37407898929E+03  0.49975474138E+03  0.00000000000E+00 0. -1.
         21    1    1    2  503  501  0.27574357262E+02 -0.33212508881E+02 -0.10873049445E+01  0.43180993002E+02  0.00000000000E+00 0.  1.
<mgrwt>
<rscale>  4 0.74757625E+03</rscale>
<asrwt>0</asrwt>
<pdfrwt beam="1">  1        2 0.39107165E-01 0.74757625E+03</pdfrwt>
<pdfrwt beam="2">  1       -2 0.95599269E-01 0.74757625E+03</pdfrwt>
<totfact> 0.12243039E+02</totfact>
</mgrwt>
</event>
<event>
 5    0  0.2754780E-002  0.6099278E+03  0.7546771E-02  0.9885020E-01
          1   -1    0    0  503    0  0.00000000000E+00  0.00000000000E+00  0.64796240467E+02  0.64796240467E+02  0.00000000000E+00 0.  1.
         -1   -1    0    0    0  501 -0.00000000000E+00 -0.00000000000E+00 -0.15550460976E+04  0.15550460976E+04  0.00000000000E+00 0. -1.
         25    1    1    2    0    0  0.24688541456E+03 -0.96797656092E+02 -0.48656280357E+03  0.56805858498E+03  0.12500000000E+03 0.  0.
         21    1    1    2  502  501  0.17849012668E+02 -0.17404235348E+02 -0.58211257745E+02  0.63324917604E+02  0.00000000000E+00 0.  1.
         21    1    1    2  503  502 -0.26473442723E+03  0.11420189144E+03 -0.94547579581E+03  0.98845883548E+03  0.00000000000E+00 0. -1.
<mgrwt>
<rscale>  4 0.60992781E+03</rscale>
<asrwt>0</asrwt>
<pdfrwt beam="1">  1        1 0.99686529E-02 0.60992781E+03</pdfrwt>
<pdfrwt beam="2">  1       -1 0.23923785E+00 0.60992781E+03</pdfrwt>
<totfact> 0.57519336E+01</totfact>
</mgrwt>
</event>
<event>
 5    0  0.2754780E-002  0.7091223E+03  0.7546771E-02  0.9701758E-01
         -1   -1    0    0    0  501 -0.00000000000E+00  0.00000000000E+00  0.17586379989E+03  0.17586379989E+03  0.00000000000E+00 0.  1.
          1   -1    0    0  502    0  0.00000000000E+00 -0.00000000000E+00 -0.22317234469E+04  0.22317234469E+04  0.00000000000E+00 0. -1.
         25    1    1    2    0    0 -0.21551303371E+03  0.30195645891E+03 -0.27753386902E+03  0.47986833530E+03  0.12500000000E+03 0.  0.
         21    1    1    2  502  503  0.14879474048E+03 -0.27960636816E+03 -0.26559469872E+03  0.41335231934E+03  0.00000000000E+00 0. -1.
         21    1    1    2  503  501  0.66718293223E+02 -0.22350090745E+02 -0.15127310793E+04  0.15143665921E+04  0.00000000000E+00 0. -1.
<mgrwt>
<rscale>  4 0.70912234E+03</rscale>
<asrwt>0</asrwt>
<pdfrwt beam="1">  1        1 0.34334206E+00 0.70912234E+03</pdfrwt>
<pdfrwt beam="2">  1       -1 0.27055970E-01 0.70912234E+03</pdfrwt>
<totfact> 0.26531070E+01</totfact>
</mgrwt>
</event>
<event>
 5    0  0.2754780E-002  0.6362986E+03  0.7546771E-02  0.9832834E-01
         -2   -1    0    0    0  501 -0.00000000000E+00  0.00000000000E+00  0.24287600667E+03  0.24287600667E+03  0.00000000000E+00 0.  1.
          2   -1    0    0  502    0  0.00000000000E+00 -0.00000000000E+00 -0.46493132873E+03  0.46493132873E+03  0.00000000000E+00 0. -1.
         25    1    1    2    0    0  0.24154572303E+03 -0.46628308565E+02  0.83210352023E+02  0.28821432677E+03  0.12500000000E+03 0.  0.
         21    1    1    2  502  503 -0.24024490055E+03  0.11274231927E+02 -0.29889781871E+03  0.38364648646E+03  0.00000000000E+00 0. -1.
         21    1    1    2  503  501 -0.13008224814E+01  0.35354076638E+02 -0.63678553670E+01  0.35946522169E+02  0.00000000000E+00 0.  1.
<mgrwt>
<rscale>  4 0.63629857E+03</rscale>
<asrwt>0</asrwt>
<pdfrwt beam="1">  1        2 0.71527897E-01 0.63629857E+03</pdfrwt>
<pdfrwt beam="2">  1       -2 0.37365540E-01 0.63629857E+03</pdfrwt>
<totfact> 0.45630167E+02</totfact>
</mgrwt>
</event>
<event>
 5    0  0.2754780E-002  0.3931802E+03  0.7546771E-02  0.1046167E+00
         -1   -1    0    0    0  501 -0.00000000000E+00  0.00000000000E+00  0.61183492632E+03  0.61183492632E+03  0.00000000000E+00 0.  1.
          1   -1    0    0  503    0  0.00000000000E+00 -0.00000000000E+00 -0.18695770194E+03  0.18695770194E+03  0.00000000000E+00 0. -1.
         25    1    1    2    0    0 -0.19401854377E+03 -0.10270552520E+03  0.35408371760E+03  0.43496195155E+03  0.12500000000E+03 0.  0.
         21    1    1    2  502  501  0.13932091253E+03 -0.64198059481E+01  0.16028904861E+03  0.21247143263E+03  0.00000000000E+00 0.  1.
         21    1    1    2  503  502  0.54697631236E+02  0.10912533114E+03 -0.89495541836E+02  0.15135924408E+03  0.00000000000E+00 0.  1.
<mgrwt>
<rscale>  4 0.39318017E+03</rscale>
<asrwt>0</asrwt>
<pdfrwt beam="1">  1        1 0.28762724E-01 0.39318017E+03</pdfrwt>
<pdfrwt beam="2">  1       -1 0.94128449E-01 0.39318017E+03</pdfrwt>
<totfact> 0.18347239E+02</totfact>
</mgrwt>
</event>
<event>
 5    0  0.2754780E-002  0.8203089E+03  0.7546771E-02  0.9531077E-01
         -2   -1    0    0    0  501 -0.00000000000E+00  0.00000000000E+00  0.72145766955E+03  0.72145766955E+03  0.00000000000E+00 0. -1.
          2   -1    0    0  502    0  0.00000000000E+00 -0.00000000000E+00 -0.75130021872E+03  0.75130021872E+03  0.00000000000E+00 0.  1.
         25    1    1    2    0    0 -0.20929932915E+02 -0.24857394436E+03  0.62133019505E+03  0.68110445542E+03  0.12500000000E+03 0.  0.
         21    1    1    2  502  503  0.40954660554E+02  0.23502159116E+03 -0.13342196439E+03  0.27333834915E+03  0.00000000000E+00 0.  1.
         21    1    1    2  503  501 -0.20024727639E+02  0.13552353204E+02 -0.51775077982E+03  0.51831508371E+03  0.00000000000E+00 0.  1.
<mgrwt>
<rscale>  4 0.82030886E+03</rscale>
<asrwt>0</asrwt>
<pdfrwt beam="1">  1        2 0.11558465E+00 0.82030886E+03</pdfrwt>
<pdfrwt beam="2">  1       -2 0.11099349E+00 0.82030886E+03</pdfrwt>
<totfact> 0.24239639E+01</totfact>
</mgrwt>
</event>
<event>
 5    0  0.2754780E-002  0.6573257E+03  0.7546771E-02  0.9793129E-01
          2   -1    0    0  503    0  0.00000000000E+00  0.00000000000E+00  0.25956725194E+04  0.25956725194E+04  0.00000000000E+00 0.  1.
         -2   -1    0    0    0  501 -0.00000000000E+00 -0.00000000000E+00 -0.55002938958E+02  0.55002938958E+02  0.00000000000E+00 0. -1.
         25    1    1    2    0    0 -0.30071071759E+02 -0.29183393852E+03  0.14169735585E+04  0.14524153616E+04  0.12500000000E+03 0.  0.
         21    1    1    2  502  501  0.58494814552E+02  0.41151014330E+01  0.57563710965E+03  0.57861615895E+03  0.00000000000E+00 0.  1.
         21    1    1    2  503  502 -0.28423742793E+02  0.28771883709E+03  0.54805891232E+03  0.61964393788E+03  0.00000000000E+00 0. -1.
<mgrwt>
<rscale>  4 0.65732574E+03</rscale>
<asrwt>0</asrwt>
<pdfrwt beam="1">  1        2 0.39933414E+00 0.65732574E+03</pdfrwt>
<pdfrwt beam="2">  1       -2 0.84619927E-02 0.65732574E+03</pdfrwt>
<totfact> 0.28925083E+02</totfact>
</mgrwt>
</event>
<event>
 5    0  0.2754780E-002  0.5395023E+03  0.7546771E-02  0.1003953E+00
         -3   -1    0    0    0  501 -0.00000000000E+00  0.00000000000E+00  0.39014530870E+03  0.39014530870E+03  0.00000000000E+00 0. -1.
          3   -1    0    0  502    0  0.00000000000E+00 -0.00000000000E+00 -0.36914856413E+03  0.36914856413E+03  0.00000000000E+00 0.  1.
         25    1    1    2    0    0 -0.24280845585E+03  0.15805396252E+02  0.22058635013E+03  0.35141015160E+03  0.12500000000E+03 0.  0.
         21    1    1    2  502  503  0.36230150816E+02  0.60029373300E+02 -0.17244946930E+03  0.18615845119E+03  0.00000000000E+00 0.  1.
         21    1    1    2  503  501  0.20657830503E+03 -0.75834769552E+02 -0.27140136254E+02  0.22172527005E+03  0.00000000000E+00 0.  1.
<mgrwt>
<rscale>  4 0.53950234E+03</rscale>
<asrwt>0</asrwt>
<pdfrwt beam="1">  1        3 0.56792087E-01 0.53950234E+03</pdfrwt>
<pdfrwt beam="2">  1       -3 0.60022355E-01 0.53950234E+03</pdfrwt>
<totfact> 0.21610515E+01</totfact>
</mgrwt>
</event>
<event>
 5    0  0.2754780E-002  0.8199266E+03  0.7546771E-02  0.9531614E-01
          2   -1    0    0  502    0  0.00000000000E+00  0.00000000000E+00  0.15019812134E+04  0.15019812134E+04  0.00000000000E+00 0. -1.
         -2   -1    0    0    0  501 -0.00000000000E+00 -0.00000000000E+00 -0.13726507961E+03  0.13726507961E+03  0.00000000000E+00 0.  1.
         25    1    1    2    0    0 -0.35057545758E+03  0.12734516442E+03  0.33114524080E+03  0.51420045981E+03  0.12500000000E+03 0.  0.
         21    1    1    2  502  503  0.36557490587E+03 -0.11099979718E+03  0.76048344750E+03  0.85105877628E+03  0.00000000000E+00 0. -1.
         21    1    1    2  503  501 -0.14999448284E+02 -0.16345367243E+02  0.27308744550E+03  0.27398705694E+03  0.00000000000E+00 0.  1.
<mgrwt>
<rscale>  4 0.81992658E+03</rscale>
<asrwt>0</asrwt>
<pdfrwt beam="1">  1        2 0.23107402E+00 0.81992658E+03</pdfrwt>
<pdfrwt beam="2">  1       -2 0.21117706E-01 0.81992658E+03</pdfrwt>
<totfact> 0.24774280E+02</totfact>
</mgrwt>
</event>
<event>
 5    0  0.2754780E-002  0.6299947E+03  0.7546771E-02  0.9845059E-01
          2   -1    0    0  502    0  0.00000000000E+00  0.00000000000E+00  0.11705859763E+04  0.11705859763E+04  0.00000000000E+00 0.  1.
         -2   -1    0    0    0  501 -0.00000000000E+00 -0.00000000000E+00 -0.12354675328E+03  0.12354675328E+03  0.00000000000E+00 0. -1.
         25    1    1    2    0    0 -0.14386402803E+03  0.26188267385E+03  0.37729054686E+03  0.49724495993E+03  0.12500000000E+03 0.  0.
         21    1    1    2  502  503  0.16437358710E+03 -0.25703492265E+03  0.30457009821E+03  0.43110158005E+03  0.00000000000E+00 0. -1.
         21    1    1    2  503  501 -0.20509559068E+02 -0.48477512026E+01  0.36517857792E+03  0.36578618956E+03  0.00000000000E+00 0.  1.
<mgrwt>
<rscale>  4 0.62999473E+03</rscale>
<asrwt>0</asrwt>
<pdfrwt beam="1">  1        2 0.18009014E+00 0.62999473E+03</pdfrwt>
<pdfrwt beam="2">  1       -2 0.19007194E-01 0.62999473E+03</pdfrwt>
<totfact> 0.46650611E+02</totfact>
</mgrwt>
</event>
<event>
 5    0  0.2754780E-002  0.7107493E+03  0.7546771E-02  0.9699024E-01
          2   -1    0    0  503    0  0.00000000000E+00  0.00000000000E+00  0.18848639975E+04  0.18848639975E+04  0.00000000000E+00 0.  1.
         -2   -1    0    0    0  501 -0.00000000000E+00 -0.00000000000E+00 -0.80660194559E+02  0.80660194559E+02  0.00000000000E+00 0. -1.
         25    1    1    2    0    0 -0.24537540926E+03 -0.20141931733E+03  0.51719071227E+03  0.61958862620E+03  0.12500000000E+03 0.  0.
         21    1    1    2  502  501 -0.42723629242E+02  0.27716401373E+02  0.26895748250E+03  0.27373643307E+03  0.00000000000E+00 0.  1.
         21    1    1    2  503  502  0.28809903850E+03  0.17370291595E+03  0.10180556081E+04  0.10721991327E+04  0.00000000000E+00 0.  1.
<mgrwt>
<rscale>  4 0.71074929E+03</rscale>
<asrwt>0</asrwt>
<pdfrwt beam="1">  1        2 0.28997904E+00 0.71074929E+03</pdfrwt>
<pdfrwt beam="2">  1       -2 0.12409262E-01 0.71074929E+03</pdfrwt>
<totfact> 0.38151276E+02</totfact>
</mgrwt>
</event>
<event>
 5    0  0.2754780E-002  0.5015381E+03  0.7546771E-02  0.1013378E+00
          2   -1    0    0  502    0  0.00000000000E+00  0.00000000000E+00  0.15852695768E+04  0.15852695768E+04  0.00000000000E+00 0. -1.
         -2   -1    0    0    0  501 -0.00000000000E+00 -0.00000000000E+00 -0.45146983387E+02  0.45146983387E+02  0.00000000000E+00 0.  1.
         25    1    1    2    0    0  0.75737677835E+01  0.23617382127E+03  0.58127733607E+03  0.63979979465E+03  0.12500000000E+03 0.  0.
         21    1    1    2  502  503 -0.24455358148E+02 -0.21917381980E+03  0.79469859620E+03  0.82473091771E+03  0.00000000000E+00 0.  1.
         21    1    1    2  503  501  0.16881590364E+02 -0.17000001467E+02  0.16414666119E+03  0.16588584787E+03  0.00000000000E+00 0. -1.
<mgrwt>
<rscale>  4 0.50153808E+03</rscale>
<asrwt>0</asrwt>
<pdfrwt beam="1">  1        2 0.24388758E+00 0.50153808E+03</pdfrwt>
<pdfrwt beam="2">  1       -2 0.69456910E-02 0.50153808E+03</pdfrwt>
<totfact> 0.14336690E+03</totfact>
</mgrwt>
</event>
<event>
 5    0  0.2754780E-002  0.4679397E+03  0.7546771E-02  0.1022503E+00
         -2   -1    0    0    0  501 -0.00000000000E+00  0.00000000000E+00  0.10360127863E+03  0.10360127863E+03  0.00000000000E+00 0.  1.
          2   -1    0    0  502    0  0.00000000000E+00 -0.00000000000E+00 -0.91573706317E+03  0.91573706317E+03  0.00000000000E+00 0. -1.
         25    1    1    2    0    0 -0.21441404119E+03 -0.11174828591E+03 -0.57221105194E+03  0.63364938919E+03  0.12500000000E+03 0.  0.
         21    1    1    2  502  503  0.34735671028E+02  0.56507590535E+02  0.15917122249E+02  0.68213117584E+02  0.00000000000E+00 0.  1.
         21    1    1    2  503  501  0.17967837017E+03  0.55240695374E+02 -0.25584185485E+03  0.31747583502E+03  0.00000000000E+00 0.  1.
<mgrwt>
<rscale>  4 0.46793971E+03</rscale>
<asrwt>0</asrwt>
<pdfrwt beam="1">  1        2 0.14088263E+00 0.46793971E+03</pdfrwt>
<pdfrwt beam="2">  1       -2 0.15938658E-01 0.46793971E+03</pdfrwt>
<totfact> 0.91407356E+02</totfact>
</mgrwt>
</event>
<event>
 5    0  0.2754780E-002  0.5971138E+03  0.7546771E-02  0.9911412E-01
          2   -1    0    0  502    0  0.00000000000E+00  0.00000000000E+00  0.35355598313E+03  0.35355598313E+03  0.00000000000E+00 0. -1.
         -2   -1    0    0    0  501 -0.00000000000E+00 -0.00000000000E+00 -0.25211348192E+03  0.25211348192E+03  0.00000000000E+00 0.  1.
         25    1    1    2    0    0  0.19721060507E+03 -0.49656985143E+02 -0.14350767187E+03  0.27852700194E+03  0.12500000000E+03 0.  0.
         21    1    1    2  502  503 -0.15333176954E+03  0.10779665614E+02  0.14523638485E+03  0.21147207906E+03  0.00000000000E+00 0. -1.
         21    1    1    2  503  501 -0.43878835526E+02  0.38877319530E+02  0.99713788237E+02  0.11567038405E+03  0.00000000000E+00 0. -1.
<mgrwt>
<rscale>  4 0.59711382E+03</rscale>
<asrwt>0</asrwt>
<pdfrwt beam="1">  1        2 0.54393228E-01 0.59711382E+03</pdfrwt>
<pdfrwt beam="2">  1       -2 0.38786690E-01 0.59711382E+03</pdfrwt>
<totfact> 0.57808957E+02</totfact>
</mgrwt>
</event>
<event>
 5    0  0.2754780E-002  0.4631313E+03  0.7546771E-02  0.1023877E+00
         -2   -1    0    0    0  501 -0.00000000000E+00  0.00000000000E+00  0.31765228610E+02  0.31765228610E+02  0.00000000000E+00 0.  1.
          2   -1    0    0  503    0  0.00000000000E+00 -0.00000000000E+00 -0.18602184463E+04  0.18602184463E+04  0.00000000000E+00 0. -1.
         25    1    1    2    0    0 -0.13207006141E+03 -0.16286170623E+03 -0.11915446463E+04  0.12162935833E+04  0.12500000000E+03 0.  0.
         21    1    1    2  502  501 -0.11557474216E+02  0.19314093678E+02 -0.67881402111E+02  0.71515691827E+02  0.00000000000E+00 0.  1.
         21    1    1    2  503  502  0.14362753563E+03  0.14354761255E+03 -0.56902716922E+03  0.60417439979E+03  0.00000000000E+00 0. -1.
<mgrwt>
<rscale>  4 0.46313126E+03</rscale>
<asrwt>0</asrwt>
<pdfrwt beam="1">  1        2 0.28618747E+00 0.46313126E+03</pdfrwt>
<pdfrwt beam="2">  1       -2 0.48869580E-02 0.46313126E+03</pdfrwt>
<totfact> 0.17651853E+03</totfact>
</mgrwt>
</event>
<event>
 5    0  0.2754780E-002  0.7834243E+03  0.7546771E-02  0.9584325E-01
          2   -1    0    0  503    0  0.00000000000E+00  0.00000000000E+00  0.11135449924E+04  0.11135449924E+04  0.00000000000E+00 0.  1.
         -2   -1    0    0    0  501 -0.00000000000E+00 -0.00000000000E+00 -0.18028260294E+03  0.18028260294E+03  0.00000000000E+00 0. -1.
         25    1    1    2    0    0 -0.12695652016E+03 -0.21101891045E+03  0.75973317997E+03  0.80837271313E+03  0.12500000000E+03 0.  0.
         21    1    1    2  502  501  0.34525345748E+02  0.18011947563E+02  0.25389489164E+03  0.25686386619E+03  0.00000000000E+00 0.  1.
         21    1    1    2  503  502  0.92431174411E+02  0.19300696289E+03 -0.80365682167E+02  0.22859101600E+03  0.00000000000E+00 0. -1.
<mgrwt>
<rscale>  4 0.78342426E+03</rscale>
<asrwt>0</asrwt>
<pdfrwt beam="1">  1        2 0.17131461E+00 0.78342426E+03</pdfrwt>
<pdfrwt beam="2">  1       -2 0.27735786E-01 0.78342426E+03</pdfrwt>
<totfact> 0.25531031E+02</totfact>
</mgrwt>
</event>
<event>
 5    0  0.2754780E-002  0.5812249E+03  0.7546771E-02  0.9945143E-01
         -1   -1    0    0    0  501 -0.00000000000E+00  0.00000000000E+00  0.28113505729E+03  0.28113505729E+03  0.00000000000E+00 0. -1.
          1   -1    0    0  503    0  0.00000000000E+00 -0.00000000000E+00 -0.47327994202E+03  0.47327994202E+03  0.00000000000E+00 0.  1.
         25    1    1    2    0    0 -0.22107137671E+03 -0.13802780477E+03 -0.46606452245E+02  0.29278215431E+03  0.12500000000E+03 0.  0.
         21    1    1    2  502  501 -0.45326430227E+02  0.27256858514E+02 -0.16421164049E+03  0.17251922932E+03  0.00000000000E+00 0.  1.
         21    1    1    2  503  502  0.26639780694E+03  0.11077094625E+03  0.18673207997E+02  0.28911361568E+03  0.00000000000E+00 0. -1.
<mgrwt>
<rscale>  4 0.58122493E+03</rscale>
<asrwt>0</asrwt>
<pdfrwt beam="1">  1        1 0.72812298E-01 0.58122493E+03</pdfrwt>
<pdfrwt beam="2">  1       -1 0.43251548E-01 0.58122493E+03</pdfrwt>
<totfact> 0.25706694E+02</totfact>
</mgrwt>
</event>
<event>
 5    0  0.2754780E-002  0.4783861E+03  0.7546771E-02  0.1019580E+00
         -2   -1    0    0    0  501 -0.00000000000E+00  0.00000000000E+00  0.13561180445E+02  0.13561180445E+02  0.00000000000E+00 0.  1.
          2   -1    0    0  503    0  0.00000000000E+00 -0.00000000000E+00 -0.42189045254E+04  0.42189045254E+04  0.00000000000E+00 0. -1.
         25    1    1    2    0    0 -0.16122518854E+03 -0.12818014493E+03 -0.15527030781E+04  0.15712846845E+04  0.12500000000E+03 0.  0.
         21    1    1    2  502  501  0.83647022043E+01  0.18364050572E+02 -0.47265842637E+03  0.47308899228E+03  0.00000000000E+00 0.  1.
         21    1    1    2  503  502  0.15286048633E+03  0.10981609436E+03 -0.21799818405E+04  0.21880920291E+04  0.00000000000E+00 0.  1.
<mgrwt>
<rscale>  4 0.47838614E+03</rscale>
<asrwt>0</asrwt>
<pdfrwt beam="1">  1        2 0.64906243E+00 0.47838614E+03</pdfrwt>
<pdfrwt beam="2">  1       -2 0.20863348E-02 0.47838614E+03</pdfrwt>
<totfact> 0.20538082E+02</totfact>
</mgrwt>
</event>
<event>
 5    0  0.2754780E-002  0.4775774E+03  0.7546771E-02  0.1019803E+00
         -1   -1    0    0    0  501 -0.00000000000E+00  0.00000000000E+00  0.51930848304E+02  0.51930848304E+02  0.00000000000E+00 0.  1.
          1   -1    0    0  503    0  0.00000000000E+00 -0.00000000000E+00 -0.10979995975E+04  0.10979995975E+04  0.00000000000E+00 0. -1.
         25    1    1    2    0    0  0.15562243913E+03  0.14522620573E+03 -0.58399365757E+03  0.63402096691E+03  0.12500000000E+03 0.  0.
         21    1    1    2  502  501 -0.42096363764E+02  0.10849499207E+01 -0.11589327472E+03  0.12330665872E+03  0.00000000000E+00 0. -1.
         21    1    1    2  503  502 -0.11352607537E+03 -0.14631115565E+03 -0.34618181688E+03  0.39260282015E+03  0.00000000000E+00 0.  1.
<mgrwt>
<rscale>  4 0.47757743E+03</rscale>
<asrwt>0</asrwt>
<pdfrwt beam="1">  1        1 0.16892303E+00 0.47757743E+03</pdfrwt>
<pdfrwt beam="2">  1       -1 0.79893606E-02 0.47757743E+03</pdfrwt>
<totfact> 0.11620183E+03</totfact>
</mgrwt>
</event>
<event>
 5    0  0.2754780E-002  0.5583097E+03  0.7546771E-02  0.9995886E-01
         -1   -1    0    0    0  501 -0.00000000000E+00  0.00000000000E+00  0.68444552180E+02  0.68444552180E+02  0.00000000000E+00 0. -1.
          1   -1    0    0  502    0  0.00000000000E+00 -0.00000000000E+00 -0.13180685166E+04  0.13180685166E+04  0.00000000000E+00 0.  1.
         25    1    1    2    0    0 -0.13549638920E+03  0.18183652752E+03 -0.82897999086E+03  0.86847948708E+03  0.12500000000E+03 0.  0.
         21    1    1    2  502  503  0.16482080898E+03 -0.17926986091E+03 -0.26610148503E+03  0.36071260366E+03  0.00000000000E+00 0. -1.
         21    1    1    2  503  501 -0.29324419776E+02 -0.25666666038E+01 -0.15454248854E+03  0.15732097805E+03  0.00000000000E+00 0.  1.
<mgrwt>
<rscale>  4 0.55830973E+03</rscale>
<asrwt>0</asrwt>
<pdfrwt beam="1">  1        1 0.20277978E+00 0.55830973E+03</pdfrwt>
<pdfrwt beam="2">  1       -1 0.10529931E-01 0.55830973E+03</pdfrwt>
<totfact> 0.52285106E+02</totfact>
</mgrwt>
</event>
<event>
 5    0  0.2754780E-002  0.9966110E+03  0.7546771E-02  0.9312270E-01
          2   -1    0    0  502    0  0.00000000000E+00  0.00000000000E+00  0.57321089404E+03  0.57321089404E+03  0.00000000000E+00 0.  1.
         -2   -1    0    0    0  501 -0.00000000000E+00 -0.00000000000E+00 -0.56852728079E+03  0.56852728079E+03  0.00000000000E+00 0. -1.
         25    1    1    2    0    0  0.25047811853E+02 -0.35237768926E+03  0.27218673986E+03  0.46315013778E+03  0.12500000000E+03 0.  0.
         21    1    1    2  502  503  0.11939834542E+01  0.36403230924E+03 -0.40125962060E+03  0.54178430292E+03  0.00000000000E+00 0. -1.
         21    1    1    2  503  501 -0.26241795308E+02 -0.11654619983E+02  0.13375649399E+03  0.13680373413E+03  0.00000000000E+00 0. -1.
<mgrwt>
<rscale>  4 0.99661097E+03</rscale>
<asrwt>0</asrwt>
<pdfrwt beam="1">  1        2 0.88186291E-01 0.99661097E+03</pdfrwt>
<pdfrwt beam="2">  1       -2 0.87465736E-01 0.99661097E+03</pdfrwt>
<totfact> 0.59006370E+01</totfact>
</mgrwt>
</event>
<event>
 5    0  0.2754780E-002  0.7721787E+03  0.7546771E-02  0.9601184E-01
         -1   -1    0    0    0  501 -0.00000000000E+00  0.00000000000E+00  0.10432636578E+04  0.10432636578E+04  0.00000000000E+00 0.  1.
          1   -1    0    0  502    0  0.00000000000E+00 -0.00000000000E+00 -0.27337447309E+03  0.27337447309E+03  0.00000000000E+00 0. -1.
         25    1    1    2    0    0  0.11162204370E+02  0.28017599855E+03  0.47980800067E+03  0.56961732986E+03  0.12500000000E+03 0.  0.
         21    1    1    2  502  503 -0.28291313089E+02 -0.10802424667E+03  0.47842295288E+03  0.49128215732E+03  0.00000000000E+00 0.  1.
         21    1    1    2  503  501  0.17129108719E+02 -0.17215175187E+03 -0.18834176879E+03  0.25573864376E+03  0.00000000000E+00 0. -1.
<mgrwt>
<rscale>  4 0.77217868E+03</rscale>
<asrwt>0</asrwt>
<pdfrwt beam="1">  1        1 0.42057612E-01 0.77217868E+03</pdfrwt>
<pdfrwt beam="2">  1       -1 0.16050210E+00 0.77217868E+03</pdfrwt>
<totfact> 0.29276495E+01</totfact>
</mgrwt>
</event>
<event>
 5    0  0.2754780E-002  0.6053947E+03  0.7546771E-02  0.9894276E-01
          2   -1    0    0  503    0  0.00000000000E+00  0.00000000000E+00  0.71298409951E+03  0.71298409951E+03  0.00000000000E+00 0.  1.
         -2   -1    0    0    0  501 -0.00000000000E+00 -0.00000000000E+00 -0.12851015639E+03  0.12851015639E+03  0.00000000000E+00 0. -1.
         25    1    1    2    0    0  0.14891090074E+03 -0.23317140509E+03  0.19141060133E+03  0.35889605572E+03  0.12500000000E+03 0.  0.
         21    1    1    2  502  501 -0.21515052289E+02  0.11706420300E+02  0.32868246981E+02  0.40990967430E+02  0.00000000000E+00 0.  1.
         21    1    1    2  503  502 -0.12739584845E+03  0.22146498479E+03  0.36019509481E+03  0.44160723275E+03  0.00000000000E+00 0.  1.
<mgrwt>
<rscale>  4 0.60539474E+03</rscale>
<asrwt>0</asrwt>
<pdfrwt beam="1">  1        2 0.10968986E+00 0.60539474E+03</pdfrwt>
<pdfrwt beam="2">  1       -2 0.19770794E-01 0.60539474E+03</pdfrwt>
<totfact> 0.87592062E+02</totfact>
</mgrwt>
</event>
<event>
 5    0  0.2754780E-002  0.4854962E+03  0.7546771E-02  0.1017635E+00
         -2   -1    0    0    0  501 -0.00000000000E+00  0.00000000000E+00  0.48639429313E+02  0.48639429313E+02  0.00000000000E+00 0.  1.
          2   -1    0    0  502    0  0.00000000000E+00 -0.00000000000E+00 -0.13362667860E+04  0.13362667860E+04  0.00000000000E+00 0. -1.
         25    1    1    2    0    0  0.97392964161E+02  0.20303534303E+03 -0.60407277291E+03  0.65668687740E+03  0.12500000000E+03 0.  0.
         21    1    1    2  502  503 -0.78761170858E+02 -0.21332536547E+03 -0.59076765734E+03  0.63302247870E+03  0.00000000000E+00 0. -1.
         21    1    1    2  503  501 -0.18631793304E+02  0.10290022445E+02 -0.92786926427E+02  0.95196859189E+02  0.00000000000E+00 0. -1.
<mgrwt>
<rscale>  4 0.48549621E+03</rscale>
<asrwt>0</asrwt>
<pdfrwt beam="1">  1        2 0.20557950E+00 0.48549621E+03</pdfrwt>
<pdfrwt beam="2">  1       -2 0.74829894E-02 0.48549621E+03</pdfrwt>
<totfact> 0.17505279E+03</totfact>
</mgrwt>
</event>
<event>
 5    0  0.2754780E-002  0.7065182E+03  0.7546771E-02  0.9706150E-01
         -2   -1    0    0    0  501 -0.00000000000E+00  0.00000000000E+00  0.21314216272E+03  0.21314216272E+03  0.00000000000E+00 0.  1.
          2   -1    0    0  503    0  0.00000000000E+00 -0.00000000000E+00 -0.82321502762E+03  0.82321502762E+03  0.00000000000E+00 0. -1.
         25    1    1    2    0    0 -0.13327448346E+03 -0.24421955652E+03 -0.42258745237E+01  0.30503792837E+03  0.12500000000E+03 0.  0.
         21    1    1    2  502  501 -0.93648996532E+02  0.84862045391E+02 -0.13526243574E+03  0.18511517448E+03  0.00000000000E+00 0.  1.
         21    1    1    2  503  502  0.22692348000E+03  0.15935751113E+03 -0.47058455463E+03  0.54620408749E+03  0.00000000000E+00 0. -1.
<mgrwt>
<rscale>  4 0.70651824E+03</rscale>
<asrwt>0</asrwt>
<pdfrwt beam="1">  1        2 0.12664847E+00 0.70651824E+03</pdfrwt>
<pdfrwt beam="2">  1       -2 0.32791102E-01 0.70651824E+03</pdfrwt>
<totfact> 0.29025208E+02</totfact>
</mgrwt>
</event>
<event>
 5    0  0.2754780E-002  0.4149767E+03  0.7546771E-02  0.1038714E+00
         -2   -1    0    0    0  501 -0.00000000000E+00  0.00000000000E+00  0.10099083587E+03  0.10099083587E+03  0.00000000000E+00 0. -1.
          2   -1    0    0  502    0  0.00000000000E+00 -0.00000000000E+00 -0.76874264860E+03  0.76874264860E+03  0.00000000000E+00 0.  1.
         25    1    1    2    0    0  0.16911250507E+03  0.12711449076E+03 -0.21935054845E+03  0.32938851868E+03  0.12500000000E+03 0.  0.
         21    1    1    2  502  503 -0.13997500019E+03 -0.92615012065E+02 -0.11396962128E+03  0.20287832736E+03  0.00000000000E+00 0.  1.
         21    1    1    2  503  501 -0.29137504877E+02 -0.34499478692E+02 -0.33443164299E+03  0.33746663843E+03  0.00000000000E+00 0. -1.
<mgrwt>
<rscale>  4 0.41497670E+03</rscale>
<asrwt>0</asrwt>
<pdfrwt beam="1">  1        2 0.11826810E+00 0.41497670E+03</pdfrwt>
<pdfrwt beam="2">  1       -2 0.15537052E-01 0.41497670E+03</pdfrwt>
<totfact> 0.12052304E+03</totfact>
</mgrwt>
</event>
<event>
 5    0  0.2754780E-002  0.5698363E+03  0.7546771E-02  0.9970041E-01
         -2   -1    0    0    0  501 -0.00000000000E+00  0.00000000000E+00  0.12834448842E+03  0.12834448842E+03  0.00000000000E+00 0. -1.
          2   -1    0    0  502    0  0.00000000000E+00 -0.00000000000E+00 -0.95186111637E+03  0.95186111637E+03  0.00000000000E+00 0.  1.
         25    1    1    2    0    0 -0.14150223438E+03  0.17619398995E+03 -0.56282425043E+03  0.61924416937E+03  0.12500000000E+03 0.  0.
         21    1    1    2  502  503  0.32081526307E+02 -0.19130342783E+03 -0.18605408048E+02  0.19486504827E+03  0.00000000000E+00 0. -1.
         21    1    1    2  503  501  0.10942070807E+03  0.15109437883E+02 -0.24208696946E+03  0.26609638714E+03  0.00000000000E+00 0.  1.
<mgrwt>
<rscale>  4 0.56983627E+03</rscale>
<asrwt>0</asrwt>
<pdfrwt beam="1">  1        2 0.14644018E+00 0.56983627E+03</pdfrwt>
<pdfrwt beam="2">  1       -2 0.19745305E-01 0.56983627E+03</pdfrwt>
<totfact> 0.59774536E+02</totfact>
</mgrwt>
</event>
<event>
 5    0  0.2754780E-002  0.6101671E+03  0.7546771E-02  0.9884534E-01
         -2   -1    0    0    0  501 -0.00000000000E+00  0.00000000000E+00  0.92062259133E+03  0.92062259133E+03  0.00000000000E+00 0.  1.
          2   -1    0    0  503    0  0.00000000000E+00 -0.00000000000E+00 -0.12976078451E+03  0.12976078451E+03  0.00000000000E+00 0. -1.
         25    1    1    2    0    0  0.24510875127E+03  0.50447729384E+02  0.58368927552E+03  0.64725686068E+03  0.12500000000E+03 0.  0.
         21    1    1    2  502  501  0.39410370308E+02 -0.19022359153E+02 -0.86809427293E+01  0.44613744544E+02  0.00000000000E+00 0. -1.
         21    1    1    2  503  502 -0.28451912158E+03 -0.31425370231E+02  0.21585347403E+03  0.35851277061E+03  0.00000000000E+00 0. -1.
<mgrwt>
<rscale>  4 0.61016714E+03</rscale>
<asrwt>0</asrwt>
<pdfrwt beam="1">  1        2 0.19963198E-01 0.61016714E+03</pdfrwt>
<pdfrwt beam="2">  1       -2 0.14163424E+00 0.61016714E+03</pdfrwt>
<totfact> 0.10082457E+02</totfact>
</mgrwt>
</event>
<event>
 5    0  0.2754780E-002  0.4958815E+03  0.7546771E-02  0.1014860E+00
         -2   -1    0    0    0  501 -0.00000000000E+00  0.00000000000E+00  0.33066844205E+03  0.33066844205E+03  0.00000000000E+00 0.  1.
          2   -1    0    0  502    0  0.00000000000E+00 -0.00000000000E+00 -0.18591014545E+03  0.18591014545E+03  0.00000000000E+00 0. -1.
         25    1    1    2    0    0 -0.18819316647E+02 -0.22576476151E+03  0.49283503021E+02  0.26339657911E+03  0.12500000000E+03 0.  0.
         21    1    1    2  502  503  0.39170328939E+02  0.17726633203E+03  0.79744706143E+02  0.19828485897E+03  0.00000000000E+00 0. -1.
         21    1    1    2  503  501 -0.20351012292E+02  0.48498429481E+02  0.15730087443E+02  0.54897149419E+02  0.00000000000E+00 0.  1.
<mgrwt>
<rscale>  4 0.49588151E+03</rscale>
<asrwt>0</asrwt>
<pdfrwt beam="1">  1        2 0.28601561E-01 0.49588151E+03</pdfrwt>
<pdfrwt beam="2">  1       -2 0.50872068E-01 0.49588151E+03</pdfrwt>
<totfact> 0.69011684E+02</totfact>
</mgrwt>
</event>
<event>
 5    0  0.2754780E-002  0.5574100E+03  0.7546771E-02  0.9997932E-01
         -2   -1    0    0    0  501 -0.00000000000E+00  0.00000000000E+00  0.16012728599E+03  0.16012728599E+03  0.00000000000E+00 0. -1.
          2   -1    0    0  503    0  0.00000000000E+00 -0.00000000000E+00 -0.80447913461E+03  0.80447913461E+03  0.00000000000E+00 0.  1.
         25    1    1    2    0    0 -0.27393963565E+03 -0.14756351552E+03 -0.36260076680E+03  0.49388483595E+03  0.12500000000E+03 0.  0.
         21    1    1    2  502  501  0.12499984410E+03 -0.16792696975E+02 -0.20108138289E+02  0.12771567219E+03  0.00000000000E+00 0.  1.
         21    1    1    2  503  502  0.14893979155E+03  0.16435621249E+03 -0.26164294352E+03  0.34300591247E+03  0.00000000000E+00 0.  1.
<mgrwt>
<rscale>  4 0.55741001E+03</rscale>
<asrwt>0</asrwt>
<pdfrwt beam="1">  1        2 0.12376602E+00 0.55741001E+03</pdfrwt>
<pdfrwt beam="2">  1       -2 0.24634967E-01 0.55741001E+03</pdfrwt>
<totfact> 0.50919777E+02</totfact>
</mgrwt>
</event>
<event>
 5    0  0.2754780E-002  0.5302127E+03  0.7546771E-02  0.1006181E+00
          1   -1    0    0  503    0  0.00000000000E+00  0.00000000000E+00  0.10963461584E+03  0.10963461584E+03  0.00000000000E+00 0.  1.
         -1   -1    0    0    0  501 -0.00000000000E+00 -0.00000000000E+00 -0.11529445760E+04  0.11529445760E+04  0.00000000000E+00 0. -1.
         25    1    1    2    0    0  0.26560523930E+03 -0.48288702771E+02 -0.74177398327E+03  0.79920684696E+03  0.12500000000E+03 0.  0.
         21    1    1    2  502  501 -0.84591311577E+02 -0.65357436619E+02 -0.18158616067E+02  0.10842979228E+03  0.00000000000E+00 0. -1.
         21    1    1    2  503  502 -0.18101392772E+03  0.11364613939E+03 -0.28337736087E+03  0.35494255265E+03  0.00000000000E+00 0.  1.
<mgrwt>
<rscale>  4 0.53021275E+03</rscale>
<asrwt>0</asrwt>
<pdfrwt beam="1">  1        1 0.16866865E-01 0.53021275E+03</pdfrwt>
<pdfrwt beam="2">  1       -1 0.17737608E+00 0.53021275E+03</pdfrwt>
<totfact> 0.74207422E+01</totfact>
</mgrwt>
</event>
<event>
 5    0  0.2754780E-002  0.5750615E+03  0.7546771E-02  0.9958540E-01
          2   -1    0    0  502    0  0.00000000000E+00  0.00000000000E+00  0.96234729031E+03  0.96234729031E+03  0.00000000000E+00 0. -1.
         -2   -1    0    0    0  501 -0.00000000000E+00 -0.00000000000E+00 -0.25020006417E+03  0.25020006417E+03  0.00000000000E+00 0.  1.
         25    1    1    2    0    0  0.23391598515E+03 -0.17534829870E+03  0.50257669587E+02  0.32189213616E+03  0.12500000000E+03 0.  0.
         21    1    1    2  502  503 -0.16821370513E+03  0.19440063192E+03  0.34305387868E+02  0.25935365029E+03  0.00000000000E+00 0.  1.
         21    1    1    2  503  501 -0.65702280029E+02 -0.19052333224E+02  0.62758416869E+03  0.63130156803E+03  0.00000000000E+00 0. -1.
<mgrwt>
<rscale>  4 0.57506152E+03</rscale>
<asrwt>0</asrwt>
<pdfrwt beam="1">  1        2 0.14805343E+00 0.57506152E+03</pdfrwt>
<pdfrwt beam="2">  1       -2 0.38492318E-01 0.57506152E+03</pdfrwt>
<totfact> 0.17379634E+02</totfact>
</mgrwt>
</event>
<event>
 5    0  0.2754780E-002  0.6608801E+03  0.7546771E-02  0.9786575E-01
         -2   -1    0    0    0  501 -0.00000000000E+00  0.00000000000E+00  0.68795331054E+02  0.68795331054E+02  0.00000000000E+00 0. -1.
          2   -1    0    0  503    0  0.00000000000E+00 -0.00000000000E+00 -0.17829652678E+04  0.17829652678E+04  0.00000000000E+00 0.  1.
         25    1    1    2    0    0 -0.17691070744E+03  0.25243898738E+03 -0.72380917759E+03  0.79658493981E+03  0.12500000000E+03 0.  0.
         21    1    1    2  502  501 -0.16970978705E+02  0.11034620902E+02 -0.18218415495E+03  0.18330532805E+03  0.00000000000E+00 0. -1.
         21    1    1    2  503  502  0.19388168615E+03 -0.26347360829E+03 -0.80817660418E+03  0.87187033097E+03  0.00000000000E+00 0. -1.
<mgrwt>
<rscale>  4 0.66088014E+03</rscale>
<asrwt>0</asrwt>
<pdfrwt beam="1">  1        2 0.27430229E+00 0.66088014E+03</pdfrwt>
<pdfrwt beam="2">  1       -2 0.10583899E-01 0.66088014E+03</pdfrwt>
<totfact> 0.56505286E+02</totfact>
</mgrwt>
</event>
<event>
 5    0  0.2754780E-002  0.4521347E+03  0.7546771E-02  0.1027087E+00
          2   -1    0    0  503    0  0.00000000000E+00  0.00000000000E+00  0.20221814472E+04  0.20221814472E+04  0.00000000000E+00 0. -1.
         -2   -1    0    0    0  501 -0.00000000000E+00 -0.00000000000E+00 -0.41460623280E+02  0.41460623280E+02  0.00000000000E+00 0.  1.
         25    1    1    2    0    0 -0.14226353108E+03 -0.14786508018E+03  0.45866447685E+03  0.51778479751E+03  0.12500000000E+03 0.  0.
         21    1    1    2  502  501  0.11324306196E+03 -0.59594497776E+01  0.60476657130E+03  0.61530651864E+03  0.00000000000E+00 0. -1.
         21    1    1    2  503  502  0.29020469112E+02  0.15382452995E+03  0.91728977575E+03  0.93055075430E+03  0.00000000000E+00 0. -1.
<mgrwt>
<rscale>  4 0.45213468E+03</rscale>
<asrwt>0</asrwt>
<pdfrwt beam="1">  1        2 0.31110476E+00 0.45213468E+03</pdfrwt>
<pdfrwt beam="2">  1       -2 0.63785590E-02 0.45213468E+03</pdfrwt>
<totfact> 0.95657192E+02</totfact>
</mgrwt>
</event>
<event>
 5    0  0.2754780E-002  0.4961889E+03  0.7546771E-02  0.1014778E+00
          1   -1    0    0  503    0  0.00000000000E+00  0.00000000000E+00  0.16931209193E+04  0.16931209193E+04  0.00000000000E+00 0.  1.
         -1   -1    0    0    0  501 -0.00000000000E+00 -0.00000000000E+00 -0.36353495648E+02  0.36353495648E+02  0.00000000000E+00 0. -1.
         25    1    1    2    0    0 -0.73619510769E+02 -0.19896862971E+03  0.64775004595E+03  0.69297436460E+03  0.12500000000E+03 0.  0.
         21    1    1    2  502  501  0.14362939984E+00  0.12019708869E+03  0.67266084757E+03  0.68331542981E+03  0.00000000000E+00 0.  1.
         21    1    1    2  503  502  0.73475881369E+02  0.78771541026E+02  0.33635653012E+03  0.35318462052E+03  0.00000000000E+00 0.  1.
<mgrwt>
<rscale>  4 0.49618893E+03</rscale>
<asrwt>0</asrwt>
<pdfrwt beam="1">  1        1 0.26048008E+00 0.49618893E+03</pdfrwt>
<pdfrwt beam="2">  1       -1 0.55928468E-02 0.49618893E+03</pdfrwt>
<totfact> 0.78026618E+02</totfact>
</mgrwt>
</event>
<event>
 5    0  0.2754780E-002  0.5181640E+03  0.7546771E-02  0.1009144E+00
         -1   -1    0    0    0  501 -0.00000000000E+00  0.00000000000E+00  0.20824574855E+03  0.20824574855E+03  0.00000000000E+00 0. -1.
          1   -1    0    0  503    0  0.00000000000E+00 -0.00000000000E+00 -0.66228121094E+03  0.66228121094E+03  0.00000000000E+00 0.  1.
         25    1    1    2    0    0 -0.30070854111E+01  0.24955594285E+03 -0.15554155961E+03  0.31953933708E+03  0.12500000000E+03 0.  0.
         21    1    1    2  502  501  0.45653535540E+02 -0.43888317018E+02 -0.33226614078E+03  0.33824727344E+03  0.00000000000E+00 0.  1.
         21    1    1    2  503  502 -0.42646450129E+02 -0.20566762583E+03  0.33772238002E+02  0.21274034898E+03  0.00000000000E+00 0. -1.
<mgrwt>
<rscale>  4 0.51816397E+03</rscale>
<asrwt>0</asrwt>
<pdfrwt beam="1">  1        1 0.10188942E+00 0.51816397E+03</pdfrwt>
<pdfrwt beam="2">  1       -1 0.32037807E-01 0.51816397E+03</pdfrwt>
<totfact> 0.27546733E+02</totfact>
</mgrwt>
</event>
<event>
 5    0  0.2754780E-002  0.7262517E+03  0.7546771E-02  0.9673362E-01
          1   -1    0    0  503    0  0.00000000000E+00  0.00000000000E+00  0.19753878872E+04  0.19753878872E+04  0.00000000000E+00 0. -1.
         -1   -1    0    0    0  501 -0.00000000000E+00 -0.00000000000E+00 -0.96476080379E+02  0.96476080379E+02  0.00000000000E+00 0.  1.
         25    1    1    2    0    0 -0.70771343871E+02 -0.31883563682E+03  0.53645828334E+03  0.64037273223E+03  0.12500000000E+03 0.  0.
         21    1    1    2  502  501  0.73388302879E+02  0.27991412336E+03  0.13587442144E+04  0.13892169015E+04  0.00000000000E+00 0. -1.
         21    1    1    2  503  502 -0.26169590088E+01  0.38921513468E+02 -0.16290690920E+02  0.42274333770E+02  0.00000000000E+00 0.  1.
<mgrwt>
<rscale>  4 0.72625173E+03</rscale>
<asrwt>0</asrwt>
<pdfrwt beam="1">  1        1 0.30390580E+00 0.72625173E+03</pdfrwt>
<pdfrwt beam="2">  1       -1 0.14842475E-01 0.72625173E+03</pdfrwt>
<totfact> 0.10694840E+02</totfact>
</mgrwt>
</event>
<event>
 5    0  0.2754780E-002  0.5456884E+03  0.7546771E-02  0.1002497E+00
         -1   -1    0    0    0  501 -0.00000000000E+00  0.00000000000E+00  0.26373233325E+03  0.26373233325E+03  0.00000000000E+00 0. -1.
          1   -1    0    0  502    0  0.00000000000E+00 -0.00000000000E+00 -0.31500687596E+03  0.31500687596E+03  0.00000000000E+00 0.  1.
         25    1    1    2    0    0  0.65681908120E+02  0.23481249373E+03  0.60738296670E+02  0.28065131560E+03  0.12500000000E+03 0.  0.
         21    1    1    2  502  503 -0.90240046769E+02 -0.23285659552E+03 -0.91283862839E+02  0.26589133821E+03  0.00000000000E+00 0.  1.
         21    1    1    2  503  501  0.24558138649E+02 -0.19558982114E+01 -0.20728976541E+02  0.32196555408E+02  0.00000000000E+00 0. -1.
<mgrwt>
<rscale>  4 0.54568841E+03</rscale>
<asrwt>0</asrwt>
<pdfrwt beam="1">  1        1 0.48462596E-01 0.54568841E+03</pdfrwt>
<pdfrwt beam="2">  1       -1 0.40574205E-01 0.54568841E+03</pdfrwt>
<totfact> 0.49391419E+02</totfact>
</mgrwt>
</event>
<event>
 5    0  0.2754780E-002  0.5941801E+03  0.7546771E-02  0.9917555E-01
         -2   -1    0    0    0  501 -0.00000000000E+00  0.00000000000E+00  0.62567079763E+02  0.62567079763E+02  0.00000000000E+00 0. -1.
          2   -1    0    0  502    0  0.00000000000E+00 -0.00000000000E+00 -0.31647636711E+04  0.31647636711E+04  0.00000000000E+00 0.  1.
         25    1    1    2    0    0  0.47022893356E+02 -0.22759371000E+03 -0.10752373057E+04  0.11071451183E+04  0.12500000000E+03 0.  0.
         21    1    1    2  502  503  0.25788726000E+03  0.13564891335E+03 -0.11766633178E+04  0.12122058530E+04  0.00000000000E+00 0.  1.
         21    1    1    2  503  501 -0.30491015336E+03  0.91944796652E+02 -0.85029596783E+03  0.90797977960E+03  0.00000000000E+00 0.  1.
<mgrwt>
<rscale>  4 0.59418008E+03</rscale>
<asrwt>0</asrwt>
<pdfrwt beam="1">  1        2 0.48688682E+00 0.59418008E+03</pdfrwt>
<pdfrwt beam="2">  1       -2 0.96257025E-02 0.59418008E+03</pdfrwt>
<totfact> 0.10841645E+02</totfact>
</mgrwt>
</event>
<event>
 5    0  0.2754780E-002  0.9859153E+03  0.7546771E-02  0.9324129E-01
         -2   -1    0    0    0  501 -0.00000000000E+00  0.00000000000E+00  0.23865565800E+04  0.23865565800E+04  0.00000000000E+00 0. -1.
          2   -1    0    0  503    0  0.00000000000E+00 -0.00000000000E+00 -0.20222006261E+03  0.20222006261E+03  0.00000000000E+00 0.  1.
         25    1    1    2    0    0 -0.31941960431E+03  0.20591918181E+03  0.15426307358E+04  0.15936643875E+04  0.12500000000E+03 0.  0.
         21    1    1    2  502  501 -0.56852977699E+02  0.11246882357E+03 -0.58403041043E+02  0.13889712938E+03  0.00000000000E+00 0.  1.
         21    1    1    2  503  502  0.37627258201E+03 -0.31838800538E+03  0.70010882267E+03  0.85621512572E+03  0.00000000000E+00 0.  1.
<mgrwt>
<rscale>  4 0.98591526E+03</rscale>
<asrwt>0</asrwt>
<pdfrwt beam="1">  1        2 0.31110781E-01 0.98591526E+03</pdfrwt>
<pdfrwt beam="2">  1       -2 0.36716253E+00 0.98591526E+03</pdfrwt>
<totfact> 0.21151200E+00</totfact>
</mgrwt>
</event>
<event>
 5    0  0.2754780E-002  0.4273243E+03  0.7546771E-02  0.1034709E+00
         -2   -1    0    0    0  501 -0.00000000000E+00  0.00000000000E+00  0.20967994973E+02  0.20967994973E+02  0.00000000000E+00 0.  1.
          2   -1    0    0  503    0  0.00000000000E+00 -0.00000000000E+00 -0.46799421289E+04  0.46799421289E+04  0.00000000000E+00 0. -1.
         25    1    1    2    0    0 -0.14515926662E+03  0.17050653070E+03 -0.17312154444E+04  0.17501073123E+04  0.12500000000E+03 0.  0.
         21    1    1    2  502  501  0.14462147916E+02 -0.94609491567E+02 -0.23979376274E+04  0.23998468649E+04  0.00000000000E+00 0.  1.
         21    1    1    2  503  502  0.13069711870E+03 -0.75897039137E+02 -0.52982106212E+03  0.55095594674E+03  0.00000000000E+00 0. -1.
<mgrwt>
<rscale>  4 0.42732428E+03</rscale>
<asrwt>0</asrwt>
<pdfrwt beam="1">  1        2 0.71999178E+00 0.42732428E+03</pdfrwt>
<pdfrwt beam="2">  1       -2 0.32258423E-02 0.42732428E+03</pdfrwt>
<totfact> 0.40541179E+01</totfact>
</mgrwt>
</event>
<event>
 5    0  0.2754780E-002  0.6384085E+03  0.7546771E-02  0.9828776E-01
          2   -1    0    0  503    0  0.00000000000E+00  0.00000000000E+00  0.14528917991E+04  0.14528917991E+04  0.00000000000E+00 0.  1.
         -2   -1    0    0    0  501 -0.00000000000E+00 -0.00000000000E+00 -0.22380239414E+03  0.22380239414E+03  0.00000000000E+00 0. -1.
         25    1    1    2    0    0  0.27993427262E+03  0.76485103454E+02  0.13105421414E+02  0.31624345070E+03  0.12500000000E+03 0.  0.
         21    1    1    2  502  501  0.12160472323E+01 -0.12650722928E+03  0.98519327497E+03  0.99328311517E+03  0.00000000000E+00 0.  1.
         21    1    1    2  503  502 -0.28115031986E+03  0.50022125830E+02  0.23079070859E+03  0.36716762738E+03  0.00000000000E+00 0.  1.
<mgrwt>
<rscale>  4 0.63840847E+03</rscale>
<asrwt>0</asrwt>
<pdfrwt beam="1">  1        2 0.22352181E+00 0.63840847E+03</pdfrwt>
<pdfrwt beam="2">  1       -2 0.34431138E-01 0.63840847E+03</pdfrwt>
<totfact> 0.10968641E+02</totfact>
</mgrwt>
</event>
<event>
 5    0  0.2754780E-002  0.5377561E+03  0.7546771E-02  0.1004368E+00
          1   -1    0    0  502    0  0.00000000000E+00  0.00000000000E+00  0.29701731313E+03  0.29701731313E+03  0.00000000000E+00 0. -1.
         -1   -1    0    0    0  501 -0.00000000000E+00 -0.00000000000E+00 -0.27580858336E+03  0.27580858336E+03  0.00000000000E+00 0.  1.
         25    1    1    2    0    0  0.19959862694E+03 -0.30789066495E+02  0.14247729300E+03  0.27696995778E+03  0.12500000000E+03 0.  0.
         21    1    1    2  502  503 -0.22000234211E+03  0.58316580421E+02 -0.12772300033E+03  0.26098854170E+03  0.00000000000E+00 0.  1.
         21    1    1    2  503  501  0.20403715175E+02 -0.27527513926E+02  0.64544371027E+01  0.34867397010E+02  0.00000000000E+00 0. -1.
<mgrwt>
<rscale>  4 0.53775613E+03</rscale>
<asrwt>0</asrwt>
<pdfrwt beam="1">  1        1 0.45694971E-01 0.53775613E+03</pdfrwt>
<pdfrwt beam="2">  1       -1 0.42432090E-01 0.53775613E+03</pdfrwt>
<totfact> 0.49121291E+02</totfact>
</mgrwt>
</event>
<event>
 5    0  0.2754780E-002  0.6495543E+03  0.7546771E-02  0.9807616E-01
         -1   -1    0    0    0  501 -0.00000000000E+00  0.00000000000E+00  0.23286605630E+03  0.23286605630E+03  0.00000000000E+00 0.  1.
          1   -1    0    0  503    0  0.00000000000E+00 -0.00000000000E+00 -0.54592695681E+03  0.54592695681E+03  0.00000000000E+00 0. -1.
         25    1    1    2    0    0 -0.27359977092E+03  0.88639294654E+02 -0.26016673451E+02  0.31466748561E+03  0.12500000000E+03 0.  0.
         21    1    1    2  502  501 -0.10335473693E+02  0.41295494563E+02 -0.76418200399E+02  0.87475032094E+02  0.00000000000E+00 0.  1.
         21    1    1    2  503  502  0.28393524461E+03 -0.12993478922E+03 -0.21062602666E+03  0.37665049541E+03  0.00000000000E+00 0.  1.
<mgrwt>
<rscale>  4 0.64955430E+03</rscale>
<asrwt>0</asrwt>
<pdfrwt beam="1">  1        1 0.83988762E-01 0.64955430E+03</pdfrwt>
<pdfrwt beam="2">  1       -1 0.35825547E-01 0.64955430E+03</pdfrwt>
<totfact> 0.29603248E+02</totfact>
</mgrwt>
</event>
<event>
 5    0  0.2754780E-002  0.8417942E+03  0.7546771E-02  0.9501417E-01
          1   -1    0    0  502    0  0.00000000000E+00  0.00000000000E+00  0.11476888391E+03  0.11476888391E+03  0.00000000000E+00 0. -1.
         -1   -1    0    0    0  501 -0.00000000000E+00 -0.00000000000E+00 -0.15435748283E+04  0.15435748283E+04  0.00000000000E+00 0.  1.
         25    1    1    2    0    0 -0.69526890082E+02 -0.38963575736E+03 -0.92365218592E+03  0.10126244972E+04  0.12500000000E+03 0.  0.
         21    1    1    2  502  503  0.49636594656E+02  0.36494986697E+03 -0.48125298616E+03  0.60601702420E+03  0.00000000000E+00 0.  1.
         21    1    1    2  503  501  0.19890295426E+02  0.24685890395E+02 -0.23900772355E+02  0.39702190819E+02  0.00000000000E+00 0.  1.
<mgrwt>
<rscale>  4 0.84179418E+03</rscale>
<asrwt>0</asrwt>
<pdfrwt beam="1">  1        1 0.17656753E-01 0.84179418E+03</pdfrwt>
<pdfrwt beam="2">  1       -1 0.23747302E+00 0.84179418E+03</pdfrwt>
<totfact> 0.26643655E+01</totfact>
</mgrwt>
</event>
<event>
 5    0  0.2754780E-002  0.6276934E+03  0.7546771E-02  0.9849560E-01
          2   -1    0    0  503    0  0.00000000000E+00  0.00000000000E+00  0.11939337338E+04  0.11939337338E+04  0.00000000000E+00 0. -1.
         -2   -1    0    0    0  501 -0.00000000000E+00 -0.00000000000E+00 -0.12632854833E+03  0.12632854833E+03  0.00000000000E+00 0.  1.
         25    1    1    2    0    0  0.33294638664E+03 -0.53337583072E+02  0.39857691242E+03  0.53683027975E+03  0.12500000000E+03 0.  0.
         21    1    1    2  502  501 -0.22281161287E+03  0.29046963924E+02  0.62181338425E+03  0.66116611058E+03  0.00000000000E+00 0. -1.
         21    1    1    2  503  502 -0.11013477377E+03  0.24290619148E+02  0.47214888786E+02  0.12226589179E+03  0.00000000000E+00 0. -1.
<mgrwt>
<rscale>  4 0.62769339E+03</rscale>
<asrwt>0</asrwt>
<pdfrwt beam="1">  1        2 0.18368211E+00 0.62769339E+03</pdfrwt>
<pdfrwt beam="2">  1       -2 0.19435162E-01 0.62769339E+03</pdfrwt>
<totfact> 0.43482476E+02</totfact>
</mgrwt>
</event>
<event>
 5    0  0.2754780E-002  0.6655241E+03  0.7546771E-02  0.9778078E-01
          1   -1    0    0  502    0  0.00000000000E+00  0.00000000000E+00  0.80485003013E+03  0.80485003013E+03  0.00000000000E+00 0.  1.
         -1   -1    0    0    0  501 -0.00000000000E+00 -0.00000000000E+00 -0.21893483564E+03  0.21893483564E+03  0.00000000000E+00 0. -1.
         25    1    1    2    0    0 -0.29602619795E+03  0.92852041071E+02  0.12959259346E+03  0.35870914636E+03  0.12500000000E+03 0.  0.
         21    1    1    2  502  503  0.42069454414E+02 -0.10880664918E+03 -0.26206769281E+02  0.11956387689E+03  0.00000000000E+00 0.  1.
         21    1    1    2  503  501  0.25395674354E+03  0.15954608111E+02  0.48252937032E+03  0.54551184252E+03  0.00000000000E+00 0.  1.
<mgrwt>
<rscale>  4 0.66552408E+03</rscale>
<asrwt>0</asrwt>
<pdfrwt beam="1">  1        1 0.12382308E+00 0.66552408E+03</pdfrwt>
<pdfrwt beam="2">  1       -1 0.33682283E-01 0.66552408E+03</pdfrwt>
<totfact> 0.18549659E+02</totfact>
</mgrwt>
</event>
<event>
 5    0  0.2754780E-002  0.8559074E+03  0.7546771E-02  0.9482442E-01
         -1   -1    0    0    0  501 -0.00000000000E+00  0.00000000000E+00  0.91754788293E+03  0.91754788293E+03  0.00000000000E+00 0.  1.
          1   -1    0    0  502    0  0.00000000000E+00 -0.00000000000E+00 -0.35594824761E+03  0.35594824761E+03  0.00000000000E+00 0. -1.
         25    1    1    2    0    0  0.31478296554E+02  0.46303140898E+03  0.44491444642E+03  0.65495254293E+03  0.12500000000E+03 0.  0.
         21    1    1    2  502  503  0.49527778576E+02 -0.36705130426E+03  0.24095602892E+03  0.44185910502E+03  0.00000000000E+00 0. -1.
         21    1    1    2  503  501 -0.81006075130E+02 -0.95980104714E+02 -0.12427084003E+03  0.17668448260E+03  0.00000000000E+00 0. -1.
<mgrwt>
<rscale>  4 0.85590740E+03</rscale>
<asrwt>0</asrwt>
<pdfrwt beam="1">  1        1 0.54761269E-01 0.85590740E+03</pdfrwt>
<pdfrwt beam="2">  1       -1 0.14116121E+00 0.85590740E+03</pdfrwt>
<totfact> 0.29130959E+01</totfact>
</mgrwt>
</event>
<event>
 5    0  0.2754780E-002  0.9324734E+03  0.7546771E-02  0.9385874E-01
         -1   -1    0    0    0  501 -0.00000000000E+00  0.00000000000E+00  0.29232170259E+03  0.29232170259E+03  0.00000000000E+00 0.  1.
          1   -1    0    0  502    0  0.00000000000E+00 -0.00000000000E+00 -0.11473405764E+04  0.11473405764E+04  0.00000000000E+00 0. -1.
         25    1    1    2    0    0  0.15099204782E+03 -0.32464520135E+03 -0.53075770268E+03  0.65232035398E+03  0.12500000000E+03 0.  0.
         21    1    1    2  502  503 -0.17325137150E+03  0.33386544471E+03  0.78180142053E+02  0.38418004569E+03  0.00000000000E+00 0.  1.
         21    1    1    2  503  501  0.22259323680E+02 -0.92202433551E+01 -0.40244131315E+03  0.40316187928E+03  0.00000000000E+00 0.  1.
<mgrwt>
<rscale>  4 0.93247339E+03</rscale>
<asrwt>0</asrwt>
<pdfrwt beam="1">  1        1 0.17651394E+00 0.93247339E+03</pdfrwt>
<pdfrwt beam="2">  1       -1 0.44972569E-01 0.93247339E+03</pdfrwt>
<totfact> 0.57743831E+01</totfact>
</mgrwt>
</event>
<event>
 5    0  0.2754780E-002  0.5694268E+03  0.7546771E-02  0.9970948E-01
          1   -1    0    0  502    0  0.00000000000E+00  0.00000000000E+00  0.80372914620E+03  0.80372914620E+03  0.00000000000E+00 0. -1.
         -1   -1    0    0    0  501 -0.00000000000E+00 -0.00000000000E+00 -0.10085700116E+03  0.10085700116E+03  0.00000000000E+00 0.  1.
         25    1    1    2    0    0 -0.55816068944E+02  0.21532502828E+03  0.13446184721E+03  0.28841860153E+03  0.12500000000E+03 0.  0.
         21    1    1    2  502  503  0.71870511401E+02 -0.13534032270E+03  0.32200291203E+03  0.35660657413E+03  0.00000000000E+00 0. -1.
         21    1    1    2  503  501 -0.16054442457E+02 -0.79984705580E+02  0.24640738581E+03  0.25956097170E+03  0.00000000000E+00 0. -1.
<mgrwt>
<rscale>  4 0.56942677E+03</rscale>
<asrwt>0</asrwt>
<pdfrwt beam="1">  1        1 0.12365063E+00 0.56942677E+03</pdfrwt>
<pdfrwt beam="2">  1       -1 0.15516462E-01 0.56942677E+03</pdfrwt>
<totfact> 0.69052888E+02</totfact>
</mgrwt>
</event>
<event>
 5    0  0.2754780E-002  0.4855938E+03  0.7546771E-02  0.1017609E+00
          1   -1    0    0  503    0  0.00000000000E+00  0.00000000000E+00  0.27197446580E+03  0.27197446580E+03  0.00000000000E+00 0. -1.
         -1   -1    0    0    0  501 -0.00000000000E+00 -0.00000000000E+00 -0.21674951293E+03  0.21674951293E+03  0.00000000000E+00 0.  1.
         25    1    1    2    0    0 -0.15331042796E+03  0.14963523849E+03  0.78932599874E+02  0.26028858454E+03  0.12500000000E+03 0.  0.
         21    1    1    2  502  501 -0.33548377859E+01 -0.28919089674E+02  0.93122842347E+00  0.29127922524E+02  0.00000000000E+00 0. -1.
         21    1    1    2  503  502  0.15666526575E+03 -0.12071614882E+03 -0.24638875420E+02  0.19930747166E+03  0.00000000000E+00 0. -1.
<mgrwt>
<rscale>  4 0.48559379E+03</rscale>
<asrwt>0</asrwt>
<pdfrwt beam="1">  1        1 0.41842225E-01 0.48559379E+03</pdfrwt>
<pdfrwt beam="2">  1       -1 0.33346079E-01 0.48559379E+03</pdfrwt>
<totfact> 0.84696830E+02</totfact>
</mgrwt>
</event>
<event>
 5    0  0.2754780E-002  0.5624212E+03  0.7546771E-02  0.9986591E-01
          3   -1    0    0  502    0  0.00000000000E+00  0.00000000000E+00  0.76847382171E+03  0.76847382171E+03  0.00000000000E+00 0. -1.
         -3   -1    0    0    0  501 -0.00000000000E+00 -0.00000000000E+00 -0.35655546222E+03  0.35655546222E+03  0.00000000000E+00 0.  1.
         25    1    1    2    0    0  0.88132044539E+02 -0.30209280813E+03 -0.18591593156E+02  0.33911350509E+03  0.12500000000E+03 0.  0.
         21    1    1    2  502  503  0.67384517515E+01  0.11277469842E+03  0.53709323791E+03  0.54884668674E+03  0.00000000000E+00 0. -1.
         21    1    1    2  503  501 -0.94870496291E+02  0.18931810971E+03 -0.10658328527E+03  0.23706909210E+03  0.00000000000E+00 0. -1.
<mgrwt>
<rscale>  4 0.56242123E+03</rscale>
<asrwt>0</asrwt>
<pdfrwt beam="1">  1        3 0.11822674E+00 0.56242123E+03</pdfrwt>
<pdfrwt beam="2">  1       -3 0.54854687E-01 0.56242123E+03</pdfrwt>
<totfact> 0.50367926E+00</totfact>
</mgrwt>
</event>
<event>
 5    0  0.2754780E-002  0.7682516E+03  0.7546771E-02  0.9607144E-01
         -2   -1    0    0    0  501 -0.00000000000E+00  0.00000000000E+00  0.19062889178E+03  0.19062889178E+03  0.00000000000E+00 0. -1.
          2   -1    0    0  502    0  0.00000000000E+00 -0.00000000000E+00 -0.84861365814E+03  0.84861365814E+03  0.00000000000E+00 0.  1.
         25    1    1    2    0    0 -0.24706692861E+03  0.24163059805E+03 -0.52164353106E+03  0.63809433991E+03  0.12500000000E+03 0.  0.
         21    1    1    2  502  503  0.22690175637E+03 -0.23211747525E+03 -0.71223016071E+02  0.33231859319E+03  0.00000000000E+00 0. -1.
         21    1    1    2  503  501  0.20165172241E+02 -0.95131228059E+01 -0.65118219223E+02  0.68829616822E+02  0.00000000000E+00 0.  1.
<mgrwt>
<rscale>  4 0.76825160E+03</rscale>
<asrwt>0</asrwt>
<pdfrwt beam="1">  1        2 0.13055595E+00 0.76825160E+03</pdfrwt>
<pdfrwt beam="2">  1       -2 0.29327522E-01 0.76825160E+03</pdfrwt>
<totfact> 0.34216828E+02</totfact>
</mgrwt>
</event>
<event>
 5    0  0.2754780E-002  0.4705139E+03  0.7546771E-02  0.1021775E+00
         -3   -1    0    0    0  501 -0.00000000000E+00  0.00000000000E+00  0.12621436645E+04  0.12621436645E+04  0.00000000000E+00 0.  1.
          3   -1    0    0  502    0  0.00000000000E+00 -0.00000000000E+00 -0.68099990363E+02  0.68099990363E+02  0.00000000000E+00 0. -1.
         25    1    1    2    0    0 -0.20835402923E+03 -0.11417365434E+03  0.50613017714E+03  0.57292214222E+03  0.12500000000E+03 0.  0.
         21    1    1    2  502  503  0.16803497805E+03  0.66309229664E+02  0.66747152893E+03  0.69148456940E+03  0.00000000000E+00 0.  1.
         21    1    1    2  503  501  0.40319051186E+02  0.47864424672E+02  0.20441968084E+02  0.65836943253E+02  0.00000000000E+00 0.  1.
<mgrwt>
<rscale>  4 0.47051394E+03</rscale>
<asrwt>0</asrwt>
<pdfrwt beam="1">  1        3 0.10476923E-01 0.47051394E+03</pdfrwt>
<pdfrwt beam="2">  1       -3 0.19417593E+00 0.47051394E+03</pdfrwt>
<totfact> 0.29993745E+01</totfact>
</mgrwt>
</event>
<event>
 5    0  0.2754780E-002  0.5408347E+03  0.7546771E-02  0.1003638E+00
         -2   -1    0    0    0  501 -0.00000000000E+00  0.00000000000E+00  0.20640153027E+03  0.20640153027E+03  0.00000000000E+00 0.  1.
          2   -1    0    0  503    0  0.00000000000E+00 -0.00000000000E+00 -0.39408450148E+03  0.39408450148E+03  0.00000000000E+00 0. -1.
         25    1    1    2    0    0  0.12968940407E+03 -0.17762553367E+03 -0.22949935348E+03  0.34156276873E+03  0.12500000000E+03 0.  0.
         21    1    1    2  502  501  0.86828949834E+01  0.19971878526E+02 -0.30117714139E+02  0.37166453989E+02  0.00000000000E+00 0. -1.
         21    1    1    2  503  502 -0.13837229905E+03  0.15765365514E+03  0.71934096400E+02  0.22175680903E+03  0.00000000000E+00 0.  1.
<mgrwt>
<rscale>  4 0.54083467E+03</rscale>
<asrwt>0</asrwt>
<pdfrwt beam="1">  1        2 0.60628384E-01 0.54083467E+03</pdfrwt>
<pdfrwt beam="2">  1       -2 0.31754082E-01 0.54083467E+03</pdfrwt>
<totfact> 0.74921074E+02</totfact>
</mgrwt>
</event>
<event>
 5    0  0.2754780E-002  0.1246223E+04  0.7546771E-02  0.9073333E-01
         -2   -1    0    0    0  501 -0.00000000000E+00  0.00000000000E+00  0.15064483891E+03  0.15064483891E+03  0.00000000000E+00 0.  1.
          2   -1    0    0  503    0  0.00000000000E+00 -0.00000000000E+00 -0.35283944077E+04  0.35283944077E+04  0.00000000000E+00 0. -1.
         25    1    1    2    0    0 -0.49202205869E+03  0.58697631016E+02 -0.54328580146E+03  0.74586565828E+03  0.12500000000E+03 0.  0.
         21    1    1    2  502  501  0.38398006901E+03 -0.21364854430E+03 -0.25750411380E+04  0.26122640097E+04  0.00000000000E+00 0. -1.
         21    1    1    2  503  502  0.10804198967E+03  0.15495091328E+03 -0.25942262928E+03  0.32090957861E+03  0.00000000000E+00 0. -1.
<mgrwt>
<rscale>  4 0.12462231E+04</rscale>
<asrwt>0</asrwt>
<pdfrwt beam="1">  1        2 0.54282992E+00 0.12462231E+04</pdfrwt>
<pdfrwt beam="2">  1       -2 0.23176129E-01 0.12462231E+04</pdfrwt>
<totfact> 0.12844405E+01</totfact>
</mgrwt>
</event>
<event>
 5    0  0.2754780E-002  0.4350467E+03  0.7546771E-02  0.1032278E+00
         -2   -1    0    0    0  501 -0.00000000000E+00  0.00000000000E+00  0.11255078207E+03  0.11255078207E+03  0.00000000000E+00 0. -1.
          2   -1    0    0  503    0  0.00000000000E+00 -0.00000000000E+00 -0.72059443427E+03  0.72059443427E+03  0.00000000000E+00 0.  1.
         25    1    1    2    0    0  0.17049631334E+03  0.11783039335E+03 -0.10716452018E+03  0.26469270644E+03  0.12500000000E+03 0.  0.
         21    1    1    2  502  501 -0.21808085112E+02 -0.21771773827E+02 -0.29638993821E+03  0.29798758058E+03  0.00000000000E+00 0.  1.
         21    1    1    2  503  502 -0.14868822823E+03 -0.96058619526E+02 -0.20448919382E+03  0.27046492931E+03  0.00000000000E+00 0.  1.
<mgrwt>
<rscale>  4 0.43504673E+03</rscale>
<asrwt>0</asrwt>
<pdfrwt beam="1">  1        2 0.11086068E+00 0.43504673E+03</pdfrwt>
<pdfrwt beam="2">  1       -2 0.17315506E-01 0.43504673E+03</pdfrwt>
<totfact> 0.10887836E+03</totfact>
</mgrwt>
</event>
<event>
 5    0  0.2754780E-002  0.1062932E+04  0.7546771E-02  0.9242094E-01
         -2   -1    0    0    0  501 -0.00000000000E+00  0.00000000000E+00  0.12387476792E+04  0.12387476792E+04  0.00000000000E+00 0. -1.
          2   -1    0    0  503    0  0.00000000000E+00 -0.00000000000E+00 -0.25641438225E+03  0.25641438225E+03  0.00000000000E+00 0.  1.
         25    1    1    2    0    0 -0.49953290055E+03  0.11798508064E+03  0.45767419661E+03  0.69895941815E+03  0.12500000000E+03 0.  0.
         21    1    1    2  502  501 -0.14930635605E+02  0.20989476941E+02 -0.21189977281E+02  0.33354117572E+02  0.00000000000E+00 0. -1.
         21    1    1    2  503  502  0.51446353615E+03 -0.13897455758E+03  0.54584907764E+03  0.76284852575E+03  0.00000000000E+00 0. -1.
<mgrwt>
<rscale>  4 0.10629316E+04</rscale>
<asrwt>0</asrwt>
<pdfrwt beam="1">  1        2 0.39448367E-01 0.10629316E+04</pdfrwt>
<pdfrwt beam="2">  1       -2 0.19057656E+00 0.10629316E+04</pdfrwt>
<totfact> 0.19981250E+01</totfact>
</mgrwt>
</event>
<event>
 5    0  0.2754780E-002  0.9098554E+03  0.7546771E-02  0.9413345E-01
         -2   -1    0    0    0  501 -0.00000000000E+00  0.00000000000E+00  0.28920753887E+03  0.28920753887E+03  0.00000000000E+00 0.  1.
          2   -1    0    0  503    0  0.00000000000E+00 -0.00000000000E+00 -0.22195549894E+04  0.22195549894E+04  0.00000000000E+00 0. -1.
         25    1    1    2    0    0  0.45916181662E+03 -0.22851061642E+03 -0.12940623226E+04  0.13975939934E+04  0.12500000000E+03 0.  0.
         21    1    1    2  502  501 -0.37462525775E+03  0.59288475452E+02 -0.78415573190E+03  0.87106797607E+03  0.00000000000E+00 0.  1.
         21    1    1    2  503  502 -0.84536558869E+02  0.16922214097E+03  0.14787060401E+03  0.24010055875E+03  0.00000000000E+00 0.  1.
<mgrwt>
<rscale>  4 0.90985540E+03</rscale>
<asrwt>0</asrwt>
<pdfrwt beam="1">  1        2 0.34147000E+00 0.90985540E+03</pdfrwt>
<pdfrwt beam="2">  1       -2 0.44493467E-01 0.90985540E+03</pdfrwt>
<totfact> 0.24532556E+01</totfact>
</mgrwt>
</event>
<event>
 5    0  0.2754780E-002  0.5808647E+03  0.7546771E-02  0.9945921E-01
         -1   -1    0    0    0  501 -0.00000000000E+00  0.00000000000E+00  0.11587273816E+04  0.11587273816E+04  0.00000000000E+00 0. -1.
          1   -1    0    0  502    0  0.00000000000E+00 -0.00000000000E+00 -0.87665297503E+02  0.87665297503E+02  0.00000000000E+00 0.  1.
         25    1    1    2    0    0 -0.29407790130E+01 -0.27736000985E+03  0.42593106704E+03  0.52343050840E+03  0.12500000000E+03 0.  0.
         21    1    1    2  502  503  0.14941946168E+02  0.25744901465E+03  0.64993112868E+03  0.69922366159E+03  0.00000000000E+00 0. -1.
         21    1    1    2  503  501 -0.12001167155E+02  0.19910995199E+02 -0.48001116376E+01  0.23738509107E+02  0.00000000000E+00 0. -1.
<mgrwt>
<rscale>  4 0.58086466E+03</rscale>
<asrwt>0</asrwt>
<pdfrwt beam="1">  1        1 0.13486970E-01 0.58086466E+03</pdfrwt>
<pdfrwt beam="2">  1       -1 0.17826574E+00 0.58086466E+03</pdfrwt>
<totfact> 0.98306556E+01</totfact>
</mgrwt>
</event>
<event>
 5    0  0.2754780E-002  0.5735606E+03  0.7546771E-02  0.9961830E-01
         -2   -1    0    0    0  501 -0.00000000000E+00  0.00000000000E+00  0.30290065385E+03  0.30290065385E+03  0.00000000000E+00 0. -1.
          2   -1    0    0  502    0  0.00000000000E+00 -0.00000000000E+00 -0.48574775530E+03  0.48574775530E+03  0.00000000000E+00 0.  1.
         25    1    1    2    0    0 -0.14287202573E+03 -0.19759671515E+03  0.18540110217E+03  0.33084051484E+03  0.12500000000E+03 0.  0.
         21    1    1    2  502  503  0.11232876650E+03  0.14050106319E+03 -0.16357394440E+03  0.24313522128E+03  0.00000000000E+00 0.  1.
         21    1    1    2  503  501  0.30543259230E+02  0.57095651960E+02 -0.20467425922E+03  0.21467267303E+03  0.00000000000E+00 0.  1.
<mgrwt>
<rscale>  4 0.57356056E+03</rscale>
<asrwt>0</asrwt>
<pdfrwt beam="1">  1        2 0.74730423E-01 0.57356056E+03</pdfrwt>
<pdfrwt beam="2">  1       -2 0.46600101E-01 0.57356056E+03</pdfrwt>
<totfact> 0.28210565E+02</totfact>
</mgrwt>
</event>
<event>
 5    0  0.2754780E-002  0.9657329E+03  0.7546771E-02  0.9346948E-01
         -2   -1    0    0    0  501 -0.00000000000E+00  0.00000000000E+00  0.19956404063E+03  0.19956404063E+03  0.00000000000E+00 0. -1.
          2   -1    0    0  503    0  0.00000000000E+00 -0.00000000000E+00 -0.12849125497E+04  0.12849125497E+04  0.00000000000E+00 0.  1.
         25    1    1    2    0    0  0.24162469487E+03  0.12651591021E+03  0.43151906029E+02  0.30311030286E+03  0.12500000000E+03 0.  0.
         21    1    1    2  502  501  0.29207787619E+02  0.24028873396E+02 -0.90001703678E+02  0.97625756228E+02  0.00000000000E+00 0. -1.
         21    1    1    2  503  502 -0.27083248249E+03 -0.15054478361E+03 -0.10384987114E+04  0.10837405312E+04  0.00000000000E+00 0.  1.
<mgrwt>
<rscale>  4 0.96573287E+03</rscale>
<asrwt>0</asrwt>
<pdfrwt beam="1">  1        2 0.19767885E+00 0.96573287E+03</pdfrwt>
<pdfrwt beam="2">  1       -2 0.30702160E-01 0.96573287E+03</pdfrwt>
<totfact> 0.16549914E+02</totfact>
</mgrwt>
</event>
<event>
 5    0  0.2754780E-002  0.5638836E+03  0.7546771E-02  0.9983305E-01
          2   -1    0    0  502    0  0.00000000000E+00  0.00000000000E+00  0.14160755748E+04  0.14160755748E+04  0.00000000000E+00 0. -1.
         -2   -1    0    0    0  501 -0.00000000000E+00 -0.00000000000E+00 -0.12814155298E+03  0.12814155298E+03  0.00000000000E+00 0.  1.
         25    1    1    2    0    0 -0.22767248799E+03 -0.46126943545E+02  0.46595552227E+03  0.53544561390E+03  0.12500000000E+03 0.  0.
         21    1    1    2  502  503  0.20355069207E+03  0.59870873870E+02  0.27660480643E+02  0.21396847424E+03  0.00000000000E+00 0.  1.
         21    1    1    2  503  501  0.24121795922E+02 -0.13743930324E+02  0.79431801894E+03  0.79480303967E+03  0.00000000000E+00 0. -1.
<mgrwt>
<rscale>  4 0.56388360E+03</rscale>
<asrwt>0</asrwt>
<pdfrwt beam="1">  1        2 0.21785777E+00 0.56388360E+03</pdfrwt>
<pdfrwt beam="2">  1       -2 0.19714086E-01 0.56388360E+03</pdfrwt>
<totfact> 0.31794700E+02</totfact>
</mgrwt>
</event>
<event>
 5    0  0.2754780E-002  0.8398265E+03  0.7546771E-02  0.9504094E-01
          2   -1    0    0  503    0  0.00000000000E+00  0.00000000000E+00  0.17356117405E+04  0.17356117405E+04  0.00000000000E+00 0. -1.
         -2   -1    0    0    0  501 -0.00000000000E+00 -0.00000000000E+00 -0.15663983572E+03  0.15663983572E+03  0.00000000000E+00 0.  1.
         25    1    1    2    0    0 -0.17680412486E+03  0.17051016845E+03  0.86131215363E+02  0.28875076168E+03  0.12500000000E+03 0.  0.
         21    1    1    2  502  501  0.12130445597E+03 -0.80487485849E+02  0.14906300053E+04  0.14977218764E+04  0.00000000000E+00 0. -1.
         21    1    1    2  503  502  0.55499668881E+02 -0.90022682601E+02  0.22106841247E+01  0.10577893813E+03  0.00000000000E+00 0. -1.
<mgrwt>
<rscale>  4 0.83982649E+03</rscale>
<asrwt>0</asrwt>
<pdfrwt beam="1">  1        2 0.26701718E+00 0.83982649E+03</pdfrwt>
<pdfrwt beam="2">  1       -2 0.24098437E-01 0.83982649E+03</pdfrwt>
<totfact> 0.14524871E+02</totfact>
</mgrwt>
</event>
<event>
 5    0  0.2754780E-002  0.3732758E+03  0.7546771E-02  0.1053447E+00
          2   -1    0    0  502    0  0.00000000000E+00  0.00000000000E+00  0.36855329794E+03  0.36855329794E+03  0.00000000000E+00 0. -1.
         -2   -1    0    0    0  501 -0.00000000000E+00 -0.00000000000E+00 -0.46979525502E+03  0.46979525502E+03  0.00000000000E+00 0.  1.
         25    1    1    2    0    0  0.15919233092E+03 -0.13189499142E+03 -0.19941375724E+03  0.31325601919E+03  0.12500000000E+03 0.  0.
         21    1    1    2  502  503 -0.71894307327E+02  0.10002476445E+03 -0.18769080591E+03  0.22450297003E+03  0.00000000000E+00 0. -1.
         21    1    1    2  503  501 -0.87298023591E+02  0.31870226969E+02  0.28586260606E+03  0.30058956375E+03  0.00000000000E+00 0. -1.
<mgrwt>
<rscale>  4 0.37327575E+03</rscale>
<asrwt>0</asrwt>
<pdfrwt beam="1">  1        2 0.56700508E-01 0.37327575E+03</pdfrwt>
<pdfrwt beam="2">  1       -2 0.72276193E-01 0.37327575E+03</pdfrwt>
<totfact> 0.15557613E+02</totfact>
</mgrwt>
</event>
<event>
 5    0  0.2754780E-002  0.4513903E+03  0.7546771E-02  0.1027308E+00
         -2   -1    0    0    0  501 -0.00000000000E+00  0.00000000000E+00  0.69638113149E+03  0.69638113149E+03  0.00000000000E+00 0.  1.
          2   -1    0    0  502    0  0.00000000000E+00 -0.00000000000E+00 -0.11754665794E+03  0.11754665794E+03  0.00000000000E+00 0. -1.
         25    1    1    2    0    0 -0.23593307859E+03  0.63967039909E+02  0.32326346758E+03  0.42412317697E+03  0.12500000000E+03 0.  0.
         21    1    1    2  502  503  0.84019447352E+02 -0.48959301787E+02  0.20849505763E+03  0.23005753589E+03  0.00000000000E+00 0. -1.
         21    1    1    2  503  501  0.15191363124E+03 -0.15007738122E+02  0.47075948340E+02  0.15974707657E+03  0.00000000000E+00 0. -1.
<mgrwt>
<rscale>  4 0.45139029E+03</rscale>
<asrwt>0</asrwt>
<pdfrwt beam="1">  1        2 0.18084102E-01 0.45139029E+03</pdfrwt>
<pdfrwt beam="2">  1       -2 0.10713556E+00 0.45139029E+03</pdfrwt>
<totfact> 0.22762217E+02</totfact>
</mgrwt>
</event>
<event>
 5    0  0.2754780E-002  0.4765889E+03  0.7546771E-02  0.1020077E+00
         -2   -1    0    0    0  501 -0.00000000000E+00  0.00000000000E+00  0.12651405793E+03  0.12651405793E+03  0.00000000000E+00 0. -1.
          2   -1    0    0  503    0  0.00000000000E+00 -0.00000000000E+00 -0.55527882653E+03  0.55527882653E+03  0.00000000000E+00 0.  1.
         25    1    1    2    0    0 -0.11727469438E+03 -0.19764688777E+03 -0.14165713472E+03  0.29750527727E+03  0.12500000000E+03 0.  0.
         21    1    1    2  502  501  0.14311436660E+02  0.13997504311E+02 -0.10198952988E+03  0.10393561253E+03  0.00000000000E+00 0.  1.
         21    1    1    2  503  502  0.10296325772E+03  0.18364938346E+03 -0.18511810399E+03  0.28035199466E+03  0.00000000000E+00 0.  1.
<mgrwt>
<rscale>  4 0.47658889E+03</rscale>
<asrwt>0</asrwt>
<pdfrwt beam="1">  1        2 0.85427510E-01 0.47658889E+03</pdfrwt>
<pdfrwt beam="2">  1       -2 0.19463702E-01 0.47658889E+03</pdfrwt>
<totfact> 0.12199839E+03</totfact>
</mgrwt>
</event>
<event>
 5    0  0.2754780E-002  0.4833455E+03  0.7546771E-02  0.1018220E+00
          1   -1    0    0  503    0  0.00000000000E+00  0.00000000000E+00  0.68628490864E+03  0.68628490864E+03  0.00000000000E+00 0. -1.
         -1   -1    0    0    0  501 -0.00000000000E+00 -0.00000000000E+00 -0.85104171715E+02  0.85104171715E+02  0.00000000000E+00 0.  1.
         25    1    1    2    0    0  0.14370214403E+03 -0.15447544499E+03  0.22666945415E+03  0.33394162776E+03  0.12500000000E+03 0.  0.
         21    1    1    2  502  501 -0.17132113342E+02  0.40925947726E+02  0.14613086440E+03  0.15271762189E+03  0.00000000000E+00 0. -1.
         21    1    1    2  503  502 -0.12657003069E+03  0.11354949727E+03  0.22838041837E+03  0.28472983071E+03  0.00000000000E+00 0.  1.
<mgrwt>
<rscale>  4 0.48334546E+03</rscale>
<asrwt>0</asrwt>
<pdfrwt beam="1">  1        1 0.10558229E+00 0.48334546E+03</pdfrwt>
<pdfrwt beam="2">  1       -1 0.13092950E-01 0.48334546E+03</pdfrwt>
<totfact> 0.11582378E+03</totfact>
</mgrwt>
</event>
<event>
 5    0  0.2754780E-002  0.5373259E+03  0.7546771E-02  0.1004471E+00
         -2   -1    0    0    0  501 -0.00000000000E+00  0.00000000000E+00  0.69940786051E+02  0.69940786051E+02  0.00000000000E+00 0. -1.
          2   -1    0    0  503    0  0.00000000000E+00 -0.00000000000E+00 -0.12550499580E+04  0.12550499580E+04  0.00000000000E+00 0.  1.
         25    1    1    2    0    0 -0.22022569330E+03 -0.93035751440E+02 -0.32209352486E+03  0.42014788562E+03  0.12500000000E+03 0.  0.
         21    1    1    2  502  501  0.17103716619E+02 -0.20216100642E+02 -0.20977462001E+03  0.21143939805E+03  0.00000000000E+00 0.  1.
         21    1    1    2  503  502  0.20312197668E+03  0.11325185208E+03 -0.65324102708E+03  0.69340346039E+03  0.00000000000E+00 0.  1.
<mgrwt>
<rscale>  4 0.53732589E+03</rscale>
<asrwt>0</asrwt>
<pdfrwt beam="1">  1        2 0.19308459E+00 0.53732589E+03</pdfrwt>
<pdfrwt beam="2">  1       -2 0.10760122E-01 0.53732589E+03</pdfrwt>
<totfact> 0.10858448E+03</totfact>
</mgrwt>
</event>
<event>
 5    0  0.2754780E-002  0.5103419E+03  0.7546771E-02  0.1011114E+00
          2   -1    0    0  502    0  0.00000000000E+00  0.00000000000E+00  0.51345555534E+03  0.51345555534E+03  0.00000000000E+00 0.  1.
         -2   -1    0    0    0  501 -0.00000000000E+00 -0.00000000000E+00 -0.22928100647E+03  0.22928100647E+03  0.00000000000E+00 0. -1.
         25    1    1    2    0    0  0.19774870552E+03 -0.16410547570E+03  0.16213811810E+03  0.32855582027E+03  0.12500000000E+03 0.  0.
         21    1    1    2  502  503 -0.15379332708E+03  0.73490860740E+02 -0.80108383232E+02  0.18833652628E+03  0.00000000000E+00 0. -1.
         21    1    1    2  503  501 -0.43955378437E+02  0.90614614961E+02  0.20214481400E+03  0.22584421526E+03  0.00000000000E+00 0. -1.
<mgrwt>
<rscale>  4 0.51034187E+03</rscale>
<asrwt>0</asrwt>
<pdfrwt beam="1">  1        2 0.78993162E-01 0.51034187E+03</pdfrwt>
<pdfrwt beam="2">  1       -2 0.35274001E-01 0.51034187E+03</pdfrwt>
<totfact> 0.45602382E+02</totfact>
</mgrwt>
</event>
<event>
 5    0  0.2754780E-002  0.5514808E+03  0.7546771E-02  0.1001152E+00
         -1   -1    0    0    0  501 -0.00000000000E+00  0.00000000000E+00  0.37047943817E+03  0.37047943817E+03  0.00000000000E+00 0.  1.
          1   -1    0    0  502    0  0.00000000000E+00 -0.00000000000E+00 -0.53633168946E+03  0.53633168946E+03  0.00000000000E+00 0. -1.
         25    1    1    2    0    0 -0.22490067019E+03  0.18386566594E+03  0.20259332195E+03  0.37557415867E+03  0.12500000000E+03 0.  0.
         21    1    1    2  502  503  0.96576694797E+02 -0.15850282006E+03 -0.58160144149E+02  0.19450656624E+03  0.00000000000E+00 0. -1.
         21    1    1    2  503  501  0.12832397539E+03 -0.25362845878E+02 -0.31028542909E+03  0.33673040272E+03  0.00000000000E+00 0. -1.
<mgrwt>
<rscale>  4 0.55148082E+03</rscale>
<asrwt>0</asrwt>
<pdfrwt beam="1">  1        1 0.82512567E-01 0.55148082E+03</pdfrwt>
<pdfrwt beam="2">  1       -1 0.56996837E-01 0.55148082E+03</pdfrwt>
<totfact> 0.12913462E+02</totfact>
</mgrwt>
</event>
<event>
 5    0  0.2754780E-002  0.6180309E+03  0.7546771E-02  0.9868688E-01
          2   -1    0    0  503    0  0.00000000000E+00  0.00000000000E+00  0.14278620020E+03  0.14278620020E+03  0.00000000000E+00 0.  1.
         -2   -1    0    0    0  501 -0.00000000000E+00 -0.00000000000E+00 -0.74960096490E+03  0.74960096490E+03  0.00000000000E+00 0. -1.
         25    1    1    2    0    0  0.12929963494E+03  0.18153755290E+03 -0.59713660787E+03  0.64951628707E+03  0.12500000000E+03 0.  0.
         21    1    1    2  502  501  0.15220727354E+02 -0.16151047032E+02  0.49941776244E+01  0.22747937743E+02  0.00000000000E+00 0.  1.
         21    1    1    2  503  502 -0.14452036229E+03 -0.16538650587E+03 -0.14672334448E+02  0.22012294028E+03  0.00000000000E+00 0.  1.
<mgrwt>
<rscale>  4 0.61803091E+03</rscale>
<asrwt>0</asrwt>
<pdfrwt beam="1">  1        2 0.21967107E-01 0.61803091E+03</pdfrwt>
<pdfrwt beam="2">  1       -2 0.11532323E+00 0.61803091E+03</pdfrwt>
<totfact> 0.15105485E+02</totfact>
</mgrwt>
</event>
<event>
 5    0  0.2754780E-002  0.5699648E+03  0.7546771E-02  0.9969756E-01
          1   -1    0    0  503    0  0.00000000000E+00  0.00000000000E+00  0.41628502428E+03  0.41628502428E+03  0.00000000000E+00 0. -1.
         -1   -1    0    0    0  501 -0.00000000000E+00 -0.00000000000E+00 -0.52779165856E+03  0.52779165856E+03  0.00000000000E+00 0.  1.
         25    1    1    2    0    0  0.38420546012E+01 -0.25086256505E+03 -0.18428678219E+03  0.33545999167E+03  0.12500000000E+03 0.  0.
         21    1    1    2  502  501  0.63521023441E+02 -0.30823863890E+02  0.25622837756E+03  0.26577812640E+03  0.00000000000E+00 0. -1.
         21    1    1    2  503  502 -0.67363078042E+02  0.28168642894E+03 -0.18344822966E+03  0.34283856477E+03  0.00000000000E+00 0. -1.
<mgrwt>
<rscale>  4 0.56996482E+03</rscale>
<asrwt>0</asrwt>
<pdfrwt beam="1">  1        1 0.64043850E-01 0.56996482E+03</pdfrwt>
<pdfrwt beam="2">  1       -1 0.81198717E-01 0.56996482E+03</pdfrwt>
<totfact> 0.88724420E+01</totfact>
</mgrwt>
</event>
<event>
 5    0  0.2754780E-002  0.6415781E+03  0.7546771E-02  0.9822712E-01
         -2   -1    0    0    0  501 -0.00000000000E+00  0.00000000000E+00  0.33501013060E+02  0.33501013060E+02  0.00000000000E+00 0. -1.
          2   -1    0    0  502    0  0.00000000000E+00 -0.00000000000E+00 -0.30717169416E+04  0.30717169416E+04  0.00000000000E+00 0.  1.
         25    1    1    2    0    0 -0.28782000361E+03 -0.28785862404E+02 -0.12626686596E+04  0.13013939159E+04  0.12500000000E+03 0.  0.
         21    1    1    2  502  503  0.19573896873E+03  0.27693464364E+02 -0.80502224615E+03  0.82893997892E+03  0.00000000000E+00 0. -1.
         21    1    1    2  503  501  0.92081034883E+02  0.10923980398E+01 -0.97052502270E+03  0.97488405978E+03  0.00000000000E+00 0. -1.
<mgrwt>
<rscale>  4 0.64157815E+03</rscale>
<asrwt>0</asrwt>
<pdfrwt beam="1">  1        2 0.47257200E+00 0.64157815E+03</pdfrwt>
<pdfrwt beam="2">  1       -2 0.51540003E-02 0.64157815E+03</pdfrwt>
<totfact> 0.33093466E+02</totfact>
</mgrwt>
</event>
<event>
 5    0  0.2754780E-002  0.7772198E+03  0.7546771E-02  0.9593589E-01
          2   -1    0    0  502    0  0.00000000000E+00  0.00000000000E+00  0.11023546872E+04  0.11023546872E+04  0.00000000000E+00 0.  1.
         -2   -1    0    0    0  501 -0.00000000000E+00 -0.00000000000E+00 -0.27351563184E+03  0.27351563184E+03  0.00000000000E+00 0. -1.
         25    1    1    2    0    0 -0.20476431820E+03 -0.10533840329E+03 -0.17970294226E+03  0.31771489212E+03  0.12500000000E+03 0.  0.
         21    1    1    2  502  503  0.18435392164E+03  0.11631639075E+03  0.45906050334E+03  0.50818541588E+03  0.00000000000E+00 0.  1.
         21    1    1    2  503  501  0.20410396560E+02 -0.10977987463E+02  0.54948149427E+03  0.54997001104E+03  0.00000000000E+00 0.  1.
<mgrwt>
<rscale>  4 0.77721983E+03</rscale>
<asrwt>0</asrwt>
<pdfrwt beam="1">  1        2 0.16959303E+00 0.77721983E+03</pdfrwt>
<pdfrwt beam="2">  1       -2 0.42079329E-01 0.77721983E+03</pdfrwt>
<totfact> 0.11756034E+02</totfact>
</mgrwt>
</event>
<event>
 5    0  0.2754780E-002  0.4660931E+03  0.7546771E-02  0.1023029E+00
          2   -1    0    0  503    0  0.00000000000E+00  0.00000000000E+00  0.35520527883E+03  0.35520527883E+03  0.00000000000E+00 0. -1.
         -2   -1    0    0    0  501 -0.00000000000E+00 -0.00000000000E+00 -0.17827260439E+03  0.17827260439E+03  0.00000000000E+00 0.  1.
         25    1    1    2    0    0  0.19850868970E+03  0.90987169982E+02  0.15259180633E+02  0.25207579729E+03  0.12500000000E+03 0.  0.
         21    1    1    2  502  501 -0.22668041451E+02  0.47793404424E+01  0.42468967735E+02  0.48376599909E+02  0.00000000000E+00 0. -1.
         21    1    1    2  503  502 -0.17584064825E+03 -0.95766510424E+02  0.11920452608E+03  0.23302548602E+03  0.00000000000E+00 0. -1.
<mgrwt>
<rscale>  4 0.46609309E+03</rscale>
<asrwt>0</asrwt>
<pdfrwt beam="1">  1        2 0.54646966E-01 0.46609309E+03</pdfrwt>
<pdfrwt beam="2">  1       -2 0.27426555E-01 0.46609309E+03</pdfrwt>
<totfact> 0.11005871E+03</totfact>
</mgrwt>
</event>
<event>
 5    0  0.2754780E-002  0.4470032E+03  0.7546771E-02  0.1028620E+00
          1   -1    0    0  503    0  0.00000000000E+00  0.00000000000E+00  0.46406730938E+03  0.46406730938E+03  0.00000000000E+00 0. -1.
         -1   -1    0    0    0  501 -0.00000000000E+00 -0.00000000000E+00 -0.14796522999E+03  0.14796522999E+03  0.00000000000E+00 0.  1.
         25    1    1    2    0    0 -0.20744144758E+03 -0.44986207352E+02  0.10373266140E+03  0.26728482573E+03  0.12500000000E+03 0.  0.
         21    1    1    2  502  501  0.15374414960E+02 -0.13068398701E+02  0.12377670970E+03  0.12541064367E+03  0.00000000000E+00 0.  1.
         21    1    1    2  503  502  0.19206703262E+03  0.58054606053E+02  0.88592708296E+02  0.21933706998E+03  0.00000000000E+00 0.  1.
<mgrwt>
<rscale>  4 0.44700316E+03</rscale>
<asrwt>0</asrwt>
<pdfrwt beam="1">  1        1 0.71394970E-01 0.44700316E+03</pdfrwt>
<pdfrwt beam="2">  1       -1 0.22763882E-01 0.44700316E+03</pdfrwt>
<totfact> 0.81282689E+02</totfact>
</mgrwt>
</event>
<event>
 5    0  0.2754780E-002  0.1585172E+04  0.7546771E-02  0.8829710E-01
         -2   -1    0    0    0  501 -0.00000000000E+00  0.00000000000E+00  0.77421849899E+03  0.77421849899E+03  0.00000000000E+00 0.  1.
          2   -1    0    0  502    0  0.00000000000E+00 -0.00000000000E+00 -0.11904438521E+04  0.11904438521E+04  0.00000000000E+00 0. -1.
         25    1    1    2    0    0  0.75642232571E+03  0.57240026966E+02  0.23662593496E+03  0.80440536337E+03  0.12500000000E+03 0.  0.
         21    1    1    2  502  503 -0.73040910945E+03 -0.24481621932E+02 -0.27616924440E+03  0.78125941180E+03  0.00000000000E+00 0. -1.
         21    1    1    2  503  501 -0.26013216257E+02 -0.32758405035E+02 -0.37668204368E+03  0.37899757592E+03  0.00000000000E+00 0. -1.
<mgrwt>
<rscale>  4 0.15851716E+04</rscale>
<asrwt>0</asrwt>
<pdfrwt beam="1">  1        2 0.18314521E+00 0.15851716E+04</pdfrwt>
<pdfrwt beam="2">  1       -2 0.11911054E+00 0.15851716E+04</pdfrwt>
<totfact> 0.98790573E+00</totfact>
</mgrwt>
</event>
<event>
 5    0  0.2754780E-002  0.5074432E+03  0.7546771E-02  0.1011854E+00
          2   -1    0    0  502    0  0.00000000000E+00  0.00000000000E+00  0.11239989992E+04  0.11239989992E+04  0.00000000000E+00 0. -1.
         -2   -1    0    0    0  501 -0.00000000000E+00 -0.00000000000E+00 -0.11374843553E+03  0.11374843553E+03  0.00000000000E+00 0.  1.
         25    1    1    2    0    0 -0.10509825659E+03  0.18911588530E+03  0.41724530873E+03  0.48634258427E+03  0.12500000000E+03 0.  0.
         21    1    1    2  502  503  0.92874111960E+02 -0.16690736697E+03  0.36673474297E+02  0.19449579311E+03  0.00000000000E+00 0.  1.
         21    1    1    2  503  501  0.12224144626E+02 -0.22208518331E+02  0.55633178066E+03  0.55690905737E+03  0.00000000000E+00 0.  1.
<mgrwt>
<rscale>  4 0.50744323E+03</rscale>
<asrwt>0</asrwt>
<pdfrwt beam="1">  1        2 0.17292292E+00 0.50744323E+03</pdfrwt>
<pdfrwt beam="2">  1       -2 0.17499760E-01 0.50744323E+03</pdfrwt>
<totfact> 0.57715687E+02</totfact>
</mgrwt>
</event>
<event>
 5    0  0.2754780E-002  0.5687109E+03  0.7546771E-02  0.9972535E-01
          4   -1    0    0  502    0  0.00000000000E+00  0.00000000000E+00  0.10551934314E+04  0.10551934314E+04  0.00000000000E+00 0.  1.
         -4   -1    0    0    0  501 -0.00000000000E+00 -0.00000000000E+00 -0.76628616385E+02  0.76628616385E+02  0.00000000000E+00 0. -1.
         25    1    1    2    0    0  0.35392558486E+02 -0.24026402926E+03  0.28661030977E+03  0.39591653996E+03  0.12500000000E+03 0.  0.
         21    1    1    2  502  503 -0.16661539220E+02  0.21150234068E+03  0.54133014675E+03  0.58141996421E+03  0.00000000000E+00 0.  1.
         21    1    1    2  503  501 -0.18731019266E+02  0.28761688578E+02  0.15062435851E+03  0.15448554363E+03  0.00000000000E+00 0.  1.
<mgrwt>
<rscale>  4 0.56871087E+03</rscale>
<asrwt>0</asrwt>
<pdfrwt beam="1">  1        4 0.16233744E+00 0.56871087E+03</pdfrwt>
<pdfrwt beam="2">  1       -4 0.11789019E-01 0.56871087E+03</pdfrwt>
<totfact> 0.28430011E+01</totfact>
</mgrwt>
</event>
<event>
 5    0  0.2754780E-002  0.5728202E+03  0.7546771E-02  0.9963457E-01
         -1   -1    0    0    0  501 -0.00000000000E+00  0.00000000000E+00  0.90123558536E+02  0.90123558536E+02  0.00000000000E+00 0. -1.
          1   -1    0    0  503    0  0.00000000000E+00 -0.00000000000E+00 -0.14134736768E+04  0.14134736768E+04  0.00000000000E+00 0.  1.
         25    1    1    2    0    0 -0.18114281244E+03  0.17992985635E+03 -0.57119698305E+03  0.63802700974E+03  0.12500000000E+03 0.  0.
         21    1    1    2  502  501 -0.34320107789E+02 -0.25435671119E+02 -0.49292023515E+03  0.49476782574E+03  0.00000000000E+00 0.  1.
         21    1    1    2  503  502  0.21546292022E+03 -0.15449418523E+03 -0.25923290002E+03  0.37080239983E+03  0.00000000000E+00 0. -1.
<mgrwt>
<rscale>  4 0.57282020E+03</rscale>
<asrwt>0</asrwt>
<pdfrwt beam="1">  1        1 0.21745749E+00 0.57282020E+03</pdfrwt>
<pdfrwt beam="2">  1       -1 0.13865163E-01 0.57282020E+03</pdfrwt>
<totfact> 0.28929671E+02</totfact>
</mgrwt>
</event>
<event>
 5    0  0.2754780E-002  0.4975326E+03  0.7546771E-02  0.1014425E+00
         -1   -1    0    0    0  501 -0.00000000000E+00  0.00000000000E+00  0.65668051976E+02  0.65668051976E+02  0.00000000000E+00 0. -1.
          1   -1    0    0  503    0  0.00000000000E+00 -0.00000000000E+00 -0.17197277663E+04  0.17197277663E+04  0.00000000000E+00 0.  1.
         25    1    1    2    0    0 -0.25369696689E+02 -0.22120520575E+03 -0.73049265121E+03  0.77383452885E+03  0.12500000000E+03 0.  0.
         21    1    1    2  502  501 -0.23758400479E+02  0.41315904838E+02 -0.76584865959E+03  0.76733019944E+03  0.00000000000E+00 0.  1.
         21    1    1    2  503  502  0.49128097168E+02  0.17988930091E+03 -0.15771840357E+03  0.24423109003E+03  0.00000000000E+00 0. -1.
<mgrwt>
<rscale>  4 0.49753264E+03</rscale>
<asrwt>0</asrwt>
<pdfrwt beam="1">  1        1 0.26457351E+00 0.49753264E+03</pdfrwt>
<pdfrwt beam="2">  1       -1 0.10102777E-01 0.49753264E+03</pdfrwt>
<totfact> 0.29953694E+02</totfact>
</mgrwt>
</event>
<event>
 5    0  0.2754780E-002  0.4750764E+03  0.7546771E-02  0.1020497E+00
         -2   -1    0    0    0  501 -0.00000000000E+00  0.00000000000E+00  0.25885283566E+03  0.25885283566E+03  0.00000000000E+00 0.  1.
          2   -1    0    0  502    0  0.00000000000E+00 -0.00000000000E+00 -0.35250421749E+03  0.35250421749E+03  0.00000000000E+00 0. -1.
         25    1    1    2    0    0  0.23254437141E+03  0.10766174051E+02  0.78670236818E+02  0.27569331029E+03  0.12500000000E+03 0.  0.
         21    1    1    2  502  503 -0.18250510651E+03  0.51670659182E+02 -0.62349729872E+02  0.19966336603E+03  0.00000000000E+00 0. -1.
         21    1    1    2  503  501 -0.50039264906E+02 -0.62436833233E+02 -0.10997188877E+03  0.13600037683E+03  0.00000000000E+00 0.  1.
<mgrwt>
<rscale>  4 0.47507643E+03</rscale>
<asrwt>0</asrwt>
<pdfrwt beam="1">  1        2 0.54231418E-01 0.47507643E+03</pdfrwt>
<pdfrwt beam="2">  1       -2 0.39823513E-01 0.47507643E+03</pdfrwt>
<totfact> 0.55204943E+02</totfact>
</mgrwt>
</event>
<event>
 5    0  0.2754780E-002  0.7072256E+03  0.7546771E-02  0.9704955E-01
          2   -1    0    0  502    0  0.00000000000E+00  0.00000000000E+00  0.51823912542E+03  0.51823912542E+03  0.00000000000E+00 0. -1.
         -2   -1    0    0    0  501 -0.00000000000E+00 -0.00000000000E+00 -0.26220104977E+03  0.26220104977E+03  0.00000000000E+00 0.  1.
         25    1    1    2    0    0  0.26949475357E+03 -0.15639324442E+03  0.25312776337E+03  0.42045800467E+03  0.12500000000E+03 0.  0.
         21    1    1    2  502  503 -0.29078359514E+03  0.14038032236E+03 -0.21821810719E+02  0.32363239258E+03  0.00000000000E+00 0.  1.
         21    1    1    2  503  501  0.21288841571E+02  0.16012922061E+02  0.24732122997E+02  0.36349777940E+02  0.00000000000E+00 0. -1.
<mgrwt>
<rscale>  4 0.70722562E+03</rscale>
<asrwt>0</asrwt>
<pdfrwt beam="1">  1        2 0.79729096E-01 0.70722562E+03</pdfrwt>
<pdfrwt beam="2">  1       -2 0.40338623E-01 0.70722562E+03</pdfrwt>
<totfact> 0.34642425E+02</totfact>
</mgrwt>
</event>
<event>
 5    0  0.2754780E-002  0.4189339E+03  0.7546771E-02  0.1037414E+00
         -1   -1    0    0    0  501 -0.00000000000E+00  0.00000000000E+00  0.26910065675E+02  0.26910065675E+02  0.00000000000E+00 0. -1.
          1   -1    0    0  503    0  0.00000000000E+00 -0.00000000000E+00 -0.24326206183E+04  0.24326206183E+04  0.00000000000E+00 0.  1.
         25    1    1    2    0    0 -0.18739755763E+03 -0.76714957292E+02 -0.10786682785E+04  0.11046054881E+04  0.12500000000E+03 0.  0.
         21    1    1    2  502  501  0.26757990516E+02  0.92734943346E+01 -0.78629005256E+03  0.78679986942E+03  0.00000000000E+00 0. -1.
         21    1    1    2  503  502  0.16063956711E+03  0.67441462958E+02 -0.54075222154E+03  0.56812532645E+03  0.00000000000E+00 0. -1.
<mgrwt>
<rscale>  4 0.41893391E+03</rscale>
<asrwt>0</asrwt>
<pdfrwt beam="1">  1        1 0.37424942E+00 0.41893391E+03</pdfrwt>
<pdfrwt beam="2">  1       -1 0.41400090E-02 0.41893391E+03</pdfrwt>
<totfact> 0.40149785E+02</totfact>
</mgrwt>
</event>
<event>
 5    0  0.2754780E-002  0.5079169E+03  0.7546771E-02  0.1011733E+00
         -2   -1    0    0    0  501 -0.00000000000E+00  0.00000000000E+00  0.65488769309E+02  0.65488769309E+02  0.00000000000E+00 0. -1.
          2   -1    0    0  503    0  0.00000000000E+00 -0.00000000000E+00 -0.19291395011E+04  0.19291395011E+04  0.00000000000E+00 0.  1.
         25    1    1    2    0    0 -0.24040786594E+03  0.86112921763E+02 -0.78394354384E+03  0.83390878232E+03  0.12500000000E+03 0.  0.
         21    1    1    2  502  501  0.18555324795E+03 -0.67619925929E+02 -0.10847791223E+04  0.11026097253E+04  0.00000000000E+00 0.  1.
         21    1    1    2  503  502  0.54854617991E+02 -0.18492995835E+02  0.50719343521E+01  0.58109762759E+02  0.00000000000E+00 0. -1.
<mgrwt>
<rscale>  4 0.50791685E+03</rscale>
<asrwt>0</asrwt>
<pdfrwt beam="1">  1        2 0.29679073E+00 0.50791685E+03</pdfrwt>
<pdfrwt beam="2">  1       -2 0.10075194E-01 0.50791685E+03</pdfrwt>
<totfact> 0.51654375E+02</totfact>
</mgrwt>
</event>
<event>
 5    0  0.2754780E-002  0.6235926E+03  0.7546771E-02  0.9857633E-01
          2   -1    0    0  503    0  0.00000000000E+00  0.00000000000E+00  0.87787841446E+03  0.87787841446E+03  0.00000000000E+00 0.  1.
         -2   -1    0    0    0  501 -0.00000000000E+00 -0.00000000000E+00 -0.12672601569E+03  0.12672601569E+03  0.00000000000E+00 0. -1.
         25    1    1    2    0    0  0.18112534082E+03  0.10534569485E+03  0.32170680937E+02  0.24609765790E+03  0.12500000000E+03 0.  0.
         21    1    1    2  502  501  0.15357956590E+02 -0.24824929214E+02  0.95049345133E+02  0.99430990900E+02  0.00000000000E+00 0.  1.
         21    1    1    2  503  502 -0.19648329741E+03 -0.80520765639E+02  0.62393237270E+03  0.65907578135E+03  0.00000000000E+00 0.  1.
<mgrwt>
<rscale>  4 0.62359261E+03</rscale>
<asrwt>0</asrwt>
<pdfrwt beam="1">  1        2 0.13505821E+00 0.62359261E+03</pdfrwt>
<pdfrwt beam="2">  1       -2 0.19496311E-01 0.62359261E+03</pdfrwt>
<totfact> 0.68270862E+02</totfact>
</mgrwt>
</event>
<event>
 5    0  0.2754780E-002  0.4868847E+03  0.7546771E-02  0.1017260E+00
         -2   -1    0    0    0  501 -0.00000000000E+00  0.00000000000E+00  0.21394487244E+03  0.21394487244E+03  0.00000000000E+00 0. -1.
          2   -1    0    0  503    0  0.00000000000E+00 -0.00000000000E+00 -0.20689531342E+04  0.20689531342E+04  0.00000000000E+00 0.  1.
         25    1    1    2    0    0  0.13602075306E+03  0.20335674861E+03 -0.13726155423E+03  0.30711780596E+03  0.12500000000E+03 0.  0.
         21    1    1    2  502  501 -0.10918248555E+03 -0.34875657055E+02 -0.17877143483E+04  0.17913848603E+04  0.00000000000E+00 0.  1.
         21    1    1    2  503  502 -0.26838267515E+02 -0.16848109156E+03  0.69967640732E+02  0.18439534041E+03  0.00000000000E+00 0. -1.
<mgrwt>
<rscale>  4 0.48688469E+03</rscale>
<asrwt>0</asrwt>
<pdfrwt beam="1">  1        2 0.31830048E+00 0.48688469E+03</pdfrwt>
<pdfrwt beam="2">  1       -2 0.32914596E-01 0.48688469E+03</pdfrwt>
<totfact> 0.56444810E+01</totfact>
</mgrwt>
</event>
<event>
 5    0  0.2754780E-002  0.6922498E+03  0.7546771E-02  0.9730579E-01
         -1   -1    0    0    0  501 -0.00000000000E+00  0.00000000000E+00  0.88488133561E+02  0.88488133561E+02  0.00000000000E+00 0.  1.
          1   -1    0    0  502    0  0.00000000000E+00 -0.00000000000E+00 -0.22263089459E+04  0.22263089459E+04  0.00000000000E+00 0. -1.
         25    1    1    2    0    0  0.22463019278E+03 -0.24307010939E+03 -0.10064044363E+04  0.10667786514E+04  0.12500000000E+03 0.  0.
         21    1    1    2  502  503 -0.31957777460E+02 -0.31885441325E+02  0.19466979357E+02  0.49162426648E+02  0.00000000000E+00 0.  1.
         21    1    1    2  503  501 -0.19267241533E+03  0.27495555072E+03 -0.11508833553E+04  0.11988560014E+04  0.00000000000E+00 0. -1.
<mgrwt>
<rscale>  4 0.69224978E+03</rscale>
<asrwt>0</asrwt>
<pdfrwt beam="1">  1        1 0.34250905E+00 0.69224978E+03</pdfrwt>
<pdfrwt beam="2">  1       -1 0.13613560E-01 0.69224978E+03</pdfrwt>
<totfact> 0.83898354E+01</totfact>
</mgrwt>
</event>
<event>
 5    0  0.2754780E-002  0.5208237E+03  0.7546771E-02  0.1008482E+00
         -2   -1    0    0    0  501 -0.00000000000E+00  0.00000000000E+00  0.53592996793E+02  0.53592996793E+02  0.00000000000E+00 0. -1.
          2   -1    0    0  502    0  0.00000000000E+00 -0.00000000000E+00 -0.15399709538E+04  0.15399709538E+04  0.00000000000E+00 0.  1.
         25    1    1    2    0    0  0.12932187851E+03  0.19986509621E+03 -0.78538790430E+03  0.83013816028E+03  0.12500000000E+03 0.  0.
         21    1    1    2  502  503 -0.99667183477E+02 -0.22055335715E+03 -0.46045829784E+03  0.52019147904E+03  0.00000000000E+00 0.  1.
         21    1    1    2  503  501 -0.29654695032E+02  0.20688260944E+02 -0.24053175484E+03  0.24323431124E+03  0.00000000000E+00 0.  1.
<mgrwt>
<rscale>  4 0.52082375E+03</rscale>
<asrwt>0</asrwt>
<pdfrwt beam="1">  1        2 0.23691856E+00 0.52082375E+03</pdfrwt>
<pdfrwt beam="2">  1       -2 0.82450781E-02 0.52082375E+03</pdfrwt>
<totfact> 0.11556441E+03</totfact>
</mgrwt>
</event>
<event>
 5    0  0.2754780E-002  0.4211742E+03  0.7546771E-02  0.1036685E+00
         -2   -1    0    0    0  501 -0.00000000000E+00  0.00000000000E+00  0.43967375151E+02  0.43967375151E+02  0.00000000000E+00 0. -1.
          2   -1    0    0  502    0  0.00000000000E+00 -0.00000000000E+00 -0.15012616173E+04  0.15012616173E+04  0.00000000000E+00 0.  1.
         25    1    1    2    0    0  0.16164887372E+03 -0.13088651602E+03 -0.63524970160E+03  0.68002119219E+03  0.12500000000E+03 0.  0.
         21    1    1    2  502  503 -0.16863854105E+03  0.56853001547E+02 -0.41690363860E+03  0.45329886961E+03  0.00000000000E+00 0. -1.
         21    1    1    2  503  501  0.69896673317E+01  0.74033514472E+02 -0.40514090191E+03  0.41190893061E+03  0.00000000000E+00 0. -1.
<mgrwt>
<rscale>  4 0.42117421E+03</rscale>
<asrwt>0</asrwt>
<pdfrwt beam="1">  1        2 0.23096333E+00 0.42117421E+03</pdfrwt>
<pdfrwt beam="2">  1       -2 0.67642115E-02 0.42117421E+03</pdfrwt>
<totfact> 0.16658330E+03</totfact>
</mgrwt>
</event>
<event>
 5    0  0.2754780E-002  0.3765108E+03  0.7546771E-02  0.1052231E+00
          1   -1    0    0  502    0  0.00000000000E+00  0.00000000000E+00  0.13980488433E+04  0.13980488433E+04  0.00000000000E+00 0.  1.
         -1   -1    0    0    0  501 -0.00000000000E+00 -0.00000000000E+00 -0.42132709623E+02  0.42132709623E+02  0.00000000000E+00 0. -1.
         25    1    1    2    0    0  0.65807670928E+02  0.19495051923E+03  0.60189513172E+03  0.64825851640E+03  0.12500000000E+03 0.  0.
         21    1    1    2  502  503 -0.35030166731E+02 -0.12865313981E+03  0.25674507933E+03  0.28930395560E+03  0.00000000000E+00 0.  1.
         21    1    1    2  503  501 -0.30777504197E+02 -0.66297379414E+02  0.49727592260E+03  0.50261908089E+03  0.00000000000E+00 0.  1.
<mgrwt>
<rscale>  4 0.37651079E+03</rscale>
<asrwt>0</asrwt>
<pdfrwt beam="1">  1        1 0.21508440E+00 0.37651079E+03</pdfrwt>
<pdfrwt beam="2">  1       -1 0.64819564E-02 0.37651079E+03</pdfrwt>
<totfact> 0.98935316E+02</totfact>
</mgrwt>
</event>
<event>
 5    0  0.2754780E-002  0.7268967E+03  0.7546771E-02  0.9672310E-01
          1   -1    0    0  503    0  0.00000000000E+00  0.00000000000E+00  0.54520259260E+03  0.54520259260E+03  0.00000000000E+00 0.  1.
         -1   -1    0    0    0  501 -0.00000000000E+00 -0.00000000000E+00 -0.27771813175E+03  0.27771813175E+03  0.00000000000E+00 0. -1.
         25    1    1    2    0    0 -0.35910450398E+03  0.60255105173E+02  0.13845508831E+03  0.40912288368E+03  0.12500000000E+03 0.  0.
         21    1    1    2  502  501  0.30413386061E+02  0.29557036074E+02  0.47033543722E+02  0.63330456088E+02  0.00000000000E+00 0.  1.
         21    1    1    2  503  502  0.32869111792E+03 -0.89812141247E+02  0.81995828825E+02  0.35046738458E+03  0.00000000000E+00 0. -1.
<mgrwt>
<rscale>  4 0.72689667E+03</rscale>
<asrwt>0</asrwt>
<pdfrwt beam="1">  1        1 0.83877322E-01 0.72689667E+03</pdfrwt>
<pdfrwt beam="2">  1       -1 0.42725867E-01 0.72689667E+03</pdfrwt>
<totfact> 0.21481900E+02</totfact>
</mgrwt>
</event>
<event>
 5    0  0.2754780E-002  0.7198137E+03  0.7546771E-02  0.9683936E-01
          2   -1    0    0  503    0  0.00000000000E+00  0.00000000000E+00  0.27807532214E+04  0.27807532214E+04  0.00000000000E+00 0.  1.
         -2   -1    0    0    0  501 -0.00000000000E+00 -0.00000000000E+00 -0.83580519205E+02  0.83580519205E+02  0.00000000000E+00 0. -1.
         25    1    1    2    0    0 -0.48393341240E+02 -0.29402201522E+03  0.12903094305E+04  0.13301557380E+04  0.12500000000E+03 0.  0.
         21    1    1    2  502  501  0.42881436625E+01  0.47448712997E+02  0.12218345235E+04  0.12227630070E+04  0.00000000000E+00 0. -1.
         21    1    1    2  503  502  0.44105197578E+02  0.24657330222E+03  0.18502874825E+03  0.31141499563E+03  0.00000000000E+00 0. -1.
<mgrwt>
<rscale>  4 0.71981368E+03</rscale>
<asrwt>0</asrwt>
<pdfrwt beam="1">  1        2 0.42780812E+00 0.71981368E+03</pdfrwt>
<pdfrwt beam="2">  1       -2 0.12858544E-01 0.71981368E+03</pdfrwt>
<totfact> 0.11327309E+02</totfact>
</mgrwt>
</event>
<event>
 5    0  0.2754780E-002  0.4916096E+03  0.7546771E-02  0.1015992E+00
          1   -1    0    0  503    0  0.00000000000E+00  0.00000000000E+00  0.16702660610E+04  0.16702660610E+04  0.00000000000E+00 0. -1.
         -1   -1    0    0    0  501 -0.00000000000E+00 -0.00000000000E+00 -0.76443164036E+02  0.76443164036E+02  0.00000000000E+00 0.  1.
         25    1    1    2    0    0  0.17231732783E+03 -0.18270071122E+03  0.11467102209E+04  0.11805262141E+04  0.12500000000E+03 0.  0.
         21    1    1    2  502  501 -0.11646390917E+03  0.15702615055E+03  0.46309208825E+03  0.50266821692E+03  0.00000000000E+00 0.  1.
         21    1    1    2  503  502 -0.55853418663E+02  0.25674560672E+02 -0.15979412248E+02  0.63514794008E+02  0.00000000000E+00 0.  1.
<mgrwt>
<rscale>  4 0.49160962E+03</rscale>
<asrwt>0</asrwt>
<pdfrwt beam="1">  1        1 0.25696398E+00 0.49160962E+03</pdfrwt>
<pdfrwt beam="2">  1       -1 0.11760488E-01 0.49160962E+03</pdfrwt>
<totfact> 0.25433573E+02</totfact>
</mgrwt>
</event>
<event>
 5    0  0.2754780E-002  0.5758610E+03  0.7546771E-02  0.9956792E-01
         -1   -1    0    0    0  501 -0.00000000000E+00  0.00000000000E+00  0.83463636739E+02  0.83463636739E+02  0.00000000000E+00 0.  1.
          1   -1    0    0  502    0  0.00000000000E+00 -0.00000000000E+00 -0.11480777818E+04  0.11480777818E+04  0.00000000000E+00 0. -1.
         25    1    1    2    0    0 -0.26915961276E+03  0.82265327911E+02 -0.41864442387E+03  0.51971399342E+03  0.12500000000E+03 0.  0.
         21    1    1    2  502  503  0.24294338369E+03 -0.95394438539E+02 -0.51200673876E+03  0.57469338531E+03  0.00000000000E+00 0. -1.
         21    1    1    2  503  501  0.26216229068E+02  0.13129110628E+02 -0.13396298241E+03  0.13713403978E+03  0.00000000000E+00 0. -1.
<mgrwt>
<rscale>  4 0.57586103E+03</rscale>
<asrwt>0</asrwt>
<pdfrwt beam="1">  1        1 0.17662735E+00 0.57586103E+03</pdfrwt>
<pdfrwt beam="2">  1       -1 0.12840559E-01 0.57586103E+03</pdfrwt>
<totfact> 0.50358997E+02</totfact>
</mgrwt>
</event>
<event>
 5    0  0.2754780E-002  0.4529161E+03  0.7546771E-02  0.1026856E+00
         -2   -1    0    0    0  501 -0.00000000000E+00  0.00000000000E+00  0.42273587229E+03  0.42273587229E+03  0.00000000000E+00 0. -1.
          2   -1    0    0  502    0  0.00000000000E+00 -0.00000000000E+00 -0.19919366185E+03  0.19919366185E+03  0.00000000000E+00 0.  1.
         25    1    1    2    0    0  0.92379933816E+02  0.21234504934E+03  0.15236869085E+03  0.30408171616E+03  0.12500000000E+03 0.  0.
         21    1    1    2  502  503  0.13144099333E+02 -0.16339395147E+03 -0.26380657822E+02  0.16603099057E+03  0.00000000000E+00 0.  1.
         21    1    1    2  503  501 -0.10552403315E+03 -0.48951097874E+02  0.97554177410E+02  0.15181682741E+03  0.00000000000E+00 0.  1.
<mgrwt>
<rscale>  4 0.45291608E+03</rscale>
<asrwt>0</asrwt>
<pdfrwt beam="1">  1        2 0.30645179E-01 0.45291608E+03</pdfrwt>
<pdfrwt beam="2">  1       -2 0.65036288E-01 0.45291608E+03</pdfrwt>
<totfact> 0.38323291E+02</totfact>
</mgrwt>
</event>
<event>
 5    0  0.2754780E-002  0.4376737E+03  0.7546771E-02  0.1031463E+00
          2   -1    0    0  503    0  0.00000000000E+00  0.00000000000E+00  0.56207155936E+03  0.56207155936E+03  0.00000000000E+00 0.  1.
         -2   -1    0    0    0  501 -0.00000000000E+00 -0.00000000000E+00 -0.14741196323E+03  0.14741196323E+03  0.00000000000E+00 0. -1.
         25    1    1    2    0    0 -0.13813705533E+03  0.15396766109E+03  0.18681329622E+03  0.30547028392E+03  0.12500000000E+03 0.  0.
         21    1    1    2  502  501  0.28404193234E+02 -0.25842125259E+02  0.23211088526E+03  0.23526597011E+03  0.00000000000E+00 0.  1.
         21    1    1    2  503  502  0.10973286210E+03 -0.12812553583E+03 -0.42645853482E+01  0.16874726856E+03  0.00000000000E+00 0.  1.
<mgrwt>
<rscale>  4 0.43767369E+03</rscale>
<asrwt>0</asrwt>
<pdfrwt beam="1">  1        2 0.86472547E-01 0.43767369E+03</pdfrwt>
<pdfrwt beam="2">  1       -2 0.22678764E-01 0.43767369E+03</pdfrwt>
<totfact> 0.92103573E+02</totfact>
</mgrwt>
</event>
<event>
 5    0  0.2754780E-002  0.5543261E+03  0.7546771E-02  0.1000498E+00
         -2   -1    0    0    0  501 -0.00000000000E+00  0.00000000000E+00  0.60814529073E+02  0.60814529073E+02  0.00000000000E+00 0. -1.
          2   -1    0    0  503    0  0.00000000000E+00 -0.00000000000E+00 -0.13912416274E+04  0.13912416274E+04  0.00000000000E+00 0.  1.
         25    1    1    2    0    0 -0.21342756442E+03  0.16478529272E+03 -0.68810914758E+03  0.74954967609E+03  0.12500000000E+03 0.  0.
         21    1    1    2  502  501  0.21561608565E+02  0.62539565524E+01 -0.23855564187E+02  0.32758249025E+02  0.00000000000E+00 0.  1.
         21    1    1    2  503  502  0.19186595586E+03 -0.17103924927E+03 -0.61846238652E+03  0.66974823131E+03  0.00000000000E+00 0.  1.
<mgrwt>
<rscale>  4 0.55432606E+03</rscale>
<asrwt>0</asrwt>
<pdfrwt beam="1">  1        2 0.21403719E+00 0.55432606E+03</pdfrwt>
<pdfrwt beam="2">  1       -2 0.93560806E-02 0.55432606E+03</pdfrwt>
<totfact> 0.11389996E+03</totfact>
</mgrwt>
</event>
<event>
 5    0  0.2754780E-002  0.3767528E+03  0.7546771E-02  0.1052141E+00
         -2   -1    0    0    0  501 -0.00000000000E+00  0.00000000000E+00  0.32242095964E+03  0.32242095964E+03  0.00000000000E+00 0. -1.
          2   -1    0    0  503    0  0.00000000000E+00 -0.00000000000E+00 -0.32646474222E+03  0.32646474222E+03  0.00000000000E+00 0.  1.
         25    1    1    2    0    0  0.70922904523E+02  0.20942402790E+03 -0.10711427627E+03  0.27565730542E+03  0.12500000000E+03 0.  0.
         21    1    1    2  502  501 -0.72793968192E+02 -0.94820271853E+02 -0.89360101758E+02  0.14924836195E+03  0.00000000000E+00 0.  1.
         21    1    1    2  503  502  0.18710636694E+01 -0.11460375605E+03  0.19243059546E+03  0.22398003449E+03  0.00000000000E+00 0.  1.
<mgrwt>
<rscale>  4 0.37675276E+03</rscale>
<asrwt>0</asrwt>
<pdfrwt beam="1">  1        2 0.50225345E-01 0.37675276E+03</pdfrwt>
<pdfrwt beam="2">  1       -2 0.49603225E-01 0.37675276E+03</pdfrwt>
<totfact> 0.39028106E+02</totfact>
</mgrwt>
</event>
<event>
 5    0  0.2754780E-002  0.4940112E+03  0.7546771E-02  0.1015354E+00
         -2   -1    0    0    0  501 -0.00000000000E+00  0.00000000000E+00  0.49024062855E+02  0.49024062855E+02  0.00000000000E+00 0. -1.
          2   -1    0    0  502    0  0.00000000000E+00 -0.00000000000E+00 -0.25511827109E+04  0.25511827109E+04  0.00000000000E+00 0.  1.
         25    1    1    2    0    0 -0.13440135782E+03 -0.20490088387E+03 -0.10544878763E+04  0.10897787750E+04  0.12500000000E+03 0.  0.
         21    1    1    2  502  503  0.96293212304E+02  0.12656360854E+03 -0.18170851805E+03  0.24147197617E+03  0.00000000000E+00 0. -1.
         21    1    1    2  503  501  0.38108145512E+02  0.78337275323E+02 -0.12659622537E+04  0.12689560226E+04  0.00000000000E+00 0. -1.
<mgrwt>
<rscale>  4 0.49401117E+03</rscale>
<asrwt>0</asrwt>
<pdfrwt beam="1">  1        2 0.39248973E+00 0.49401117E+03</pdfrwt>
<pdfrwt beam="2">  1       -2 0.75421619E-02 0.49401117E+03</pdfrwt>
<totfact> 0.37543293E+02</totfact>
</mgrwt>
</event>
<event>
 5    0  0.2754780E-002  0.4625950E+03  0.7546771E-02  0.1024031E+00
          1   -1    0    0  503    0  0.00000000000E+00  0.00000000000E+00  0.72557494584E+03  0.72557494584E+03  0.00000000000E+00 0.  1.
         -1   -1    0    0    0  501 -0.00000000000E+00 -0.00000000000E+00 -0.10260585493E+03  0.10260585493E+03  0.00000000000E+00 0. -1.
         25    1    1    2    0    0 -0.21504472070E+03 -0.29715632064E+02  0.19133833007E+03  0.31521834852E+03  0.12500000000E+03 0.  0.
         21    1    1    2  502  501  0.12402174149E+02 -0.19122680408E+02  0.20022359598E+03  0.20151669712E+03  0.00000000000E+00 0.  1.
         21    1    1    2  503  502  0.20264254655E+03  0.48838312472E+02  0.23140716486E+03  0.31144575512E+03  0.00000000000E+00 0.  1.
<mgrwt>
<rscale>  4 0.46259501E+03</rscale>
<asrwt>0</asrwt>
<pdfrwt beam="1">  1        1 0.11162691E+00 0.46259501E+03</pdfrwt>
<pdfrwt beam="2">  1       -1 0.15785517E-01 0.46259501E+03</pdfrwt>
<totfact> 0.78928464E+02</totfact>
</mgrwt>
</event>
<event>
 5    0  0.2754780E-002  0.4599070E+03  0.7546771E-02  0.1024808E+00
          2   -1    0    0  503    0  0.00000000000E+00  0.00000000000E+00  0.78065723026E+03  0.78065723026E+03  0.00000000000E+00 0. -1.
         -2   -1    0    0    0  501 -0.00000000000E+00 -0.00000000000E+00 -0.67736012280E+02  0.67736012280E+02  0.00000000000E+00 0.  1.
         25    1    1    2    0    0 -0.16588086813E+03  0.11287758301E+03  0.30052348559E+03  0.38235739374E+03  0.12500000000E+03 0.  0.
         21    1    1    2  502  501  0.40156397668E+02 -0.67962753584E+02  0.10918516544E+03  0.13473259628E+03  0.00000000000E+00 0.  1.
         21    1    1    2  503  502  0.12572447046E+03 -0.44914829426E+02  0.30321256696E+03  0.33130325253E+03  0.00000000000E+00 0. -1.
<mgrwt>
<rscale>  4 0.45990698E+03</rscale>
<asrwt>0</asrwt>
<pdfrwt beam="1">  1        2 0.12010111E+00 0.45990698E+03</pdfrwt>
<pdfrwt beam="2">  1       -2 0.10420926E-01 0.45990698E+03</pdfrwt>
<totfact> 0.22823918E+03</totfact>
</mgrwt>
</event>
<event>
 5    0  0.2754780E-002  0.5080736E+03  0.7546771E-02  0.1011693E+00
         -2   -1    0    0    0  501 -0.00000000000E+00  0.00000000000E+00  0.79074150831E+02  0.79074150831E+02  0.00000000000E+00 0. -1.
          2   -1    0    0  502    0  0.00000000000E+00 -0.00000000000E+00 -0.11359778537E+04  0.11359778537E+04  0.00000000000E+00 0.  1.
         25    1    1    2    0    0 -0.21519233465E+02 -0.24278570491E+03 -0.37844452404E+03  0.46717580598E+03  0.12500000000E+03 0.  0.
         21    1    1    2  502  503  0.47943438380E+02  0.22845945736E+03 -0.36686667116E+03  0.43483726997E+03  0.00000000000E+00 0.  1.
         21    1    1    2  503  501 -0.26424204915E+02  0.14326247552E+02 -0.31159250764E+03  0.31303892855E+03  0.00000000000E+00 0.  1.
<mgrwt>
<rscale>  4 0.50807363E+03</rscale>
<asrwt>0</asrwt>
<pdfrwt beam="1">  1        2 0.17476582E+00 0.50807363E+03</pdfrwt>
<pdfrwt beam="2">  1       -2 0.12165254E-01 0.50807363E+03</pdfrwt>
<totfact> 0.10440278E+03</totfact>
</mgrwt>
</event>
<event>
 5    0  0.2754780E-002  0.1404572E+04  0.7546771E-02  0.8950516E-01
          2   -1    0    0  502    0  0.00000000000E+00  0.00000000000E+00  0.26917993030E+04  0.26917993030E+04  0.00000000000E+00 0.  1.
         -2   -1    0    0    0  501 -0.00000000000E+00 -0.00000000000E+00 -0.43764757318E+03  0.43764757318E+03  0.00000000000E+00 0. -1.
         25    1    1    2    0    0 -0.25428988604E+03  0.14966263677E+03 -0.35412402282E+03  0.47758881323E+03  0.12500000000E+03 0.  0.
         21    1    1    2  502  503  0.28289149453E+03 -0.10486364592E+03  0.10450396272E+04  0.10877186237E+04  0.00000000000E+00 0.  1.
         21    1    1    2  503  501 -0.28601608494E+02 -0.44798990851E+02  0.15632361255E+04  0.15641394393E+04  0.00000000000E+00 0.  1.
<mgrwt>
<rscale>  4 0.14045722E+04</rscale>
<asrwt>0</asrwt>
<pdfrwt beam="1">  1        2 0.41412296E+00 0.14045722E+04</pdfrwt>
<pdfrwt beam="2">  1       -2 0.67330397E-01 0.14045722E+04</pdfrwt>
<totfact> 0.52716823E+00</totfact>
</mgrwt>
</event>
<event>
 5    0  0.2754780E-002  0.4973824E+03  0.7546771E-02  0.1014464E+00
         -3   -1    0    0    0  501 -0.00000000000E+00  0.00000000000E+00  0.11108329123E+04  0.11108329123E+04  0.00000000000E+00 0. -1.
          3   -1    0    0  502    0  0.00000000000E+00 -0.00000000000E+00 -0.55676526829E+02  0.55676526829E+02  0.00000000000E+00 0.  1.
         25    1    1    2    0    0  0.44424462635E+02 -0.19880432219E+03  0.77502273447E+03  0.81103756408E+03  0.12500000000E+03 0.  0.
         21    1    1    2  502  503 -0.51228452357E+02  0.88344379214E+02  0.93324842340E+02  0.13834236469E+03  0.00000000000E+00 0.  1.
         21    1    1    2  503  501  0.68039897221E+01  0.11045994297E+03  0.18680880866E+03  0.21712951037E+03  0.00000000000E+00 0.  1.
<mgrwt>
<rscale>  4 0.49738242E+03</rscale>
<asrwt>0</asrwt>
<pdfrwt beam="1">  1        3 0.85656203E-02 0.49738242E+03</pdfrwt>
<pdfrwt beam="2">  1       -3 0.17089735E+00 0.49738242E+03</pdfrwt>
<totfact> 0.60039206E+01</totfact>
</mgrwt>
</event>
<event>
 5    0  0.2754780E-002  0.5955437E+03  0.7546771E-02  0.9914695E-01
          2   -1    0    0  503    0  0.00000000000E+00  0.00000000000E+00  0.35803865701E+04  0.35803865701E+04  0.00000000000E+00 0. -1.
         -2   -1    0    0    0  501 -0.00000000000E+00 -0.00000000000E+00 -0.26967010988E+02  0.26967010988E+02  0.00000000000E+00 0.  1.
         25    1    1    2    0    0 -0.17220562596E+03  0.11238806129E+03  0.28920733146E+04  0.29020680404E+04  0.12500000000E+03 0.  0.
         21    1    1    2  502  501 -0.29787584218E+01 -0.21365293515E+02  0.22881922325E+03  0.22983382192E+03  0.00000000000E+00 0. -1.
         21    1    1    2  503  502  0.17518438439E+03 -0.91022767771E+02  0.43252702125E+03  0.47545171879E+03  0.00000000000E+00 0.  1.
<mgrwt>
<rscale>  4 0.59554373E+03</rscale>
<asrwt>0</asrwt>
<pdfrwt beam="1">  1        2 0.55082833E+00 0.59554373E+03</pdfrwt>
<pdfrwt beam="2">  1       -2 0.41487738E-02 0.59554373E+03</pdfrwt>
<totfact> 0.21695315E+02</totfact>
</mgrwt>
</event>
<event>
 5    0  0.2754780E-002  0.6184492E+03  0.7546771E-02  0.9867852E-01
          2   -1    0    0  502    0  0.00000000000E+00  0.00000000000E+00  0.92378605701E+03  0.92378605701E+03  0.00000000000E+00 0.  1.
         -2   -1    0    0    0  501 -0.00000000000E+00 -0.00000000000E+00 -0.12013986939E+03  0.12013986939E+03  0.00000000000E+00 0. -1.
         25    1    1    2    0    0  0.32968687523E+02  0.29976955583E+03  0.33042544887E+03  0.46449402388E+03  0.12500000000E+03 0.  0.
         21    1    1    2  502  503 -0.66215422305E+02 -0.28185429797E+03  0.37197803355E+03  0.47137456961E+03  0.00000000000E+00 0. -1.
         21    1    1    2  503  501  0.33246734782E+02 -0.17915257864E+02  0.10124270521E+03  0.10805733291E+03  0.00000000000E+00 0.  1.
<mgrwt>
<rscale>  4 0.61844917E+03</rscale>
<asrwt>0</asrwt>
<pdfrwt beam="1">  1        2 0.14212093E+00 0.61844917E+03</pdfrwt>
<pdfrwt beam="2">  1       -2 0.18483057E-01 0.61844917E+03</pdfrwt>
<totfact> 0.69789722E+02</totfact>
</mgrwt>
</event>
<event>
 5    0  0.2754780E-002  0.5115467E+03  0.7546771E-02  0.1010808E+00
         -1   -1    0    0    0  501 -0.00000000000E+00  0.00000000000E+00  0.14601483038E+03  0.14601483038E+03  0.00000000000E+00 0. -1.
          1   -1    0    0  503    0  0.00000000000E+00 -0.00000000000E+00 -0.59915027403E+03  0.59915027403E+03  0.00000000000E+00 0.  1.
         25    1    1    2    0    0 -0.15038925996E+03 -0.13817628786E+03 -0.30713681945E+03  0.38944530027E+03  0.12500000000E+03 0.  0.
         21    1    1    2  502  501 -0.16468575689E+02  0.16494298156E+02 -0.14736936644E+03  0.14920122661E+03  0.00000000000E+00 0. -1.
         21    1    1    2  503  502  0.16685783565E+03  0.12168198970E+03  0.13707422456E+01  0.20651857754E+03  0.00000000000E+00 0. -1.
<mgrwt>
<rscale>  4 0.51154672E+03</rscale>
<asrwt>0</asrwt>
<pdfrwt beam="1">  1        1 0.92176964E-01 0.51154672E+03</pdfrwt>
<pdfrwt beam="2">  1       -1 0.22463820E-01 0.51154672E+03</pdfrwt>
<totfact> 0.58392490E+02</totfact>
</mgrwt>
</event>
<event>
 5    0  0.2754780E-002  0.5536987E+03  0.7546771E-02  0.1000641E+00
          1   -1    0    0  503    0  0.00000000000E+00  0.00000000000E+00  0.21027999281E+03  0.21027999281E+03  0.00000000000E+00 0. -1.
         -1   -1    0    0    0  501 -0.00000000000E+00 -0.00000000000E+00 -0.58971526624E+03  0.58971526624E+03  0.00000000000E+00 0.  1.
         25    1    1    2    0    0 -0.95056363061E+02 -0.21624079964E+03 -0.13815104465E+03  0.30084299348E+03  0.12500000000E+03 0.  0.
         21    1    1    2  502  501  0.17659524569E+03  0.21423151827E+03 -0.38135910492E+02  0.28024163126E+03  0.00000000000E+00 0. -1.
         21    1    1    2  503  502 -0.81538882627E+02  0.20092813643E+01 -0.20314831829E+03  0.21891063432E+03  0.00000000000E+00 0.  1.
<mgrwt>
<rscale>  4 0.55369870E+03</rscale>
<asrwt>0</asrwt>
<pdfrwt beam="1">  1        1 0.32350768E-01 0.55369870E+03</pdfrwt>
<pdfrwt beam="2">  1       -1 0.90725426E-01 0.55369870E+03</pdfrwt>
<totfact> 0.16923534E+02</totfact>
</mgrwt>
</event>
<event>
 5    0  0.2754780E-002  0.9700023E+03  0.7546771E-02  0.9342072E-01
         -2   -1    0    0    0  501 -0.00000000000E+00  0.00000000000E+00  0.30558950169E+03  0.30558950169E+03  0.00000000000E+00 0. -1.
          2   -1    0    0  503    0  0.00000000000E+00 -0.00000000000E+00 -0.97155599405E+03  0.97155599405E+03  0.00000000000E+00 0.  1.
         25    1    1    2    0    0 -0.49413030859E+03 -0.75477608699E+02 -0.20551297274E+03  0.55472715207E+03  0.12500000000E+03 0.  0.
         21    1    1    2  502  501  0.49323919089E+02  0.14764023338E+01 -0.19067598922E+03  0.19695776609E+03  0.00000000000E+00 0. -1.
         21    1    1    2  503  502  0.44480638950E+03  0.74001206365E+02 -0.26977753040E+03  0.52546057758E+03  0.00000000000E+00 0. -1.
<mgrwt>
<rscale>  4 0.97000230E+03</rscale>
<asrwt>0</asrwt>
<pdfrwt beam="1">  1        2 0.14947015E+00 0.97000230E+03</pdfrwt>
<pdfrwt beam="2">  1       -2 0.47013770E-01 0.97000230E+03</pdfrwt>
<totfact> 0.11261737E+02</totfact>
</mgrwt>
</event>
<event>
 5    0  0.2754780E-002  0.5513063E+03  0.7546771E-02  0.1001192E+00
          2   -1    0    0  503    0  0.00000000000E+00  0.00000000000E+00  0.20418538109E+04  0.20418538109E+04  0.00000000000E+00 0.  1.
         -2   -1    0    0    0  501 -0.00000000000E+00 -0.00000000000E+00 -0.42979989496E+02  0.42979989496E+02  0.00000000000E+00 0. -1.
         25    1    1    2    0    0  0.22949455415E+03 -0.13331939642E+03  0.92367276815E+03  0.96914302065E+03  0.12500000000E+03 0.  0.
         21    1    1    2  502  501  0.40561841656E+01  0.23891217650E+02  0.24880769584E+03  0.24998502440E+03  0.00000000000E+00 0. -1.
         21    1    1    2  503  502 -0.23355073832E+03  0.10942817877E+03  0.82639335740E+03  0.86570575534E+03  0.00000000000E+00 0. -1.
<mgrwt>
<rscale>  4 0.55130626E+03</rscale>
<asrwt>0</asrwt>
<pdfrwt beam="1">  1        2 0.31413128E+00 0.55130626E+03</pdfrwt>
<pdfrwt beam="2">  1       -2 0.66123077E-02 0.55130626E+03</pdfrwt>
<totfact> 0.87556074E+02</totfact>
</mgrwt>
</event>
<event>
 5    0  0.2754780E-002  0.6148782E+03  0.7546771E-02  0.9875010E-01
          2   -1    0    0  502    0  0.00000000000E+00  0.00000000000E+00  0.19492212768E+04  0.19492212768E+04  0.00000000000E+00 0. -1.
         -2   -1    0    0    0  501 -0.00000000000E+00 -0.00000000000E+00 -0.48490542780E+02  0.48490542780E+02  0.00000000000E+00 0.  1.
         25    1    1    2    0    0 -0.20709154731E+03 -0.51978058847E+02  0.34169030516E+03  0.42186003865E+03  0.12500000000E+03 0.  0.
         21    1    1    2  502  503  0.12686704027E+03  0.70259674018E+02  0.10966583940E+04  0.11062058130E+04  0.00000000000E+00 0. -1.
         21    1    1    2  503  501  0.80224507044E+02 -0.18281615171E+02  0.46238203494E+03  0.46964596796E+03  0.00000000000E+00 0.  1.
<mgrwt>
<rscale>  4 0.61487819E+03</rscale>
<asrwt>0</asrwt>
<pdfrwt beam="1">  1        2 0.29988013E+00 0.61487819E+03</pdfrwt>
<pdfrwt beam="2">  1       -2 0.74600850E-02 0.61487819E+03</pdfrwt>
<totfact> 0.80857378E+02</totfact>
</mgrwt>
</event>
<event>
 5    0  0.2754780E-002  0.4844234E+03  0.7546771E-02  0.1017927E+00
          2   -1    0    0  503    0  0.00000000000E+00  0.00000000000E+00  0.79824465692E+03  0.79824465692E+03  0.00000000000E+00 0. -1.
         -2   -1    0    0    0  501 -0.00000000000E+00 -0.00000000000E+00 -0.10947773521E+03  0.10947773521E+03  0.00000000000E+00 0.  1.
         25    1    1    2    0    0 -0.13684243255E+03  0.15744171108E+03  0.30511042003E+03  0.39016805628E+03  0.12500000000E+03 0.  0.
         21    1    1    2  502  501 -0.21701423855E+02  0.23290272821E+01  0.25966017877E+03  0.26057587111E+03  0.00000000000E+00 0.  1.
         21    1    1    2  503  502  0.15854385641E+03 -0.15977073837E+03  0.12399632291E+03  0.25697846473E+03  0.00000000000E+00 0. -1.
<mgrwt>
<rscale>  4 0.48442339E+03</rscale>
<asrwt>0</asrwt>
<pdfrwt beam="1">  1        2 0.12280687E+00 0.48442339E+03</pdfrwt>
<pdfrwt beam="2">  1       -2 0.16842729E-01 0.48442339E+03</pdfrwt>
<totfact> 0.10006445E+03</totfact>
</mgrwt>
</event>
<event>
 5    0  0.2754780E-002  0.4804088E+03  0.7546771E-02  0.1019023E+00
         -2   -1    0    0    0  501 -0.00000000000E+00  0.00000000000E+00  0.53772128382E+02  0.53772128382E+02  0.00000000000E+00 0.  1.
          2   -1    0    0  502    0  0.00000000000E+00 -0.00000000000E+00 -0.10730124424E+04  0.10730124424E+04  0.00000000000E+00 0. -1.
         25    1    1    2    0    0 -0.15936945376E+03 -0.15035526283E+03 -0.62450079405E+03  0.67352176626E+03  0.12500000000E+03 0.  0.
         21    1    1    2  502  503  0.14724906078E+03  0.12239439731E+03 -0.32602892121E+03  0.37809725186E+03  0.00000000000E+00 0.  1.
         21    1    1    2  503  501  0.12120392975E+02  0.27960865521E+02 -0.68710598769E+02  0.75165552680E+02  0.00000000000E+00 0.  1.
<mgrwt>
<rscale>  4 0.48040884E+03</rscale>
<asrwt>0</asrwt>
<pdfrwt beam="1">  1        2 0.16507884E+00 0.48040884E+03</pdfrwt>
<pdfrwt beam="2">  1       -2 0.82726352E-02 0.48040884E+03</pdfrwt>
<totfact> 0.21264229E+03</totfact>
</mgrwt>
</event>
<event>
 5    0  0.2754780E-002  0.7044723E+03  0.7546771E-02  0.9709614E-01
          2   -1    0    0  503    0  0.00000000000E+00  0.00000000000E+00  0.92339238330E+03  0.92339238330E+03  0.00000000000E+00 0. -1.
         -2   -1    0    0    0  501 -0.00000000000E+00 -0.00000000000E+00 -0.15969002909E+03  0.15969002909E+03  0.00000000000E+00 0.  1.
         25    1    1    2    0    0  0.23038086550E+03  0.24047629737E+03  0.43929074835E+03  0.56524822367E+03  0.12500000000E+03 0.  0.
         21    1    1    2  502  501  0.26408483921E+02 -0.33224563903E+02  0.12560920006E+03  0.13258563575E+03  0.00000000000E+00 0. -1.
         21    1    1    2  503  502 -0.25678934942E+03 -0.20725173347E+03  0.19880240582E+03  0.38524855296E+03  0.00000000000E+00 0.  1.
<mgrwt>
<rscale>  4 0.70447232E+03</rscale>
<asrwt>0</asrwt>
<pdfrwt beam="1">  1        2 0.14206036E+00 0.70447232E+03</pdfrwt>
<pdfrwt beam="2">  1       -2 0.24567697E-01 0.70447232E+03</pdfrwt>
<totfact> 0.42161585E+02</totfact>
</mgrwt>
</event>
<event>
 5    0  0.2754780E-002  0.4925742E+03  0.7546771E-02  0.1015736E+00
         -1   -1    0    0    0  501 -0.00000000000E+00  0.00000000000E+00  0.52014227635E+03  0.52014227635E+03  0.00000000000E+00 0. -1.
          1   -1    0    0  502    0  0.00000000000E+00 -0.00000000000E+00 -0.15052319604E+03  0.15052319604E+03  0.00000000000E+00 0.  1.
         25    1    1    2    0    0  0.22837524091E+03  0.51070116209E+02  0.18512105754E+03  0.32350921683E+03  0.12500000000E+03 0.  0.
         21    1    1    2  502  503 -0.20976670253E+03 -0.83071653711E+02  0.20499880367E+03  0.30484008701E+03  0.00000000000E+00 0.  1.
         21    1    1    2  503  501 -0.18608538375E+02  0.32001537502E+02 -0.20500780910E+02  0.42316168551E+02  0.00000000000E+00 0.  1.
<mgrwt>
<rscale>  4 0.49257420E+03</rscale>
<asrwt>0</asrwt>
<pdfrwt beam="1">  1        1 0.23157415E-01 0.49257420E+03</pdfrwt>
<pdfrwt beam="2">  1       -1 0.80021888E-01 0.49257420E+03</pdfrwt>
<totfact> 0.34265864E+02</totfact>
</mgrwt>
</event>
<event>
 5    0  0.2754780E-002  0.5866191E+03  0.7546771E-02  0.9933563E-01
         -2   -1    0    0    0  501 -0.00000000000E+00  0.00000000000E+00  0.11010809124E+03  0.11010809124E+03  0.00000000000E+00 0. -1.
          2   -1    0    0  502    0  0.00000000000E+00 -0.00000000000E+00 -0.19936847316E+04  0.19936847316E+04  0.00000000000E+00 0.  1.
         25    1    1    2    0    0  0.73890912475E+02  0.20832617307E+03 -0.16520295867E+03  0.30294666014E+03  0.12500000000E+03 0.  0.
         21    1    1    2  502  503 -0.12698627595E+03 -0.26965536820E+03 -0.51721434705E+03  0.59695076235E+03  0.00000000000E+00 0.  1.
         21    1    1    2  503  501  0.53095363475E+02  0.61329195126E+02 -0.12011593346E+04  0.12038954003E+04  0.00000000000E+00 0.  1.
<mgrwt>
<rscale>  4 0.58661912E+03</rscale>
<asrwt>0</asrwt>
<pdfrwt beam="1">  1        2 0.30672071E+00 0.58661912E+03</pdfrwt>
<pdfrwt beam="2">  1       -2 0.16939707E-01 0.58661912E+03</pdfrwt>
<totfact> 0.19961138E+02</totfact>
</mgrwt>
</event>
<event>
 5    0  0.2754780E-002  0.4860994E+03  0.7546771E-02  0.1017472E+00
          2   -1    0    0  503    0  0.00000000000E+00  0.00000000000E+00  0.25363313226E+03  0.25363313226E+03  0.00000000000E+00 0.  1.
         -2   -1    0    0    0  501 -0.00000000000E+00 -0.00000000000E+00 -0.28156018414E+03  0.28156018414E+03  0.00000000000E+00 0. -1.
         25    1    1    2    0    0  0.25136279367E+02  0.22073455014E+03  0.84938626027E+02  0.26869154128E+03  0.12500000000E+03 0.  0.
         21    1    1    2  502  501 -0.25721350895E+02 -0.39092687259E+02  0.91508300300E+01  0.47681902010E+02  0.00000000000E+00 0.  1.
         21    1    1    2  503  502  0.58507152796E+00 -0.18164186288E+03 -0.12201650793E+03  0.21881987311E+03  0.00000000000E+00 0. -1.
<mgrwt>
<rscale>  4 0.48609938E+03</rscale>
<asrwt>0</asrwt>
<pdfrwt beam="1">  1        2 0.39020482E-01 0.48609938E+03</pdfrwt>
<pdfrwt beam="2">  1       -2 0.43316951E-01 0.48609938E+03</pdfrwt>
<totfact> 0.67318203E+02</totfact>
</mgrwt>
</event>
<event>
 5    0  0.2754780E-002  0.5284218E+03  0.7546771E-02  0.1006616E+00
         -4   -1    0    0    0  501 -0.00000000000E+00  0.00000000000E+00  0.55963371043E+03  0.55963371043E+03  0.00000000000E+00 0.  1.
          4   -1    0    0  502    0  0.00000000000E+00 -0.00000000000E+00 -0.68719267330E+03  0.68719267330E+03  0.00000000000E+00 0. -1.
         25    1    1    2    0    0 -0.22889557515E+03 -0.63925970610E+02  0.68610007909E+02  0.27714986420E+03  0.12500000000E+03 0.  0.
         21    1    1    2  502  503  0.15856414067E+03  0.84546509738E+02  0.36336119221E+03  0.40536656870E+03  0.00000000000E+00 0.  1.
         21    1    1    2  503  501  0.70331434484E+02 -0.20620539129E+02 -0.55953016299E+03  0.56430995083E+03  0.00000000000E+00 0. -1.
<mgrwt>
<rscale>  4 0.52842177E+03</rscale>
<asrwt>0</asrwt>
<pdfrwt beam="1">  1        4 0.10572195E+00 0.52842177E+03</pdfrwt>
<pdfrwt beam="2">  1       -4 0.86097495E-01 0.52842177E+03</pdfrwt>
<totfact> 0.16529730E+00</totfact>
</mgrwt>
</event>
<event>
 5    0  0.2754780E-002  0.4523067E+03  0.7546771E-02  0.1027036E+00
          2   -1    0    0  503    0  0.00000000000E+00  0.00000000000E+00  0.96183760353E+03  0.96183760353E+03  0.00000000000E+00 0.  1.
         -2   -1    0    0    0  501 -0.00000000000E+00 -0.00000000000E+00 -0.68557401505E+02  0.68557401505E+02  0.00000000000E+00 0. -1.
         25    1    1    2    0    0 -0.48823208256E+02 -0.19697478802E+03  0.29624979920E+03  0.38022587538E+03  0.12500000000E+03 0.  0.
         21    1    1    2  502  501  0.20231359186E+02 -0.85456790330E+01  0.20892362648E+03  0.21007479198E+03  0.00000000000E+00 0.  1.
         21    1    1    2  503  502  0.28591849070E+02  0.20552046705E+03  0.38810677634E+03  0.44009433767E+03  0.00000000000E+00 0.  1.
<mgrwt>
<rscale>  4 0.45230668E+03</rscale>
<asrwt>0</asrwt>
<pdfrwt beam="1">  1        2 0.14797501E+00 0.45230668E+03</pdfrwt>
<pdfrwt beam="2">  1       -2 0.10547293E-01 0.45230668E+03</pdfrwt>
<totfact> 0.16888096E+03</totfact>
</mgrwt>
</event>
<event>
 5    0  0.2754780E-002  0.7582219E+03  0.7546771E-02  0.9622539E-01
          2   -1    0    0  502    0  0.00000000000E+00  0.00000000000E+00  0.11751618311E+04  0.11751618311E+04  0.00000000000E+00 0.  1.
         -2   -1    0    0    0  501 -0.00000000000E+00 -0.00000000000E+00 -0.17508246653E+03  0.17508246653E+03  0.00000000000E+00 0. -1.
         25    1    1    2    0    0 -0.72075318871E+02  0.30150114374E+03  0.12431591837E+03  0.35661917899E+03  0.12500000000E+03 0.  0.
         21    1    1    2  502  503  0.44589365213E+02 -0.20293339359E+03  0.86629105397E+03  0.89085934014E+03  0.00000000000E+00 0. -1.
         21    1    1    2  503  501  0.27485953658E+02 -0.98567750142E+02  0.94723922249E+01  0.10276577850E+03  0.00000000000E+00 0. -1.
<mgrwt>
<rscale>  4 0.75822192E+03</rscale>
<asrwt>0</asrwt>
<pdfrwt beam="1">  1        2 0.18079412E+00 0.75822192E+03</pdfrwt>
<pdfrwt beam="2">  1       -2 0.26935765E-01 0.75822192E+03</pdfrwt>
<totfact> 0.24763044E+02</totfact>
</mgrwt>
</event>
<event>
 5    0  0.2754780E-002  0.8169959E+03  0.7546771E-02  0.9535737E-01
         -2   -1    0    0    0  501 -0.00000000000E+00  0.00000000000E+00  0.65093273712E+02  0.65093273712E+02  0.00000000000E+00 0. -1.
          2   -1    0    0  503    0  0.00000000000E+00 -0.00000000000E+00 -0.31564606172E+04  0.31564606172E+04  0.00000000000E+00 0.  1.
         25    1    1    2    0    0 -0.21309961044E+03 -0.35057481533E+03 -0.11429577871E+04  0.12207750195E+04  0.12500000000E+03 0.  0.
         21    1    1    2  502  501  0.76398371069E+01  0.31443091051E+02 -0.57438462229E+03  0.57529534102E+03  0.00000000000E+00 0. -1.
         21    1    1    2  503  502  0.20545977333E+03  0.31913172428E+03 -0.13740249341E+04  0.14254835304E+04  0.00000000000E+00 0. -1.
<mgrwt>
<rscale>  4 0.81699590E+03</rscale>
<asrwt>0</asrwt>
<pdfrwt beam="1">  1        2 0.48560934E+00 0.81699590E+03</pdfrwt>
<pdfrwt beam="2">  1       -2 0.10014350E-01 0.81699590E+03</pdfrwt>
<totfact> 0.99737424E+01</totfact>
</mgrwt>
</event>
<event>
 5    0  0.2754780E-002  0.5313324E+03  0.7546771E-02  0.1005910E+00
         -1   -1    0    0    0  501 -0.00000000000E+00  0.00000000000E+00  0.30214455848E+02  0.30214455848E+02  0.00000000000E+00 0.  1.
          1   -1    0    0  503    0  0.00000000000E+00 -0.00000000000E+00 -0.31503184245E+04  0.31503184245E+04  0.00000000000E+00 0. -1.
         25    1    1    2    0    0 -0.13103410842E+03 -0.16529437258E+03 -0.22166266129E+04  0.22301458940E+04  0.12500000000E+03 0.  0.
         21    1    1    2  502  501 -0.51423639941E+02  0.22641287185E+02 -0.10615717238E+03  0.12010979926E+03  0.00000000000E+00 0.  1.
         21    1    1    2  503  502  0.18245774836E+03  0.14265308539E+03 -0.79732018331E+03  0.83027718710E+03  0.00000000000E+00 0.  1.
<mgrwt>
<rscale>  4 0.53133242E+03</rscale>
<asrwt>0</asrwt>
<pdfrwt beam="1">  1        1 0.48466394E+00 0.53133242E+03</pdfrwt>
<pdfrwt beam="2">  1       -1 0.46483820E-02 0.53133242E+03</pdfrwt>
<totfact> 0.10520738E+02</totfact>
</mgrwt>
</event>
<event>
 5    0  0.2754780E-002  0.5394817E+03  0.7546771E-02  0.1003958E+00
          2   -1    0    0  502    0  0.00000000000E+00  0.00000000000E+00  0.28362692560E+04  0.28362692560E+04  0.00000000000E+00 0. -1.
         -2   -1    0    0    0  501 -0.00000000000E+00 -0.00000000000E+00 -0.25653466937E+02  0.25653466937E+02  0.00000000000E+00 0.  1.
         25    1    1    2    0    0 -0.24065561817E+03  0.25613673411E+02  0.13866512910E+04  0.14131517929E+04  0.12500000000E+03 0.  0.
         21    1    1    2  502  503  0.12917776822E+03 -0.47401885390E+01  0.44915488981E+03  0.46738579378E+03  0.00000000000E+00 0.  1.
         21    1    1    2  503  501  0.11147784995E+03 -0.20873484872E+02  0.97480960826E+03  0.98138513631E+03  0.00000000000E+00 0.  1.
<mgrwt>
<rscale>  4 0.53948175E+03</rscale>
<asrwt>0</asrwt>
<pdfrwt beam="1">  1        2 0.43634887E+00 0.53948175E+03</pdfrwt>
<pdfrwt beam="2">  1       -2 0.39466895E-02 0.53948175E+03</pdfrwt>
<totfact> 0.70068998E+02</totfact>
</mgrwt>
</event>
<event>
 5    0  0.2754780E-002  0.6041814E+03  0.7546771E-02  0.9896769E-01
         -2   -1    0    0    0  501 -0.00000000000E+00  0.00000000000E+00  0.86850067943E+02  0.86850067943E+02  0.00000000000E+00 0.  1.
          2   -1    0    0  503    0  0.00000000000E+00 -0.00000000000E+00 -0.18972443689E+04  0.18972443689E+04  0.00000000000E+00 0. -1.
         25    1    1    2    0    0 -0.25374233612E+03 -0.77207521106E+02 -0.64209816676E+03  0.70587621451E+03  0.12500000000E+03 0.  0.
         21    1    1    2  502  501 -0.20644878315E+02 -0.10698860602E+02 -0.84438193695E+03  0.84470203745E+03  0.00000000000E+00 0. -1.
         21    1    1    2  503  502  0.27438721444E+03  0.87906381708E+02 -0.32391419729E+03  0.43351618493E+03  0.00000000000E+00 0. -1.
<mgrwt>
<rscale>  4 0.60418139E+03</rscale>
<asrwt>0</asrwt>
<pdfrwt beam="1">  1        2 0.29188372E+00 0.60418139E+03</pdfrwt>
<pdfrwt beam="2">  1       -2 0.13361550E-01 0.60418139E+03</pdfrwt>
<totfact> 0.33518063E+02</totfact>
</mgrwt>
</event>
<event>
 5    0  0.2754780E-002  0.4035783E+03  0.7546771E-02  0.1042548E+00
          2   -1    0    0  503    0  0.00000000000E+00  0.00000000000E+00  0.14887034090E+04  0.14887034090E+04  0.00000000000E+00 0. -1.
         -2   -1    0    0    0  501 -0.00000000000E+00 -0.00000000000E+00 -0.48357249456E+02  0.48357249456E+02  0.00000000000E+00 0.  1.
         25    1    1    2    0    0  0.18360025294E+03 -0.92379244039E+02  0.43641234996E+03  0.49832089742E+03  0.12500000000E+03 0.  0.
         21    1    1    2  502  501 -0.30530360052E+02  0.44946778107E+02  0.62442358360E+03  0.62678315828E+03  0.00000000000E+00 0.  1.
         21    1    1    2  503  502 -0.15306989288E+03  0.47432465932E+02  0.37951022602E+03  0.41195660279E+03  0.00000000000E+00 0. -1.
<mgrwt>
<rscale>  4 0.40357834E+03</rscale>
<asrwt>0</asrwt>
<pdfrwt beam="1">  1        2 0.22903126E+00 0.40357834E+03</pdfrwt>
<pdfrwt beam="2">  1       -2 0.74395780E-02 0.40357834E+03</pdfrwt>
<totfact> 0.14583509E+03</totfact>
</mgrwt>
</event>
<event>
 5    0  0.2754780E-002  0.6496432E+03  0.7546771E-02  0.9807449E-01
         -1   -1    0    0    0  501 -0.00000000000E+00  0.00000000000E+00  0.15908668159E+04  0.15908668159E+04  0.00000000000E+00 0.  1.
          1   -1    0    0  502    0  0.00000000000E+00 -0.00000000000E+00 -0.10577848444E+03  0.10577848444E+03  0.00000000000E+00 0. -1.
         25    1    1    2    0    0 -0.10326165638E+02  0.27798484072E+03  0.48134572195E+03  0.56982532886E+03  0.12500000000E+03 0.  0.
         21    1    1    2  502  503  0.81041339030E+01 -0.30744667757E+03  0.10374027856E+04  0.10820321974E+04  0.00000000000E+00 0. -1.
         21    1    1    2  503  501  0.22220317349E+01  0.29461836842E+02 -0.33660176100E+02  0.44787774116E+02  0.00000000000E+00 0.  1.
<mgrwt>
<rscale>  4 0.64964318E+03</rscale>
<asrwt>0</asrwt>
<pdfrwt beam="1">  1        1 0.16273614E-01 0.64964318E+03</pdfrwt>
<pdfrwt beam="2">  1       -1 0.24474872E+00 0.64964318E+03</pdfrwt>
<totfact> 0.27133640E+01</totfact>
</mgrwt>
</event>
<event>
 5    0  0.2754780E-002  0.4664913E+03  0.7546771E-02  0.1022915E+00
         -2   -1    0    0    0  501 -0.00000000000E+00  0.00000000000E+00  0.10542917805E+03  0.10542917805E+03  0.00000000000E+00 0. -1.
          2   -1    0    0  502    0  0.00000000000E+00 -0.00000000000E+00 -0.14058180555E+04  0.14058180555E+04  0.00000000000E+00 0.  1.
         25    1    1    2    0    0  0.12613049016E+03  0.17408717671E+03 -0.22273035508E+03  0.33383986688E+03  0.12500000000E+03 0.  0.
         21    1    1    2  502  503 -0.65746302556E+02 -0.20765423640E+03 -0.19591059665E+03  0.29295702769E+03  0.00000000000E+00 0.  1.
         21    1    1    2  503  501 -0.60384187602E+02  0.33567059691E+02 -0.88174792568E+03  0.88445033894E+03  0.00000000000E+00 0.  1.
<mgrwt>
<rscale>  4 0.46649127E+03</rscale>
<asrwt>0</asrwt>
<pdfrwt beam="1">  1        2 0.21627970E+00 0.46649127E+03</pdfrwt>
<pdfrwt beam="2">  1       -2 0.16219873E-01 0.46649127E+03</pdfrwt>
<totfact> 0.45374585E+02</totfact>
</mgrwt>
</event>
<event>
 5    0  0.2754780E-002  0.4850676E+03  0.7546771E-02  0.1017752E+00
          1   -1    0    0  502    0  0.00000000000E+00  0.00000000000E+00  0.50338084488E+03  0.50338084488E+03  0.00000000000E+00 0.  1.
         -1   -1    0    0    0  501 -0.00000000000E+00 -0.00000000000E+00 -0.11685514458E+03  0.11685514458E+03  0.00000000000E+00 0. -1.
         25    1    1    2    0    0  0.19646293503E+03 -0.46727686239E+02  0.10454278444E+03  0.25949056877E+03  0.12500000000E+03 0.  0.
         21    1    1    2  502  503 -0.85665989875E+02  0.72349180870E+01  0.47030977027E+02  0.97994482810E+02  0.00000000000E+00 0.  1.
         21    1    1    2  503  501 -0.11079694516E+03  0.39492768152E+02  0.23495193883E+03  0.26275093787E+03  0.00000000000E+00 0.  1.
<mgrwt>
<rscale>  4 0.48506759E+03</rscale>
<asrwt>0</asrwt>
<pdfrwt beam="1">  1        1 0.77443206E-01 0.48506759E+03</pdfrwt>
<pdfrwt beam="2">  1       -1 0.17977715E-01 0.48506759E+03</pdfrwt>
<totfact> 0.10758610E+03</totfact>
</mgrwt>
</event>
<event>
 5    0  0.2754780E-002  0.6887124E+03  0.7546771E-02  0.9736733E-01
         -2   -1    0    0    0  501 -0.00000000000E+00  0.00000000000E+00  0.15577735724E+03  0.15577735724E+03  0.00000000000E+00 0.  1.
          2   -1    0    0  502    0  0.00000000000E+00 -0.00000000000E+00 -0.83915088849E+03  0.83915088849E+03  0.00000000000E+00 0. -1.
         25    1    1    2    0    0  0.26787992202E+03 -0.14802575288E+02 -0.61010583707E+03  0.67810980032E+03  0.12500000000E+03 0.  0.
         21    1    1    2  502  503 -0.24623804179E+03  0.73585799892E+01 -0.67138024276E+01  0.24643943894E+03  0.00000000000E+00 0.  1.
         21    1    1    2  503  501 -0.21641880235E+02  0.74439952986E+01 -0.66553891747E+02  0.70379006477E+02  0.00000000000E+00 0.  1.
<mgrwt>
<rscale>  4 0.68871244E+03</rscale>
<asrwt>0</asrwt>
<pdfrwt beam="1">  1        2 0.12910014E+00 0.68871244E+03</pdfrwt>
<pdfrwt beam="2">  1       -2 0.23965747E-01 0.68871244E+03</pdfrwt>
<totfact> 0.50319746E+02</totfact>
</mgrwt>
</event>
<event>
 5    0  0.2754780E-002  0.5298642E+03  0.7546771E-02  0.1006265E+00
         -1   -1    0    0    0  501 -0.00000000000E+00  0.00000000000E+00  0.62418578664E+03  0.62418578664E+03  0.00000000000E+00 0.  1.
          1   -1    0    0  503    0  0.00000000000E+00 -0.00000000000E+00 -0.18396051945E+03  0.18396051945E+03  0.00000000000E+00 0. -1.
         25    1    1    2    0    0  0.22515196870E+03  0.70773035180E+02  0.20282528006E+03  0.33535850332E+03  0.12500000000E+03 0.  0.
         21    1    1    2  502  501  0.17773993028E+02  0.11030113168E+02 -0.69698543085E+02  0.72769946632E+02  0.00000000000E+00 0.  1.
         21    1    1    2  503  502 -0.24292596173E+03 -0.81803148348E+02  0.30709853022E+03  0.40001785613E+03  0.00000000000E+00 0. -1.
<mgrwt>
<rscale>  4 0.52986423E+03</rscale>
<asrwt>0</asrwt>
<pdfrwt beam="1">  1        1 0.28301619E-01 0.52986423E+03</pdfrwt>
<pdfrwt beam="2">  1       -1 0.96028582E-01 0.52986423E+03</pdfrwt>
<totfact> 0.17760008E+02</totfact>
</mgrwt>
</event>
<event>
 5    0  0.2754780E-002  0.6802985E+03  0.7546771E-02  0.9751530E-01
          1   -1    0    0  502    0  0.00000000000E+00  0.00000000000E+00  0.15952130338E+04  0.15952130338E+04  0.00000000000E+00 0.  1.
         -1   -1    0    0    0  501 -0.00000000000E+00 -0.00000000000E+00 -0.14289268077E+03  0.14289268077E+03  0.00000000000E+00 0. -1.
         25    1    1    2    0    0 -0.12083060388E+03 -0.25321108276E+03  0.31139778322E+03  0.43738937648E+03  0.12500000000E+03 0.  0.
         21    1    1    2  502  503  0.44416750590E+02  0.45005700830E+02 -0.55363861117E+02  0.84044737836E+02  0.00000000000E+00 0. -1.
         21    1    1    2  503  501  0.76413853290E+02  0.20820538193E+03  0.11962864310E+04  0.12166716003E+04  0.00000000000E+00 0.  1.
<mgrwt>
<rscale>  4 0.68029848E+03</rscale>
<asrwt>0</asrwt>
<pdfrwt beam="1">  1        1 0.24541738E+00 0.68029848E+03</pdfrwt>
<pdfrwt beam="2">  1       -1 0.21983490E-01 0.68029848E+03</pdfrwt>
<totfact> 0.10104155E+02</totfact>
</mgrwt>
</event>
<event>
 5    0  0.2754780E-002  0.7155833E+03  0.7546771E-02  0.9690948E-01
          3   -1    0    0  502    0  0.00000000000E+00  0.00000000000E+00  0.47311895471E+03  0.47311895471E+03  0.00000000000E+00 0.  1.
         -3   -1    0    0    0  501 -0.00000000000E+00 -0.00000000000E+00 -0.32539710900E+03  0.32539710900E+03  0.00000000000E+00 0. -1.
         25    1    1    2    0    0 -0.19967209513E+03  0.29353561678E+03  0.61127563406E+02  0.38130523586E+03  0.12500000000E+03 0.  0.
         21    1    1    2  502  503  0.13976156669E+03 -0.30897063928E+03  0.43669410825E+02  0.34191105408E+03  0.00000000000E+00 0.  1.
         21    1    1    2  503  501  0.59910528437E+02  0.15435022500E+02  0.42924871481E+02  0.75299773764E+02  0.00000000000E+00 0. -1.
<mgrwt>
<rscale>  4 0.71558326E+03</rscale>
<asrwt>0</asrwt>
<pdfrwt beam="1">  1        3 0.72787532E-01 0.71558326E+03</pdfrwt>
<pdfrwt beam="2">  1       -3 0.50061093E-01 0.71558326E+03</pdfrwt>
<totfact> 0.18663606E+01</totfact>
</mgrwt>
</event>
<event>
 5    0  0.2754780E-002  0.6554793E+03  0.7546771E-02  0.9796552E-01
         -2   -1    0    0    0  501 -0.00000000000E+00  0.00000000000E+00  0.82411694733E+02  0.82411694733E+02  0.00000000000E+00 0.  1.
          2   -1    0    0  502    0  0.00000000000E+00 -0.00000000000E+00 -0.14418860239E+04  0.14418860239E+04  0.00000000000E+00 0. -1.
         25    1    1    2    0    0  0.13854776106E+02  0.28074803103E+03 -0.91287087685E+03  0.96331181325E+03  0.12500000000E+03 0.  0.
         21    1    1    2  502  503  0.80841659351E+01 -0.30574007332E+03 -0.39445692654E+03  0.49913786980E+03  0.00000000000E+00 0.  1.
         21    1    1    2  503  501 -0.21938942041E+02  0.24992042286E+02 -0.52146525803E+02  0.61848035610E+02  0.00000000000E+00 0. -1.
<mgrwt>
<rscale>  4 0.65547928E+03</rscale>
<asrwt>0</asrwt>
<pdfrwt beam="1">  1        2 0.22182860E+00 0.65547928E+03</pdfrwt>
<pdfrwt beam="2">  1       -2 0.12678724E-01 0.65547928E+03</pdfrwt>
<totfact> 0.64635955E+02</totfact>
</mgrwt>
</event>
<event>
 5    0  0.2754780E-002  0.4775697E+03  0.7546771E-02  0.1019805E+00
         -1   -1    0    0    0  501 -0.00000000000E+00  0.00000000000E+00  0.29978629416E+03  0.29978629416E+03  0.00000000000E+00 0.  1.
          1   -1    0    0  502    0  0.00000000000E+00 -0.00000000000E+00 -0.23741434399E+03  0.23741434399E+03  0.00000000000E+00 0. -1.
         25    1    1    2    0    0  0.22798426443E+03 -0.26298320619E+02 -0.13216860636E+02  0.26166412040E+03  0.12500000000E+03 0.  0.
         21    1    1    2  502  503 -0.19792594106E+03  0.74909268658E+00  0.10710075026E+03  0.22504623968E+03  0.00000000000E+00 0. -1.
         21    1    1    2  503  501 -0.30058323372E+02  0.25549227932E+02 -0.31511939457E+02  0.50490278077E+02  0.00000000000E+00 0.  1.
<mgrwt>
<rscale>  4 0.47756967E+03</rscale>
<asrwt>0</asrwt>
<pdfrwt beam="1">  1        1 0.36525284E-01 0.47756967E+03</pdfrwt>
<pdfrwt beam="2">  1       -1 0.46120968E-01 0.47756967E+03</pdfrwt>
<totfact> 0.56247305E+02</totfact>
</mgrwt>
</event>
<event>
 5    0  0.2754780E-002  0.4926914E+03  0.7546771E-02  0.1015704E+00
          2   -1    0    0  503    0  0.00000000000E+00  0.00000000000E+00  0.51833932956E+03  0.51833932956E+03  0.00000000000E+00 0. -1.
         -2   -1    0    0    0  501 -0.00000000000E+00 -0.00000000000E+00 -0.15549812719E+03  0.15549812719E+03  0.00000000000E+00 0.  1.
         25    1    1    2    0    0 -0.58859002646E+02 -0.23105974145E+03  0.25890440972E+03  0.37350967817E+03  0.12500000000E+03 0.  0.
         21    1    1    2  502  501  0.70135756577E+02  0.26673780042E+02  0.44224071965E+02  0.87099273438E+02  0.00000000000E+00 0. -1.
         21    1    1    2  503  502 -0.11276753931E+02  0.20438596141E+03  0.59712720685E+02  0.21322850516E+03  0.00000000000E+00 0. -1.
<mgrwt>
<rscale>  4 0.49269140E+03</rscale>
<asrwt>0</asrwt>
<pdfrwt beam="1">  1        2 0.79744512E-01 0.49269140E+03</pdfrwt>
<pdfrwt beam="2">  1       -2 0.23922789E-01 0.49269140E+03</pdfrwt>
<totfact> 0.92021869E+02</totfact>
</mgrwt>
</event>
<event>
 5    0  0.2754780E-002  0.6424183E+03  0.7546771E-02  0.9821111E-01
          2   -1    0    0  503    0  0.00000000000E+00  0.00000000000E+00  0.77642038864E+03  0.77642038864E+03  0.00000000000E+00 0.  1.
         -2   -1    0    0    0  501 -0.00000000000E+00 -0.00000000000E+00 -0.30429539919E+03  0.30429539919E+03  0.00000000000E+00 0. -1.
         25    1    1    2    0    0 -0.11021414438E+03  0.31059441896E+03 -0.50329106379E+02  0.35605346461E+03  0.12500000000E+03 0.  0.
         21    1    1    2  502  501 -0.10970266795E+01 -0.61058541695E+02  0.43280841728E+03  0.43709549878E+03  0.00000000000E+00 0.  1.
         21    1    1    2  503  502  0.11131117106E+03 -0.24953587726E+03  0.89645678543E+02  0.28756682445E+03  0.00000000000E+00 0.  1.
<mgrwt>
<rscale>  4 0.64241831E+03</rscale>
<asrwt>0</asrwt>
<pdfrwt beam="1">  1        2 0.11944929E+00 0.64241831E+03</pdfrwt>
<pdfrwt beam="2">  1       -2 0.46814677E-01 0.64241831E+03</pdfrwt>
<totfact> 0.15768437E+02</totfact>
</mgrwt>
</event>
<event>
 5    0  0.2754780E-002  0.5203220E+03  0.7546771E-02  0.1008607E+00
          2   -1    0    0  502    0  0.00000000000E+00  0.00000000000E+00  0.29434451288E+03  0.29434451288E+03  0.00000000000E+00 0. -1.
         -2   -1    0    0    0  501 -0.00000000000E+00 -0.00000000000E+00 -0.28624261945E+03  0.28624261945E+03  0.00000000000E+00 0.  1.
         25    1    1    2    0    0 -0.81522429623E+02  0.22625405159E+03  0.35091141293E+02  0.27330054993E+03  0.12500000000E+03 0.  0.
         21    1    1    2  502  503  0.10002616346E+03 -0.21328729590E+03 -0.80700262708E+02  0.24901653835E+03  0.00000000000E+00 0. -1.
         21    1    1    2  503  501 -0.18503733835E+02 -0.12966755690E+02  0.53711014842E+02  0.58270044056E+02  0.00000000000E+00 0. -1.
<mgrwt>
<rscale>  4 0.52032197E+03</rscale>
<asrwt>0</asrwt>
<pdfrwt beam="1">  1        2 0.45283771E-01 0.52032197E+03</pdfrwt>
<pdfrwt beam="2">  1       -2 0.44037326E-01 0.52032197E+03</pdfrwt>
<totfact> 0.55296744E+02</totfact>
</mgrwt>
</event>
<event>
 5    0  0.2754780E-002  0.7123169E+03  0.7546771E-02  0.9696397E-01
         -1   -1    0    0    0  501 -0.00000000000E+00  0.00000000000E+00  0.14570033841E+03  0.14570033841E+03  0.00000000000E+00 0.  1.
          1   -1    0    0  503    0  0.00000000000E+00 -0.00000000000E+00 -0.87061463712E+03  0.87061463712E+03  0.00000000000E+00 0. -1.
         25    1    1    2    0    0 -0.19079915959E+03  0.10990396497E+03  0.34145455634E+01  0.25321899600E+03  0.12500000000E+03 0.  0.
         21    1    1    2  502  501  0.14357909584E+02 -0.30061854194E+02 -0.13024795287E+03  0.13444104237E+03  0.00000000000E+00 0. -1.
         21    1    1    2  503  502  0.17644125000E+03 -0.79842110774E+02 -0.59808089140E+03  0.62865493716E+03  0.00000000000E+00 0. -1.
<mgrwt>
<rscale>  4 0.71231692E+03</rscale>
<asrwt>0</asrwt>
<pdfrwt beam="1">  1        1 0.13394071E+00 0.71231692E+03</pdfrwt>
<pdfrwt beam="2">  1       -1 0.22415437E-01 0.71231692E+03</pdfrwt>
<totfact> 0.32842826E+02</totfact>
</mgrwt>
</event>
<event>
 5    0  0.2754780E-002  0.4684921E+03  0.7546771E-02  0.1022347E+00
         -1   -1    0    0    0  501 -0.00000000000E+00  0.00000000000E+00  0.61779175332E+02  0.61779175332E+02  0.00000000000E+00 0. -1.
          1   -1    0    0  503    0  0.00000000000E+00 -0.00000000000E+00 -0.10889270618E+04  0.10889270618E+04  0.00000000000E+00 0.  1.
         25    1    1    2    0    0 -0.89428490018E+02  0.20890046028E+03 -0.40701033367E+03  0.48261710377E+03  0.12500000000E+03 0.  0.
         21    1    1    2  502  501  0.87967926736E+01 -0.19784902067E+02 -0.19126330548E+03  0.19248500703E+03  0.00000000000E+00 0. -1.
         21    1    1    2  503  502  0.80631697344E+02 -0.18911555821E+03 -0.42887424736E+03  0.47560412637E+03  0.00000000000E+00 0. -1.
<mgrwt>
<rscale>  4 0.46849215E+03</rscale>
<asrwt>0</asrwt>
<pdfrwt beam="1">  1        1 0.16752723E+00 0.46849215E+03</pdfrwt>
<pdfrwt beam="2">  1       -1 0.95044893E-02 0.46849215E+03</pdfrwt>
<totfact> 0.90046779E+02</totfact>
</mgrwt>
</event>
<event>
 5    0  0.2754780E-002  0.5918413E+03  0.7546771E-02  0.9922479E-01
          2   -1    0    0  502    0  0.00000000000E+00  0.00000000000E+00  0.16907747601E+04  0.16907747601E+04  0.00000000000E+00 0.  1.
         -2   -1    0    0    0  501 -0.00000000000E+00 -0.00000000000E+00 -0.92968782831E+02  0.92968782831E+02  0.00000000000E+00 0. -1.
         25    1    1    2    0    0  0.24183144902E+03 -0.79607688642E+02  0.48638955242E+03  0.56304496315E+03  0.12500000000E+03 0.  0.
         21    1    1    2  502  503 -0.27384546290E+03  0.12970843534E+03  0.37607564061E+03  0.48295807604E+03  0.00000000000E+00 0.  1.
         21    1    1    2  503  501  0.32014013882E+02 -0.50100746694E+02  0.73534078423E+03  0.73774050374E+03  0.00000000000E+00 0.  1.
<mgrwt>
<rscale>  4 0.59184132E+03</rscale>
<asrwt>0</asrwt>
<pdfrwt beam="1">  1        2 0.26011917E+00 0.59184132E+03</pdfrwt>
<pdfrwt beam="2">  1       -2 0.14302891E-01 0.59184132E+03</pdfrwt>
<totfact> 0.38740035E+02</totfact>
</mgrwt>
</event>
<event>
 5    0  0.2754780E-002  0.4660568E+03  0.7546771E-02  0.1023039E+00
          2   -1    0    0  502    0  0.00000000000E+00  0.00000000000E+00  0.34514246922E+04  0.34514246922E+04  0.00000000000E+00 0. -1.
         -2   -1    0    0    0  501 -0.00000000000E+00 -0.00000000000E+00 -0.23868139951E+02  0.23868139951E+02  0.00000000000E+00 0.  1.
         25    1    1    2    0    0 -0.16292548242E+03 -0.18407086548E+03  0.20152133359E+04  0.20339952275E+04  0.12500000000E+03 0.  0.
         21    1    1    2  502  503  0.48121463257E+02  0.32566892327E+02  0.10326461563E+03  0.11848990903E+03  0.00000000000E+00 0.  1.
         21    1    1    2  503  501  0.11480401916E+03  0.15150397315E+03  0.13090786007E+04  0.13228076955E+04  0.00000000000E+00 0. -1.
<mgrwt>
<rscale>  4 0.46605685E+03</rscale>
<asrwt>0</asrwt>
<pdfrwt beam="1">  1        2 0.53098802E+00 0.46605685E+03</pdfrwt>
<pdfrwt beam="2">  1       -2 0.36720243E-02 0.46605685E+03</pdfrwt>
<totfact> 0.32674168E+02</totfact>
</mgrwt>
</event>
<event>
 5    0  0.2754780E-002  0.9674221E+03  0.7546771E-02  0.9345015E-01
          2   -1    0    0  502    0  0.00000000000E+00  0.00000000000E+00  0.12352436465E+04  0.12352436465E+04  0.00000000000E+00 0.  1.
         -2   -1    0    0    0  501 -0.00000000000E+00 -0.00000000000E+00 -0.91737886931E+03  0.91737886931E+03  0.00000000000E+00 0. -1.
         25    1    1    2    0    0 -0.28826481110E+03  0.47258486404E+02  0.92066216787E+02  0.33080380005E+03  0.12500000000E+03 0.  0.
         21    1    1    2  502  503  0.36278461464E+03 -0.95022467931E+02 -0.75183984566E+03  0.84018158725E+03  0.00000000000E+00 0. -1.
         21    1    1    2  503  501 -0.74519803537E+02  0.47763981527E+02  0.97763840605E+03  0.98163712849E+03  0.00000000000E+00 0.  1.
<mgrwt>
<rscale>  4 0.96742211E+03</rscale>
<asrwt>0</asrwt>
<pdfrwt beam="1">  1        2 0.19003748E+00 0.96742211E+03</pdfrwt>
<pdfrwt beam="2">  1       -2 0.14113521E+00 0.96742211E+03</pdfrwt>
<totfact> 0.63155825E+00</totfact>
</mgrwt>
</event>
<event>
 5    0  0.2754780E-002  0.5817635E+03  0.7546771E-02  0.9943980E-01
         -1   -1    0    0    0  501 -0.00000000000E+00  0.00000000000E+00  0.19456831554E+03  0.19456831554E+03  0.00000000000E+00 0.  1.
          1   -1    0    0  503    0  0.00000000000E+00 -0.00000000000E+00 -0.43487134678E+03  0.43487134678E+03  0.00000000000E+00 0. -1.
         25    1    1    2    0    0 -0.23720990188E+03 -0.10618167743E+03 -0.36210791744E+02  0.29065324290E+03  0.12500000000E+03 0.  0.
         21    1    1    2  502  501  0.22009620634E+02  0.11109368497E+02 -0.54958546804E+02  0.60235233341E+02  0.00000000000E+00 0. -1.
         21    1    1    2  503  502  0.21520028124E+03  0.95072308935E+02 -0.14913369269E+03  0.27855118608E+03  0.00000000000E+00 0. -1.
<mgrwt>
<rscale>  4 0.58176348E+03</rscale>
<asrwt>0</asrwt>
<pdfrwt beam="1">  1        1 0.66903283E-01 0.58176348E+03</pdfrwt>
<pdfrwt beam="2">  1       -1 0.29933587E-01 0.58176348E+03</pdfrwt>
<totfact> 0.55475647E+02</totfact>
</mgrwt>
</event>
<event>
 5    0  0.2754780E-002  0.4669613E+03  0.7546771E-02  0.1022781E+00
         -2   -1    0    0    0  501 -0.00000000000E+00  0.00000000000E+00  0.54776560807E+02  0.54776560807E+02  0.00000000000E+00 0. -1.
          2   -1    0    0  502    0  0.00000000000E+00 -0.00000000000E+00 -0.99519244040E+03  0.99519244040E+03  0.00000000000E+00 0.  1.
         25    1    1    2    0    0  0.21115831467E+03  0.17596037499E+02 -0.47773793108E+03  0.53736020060E+03  0.12500000000E+03 0.  0.
         21    1    1    2  502  503 -0.10631000438E+03  0.78239640652E+01 -0.29030742237E+03  0.30925948801E+03  0.00000000000E+00 0. -1.
         21    1    1    2  503  501 -0.10484831029E+03 -0.25420001564E+02 -0.17237052615E+03  0.20334931260E+03  0.00000000000E+00 0.  1.
<mgrwt>
<rscale>  4 0.46696132E+03</rscale>
<asrwt>0</asrwt>
<pdfrwt beam="1">  1        2 0.15310653E+00 0.46696132E+03</pdfrwt>
<pdfrwt beam="2">  1       -2 0.84271633E-02 0.46696132E+03</pdfrwt>
<totfact> 0.23066416E+03</totfact>
</mgrwt>
</event>
<event>
 5    0  0.2754780E-002  0.6346469E+03  0.7546771E-02  0.9836022E-01
          2   -1    0    0  502    0  0.00000000000E+00  0.00000000000E+00  0.15196893768E+03  0.15196893768E+03  0.00000000000E+00 0.  1.
         -2   -1    0    0    0  501 -0.00000000000E+00 -0.00000000000E+00 -0.66259716677E+03  0.66259716677E+03  0.00000000000E+00 0. -1.
         25    1    1    2    0    0  0.95760708939E+02  0.19821885897E+03 -0.52678716236E+03  0.58445747822E+03  0.12500000000E+03 0.  0.
         21    1    1    2  502  503 -0.76750166113E+02 -0.18633753137E+03 -0.15644606533E+01  0.20153091856E+03  0.00000000000E+00 0. -1.
         21    1    1    2  503  501 -0.19010542826E+02 -0.11881327591E+02  0.17723393917E+02  0.28577707672E+02  0.00000000000E+00 0.  1.
<mgrwt>
<rscale>  4 0.63464695E+03</rscale>
<asrwt>0</asrwt>
<pdfrwt beam="1">  1        2 0.23379837E-01 0.63464695E+03</pdfrwt>
<pdfrwt beam="2">  1       -2 0.10193802E+00 0.63464695E+03</pdfrwt>
<totfact> 0.18904690E+02</totfact>
</mgrwt>
</event>
<event>
 5    0  0.2754780E-002  0.5584687E+03  0.7546771E-02  0.9995526E-01
          2   -1    0    0  503    0  0.00000000000E+00  0.00000000000E+00  0.38307598276E+04  0.38307598276E+04  0.00000000000E+00 0. -1.
         -2   -1    0    0    0  501 -0.00000000000E+00 -0.00000000000E+00 -0.39987008191E+02  0.39987008191E+02  0.00000000000E+00 0.  1.
         25    1    1    2    0    0 -0.18958700256E+03  0.16700474659E+03  0.11806090050E+04  0.12137942328E+04  0.12500000000E+03 0.  0.
         21    1    1    2  502  501  0.66668749517E+01  0.25669499372E+02  0.18761565887E+04  0.18763440291E+04  0.00000000000E+00 0. -1.
         21    1    1    2  503  502  0.18292012761E+03 -0.19267424596E+03  0.73400722578E+03  0.78060857389E+03  0.00000000000E+00 0.  1.
<mgrwt>
<rscale>  4 0.55846866E+03</rscale>
<asrwt>0</asrwt>
<pdfrwt beam="1">  1        2 0.58934738E+00 0.55846866E+03</pdfrwt>
<pdfrwt beam="2">  1       -2 0.61518504E-02 0.55846866E+03</pdfrwt>
<totfact> 0.78454223E+01</totfact>
</mgrwt>
</event>
<event>
 5    0  0.2754780E-002  0.7905522E+03  0.7546771E-02  0.9573794E-01
         -1   -1    0    0    0  501 -0.00000000000E+00  0.00000000000E+00  0.16365566264E+03  0.16365566264E+03  0.00000000000E+00 0. -1.
          1   -1    0    0  503    0  0.00000000000E+00 -0.00000000000E+00 -0.10750938717E+04  0.10750938717E+04  0.00000000000E+00 0.  1.
         25    1    1    2    0    0  0.18272357035E+03 -0.17438976536E+03 -0.10368511727E+02  0.28201453767E+03  0.12500000000E+03 0.  0.
         21    1    1    2  502  501  0.17807772906E+02  0.43519034372E+02 -0.36239752654E+02  0.59366175563E+02  0.00000000000E+00 0. -1.
         21    1    1    2  503  502 -0.20053134326E+03  0.13087073098E+03 -0.86482994463E+03  0.89736882105E+03  0.00000000000E+00 0.  1.
<mgrwt>
<rscale>  4 0.79055219E+03</rscale>
<asrwt>0</asrwt>
<pdfrwt beam="1">  1        1 0.16539905E+00 0.79055219E+03</pdfrwt>
<pdfrwt beam="2">  1       -1 0.25177795E-01 0.79055219E+03</pdfrwt>
<totfact> 0.18538346E+02</totfact>
</mgrwt>
</event>
<event>
 5    0  0.2754780E-002  0.1462296E+04  0.7546771E-02  0.8909920E-01
         -1   -1    0    0    0  501 -0.00000000000E+00  0.00000000000E+00  0.33041352797E+03  0.33041352797E+03  0.00000000000E+00 0.  1.
          1   -1    0    0  503    0  0.00000000000E+00 -0.00000000000E+00 -0.18325904497E+04  0.18325904497E+04  0.00000000000E+00 0. -1.
         25    1    1    2    0    0  0.52853659069E+03  0.19994717486E+02 -0.12859532676E+04  0.13960843538E+04  0.12500000000E+03 0.  0.
         21    1    1    2  502  501  0.45933400268E+02  0.55108446455E+02 -0.17142522915E+03  0.18583171775E+03  0.00000000000E+00 0. -1.
         21    1    1    2  503  502 -0.57446999096E+03 -0.75103163941E+02 -0.44798424955E+02  0.58108790611E+03  0.00000000000E+00 0.  1.
<mgrwt>
<rscale>  4 0.14622962E+04</rscale>
<asrwt>0</asrwt>
<pdfrwt beam="1">  1        1 0.28193699E+00 0.14622962E+04</pdfrwt>
<pdfrwt beam="2">  1       -1 0.50832852E-01 0.14622962E+04</pdfrwt>
<totfact> 0.14596228E+01</totfact>
</mgrwt>
</event>
<event>
 5    0  0.2754780E-002  0.1040402E+04  0.7546771E-02  0.9265309E-01
         -2   -1    0    0    0  501 -0.00000000000E+00  0.00000000000E+00  0.38764089985E+03  0.38764089985E+03  0.00000000000E+00 0. -1.
          2   -1    0    0  503    0  0.00000000000E+00 -0.00000000000E+00 -0.12892493624E+04  0.12892493624E+04  0.00000000000E+00 0.  1.
         25    1    1    2    0    0  0.39699713431E+03 -0.26359886413E+03  0.70795428365E+02  0.49772289328E+03  0.12500000000E+03 0.  0.
         21    1    1    2  502  501 -0.34530448761E+02  0.20292316023E+01 -0.58973613564E+03  0.59074967571E+03  0.00000000000E+00 0.  1.
         21    1    1    2  503  502 -0.36246668555E+03  0.26156963253E+03 -0.38266775526E+03  0.58841769323E+03  0.00000000000E+00 0.  1.
<mgrwt>
<rscale>  4 0.10404023E+04</rscale>
<asrwt>0</asrwt>
<pdfrwt beam="1">  1        2 0.19834606E+00 0.10404023E+04</pdfrwt>
<pdfrwt beam="2">  1       -2 0.59637062E-01 0.10404023E+04</pdfrwt>
<totfact> 0.43762459E+01</totfact>
</mgrwt>
</event>
<event>
 5    0  0.2754780E-002  0.7384735E+03  0.7546771E-02  0.9653609E-01
         -2   -1    0    0    0  501 -0.00000000000E+00  0.00000000000E+00  0.21456071843E+03  0.21456071843E+03  0.00000000000E+00 0. -1.
          2   -1    0    0  503    0  0.00000000000E+00 -0.00000000000E+00 -0.93276120201E+03  0.93276120201E+03  0.00000000000E+00 0.  1.
         25    1    1    2    0    0 -0.19156934530E+03  0.25252971416E+03 -0.19822823315E+02  0.34130340595E+03  0.12500000000E+03 0.  0.
         21    1    1    2  502  501  0.21885255114E+02  0.93145428660E+01 -0.29544649443E+03  0.29640235521E+03  0.00000000000E+00 0.  1.
         21    1    1    2  503  502  0.16968409019E+03 -0.26184425702E+03 -0.40293116583E+03  0.50961615928E+03  0.00000000000E+00 0.  1.
<mgrwt>
<rscale>  4 0.73847354E+03</rscale>
<asrwt>0</asrwt>
<pdfrwt beam="1">  1        2 0.14350172E+00 0.73847354E+03</pdfrwt>
<pdfrwt beam="2">  1       -2 0.33009342E-01 0.73847354E+03</pdfrwt>
<totfact> 0.24097006E+02</totfact>
</mgrwt>
</event>
<event>
 5    0  0.2754780E-002  0.8809832E+03  0.7546771E-02  0.9449671E-01
          2   -1    0    0  502    0  0.00000000000E+00  0.00000000000E+00  0.32051370322E+03  0.32051370322E+03  0.00000000000E+00 0.  1.
         -2   -1    0    0    0  501 -0.00000000000E+00 -0.00000000000E+00 -0.10730751271E+04  0.10730751271E+04  0.00000000000E+00 0. -1.
         25    1    1    2    0    0 -0.83003060599E+02  0.20545600218E+03 -0.10034354346E+04  0.10351856588E+04  0.12500000000E+03 0.  0.
         21    1    1    2  502  503  0.52338413830E+02 -0.17502927598E+03  0.11509977882E+03  0.21592247706E+03  0.00000000000E+00 0.  1.
         21    1    1    2  503  501  0.30664646768E+02 -0.30426726194E+02  0.13577423191E+03  0.14248069441E+03  0.00000000000E+00 0.  1.
<mgrwt>
<rscale>  4 0.88098316E+03</rscale>
<asrwt>0</asrwt>
<pdfrwt beam="1">  1        2 0.49309801E-01 0.88098316E+03</pdfrwt>
<pdfrwt beam="2">  1       -2 0.16508848E+00 0.88098316E+03</pdfrwt>
<totfact> 0.23665665E+01</totfact>
</mgrwt>
</event>
<event>
 5    0  0.2754780E-002  0.4543783E+03  0.7546771E-02  0.1026424E+00
          2   -1    0    0  503    0  0.00000000000E+00  0.00000000000E+00  0.32186818242E+03  0.32186818242E+03  0.00000000000E+00 0. -1.
         -2   -1    0    0    0  501 -0.00000000000E+00 -0.00000000000E+00 -0.31019679197E+03  0.31019679197E+03  0.00000000000E+00 0.  1.
         25    1    1    2    0    0 -0.19134549934E+03 -0.66367614606E+02 -0.64883313853E+02  0.24668320738E+03  0.12500000000E+03 0.  0.
         21    1    1    2  502  501  0.32378156503E+01 -0.39999869088E+02  0.15144692344E+03  0.15667368508E+03  0.00000000000E+00 0. -1.
         21    1    1    2  503  502  0.18810768369E+03  0.10636748369E+03 -0.74892219133E+02  0.22870808192E+03  0.00000000000E+00 0.  1.
<mgrwt>
<rscale>  4 0.45437834E+03</rscale>
<asrwt>0</asrwt>
<pdfrwt beam="1">  1        2 0.49518182E-01 0.45437834E+03</pdfrwt>
<pdfrwt beam="2">  1       -2 0.47722583E-01 0.45437834E+03</pdfrwt>
<totfact> 0.42759266E+02</totfact>
</mgrwt>
</event>
<event>
 5    0  0.2754780E-002  0.1193060E+04  0.7546771E-02  0.9118953E-01
          2   -1    0    0  502    0  0.00000000000E+00  0.00000000000E+00  0.79244503509E+03  0.79244503509E+03  0.00000000000E+00 0.  1.
         -2   -1    0    0    0  501 -0.00000000000E+00 -0.00000000000E+00 -0.54516481820E+03  0.54516481820E+03  0.00000000000E+00 0. -1.
         25    1    1    2    0    0  0.32461627564E+03  0.84090517405E+02  0.53437801161E+03  0.64314213112E+03  0.12500000000E+03 0.  0.
         21    1    1    2  502  503 -0.34794033069E+03 -0.81323230585E+02 -0.42461797470E+03  0.55495618385E+03  0.00000000000E+00 0. -1.
         21    1    1    2  503  501  0.23324055050E+02 -0.27672868205E+01  0.13752017999E+03  0.13951153832E+03  0.00000000000E+00 0. -1.
<mgrwt>
<rscale>  4 0.11930601E+04</rscale>
<asrwt>0</asrwt>
<pdfrwt beam="1">  1        2 0.12191462E+00 0.11930601E+04</pdfrwt>
<pdfrwt beam="2">  1       -2 0.83871510E-01 0.11930601E+04</pdfrwt>
<totfact> 0.42697838E+01</totfact>
</mgrwt>
</event>
<event>
 5    0  0.2754780E-002  0.4895436E+03  0.7546771E-02  0.1016545E+00
          2   -1    0    0  503    0  0.00000000000E+00  0.00000000000E+00  0.12605686996E+04  0.12605686996E+04  0.00000000000E+00 0.  1.
         -2   -1    0    0    0  501 -0.00000000000E+00 -0.00000000000E+00 -0.54870607626E+02  0.54870607626E+02  0.00000000000E+00 0. -1.
         25    1    1    2    0    0  0.20638754228E+03 -0.23596109533E+02  0.46600503883E+03  0.52529828689E+03  0.12500000000E+03 0.  0.
         21    1    1    2  502  501  0.34280333738E+02 -0.61507760503E+01  0.10927731150E+03  0.11469308669E+03  0.00000000000E+00 0. -1.
         21    1    1    2  503  502 -0.24066787602E+03  0.29746885584E+02  0.63041574169E+03  0.67544793368E+03  0.00000000000E+00 0.  1.
<mgrwt>
<rscale>  4 0.48954362E+03</rscale>
<asrwt>0</asrwt>
<pdfrwt beam="1">  1        2 0.19393362E+00 0.48954362E+03</pdfrwt>
<pdfrwt beam="2">  1       -2 0.84416329E-02 0.48954362E+03</pdfrwt>
<totfact> 0.15959852E+03</totfact>
</mgrwt>
</event>
<event>
 5    0  0.2754780E-002  0.5164824E+03  0.7546771E-02  0.1009564E+00
         -2   -1    0    0    0  501 -0.00000000000E+00  0.00000000000E+00  0.75001568074E+02  0.75001568074E+02  0.00000000000E+00 0.  1.
          2   -1    0    0  503    0  0.00000000000E+00 -0.00000000000E+00 -0.11738869505E+04  0.11738869505E+04  0.00000000000E+00 0. -1.
         25    1    1    2    0    0 -0.50968298021E+02  0.23194343568E+03 -0.28974968709E+03  0.39493721770E+03  0.12500000000E+03 0.  0.
         21    1    1    2  502  501 -0.37554289567E+02 -0.37771281976E+02 -0.24689052009E+03  0.25257063035E+03  0.00000000000E+00 0.  1.
         21    1    1    2  503  502  0.88522587587E+02 -0.19417215370E+03 -0.56224517524E+03  0.60138067051E+03  0.00000000000E+00 0. -1.
<mgrwt>
<rscale>  4 0.51648242E+03</rscale>
<asrwt>0</asrwt>
<pdfrwt beam="1">  1        2 0.18059799E+00 0.51648242E+03</pdfrwt>
<pdfrwt beam="2">  1       -2 0.11538703E-01 0.51648242E+03</pdfrwt>
<totfact> 0.10809670E+03</totfact>
</mgrwt>
</event>
<event>
 5    0  0.2754780E-002  0.4243551E+03  0.7546771E-02  0.1035658E+00
         -2   -1    0    0    0  501 -0.00000000000E+00  0.00000000000E+00  0.10646311246E+03  0.10646311246E+03  0.00000000000E+00 0.  1.
          2   -1    0    0  503    0  0.00000000000E+00 -0.00000000000E+00 -0.75743584208E+03  0.75743584208E+03  0.00000000000E+00 0. -1.
         25    1    1    2    0    0  0.20274584467E+03 -0.10286087703E+03 -0.26731615474E+03  0.37251733401E+03  0.12500000000E+03 0.  0.
         21    1    1    2  502  501 -0.49285492265E+02  0.12792127079E+03 -0.10653297603E+03  0.17361505191E+03  0.00000000000E+00 0. -1.
         21    1    1    2  503  502 -0.15346035241E+03 -0.25060393763E+02 -0.27712359884E+03  0.31776656862E+03  0.00000000000E+00 0. -1.
<mgrwt>
<rscale>  4 0.42435506E+03</rscale>
<asrwt>0</asrwt>
<pdfrwt beam="1">  1        2 0.11652859E+00 0.42435506E+03</pdfrwt>
<pdfrwt beam="2">  1       -2 0.16378940E-01 0.42435506E+03</pdfrwt>
<totfact> 0.11236187E+03</totfact>
</mgrwt>
</event>
<event>
 5    0  0.2754780E-002  0.4384337E+03  0.7546771E-02  0.1031228E+00
          2   -1    0    0  502    0  0.00000000000E+00  0.00000000000E+00  0.11107165650E+03  0.11107165650E+03  0.00000000000E+00 0.  1.
         -2   -1    0    0    0  501 -0.00000000000E+00 -0.00000000000E+00 -0.62415877299E+03  0.62415877299E+03  0.00000000000E+00 0. -1.
         25    1    1    2    0    0  0.76970816035E+02 -0.19528820992E+03 -0.20928681306E+03  0.32169544848E+03  0.12500000000E+03 0.  0.
         21    1    1    2  502  503 -0.60838445381E+02  0.16424849114E+03 -0.32742016340E+03  0.37132579587E+03  0.00000000000E+00 0. -1.
         21    1    1    2  503  501 -0.16132370654E+02  0.31039718781E+02  0.23619859973E+02  0.42209185138E+02  0.00000000000E+00 0. -1.
<mgrwt>
<rscale>  4 0.43843365E+03</rscale>
<asrwt>0</asrwt>
<pdfrwt beam="1">  1        2 0.17087948E-01 0.43843365E+03</pdfrwt>
<pdfrwt beam="2">  1       -2 0.96024423E-01 0.43843365E+03</pdfrwt>
<totfact> 0.31523477E+02</totfact>
</mgrwt>
</event>
<event>
 5    0  0.2754780E-002  0.9427121E+03  0.7546771E-02  0.9373710E-01
          1   -1    0    0  503    0  0.00000000000E+00  0.00000000000E+00  0.40874777478E+04  0.40874777478E+04  0.00000000000E+00 0.  1.
         -1   -1    0    0    0  501 -0.00000000000E+00 -0.00000000000E+00 -0.78707127826E+02  0.78707127826E+02  0.00000000000E+00 0. -1.
         25    1    1    2    0    0  0.30080201544E+03 -0.14669712088E+03  0.41782070566E+03  0.54972815086E+03  0.12500000000E+03 0.  0.
         21    1    1    2  502  501  0.18371731972E+02  0.18501941929E+02  0.12596699245E+04  0.12599397450E+04  0.00000000000E+00 0.  1.
         21    1    1    2  503  502 -0.31917374741E+03  0.12819517895E+03  0.23312799898E+04  0.23565169797E+04  0.00000000000E+00 0.  1.
<mgrwt>
<rscale>  4 0.94271211E+03</rscale>
<asrwt>0</asrwt>
<pdfrwt beam="1">  1        1 0.62884256E+00 0.94271211E+03</pdfrwt>
<pdfrwt beam="2">  1       -1 0.12108792E-01 0.94271211E+03</pdfrwt>
<totfact> 0.39708664E+00</totfact>
</mgrwt>
</event>
<event>
 5    0  0.2754780E-002  0.4972028E+03  0.7546771E-02  0.1014512E+00
         -1   -1    0    0    0  501 -0.00000000000E+00  0.00000000000E+00  0.11669213267E+03  0.11669213267E+03  0.00000000000E+00 0.  1.
          1   -1    0    0  502    0  0.00000000000E+00 -0.00000000000E+00 -0.65099596120E+03  0.65099596120E+03  0.00000000000E+00 0. -1.
         25    1    1    2    0    0 -0.23546031014E+03  0.83958314616E+02 -0.22665033913E+03  0.35984153801E+03  0.12500000000E+03 0.  0.
         21    1    1    2  502  503  0.20977652301E+03 -0.55747668619E+02 -0.20591663172E+03  0.29919166329E+03  0.00000000000E+00 0. -1.
         21    1    1    2  503  501  0.25683787135E+02 -0.28210645996E+02 -0.10173685768E+03  0.10865489257E+03  0.00000000000E+00 0. -1.
<mgrwt>
<rscale>  4 0.49720275E+03</rscale>
<asrwt>0</asrwt>
<pdfrwt beam="1">  1        1 0.10015323E+00 0.49720275E+03</pdfrwt>
<pdfrwt beam="2">  1       -1 0.17952636E-01 0.49720275E+03</pdfrwt>
<totfact> 0.75125566E+02</totfact>
</mgrwt>
</event>
<event>
 5    0  0.2754780E-002  0.4841532E+03  0.7546771E-02  0.1018000E+00
          2   -1    0    0  503    0  0.00000000000E+00  0.00000000000E+00  0.98501107885E+03  0.98501107885E+03  0.00000000000E+00 0. -1.
         -2   -1    0    0    0  501 -0.00000000000E+00 -0.00000000000E+00 -0.82424652121E+02  0.82424652121E+02  0.00000000000E+00 0.  1.
         25    1    1    2    0    0  0.53451369540E+02 -0.19476330271E+03  0.60326326003E+03  0.64833737659E+03  0.12500000000E+03 0.  0.
         21    1    1    2  502  501 -0.23519246657E+02  0.41875415064E+02  0.25162799616E+03  0.25617055607E+03  0.00000000000E+00 0. -1.
         21    1    1    2  503  502 -0.29932122882E+02  0.15288788764E+03  0.47695170548E+02  0.16292779831E+03  0.00000000000E+00 0.  1.
<mgrwt>
<rscale>  4 0.48415318E+03</rscale>
<asrwt>0</asrwt>
<pdfrwt beam="1">  1        2 0.15154016E+00 0.48415318E+03</pdfrwt>
<pdfrwt beam="2">  1       -2 0.12680716E-01 0.48415318E+03</pdfrwt>
<totfact> 0.12075041E+03</totfact>
</mgrwt>
</event>
<event>
 5    0  0.2754780E-002  0.4665061E+03  0.7546771E-02  0.1022911E+00
          2   -1    0    0  502    0  0.00000000000E+00  0.00000000000E+00  0.14632991551E+03  0.14632991551E+03  0.00000000000E+00 0.  1.
         -2   -1    0    0    0  501 -0.00000000000E+00 -0.00000000000E+00 -0.52840385708E+03  0.52840385708E+03  0.00000000000E+00 0. -1.
         25    1    1    2    0    0  0.22652934979E+03 -0.70941571955E+02 -0.15013867503E+03  0.30743271571E+03  0.12500000000E+03 0.  0.
         21    1    1    2  502  503 -0.15298580699E+03  0.11023053283E+03 -0.20757898124E+03  0.28043619767E+03  0.00000000000E+00 0. -1.
         21    1    1    2  503  501 -0.73543542796E+02 -0.39288960871E+02 -0.24356285302E+02  0.86864859219E+02  0.00000000000E+00 0. -1.
<mgrwt>
<rscale>  4 0.46650610E+03</rscale>
<asrwt>0</asrwt>
<pdfrwt beam="1">  1        2 0.22512295E-01 0.46650610E+03</pdfrwt>
<pdfrwt beam="2">  1       -2 0.81292901E-01 0.46650610E+03</pdfrwt>
<totfact> 0.33377938E+02</totfact>
</mgrwt>
</event>
<event>
 5    0  0.2754780E-002  0.6915545E+03  0.7546771E-02  0.9731785E-01
         -2   -1    0    0    0  501 -0.00000000000E+00  0.00000000000E+00  0.68370539180E+02  0.68370539180E+02  0.00000000000E+00 0. -1.
          2   -1    0    0  502    0  0.00000000000E+00 -0.00000000000E+00 -0.17487342469E+04  0.17487342469E+04  0.00000000000E+00 0.  1.
         25    1    1    2    0    0 -0.25600696721E+03 -0.19285871865E+03 -0.88892757103E+03  0.95317956291E+03  0.12500000000E+03 0.  0.
         21    1    1    2  502  503  0.48429304342E+02  0.53634553953E+02 -0.34307556868E+03  0.35060363478E+03  0.00000000000E+00 0.  1.
         21    1    1    2  503  501  0.20757766286E+03  0.13922416470E+03 -0.44836056801E+03  0.51332158838E+03  0.00000000000E+00 0.  1.
<mgrwt>
<rscale>  4 0.69155449E+03</rscale>
<asrwt>0</asrwt>
<pdfrwt beam="1">  1        2 0.26903608E+00 0.69155449E+03</pdfrwt>
<pdfrwt beam="2">  1       -2 0.10518543E-01 0.69155449E+03</pdfrwt>
<totfact> 0.59463087E+02</totfact>
</mgrwt>
</event>
<event>
 5    0  0.2754780E-002  0.6545420E+03  0.7546771E-02  0.9798294E-01
          2   -1    0    0  502    0  0.00000000000E+00  0.00000000000E+00  0.73190568819E+03  0.73190568819E+03  0.00000000000E+00 0. -1.
         -2   -1    0    0    0  501 -0.00000000000E+00 -0.00000000000E+00 -0.24914059573E+03  0.24914059573E+03  0.00000000000E+00 0.  1.
         25    1    1    2    0    0  0.22109124858E+03  0.19329432722E+03  0.24299633788E+03  0.40114368667E+03  0.12500000000E+03 0.  0.
         21    1    1    2  502  503 -0.20793008930E+03 -0.17448430667E+03 -0.61040419480E+02  0.27821866961E+03  0.00000000000E+00 0.  1.
         21    1    1    2  503  501 -0.13161159282E+02 -0.18810020551E+02  0.30080917406E+03  0.30168392763E+03  0.00000000000E+00 0.  1.
<mgrwt>
<rscale>  4 0.65454202E+03</rscale>
<asrwt>0</asrwt>
<pdfrwt beam="1">  1        2 0.11260087E+00 0.65454202E+03</pdfrwt>
<pdfrwt beam="2">  1       -2 0.38329323E-01 0.65454202E+03</pdfrwt>
<totfact> 0.25199492E+02</totfact>
</mgrwt>
</event>
<event>
 5    0  0.2754780E-002  0.4929488E+03  0.7546771E-02  0.1015636E+00
          2   -1    0    0  503    0  0.00000000000E+00  0.00000000000E+00  0.15848536095E+04  0.15848536095E+04  0.00000000000E+00 0.  1.
         -2   -1    0    0    0  501 -0.00000000000E+00 -0.00000000000E+00 -0.34938482860E+03  0.34938482860E+03  0.00000000000E+00 0. -1.
         25    1    1    2    0    0  0.40022530532E+02 -0.20742083578E+03 -0.24306544905E+03  0.34544322050E+03  0.12500000000E+03 0.  0.
         21    1    1    2  502  501  0.29765549526E+02  0.59484954966E+02  0.14098023714E+04  0.14113706722E+04  0.00000000000E+00 0.  1.
         21    1    1    2  503  502 -0.69788080058E+02  0.14793588082E+03  0.68731858549E+02  0.17742454546E+03  0.00000000000E+00 0.  1.
<mgrwt>
<rscale>  4 0.49294878E+03</rscale>
<asrwt>0</asrwt>
<pdfrwt beam="1">  1        2 0.24382363E+00 0.49294878E+03</pdfrwt>
<pdfrwt beam="2">  1       -2 0.53751513E-01 0.49294878E+03</pdfrwt>
<totfact> 0.39350843E+01</totfact>
</mgrwt>
</event>
<event>
 5    0  0.2754780E-002  0.5184550E+03  0.7546771E-02  0.1009071E+00
          1   -1    0    0  502    0  0.00000000000E+00  0.00000000000E+00  0.28616531933E+03  0.28616531933E+03  0.00000000000E+00 0. -1.
         -1   -1    0    0    0  501 -0.00000000000E+00 -0.00000000000E+00 -0.23482543167E+03  0.23482543167E+03  0.00000000000E+00 0.  1.
         25    1    1    2    0    0  0.67609477151E+02  0.22359700932E+03 -0.32065178846E+02  0.26687045485E+03  0.12500000000E+03 0.  0.
         21    1    1    2  502  503 -0.46556979117E+02 -0.19176322584E+03  0.50413295574E+02  0.20367176402E+03  0.00000000000E+00 0. -1.
         21    1    1    2  503  501 -0.21052498034E+02 -0.31833783486E+02  0.32991770929E+02  0.50448532125E+02  0.00000000000E+00 0. -1.
<mgrwt>
<rscale>  4 0.51845499E+03</rscale>
<asrwt>0</asrwt>
<pdfrwt beam="1">  1        1 0.44025434E-01 0.51845499E+03</pdfrwt>
<pdfrwt beam="2">  1       -1 0.36126990E-01 0.51845499E+03</pdfrwt>
<totfact> 0.68867636E+02</totfact>
</mgrwt>
</event>
<event>
 5    0  0.2754780E-002  0.6419423E+03  0.7546771E-02  0.9822018E-01
         -1   -1    0    0    0  501 -0.00000000000E+00  0.00000000000E+00  0.16460797228E+03  0.16460797228E+03  0.00000000000E+00 0.  1.
          1   -1    0    0  502    0  0.00000000000E+00 -0.00000000000E+00 -0.77260012686E+03  0.77260012686E+03  0.00000000000E+00 0. -1.
         25    1    1    2    0    0  0.30515087678E+03 -0.24787679181E+02 -0.12797319284E+03  0.35458937480E+03  0.12500000000E+03 0.  0.
         21    1    1    2  502  503 -0.27848423567E+03  0.18388938885E+02 -0.33969957164E+03  0.43964465374E+03  0.00000000000E+00 0. -1.
         21    1    1    2  503  501 -0.26666641105E+02  0.63987402955E+01 -0.14031939010E+03  0.14297407060E+03  0.00000000000E+00 0. -1.
<mgrwt>
<rscale>  4 0.64194227E+03</rscale>
<asrwt>0</asrwt>
<pdfrwt beam="1">  1        1 0.11886156E+00 0.64194227E+03</pdfrwt>
<pdfrwt beam="2">  1       -1 0.25324303E-01 0.64194227E+03</pdfrwt>
<totfact> 0.32489849E+02</totfact>
</mgrwt>
</event>
<event>
 5    0  0.2754780E-002  0.5177786E+03  0.7546771E-02  0.1009240E+00
          3   -1    0    0  503    0  0.00000000000E+00  0.00000000000E+00  0.36549701196E+03  0.36549701196E+03  0.00000000000E+00 0. -1.
         -3   -1    0    0    0  501 -0.00000000000E+00 -0.00000000000E+00 -0.10210908194E+04  0.10210908194E+04  0.00000000000E+00 0.  1.
         25    1    1    2    0    0 -0.23147800006E+02 -0.23368203790E+03 -0.29704217802E+03  0.39875076301E+03  0.12500000000E+03 0.  0.
         21    1    1    2  502  501  0.81719599029E+01  0.34415316411E+02  0.29874719554E+03  0.30083397710E+03  0.00000000000E+00 0. -1.
         21    1    1    2  503  502  0.14975840104E+02  0.19926672149E+03 -0.65729882492E+03  0.68700309120E+03  0.00000000000E+00 0.  1.
<mgrwt>
<rscale>  4 0.51777860E+03</rscale>
<asrwt>0</asrwt>
<pdfrwt beam="1">  1        3 0.56230310E-01 0.51777860E+03</pdfrwt>
<pdfrwt beam="2">  1       -3 0.15709089E+00 0.51777860E+03</pdfrwt>
<totfact> 0.23366213E+00</totfact>
</mgrwt>
</event>
<event>
 5    0  0.2754780E-002  0.4433428E+03  0.7546771E-02  0.1029726E+00
         -1   -1    0    0    0  501 -0.00000000000E+00  0.00000000000E+00  0.64800984041E+03  0.64800984041E+03  0.00000000000E+00 0.  1.
          1   -1    0    0  503    0  0.00000000000E+00 -0.00000000000E+00 -0.13108121083E+03  0.13108121083E+03  0.00000000000E+00 0. -1.
         25    1    1    2    0    0 -0.20476914688E+03  0.26313851450E+02  0.41159045509E+03  0.47713155944E+03  0.12500000000E+03 0.  0.
         21    1    1    2  502  501  0.26995421559E+02  0.27783934406E+02 -0.47544671344E+02  0.61328586886E+02  0.00000000000E+00 0.  1.
         21    1    1    2  503  502  0.17777372533E+03 -0.54097785856E+02  0.15288284583E+03  0.24063090491E+03  0.00000000000E+00 0. -1.
<mgrwt>
<rscale>  4 0.44334281E+03</rscale>
<asrwt>0</asrwt>
<pdfrwt beam="1">  1        1 0.20166341E-01 0.44334281E+03</pdfrwt>
<pdfrwt beam="2">  1       -1 0.99693820E-01 0.44334281E+03</pdfrwt>
<totfact> 0.25497148E+02</totfact>
</mgrwt>
</event>
<event>
 5    0  0.2754780E-002  0.7418101E+03  0.7546771E-02  0.9648287E-01
         -2   -1    0    0    0  501 -0.00000000000E+00  0.00000000000E+00  0.10401411454E+03  0.10401411454E+03  0.00000000000E+00 0. -1.
          2   -1    0    0  503    0  0.00000000000E+00 -0.00000000000E+00 -0.25627747213E+04  0.25627747213E+04  0.00000000000E+00 0.  1.
         25    1    1    2    0    0  0.23535644528E+03  0.20659924559E+03 -0.26714643422E+03  0.43019544620E+03  0.12500000000E+03 0.  0.
         21    1    1    2  502  501 -0.20822599780E+02 -0.32703285097E+01 -0.12389298507E+04  0.12391091359E+04  0.00000000000E+00 0.  1.
         21    1    1    2  503  502 -0.21453384550E+03 -0.20332891708E+03 -0.95268432189E+03  0.99748425379E+03  0.00000000000E+00 0.  1.
<mgrwt>
<rscale>  4 0.74181012E+03</rscale>
<asrwt>0</asrwt>
<pdfrwt beam="1">  1        2 0.39427304E+00 0.74181012E+03</pdfrwt>
<pdfrwt beam="2">  1       -2 0.16002171E-01 0.74181012E+03</pdfrwt>
<totfact> 0.10456794E+02</totfact>
</mgrwt>
</event>
<event>
 5    0  0.2754780E-002  0.7423650E+03  0.7546771E-02  0.9647405E-01
         -1   -1    0    0    0  501 -0.00000000000E+00  0.00000000000E+00  0.10015305024E+03  0.10015305024E+03  0.00000000000E+00 0. -1.
          1   -1    0    0  503    0  0.00000000000E+00 -0.00000000000E+00 -0.15789273834E+04  0.15789273834E+04  0.00000000000E+00 0.  1.
         25    1    1    2    0    0  0.10405373102E+03 -0.27985918437E+03 -0.31675833889E+03  0.45288981803E+03  0.12500000000E+03 0.  0.
         21    1    1    2  502  501  0.14115217618E+02 -0.44192999470E+02 -0.14980111497E+03  0.15682038967E+03  0.00000000000E+00 0. -1.
         21    1    1    2  503  502 -0.11816894864E+03  0.32405218384E+03 -0.10122148793E+04  0.10693702260E+04  0.00000000000E+00 0.  1.
<mgrwt>
<rscale>  4 0.74236502E+03</rscale>
<asrwt>0</asrwt>
<pdfrwt beam="1">  1        1 0.24291189E+00 0.74236502E+03</pdfrwt>
<pdfrwt beam="2">  1       -1 0.15408163E-01 0.74236502E+03</pdfrwt>
<totfact> 0.18546133E+02</totfact>
</mgrwt>
</event>
<event>
 5    0  0.2754780E-002  0.4521066E+03  0.7546771E-02  0.1027096E+00
          2   -1    0    0  502    0  0.00000000000E+00  0.00000000000E+00  0.29063664628E+03  0.29063664628E+03  0.00000000000E+00 0. -1.
         -2   -1    0    0    0  501 -0.00000000000E+00 -0.00000000000E+00 -0.22741304776E+03  0.22741304776E+03  0.00000000000E+00 0.  1.
         25    1    1    2    0    0  0.20209012156E+03 -0.65617646149E+02  0.11633847379E+03  0.27259077974E+03  0.12500000000E+03 0.  0.
         21    1    1    2  502  503 -0.16005544412E+03  0.25070111181E+02 -0.80555988611E+02  0.18092960777E+03  0.00000000000E+00 0.  1.
         21    1    1    2  503  501 -0.42034677440E+02  0.40547534968E+02  0.27441113340E+02  0.64529306526E+02  0.00000000000E+00 0.  1.
<mgrwt>
<rscale>  4 0.45210658E+03</rscale>
<asrwt>0</asrwt>
<pdfrwt beam="1">  1        2 0.44713330E-01 0.45210658E+03</pdfrwt>
<pdfrwt beam="2">  1       -2 0.34986623E-01 0.45210658E+03</pdfrwt>
<totfact> 0.87436693E+02</totfact>
</mgrwt>
</event>
<event>
 5    0  0.2754780E-002  0.1049300E+04  0.7546771E-02  0.9256067E-01
          2   -1    0    0  502    0  0.00000000000E+00  0.00000000000E+00  0.41131588060E+03  0.41131588060E+03  0.00000000000E+00 0.  1.
         -2   -1    0    0    0  501 -0.00000000000E+00 -0.00000000000E+00 -0.10394697832E+04  0.10394697832E+04  0.00000000000E+00 0. -1.
         25    1    1    2    0    0 -0.39719524743E+03 -0.17821604084E+03 -0.61646696689E+02  0.45711085856E+03  0.12500000000E+03 0.  0.
         21    1    1    2  502  503  0.41785797528E+03  0.18748499960E+03 -0.71191731006E+03  0.84651176539E+03  0.00000000000E+00 0. -1.
         21    1    1    2  503  501 -0.20662727844E+02 -0.92689587556E+01  0.14541010414E+03  0.14716303987E+03  0.00000000000E+00 0.  1.
<mgrwt>
<rscale>  4 0.10493001E+04</rscale>
<asrwt>0</asrwt>
<pdfrwt beam="1">  1        2 0.63279367E-01 0.10493001E+04</pdfrwt>
<pdfrwt beam="2">  1       -2 0.15991843E+00 0.10493001E+04</pdfrwt>
<totfact> 0.19285995E+01</totfact>
</mgrwt>
</event>
<event>
 5    0  0.2754780E-002  0.1647146E+04  0.7546771E-02  0.8792097E-01
          2   -1    0    0  502    0  0.00000000000E+00  0.00000000000E+00  0.12399342715E+04  0.12399342715E+04  0.00000000000E+00 0. -1.
         -2   -1    0    0    0  501 -0.00000000000E+00 -0.00000000000E+00 -0.69253665256E+03  0.69253665256E+03  0.00000000000E+00 0.  1.
         25    1    1    2    0    0  0.17708151599E+03  0.11068022040E+03 -0.54802906556E+03  0.59964058501E+03  0.12500000000E+03 0.  0.
         21    1    1    2  502  503  0.10892182017E+02 -0.18234406319E+03 -0.33846724769E+02  0.18577835662E+03  0.00000000000E+00 0. -1.
         21    1    1    2  503  501 -0.18797369801E+03  0.71663842796E+02  0.11292734093E+04  0.11470519824E+04  0.00000000000E+00 0. -1.
<mgrwt>
<rscale>  4 0.16471460E+04</rscale>
<asrwt>0</asrwt>
<pdfrwt beam="1">  1        2 0.19075912E+00 0.16471460E+04</pdfrwt>
<pdfrwt beam="2">  1       -2 0.10654410E+00 0.16471460E+04</pdfrwt>
<totfact> 0.12092202E+01</totfact>
</mgrwt>
</event>
<event>
 5    0  0.2754780E-002  0.5137516E+03  0.7546771E-02  0.1010251E+00
         -2   -1    0    0    0  501 -0.00000000000E+00  0.00000000000E+00  0.21612177856E+03  0.21612177856E+03  0.00000000000E+00 0.  1.
          2   -1    0    0  502    0  0.00000000000E+00 -0.00000000000E+00 -0.42306618732E+03  0.42306618732E+03  0.00000000000E+00 0. -1.
         25    1    1    2    0    0 -0.65176910357E+02  0.26315837565E+03 -0.11889014050E+03  0.32134129182E+03  0.12500000000E+03 0.  0.
         21    1    1    2  502  503  0.74873681724E+02 -0.19252578766E+03 -0.26425343778E+01  0.20658952083E+03  0.00000000000E+00 0.  1.
         21    1    1    2  503  501 -0.96967713663E+01 -0.70632587993E+02 -0.85411733882E+02  0.11125715324E+03  0.00000000000E+00 0. -1.
<mgrwt>
<rscale>  4 0.51375164E+03</rscale>
<asrwt>0</asrwt>
<pdfrwt beam="1">  1        2 0.65087105E-01 0.51375164E+03</pdfrwt>
<pdfrwt beam="2">  1       -2 0.33249505E-01 0.51375164E+03</pdfrwt>
<totfact> 0.63519343E+02</totfact>
</mgrwt>
</event>
<event>
 5    0  0.2754780E-002  0.4104895E+03  0.7546771E-02  0.1040207E+00
         -2   -1    0    0    0  501 -0.00000000000E+00  0.00000000000E+00  0.17451020146E+03  0.17451020146E+03  0.00000000000E+00 0. -1.
          2   -1    0    0  503    0  0.00000000000E+00 -0.00000000000E+00 -0.52129304983E+03  0.52129304983E+03  0.00000000000E+00 0.  1.
         25    1    1    2    0    0  0.21015907308E+03 -0.44490499678E+02 -0.24685384698E+03  0.35029710579E+03  0.12500000000E+03 0.  0.
         21    1    1    2  502  501 -0.16020424729E+03  0.20116861829E+02 -0.18395188596E+03  0.24476189517E+03  0.00000000000E+00 0.  1.
         21    1    1    2  503  502 -0.49954825783E+02  0.24373637849E+02  0.84022884572E+02  0.10074425032E+03  0.00000000000E+00 0. -1.
<mgrwt>
<rscale>  4 0.41048951E+03</rscale>
<asrwt>0</asrwt>
<pdfrwt beam="1">  1        2 0.80198931E-01 0.41048951E+03</pdfrwt>
<pdfrwt beam="2">  1       -2 0.26847723E-01 0.41048951E+03</pdfrwt>
<totfact> 0.74409540E+02</totfact>
</mgrwt>
</event>
<event>
 5    0  0.2754780E-002  0.7171491E+03  0.7546771E-02  0.9688346E-01
          2   -1    0    0  503    0  0.00000000000E+00  0.00000000000E+00  0.86008112740E+03  0.86008112740E+03  0.00000000000E+00 0.  1.
         -2   -1    0    0    0  501 -0.00000000000E+00 -0.00000000000E+00 -0.19001907930E+03  0.19001907930E+03  0.00000000000E+00 0. -1.
         25    1    1    2    0    0 -0.14959414452E+03 -0.14402688413E+03 -0.74364297975E+02  0.25352948594E+03  0.12500000000E+03 0.  0.
         21    1    1    2  502  501  0.11089982913E+03  0.61489654415E+02  0.66082776113E+03  0.67288415019E+03  0.00000000000E+00 0.  1.
         21    1    1    2  503  502  0.38694315389E+02  0.82537229718E+02  0.83598584949E+02  0.12368657057E+03  0.00000000000E+00 0.  1.
<mgrwt>
<rscale>  4 0.71714910E+03</rscale>
<asrwt>0</asrwt>
<pdfrwt beam="1">  1        2 0.13232017E+00 0.71714910E+03</pdfrwt>
<pdfrwt beam="2">  1       -2 0.29233705E-01 0.71714910E+03</pdfrwt>
<totfact> 0.33871451E+02</totfact>
</mgrwt>
</event>
<event>
 5    0  0.2754780E-002  0.6091202E+03  0.7546771E-02  0.9886663E-01
          2   -1    0    0  502    0  0.00000000000E+00  0.00000000000E+00  0.39513649417E+03  0.39513649417E+03  0.00000000000E+00 0.  1.
         -2   -1    0    0    0  501 -0.00000000000E+00 -0.00000000000E+00 -0.33047278307E+03  0.33047278307E+03  0.00000000000E+00 0. -1.
         25    1    1    2    0    0  0.17895474825E+03 -0.22517093786E+03 -0.65218426633E+02  0.32032045884E+03  0.12500000000E+03 0.  0.
         21    1    1    2  502  503 -0.20704409722E+03  0.20258659970E+03  0.20810527917E+02  0.29041636773E+03  0.00000000000E+00 0. -1.
         21    1    1    2  503  501  0.28089348974E+02  0.22584338162E+02  0.10907160982E+03  0.11487245067E+03  0.00000000000E+00 0.  1.
<mgrwt>
<rscale>  4 0.60912019E+03</rscale>
<asrwt>0</asrwt>
<pdfrwt beam="1">  1        2 0.60790230E-01 0.60912019E+03</pdfrwt>
<pdfrwt beam="2">  1       -2 0.50841967E-01 0.60912019E+03</pdfrwt>
<totfact> 0.29851976E+02</totfact>
</mgrwt>
</event>
<event>
 5    0  0.2754780E-002  0.5299120E+03  0.7546771E-02  0.1006253E+00
         -1   -1    0    0    0  501 -0.00000000000E+00  0.00000000000E+00  0.77592838281E+02  0.77592838281E+02  0.00000000000E+00 0.  1.
          1   -1    0    0  503    0  0.00000000000E+00 -0.00000000000E+00 -0.10642149629E+04  0.10642149629E+04  0.00000000000E+00 0. -1.
         25    1    1    2    0    0  0.16239273686E+03 -0.13024668936E+03 -0.64823613368E+03  0.69222155853E+03  0.12500000000E+03 0.  0.
         21    1    1    2  502  501  0.22887481082E+02 -0.38128084117E+02 -0.66413867330E+02  0.79927400573E+02  0.00000000000E+00 0.  1.
         21    1    1    2  503  502 -0.18528021795E+03  0.16837477348E+03 -0.27197212359E+03  0.36965884206E+03  0.00000000000E+00 0.  1.
<mgrwt>
<rscale>  4 0.52991202E+03</rscale>
<asrwt>0</asrwt>
<pdfrwt beam="1">  1        1 0.16372538E+00 0.52991202E+03</pdfrwt>
<pdfrwt beam="2">  1       -1 0.11937360E-01 0.52991202E+03</pdfrwt>
<totfact> 0.65392785E+02</totfact>
</mgrwt>
</event>
<event>
 5    0  0.2754780E-002  0.7600872E+03  0.7546771E-02  0.9619657E-01
          1   -1    0    0  502    0  0.00000000000E+00  0.00000000000E+00  0.65968356096E+03  0.65968356096E+03  0.00000000000E+00 0.  1.
         -1   -1    0    0    0  501 -0.00000000000E+00 -0.00000000000E+00 -0.25934903842E+03  0.25934903842E+03  0.00000000000E+00 0. -1.
         25    1    1    2    0    0  0.15005748753E+03  0.19156166889E+03  0.44785658561E+03  0.52479866980E+03  0.12500000000E+03 0.  0.
         21    1    1    2  502  503 -0.17932909020E+03 -0.25201698884E+03 -0.80201920959E+02  0.31953690457E+03  0.00000000000E+00 0. -1.
         21    1    1    2  503  501  0.29271602672E+02  0.60455319951E+02  0.32679857887E+02  0.74697025007E+02  0.00000000000E+00 0.  1.
<mgrwt>
<rscale>  4 0.76008724E+03</rscale>
<asrwt>0</asrwt>
<pdfrwt beam="1">  1        1 0.10148978E+00 0.76008724E+03</pdfrwt>
<pdfrwt beam="2">  1       -1 0.39899852E-01 0.76008724E+03</pdfrwt>
<totfact> 0.18473043E+02</totfact>
</mgrwt>
</event>
<event>
 5    0  0.2754780E-002  0.6572880E+03  0.7546771E-02  0.9793199E-01
          2   -1    0    0  502    0  0.00000000000E+00  0.00000000000E+00  0.11620423124E+04  0.11620423124E+04  0.00000000000E+00 0. -1.
         -2   -1    0    0    0  501 -0.00000000000E+00 -0.00000000000E+00 -0.13945287294E+03  0.13945287294E+03  0.00000000000E+00 0.  1.
         25    1    1    2    0    0  0.97754079059E+02  0.19982025311E+03  0.65455771002E+03  0.70253454668E+03  0.12500000000E+03 0.  0.
         21    1    1    2  502  503 -0.12614664863E+03 -0.17454063879E+03 -0.13275584862E+02  0.21576295489E+03  0.00000000000E+00 0.  1.
         21    1    1    2  503  501  0.28392569569E+02 -0.25279614324E+02  0.38130731429E+03  0.38319768376E+03  0.00000000000E+00 0. -1.
<mgrwt>
<rscale>  4 0.65728802E+03</rscale>
<asrwt>0</asrwt>
<pdfrwt beam="1">  1        2 0.17877573E+00 0.65728802E+03</pdfrwt>
<pdfrwt beam="2">  1       -2 0.21454289E-01 0.65728802E+03</pdfrwt>
<totfact> 0.38136991E+02</totfact>
</mgrwt>
</event>
<event>
 5    0  0.2754780E-002  0.4661347E+03  0.7546771E-02  0.1023017E+00
         -2   -1    0    0    0  501 -0.00000000000E+00  0.00000000000E+00  0.19608599498E+03  0.19608599498E+03  0.00000000000E+00 0. -1.
          2   -1    0    0  503    0  0.00000000000E+00 -0.00000000000E+00 -0.27702327308E+03  0.27702327308E+03  0.00000000000E+00 0.  1.
         25    1    1    2    0    0 -0.12008919555E+03  0.16795933519E+03 -0.92089304380E+02  0.25833542759E+03  0.12500000000E+03 0.  0.
         21    1    1    2  502  501  0.92901976669E+01 -0.20349046194E+02 -0.16967462424E+02  0.28076435578E+02  0.00000000000E+00 0. -1.
         21    1    1    2  503  502  0.11079899789E+03 -0.14761028899E+03  0.28119488711E+02  0.18669740489E+03  0.00000000000E+00 0.  1.
<mgrwt>
<rscale>  4 0.46613468E+03</rscale>
<asrwt>0</asrwt>
<pdfrwt beam="1">  1        2 0.42618965E-01 0.46613468E+03</pdfrwt>
<pdfrwt beam="2">  1       -2 0.30167076E-01 0.46613468E+03</pdfrwt>
<totfact> 0.12154717E+03</totfact>
</mgrwt>
</event>
<event>
 5    0  0.2754780E-002  0.6198284E+03  0.7546771E-02  0.9865101E-01
          1   -1    0    0  502    0  0.00000000000E+00  0.00000000000E+00  0.83880064463E+02  0.83880064463E+02  0.00000000000E+00 0.  1.
         -1   -1    0    0    0  501 -0.00000000000E+00 -0.00000000000E+00 -0.12608266492E+04  0.12608266492E+04  0.00000000000E+00 0. -1.
         25    1    1    2    0    0 -0.26034208152E+03  0.12139781053E+03 -0.81002561010E+03  0.86849405112E+03  0.12500000000E+03 0.  0.
         21    1    1    2  502  503  0.25851739836E+03 -0.92451197064E+02 -0.33128038031E+03  0.43026173369E+03  0.00000000000E+00 0. -1.
         21    1    1    2  503  501  0.18246831580E+01 -0.28946613465E+02 -0.35640594350E+02  0.45950928884E+02  0.00000000000E+00 0. -1.
<mgrwt>
<rscale>  4 0.61982838E+03</rscale>
<asrwt>0</asrwt>
<pdfrwt beam="1">  1        1 0.12904626E-01 0.61982838E+03</pdfrwt>
<pdfrwt beam="2">  1       -1 0.19397332E+00 0.61982838E+03</pdfrwt>
<totfact> 0.80787916E+01</totfact>
</mgrwt>
</event>
<event>
 5    0  0.2754780E-002  0.5715294E+03  0.7546771E-02  0.9966300E-01
         -1   -1    0    0    0  501 -0.00000000000E+00  0.00000000000E+00  0.28668351923E+03  0.28668351923E+03  0.00000000000E+00 0. -1.
          1   -1    0    0  502    0  0.00000000000E+00 -0.00000000000E+00 -0.28484882290E+03  0.28484882290E+03  0.00000000000E+00 0.  1.
         25    1    1    2    0    0  0.17288389411E+03 -0.14041894040E+03  0.15204288079E+03  0.29723451560E+03  0.12500000000E+03 0.  0.
         21    1    1    2  502  503 -0.16431754113E+03  0.11557173034E+03 -0.11897723499E+03  0.23347946724E+03  0.00000000000E+00 0.  1.
         21    1    1    2  503  501 -0.85663529757E+01  0.24847210059E+02 -0.31230949460E+02  0.40818359291E+02  0.00000000000E+00 0.  1.
<mgrwt>
<rscale>  4 0.57152940E+03</rscale>
<asrwt>0</asrwt>
<pdfrwt beam="1">  1        1 0.43822896E-01 0.57152940E+03</pdfrwt>
<pdfrwt beam="2">  1       -1 0.44105157E-01 0.57152940E+03</pdfrwt>
<totfact> 0.48249311E+02</totfact>
</mgrwt>
</event>
<event>
 5    0  0.2754780E-002  0.5464111E+03  0.7546771E-02  0.1002328E+00
         -2   -1    0    0    0  501 -0.00000000000E+00  0.00000000000E+00  0.49239382604E+02  0.49239382604E+02  0.00000000000E+00 0. -1.
          2   -1    0    0  503    0  0.00000000000E+00 -0.00000000000E+00 -0.15158854623E+04  0.15158854623E+04  0.00000000000E+00 0.  1.
         25    1    1    2    0    0 -0.32594749431E+02 -0.22602040284E+03 -0.44973832887E+03  0.51965104122E+03  0.12500000000E+03 0.  0.
         21    1    1    2  502  501  0.26563953367E+02  0.25040538545E+02 -0.24973754927E+03  0.25239159198E+03  0.00000000000E+00 0. -1.
         21    1    1    2  503  502  0.60307960644E+01  0.20097986429E+03 -0.76717020157E+03  0.79308221171E+03  0.00000000000E+00 0.  1.
<mgrwt>
<rscale>  4 0.54641107E+03</rscale>
<asrwt>0</asrwt>
<pdfrwt beam="1">  1        2 0.23321313E+00 0.54641107E+03</pdfrwt>
<pdfrwt beam="2">  1       -2 0.75752901E-02 0.54641107E+03</pdfrwt>
<totfact> 0.13616285E+03</totfact>
</mgrwt>
</event>
<event>
 5    0  0.2754780E-002  0.4271572E+03  0.7546771E-02  0.1034762E+00
          1   -1    0    0  502    0  0.00000000000E+00  0.00000000000E+00  0.43995167856E+03  0.43995167856E+03  0.00000000000E+00 0. -1.
         -1   -1    0    0    0  501 -0.00000000000E+00 -0.00000000000E+00 -0.31079074568E+03  0.31079074568E+03  0.00000000000E+00 0.  1.
         25    1    1    2    0    0  0.36876853790E+02  0.21538188514E+03 -0.14500494152E+03  0.29051797166E+03  0.12500000000E+03 0.  0.
         21    1    1    2  502  503 -0.39174577559E+02 -0.16026754008E+03 -0.15165655833E+02  0.16568140828E+03  0.00000000000E+00 0. -1.
         21    1    1    2  503  501  0.22977237684E+01 -0.55114345054E+02  0.28933153023E+03  0.29454304431E+03  0.00000000000E+00 0. -1.
<mgrwt>
<rscale>  4 0.42715718E+03</rscale>
<asrwt>0</asrwt>
<pdfrwt beam="1">  1        1 0.67684874E-01 0.42715718E+03</pdfrwt>
<pdfrwt beam="2">  1       -1 0.47813960E-01 0.42715718E+03</pdfrwt>
<totfact> 0.23776082E+02</totfact>
</mgrwt>
</event>
<event>
 5    0  0.2754780E-002  0.8353246E+03  0.7546771E-02  0.9510248E-01
          2   -1    0    0  503    0  0.00000000000E+00  0.00000000000E+00  0.15797049178E+04  0.15797049178E+04  0.00000000000E+00 0.  1.
         -2   -1    0    0    0  501 -0.00000000000E+00 -0.00000000000E+00 -0.17572231772E+03  0.17572231772E+03  0.00000000000E+00 0. -1.
         25    1    1    2    0    0 -0.47125405943E+02 -0.25956866527E+03  0.87846683809E+03  0.92570280409E+03  0.12500000000E+03 0.  0.
         21    1    1    2  502  501  0.43382467120E+02  0.18596775295E+02  0.58059427906E+03  0.58250973845E+03  0.00000000000E+00 0.  1.
         21    1    1    2  503  502  0.37429388230E+01  0.24097188998E+03 -0.55078517119E+02  0.24721469293E+03  0.00000000000E+00 0. -1.
<mgrwt>
<rscale>  4 0.83532456E+03</rscale>
<asrwt>0</asrwt>
<pdfrwt beam="1">  1        2 0.24303152E+00 0.83532456E+03</pdfrwt>
<pdfrwt beam="2">  1       -2 0.27034204E-01 0.83532456E+03</pdfrwt>
<totfact> 0.14376169E+02</totfact>
</mgrwt>
</event>
<event>
 5    0  0.2754780E-002  0.4835620E+03  0.7546771E-02  0.1018161E+00
          2   -1    0    0  503    0  0.00000000000E+00  0.00000000000E+00  0.19008298104E+03  0.19008298104E+03  0.00000000000E+00 0.  1.
         -2   -1    0    0    0  501 -0.00000000000E+00 -0.00000000000E+00 -0.30753962760E+03  0.30753962760E+03  0.00000000000E+00 0. -1.
         25    1    1    2    0    0  0.16212696455E+03 -0.14091071046E+03 -0.11102288487E+03  0.27219857075E+03  0.12500000000E+03 0.  0.
         21    1    1    2  502  501 -0.75106614565E+01  0.28455951781E+02  0.15012834655E+02  0.33038408431E+02  0.00000000000E+00 0.  1.
         21    1    1    2  503  502 -0.15461630309E+03  0.11245475867E+03 -0.21446596351E+02  0.19238562946E+03  0.00000000000E+00 0.  1.
<mgrwt>
<rscale>  4 0.48356199E+03</rscale>
<asrwt>0</asrwt>
<pdfrwt beam="1">  1        2 0.29243536E-01 0.48356199E+03</pdfrwt>
<pdfrwt beam="2">  1       -2 0.47313789E-01 0.48356199E+03</pdfrwt>
<totfact> 0.77888816E+02</totfact>
</mgrwt>
</event>
<event>
 5    0  0.2754780E-002  0.4927287E+03  0.7546771E-02  0.1015694E+00
         -1   -1    0    0    0  501 -0.00000000000E+00  0.00000000000E+00  0.44831326991E+03  0.44831326991E+03  0.00000000000E+00 0.  1.
          1   -1    0    0  502    0  0.00000000000E+00 -0.00000000000E+00 -0.13538610371E+03  0.13538610371E+03  0.00000000000E+00 0. -1.
         25    1    1    2    0    0 -0.21937009146E+03  0.14432537217E+02  0.20601948303E+03  0.32619099090E+03  0.12500000000E+03 0.  0.
         21    1    1    2  502  503  0.14606821944E+03 -0.33783616695E+02  0.37088390242E+02  0.15444353718E+03  0.00000000000E+00 0. -1.
         21    1    1    2  503  501  0.73301872020E+02  0.19351079478E+02  0.69819292936E+02  0.10306484553E+03  0.00000000000E+00 0. -1.
<mgrwt>
<rscale>  4 0.49272868E+03</rscale>
<asrwt>0</asrwt>
<pdfrwt beam="1">  1        1 0.20828632E-01 0.49272868E+03</pdfrwt>
<pdfrwt beam="2">  1       -1 0.68971271E-01 0.49272868E+03</pdfrwt>
<totfact> 0.53475817E+02</totfact>
</mgrwt>
</event>
<event>
 5    0  0.2754780E-002  0.5572228E+03  0.7546771E-02  0.9998358E-01
         -1   -1    0    0    0  501 -0.00000000000E+00  0.00000000000E+00  0.23222055047E+03  0.23222055047E+03  0.00000000000E+00 0.  1.
          1   -1    0    0  502    0  0.00000000000E+00 -0.00000000000E+00 -0.48784796311E+03  0.48784796311E+03  0.00000000000E+00 0. -1.
         25    1    1    2    0    0 -0.21621049151E+03  0.90477064514E+02  0.50264852805E+02  0.27034169355E+03  0.12500000000E+03 0.  0.
         21    1    1    2  502  503  0.24139455266E+03 -0.74215509733E+02 -0.15594717332E+03  0.29681440801E+03  0.00000000000E+00 0. -1.
         21    1    1    2  503  501 -0.25184061146E+02 -0.16261554780E+02 -0.14994509212E+03  0.15291241203E+03  0.00000000000E+00 0. -1.
<mgrwt>
<rscale>  4 0.55722284E+03</rscale>
<asrwt>0</asrwt>
<pdfrwt beam="1">  1        1 0.75053532E-01 0.55722284E+03</pdfrwt>
<pdfrwt beam="2">  1       -1 0.35726239E-01 0.55722284E+03</pdfrwt>
<totfact> 0.34877627E+02</totfact>
</mgrwt>
</event>
<event>
 5    0  0.2754780E-002  0.5827264E+03  0.7546771E-02  0.9941906E-01
          1   -1    0    0  502    0  0.00000000000E+00  0.00000000000E+00  0.13170158887E+03  0.13170158887E+03  0.00000000000E+00 0.  1.
         -1   -1    0    0    0  501 -0.00000000000E+00 -0.00000000000E+00 -0.92065099834E+03  0.92065099834E+03  0.00000000000E+00 0. -1.
         25    1    1    2    0    0  0.22579185114E+02  0.28314064864E+03 -0.51757287512E+03  0.60347752864E+03  0.12500000000E+03 0.  0.
         21    1    1    2  502  503 -0.32164103260E+02 -0.26413196553E+03 -0.30768834509E+03  0.40678291810E+03  0.00000000000E+00 0.  1.
         21    1    1    2  503  501  0.95849181467E+01 -0.19008683111E+02  0.36311810742E+02  0.42092140464E+02  0.00000000000E+00 0.  1.
<mgrwt>
<rscale>  4 0.58272643E+03</rscale>
<asrwt>0</asrwt>
<pdfrwt beam="1">  1        1 0.20261782E-01 0.58272643E+03</pdfrwt>
<pdfrwt beam="2">  1       -1 0.14163862E+00 0.58272643E+03</pdfrwt>
<totfact> 0.10757589E+02</totfact>
</mgrwt>
</event>
<event>
 5    0  0.2754780E-002  0.7197925E+03  0.7546771E-02  0.9683971E-01
          2   -1    0    0  502    0  0.00000000000E+00  0.00000000000E+00  0.29368444675E+04  0.29368444675E+04  0.00000000000E+00 0. -1.
         -2   -1    0    0    0  501 -0.00000000000E+00 -0.00000000000E+00 -0.77267042372E+02  0.77267042372E+02  0.00000000000E+00 0.  1.
         25    1    1    2    0    0  0.13518091406E+03  0.20769576950E+03  0.10167312643E+04  0.10539349487E+04  0.12500000000E+03 0.  0.
         21    1    1    2  502  503  0.18256187622E+03  0.56275842171E+02  0.10388309606E+04  0.10562507154E+04  0.00000000000E+00 0. -1.
         21    1    1    2  503  501 -0.31774279028E+03 -0.26397161167E+03  0.80401520015E+03  0.90392584575E+03  0.00000000000E+00 0.  1.
<mgrwt>
<rscale>  4 0.71979247E+03</rscale>
<asrwt>0</asrwt>
<pdfrwt beam="1">  1        2 0.45182214E+00 0.71979247E+03</pdfrwt>
<pdfrwt beam="2">  1       -2 0.11887240E-01 0.71979247E+03</pdfrwt>
<totfact> 0.10413837E+02</totfact>
</mgrwt>
</event>
<event>
 5    0  0.2754780E-002  0.5060492E+03  0.7546771E-02  0.1012212E+00
         -1   -1    0    0    0  501 -0.00000000000E+00  0.00000000000E+00  0.40963295711E+03  0.40963295711E+03  0.00000000000E+00 0. -1.
          1   -1    0    0  503    0  0.00000000000E+00 -0.00000000000E+00 -0.19612248832E+03  0.19612248832E+03  0.00000000000E+00 0.  1.
         25    1    1    2    0    0 -0.70234894643E+02 -0.21102574586E+03  0.17053001507E+03  0.30687178411E+03  0.12500000000E+03 0.  0.
         21    1    1    2  502  501 -0.24700341417E+02 -0.14182141081E+02 -0.32384425166E+02  0.43127612792E+02  0.00000000000E+00 0.  1.
         21    1    1    2  503  502  0.94935236060E+02  0.22520788694E+03  0.75364878893E+02  0.25575604853E+03  0.00000000000E+00 0.  1.
<mgrwt>
<rscale>  4 0.50604919E+03</rscale>
<asrwt>0</asrwt>
<pdfrwt beam="1">  1        1 0.30172691E-01 0.50604919E+03</pdfrwt>
<pdfrwt beam="2">  1       -1 0.63020455E-01 0.50604919E+03</pdfrwt>
<totfact> 0.39570538E+02</totfact>
</mgrwt>
</event>
<event>
 5    0  0.2754780E-002  0.8583409E+03  0.7546771E-02  0.9479210E-01
         -1   -1    0    0    0  501 -0.00000000000E+00  0.00000000000E+00  0.19392123551E+03  0.19392123551E+03  0.00000000000E+00 0.  1.
          1   -1    0    0  503    0  0.00000000000E+00 -0.00000000000E+00 -0.17867265485E+04  0.17867265485E+04  0.00000000000E+00 0. -1.
         25    1    1    2    0    0  0.34354010879E+03  0.10855644166E+03 -0.91041451791E+02  0.39206868443E+03  0.12500000000E+03 0.  0.
         21    1    1    2  502  501 -0.37646723099E+01 -0.23813824927E+02 -0.83589603049E+03  0.83624365157E+03  0.00000000000E+00 0. -1.
         21    1    1    2  503  502 -0.33977543648E+03 -0.84742616731E+02 -0.66586783068E+03  0.75233544796E+03  0.00000000000E+00 0.  1.
<mgrwt>
<rscale>  4 0.85834093E+03</rscale>
<asrwt>0</asrwt>
<pdfrwt beam="1">  1        1 0.27488100E+00 0.85834093E+03</pdfrwt>
<pdfrwt beam="2">  1       -1 0.29834037E-01 0.85834093E+03</pdfrwt>
<totfact> 0.43702107E+01</totfact>
</mgrwt>
</event>
<event>
 5    0  0.2754780E-002  0.6140304E+03  0.7546771E-02  0.9876717E-01
          2   -1    0    0  502    0  0.00000000000E+00  0.00000000000E+00  0.63449386118E+03  0.63449386118E+03  0.00000000000E+00 0.  1.
         -2   -1    0    0    0  501 -0.00000000000E+00 -0.00000000000E+00 -0.16364098840E+03  0.16364098840E+03  0.00000000000E+00 0. -1.
         25    1    1    2    0    0  0.13760130684E+03  0.26519870214E+03  0.31013944461E+03  0.44841492656E+03  0.12500000000E+03 0.  0.
         21    1    1    2  502  503 -0.12240831305E+03 -0.24685979220E+03  0.11580655739E+03  0.29888912801E+03  0.00000000000E+00 0. -1.
         21    1    1    2  503  501 -0.15192993795E+02 -0.18338909933E+02  0.44906870778E+02  0.50830795007E+02  0.00000000000E+00 0.  1.
<mgrwt>
<rscale>  4 0.61403042E+03</rscale>
<asrwt>0</asrwt>
<pdfrwt beam="1">  1        2 0.97614439E-01 0.61403042E+03</pdfrwt>
<pdfrwt beam="2">  1       -2 0.25175537E-01 0.61403042E+03</pdfrwt>
<totfact> 0.65977784E+02</totfact>
</mgrwt>
</event>
<event>
 5    0  0.2754780E-002  0.5893214E+03  0.7546771E-02  0.9927812E-01
         -2   -1    0    0    0  501 -0.00000000000E+00  0.00000000000E+00  0.61592092740E+02  0.61592092740E+02  0.00000000000E+00 0.  1.
          2   -1    0    0  502    0  0.00000000000E+00 -0.00000000000E+00 -0.24320051846E+04  0.24320051846E+04  0.00000000000E+00 0. -1.
         25    1    1    2    0    0  0.23069871853E+03  0.59059214375E+02 -0.31330611847E+03  0.41291114469E+03  0.12500000000E+03 0.  0.
         21    1    1    2  502  503 -0.11610495743E+03 -0.13254873600E+03 -0.11697003747E+04  0.11828983452E+04  0.00000000000E+00 0. -1.
         21    1    1    2  503  501 -0.11459376110E+03  0.73489521621E+02 -0.88740659873E+03  0.89778778747E+03  0.00000000000E+00 0. -1.
<mgrwt>
<rscale>  4 0.58932136E+03</rscale>
<asrwt>0</asrwt>
<pdfrwt beam="1">  1        2 0.37415468E+00 0.58932136E+03</pdfrwt>
<pdfrwt beam="2">  1       -2 0.94757057E-02 0.58932136E+03</pdfrwt>
<totfact> 0.30053459E+02</totfact>
</mgrwt>
</event>
<event>
 5    0  0.2754780E-002  0.4655216E+03  0.7546771E-02  0.1023192E+00
          1   -1    0    0  503    0  0.00000000000E+00  0.00000000000E+00  0.78429013429E+03  0.78429013429E+03  0.00000000000E+00 0.  1.
         -1   -1    0    0    0  501 -0.00000000000E+00 -0.00000000000E+00 -0.86895662397E+02  0.86895662397E+02  0.00000000000E+00 0. -1.
         25    1    1    2    0    0 -0.20577762732E+03 -0.29621314195E+01  0.16012112749E+03  0.28916601045E+03  0.12500000000E+03 0.  0.
         21    1    1    2  502  501  0.18887673326E+02  0.10083944595E+02  0.15474005184E+03  0.15621432004E+03  0.00000000000E+00 0. -1.
         21    1    1    2  503  502  0.18688995400E+03 -0.71218131754E+01  0.38253329256E+03  0.42580546620E+03  0.00000000000E+00 0.  1.
<mgrwt>
<rscale>  4 0.46552164E+03</rscale>
<asrwt>0</asrwt>
<pdfrwt beam="1">  1        1 0.12066002E+00 0.46552164E+03</pdfrwt>
<pdfrwt beam="2">  1       -1 0.13368564E-01 0.46552164E+03</pdfrwt>
<totfact> 0.91498861E+02</totfact>
</mgrwt>
</event>
<event>
 5    0  0.2754780E-002  0.5002374E+03  0.7546771E-02  0.1013717E+00
          2   -1    0    0  503    0  0.00000000000E+00  0.00000000000E+00  0.41613436341E+04  0.41613436341E+04  0.00000000000E+00 0.  1.
         -2   -1    0    0    0  501 -0.00000000000E+00 -0.00000000000E+00 -0.16382919823E+02  0.16382919823E+02  0.00000000000E+00 0. -1.
         25    1    1    2    0    0 -0.35236066548E+02  0.22740179265E+03  0.18930225415E+04  0.19110501036E+04  0.12500000000E+03 0.  0.
         21    1    1    2  502  501 -0.20168106857E+02  0.27704509188E+01  0.23853484009E+03  0.23940195878E+03  0.00000000000E+00 0. -1.
         21    1    1    2  503  502  0.55404173405E+02 -0.23017224357E+03  0.20134033327E+04  0.20272744915E+04  0.00000000000E+00 0.  1.
<mgrwt>
<rscale>  4 0.50023745E+03</rscale>
<asrwt>0</asrwt>
<pdfrwt beam="1">  1        2 0.64020587E+00 0.50023745E+03</pdfrwt>
<pdfrwt beam="2">  1       -2 0.25204525E-02 0.50023745E+03</pdfrwt>
<totfact> 0.17193065E+02</totfact>
</mgrwt>
</event>
<event>
 5    0  0.2754780E-002  0.4072299E+03  0.7546771E-02  0.1041305E+00
          2   -1    0    0  502    0  0.00000000000E+00  0.00000000000E+00  0.24270582346E+04  0.24270582346E+04  0.00000000000E+00 0.  1.
         -2   -1    0    0    0  501 -0.00000000000E+00 -0.00000000000E+00 -0.36533286270E+02  0.36533286270E+02  0.00000000000E+00 0. -1.
         25    1    1    2    0    0 -0.22152044901E+03  0.41982324060E+02  0.66661301296E+03  0.71472493584E+03  0.12500000000E+03 0.  0.
         21    1    1    2  502  503  0.14464755108E+03  0.20946054827E+02  0.49985073962E+03  0.52078058062E+03  0.00000000000E+00 0.  1.
         21    1    1    2  503  501  0.76872897933E+02 -0.62928378888E+02  0.12240611957E+04  0.12280860044E+04  0.00000000000E+00 0.  1.
<mgrwt>
<rscale>  4 0.40722990E+03</rscale>
<asrwt>0</asrwt>
<pdfrwt beam="1">  1        2 0.37339345E+00 0.40722990E+03</pdfrwt>
<pdfrwt beam="2">  1       -2 0.56205075E-02 0.40722990E+03</pdfrwt>
<totfact> 0.70537759E+02</totfact>
</mgrwt>
</event>
<event>
 5    0  0.2754780E-002  0.1267027E+04  0.7546771E-02  0.9056130E-01
         -2   -1    0    0    0  501 -0.00000000000E+00  0.00000000000E+00  0.14282134549E+04  0.14282134549E+04  0.00000000000E+00 0. -1.
          2   -1    0    0  503    0  0.00000000000E+00 -0.00000000000E+00 -0.11839971620E+04  0.11839971620E+04  0.00000000000E+00 0.  1.
         25    1    1    2    0    0  0.18885127370E+03 -0.12305764321E+03  0.17728480763E+03  0.31283044952E+03  0.12500000000E+03 0.  0.
         21    1    1    2  502  501 -0.68976557555E+03 -0.50006466376E+02 -0.93674621297E+03  0.11643756539E+04  0.00000000000E+00 0.  1.
         21    1    1    2  503  502  0.50091430185E+03  0.17306410959E+03  0.10036776982E+04  0.11350045135E+04  0.00000000000E+00 0. -1.
<mgrwt>
<rscale>  4 0.12670265E+04</rscale>
<asrwt>0</asrwt>
<pdfrwt beam="1">  1        2 0.18215341E+00 0.12670265E+04</pdfrwt>
<pdfrwt beam="2">  1       -2 0.21972515E+00 0.12670265E+04</pdfrwt>
<totfact> 0.18540896E+00</totfact>
</mgrwt>
</event>
<event>
 5    0  0.2754780E-002  0.3905094E+03  0.7546771E-02  0.1047116E+00
         -1   -1    0    0    0  501 -0.00000000000E+00  0.00000000000E+00  0.59346184739E+02  0.59346184739E+02  0.00000000000E+00 0.  1.
          1   -1    0    0  502    0  0.00000000000E+00 -0.00000000000E+00 -0.11661060423E+04  0.11661060423E+04  0.00000000000E+00 0. -1.
         25    1    1    2    0    0  0.11107714613E+03 -0.17386971585E+03 -0.36395133865E+03  0.43663988296E+03  0.12500000000E+03 0.  0.
         21    1    1    2  502  503 -0.61014187354E+02  0.13602108923E+03 -0.24304370115E+03  0.28512226928E+03  0.00000000000E+00 0. -1.
         21    1    1    2  503  501 -0.50062958779E+02  0.37848626620E+02 -0.49976481779E+03  0.50369007482E+03  0.00000000000E+00 0.  1.
<mgrwt>
<rscale>  4 0.39050944E+03</rscale>
<asrwt>0</asrwt>
<pdfrwt beam="1">  1        1 0.17940094E+00 0.39050944E+03</pdfrwt>
<pdfrwt beam="2">  1       -1 0.91301819E-02 0.39050944E+03</pdfrwt>
<totfact> 0.84538666E+02</totfact>
</mgrwt>
</event>
<event>
 5    0  0.2754780E-002  0.4363457E+03  0.7546771E-02  0.1031874E+00
         -2   -1    0    0    0  501 -0.00000000000E+00  0.00000000000E+00  0.19230483740E+03  0.19230483740E+03  0.00000000000E+00 0.  1.
          2   -1    0    0  502    0  0.00000000000E+00 -0.00000000000E+00 -0.29636469885E+03  0.29636469885E+03  0.00000000000E+00 0. -1.
         25    1    1    2    0    0  0.16189970919E+03  0.12149302899E+03  0.17909506851E+02  0.23857456353E+03  0.12500000000E+03 0.  0.
         21    1    1    2  502  503 -0.15992235761E+03 -0.90159603436E+02 -0.87183093463E+02  0.20323583921E+03  0.00000000000E+00 0. -1.
         21    1    1    2  503  501 -0.19773515826E+01 -0.31333425551E+02 -0.34786274837E+02  0.46859133508E+02  0.00000000000E+00 0.  1.
<mgrwt>
<rscale>  4 0.43634574E+03</rscale>
<asrwt>0</asrwt>
<pdfrwt beam="1">  1        2 0.45594569E-01 0.43634574E+03</pdfrwt>
<pdfrwt beam="2">  1       -2 0.29585359E-01 0.43634574E+03</pdfrwt>
<totfact> 0.11691101E+03</totfact>
</mgrwt>
</event>
<event>
 5    0  0.2754780E-002  0.4230675E+03  0.7546771E-02  0.1036073E+00
         -1   -1    0    0    0  501 -0.00000000000E+00  0.00000000000E+00  0.41695097465E+03  0.41695097465E+03  0.00000000000E+00 0.  1.
          1   -1    0    0  503    0  0.00000000000E+00 -0.00000000000E+00 -0.16504925445E+03  0.16504925445E+03  0.00000000000E+00 0. -1.
         25    1    1    2    0    0 -0.18593075107E+03  0.11549554538E+03  0.18338513532E+03  0.31171232419E+03  0.12500000000E+03 0.  0.
         21    1    1    2  502  501  0.30032672187E+02 -0.97031059394E+02  0.46691386451E+02  0.11179031020E+03  0.00000000000E+00 0.  1.
         21    1    1    2  503  502  0.15589807888E+03 -0.18464485983E+02  0.21825198428E+02  0.15849759471E+03  0.00000000000E+00 0. -1.
<mgrwt>
<rscale>  4 0.42306747E+03</rscale>
<asrwt>0</asrwt>
<pdfrwt beam="1">  1        1 0.25392193E-01 0.42306747E+03</pdfrwt>
<pdfrwt beam="2">  1       -1 0.64146303E-01 0.42306747E+03</pdfrwt>
<totfact> 0.47835830E+02</totfact>
</mgrwt>
</event>
<event>
 5    0  0.2754780E-002  0.4962234E+03  0.7546771E-02  0.1014769E+00
         -2   -1    0    0    0  501 -0.00000000000E+00  0.00000000000E+00  0.15685837848E+03  0.15685837848E+03  0.00000000000E+00 0. -1.
          2   -1    0    0  503    0  0.00000000000E+00 -0.00000000000E+00 -0.45656007572E+03  0.45656007572E+03  0.00000000000E+00 0.  1.
         25    1    1    2    0    0 -0.11648449516E+03 -0.16596695385E+03 -0.28958085645E+03  0.37496098438E+03  0.12500000000E+03 0.  0.
         21    1    1    2  502  501  0.22263828305E+02  0.17862066145E+02 -0.50800517691E+02  0.58270267336E+02  0.00000000000E+00 0.  1.
         21    1    1    2  503  502  0.94220666855E+02  0.14810488771E+03  0.40679676906E+02  0.18018720248E+03  0.00000000000E+00 0.  1.
<mgrwt>
<rscale>  4 0.49622345E+03</rscale>
<asrwt>0</asrwt>
<pdfrwt beam="1">  1        2 0.70240011E-01 0.49622345E+03</pdfrwt>
<pdfrwt beam="2">  1       -2 0.24132058E-01 0.49622345E+03</pdfrwt>
<totfact> 0.10473858E+03</totfact>
</mgrwt>
</event>
<event>
 5    0  0.2754780E-002  0.4770720E+03  0.7546771E-02  0.1019943E+00
         -4   -1    0    0    0  501 -0.00000000000E+00  0.00000000000E+00  0.11753078837E+03  0.11753078837E+03  0.00000000000E+00 0.  1.
          4   -1    0    0  502    0  0.00000000000E+00 -0.00000000000E+00 -0.66240133648E+03  0.66240133648E+03  0.00000000000E+00 0. -1.
         25    1    1    2    0    0 -0.58307240279E+02 -0.22730745600E+03 -0.18181943878E+03  0.32210514144E+03  0.12500000000E+03 0.  0.
         21    1    1    2  502  503  0.28643727454E+02  0.20705147861E+03 -0.19459407878E+03  0.28558297115E+03  0.00000000000E+00 0.  1.
         21    1    1    2  503  501  0.29663512826E+02  0.20255977392E+02 -0.16845703055E+03  0.17224401225E+03  0.00000000000E+00 0. -1.
<mgrwt>
<rscale>  4 0.47707201E+03</rscale>
<asrwt>0</asrwt>
<pdfrwt beam="1">  1        4 0.10190790E+00 0.47707201E+03</pdfrwt>
<pdfrwt beam="2">  1       -4 0.18081660E-01 0.47707201E+03</pdfrwt>
<totfact> 0.42647114E+01</totfact>
</mgrwt>
</event>
<event>
 5    0  0.2754780E-002  0.4419756E+03  0.7546771E-02  0.1030142E+00
         -1   -1    0    0    0  501 -0.00000000000E+00  0.00000000000E+00  0.77680421210E+02  0.77680421210E+02  0.00000000000E+00 0. -1.
          1   -1    0    0  502    0  0.00000000000E+00 -0.00000000000E+00 -0.12631385081E+04  0.12631385081E+04  0.00000000000E+00 0.  1.
         25    1    1    2    0    0 -0.20807545567E+03  0.10176787553E+03 -0.65213097602E+03  0.70324384507E+03  0.12500000000E+03 0.  0.
         21    1    1    2  502  503  0.17344204012E+03  0.41694802368E+02 -0.40287693415E+03  0.44060233987E+03  0.00000000000E+00 0. -1.
         21    1    1    2  503  501  0.34633415555E+02 -0.14346267790E+03 -0.13045017674E+03  0.19697274439E+03  0.00000000000E+00 0. -1.
<mgrwt>
<rscale>  4 0.44197557E+03</rscale>
<asrwt>0</asrwt>
<pdfrwt beam="1">  1        1 0.19432898E+00 0.44197557E+03</pdfrwt>
<pdfrwt beam="2">  1       -1 0.11950835E-01 0.44197557E+03</pdfrwt>
<totfact> 0.47126704E+02</totfact>
</mgrwt>
</event>
<event>
 5    0  0.2754780E-002  0.5754928E+03  0.7546771E-02  0.9957597E-01
         -2   -1    0    0    0  501 -0.00000000000E+00  0.00000000000E+00  0.17431190657E+03  0.17431190657E+03  0.00000000000E+00 0. -1.
          2   -1    0    0  502    0  0.00000000000E+00 -0.00000000000E+00 -0.63575923971E+03  0.63575923971E+03  0.00000000000E+00 0.  1.
         25    1    1    2    0    0  0.15605020679E+03  0.24896819439E+03 -0.16371211843E+03  0.35883629496E+03  0.12500000000E+03 0.  0.
         21    1    1    2  502  503 -0.15586245192E+03 -0.20292669667E+03 -0.15024513783E+03  0.29672537738E+03  0.00000000000E+00 0. -1.
         21    1    1    2  503  501 -0.18775487276E+00 -0.46041497721E+02 -0.14749007687E+03  0.15450947395E+03  0.00000000000E+00 0.  1.
<mgrwt>
<rscale>  4 0.57549279E+03</rscale>
<asrwt>0</asrwt>
<pdfrwt beam="1">  1        2 0.97809114E-01 0.57549279E+03</pdfrwt>
<pdfrwt beam="2">  1       -2 0.26817216E-01 0.57549279E+03</pdfrwt>
<totfact> 0.58772351E+02</totfact>
</mgrwt>
</event>
<event>
 5    0  0.2754780E-002  0.8478625E+03  0.7546771E-02  0.9493210E-01
         -2   -1    0    0    0  501 -0.00000000000E+00  0.00000000000E+00  0.18274032089E+03  0.18274032089E+03  0.00000000000E+00 0. -1.
          2   -1    0    0  503    0  0.00000000000E+00 -0.00000000000E+00 -0.17692676968E+04  0.17692676968E+04  0.00000000000E+00 0.  1.
         25    1    1    2    0    0  0.43200164112E+02  0.27439363104E+03 -0.11033289940E+04  0.11446038563E+04  0.12500000000E+03 0.  0.
         21    1    1    2  502  501 -0.16188233405E+03 -0.40375164134E+03 -0.45521182329E+03  0.62963408581E+03  0.00000000000E+00 0.  1.
         21    1    1    2  503  502  0.11868216993E+03  0.12935801029E+03 -0.27986558596E+02  0.17777007552E+03  0.00000000000E+00 0. -1.
<mgrwt>
<rscale>  4 0.84786249E+03</rscale>
<asrwt>0</asrwt>
<pdfrwt beam="1">  1        2 0.27219504E+00 0.84786249E+03</pdfrwt>
<pdfrwt beam="2">  1       -2 0.28113895E-01 0.84786249E+03</pdfrwt>
<totfact> 0.10510595E+02</totfact>
</mgrwt>
</event>
<event>
 5    0  0.2754780E-002  0.5033990E+03  0.7546771E-02  0.1012896E+00
         -2   -1    0    0    0  501 -0.00000000000E+00  0.00000000000E+00  0.22652232949E+03  0.22652232949E+03  0.00000000000E+00 0.  1.
          2   -1    0    0  502    0  0.00000000000E+00 -0.00000000000E+00 -0.41013185818E+03  0.41013185818E+03  0.00000000000E+00 0. -1.
         25    1    1    2    0    0 -0.11594786521E+03  0.18794117588E+03  0.67632219333E+02  0.26261170981E+03  0.12500000000E+03 0.  0.
         21    1    1    2  502  503  0.85307737258E+02 -0.19148187719E+03 -0.12495130329E+03  0.24404005311E+03  0.00000000000E+00 0. -1.
         21    1    1    2  503  501  0.30640127948E+02  0.35407013119E+01 -0.12629044474E+03  0.13000242474E+03  0.00000000000E+00 0. -1.
<mgrwt>
<rscale>  4 0.50339898E+03</rscale>
<asrwt>0</asrwt>
<pdfrwt beam="1">  1        2 0.63097209E-01 0.50339898E+03</pdfrwt>
<pdfrwt beam="2">  1       -2 0.34849589E-01 0.50339898E+03</pdfrwt>
<totfact> 0.60203738E+02</totfact>
</mgrwt>
</event>
<event>
 5    0  0.2754780E-002  0.6070806E+03  0.7546771E-02  0.9890824E-01
          2   -1    0    0  502    0  0.00000000000E+00  0.00000000000E+00  0.13857733187E+04  0.13857733187E+04  0.00000000000E+00 0.  1.
         -2   -1    0    0    0  501 -0.00000000000E+00 -0.00000000000E+00 -0.72684847497E+02  0.72684847497E+02  0.00000000000E+00 0. -1.
         25    1    1    2    0    0  0.14030587962E+03 -0.19165856477E+03  0.99980850412E+03  0.10352105053E+04  0.12500000000E+03 0.  0.
         21    1    1    2  502  503 -0.16186495733E+03  0.18200127236E+03  0.22404728684E+03  0.33094095287E+03  0.00000000000E+00 0. -1.
         21    1    1    2  503  501  0.21559077702E+02  0.96572924119E+01  0.89232680210E+02  0.92306708020E+02  0.00000000000E+00 0.  1.
<mgrwt>
<rscale>  4 0.60708056E+03</rscale>
<asrwt>0</asrwt>
<pdfrwt beam="1">  1        2 0.21319588E+00 0.60708056E+03</pdfrwt>
<pdfrwt beam="2">  1       -2 0.11182285E-01 0.60708056E+03</pdfrwt>
<totfact> 0.85674741E+02</totfact>
</mgrwt>
</event>
<event>
 5    0  0.2754780E-002  0.6016666E+03  0.7546771E-02  0.9901954E-01
         -1   -1    0    0    0  501 -0.00000000000E+00  0.00000000000E+00  0.85519842530E+03  0.85519842530E+03  0.00000000000E+00 0. -1.
          1   -1    0    0  503    0  0.00000000000E+00 -0.00000000000E+00 -0.15427077482E+03  0.15427077482E+03  0.00000000000E+00 0.  1.
         25    1    1    2    0    0  0.26108435708E+02 -0.24680377430E+03  0.43432570896E+03  0.51561378462E+03  0.12500000000E+03 0.  0.
         21    1    1    2  502  501 -0.15032966286E+03  0.23877439002E+03  0.13527740640E+03  0.31290924171E+03  0.00000000000E+00 0.  1.
         21    1    1    2  503  502  0.12422122715E+03  0.80293842804E+01  0.13132453512E+03  0.18094617380E+03  0.00000000000E+00 0.  1.
<mgrwt>
<rscale>  4 0.60166660E+03</rscale>
<asrwt>0</asrwt>
<pdfrwt beam="1">  1        1 0.23733966E-01 0.60166660E+03</pdfrwt>
<pdfrwt beam="2">  1       -1 0.13156899E+00 0.60166660E+03</pdfrwt>
<totfact> 0.10543092E+02</totfact>
</mgrwt>
</event>
<event>
 5    0  0.2754780E-002  0.4554094E+03  0.7546771E-02  0.1026121E+00
         -1   -1    0    0    0  501 -0.00000000000E+00  0.00000000000E+00  0.97737365504E+02  0.97737365504E+02  0.00000000000E+00 0. -1.
          1   -1    0    0  503    0  0.00000000000E+00 -0.00000000000E+00 -0.10561221176E+04  0.10561221176E+04  0.00000000000E+00 0.  1.
         25    1    1    2    0    0 -0.10406162582E+03  0.20474320206E+03 -0.20950053537E+03  0.33505831593E+03  0.12500000000E+03 0.  0.
         21    1    1    2  502  501  0.66389998565E+01 -0.42374391785E+02 -0.51990438943E+03  0.52167062362E+03  0.00000000000E+00 0.  1.
         21    1    1    2  503  502  0.97422625962E+02 -0.16236881027E+03 -0.22897982726E+03  0.29713054352E+03  0.00000000000E+00 0. -1.
<mgrwt>
<rscale>  4 0.45540940E+03</rscale>
<asrwt>0</asrwt>
<pdfrwt beam="1">  1        1 0.16248032E+00 0.45540940E+03</pdfrwt>
<pdfrwt beam="2">  1       -1 0.15036518E-01 0.45540940E+03</pdfrwt>
<totfact> 0.46020579E+02</totfact>
</mgrwt>
</event>
<event>
 5    0  0.2754780E-002  0.4973609E+03  0.7546771E-02  0.1014470E+00
         -1   -1    0    0    0  501 -0.00000000000E+00  0.00000000000E+00  0.45473247867E+03  0.45473247867E+03  0.00000000000E+00 0. -1.
          1   -1    0    0  502    0  0.00000000000E+00 -0.00000000000E+00 -0.47905098886E+03  0.47905098886E+03  0.00000000000E+00 0.  1.
         25    1    1    2    0    0  0.90618976082E+02  0.21173953776E+03  0.12790159185E+03  0.29159775012E+03  0.12500000000E+03 0.  0.
         21    1    1    2  502  503  0.54192413434E+00 -0.23135672492E+03  0.18252913228E+03  0.29469155396E+03  0.00000000000E+00 0. -1.
         21    1    1    2  503  501 -0.91160900217E+02  0.19617187160E+02 -0.33474923431E+03  0.34749416345E+03  0.00000000000E+00 0.  1.
<mgrwt>
<rscale>  4 0.49736095E+03</rscale>
<asrwt>0</asrwt>
<pdfrwt beam="1">  1        1 0.73700152E-01 0.49736095E+03</pdfrwt>
<pdfrwt beam="2">  1       -1 0.69958843E-01 0.49736095E+03</pdfrwt>
<totfact> 0.10087506E+02</totfact>
</mgrwt>
</event>
<event>
 5    0  0.2754780E-002  0.4815350E+03  0.7546771E-02  0.1018714E+00
          1   -1    0    0  502    0  0.00000000000E+00  0.00000000000E+00  0.98070690498E+02  0.98070690498E+02  0.00000000000E+00 0.  1.
         -1   -1    0    0    0  501 -0.00000000000E+00 -0.00000000000E+00 -0.67549398995E+03  0.67549398995E+03  0.00000000000E+00 0. -1.
         25    1    1    2    0    0 -0.20573445652E+03 -0.10741573710E+02 -0.39820672363E+03  0.46544134190E+03  0.12500000000E+03 0.  0.
         21    1    1    2  502  503 -0.29959537642E+01 -0.32299060277E+02 -0.47714222330E+02  0.57696204783E+02  0.00000000000E+00 0.  1.
         21    1    1    2  503  501  0.20873041028E+03  0.43040633988E+02 -0.13150235349E+03  0.25042713376E+03  0.00000000000E+00 0.  1.
<mgrwt>
<rscale>  4 0.48153501E+03</rscale>
<asrwt>0</asrwt>
<pdfrwt beam="1">  1        1 0.15087799E-01 0.48153501E+03</pdfrwt>
<pdfrwt beam="2">  1       -1 0.10392215E+00 0.48153501E+03</pdfrwt>
<totfact> 0.34003420E+02</totfact>
</mgrwt>
</event>
<event>
 5    0  0.2754780E-002  0.5846173E+03  0.7546771E-02  0.9937844E-01
          2   -1    0    0  502    0  0.00000000000E+00  0.00000000000E+00  0.18006360949E+04  0.18006360949E+04  0.00000000000E+00 0. -1.
         -2   -1    0    0    0  501 -0.00000000000E+00 -0.00000000000E+00 -0.69906849082E+02  0.69906849082E+02  0.00000000000E+00 0.  1.
         25    1    1    2    0    0  0.12281114139E+03 -0.27444495042E+03  0.84526427469E+03  0.90581416490E+03  0.12500000000E+03 0.  0.
         21    1    1    2  502  503 -0.37552228002E+02  0.24234910096E+03  0.38811379931E+03  0.45910301434E+03  0.00000000000E+00 0. -1.
         21    1    1    2  503  501 -0.85258913386E+02  0.32095849457E+02  0.49735117185E+03  0.50562576478E+03  0.00000000000E+00 0. -1.
<mgrwt>
<rscale>  4 0.58461734E+03</rscale>
<asrwt>0</asrwt>
<pdfrwt beam="1">  1        2 0.27702090E+00 0.58461734E+03</pdfrwt>
<pdfrwt beam="2">  1       -2 0.10754901E-01 0.58461734E+03</pdfrwt>
<totfact> 0.54138776E+02</totfact>
</mgrwt>
</event>
<event>
 5    0  0.2754780E-002  0.4189692E+03  0.7546771E-02  0.1037402E+00
          2   -1    0    0  503    0  0.00000000000E+00  0.00000000000E+00  0.32933910917E+04  0.32933910917E+04  0.00000000000E+00 0. -1.
         -2   -1    0    0    0  501 -0.00000000000E+00 -0.00000000000E+00 -0.25702623238E+02  0.25702623238E+02  0.00000000000E+00 0.  1.
         25    1    1    2    0    0  0.76327415600E+02  0.19862758507E+03  0.12513547000E+04  0.12754577128E+04  0.12500000000E+03 0.  0.
         21    1    1    2  502  501  0.51762690537E+02 -0.12683060765E+03  0.44882736378E+03  0.46926685548E+03  0.00000000000E+00 0. -1.
         21    1    1    2  503  502 -0.12809010614E+03 -0.71796977419E+02  0.15675064048E+04  0.15743691467E+04  0.00000000000E+00 0. -1.
<mgrwt>
<rscale>  4 0.41896921E+03</rscale>
<asrwt>0</asrwt>
<pdfrwt beam="1">  1        2 0.50667522E+00 0.41896921E+03</pdfrwt>
<pdfrwt beam="2">  1       -2 0.39542523E-02 0.41896921E+03</pdfrwt>
<totfact> 0.37311241E+02</totfact>
</mgrwt>
</event>
<event>
 5    0  0.2754780E-002  0.7284431E+03  0.7546771E-02  0.9669790E-01
         -4   -1    0    0    0  501 -0.00000000000E+00  0.00000000000E+00  0.76382838359E+03  0.76382838359E+03  0.00000000000E+00 0. -1.
          4   -1    0    0  502    0  0.00000000000E+00 -0.00000000000E+00 -0.23626378522E+03  0.23626378522E+03  0.00000000000E+00 0.  1.
         25    1    1    2    0    0  0.19910988469E+03 -0.96055712692E+02  0.65949541428E+03  0.70670407356E+03  0.12500000000E+03 0.  0.
         21    1    1    2  502  503 -0.97965216024E+02  0.45136633490E+02  0.13898984379E+02  0.10875514241E+03  0.00000000000E+00 0.  1.
         21    1    1    2  503  501 -0.10114466866E+03  0.50919079202E+02 -0.14582980029E+03  0.18463295285E+03  0.00000000000E+00 0.  1.
<mgrwt>
<rscale>  4 0.72844309E+03</rscale>
<asrwt>0</asrwt>
<pdfrwt beam="1">  1        4 0.36348275E-01 0.72844309E+03</pdfrwt>
<pdfrwt beam="2">  1       -4 0.11751206E+00 0.72844309E+03</pdfrwt>
<totfact> 0.81574846E+00</totfact>
</mgrwt>
</event>
<event>
 5    0  0.2754780E-002  0.9142030E+03  0.7546771E-02  0.9407999E-01
         -2   -1    0    0    0  501 -0.00000000000E+00  0.00000000000E+00  0.13925322260E+03  0.13925322260E+03  0.00000000000E+00 0.  1.
          2   -1    0    0  503    0  0.00000000000E+00 -0.00000000000E+00 -0.16113856747E+04  0.16113856747E+04  0.00000000000E+00 0. -1.
         25    1    1    2    0    0  0.35523267737E+03  0.25665540774E+03 -0.53690312684E+03  0.70423875285E+03  0.12500000000E+03 0.  0.
         21    1    1    2  502  501  0.15264564267E+02 -0.18887489899E+02 -0.92242399272E+02  0.95385556665E+02  0.00000000000E+00 0. -1.
         21    1    1    2  503  502 -0.37049724164E+03 -0.23776791784E+03 -0.84298692600E+03  0.95101458781E+03  0.00000000000E+00 0. -1.
<mgrwt>
<rscale>  4 0.91420297E+03</rscale>
<asrwt>0</asrwt>
<pdfrwt beam="1">  1        2 0.24790547E+00 0.91420297E+03</pdfrwt>
<pdfrwt beam="2">  1       -2 0.21423574E-01 0.91420297E+03</pdfrwt>
<totfact> 0.20867897E+02</totfact>
</mgrwt>
</event>
<event>
 5    0  0.2754780E-002  0.6400244E+03  0.7546771E-02  0.9825680E-01
         -2   -1    0    0    0  501 -0.00000000000E+00  0.00000000000E+00  0.11985546993E+03  0.11985546993E+03  0.00000000000E+00 0. -1.
          2   -1    0    0  503    0  0.00000000000E+00 -0.00000000000E+00 -0.10085160613E+04  0.10085160613E+04  0.00000000000E+00 0.  1.
         25    1    1    2    0    0  0.48733205455E+01  0.21368825246E+03 -0.50208451230E+02  0.25265056317E+03  0.12500000000E+03 0.  0.
         21    1    1    2  502  501 -0.44345177061E+02 -0.12674793298E+02 -0.11741524589E+03  0.12614866262E+03  0.00000000000E+00 0.  1.
         21    1    1    2  503  502  0.39471856516E+02 -0.20101345917E+03 -0.72103689428E+03  0.74957230547E+03  0.00000000000E+00 0.  1.
<mgrwt>
<rscale>  4 0.64002445E+03</rscale>
<asrwt>0</asrwt>
<pdfrwt beam="1">  1        2 0.15515632E+00 0.64002445E+03</pdfrwt>
<pdfrwt beam="2">  1       -2 0.18439303E-01 0.64002445E+03</pdfrwt>
<totfact> 0.61738215E+02</totfact>
</mgrwt>
</event>
<event>
 5    0  0.2754780E-002  0.5230678E+03  0.7546771E-02  0.1007927E+00
         -1   -1    0    0    0  501 -0.00000000000E+00  0.00000000000E+00  0.30821397085E+03  0.30821397085E+03  0.00000000000E+00 0.  1.
          1   -1    0    0  502    0  0.00000000000E+00 -0.00000000000E+00 -0.29423892920E+03  0.29423892920E+03  0.00000000000E+00 0. -1.
         25    1    1    2    0    0  0.13968580543E+03  0.20499114389E+03 -0.99656890671E+01  0.27795288858E+03  0.12500000000E+03 0.  0.
         21    1    1    2  502  503 -0.10954117333E+03 -0.20721835459E+03  0.90613262942E+02  0.25129559995E+03  0.00000000000E+00 0. -1.
         21    1    1    2  503  501 -0.30144632099E+02  0.22272107042E+01 -0.66672532229E+02  0.73204411519E+02  0.00000000000E+00 0. -1.
<mgrwt>
<rscale>  4 0.52306781E+03</rscale>
<asrwt>0</asrwt>
<pdfrwt beam="1">  1        1 0.45267528E-01 0.52306781E+03</pdfrwt>
<pdfrwt beam="2">  1       -1 0.47417534E-01 0.52306781E+03</pdfrwt>
<totfact> 0.40528184E+02</totfact>
</mgrwt>
</event>
<event>
 5    0  0.2754780E-002  0.6933130E+03  0.7546771E-02  0.9728737E-01
          3   -1    0    0  502    0  0.00000000000E+00  0.00000000000E+00  0.53962927412E+03  0.53962927412E+03  0.00000000000E+00 0. -1.
         -3   -1    0    0    0  501 -0.00000000000E+00 -0.00000000000E+00 -0.33485433817E+03  0.33485433817E+03  0.00000000000E+00 0.  1.
         25    1    1    2    0    0  0.28533413770E+03  0.83609003453E+02  0.69314455777E+01  0.32261289580E+03  0.12500000000E+03 0.  0.
         21    1    1    2  502  503  0.44649350783E+02  0.83492375027E+02  0.15211384473E+03  0.17917355545E+03  0.00000000000E+00 0. -1.
         21    1    1    2  503  501 -0.32998348848E+03 -0.16710137848E+03  0.45729645633E+02  0.37269716105E+03  0.00000000000E+00 0. -1.
<mgrwt>
<rscale>  4 0.69331298E+03</rscale>
<asrwt>0</asrwt>
<pdfrwt beam="1">  1        3 0.83019888E-01 0.69331298E+03</pdfrwt>
<pdfrwt beam="2">  1       -3 0.51516052E-01 0.69331298E+03</pdfrwt>
<totfact> 0.13118403E+01</totfact>
</mgrwt>
</event>
<event>
 5    0  0.2754780E-002  0.5425752E+03  0.7546771E-02  0.1003227E+00
          2   -1    0    0  503    0  0.00000000000E+00  0.00000000000E+00  0.33784263370E+03  0.33784263370E+03  0.00000000000E+00 0. -1.
         -2   -1    0    0    0  501 -0.00000000000E+00 -0.00000000000E+00 -0.49255459312E+03  0.49255459312E+03  0.00000000000E+00 0.  1.
         25    1    1    2    0    0 -0.74842599017E+02  0.25641117692E+03 -0.17606337752E+03  0.34346967724E+03  0.12500000000E+03 0.  0.
         21    1    1    2  502  501 -0.74845362520E+02 -0.59112392801E+02  0.17227146941E+03  0.19691003643E+03  0.00000000000E+00 0. -1.
         21    1    1    2  503  502  0.14968796154E+03 -0.19729878412E+03 -0.15092005132E+03  0.29001751315E+03  0.00000000000E+00 0.  1.
<mgrwt>
<rscale>  4 0.54257521E+03</rscale>
<asrwt>0</asrwt>
<pdfrwt beam="1">  1        2 0.51975790E-01 0.54257521E+03</pdfrwt>
<pdfrwt beam="2">  1       -2 0.75777630E-01 0.54257521E+03</pdfrwt>
<totfact> 0.15285048E+02</totfact>
</mgrwt>
</event>
<event>
 5    0  0.2754780E-002  0.5016760E+03  0.7546771E-02  0.1013342E+00
          1   -1    0    0  502    0  0.00000000000E+00  0.00000000000E+00  0.38542105675E+03  0.38542105675E+03  0.00000000000E+00 0. -1.
         -1   -1    0    0    0  501 -0.00000000000E+00 -0.00000000000E+00 -0.31362840709E+03  0.31362840709E+03  0.00000000000E+00 0.  1.
         25    1    1    2    0    0 -0.17728449651E+03  0.10238087209E+03  0.42706762724E+02  0.24364011011E+03  0.12500000000E+03 0.  0.
         21    1    1    2  502  503  0.18303310568E+03 -0.12537705193E+03 -0.15446575782E+03  0.27033348528E+03  0.00000000000E+00 0.  1.
         21    1    1    2  503  501 -0.57486091713E+01  0.22996179838E+02  0.18355164475E+03  0.18507586846E+03  0.00000000000E+00 0. -1.
<mgrwt>
<rscale>  4 0.50167597E+03</rscale>
<asrwt>0</asrwt>
<pdfrwt beam="1">  1        1 0.59295547E-01 0.50167597E+03</pdfrwt>
<pdfrwt beam="2">  1       -1 0.48250524E-01 0.50167597E+03</pdfrwt>
<totfact> 0.27689858E+02</totfact>
</mgrwt>
</event>
<event>
 5    0  0.2754780E-002  0.5335268E+03  0.7546771E-02  0.1005380E+00
         -2   -1    0    0    0  501 -0.00000000000E+00  0.00000000000E+00  0.15933967882E+04  0.15933967882E+04  0.00000000000E+00 0.  1.
          2   -1    0    0  503    0  0.00000000000E+00 -0.00000000000E+00 -0.59032877656E+02  0.59032877656E+02  0.00000000000E+00 0. -1.
         25    1    1    2    0    0  0.25153554887E+03  0.79480114318E+02  0.10531410523E+04  0.10928487073E+04  0.12500000000E+03 0.  0.
         21    1    1    2  502  501 -0.42106928999E+02  0.17408885213E+00  0.19585306337E+02  0.46439293717E+02  0.00000000000E+00 0.  1.
         21    1    1    2  503  502 -0.20942861987E+03 -0.79654203170E+02  0.46163755188E+03  0.51314166485E+03  0.00000000000E+00 0.  1.
<mgrwt>
<rscale>  4 0.53352681E+03</rscale>
<asrwt>0</asrwt>
<pdfrwt beam="1">  1        2 0.90819824E-02 0.53352681E+03</pdfrwt>
<pdfrwt beam="2">  1       -2 0.24513793E+00 0.53352681E+03</pdfrwt>
<totfact> 0.53986308E+01</totfact>
</mgrwt>
</event>
<event>
 5    0  0.2754780E-002  0.6273958E+03  0.7546771E-02  0.9850144E-01
          2   -1    0    0  502    0  0.00000000000E+00  0.00000000000E+00  0.21840140153E+03  0.21840140153E+03  0.00000000000E+00 0. -1.
         -2   -1    0    0    0  501 -0.00000000000E+00 -0.00000000000E+00 -0.60219656311E+03  0.60219656311E+03  0.00000000000E+00 0.  1.
         25    1    1    2    0    0 -0.12810088532E+02 -0.25254361437E+03  0.14799540269E+02  0.28246486847E+03  0.12500000000E+03 0.  0.
         21    1    1    2  502  503 -0.15549793206E+02  0.19315361570E+03 -0.42509947667E+03  0.46718270558E+03  0.00000000000E+00 0.  1.
         21    1    1    2  503  501  0.28359881738E+02  0.59389998678E+02  0.26504774827E+02  0.70950390582E+02  0.00000000000E+00 0. -1.
<mgrwt>
<rscale>  4 0.62739577E+03</rscale>
<asrwt>0</asrwt>
<pdfrwt beam="1">  1        2 0.33600216E-01 0.62739577E+03</pdfrwt>
<pdfrwt beam="2">  1       -2 0.92645625E-01 0.62739577E+03</pdfrwt>
<totfact> 0.15674464E+02</totfact>
</mgrwt>
</event>
<event>
 5    0  0.2754780E-002  0.4800097E+03  0.7546771E-02  0.1019132E+00
          2   -1    0    0  502    0  0.00000000000E+00  0.00000000000E+00  0.10466224958E+03  0.10466224958E+03  0.00000000000E+00 0. -1.
         -2   -1    0    0    0  501 -0.00000000000E+00 -0.00000000000E+00 -0.64987368851E+03  0.64987368851E+03  0.00000000000E+00 0.  1.
         25    1    1    2    0    0  0.21106464015E+03 -0.99744519497E+02 -0.28759844537E+03  0.39094132203E+03  0.12500000000E+03 0.  0.
         21    1    1    2  502  503 -0.19860114623E+03  0.81491423584E+02 -0.26430609565E+03  0.34050107137E+03  0.00000000000E+00 0. -1.
         21    1    1    2  503  501 -0.12463493919E+02  0.18253095912E+02  0.66931020933E+01  0.23093544697E+02  0.00000000000E+00 0.  1.
<mgrwt>
<rscale>  4 0.48000974E+03</rscale>
<asrwt>0</asrwt>
<pdfrwt beam="1">  1        2 0.16101885E-01 0.48000974E+03</pdfrwt>
<pdfrwt beam="2">  1       -2 0.99980565E-01 0.48000974E+03</pdfrwt>
<totfact> 0.30784399E+02</totfact>
</mgrwt>
</event>
<event>
 5    0  0.2754780E-002  0.5699699E+03  0.7546771E-02  0.9969745E-01
          2   -1    0    0  503    0  0.00000000000E+00  0.00000000000E+00  0.51148601956E+03  0.51148601956E+03  0.00000000000E+00 0. -1.
         -2   -1    0    0    0  501 -0.00000000000E+00 -0.00000000000E+00 -0.29103993434E+03  0.29103993434E+03  0.00000000000E+00 0.  1.
         25    1    1    2    0    0 -0.19705108625E+03 -0.64189906593E+02  0.15462845170E+03  0.28720103199E+03  0.12500000000E+03 0.  0.
         21    1    1    2  502  501 -0.27915741710E+02  0.15657873941E+02  0.23025770958E+03  0.23247165521E+03  0.00000000000E+00 0. -1.
         21    1    1    2  503  502  0.22496682796E+03  0.48532032652E+02 -0.16444007606E+03  0.28285326671E+03  0.00000000000E+00 0.  1.
<mgrwt>
<rscale>  4 0.56996985E+03</rscale>
<asrwt>0</asrwt>
<pdfrwt beam="1">  1        2 0.78690157E-01 0.56996985E+03</pdfrwt>
<pdfrwt beam="2">  1       -2 0.44775374E-01 0.56996985E+03</pdfrwt>
<totfact> 0.28786982E+02</totfact>
</mgrwt>
</event>
<event>
 5    0  0.2754780E-002  0.1279733E+04  0.7546771E-02  0.9045794E-01
          2   -1    0    0  502    0  0.00000000000E+00  0.00000000000E+00  0.48330640179E+03  0.48330640179E+03  0.00000000000E+00 0. -1.
         -2   -1    0    0    0  501 -0.00000000000E+00 -0.00000000000E+00 -0.11735474239E+04  0.11735474239E+04  0.00000000000E+00 0.  1.
         25    1    1    2    0    0  0.52513409933E+03  0.26956926391E+03 -0.15018323811E+03  0.62178245016E+03  0.12500000000E+03 0.  0.
         21    1    1    2  502  503 -0.55164279946E+03 -0.23203309896E+03 -0.66933885760E+03  0.89786616124E+03  0.00000000000E+00 0. -1.
         21    1    1    2  503  501  0.26508700136E+02 -0.37536164953E+02  0.12928107355E+03  0.13720521433E+03  0.00000000000E+00 0.  1.
<mgrwt>
<rscale>  4 0.12797326E+04</rscale>
<asrwt>0</asrwt>
<pdfrwt beam="1">  1        2 0.74354832E-01 0.12797326E+04</pdfrwt>
<pdfrwt beam="2">  1       -2 0.18054576E+00 0.12797326E+04</pdfrwt>
<totfact> 0.11244407E+01</totfact>
</mgrwt>
</event>
<event>
 5    0  0.2754780E-002  0.1277197E+04  0.7546771E-02  0.9047846E-01
         -3   -1    0    0    0  501 -0.00000000000E+00  0.00000000000E+00  0.22959749587E+04  0.22959749587E+04  0.00000000000E+00 0. -1.
          3   -1    0    0  502    0  0.00000000000E+00 -0.00000000000E+00 -0.19788965368E+03  0.19788965368E+03  0.00000000000E+00 0.  1.
         25    1    1    2    0    0 -0.92192582750E+02  0.57000301250E+03  0.60272155539E+03  0.84397937173E+03  0.12500000000E+03 0.  0.
         21    1    1    2  502  503  0.13103814136E+03 -0.58993189952E+03  0.14874410764E+04  0.16055128764E+04  0.00000000000E+00 0. -1.
         21    1    1    2  503  501 -0.38845558606E+02  0.19928887017E+02  0.79226732861E+01  0.44372364295E+02  0.00000000000E+00 0.  1.
<mgrwt>
<rscale>  4 0.12771971E+04</rscale>
<asrwt>0</asrwt>
<pdfrwt beam="1">  1        3 0.30444564E-01 0.12771971E+04</pdfrwt>
<pdfrwt beam="2">  1       -3 0.35322690E+00 0.12771971E+04</pdfrwt>
<totfact> 0.52642142E-01</totfact>
</mgrwt>
</event>
<event>
 5    0  0.2754780E-002  0.5624549E+03  0.7546771E-02  0.9986515E-01
          2   -1    0    0  502    0  0.00000000000E+00  0.00000000000E+00  0.43963231184E+03  0.43963231184E+03  0.00000000000E+00 0.  1.
         -2   -1    0    0    0  501 -0.00000000000E+00 -0.00000000000E+00 -0.22499493466E+03  0.22499493466E+03  0.00000000000E+00 0. -1.
         25    1    1    2    0    0 -0.22410005228E+03 -0.15866699396E+03  0.12406352666E+03  0.32620975928E+03  0.12500000000E+03 0.  0.
         21    1    1    2  502  503  0.20030504945E+03  0.15164936686E+03  0.71014846386E+01  0.25133657591E+03  0.00000000000E+00 0. -1.
         21    1    1    2  503  501  0.23795002826E+02  0.70176271050E+01  0.83472365881E+02  0.87080911315E+02  0.00000000000E+00 0. -1.
<mgrwt>
<rscale>  4 0.56245490E+03</rscale>
<asrwt>0</asrwt>
<pdfrwt beam="1">  1        2 0.67635740E-01 0.56245490E+03</pdfrwt>
<pdfrwt beam="2">  1       -2 0.34614605E-01 0.56245490E+03</pdfrwt>
<totfact> 0.56345758E+02</totfact>
</mgrwt>
</event>
<event>
 5    0  0.2754780E-002  0.4855702E+03  0.7546771E-02  0.1017615E+00
          2   -1    0    0  503    0  0.00000000000E+00  0.00000000000E+00  0.41748530136E+04  0.41748530136E+04  0.00000000000E+00 0. -1.
         -2   -1    0    0    0  501 -0.00000000000E+00 -0.00000000000E+00 -0.32605718371E+02  0.32605718371E+02  0.00000000000E+00 0.  1.
         25    1    1    2    0    0 -0.29322760816E+00  0.26602665305E+03  0.13771144760E+04  0.14081333553E+04  0.12500000000E+03 0.  0.
         21    1    1    2  502  501  0.27418106723E+02 -0.93586772829E+02  0.23070464333E+04  0.23091066415E+04  0.00000000000E+00 0. -1.
         21    1    1    2  503  502 -0.27124879115E+02 -0.17243988022E+03  0.45808638592E+03  0.49021873519E+03  0.00000000000E+00 0.  1.
<mgrwt>
<rscale>  4 0.48557024E+03</rscale>
<asrwt>0</asrwt>
<pdfrwt beam="1">  1        2 0.64228466E+00 0.48557024E+03</pdfrwt>
<pdfrwt beam="2">  1       -2 0.50162677E-02 0.48557024E+03</pdfrwt>
<totfact> 0.58935116E+01</totfact>
</mgrwt>
</event>
<event>
 5    0  0.2754780E-002  0.4825467E+03  0.7546771E-02  0.1018438E+00
         -2   -1    0    0    0  501 -0.00000000000E+00  0.00000000000E+00  0.14605577193E+03  0.14605577193E+03  0.00000000000E+00 0. -1.
          2   -1    0    0  502    0  0.00000000000E+00 -0.00000000000E+00 -0.69452519138E+03  0.69452519138E+03  0.00000000000E+00 0.  1.
         25    1    1    2    0    0 -0.12873662521E+03 -0.20614055035E+03 -0.17362803969E+03  0.32378811179E+03  0.12500000000E+03 0.  0.
         21    1    1    2  502  503  0.62719845364E+02  0.19800164359E+03 -0.93638810148E+02  0.22783032422E+03  0.00000000000E+00 0.  1.
         21    1    1    2  503  501  0.66016779844E+02  0.81389067602E+01 -0.28120256962E+03  0.28896252730E+03  0.00000000000E+00 0.  1.
<mgrwt>
<rscale>  4 0.48254671E+03</rscale>
<asrwt>0</asrwt>
<pdfrwt beam="1">  1        2 0.10685003E+00 0.48254671E+03</pdfrwt>
<pdfrwt beam="2">  1       -2 0.22470119E-01 0.48254671E+03</pdfrwt>
<totfact> 0.72523886E+02</totfact>
</mgrwt>
</event>
<event>
 5    0  0.2754780E-002  0.6468936E+03  0.7546771E-02  0.9812626E-01
         -1   -1    0    0    0  501 -0.00000000000E+00  0.00000000000E+00  0.38421758679E+03  0.38421758679E+03  0.00000000000E+00 0.  1.
          1   -1    0    0  503    0  0.00000000000E+00 -0.00000000000E+00 -0.42532293825E+03  0.42532293825E+03  0.00000000000E+00 0. -1.
         25    1    1    2    0    0 -0.13410131412E+03  0.18603699761E+03  0.88878996490E+02  0.27589382550E+03  0.12500000000E+03 0.  0.
         21    1    1    2  502  501  0.10734115885E+03 -0.29116740806E+03 -0.22986615509E+03  0.38618523167E+03  0.00000000000E+00 0. -1.
         21    1    1    2  503  502  0.26760155266E+02  0.10513041044E+03  0.99881807145E+02  0.14746146788E+03  0.00000000000E+00 0.  1.
<mgrwt>
<rscale>  4 0.64689358E+03</rscale>
<asrwt>0</asrwt>
<pdfrwt beam="1">  1        1 0.65434298E-01 0.64689358E+03</pdfrwt>
<pdfrwt beam="2">  1       -1 0.59110398E-01 0.64689358E+03</pdfrwt>
<totfact> 0.16361799E+02</totfact>
</mgrwt>
</event>
<event>
 5    0  0.2754780E-002  0.5720349E+03  0.7546771E-02  0.9965186E-01
         -2   -1    0    0    0  501 -0.00000000000E+00  0.00000000000E+00  0.19283505297E+04  0.19283505297E+04  0.00000000000E+00 0.  1.
          2   -1    0    0  503    0  0.00000000000E+00 -0.00000000000E+00 -0.54532385927E+02  0.54532385927E+02  0.00000000000E+00 0. -1.
         25    1    1    2    0    0  0.84082968376E+02 -0.19376518445E+03  0.38837450624E+03  0.45942861184E+03  0.12500000000E+03 0.  0.
         21    1    1    2  502  501 -0.43086174068E+02 -0.18369682584E+02  0.38962189114E+02  0.60925493963E+02  0.00000000000E+00 0.  1.
         21    1    1    2  503  502 -0.40996794307E+02  0.21213486704E+03  0.14464814484E+04  0.14625288098E+04  0.00000000000E+00 0.  1.
<mgrwt>
<rscale>  4 0.57203493E+03</rscale>
<asrwt>0</asrwt>
<pdfrwt beam="1">  1        2 0.83895993E-02 0.57203493E+03</pdfrwt>
<pdfrwt beam="2">  1       -2 0.29666926E+00 0.57203493E+03</pdfrwt>
<totfact> 0.29347877E+01</totfact>
</mgrwt>
</event>
<event>
 5    0  0.2754780E-002  0.4872050E+03  0.7546771E-02  0.1017174E+00
         -1   -1    0    0    0  501 -0.00000000000E+00  0.00000000000E+00  0.13973341666E+03  0.13973341666E+03  0.00000000000E+00 0. -1.
          1   -1    0    0  503    0  0.00000000000E+00 -0.00000000000E+00 -0.42468143889E+03  0.42468143889E+03  0.00000000000E+00 0.  1.
         25    1    1    2    0    0 -0.18822011307E+03 -0.10854125712E+03 -0.91601962883E+02  0.26687812774E+03  0.12500000000E+03 0.  0.
         21    1    1    2  502  501  0.45667238636E+02  0.10687854313E+01 -0.24608723506E+02  0.51886686728E+02  0.00000000000E+00 0. -1.
         21    1    1    2  503  502  0.14255287443E+03  0.10747247169E+03 -0.16873733583E+03  0.24565004108E+03  0.00000000000E+00 0. -1.
<mgrwt>
<rscale>  4 0.48720504E+03</rscale>
<asrwt>0</asrwt>
<pdfrwt beam="1">  1        1 0.65335606E-01 0.48720504E+03</pdfrwt>
<pdfrwt beam="2">  1       -1 0.21497449E-01 0.48720504E+03</pdfrwt>
<totfact> 0.10057511E+03</totfact>
</mgrwt>
</event>
<event>
 5    0  0.2754780E-002  0.5320269E+03  0.7546771E-02  0.1005742E+00
          2   -1    0    0  503    0  0.00000000000E+00  0.00000000000E+00  0.12908731801E+03  0.12908731801E+03  0.00000000000E+00 0.  1.
         -2   -1    0    0    0  501 -0.00000000000E+00 -0.00000000000E+00 -0.67318465179E+03  0.67318465179E+03  0.00000000000E+00 0. -1.
         25    1    1    2    0    0 -0.24807803653E+03  0.64775689384E+02 -0.23150134305E+03  0.36736422523E+03  0.12500000000E+03 0.  0.
         21    1    1    2  502  501  0.17523895742E+02 -0.11551245892E+02  0.18482680097E+02  0.27966545500E+02  0.00000000000E+00 0.  1.
         21    1    1    2  503  502  0.23055414079E+03 -0.53224443492E+02 -0.33107867083E+03  0.40694119907E+03  0.00000000000E+00 0.  1.
<mgrwt>
<rscale>  4 0.53202690E+03</rscale>
<asrwt>0</asrwt>
<pdfrwt beam="1">  1        2 0.19859588E-01 0.53202690E+03</pdfrwt>
<pdfrwt beam="2">  1       -2 0.10356687E+00 0.53202690E+03</pdfrwt>
<totfact> 0.22066205E+02</totfact>
</mgrwt>
</event>
<event>
 5    0  0.2754780E-002  0.4337417E+03  0.7546771E-02  0.1032684E+00
          1   -1    0    0  503    0  0.00000000000E+00  0.00000000000E+00  0.38821808251E+04  0.38821808251E+04  0.00000000000E+00 0. -1.
         -1   -1    0    0    0  501 -0.00000000000E+00 -0.00000000000E+00 -0.22279202438E+02  0.22279202438E+02  0.00000000000E+00 0.  1.
         25    1    1    2    0    0  0.18399182742E+03  0.11771232188E+03  0.14906725549E+04  0.15117667972E+04  0.12500000000E+03 0.  0.
         21    1    1    2  502  501 -0.94452584874E+02  0.34873497635E+02  0.16091125607E+04  0.16122594967E+04  0.00000000000E+00 0. -1.
         21    1    1    2  503  502 -0.89539242543E+02 -0.15258581952E+03  0.76011650697E+03  0.78043373354E+03  0.00000000000E+00 0. -1.
<mgrwt>
<rscale>  4 0.43374171E+03</rscale>
<asrwt>0</asrwt>
<pdfrwt beam="1">  1        1 0.59725805E+00 0.43374171E+03</pdfrwt>
<pdfrwt beam="2">  1       -1 0.34275727E-02 0.43374171E+03</pdfrwt>
<totfact> 0.46321533E+01</totfact>
</mgrwt>
</event>
<event>
 5    0  0.2754780E-002  0.4546628E+03  0.7546771E-02  0.1026341E+00
          2   -1    0    0  502    0  0.00000000000E+00  0.00000000000E+00  0.78237632246E+03  0.78237632246E+03  0.00000000000E+00 0. -1.
         -2   -1    0    0    0  501 -0.00000000000E+00 -0.00000000000E+00 -0.88855735588E+02  0.88855735588E+02  0.00000000000E+00 0.  1.
         25    1    1    2    0    0  0.22138404094E+03 -0.27459533814E+02  0.38455383192E+03  0.46181334890E+03  0.12500000000E+03 0.  0.
         21    1    1    2  502  503 -0.18067438402E+03  0.25504480200E+02  0.12544926369E+03  0.22142996480E+03  0.00000000000E+00 0.  1.
         21    1    1    2  503  501 -0.40709656930E+02  0.19550536135E+01  0.18351749127E+03  0.18798874435E+03  0.00000000000E+00 0. -1.
<mgrwt>
<rscale>  4 0.45466281E+03</rscale>
<asrwt>0</asrwt>
<pdfrwt beam="1">  1        2 0.12036558E+00 0.45466281E+03</pdfrwt>
<pdfrwt beam="2">  1       -2 0.13670114E-01 0.45466281E+03</pdfrwt>
<totfact> 0.14587631E+03</totfact>
</mgrwt>
</event>
<event>
 5    0  0.2754780E-002  0.9773419E+03  0.7546771E-02  0.9333751E-01
         -1   -1    0    0    0  501 -0.00000000000E+00  0.00000000000E+00  0.79007722110E+03  0.79007722110E+03  0.00000000000E+00 0. -1.
          1   -1    0    0  503    0  0.00000000000E+00 -0.00000000000E+00 -0.41685152763E+03  0.41685152763E+03  0.00000000000E+00 0.  1.
         25    1    1    2    0    0  0.26421700180E+03 -0.40899487512E+03  0.15601182695E+03  0.52635740905E+03  0.12500000000E+03 0.  0.
         21    1    1    2  502  501 -0.14812093994E+03  0.44194794389E+03  0.28080588258E+03  0.54415966559E+03  0.00000000000E+00 0. -1.
         21    1    1    2  503  502 -0.11609606187E+03 -0.32953068774E+02 -0.63592016056E+02  0.13641167409E+03  0.00000000000E+00 0. -1.
<mgrwt>
<rscale>  4 0.97734185E+03</rscale>
<asrwt>0</asrwt>
<pdfrwt beam="1">  1        1 0.64131004E-01 0.97734185E+03</pdfrwt>
<pdfrwt beam="2">  1       -1 0.12155034E+00 0.97734185E+03</pdfrwt>
<totfact> 0.34208572E+01</totfact>
</mgrwt>
</event>
<event>
 5    0  0.2754780E-002  0.5179967E+03  0.7546771E-02  0.1009185E+00
          2   -1    0    0  502    0  0.00000000000E+00  0.00000000000E+00  0.18577179076E+04  0.18577179076E+04  0.00000000000E+00 0.  1.
         -2   -1    0    0    0  501 -0.00000000000E+00 -0.00000000000E+00 -0.41406019565E+02  0.41406019565E+02  0.00000000000E+00 0. -1.
         25    1    1    2    0    0 -0.18518040352E+03  0.76514189426E+02  0.13463641609E+04  0.13669190381E+04  0.12500000000E+03 0.  0.
         21    1    1    2  502  503  0.16610401317E+03 -0.83763056912E+02  0.25159539338E+03  0.31290099850E+03  0.00000000000E+00 0. -1.
         21    1    1    2  503  501  0.19076390345E+02  0.72488674853E+01  0.21835233375E+03  0.21930389053E+03  0.00000000000E+00 0. -1.
<mgrwt>
<rscale>  4 0.51799674E+03</rscale>
<asrwt>0</asrwt>
<pdfrwt beam="1">  1        2 0.28580269E+00 0.51799674E+03</pdfrwt>
<pdfrwt beam="2">  1       -2 0.63701583E-02 0.51799674E+03</pdfrwt>
<totfact> 0.11694081E+03</totfact>
</mgrwt>
</event>
<event>
 5    0  0.2754780E-002  0.4638080E+03  0.7546771E-02  0.1023683E+00
         -2   -1    0    0    0  501 -0.00000000000E+00  0.00000000000E+00  0.59869678960E+02  0.59869678960E+02  0.00000000000E+00 0.  1.
          2   -1    0    0  502    0  0.00000000000E+00 -0.00000000000E+00 -0.12253091518E+04  0.12253091518E+04  0.00000000000E+00 0. -1.
         25    1    1    2    0    0 -0.16997683099E+03 -0.14140057164E+03 -0.49975224096E+03  0.56059213969E+03  0.12500000000E+03 0.  0.
         21    1    1    2  502  503  0.19392205211E+03  0.80104028449E+02 -0.41001124720E+03  0.46057750759E+03  0.00000000000E+00 0.  1.
         21    1    1    2  503  501 -0.23945221111E+02  0.61296543191E+02 -0.25567598473E+03  0.26400918353E+03  0.00000000000E+00 0. -1.
<mgrwt>
<rscale>  4 0.46380798E+03</rscale>
<asrwt>0</asrwt>
<pdfrwt beam="1">  1        2 0.18850911E+00 0.46380798E+03</pdfrwt>
<pdfrwt beam="2">  1       -2 0.92107194E-02 0.46380798E+03</pdfrwt>
<totfact> 0.14556364E+03</totfact>
</mgrwt>
</event>
<event>
 5    0  0.2754780E-002  0.6988788E+03  0.7546771E-02  0.9719151E-01
          2   -1    0    0  502    0  0.00000000000E+00  0.00000000000E+00  0.13003460882E+04  0.13003460882E+04  0.00000000000E+00 0.  1.
         -2   -1    0    0    0  501 -0.00000000000E+00 -0.00000000000E+00 -0.11835534771E+03  0.11835534771E+03  0.00000000000E+00 0. -1.
         25    1    1    2    0    0 -0.91467575819E+02  0.31150247779E+03  0.26941446581E+03  0.44001052883E+03  0.12500000000E+03 0.  0.
         21    1    1    2  502  503  0.57470897571E+02 -0.26863000413E+02  0.22443817773E+03  0.23323168841E+03  0.00000000000E+00 0.  1.
         21    1    1    2  503  501  0.33996678249E+02 -0.28463947738E+03  0.68813809695E+03  0.74545921866E+03  0.00000000000E+00 0.  1.
<mgrwt>
<rscale>  4 0.69887882E+03</rscale>
<asrwt>0</asrwt>
<pdfrwt beam="1">  1        2 0.20005323E+00 0.69887882E+03</pdfrwt>
<pdfrwt beam="2">  1       -2 0.18208516E-01 0.69887882E+03</pdfrwt>
<totfact> 0.42044367E+02</totfact>
</mgrwt>
</event>
<event>
 5    0  0.2754780E-002  0.6254765E+03  0.7546771E-02  0.9853916E-01
          2   -1    0    0  502    0  0.00000000000E+00  0.00000000000E+00  0.83009641774E+03  0.83009641774E+03  0.00000000000E+00 0.  1.
         -2   -1    0    0    0  501 -0.00000000000E+00 -0.00000000000E+00 -0.11782393297E+03  0.11782393297E+03  0.00000000000E+00 0. -1.
         25    1    1    2    0    0  0.86824825513E+02 -0.26760355041E+03  0.35701953093E+03  0.47142142079E+03  0.12500000000E+03 0.  0.
         21    1    1    2  502  503 -0.11947357929E+03  0.14837491072E+03  0.18039716590E+03  0.26235889111E+03  0.00000000000E+00 0. -1.
         21    1    1    2  503  501  0.32648753775E+02  0.11922863970E+03  0.17485578794E+03  0.21414003881E+03  0.00000000000E+00 0. -1.
<mgrwt>
<rscale>  4 0.62547654E+03</rscale>
<asrwt>0</asrwt>
<pdfrwt beam="1">  1        2 0.12770714E+00 0.62547654E+03</pdfrwt>
<pdfrwt beam="2">  1       -2 0.18126759E-01 0.62547654E+03</pdfrwt>
<totfact> 0.83533418E+02</totfact>
</mgrwt>
</event>
<event>
 5    0  0.2754780E-002  0.4815083E+03  0.7546771E-02  0.1018721E+00
         -1   -1    0    0    0  501 -0.00000000000E+00  0.00000000000E+00  0.58918670358E+03  0.58918670358E+03  0.00000000000E+00 0.  1.
          1   -1    0    0  502    0  0.00000000000E+00 -0.00000000000E+00 -0.15984616036E+03  0.15984616036E+03  0.00000000000E+00 0. -1.
         25    1    1    2    0    0 -0.24671798385E+02 -0.24544446027E+03  0.28390110645E+03  0.39632880158E+03  0.12500000000E+03 0.  0.
         21    1    1    2  502  503 -0.90705035471E+02  0.90542087503E+02  0.56560909949E+02  0.14008715003E+03  0.00000000000E+00 0. -1.
         21    1    1    2  503  501  0.11537683386E+03  0.15490237277E+03  0.88878526818E+02  0.21261691233E+03  0.00000000000E+00 0. -1.
<mgrwt>
<rscale>  4 0.48150828E+03</rscale>
<asrwt>0</asrwt>
<pdfrwt beam="1">  1        1 0.24591717E-01 0.48150828E+03</pdfrwt>
<pdfrwt beam="2">  1       -1 0.90644107E-01 0.48150828E+03</pdfrwt>
<totfact> 0.24265915E+02</totfact>
</mgrwt>
</event>
<event>
 5    0  0.2754780E-002  0.6003309E+03  0.7546771E-02  0.9904720E-01
         -1   -1    0    0    0  501 -0.00000000000E+00  0.00000000000E+00  0.14005778991E+03  0.14005778991E+03  0.00000000000E+00 0.  1.
          1   -1    0    0  502    0  0.00000000000E+00 -0.00000000000E+00 -0.12810224234E+04  0.12810224234E+04  0.00000000000E+00 0. -1.
         25    1    1    2    0    0 -0.10290492182E+03 -0.18125068171E+03 -0.14820652520E+03  0.28466015996E+03  0.12500000000E+03 0.  0.
         21    1    1    2  502  503  0.16742812584E+03  0.96359046336E+01 -0.48571666872E+02  0.17459735050E+03  0.00000000000E+00 0.  1.
         21    1    1    2  503  501 -0.64523204019E+02  0.17161477708E+03 -0.94418644138E+03  0.96182270282E+03  0.00000000000E+00 0. -1.
<mgrwt>
<rscale>  4 0.60033085E+03</rscale>
<asrwt>0</asrwt>
<pdfrwt beam="1">  1        1 0.19708037E+00 0.60033085E+03</pdfrwt>
<pdfrwt beam="2">  1       -1 0.21547352E-01 0.60033085E+03</pdfrwt>
<totfact> 0.17328678E+02</totfact>
</mgrwt>
</event>
<event>
 5    0  0.2754780E-002  0.7725746E+03  0.7546771E-02  0.9600585E-01
         -2   -1    0    0    0  501 -0.00000000000E+00  0.00000000000E+00  0.16133583813E+03  0.16133583813E+03  0.00000000000E+00 0. -1.
          2   -1    0    0  503    0  0.00000000000E+00 -0.00000000000E+00 -0.10403413441E+04  0.10403413441E+04  0.00000000000E+00 0.  1.
         25    1    1    2    0    0 -0.10612029402E+03  0.29163610255E+03 -0.10025533932E+03  0.34926961817E+03  0.12500000000E+03 0.  0.
         21    1    1    2  502  501 -0.25766182742E+02 -0.43128761451E+01 -0.10453616186E+03  0.10775113090E+03  0.00000000000E+00 0. -1.
         21    1    1    2  503  502  0.13188647676E+03 -0.28732322641E+03 -0.67421400484E+03  0.74465643320E+03  0.00000000000E+00 0.  1.
<mgrwt>
<rscale>  4 0.77257455E+03</rscale>
<asrwt>0</asrwt>
<pdfrwt beam="1">  1        2 0.16005252E+00 0.77257455E+03</pdfrwt>
<pdfrwt beam="2">  1       -2 0.24820897E-01 0.77257455E+03</pdfrwt>
<totfact> 0.34694544E+02</totfact>
</mgrwt>
</event>
<event>
 5    0  0.2754780E-002  0.7795739E+03  0.7546771E-02  0.9590063E-01
          2   -1    0    0  502    0  0.00000000000E+00  0.00000000000E+00  0.18671535899E+04  0.18671535899E+04  0.00000000000E+00 0. -1.
         -2   -1    0    0    0  501 -0.00000000000E+00 -0.00000000000E+00 -0.93824602969E+02  0.93824602969E+02  0.00000000000E+00 0.  1.
         25    1    1    2    0    0  0.92865276437E+02 -0.26869827769E+03  0.14187592363E+04  0.14523517117E+04  0.12500000000E+03 0.  0.
         21    1    1    2  502  503 -0.58685335040E+02  0.24818240000E+03  0.14108289100E+03  0.29144957429E+03  0.00000000000E+00 0.  1.
         21    1    1    2  503  501 -0.34179941397E+02  0.20515877692E+02  0.21348685969E+03  0.21717690691E+03  0.00000000000E+00 0. -1.
<mgrwt>
<rscale>  4 0.77957390E+03</rscale>
<asrwt>0</asrwt>
<pdfrwt beam="1">  1        2 0.28725437E+00 0.77957390E+03</pdfrwt>
<pdfrwt beam="2">  1       -2 0.14434556E-01 0.77957390E+03</pdfrwt>
<totfact> 0.30142768E+02</totfact>
</mgrwt>
</event>
<event>
 5    0  0.2754780E-002  0.5851463E+03  0.7546771E-02  0.9936711E-01
         -1   -1    0    0    0  501 -0.00000000000E+00  0.00000000000E+00  0.16991964081E+03  0.16991964081E+03  0.00000000000E+00 0. -1.
          1   -1    0    0  503    0  0.00000000000E+00 -0.00000000000E+00 -0.65733977663E+03  0.65733977663E+03  0.00000000000E+00 0.  1.
         25    1    1    2    0    0 -0.13513656075E+02  0.24283423020E+03 -0.32527807134E+02  0.27537999291E+03  0.12500000000E+03 0.  0.
         21    1    1    2  502  501  0.23001048882E+02  0.15419018646E+02 -0.14847381735E+03  0.15103399890E+03  0.00000000000E+00 0. -1.
         21    1    1    2  503  502 -0.94873928074E+01 -0.25825324885E+03 -0.30641851133E+03  0.40084542563E+03  0.00000000000E+00 0.  1.
<mgrwt>
<rscale>  4 0.58514631E+03</rscale>
<asrwt>0</asrwt>
<pdfrwt beam="1">  1        1 0.10112919E+00 0.58514631E+03</pdfrwt>
<pdfrwt beam="2">  1       -1 0.26141484E-01 0.58514631E+03</pdfrwt>
<totfact> 0.39418290E+02</totfact>
</mgrwt>
</event>
<event>
 5    0  0.2754780E-002  0.3925771E+03  0.7546771E-02  0.1046381E+00
         -1   -1    0    0    0  501 -0.00000000000E+00  0.00000000000E+00  0.19370246957E+02  0.19370246957E+02  0.00000000000E+00 0.  1.
          1   -1    0    0  502    0  0.00000000000E+00 -0.00000000000E+00 -0.30973921834E+04  0.30973921834E+04  0.00000000000E+00 0. -1.
         25    1    1    2    0    0 -0.20198299380E+03 -0.38012108741E+01 -0.16870943923E+04  0.17037382626E+04  0.12500000000E+03 0.  0.
         21    1    1    2  502  503  0.13197700198E+03 -0.56143680020E+02 -0.60782511956E+03  0.62451694759E+03  0.00000000000E+00 0.  1.
         21    1    1    2  503  501  0.70005991820E+02  0.59944890894E+02 -0.78310242461E+03  0.78850722017E+03  0.00000000000E+00 0. -1.
<mgrwt>
<rscale>  4 0.39257707E+03</rscale>
<asrwt>0</asrwt>
<pdfrwt beam="1">  1        1 0.47652196E+00 0.39257707E+03</pdfrwt>
<pdfrwt beam="2">  1       -1 0.29800375E-02 0.39257707E+03</pdfrwt>
<totfact> 0.22959011E+02</totfact>
</mgrwt>
</event>
<event>
 5    0  0.2754780E-002  0.5053625E+03  0.7546771E-02  0.1012389E+00
          2   -1    0    0  503    0  0.00000000000E+00  0.00000000000E+00  0.20436597587E+03  0.20436597587E+03  0.00000000000E+00 0.  1.
         -2   -1    0    0    0  501 -0.00000000000E+00 -0.00000000000E+00 -0.54844389956E+03  0.54844389956E+03  0.00000000000E+00 0. -1.
         25    1    1    2    0    0 -0.18886277605E+03  0.77400129174E+02 -0.48025607188E+02  0.24411347181E+03  0.12500000000E+03 0.  0.
         21    1    1    2  502  501  0.34757065515E+02  0.48540710895E+01  0.83664075492E+02  0.90726474291E+02  0.00000000000E+00 0.  1.
         21    1    1    2  503  502  0.15410571053E+03 -0.82254200264E+02 -0.37971639199E+03  0.41796992933E+03  0.00000000000E+00 0. -1.
<mgrwt>
<rscale>  4 0.50536246E+03</rscale>
<asrwt>0</asrwt>
<pdfrwt beam="1">  1        2 0.31440920E-01 0.50536246E+03</pdfrwt>
<pdfrwt beam="2">  1       -2 0.84375982E-01 0.50536246E+03</pdfrwt>
<totfact> 0.20998786E+02</totfact>
</mgrwt>
</event>
<event>
 5    0  0.2754780E-002  0.5368308E+03  0.7546771E-02  0.1004589E+00
         -1   -1    0    0    0  501 -0.00000000000E+00  0.00000000000E+00  0.58666355533E+03  0.58666355533E+03  0.00000000000E+00 0.  1.
          1   -1    0    0  503    0  0.00000000000E+00 -0.00000000000E+00 -0.15834844363E+03  0.15834844363E+03  0.00000000000E+00 0. -1.
         25    1    1    2    0    0  0.33060570681E+02  0.21611564965E+03  0.40429898324E+03  0.47632094559E+03  0.12500000000E+03 0.  0.
         21    1    1    2  502  501  0.10235425689E+02 -0.67675739881E+02  0.79049850423E+02  0.10456408829E+03  0.00000000000E+00 0. -1.
         21    1    1    2  503  502 -0.43295996370E+02 -0.14843990977E+03 -0.55033721958E+02  0.16412696508E+03  0.00000000000E+00 0. -1.
<mgrwt>
<rscale>  4 0.53683080E+03</rscale>
<asrwt>0</asrwt>
<pdfrwt beam="1">  1        1 0.24361299E-01 0.53683080E+03</pdfrwt>
<pdfrwt beam="2">  1       -1 0.90255931E-01 0.53683080E+03</pdfrwt>
<totfact> 0.24731626E+02</totfact>
</mgrwt>
</event>
<event>
 5    0  0.2754780E-002  0.5158960E+03  0.7546771E-02  0.1009711E+00
         -2   -1    0    0    0  501 -0.00000000000E+00  0.00000000000E+00  0.79465907812E+02  0.79465907812E+02  0.00000000000E+00 0.  1.
          2   -1    0    0  503    0  0.00000000000E+00 -0.00000000000E+00 -0.12100437073E+04  0.12100437073E+04  0.00000000000E+00 0. -1.
         25    1    1    2    0    0 -0.10340415545E+03 -0.23599998797E+03 -0.51479528975E+03  0.58909048883E+03  0.12500000000E+03 0.  0.
         21    1    1    2  502  501 -0.65617749683E+01  0.43533262765E+02 -0.35688812960E+03  0.35959329653E+03  0.00000000000E+00 0. -1.
         21    1    1    2  503  502  0.10996593042E+03  0.19246672521E+03 -0.25889438018E+03  0.34082582980E+03  0.00000000000E+00 0.  1.
<mgrwt>
<rscale>  4 0.51589597E+03</rscale>
<asrwt>0</asrwt>
<pdfrwt beam="1">  1        2 0.18616056E+00 0.51589597E+03</pdfrwt>
<pdfrwt beam="2">  1       -2 0.12225525E-01 0.51589597E+03</pdfrwt>
<totfact> 0.93634167E+02</totfact>
</mgrwt>
</event>
<event>
 5    0  0.2754780E-002  0.8380268E+03  0.7546771E-02  0.9506549E-01
          2   -1    0    0  503    0  0.00000000000E+00  0.00000000000E+00  0.21320254506E+04  0.21320254506E+04  0.00000000000E+00 0. -1.
         -2   -1    0    0    0  501 -0.00000000000E+00 -0.00000000000E+00 -0.82349973906E+02  0.82349973906E+02  0.00000000000E+00 0.  1.
         25    1    1    2    0    0 -0.33846692269E+03 -0.18757966885E+03  0.74310693406E+03  0.84710029240E+03  0.12500000000E+03 0.  0.
         21    1    1    2  502  501  0.38959166460E+02  0.42275416969E+02  0.34393786236E+03  0.34870945026E+03  0.00000000000E+00 0. -1.
         21    1    1    2  503  502  0.29950775623E+03  0.14530425188E+03  0.96263068023E+03  0.10185656818E+04  0.00000000000E+00 0. -1.
<mgrwt>
<rscale>  4 0.83802683E+03</rscale>
<asrwt>0</asrwt>
<pdfrwt beam="1">  1        2 0.32800387E+00 0.83802683E+03</pdfrwt>
<pdfrwt beam="2">  1       -2 0.12669228E-01 0.83802683E+03</pdfrwt>
<totfact> 0.26742580E+02</totfact>
</mgrwt>
</event>
<event>
 5    0  0.2754780E-002  0.5459950E+03  0.7546771E-02  0.1002425E+00
          4   -1    0    0  502    0  0.00000000000E+00  0.00000000000E+00  0.10899767754E+03  0.10899767754E+03  0.00000000000E+00 0.  1.
         -4   -1    0    0    0  501 -0.00000000000E+00 -0.00000000000E+00 -0.68375424738E+03  0.68375424738E+03  0.00000000000E+00 0. -1.
         25    1    1    2    0    0 -0.23197920979E+03 -0.32029884729E+02 -0.44986651972E+03  0.52234581731E+03  0.12500000000E+03 0.  0.
         21    1    1    2  502  503  0.19724388273E+03  0.35025430094E+02 -0.12385815502E+03  0.23552658574E+03  0.00000000000E+00 0. -1.
         21    1    1    2  503  501  0.34735327068E+02 -0.29955453653E+01 -0.10318950917E+01  0.34879521872E+02  0.00000000000E+00 0. -1.
<mgrwt>
<rscale>  4 0.54599496E+03</rscale>
<asrwt>0</asrwt>
<pdfrwt beam="1">  1        4 0.16768874E-01 0.54599496E+03</pdfrwt>
<pdfrwt beam="2">  1       -4 0.10519296E+00 0.54599496E+03</pdfrwt>
<totfact> 0.45763221E+01</totfact>
</mgrwt>
</event>
<event>
 5    0  0.2754780E-002  0.4694640E+03  0.7546771E-02  0.1022072E+00
         -2   -1    0    0    0  501 -0.00000000000E+00  0.00000000000E+00  0.12777533633E+03  0.12777533633E+03  0.00000000000E+00 0. -1.
          2   -1    0    0  502    0  0.00000000000E+00 -0.00000000000E+00 -0.57325074456E+03  0.57325074456E+03  0.00000000000E+00 0.  1.
         25    1    1    2    0    0 -0.44227147723E+02 -0.22698330673E+03 -0.19631007747E+03  0.32808552032E+03  0.12500000000E+03 0.  0.
         21    1    1    2  502  503  0.34285927288E+02  0.20214125200E+03 -0.11286936938E+03  0.23404295570E+03  0.00000000000E+00 0.  1.
         21    1    1    2  503  501  0.99412204349E+01  0.24842054733E+02 -0.13629596139E+03  0.13889760487E+03  0.00000000000E+00 0.  1.
<mgrwt>
<rscale>  4 0.46946405E+03</rscale>
<asrwt>0</asrwt>
<pdfrwt beam="1">  1        2 0.88192421E-01 0.46946405E+03</pdfrwt>
<pdfrwt beam="2">  1       -2 0.19657744E-01 0.46946405E+03</pdfrwt>
<totfact> 0.11552187E+03</totfact>
</mgrwt>
</event>
<event>
 5    0  0.2754780E-002  0.5575607E+03  0.7546771E-02  0.9997589E-01
         -2   -1    0    0    0  501 -0.00000000000E+00  0.00000000000E+00  0.47156668631E+02  0.47156668631E+02  0.00000000000E+00 0. -1.
          2   -1    0    0  503    0  0.00000000000E+00 -0.00000000000E+00 -0.28068872719E+04  0.28068872719E+04  0.00000000000E+00 0.  1.
         25    1    1    2    0    0 -0.25604287951E+03 -0.44262996254E+02 -0.58820014678E+03  0.65507372231E+03  0.12500000000E+03 0.  0.
         21    1    1    2  502  501  0.29041589511E+02 -0.20489897126E+02 -0.11488599157E+04  0.11494095683E+04  0.00000000000E+00 0.  1.
         21    1    1    2  503  502  0.22700129000E+03  0.64752893380E+02 -0.10226705408E+04  0.10495606500E+04  0.00000000000E+00 0.  1.
<mgrwt>
<rscale>  4 0.55756073E+03</rscale>
<asrwt>0</asrwt>
<pdfrwt beam="1">  1        2 0.43182882E+00 0.55756073E+03</pdfrwt>
<pdfrwt beam="2">  1       -2 0.72548719E-02 0.55756073E+03</pdfrwt>
<totfact> 0.28230941E+02</totfact>
</mgrwt>
</event>
<event>
 5    0  0.2754780E-002  0.6293855E+03  0.7546771E-02  0.9846249E-01
          1   -1    0    0  502    0  0.00000000000E+00  0.00000000000E+00  0.12195870021E+04  0.12195870021E+04  0.00000000000E+00 0. -1.
         -1   -1    0    0    0  501 -0.00000000000E+00 -0.00000000000E+00 -0.92837932773E+02  0.92837932773E+02  0.00000000000E+00 0.  1.
         25    1    1    2    0    0  0.21373406762E+03 -0.47175098248E+02  0.12343818684E+03  0.28065945116E+03  0.12500000000E+03 0.  0.
         21    1    1    2  502  503 -0.19987437805E+03  0.71554879629E+02  0.86875787773E+03  0.89432103739E+03  0.00000000000E+00 0. -1.
         21    1    1    2  503  501 -0.13859689571E+02 -0.24379781382E+02  0.13455300475E+03  0.13744444631E+03  0.00000000000E+00 0. -1.
<mgrwt>
<rscale>  4 0.62938551E+03</rscale>
<asrwt>0</asrwt>
<pdfrwt beam="1">  1        1 0.18762876E+00 0.62938551E+03</pdfrwt>
<pdfrwt beam="2">  1       -1 0.14282760E-01 0.62938551E+03</pdfrwt>
<totfact> 0.37557156E+02</totfact>
</mgrwt>
</event>
<event>
 5    0  0.2754780E-002  0.5581138E+03  0.7546771E-02  0.9996332E-01
          1   -1    0    0  503    0  0.00000000000E+00  0.00000000000E+00  0.43330154602E+03  0.43330154602E+03  0.00000000000E+00 0.  1.
         -1   -1    0    0    0  501 -0.00000000000E+00 -0.00000000000E+00 -0.19373373686E+03  0.19373373686E+03  0.00000000000E+00 0. -1.
         25    1    1    2    0    0 -0.22829659542E+03  0.13966095748E+03  0.14944439671E+03  0.33103345184E+03  0.12500000000E+03 0.  0.
         21    1    1    2  502  501  0.17098171580E+02  0.12782458283E+02  0.92612317030E+01  0.23270348597E+02  0.00000000000E+00 0. -1.
         21    1    1    2  503  502  0.21119842384E+03 -0.15244341577E+03  0.80862180749E+02  0.27273148245E+03  0.00000000000E+00 0. -1.
<mgrwt>
<rscale>  4 0.55811377E+03</rscale>
<asrwt>0</asrwt>
<pdfrwt beam="1">  1        1 0.66661776E-01 0.55811377E+03</pdfrwt>
<pdfrwt beam="2">  1       -1 0.29805191E-01 0.55811377E+03</pdfrwt>
<totfact> 0.56193743E+02</totfact>
</mgrwt>
</event>
<event>
 5    0  0.2754780E-002  0.7101717E+03  0.7546771E-02  0.9699994E-01
         -2   -1    0    0    0  501 -0.00000000000E+00  0.00000000000E+00  0.18005435139E+03  0.18005435139E+03  0.00000000000E+00 0. -1.
          2   -1    0    0  502    0  0.00000000000E+00 -0.00000000000E+00 -0.82385583502E+03  0.82385583502E+03  0.00000000000E+00 0.  1.
         25    1    1    2    0    0 -0.69983843172E+02 -0.34757381414E+03 -0.27243920065E+03  0.46427730143E+03  0.12500000000E+03 0.  0.
         21    1    1    2  502  503  0.47331868170E+02  0.33076308434E+03 -0.25615496042E+03  0.42102243106E+03  0.00000000000E+00 0. -1.
         21    1    1    2  503  501  0.22651975002E+02  0.16810729795E+02 -0.11520732256E+03  0.11861045392E+03  0.00000000000E+00 0.  1.
<mgrwt>
<rscale>  4 0.71017169E+03</rscale>
<asrwt>0</asrwt>
<pdfrwt beam="1">  1        2 0.12674705E+00 0.71017169E+03</pdfrwt>
<pdfrwt beam="2">  1       -2 0.27700670E-01 0.71017169E+03</pdfrwt>
<totfact> 0.39649990E+02</totfact>
</mgrwt>
</event>
<event>
 5    0  0.2754780E-002  0.5223359E+03  0.7546771E-02  0.1008108E+00
         -1   -1    0    0    0  501 -0.00000000000E+00  0.00000000000E+00  0.14240622494E+03  0.14240622494E+03  0.00000000000E+00 0.  1.
          1   -1    0    0  503    0  0.00000000000E+00 -0.00000000000E+00 -0.70310457603E+03  0.70310457603E+03  0.00000000000E+00 0. -1.
         25    1    1    2    0    0  0.19194413865E+03  0.12384298744E+03 -0.42309842481E+02  0.26380818917E+03  0.12500000000E+03 0.  0.
         21    1    1    2  502  501 -0.15590969049E+02 -0.28411259164E+02 -0.21889230020E+03  0.22127837004E+03  0.00000000000E+00 0.  1.
         21    1    1    2  503  502 -0.17635316961E+03 -0.95431728273E+02 -0.29949620841E+03  0.36042424176E+03  0.00000000000E+00 0. -1.
<mgrwt>
<rscale>  4 0.52233586E+03</rscale>
<asrwt>0</asrwt>
<pdfrwt beam="1">  1        1 0.10816994E+00 0.52233586E+03</pdfrwt>
<pdfrwt beam="2">  1       -1 0.21908650E-01 0.52233586E+03</pdfrwt>
<totfact> 0.48193958E+02</totfact>
</mgrwt>
</event>
<event>
 5    0  0.2754780E-002  0.4571553E+03  0.7546771E-02  0.1025610E+00
         -2   -1    0    0    0  501 -0.00000000000E+00  0.00000000000E+00  0.22051457754E+02  0.22051457754E+02  0.00000000000E+00 0.  1.
          2   -1    0    0  502    0  0.00000000000E+00 -0.00000000000E+00 -0.27944300798E+04  0.27944300798E+04  0.00000000000E+00 0. -1.
         25    1    1    2    0    0  0.21746979553E+03 -0.56733163791E+02 -0.13263101316E+04  0.13510127050E+04  0.12500000000E+03 0.  0.
         21    1    1    2  502  503 -0.19426108399E+03  0.47237148855E+02 -0.10667389133E+04  0.10853113038E+04  0.00000000000E+00 0.  1.
         21    1    1    2  503  501 -0.23208711545E+02  0.94960149363E+01 -0.37932957717E+03  0.38015752881E+03  0.00000000000E+00 0. -1.
<mgrwt>
<rscale>  4 0.45715527E+03</rscale>
<asrwt>0</asrwt>
<pdfrwt beam="1">  1        2 0.42991214E+00 0.45715527E+03</pdfrwt>
<pdfrwt beam="2">  1       -2 0.33925334E-02 0.45715527E+03</pdfrwt>
<totfact> 0.94202003E+02</totfact>
</mgrwt>
</event>
<event>
 5    0  0.2754780E-002  0.5003837E+03  0.7546771E-02  0.1013679E+00
         -3   -1    0    0    0  501 -0.00000000000E+00  0.00000000000E+00  0.33509666991E+03  0.33509666991E+03  0.00000000000E+00 0. -1.
          3   -1    0    0  502    0  0.00000000000E+00 -0.00000000000E+00 -0.18679967637E+03  0.18679967637E+03  0.00000000000E+00 0.  1.
         25    1    1    2    0    0 -0.19500607882E+02  0.22349826881E+03  0.13233909011E+03  0.28891241690E+03  0.12500000000E+03 0.  0.
         21    1    1    2  502  503  0.36734603900E+02 -0.18251737100E+03  0.24281780373E+02  0.18775416560E+03  0.00000000000E+00 0. -1.
         21    1    1    2  503  501 -0.17233996018E+02 -0.40980897806E+02 -0.83238769415E+01  0.45229763775E+02  0.00000000000E+00 0. -1.
<mgrwt>
<rscale>  4 0.50038365E+03</rscale>
<asrwt>0</asrwt>
<pdfrwt beam="1">  1        3 0.28738412E-01 0.50038365E+03</pdfrwt>
<pdfrwt beam="2">  1       -3 0.51553334E-01 0.50038365E+03</pdfrwt>
<totfact> 0.11415617E+02</totfact>
</mgrwt>
</event>
<event>
 5    0  0.2754780E-002  0.5959544E+03  0.7546771E-02  0.9913835E-01
         -2   -1    0    0    0  501 -0.00000000000E+00  0.00000000000E+00  0.89827945724E+02  0.89827945724E+02  0.00000000000E+00 0.  1.
          2   -1    0    0  503    0  0.00000000000E+00 -0.00000000000E+00 -0.18451637613E+04  0.18451637613E+04  0.00000000000E+00 0. -1.
         25    1    1    2    0    0  0.98082133196E+02 -0.20188907106E+03 -0.80583305806E+03  0.84579620437E+03  0.12500000000E+03 0.  0.
         21    1    1    2  502  501 -0.21736375410E+02  0.20223956605E+01 -0.85503933813E+03  0.85531797003E+03  0.00000000000E+00 0. -1.
         21    1    1    2  503  502 -0.76345757786E+02  0.19986667540E+03 -0.94463419390E+02  0.23387753263E+03  0.00000000000E+00 0.  1.
<mgrwt>
<rscale>  4 0.59595439E+03</rscale>
<asrwt>0</asrwt>
<pdfrwt beam="1">  1        2 0.28387133E+00 0.59595439E+03</pdfrwt>
<pdfrwt beam="2">  1       -2 0.13819685E-01 0.59595439E+03</pdfrwt>
<totfact> 0.33833708E+02</totfact>
</mgrwt>
</event>
<event>
 5    0  0.2754780E-002  0.4614763E+03  0.7546771E-02  0.1024354E+00
          2   -1    0    0  502    0  0.00000000000E+00  0.00000000000E+00  0.17544490926E+04  0.17544490926E+04  0.00000000000E+00 0.  1.
         -2   -1    0    0    0  501 -0.00000000000E+00 -0.00000000000E+00 -0.68647221504E+02  0.68647221504E+02  0.00000000000E+00 0. -1.
         25    1    1    2    0    0  0.39271771850E+02 -0.20228483021E+03  0.50121761686E+03  0.55615242879E+03  0.12500000000E+03 0.  0.
         21    1    1    2  502  503  0.14832197415E+02  0.81793992878E+02  0.86067675419E+01  0.83572290854E+02  0.00000000000E+00 0. -1.
         21    1    1    2  503  501 -0.54103969264E+02  0.12049083733E+03  0.11759774867E+04  0.11833715945E+04  0.00000000000E+00 0.  1.
<mgrwt>
<rscale>  4 0.46147634E+03</rscale>
<asrwt>0</asrwt>
<pdfrwt beam="1">  1        2 0.26991521E+00 0.46147634E+03</pdfrwt>
<pdfrwt beam="2">  1       -2 0.10561112E-01 0.46147634E+03</pdfrwt>
<totfact> 0.59655786E+02</totfact>
</mgrwt>
</event>
<event>
 5    0  0.2754780E-002  0.5994743E+03  0.7546771E-02  0.9906497E-01
          3   -1    0    0  503    0  0.00000000000E+00  0.00000000000E+00  0.21955319454E+03  0.21955319454E+03  0.00000000000E+00 0. -1.
         -3   -1    0    0    0  501 -0.00000000000E+00 -0.00000000000E+00 -0.61506953458E+03  0.61506953458E+03  0.00000000000E+00 0.  1.
         25    1    1    2    0    0 -0.17554539580E+03 -0.12852672077E+03 -0.20880370431E+03  0.32643420603E+03  0.12500000000E+03 0.  0.
         21    1    1    2  502  501 -0.56750380039E+02 -0.11957800411E+03 -0.42941353341E+02  0.13915266627E+03  0.00000000000E+00 0. -1.
         21    1    1    2  503  502  0.23229577583E+03  0.24810472488E+03 -0.14377128239E+03  0.36903585682E+03  0.00000000000E+00 0.  1.
<mgrwt>
<rscale>  4 0.59947434E+03</rscale>
<asrwt>0</asrwt>
<pdfrwt beam="1">  1        3 0.33777415E-01 0.59947434E+03</pdfrwt>
<pdfrwt beam="2">  1       -3 0.94626080E-01 0.59947434E+03</pdfrwt>
<totfact> 0.22522086E+01</totfact>
</mgrwt>
</event>
<event>
 5    0  0.2754780E-002  0.5260666E+03  0.7546771E-02  0.1007191E+00
         -2   -1    0    0    0  501 -0.00000000000E+00  0.00000000000E+00  0.13846659710E+03  0.13846659710E+03  0.00000000000E+00 0. -1.
          2   -1    0    0  502    0  0.00000000000E+00 -0.00000000000E+00 -0.95579726153E+03  0.95579726153E+03  0.00000000000E+00 0.  1.
         25    1    1    2    0    0  0.86673869823E+02  0.23452260335E+03 -0.42028983955E+03  0.50475911128E+03  0.12500000000E+03 0.  0.
         21    1    1    2  502  503  0.92084854526E+02 -0.15191216394E+03 -0.34143086676E+03  0.38487915345E+03  0.00000000000E+00 0. -1.
         21    1    1    2  503  501 -0.17875872435E+03 -0.82610439414E+02 -0.55609958117E+02  0.20462559388E+03  0.00000000000E+00 0. -1.
<mgrwt>
<rscale>  4 0.52606658E+03</rscale>
<asrwt>0</asrwt>
<pdfrwt beam="1">  1        2 0.14704573E+00 0.52606658E+03</pdfrwt>
<pdfrwt beam="2">  1       -2 0.21302554E-01 0.52606658E+03</pdfrwt>
<totfact> 0.52150265E+02</totfact>
</mgrwt>
</event>
<event>
 5    0  0.2754780E-002  0.9924116E+03  0.7546771E-02  0.9316907E-01
          1   -1    0    0  503    0  0.00000000000E+00  0.00000000000E+00  0.84010889019E+03  0.84010889019E+03  0.00000000000E+00 0. -1.
         -1   -1    0    0    0  501 -0.00000000000E+00 -0.00000000000E+00 -0.66442022357E+03  0.66442022357E+03  0.00000000000E+00 0.  1.
         25    1    1    2    0    0 -0.11758170382E+03  0.24909512452E+03 -0.56907821561E+03  0.64447564237E+03  0.12500000000E+03 0.  0.
         21    1    1    2  502  501  0.41978474823E+02  0.15026515420E+02  0.46787793205E+03  0.46999760405E+03  0.00000000000E+00 0. -1.
         21    1    1    2  503  502  0.75603228997E+02 -0.26412163994E+03  0.27688895018E+03  0.39005586734E+03  0.00000000000E+00 0. -1.
<mgrwt>
<rscale>  4 0.99241165E+03</rscale>
<asrwt>0</asrwt>
<pdfrwt beam="1">  1        1 0.12924752E+00 0.99241165E+03</pdfrwt>
<pdfrwt beam="2">  1       -1 0.10221850E+00 0.99241165E+03</pdfrwt>
<totfact> 0.18558947E+01</totfact>
</mgrwt>
</event>
<event>
 5    0  0.2754780E-002  0.5262007E+03  0.7546771E-02  0.1007158E+00
         -1   -1    0    0    0  501 -0.00000000000E+00  0.00000000000E+00  0.97571523314E+02  0.97571523314E+02  0.00000000000E+00 0. -1.
          1   -1    0    0  503    0  0.00000000000E+00 -0.00000000000E+00 -0.96796731692E+03  0.96796731692E+03  0.00000000000E+00 0.  1.
         25    1    1    2    0    0 -0.53141964503E+02 -0.20660183129E+03 -0.57261797163E+03  0.62371846735E+03  0.12500000000E+03 0.  0.
         21    1    1    2  502  501  0.11171842787E+02  0.28268130044E+02 -0.25087000807E+03  0.25270468574E+03  0.00000000000E+00 0.  1.
         21    1    1    2  503  502  0.41970121715E+02  0.17833370124E+03 -0.46907813905E+02  0.18911568714E+03  0.00000000000E+00 0. -1.
<mgrwt>
<rscale>  4 0.52620069E+03</rscale>
<asrwt>0</asrwt>
<pdfrwt beam="1">  1        1 0.14891805E+00 0.52620069E+03</pdfrwt>
<pdfrwt beam="2">  1       -1 0.15011003E-01 0.52620069E+03</pdfrwt>
<totfact> 0.53641585E+02</totfact>
</mgrwt>
</event>
<event>
 5    0  0.2754780E-002  0.6259511E+03  0.7546771E-02  0.9852982E-01
          2   -1    0    0  503    0  0.00000000000E+00  0.00000000000E+00  0.26695696610E+03  0.26695696610E+03  0.00000000000E+00 0.  1.
         -2   -1    0    0    0  501 -0.00000000000E+00 -0.00000000000E+00 -0.47512111638E+03  0.47512111638E+03  0.00000000000E+00 0. -1.
         25    1    1    2    0    0 -0.20746896783E+03  0.10783134705E+03  0.10082057983E+03  0.28365606169E+03  0.12500000000E+03 0.  0.
         21    1    1    2  502  501  0.57254331294E+02 -0.14628183338E+02  0.37119128632E+02  0.69784467542E+02  0.00000000000E+00 0. -1.
         21    1    1    2  503  502  0.15021463654E+03 -0.93203163711E+02 -0.34610385874E+03  0.38863755325E+03  0.00000000000E+00 0. -1.
<mgrwt>
<rscale>  4 0.62595113E+03</rscale>
<asrwt>0</asrwt>
<pdfrwt beam="1">  1        2 0.41070303E-01 0.62595113E+03</pdfrwt>
<pdfrwt beam="2">  1       -2 0.73095556E-01 0.62595113E+03</pdfrwt>
<totfact> 0.21400431E+02</totfact>
</mgrwt>
</event>
<event>
 5    0  0.2754780E-002  0.5618215E+03  0.7546771E-02  0.9987942E-01
         -1   -1    0    0    0  501 -0.00000000000E+00  0.00000000000E+00  0.21692085423E+03  0.21692085423E+03  0.00000000000E+00 0.  1.
          1   -1    0    0  503    0  0.00000000000E+00 -0.00000000000E+00 -0.80004503067E+03  0.80004503067E+03  0.00000000000E+00 0. -1.
         25    1    1    2    0    0  0.19210218965E+02 -0.26863359272E+03 -0.17613541378E+03  0.34522706099E+03  0.12500000000E+03 0.  0.
         21    1    1    2  502  501  0.35005193442E+02  0.39698328580E+02 -0.43192320793E+03  0.43515397092E+03  0.00000000000E+00 0.  1.
         21    1    1    2  503  502 -0.54215412407E+02  0.22893526414E+03  0.24934445268E+02  0.23658485300E+03  0.00000000000E+00 0.  1.
<mgrwt>
<rscale>  4 0.56182148E+03</rscale>
<asrwt>0</asrwt>
<pdfrwt beam="1">  1        1 0.12308385E+00 0.56182148E+03</pdfrwt>
<pdfrwt beam="2">  1       -1 0.33372438E-01 0.56182148E+03</pdfrwt>
<totfact> 0.19177822E+02</totfact>
</mgrwt>
</event>
<event>
 5    0  0.2754780E-002  0.6145056E+03  0.7546771E-02  0.9875760E-01
          1   -1    0    0  502    0  0.00000000000E+00  0.00000000000E+00  0.76391930746E+03  0.76391930746E+03  0.00000000000E+00 0.  1.
         -1   -1    0    0    0  501 -0.00000000000E+00 -0.00000000000E+00 -0.19582599068E+03  0.19582599068E+03  0.00000000000E+00 0. -1.
         25    1    1    2    0    0 -0.29860339424E+03 -0.28100408476E+02  0.27940274963E+03  0.42853764888E+03  0.12500000000E+03 0.  0.
         21    1    1    2  502  503  0.25271194551E+03  0.11898453667E+01  0.15830842057E+02  0.25321010781E+03  0.00000000000E+00 0.  1.
         21    1    1    2  503  501  0.45891448724E+02  0.26910563109E+02  0.27285972509E+03  0.27799754145E+03  0.00000000000E+00 0.  1.
<mgrwt>
<rscale>  4 0.61450560E+03</rscale>
<asrwt>0</asrwt>
<pdfrwt beam="1">  1        1 0.11752605E+00 0.61450560E+03</pdfrwt>
<pdfrwt beam="2">  1       -1 0.30127076E-01 0.61450560E+03</pdfrwt>
<totfact> 0.24567767E+02</totfact>
</mgrwt>
</event>
<event>
 5    0  0.2754780E-002  0.1013127E+04  0.7546771E-02  0.9294263E-01
          2   -1    0    0  503    0  0.00000000000E+00  0.00000000000E+00  0.21805117970E+03  0.21805117970E+03  0.00000000000E+00 0.  1.
         -2   -1    0    0    0  501 -0.00000000000E+00 -0.00000000000E+00 -0.11768191153E+04  0.11768191153E+04  0.00000000000E+00 0. -1.
         25    1    1    2    0    0 -0.14543599724E+03  0.42092566951E+03 -0.76636682181E+03  0.89513862285E+03  0.12500000000E+03 0.  0.
         21    1    1    2  502  501  0.19334840447E+02 -0.80578953019E+02  0.11119766211E+02  0.83608928503E+02  0.00000000000E+00 0. -1.
         21    1    1    2  503  502  0.12610115679E+03 -0.34034671649E+03 -0.20352087997E+03  0.41612274362E+03  0.00000000000E+00 0. -1.
<mgrwt>
<rscale>  4 0.10131274E+04</rscale>
<asrwt>0</asrwt>
<pdfrwt beam="1">  1        2 0.33546335E-01 0.10131274E+04</pdfrwt>
<pdfrwt beam="2">  1       -2 0.18104910E+00 0.10131274E+04</pdfrwt>
<totfact> 0.27914244E+01</totfact>
</mgrwt>
</event>
<event>
 5    0  0.2754780E-002  0.4726843E+03  0.7546771E-02  0.1021165E+00
         -2   -1    0    0    0  501 -0.00000000000E+00  0.00000000000E+00  0.33262341019E+02  0.33262341019E+02  0.00000000000E+00 0.  1.
          2   -1    0    0  503    0  0.00000000000E+00 -0.00000000000E+00 -0.16793052078E+04  0.16793052078E+04  0.00000000000E+00 0. -1.
         25    1    1    2    0    0 -0.10977731678E+03  0.18647729027E+03 -0.94651105626E+03  0.97894484967E+03  0.12500000000E+03 0.  0.
         21    1    1    2  502  501  0.15044466169E+02 -0.34284876886E+02 -0.18514795310E+03  0.18889561478E+03  0.00000000000E+00 0. -1.
         21    1    1    2  503  502  0.94732850614E+02 -0.15219241338E+03 -0.51438385746E+03  0.54472708441E+03  0.00000000000E+00 0.  1.
<mgrwt>
<rscale>  4 0.47268434E+03</rscale>
<asrwt>0</asrwt>
<pdfrwt beam="1">  1        2 0.25835458E+00 0.47268434E+03</pdfrwt>
<pdfrwt beam="2">  1       -2 0.51172845E-02 0.47268434E+03</pdfrwt>
<totfact> 0.20555370E+03</totfact>
</mgrwt>
</event>
<event>
 5    0  0.2754780E-002  0.4947405E+03  0.7546771E-02  0.1015161E+00
         -2   -1    0    0    0  501 -0.00000000000E+00  0.00000000000E+00  0.19454394608E+03  0.19454394608E+03  0.00000000000E+00 0.  1.
          2   -1    0    0  502    0  0.00000000000E+00 -0.00000000000E+00 -0.31454093419E+03  0.31454093419E+03  0.00000000000E+00 0. -1.
         25    1    1    2    0    0  0.22768329264E+03  0.69891777504E+01 -0.98979248350E+02  0.27804751745E+03  0.12500000000E+03 0.  0.
         21    1    1    2  502  503 -0.20593605072E+03 -0.14014868327E+02 -0.13013258590E+02  0.20682219035E+03  0.00000000000E+00 0.  1.
         21    1    1    2  503  501 -0.21747241920E+02  0.70256905765E+01 -0.80044811682E+01  0.24215172474E+02  0.00000000000E+00 0.  1.
<mgrwt>
<rscale>  4 0.49474048E+03</rscale>
<asrwt>0</asrwt>
<pdfrwt beam="1">  1        2 0.48390913E-01 0.49474048E+03</pdfrwt>
<pdfrwt beam="2">  1       -2 0.29929838E-01 0.49474048E+03</pdfrwt>
<totfact> 0.10730248E+03</totfact>
</mgrwt>
</event>
<event>
 5    0  0.2754780E-002  0.3979069E+03  0.7546771E-02  0.1044507E+00
          1   -1    0    0  503    0  0.00000000000E+00  0.00000000000E+00  0.38658376054E+03  0.38658376054E+03  0.00000000000E+00 0.  1.
         -1   -1    0    0    0  501 -0.00000000000E+00 -0.00000000000E+00 -0.41559572431E+03  0.41559572431E+03  0.00000000000E+00 0. -1.
         25    1    1    2    0    0 -0.27837470629E+02  0.22340439081E+03 -0.12797448076E+03  0.28755332433E+03  0.12500000000E+03 0.  0.
         21    1    1    2  502  501  0.30439195599E+02 -0.10460923770E+03  0.27865724586E+03  0.29919809142E+03  0.00000000000E+00 0.  1.
         21    1    1    2  503  502 -0.26017249702E+01 -0.11879515311E+03 -0.17969472886E+03  0.21542806910E+03  0.00000000000E+00 0. -1.
<mgrwt>
<rscale>  4 0.39790695E+03</rscale>
<asrwt>0</asrwt>
<pdfrwt beam="1">  1        1 0.59474425E-01 0.39790695E+03</pdfrwt>
<pdfrwt beam="2">  1       -1 0.63937804E-01 0.39790695E+03</pdfrwt>
<totfact> 0.16191500E+02</totfact>
</mgrwt>
</event>
<event>
 5    0  0.2754780E-002  0.5930380E+03  0.7546771E-02  0.9919956E-01
         -2   -1    0    0    0  501 -0.00000000000E+00  0.00000000000E+00  0.69416686885E+03  0.69416686885E+03  0.00000000000E+00 0. -1.
          2   -1    0    0  502    0  0.00000000000E+00 -0.00000000000E+00 -0.14338856518E+03  0.14338856518E+03  0.00000000000E+00 0.  1.
         25    1    1    2    0    0  0.28295694829E+03  0.58080295199E+02  0.23967663237E+03  0.39561072202E+03  0.12500000000E+03 0.  0.
         21    1    1    2  502  503 -0.26194259100E+03 -0.75570131683E+02  0.31232859668E+03  0.41457679395E+03  0.00000000000E+00 0. -1.
         21    1    1    2  503  501 -0.21014357291E+02  0.17489836484E+02 -0.12269253886E+01  0.27367918052E+02  0.00000000000E+00 0.  1.
<mgrwt>
<rscale>  4 0.59303797E+03</rscale>
<asrwt>0</asrwt>
<pdfrwt beam="1">  1        2 0.22059780E-01 0.59303797E+03</pdfrwt>
<pdfrwt beam="2">  1       -2 0.10679490E+00 0.59303797E+03</pdfrwt>
<totfact> 0.18113226E+02</totfact>
</mgrwt>
</event>
<event>
 5    0  0.2754780E-002  0.5352400E+03  0.7546771E-02  0.1004969E+00
          2   -1    0    0  503    0  0.00000000000E+00  0.00000000000E+00  0.13920108708E+04  0.13920108708E+04  0.00000000000E+00 0. -1.
         -2   -1    0    0    0  501 -0.00000000000E+00 -0.00000000000E+00 -0.55416273381E+02  0.55416273381E+02  0.00000000000E+00 0.  1.
         25    1    1    2    0    0  0.98610385609E+02  0.18164794239E+03  0.32255498182E+03  0.40297233083E+03  0.12500000000E+03 0.  0.
         21    1    1    2  502  501  0.42031573708E+01  0.19699887371E+02  0.43590212570E+02  0.48019357828E+02  0.00000000000E+00 0. -1.
         21    1    1    2  503  502 -0.10281354298E+03 -0.20134782976E+03  0.97044940302E+03  0.99643545551E+03  0.00000000000E+00 0. -1.
<mgrwt>
<rscale>  4 0.53523996E+03</rscale>
<asrwt>0</asrwt>
<pdfrwt beam="1">  1        2 0.21415549E+00 0.53523996E+03</pdfrwt>
<pdfrwt beam="2">  1       -2 0.85255815E-02 0.53523996E+03</pdfrwt>
<totfact> 0.13218531E+03</totfact>
</mgrwt>
</event>
<event>
 5    0  0.2754780E-002  0.3956284E+03  0.7546771E-02  0.1045304E+00
         -2   -1    0    0    0  501 -0.00000000000E+00  0.00000000000E+00  0.15538096903E+03  0.15538096903E+03  0.00000000000E+00 0. -1.
          2   -1    0    0  503    0  0.00000000000E+00 -0.00000000000E+00 -0.47933274935E+03  0.47933274935E+03  0.00000000000E+00 0.  1.
         25    1    1    2    0    0 -0.20787775180E+03 -0.53950607981E+02 -0.28956958404E+03  0.38157485740E+03  0.12500000000E+03 0.  0.
         21    1    1    2  502  501  0.72934310526E+02  0.63864769784E+02  0.32444310121E+02  0.10222893783E+03  0.00000000000E+00 0. -1.
         21    1    1    2  503  502  0.13494344127E+03 -0.99141618029E+01 -0.66826506398E+02  0.15090992315E+03  0.00000000000E+00 0. -1.
<mgrwt>
<rscale>  4 0.39562845E+03</rscale>
<asrwt>0</asrwt>
<pdfrwt beam="1">  1        2 0.73743500E-01 0.39562845E+03</pdfrwt>
<pdfrwt beam="2">  1       -2 0.23904764E-01 0.39562845E+03</pdfrwt>
<totfact> 0.10078215E+03</totfact>
</mgrwt>
</event>
<event>
 5    0  0.2754780E-002  0.1652991E+04  0.7546771E-02  0.8788639E-01
          2   -1    0    0  502    0  0.00000000000E+00  0.00000000000E+00  0.11145039773E+04  0.11145039773E+04  0.00000000000E+00 0. -1.
         -2   -1    0    0    0  501 -0.00000000000E+00 -0.00000000000E+00 -0.61291370523E+03  0.61291370523E+03  0.00000000000E+00 0.  1.
         25    1    1    2    0    0 -0.86378604717E+02 -0.22202512521E+03 -0.56860745063E+03  0.62904360142E+03  0.12500000000E+03 0.  0.
         21    1    1    2  502  503  0.29714729941E+02  0.12701003230E+03  0.69798960153E+03  0.71007323378E+03  0.00000000000E+00 0. -1.
         21    1    1    2  503  501  0.56663874776E+02  0.95015092908E+02  0.37220812117E+03  0.38830084735E+03  0.00000000000E+00 0. -1.
<mgrwt>
<rscale>  4 0.16529909E+04</rscale>
<asrwt>0</asrwt>
<pdfrwt beam="1">  1        2 0.17146215E+00 0.16529909E+04</pdfrwt>
<pdfrwt beam="2">  1       -2 0.94294416E-01 0.16529909E+04</pdfrwt>
<totfact> 0.19334260E+01</totfact>
</mgrwt>
</event>
<event>
 5    0  0.2754780E-002  0.4448694E+03  0.7546771E-02  0.1029263E+00
         -2   -1    0    0    0  501 -0.00000000000E+00  0.00000000000E+00  0.54372935159E+02  0.54372935159E+02  0.00000000000E+00 0.  1.
          2   -1    0    0  503    0  0.00000000000E+00 -0.00000000000E+00 -0.14675619007E+04  0.14675619007E+04  0.00000000000E+00 0. -1.
         25    1    1    2    0    0 -0.11512839403E+03  0.18612698232E+03 -0.47020404146E+03  0.53349286899E+03  0.12500000000E+03 0.  0.
         21    1    1    2  502  501 -0.67768960634E+01 -0.37290708506E+02 -0.54581188382E+03  0.54712625214E+03  0.00000000000E+00 0. -1.
         21    1    1    2  503  502  0.12190529009E+03 -0.14883627381E+03 -0.39717304021E+03  0.44131571468E+03  0.00000000000E+00 0. -1.
<mgrwt>
<rscale>  4 0.44486939E+03</rscale>
<asrwt>0</asrwt>
<pdfrwt beam="1">  1        2 0.22577876E+00 0.44486939E+03</pdfrwt>
<pdfrwt beam="2">  1       -2 0.83650666E-02 0.44486939E+03</pdfrwt>
<totfact> 0.12418240E+03</totfact>
</mgrwt>
</event>
<event>
 5    0  0.2754780E-002  0.4718679E+03  0.7546771E-02  0.1021394E+00
          1   -1    0    0  502    0  0.00000000000E+00  0.00000000000E+00  0.39097562873E+03  0.39097562873E+03  0.00000000000E+00 0.  1.
         -1   -1    0    0    0  501 -0.00000000000E+00 -0.00000000000E+00 -0.16966523239E+03  0.16966523239E+03  0.00000000000E+00 0. -1.
         25    1    1    2    0    0 -0.20524731861E+02  0.20422194372E+03  0.17100641704E+03  0.29495094776E+03  0.12500000000E+03 0.  0.
         21    1    1    2  502  503  0.55875599953E+02 -0.20139310459E+03  0.61951515702E+01  0.20909243207E+03  0.00000000000E+00 0. -1.
         21    1    1    2  503  501 -0.35350868092E+02 -0.28288391279E+01  0.44108827732E+02  0.56597481300E+02  0.00000000000E+00 0.  1.
<mgrwt>
<rscale>  4 0.47186792E+03</rscale>
<asrwt>0</asrwt>
<pdfrwt beam="1">  1        1 0.60150097E-01 0.47186792E+03</pdfrwt>
<pdfrwt beam="2">  1       -1 0.26102343E-01 0.47186792E+03</pdfrwt>
<totfact> 0.80914993E+02</totfact>
</mgrwt>
</event>
<event>
 5    0  0.2754780E-002  0.4824799E+03  0.7546771E-02  0.1018456E+00
         -1   -1    0    0    0  501 -0.00000000000E+00  0.00000000000E+00  0.81695212888E+02  0.81695212888E+02  0.00000000000E+00 0.  1.
          1   -1    0    0  502    0  0.00000000000E+00 -0.00000000000E+00 -0.14166654006E+04  0.14166654006E+04  0.00000000000E+00 0. -1.
         25    1    1    2    0    0 -0.18099333242E+03 -0.11379977271E+03 -0.16058321845E+03  0.29516257334E+03  0.12500000000E+03 0.  0.
         21    1    1    2  502  503  0.11564977333E+03  0.11067106184E+03 -0.48540614093E+03  0.51111845559E+03  0.00000000000E+00 0. -1.
         21    1    1    2  503  501  0.65343559094E+02  0.31287108677E+01 -0.68898082832E+03  0.69207958455E+03  0.00000000000E+00 0. -1.
<mgrwt>
<rscale>  4 0.48247989E+03</rscale>
<asrwt>0</asrwt>
<pdfrwt beam="1">  1        1 0.21794854E+00 0.48247989E+03</pdfrwt>
<pdfrwt beam="2">  1       -1 0.12568493E-01 0.48247989E+03</pdfrwt>
<totfact> 0.33946213E+02</totfact>
</mgrwt>
</event>
<event>
 5    0  0.2754780E-002  0.4636046E+03  0.7546771E-02  0.1023741E+00
          1   -1    0    0  502    0  0.00000000000E+00  0.00000000000E+00  0.20161607034E+03  0.20161607034E+03  0.00000000000E+00 0. -1.
         -1   -1    0    0    0  501 -0.00000000000E+00 -0.00000000000E+00 -0.26650804508E+03  0.26650804508E+03  0.00000000000E+00 0.  1.
         25    1    1    2    0    0  0.19850310769E+03 -0.29123987862E+02  0.37118587431E+02  0.23927908384E+03  0.12500000000E+03 0.  0.
         21    1    1    2  502  503 -0.17303768195E+03  0.29536137353E+02 -0.10268335269E+03  0.20336738604E+03  0.00000000000E+00 0. -1.
         21    1    1    2  503  501 -0.25465425733E+02 -0.41214949043E+00  0.67279051338E+00  0.25477645536E+02  0.00000000000E+00 0. -1.
<mgrwt>
<rscale>  4 0.46360459E+03</rscale>
<asrwt>0</asrwt>
<pdfrwt beam="1">  1        1 0.31017857E-01 0.46360459E+03</pdfrwt>
<pdfrwt beam="2">  1       -1 0.41001238E-01 0.46360459E+03</pdfrwt>
<totfact> 0.86027389E+02</totfact>
</mgrwt>
</event>
<event>
 5    0  0.2754780E-002  0.6809189E+03  0.7546771E-02  0.9750432E-01
         -2   -1    0    0    0  501 -0.00000000000E+00  0.00000000000E+00  0.23572622516E+03  0.23572622516E+03  0.00000000000E+00 0.  1.
          2   -1    0    0  503    0  0.00000000000E+00 -0.00000000000E+00 -0.77440872670E+03  0.77440872670E+03  0.00000000000E+00 0. -1.
         25    1    1    2    0    0  0.33215431611E+03 -0.56088265253E+02 -0.64204961283E+02  0.36499268521E+03  0.12500000000E+03 0.  0.
         21    1    1    2  502  501 -0.26439609931E+02  0.45132813996E+02 -0.27502172428E+03  0.27995173280E+03  0.00000000000E+00 0. -1.
         21    1    1    2  503  502 -0.30571470617E+03  0.10955451258E+02 -0.19945581597E+03  0.36519053384E+03  0.00000000000E+00 0. -1.
<mgrwt>
<rscale>  4 0.68091888E+03</rscale>
<asrwt>0</asrwt>
<pdfrwt beam="1">  1        2 0.11913980E+00 0.68091888E+03</pdfrwt>
<pdfrwt beam="2">  1       -2 0.36265574E-01 0.68091888E+03</pdfrwt>
<totfact> 0.26025258E+02</totfact>
</mgrwt>
</event>
<event>
 5    0  0.2754780E-002  0.5563817E+03  0.7546771E-02  0.1000028E+00
          2   -1    0    0  503    0  0.00000000000E+00  0.00000000000E+00  0.16777234338E+03  0.16777234338E+03  0.00000000000E+00 0.  1.
         -2   -1    0    0    0  501 -0.00000000000E+00 -0.00000000000E+00 -0.57248966427E+03  0.57248966427E+03  0.00000000000E+00 0. -1.
         25    1    1    2    0    0  0.50222998442E+02  0.21491539640E+03 -0.31628239665E+02  0.25560970781E+03  0.12500000000E+03 0.  0.
         21    1    1    2  502  501  0.14293351615E+02 -0.21767701012E+02  0.25882890186E+02  0.36715891820E+02  0.00000000000E+00 0. -1.
         21    1    1    2  503  502 -0.64516350057E+02 -0.19314769538E+03 -0.39897197142E+03  0.44793640802E+03  0.00000000000E+00 0. -1.
<mgrwt>
<rscale>  4 0.55638170E+03</rscale>
<asrwt>0</asrwt>
<pdfrwt beam="1">  1        2 0.25811130E-01 0.55638170E+03</pdfrwt>
<pdfrwt beam="2">  1       -2 0.88075332E-01 0.55638170E+03</pdfrwt>
<totfact> 0.23765061E+02</totfact>
</mgrwt>
</event>
<event>
 5    0  0.2754780E-002  0.6055177E+03  0.7546771E-02  0.9894024E-01
         -2   -1    0    0    0  501 -0.00000000000E+00  0.00000000000E+00  0.49273764300E+03  0.49273764300E+03  0.00000000000E+00 0.  1.
          2   -1    0    0  503    0  0.00000000000E+00 -0.00000000000E+00 -0.19918535281E+03  0.19918535281E+03  0.00000000000E+00 0. -1.
         25    1    1    2    0    0 -0.88865999419E+02 -0.18725834795E+03  0.38291628752E+03  0.45300412578E+03  0.12500000000E+03 0.  0.
         21    1    1    2  502  501  0.13379342895E+02  0.15801470309E+02  0.13964352008E+02  0.24973914535E+02  0.00000000000E+00 0.  1.
         21    1    1    2  503  502  0.75486656525E+02  0.17145687765E+03 -0.10332834933E+03  0.21394495549E+03  0.00000000000E+00 0. -1.
<mgrwt>
<rscale>  4 0.60551768E+03</rscale>
<asrwt>0</asrwt>
<pdfrwt beam="1">  1        2 0.30643901E-01 0.60551768E+03</pdfrwt>
<pdfrwt beam="2">  1       -2 0.75805791E-01 0.60551768E+03</pdfrwt>
<totfact> 0.27394974E+02</totfact>
</mgrwt>
</event>
<event>
 5    0  0.2754780E-002  0.6724015E+03  0.7546771E-02  0.9765629E-01
          2   -1    0    0  503    0  0.00000000000E+00  0.00000000000E+00  0.37050429344E+03  0.37050429344E+03  0.00000000000E+00 0. -1.
         -2   -1    0    0    0  501 -0.00000000000E+00 -0.00000000000E+00 -0.35076096781E+03  0.35076096781E+03  0.00000000000E+00 0.  1.
         25    1    1    2    0    0 -0.18871504599E+03 -0.22183980091E+03  0.14910975201E+03  0.35026416317E+03  0.12500000000E+03 0.  0.
         21    1    1    2  502  501  0.66805876321E+01  0.19543311942E+02  0.43808721667E+02  0.48433205416E+02  0.00000000000E+00 0. -1.
         21    1    1    2  503  502  0.18203445836E+03  0.20229648897E+03 -0.17317514804E+03  0.32256789267E+03  0.00000000000E+00 0.  1.
<mgrwt>
<rscale>  4 0.67240154E+03</rscale>
<asrwt>0</asrwt>
<pdfrwt beam="1">  1        2 0.57000660E-01 0.67240154E+03</pdfrwt>
<pdfrwt beam="2">  1       -2 0.53963226E-01 0.67240154E+03</pdfrwt>
<totfact> 0.28335146E+02</totfact>
</mgrwt>
</event>
<event>
 5    0  0.2754780E-002  0.5876291E+03  0.7546771E-02  0.9931409E-01
         -1   -1    0    0    0  501 -0.00000000000E+00  0.00000000000E+00  0.38992712423E+03  0.38992712423E+03  0.00000000000E+00 0. -1.
          1   -1    0    0  502    0  0.00000000000E+00 -0.00000000000E+00 -0.66313092969E+03  0.66313092969E+03  0.00000000000E+00 0.  1.
         25    1    1    2    0    0 -0.23351183069E+03 -0.27362487221E+02 -0.24409416277E+02  0.26738979110E+03  0.12500000000E+03 0.  0.
         21    1    1    2  502  503  0.27881693405E+03  0.62381242292E+02  0.19002260277E+03  0.34313101239E+03  0.00000000000E+00 0. -1.
         21    1    1    2  503  501 -0.45305103365E+02 -0.35018755071E+02 -0.43881699195E+03  0.44253725043E+03  0.00000000000E+00 0.  1.
<mgrwt>
<rscale>  4 0.58762907E+03</rscale>
<asrwt>0</asrwt>
<pdfrwt beam="1">  1        1 0.10202014E+00 0.58762907E+03</pdfrwt>
<pdfrwt beam="2">  1       -1 0.59988788E-01 0.58762907E+03</pdfrwt>
<totfact> 0.86074360E+01</totfact>
</mgrwt>
</event>
<event>
 5    0  0.2754780E-002  0.1011712E+04  0.7546771E-02  0.9295791E-01
         -2   -1    0    0    0  501 -0.00000000000E+00  0.00000000000E+00  0.38441361443E+03  0.38441361443E+03  0.00000000000E+00 0. -1.
          2   -1    0    0  503    0  0.00000000000E+00 -0.00000000000E+00 -0.76720126299E+03  0.76720126299E+03  0.00000000000E+00 0.  1.
         25    1    1    2    0    0  0.12267571585E+03 -0.39910526119E+03 -0.41335637217E+03  0.60068530129E+03  0.12500000000E+03 0.  0.
         21    1    1    2  502  501  0.18942537781E+02 -0.82273413218E+01 -0.98609536919E+02  0.10074894369E+03  0.00000000000E+00 0. -1.
         21    1    1    2  503  502 -0.14161825364E+03  0.40733260251E+03  0.12917826053E+03  0.45018063244E+03  0.00000000000E+00 0. -1.
<mgrwt>
<rscale>  4 0.10117124E+04</rscale>
<asrwt>0</asrwt>
<pdfrwt beam="1">  1        2 0.11803096E+00 0.10117124E+04</pdfrwt>
<pdfrwt beam="2">  1       -2 0.59140556E-01 0.10117124E+04</pdfrwt>
<totfact> 0.96968448E+01</totfact>
</mgrwt>
</event>
<event>
 5    0  0.2754780E-002  0.5689402E+03  0.7546771E-02  0.9972027E-01
         -2   -1    0    0    0  501 -0.00000000000E+00  0.00000000000E+00  0.28326742948E+03  0.28326742948E+03  0.00000000000E+00 0. -1.
          2   -1    0    0  503    0  0.00000000000E+00 -0.00000000000E+00 -0.39206991137E+03  0.39206991137E+03  0.00000000000E+00 0.  1.
         25    1    1    2    0    0  0.19806581607E+03 -0.60776683975E+02 -0.18880690972E+03  0.30691517064E+03  0.12500000000E+03 0.  0.
         21    1    1    2  502  501 -0.21273638340E+02  0.18277034817E+01 -0.10421377399E+03  0.10637865800E+03  0.00000000000E+00 0.  1.
         21    1    1    2  503  502 -0.17679217773E+03  0.58948980494E+02  0.18421820183E+03  0.26204351221E+03  0.00000000000E+00 0.  1.
<mgrwt>
<rscale>  4 0.56894018E+03</rscale>
<asrwt>0</asrwt>
<pdfrwt beam="1">  1        2 0.60318448E-01 0.56894018E+03</pdfrwt>
<pdfrwt beam="2">  1       -2 0.43579604E-01 0.56894018E+03</pdfrwt>
<totfact> 0.41058783E+02</totfact>
</mgrwt>
</event>
<event>
 5    0  0.2754780E-002  0.4202728E+03  0.7546771E-02  0.1036978E+00
         -1   -1    0    0    0  501 -0.00000000000E+00  0.00000000000E+00  0.82726817645E+02  0.82726817645E+02  0.00000000000E+00 0. -1.
          1   -1    0    0  502    0  0.00000000000E+00 -0.00000000000E+00 -0.10251624179E+04  0.10251624179E+04  0.00000000000E+00 0.  1.
         25    1    1    2    0    0  0.56280589824E+02 -0.19967564270E+03 -0.36997879453E+03  0.44220716353E+03  0.12500000000E+03 0.  0.
         21    1    1    2  502  503 -0.16092995174E+02  0.15729398746E+03 -0.94568366057E+02  0.18423777801E+03  0.00000000000E+00 0. -1.
         21    1    1    2  503  501 -0.40187594650E+02  0.42381655231E+02 -0.47788843966E+03  0.48144429400E+03  0.00000000000E+00 0.  1.
<mgrwt>
<rscale>  4 0.42027277E+03</rscale>
<asrwt>0</asrwt>
<pdfrwt beam="1">  1        1 0.15771730E+00 0.42027277E+03</pdfrwt>
<pdfrwt beam="2">  1       -1 0.12727202E-01 0.42027277E+03</pdfrwt>
<totfact> 0.63534088E+02</totfact>
</mgrwt>
</event>
<event>
 5    0  0.2754780E-002  0.5926252E+03  0.7546771E-02  0.9920826E-01
          2   -1    0    0  502    0  0.00000000000E+00  0.00000000000E+00  0.19983841664E+04  0.19983841664E+04  0.00000000000E+00 0.  1.
         -2   -1    0    0    0  501 -0.00000000000E+00 -0.00000000000E+00 -0.57230703881E+02  0.57230703881E+02  0.00000000000E+00 0. -1.
         25    1    1    2    0    0 -0.24466947428E+03  0.15513897583E+03  0.83642192983E+03  0.89395631782E+03  0.12500000000E+03 0.  0.
         21    1    1    2  502  503  0.26492633658E+03 -0.80586599068E+02  0.77462424664E+03  0.82263168384E+03  0.00000000000E+00 0.  1.
         21    1    1    2  503  501 -0.20256862298E+02 -0.74552376767E+02  0.33010728606E+03  0.33902686864E+03  0.00000000000E+00 0. -1.
<mgrwt>
<rscale>  4 0.59262516E+03</rscale>
<asrwt>0</asrwt>
<pdfrwt beam="1">  1        2 0.30744366E+00 0.59262516E+03</pdfrwt>
<pdfrwt beam="2">  1       -2 0.88047252E-02 0.59262516E+03</pdfrwt>
<totfact> 0.58464947E+02</totfact>
</mgrwt>
</event>
<event>
 5    0  0.2754780E-002  0.4336245E+03  0.7546771E-02  0.1032721E+00
          1   -1    0    0  503    0  0.00000000000E+00  0.00000000000E+00  0.26995686141E+03  0.26995686141E+03  0.00000000000E+00 0.  1.
         -1   -1    0    0    0  501 -0.00000000000E+00 -0.00000000000E+00 -0.23663529101E+03  0.23663529101E+03  0.00000000000E+00 0. -1.
         25    1    1    2    0    0 -0.17465766958E+02  0.21230095006E+03  0.26155331001E+02  0.24836635793E+03  0.12500000000E+03 0.  0.
         21    1    1    2  502  501 -0.20599440385E+02 -0.37563685288E+02  0.58184884482E+02  0.72255437019E+02  0.00000000000E+00 0. -1.
         21    1    1    2  503  502  0.38065207343E+02 -0.17473726477E+03 -0.51018645084E+02  0.18597035747E+03  0.00000000000E+00 0.  1.
<mgrwt>
<rscale>  4 0.43362449E+03</rscale>
<asrwt>0</asrwt>
<pdfrwt beam="1">  1        1 0.41531825E-01 0.43362449E+03</pdfrwt>
<pdfrwt beam="2">  1       -1 0.36405429E-01 0.43362449E+03</pdfrwt>
<totfact> 0.73267236E+02</totfact>
</mgrwt>
</event>
<event>
 5    0  0.2754780E-002  0.8830961E+03  0.7546771E-02  0.9446962E-01
         -1   -1    0    0    0  501 -0.00000000000E+00  0.00000000000E+00  0.23480015715E+03  0.23480015715E+03  0.00000000000E+00 0.  1.
          1   -1    0    0  503    0  0.00000000000E+00 -0.00000000000E+00 -0.10148132235E+04  0.10148132235E+04  0.00000000000E+00 0. -1.
         25    1    1    2    0    0  0.22574772154E+03  0.47238497418E+02  0.11887579177E+03  0.28801035275E+03  0.12500000000E+03 0.  0.
         21    1    1    2  502  501 -0.17291526722E+03  0.29503832851E+02 -0.82285884463E+03  0.84134822991E+03  0.00000000000E+00 0. -1.
         21    1    1    2  503  502 -0.52832454325E+02 -0.76742330269E+02 -0.76030013475E+02  0.12025479797E+03  0.00000000000E+00 0. -1.
<mgrwt>
<rscale>  4 0.88309607E+03</rscale>
<asrwt>0</asrwt>
<pdfrwt beam="1">  1        1 0.15612511E+00 0.88309607E+03</pdfrwt>
<pdfrwt beam="2">  1       -1 0.36123100E-01 0.88309607E+03</pdfrwt>
<totfact> 0.10895194E+02</totfact>
</mgrwt>
</event>
<event>
 5    0  0.2754780E-002  0.4142148E+03  0.7546771E-02  0.1038966E+00
          2   -1    0    0  503    0  0.00000000000E+00  0.00000000000E+00  0.10406206500E+04  0.10406206500E+04  0.00000000000E+00 0. -1.
         -2   -1    0    0    0  501 -0.00000000000E+00 -0.00000000000E+00 -0.15810665464E+03  0.15810665464E+03  0.00000000000E+00 0.  1.
         25    1    1    2    0    0  0.80417687517E+01 -0.20159815908E+03  0.11976395843E+03  0.26584750051E+03  0.12500000000E+03 0.  0.
         21    1    1    2  502  501 -0.84582112665E+01  0.37777379257E+02  0.76799933575E+03  0.76897441533E+03  0.00000000000E+00 0. -1.
         21    1    1    2  503  502  0.41644251481E+00  0.16382077982E+03 -0.52492988551E+01  0.16390538876E+03  0.00000000000E+00 0.  1.
<mgrwt>
<rscale>  4 0.41421485E+03</rscale>
<asrwt>0</asrwt>
<pdfrwt beam="1">  1        2 0.16009548E+00 0.41421485E+03</pdfrwt>
<pdfrwt beam="2">  1       -2 0.24324101E-01 0.41421485E+03</pdfrwt>
<totfact> 0.36752079E+02</totfact>
</mgrwt>
</event>
<event>
 5    0  0.2754780E-002  0.6641726E+03  0.7546771E-02  0.9780543E-01
          2   -1    0    0  503    0  0.00000000000E+00  0.00000000000E+00  0.12161047271E+04  0.12161047271E+04  0.00000000000E+00 0. -1.
         -2   -1    0    0    0  501 -0.00000000000E+00 -0.00000000000E+00 -0.13233453580E+03  0.13233453580E+03  0.00000000000E+00 0.  1.
         25    1    1    2    0    0 -0.17681871123E+03  0.27728462567E+03  0.51921527206E+03  0.62718507557E+03  0.12500000000E+03 0.  0.
         21    1    1    2  502  501  0.77006512785E+02 -0.29144510338E+01  0.35142998642E+03  0.35977983878E+03  0.00000000000E+00 0. -1.
         21    1    1    2  503  502  0.99812198445E+02 -0.27437017464E+03  0.21312493286E+03  0.36147434860E+03  0.00000000000E+00 0.  1.
<mgrwt>
<rscale>  4 0.66417263E+03</rscale>
<asrwt>0</asrwt>
<pdfrwt beam="1">  1        2 0.18709303E+00 0.66417263E+03</pdfrwt>
<pdfrwt beam="2">  1       -2 0.20359160E-01 0.66417263E+03</pdfrwt>
<totfact> 0.38830832E+02</totfact>
</mgrwt>
</event>
<event>
 5    0  0.2754780E-002  0.4231750E+03  0.7546771E-02  0.1036038E+00
         -2   -1    0    0    0  501 -0.00000000000E+00  0.00000000000E+00  0.39328229632E+02  0.39328229632E+02  0.00000000000E+00 0.  1.
          2   -1    0    0  502    0  0.00000000000E+00 -0.00000000000E+00 -0.15232379002E+04  0.15232379002E+04  0.00000000000E+00 0. -1.
         25    1    1    2    0    0  0.19112487120E+03  0.63151210134E+02 -0.54836457070E+03  0.59736546111E+03  0.12500000000E+03 0.  0.
         21    1    1    2  502  503 -0.16665695362E+03 -0.74054515335E+02 -0.56532204735E+03  0.59400978835E+03  0.00000000000E+00 0.  1.
         21    1    1    2  503  501 -0.24467917587E+02  0.10903305201E+02 -0.37022305253E+03  0.37119088038E+03  0.00000000000E+00 0. -1.
<mgrwt>
<rscale>  4 0.42317503E+03</rscale>
<asrwt>0</asrwt>
<pdfrwt beam="1">  1        2 0.23434424E+00 0.42317503E+03</pdfrwt>
<pdfrwt beam="2">  1       -2 0.60504982E-02 0.42317503E+03</pdfrwt>
<totfact> 0.19286181E+03</totfact>
</mgrwt>
</event>
<event>
 5    0  0.2754780E-002  0.9114117E+03  0.7546771E-02  0.9411428E-01
         -1   -1    0    0    0  501 -0.00000000000E+00  0.00000000000E+00  0.11358552656E+04  0.11358552656E+04  0.00000000000E+00 0. -1.
          1   -1    0    0  502    0  0.00000000000E+00 -0.00000000000E+00 -0.20457054127E+03  0.20457054127E+03  0.00000000000E+00 0.  1.
         25    1    1    2    0    0  0.40441023228E+03  0.19333215943E+03  0.34017905579E+03  0.57643017777E+03  0.12500000000E+03 0.  0.
         21    1    1    2  502  503 -0.38140087435E+03 -0.17768373881E+03  0.60169946719E+03  0.73422093869E+03  0.00000000000E+00 0. -1.
         21    1    1    2  503  501 -0.23009357933E+02 -0.15648420617E+02 -0.10593798639E+02  0.29774690425E+02  0.00000000000E+00 0. -1.
<mgrwt>
<rscale>  4 0.91141165E+03</rscale>
<asrwt>0</asrwt>
<pdfrwt beam="1">  1        1 0.31472392E-01 0.91141165E+03</pdfrwt>
<pdfrwt beam="2">  1       -1 0.17474696E+00 0.91141165E+03</pdfrwt>
<totfact> 0.33121614E+01</totfact>
</mgrwt>
</event>
<event>
 5    0  0.2754780E-002  0.5593315E+03  0.7546771E-02  0.9993568E-01
         -1   -1    0    0    0  501 -0.00000000000E+00  0.00000000000E+00  0.23158936009E+03  0.23158936009E+03  0.00000000000E+00 0.  1.
          1   -1    0    0  502    0  0.00000000000E+00 -0.00000000000E+00 -0.47249044813E+03  0.47249044813E+03  0.00000000000E+00 0. -1.
         25    1    1    2    0    0 -0.16146275409E+03 -0.22200482073E+03 -0.16221614608E+03  0.34248421779E+03  0.12500000000E+03 0.  0.
         21    1    1    2  502  503  0.12857599250E+03  0.18458560029E+03  0.43970363034E+02  0.22920956024E+03  0.00000000000E+00 0.  1.
         21    1    1    2  503  501  0.32886761587E+02  0.37419220444E+02 -0.12265530499E+03  0.13238603019E+03  0.00000000000E+00 0. -1.
<mgrwt>
<rscale>  4 0.55933149E+03</rscale>
<asrwt>0</asrwt>
<pdfrwt beam="1">  1        1 0.72690837E-01 0.55933149E+03</pdfrwt>
<pdfrwt beam="2">  1       -1 0.35629133E-01 0.55933149E+03</pdfrwt>
<totfact> 0.36593203E+02</totfact>
</mgrwt>
</event>
<event>
 5    0  0.2754780E-002  0.4809765E+03  0.7546771E-02  0.1018867E+00
          1   -1    0    0  502    0  0.00000000000E+00  0.00000000000E+00  0.77251974328E+03  0.77251974328E+03  0.00000000000E+00 0. -1.
         -1   -1    0    0    0  501 -0.00000000000E+00 -0.00000000000E+00 -0.14739889099E+03  0.14739889099E+03  0.00000000000E+00 0.  1.
         25    1    1    2    0    0  0.18309104251E+03  0.13926476560E+03  0.14426010909E+03  0.29891969467E+03  0.12500000000E+03 0.  0.
         21    1    1    2  502  503 -0.13805748432E+03 -0.17002301390E+03  0.10804555007E+03  0.24421616474E+03  0.00000000000E+00 0.  1.
         21    1    1    2  503  501 -0.45033558191E+02  0.30758248294E+02  0.37281519313E+03  0.37678277486E+03  0.00000000000E+00 0. -1.
<mgrwt>
<rscale>  4 0.48097652E+03</rscale>
<asrwt>0</asrwt>
<pdfrwt beam="1">  1        1 0.11884919E+00 0.48097652E+03</pdfrwt>
<pdfrwt beam="2">  1       -1 0.22676753E-01 0.48097652E+03</pdfrwt>
<totfact> 0.39501075E+02</totfact>
</mgrwt>
</event>
<event>
 5    0  0.2754780E-002  0.4828075E+03  0.7546771E-02  0.1018366E+00
          3   -1    0    0  503    0  0.00000000000E+00  0.00000000000E+00  0.10481946121E+04  0.10481946121E+04  0.00000000000E+00 0.  1.
         -3   -1    0    0    0  501 -0.00000000000E+00 -0.00000000000E+00 -0.78296996398E+02  0.78296996398E+02  0.00000000000E+00 0. -1.
         25    1    1    2    0    0 -0.80037736937E+02 -0.19618564425E+03  0.44662074105E+03  0.50989207945E+03  0.12500000000E+03 0.  0.
         21    1    1    2  502  501 -0.35198033652E+02  0.35363334442E+01  0.29257019524E+03  0.29470107969E+03  0.00000000000E+00 0.  1.
         21    1    1    2  503  502  0.11523577059E+03  0.19264931081E+03  0.23070667942E+03  0.32189844937E+03  0.00000000000E+00 0. -1.
<mgrwt>
<rscale>  4 0.48280747E+03</rscale>
<asrwt>0</asrwt>
<pdfrwt beam="1">  1        3 0.16126070E+00 0.48280747E+03</pdfrwt>
<pdfrwt beam="2">  1       -3 0.12045693E-01 0.48280747E+03</pdfrwt>
<totfact> 0.39414836E+01</totfact>
</mgrwt>
</event>
<event>
 5    0  0.2754780E-002  0.6412375E+03  0.7546771E-02  0.9823362E-01
         -2   -1    0    0    0  501 -0.00000000000E+00  0.00000000000E+00  0.66451594648E+02  0.66451594648E+02  0.00000000000E+00 0. -1.
          2   -1    0    0  502    0  0.00000000000E+00 -0.00000000000E+00 -0.17026341754E+04  0.17026341754E+04  0.00000000000E+00 0.  1.
         25    1    1    2    0    0  0.28336291383E+03 -0.88919122537E+02 -0.93934451000E+03  0.99307313918E+03  0.12500000000E+03 0.  0.
         21    1    1    2  502  503 -0.29642000500E+03  0.72115380739E+02 -0.56158391439E+03  0.63909462555E+03  0.00000000000E+00 0. -1.
         21    1    1    2  503  501  0.13057091163E+02  0.16803741798E+02 -0.13525415636E+03  0.13691800532E+03  0.00000000000E+00 0. -1.
<mgrwt>
<rscale>  4 0.64123746E+03</rscale>
<asrwt>0</asrwt>
<pdfrwt beam="1">  1        2 0.26194376E+00 0.64123746E+03</pdfrwt>
<pdfrwt beam="2">  1       -2 0.10223321E-01 0.64123746E+03</pdfrwt>
<totfact> 0.66197939E+02</totfact>
</mgrwt>
</event>
<event>
 5    0  0.2754780E-002  0.5074277E+03  0.7546771E-02  0.1011858E+00
         -1   -1    0    0    0  501 -0.00000000000E+00  0.00000000000E+00  0.13542673551E+03  0.13542673551E+03  0.00000000000E+00 0. -1.
          1   -1    0    0  502    0  0.00000000000E+00 -0.00000000000E+00 -0.56459057414E+03  0.56459057414E+03  0.00000000000E+00 0.  1.
         25    1    1    2    0    0 -0.22373059991E+03 -0.46988181450E+02 -0.12646116128E+03  0.28962164257E+03  0.12500000000E+03 0.  0.
         21    1    1    2  502  503  0.23701576719E+03  0.31571450196E+02 -0.21896504333E+03  0.32422048141E+03  0.00000000000E+00 0. -1.
         21    1    1    2  503  501 -0.13285167280E+02  0.15416731254E+02 -0.83737634022E+02  0.86175185662E+02  0.00000000000E+00 0. -1.
<mgrwt>
<rscale>  4 0.50742772E+03</rscale>
<asrwt>0</asrwt>
<pdfrwt beam="1">  1        1 0.86860087E-01 0.50742772E+03</pdfrwt>
<pdfrwt beam="2">  1       -1 0.20834883E-01 0.50742772E+03</pdfrwt>
<totfact> 0.71994642E+02</totfact>
</mgrwt>
</event>
<event>
 5    0  0.2754780E-002  0.4932586E+03  0.7546771E-02  0.1015554E+00
         -2   -1    0    0    0  501 -0.00000000000E+00  0.00000000000E+00  0.19493696966E+03  0.19493696966E+03  0.00000000000E+00 0.  1.
          2   -1    0    0  503    0  0.00000000000E+00 -0.00000000000E+00 -0.10318885641E+04  0.10318885641E+04  0.00000000000E+00 0. -1.
         25    1    1    2    0    0  0.12240036397E+03  0.18756201147E+03 -0.52641430298E+02  0.26183482853E+03  0.12500000000E+03 0.  0.
         21    1    1    2  502  501 -0.78385896332E+02  0.44503317511E+02 -0.71240668683E+03  0.71808647212E+03  0.00000000000E+00 0. -1.
         21    1    1    2  503  502 -0.44014467635E+02 -0.23206532898E+03 -0.71903477307E+02  0.24690423311E+03  0.00000000000E+00 0. -1.
<mgrwt>
<rscale>  4 0.49325855E+03</rscale>
<asrwt>0</asrwt>
<pdfrwt beam="1">  1        2 0.15875209E+00 0.49325855E+03</pdfrwt>
<pdfrwt beam="2">  1       -2 0.29990303E-01 0.49325855E+03</pdfrwt>
<totfact> 0.25307727E+02</totfact>
</mgrwt>
</event>
<event>
 5    0  0.2754780E-002  0.9818525E+03  0.7546771E-02  0.9328676E-01
         -2   -1    0    0    0  501 -0.00000000000E+00  0.00000000000E+00  0.30824720182E+03  0.30824720182E+03  0.00000000000E+00 0. -1.
          2   -1    0    0  502    0  0.00000000000E+00 -0.00000000000E+00 -0.13048520560E+04  0.13048520560E+04  0.00000000000E+00 0.  1.
         25    1    1    2    0    0 -0.19422787474E+03 -0.41122323036E+03 -0.41540583960E+03  0.62850300245E+03  0.12500000000E+03 0.  0.
         21    1    1    2  502  503  0.11513753795E+03  0.44732146355E+03 -0.71340274754E+02  0.46737841114E+03  0.00000000000E+00 0.  1.
         21    1    1    2  503  501  0.79090336790E+02 -0.36098233196E+02 -0.50985873982E+03  0.51721784423E+03  0.00000000000E+00 0. -1.
<mgrwt>
<rscale>  4 0.98185248E+03</rscale>
<asrwt>0</asrwt>
<pdfrwt beam="1">  1        2 0.20074647E+00 0.98185248E+03</pdfrwt>
<pdfrwt beam="2">  1       -2 0.47422646E-01 0.98185248E+03</pdfrwt>
<totfact> 0.69159373E+01</totfact>
</mgrwt>
</event>
<event>
 5    0  0.2754780E-002  0.7056523E+03  0.7546771E-02  0.9707615E-01
         -1   -1    0    0    0  501 -0.00000000000E+00  0.00000000000E+00  0.13257370271E+03  0.13257370271E+03  0.00000000000E+00 0. -1.
          1   -1    0    0  502    0  0.00000000000E+00 -0.00000000000E+00 -0.20725588220E+04  0.20725588220E+04  0.00000000000E+00 0.  1.
         25    1    1    2    0    0  0.27180017685E+03 -0.24035665072E+03 -0.41147397605E+03  0.56265663477E+03  0.12500000000E+03 0.  0.
         21    1    1    2  502  503 -0.26339065474E+03  0.18297757840E+03 -0.40100229668E+03  0.51347665297E+03  0.00000000000E+00 0. -1.
         21    1    1    2  503  501 -0.84095221161E+01  0.57379072320E+02 -0.11275088465E+04  0.11289992369E+04  0.00000000000E+00 0.  1.
<mgrwt>
<rscale>  4 0.70565229E+03</rscale>
<asrwt>0</asrwt>
<pdfrwt beam="1">  1        1 0.31885518E+00 0.70565229E+03</pdfrwt>
<pdfrwt beam="2">  1       -1 0.20395956E-01 0.70565229E+03</pdfrwt>
<totfact> 0.54726351E+01</totfact>
</mgrwt>
</event>
<event>
 5    0  0.2754780E-002  0.5240654E+03  0.7546771E-02  0.1007682E+00
         -2   -1    0    0    0  501 -0.00000000000E+00  0.00000000000E+00  0.61080204933E+02  0.61080204933E+02  0.00000000000E+00 0.  1.
          2   -1    0    0  502    0  0.00000000000E+00 -0.00000000000E+00 -0.23674056372E+04  0.23674056372E+04  0.00000000000E+00 0. -1.
         25    1    1    2    0    0  0.15655184560E+03 -0.20336971585E+03 -0.84301571823E+03  0.89003832663E+03  0.12500000000E+03 0.  0.
         21    1    1    2  502  503 -0.71946057235E+02  0.18996606319E+03 -0.25002480519E+03  0.32214242739E+03  0.00000000000E+00 0.  1.
         21    1    1    2  503  501 -0.84605788370E+02  0.13403652657E+02 -0.12132849089E+04  0.12163050881E+04  0.00000000000E+00 0. -1.
<mgrwt>
<rscale>  4 0.52406545E+03</rscale>
<asrwt>0</asrwt>
<pdfrwt beam="1">  1        2 0.36421621E+00 0.52406545E+03</pdfrwt>
<pdfrwt beam="2">  1       -2 0.93969557E-02 0.52406545E+03</pdfrwt>
<totfact> 0.33342018E+02</totfact>
</mgrwt>
</event>
<event>
 5    0  0.2754780E-002  0.1108783E+04  0.7546771E-02  0.9196674E-01
          4   -1    0    0  502    0  0.00000000000E+00  0.00000000000E+00  0.16064701962E+04  0.16064701962E+04  0.00000000000E+00 0.  1.
         -4   -1    0    0    0  501 -0.00000000000E+00 -0.00000000000E+00 -0.19131987708E+03  0.19131987708E+03  0.00000000000E+00 0. -1.
         25    1    1    2    0    0 -0.48385309310E+03 -0.20537198773E+03  0.48563910179E+03  0.72647216480E+03  0.12500000000E+03 0.  0.
         21    1    1    2  502  503  0.46088126695E+03  0.18068823884E+03  0.83191789748E+03  0.96806361879E+03  0.00000000000E+00 0. -1.
         21    1    1    2  503  501  0.22971826148E+02  0.24683748897E+02  0.97593319837E+02  0.10325428966E+03  0.00000000000E+00 0.  1.
<mgrwt>
<rscale>  4 0.11087825E+04</rscale>
<asrwt>0</asrwt>
<pdfrwt beam="1">  1        4 0.24714925E+00 0.11087825E+04</pdfrwt>
<pdfrwt beam="2">  1       -4 0.29433828E-01 0.11087825E+04</pdfrwt>
<totfact> 0.14637454E+00</totfact>
</mgrwt>
</event>
<event>
 5    0  0.2754780E-002  0.6281935E+03  0.7546771E-02  0.9848580E-01
         -2   -1    0    0    0  501 -0.00000000000E+00  0.00000000000E+00  0.12815032266E+03  0.12815032266E+03  0.00000000000E+00 0. -1.
          2   -1    0    0  503    0  0.00000000000E+00 -0.00000000000E+00 -0.11989002919E+04  0.11989002919E+04  0.00000000000E+00 0.  1.
         25    1    1    2    0    0 -0.98421714449E+02 -0.20111768281E+03 -0.41129890916E+02  0.25971489010E+03  0.12500000000E+03 0.  0.
         21    1    1    2  502  501 -0.17699966778E+02  0.21329143863E+02 -0.42588209830E+03  0.42678306299E+03  0.00000000000E+00 0. -1.
         21    1    1    2  503  502  0.11612168123E+03  0.17978853894E+03 -0.60373798007E+03  0.64055266151E+03  0.00000000000E+00 0.  1.
<mgrwt>
<rscale>  4 0.62819352E+03</rscale>
<asrwt>0</asrwt>
<pdfrwt beam="1">  1        2 0.18444620E+00 0.62819352E+03</pdfrwt>
<pdfrwt beam="2">  1       -2 0.19715434E-01 0.62819352E+03</pdfrwt>
<totfact> 0.42126579E+02</totfact>
</mgrwt>
</event>
<event>
 5    0  0.2754780E-002  0.8519874E+03  0.7546771E-02  0.9487673E-01
          2   -1    0    0  503    0  0.00000000000E+00  0.00000000000E+00  0.35606014261E+03  0.35606014261E+03  0.00000000000E+00 0.  1.
         -2   -1    0    0    0  501 -0.00000000000E+00 -0.00000000000E+00 -0.60414516327E+03  0.60414516327E+03  0.00000000000E+00 0. -1.
         25    1    1    2    0    0  0.29597505328E+03 -0.17226183561E+03 -0.41960901452E+03  0.55585258588E+03  0.12500000000E+03 0.  0.
         21    1    1    2  502  501 -0.36896385493E+02 -0.16075139877E+02  0.43916017135E+02  0.59568195755E+02  0.00000000000E+00 0. -1.
         21    1    1    2  503  502 -0.25907866778E+03  0.18833697549E+03  0.12760797672E+03  0.34478452424E+03  0.00000000000E+00 0.  1.
<mgrwt>
<rscale>  4 0.85198744E+03</rscale>
<asrwt>0</asrwt>
<pdfrwt beam="1">  1        2 0.54778483E-01 0.85198744E+03</pdfrwt>
<pdfrwt beam="2">  1       -2 0.92945410E-01 0.85198744E+03</pdfrwt>
<totfact> 0.89401158E+01</totfact>
</mgrwt>
</event>
<event>
 5    0  0.2754780E-002  0.5669013E+03  0.7546771E-02  0.9976559E-01
         -1   -1    0    0    0  501 -0.00000000000E+00  0.00000000000E+00  0.46996460623E+03  0.46996460623E+03  0.00000000000E+00 0.  1.
          1   -1    0    0  502    0  0.00000000000E+00 -0.00000000000E+00 -0.20717408917E+03  0.20717408917E+03  0.00000000000E+00 0. -1.
         25    1    1    2    0    0  0.24657043482E+03  0.76039569181E+02  0.30857552662E+01  0.28672899625E+03  0.12500000000E+03 0.  0.
         21    1    1    2  502  503 -0.19710341134E+03 -0.82714240847E+02  0.26471543159E+03  0.34024353061E+03  0.00000000000E+00 0.  1.
         21    1    1    2  503  501 -0.49467023482E+02  0.66746716663E+01 -0.50106697942E+01  0.50166168539E+02  0.00000000000E+00 0.  1.
<mgrwt>
<rscale>  4 0.56690129E+03</rscale>
<asrwt>0</asrwt>
<pdfrwt beam="1">  1        1 0.31872937E-01 0.56690129E+03</pdfrwt>
<pdfrwt beam="2">  1       -1 0.72302247E-01 0.56690129E+03</pdfrwt>
<totfact> 0.27893525E+02</totfact>
</mgrwt>
</event>
<event>
 5    0  0.2754780E-002  0.5267196E+03  0.7546771E-02  0.1007031E+00
          2   -1    0    0  502    0  0.00000000000E+00  0.00000000000E+00  0.23126409432E+04  0.23126409432E+04  0.00000000000E+00 0. -1.
         -2   -1    0    0    0  501 -0.00000000000E+00 -0.00000000000E+00 -0.11975138519E+03  0.11975138519E+03  0.00000000000E+00 0.  1.
         25    1    1    2    0    0 -0.39155559080E+02 -0.24077167371E+03  0.11830353946E+04  0.12143730487E+04  0.12500000000E+03 0.  0.
         21    1    1    2  502  503  0.99304110252E+02 -0.45668123238E+01 -0.61762278103E+02  0.11703307688E+03  0.00000000000E+00 0.  1.
         21    1    1    2  503  501 -0.60148551172E+02  0.24533848604E+03  0.10716164415E+04  0.11009862028E+04  0.00000000000E+00 0. -1.
<mgrwt>
<rscale>  4 0.52671962E+03</rscale>
<asrwt>0</asrwt>
<pdfrwt beam="1">  1        2 0.35579088E+00 0.52671962E+03</pdfrwt>
<pdfrwt beam="2">  1       -2 0.18423292E-01 0.52671962E+03</pdfrwt>
<totfact> 0.11681363E+02</totfact>
</mgrwt>
</event>
<event>
 5    0  0.2754780E-002  0.4965042E+03  0.7546771E-02  0.1014695E+00
          2   -1    0    0  503    0  0.00000000000E+00  0.00000000000E+00  0.18198708922E+04  0.18198708922E+04  0.00000000000E+00 0.  1.
         -2   -1    0    0    0  501 -0.00000000000E+00 -0.00000000000E+00 -0.38994545248E+02  0.38994545248E+02  0.00000000000E+00 0. -1.
         25    1    1    2    0    0  0.12209698384E+03 -0.18167162778E+03  0.10298670819E+04  0.10602657498E+04  0.12500000000E+03 0.  0.
         21    1    1    2  502  501  0.35424603100E+02  0.67648863254E+01  0.10789894183E+03  0.11376663764E+03  0.00000000000E+00 0. -1.
         21    1    1    2  503  502 -0.15752158694E+03  0.17490674145E+03  0.64311032321E+03  0.68483305000E+03  0.00000000000E+00 0. -1.
<mgrwt>
<rscale>  4 0.49650420E+03</rscale>
<asrwt>0</asrwt>
<pdfrwt beam="1">  1        2 0.27998007E+00 0.49650420E+03</pdfrwt>
<pdfrwt beam="2">  1       -2 0.59991622E-02 0.49650420E+03</pdfrwt>
<totfact> 0.13477191E+03</totfact>
</mgrwt>
</event>
<event>
 5    0  0.2754780E-002  0.7648643E+03  0.7546771E-02  0.9612315E-01
         -1   -1    0    0    0  501 -0.00000000000E+00  0.00000000000E+00  0.19663968796E+03  0.19663968796E+03  0.00000000000E+00 0. -1.
          1   -1    0    0  503    0  0.00000000000E+00 -0.00000000000E+00 -0.91099887608E+03  0.91099887608E+03  0.00000000000E+00 0.  1.
         25    1    1    2    0    0 -0.21717386483E+03 -0.76200507977E+02 -0.64231870495E+03  0.69366369641E+03  0.12500000000E+03 0.  0.
         21    1    1    2  502  501  0.70055819683E+01 -0.19120893218E+02 -0.16421537085E+03  0.16547318441E+03  0.00000000000E+00 0. -1.
         21    1    1    2  503  502  0.21016828286E+03  0.95321401195E+02  0.92174887679E+02  0.24850168323E+03  0.00000000000E+00 0. -1.
<mgrwt>
<rscale>  4 0.76486429E+03</rscale>
<asrwt>0</asrwt>
<pdfrwt beam="1">  1        1 0.14015367E+00 0.76486429E+03</pdfrwt>
<pdfrwt beam="2">  1       -1 0.30252259E-01 0.76486429E+03</pdfrwt>
<totfact> 0.18155640E+02</totfact>
</mgrwt>
</event>
<event>
 5    0  0.2754780E-002  0.6032613E+03  0.7546771E-02  0.9898663E-01
          2   -1    0    0  502    0  0.00000000000E+00  0.00000000000E+00  0.18025011394E+03  0.18025011394E+03  0.00000000000E+00 0. -1.
         -2   -1    0    0    0  501 -0.00000000000E+00 -0.00000000000E+00 -0.50474883814E+03  0.50474883814E+03  0.00000000000E+00 0.  1.
         25    1    1    2    0    0  0.12162623299E+03  0.21734283192E+03 -0.31630968408E+03  0.42155386771E+03  0.12500000000E+03 0.  0.
         21    1    1    2  502  503 -0.12006154712E+03 -0.15918301538E+03 -0.29355704952E+02  0.20153353293E+03  0.00000000000E+00 0. -1.
         21    1    1    2  503  501 -0.15646858634E+01 -0.58159816534E+02  0.21166664831E+02  0.61911551435E+02  0.00000000000E+00 0.  1.
<mgrwt>
<rscale>  4 0.60326126E+03</rscale>
<asrwt>0</asrwt>
<pdfrwt beam="1">  1        2 0.27730787E-01 0.60326126E+03</pdfrwt>
<pdfrwt beam="2">  1       -2 0.77653668E-01 0.60326126E+03</pdfrwt>
<totfact> 0.29070950E+02</totfact>
</mgrwt>
</event>
<event>
 5    0  0.2754780E-002  0.4433220E+03  0.7546771E-02  0.1029732E+00
         -2   -1    0    0    0  501 -0.00000000000E+00  0.00000000000E+00  0.37677826605E+03  0.37677826605E+03  0.00000000000E+00 0. -1.
          2   -1    0    0  502    0  0.00000000000E+00 -0.00000000000E+00 -0.17049533712E+03  0.17049533712E+03  0.00000000000E+00 0.  1.
         25    1    1    2    0    0  0.47482970629E+02  0.20059440449E+03  0.96692810488E+02  0.25974458071E+03  0.12500000000E+03 0.  0.
         21    1    1    2  502  503  0.80392812429E+01 -0.20075585165E+03  0.11540630299E+03  0.23170273366E+03  0.00000000000E+00 0.  1.
         21    1    1    2  503  501 -0.55522251871E+02  0.16144716343E+00 -0.58161845483E+01  0.55826288796E+02  0.00000000000E+00 0.  1.
<mgrwt>
<rscale>  4 0.44332204E+03</rscale>
<asrwt>0</asrwt>
<pdfrwt beam="1">  1        2 0.26230052E-01 0.44332204E+03</pdfrwt>
<pdfrwt beam="2">  1       -2 0.57965887E-01 0.44332204E+03</pdfrwt>
<totfact> 0.58172347E+02</totfact>
</mgrwt>
</event>
<event>
 5    0  0.2754780E-002  0.5386209E+03  0.7546771E-02  0.1004163E+00
         -2   -1    0    0    0  501 -0.00000000000E+00  0.00000000000E+00  0.15916109874E+03  0.15916109874E+03  0.00000000000E+00 0.  1.
          2   -1    0    0  502    0  0.00000000000E+00 -0.00000000000E+00 -0.45568995737E+03  0.45568995737E+03  0.00000000000E+00 0. -1.
         25    1    1    2    0    0 -0.12410854128E+03 -0.17798406498E+03 -0.29917408257E+03  0.39014278038E+03  0.12500000000E+03 0.  0.
         21    1    1    2  502  503  0.67421512881E+02  0.13102353695E+03  0.21002432383E+02  0.14884196250E+03  0.00000000000E+00 0.  1.
         21    1    1    2  503  501  0.56687028395E+02  0.46960528026E+02 -0.18357208446E+02  0.75866313227E+02  0.00000000000E+00 0.  1.
<mgrwt>
<rscale>  4 0.53862088E+03</rscale>
<asrwt>0</asrwt>
<pdfrwt beam="1">  1        2 0.70106147E-01 0.53862088E+03</pdfrwt>
<pdfrwt beam="2">  1       -2 0.24486323E-01 0.53862088E+03</pdfrwt>
<totfact> 0.10226688E+03</totfact>
</mgrwt>
</event>
<event>
 5    0  0.2754780E-002  0.6085143E+03  0.7546771E-02  0.9887897E-01
         -2   -1    0    0    0  501 -0.00000000000E+00  0.00000000000E+00  0.29486976279E+02  0.29486976279E+02  0.00000000000E+00 0.  1.
          2   -1    0    0  502    0  0.00000000000E+00 -0.00000000000E+00 -0.39455213004E+04  0.39455213004E+04  0.00000000000E+00 0. -1.
         25    1    1    2    0    0  0.25252923313E+03 -0.28056344890E+02 -0.10233200257E+04  0.10617754222E+04  0.12500000000E+03 0.  0.
         21    1    1    2  502  503 -0.28629443654E+03  0.45686371000E+02 -0.21391746876E+04  0.21587311303E+04  0.00000000000E+00 0.  1.
         21    1    1    2  503  501  0.33765203411E+02 -0.17630026111E+02 -0.75353961076E+03  0.75450172416E+03  0.00000000000E+00 0. -1.
<mgrwt>
<rscale>  4 0.60851429E+03</rscale>
<asrwt>0</asrwt>
<pdfrwt beam="1">  1        2 0.60700274E+00 0.60851429E+03</pdfrwt>
<pdfrwt beam="2">  1       -2 0.45364619E-02 0.60851429E+03</pdfrwt>
<totfact> 0.10218139E+02</totfact>
</mgrwt>
</event>
<event>
 5    0  0.2754780E-002  0.4496915E+03  0.7546771E-02  0.1027814E+00
          2   -1    0    0  502    0  0.00000000000E+00  0.00000000000E+00  0.14053024345E+04  0.14053024345E+04  0.00000000000E+00 0. -1.
         -2   -1    0    0    0  501 -0.00000000000E+00 -0.00000000000E+00 -0.74249787311E+02  0.74249787311E+02  0.00000000000E+00 0.  1.
         25    1    1    2    0    0  0.16051710610E+03  0.15735616088E+03  0.40565155806E+03  0.48031748800E+03  0.12500000000E+03 0.  0.
         21    1    1    2  502  503 -0.12435994209E+03 -0.14099495475E+03  0.20658838836E+03  0.27932728952E+03  0.00000000000E+00 0. -1.
         21    1    1    2  503  501 -0.36157164007E+02 -0.16361206130E+02  0.71881270079E+03  0.71990744433E+03  0.00000000000E+00 0. -1.
<mgrwt>
<rscale>  4 0.44969149E+03</rscale>
<asrwt>0</asrwt>
<pdfrwt beam="1">  1        2 0.21620035E+00 0.44969149E+03</pdfrwt>
<pdfrwt beam="2">  1       -2 0.11423045E-01 0.44969149E+03</pdfrwt>
<totfact> 0.81361187E+02</totfact>
</mgrwt>
</event>
<event>
 5    0  0.2754780E-002  0.5422859E+03  0.7546771E-02  0.1003295E+00
          1   -1    0    0  503    0  0.00000000000E+00  0.00000000000E+00  0.56946944496E+03  0.56946944496E+03  0.00000000000E+00 0.  1.
         -1   -1    0    0    0  501 -0.00000000000E+00 -0.00000000000E+00 -0.19756868622E+03  0.19756868622E+03  0.00000000000E+00 0. -1.
         25    1    1    2    0    0 -0.23636702878E+03  0.31687567166E+02  0.14005410477E+03  0.30350226765E+03  0.12500000000E+03 0.  0.
         21    1    1    2  502  501 -0.29006279112E+02 -0.56132409465E+02  0.18168652411E+03  0.19235957128E+03  0.00000000000E+00 0. -1.
         21    1    1    2  503  502  0.26537330789E+03  0.24444842299E+02  0.50160129859E+02  0.27117629226E+03  0.00000000000E+00 0. -1.
<mgrwt>
<rscale>  4 0.54228590E+03</rscale>
<asrwt>0</asrwt>
<pdfrwt beam="1">  1        1 0.87610683E-01 0.54228590E+03</pdfrwt>
<pdfrwt beam="2">  1       -1 0.30395183E-01 0.54228590E+03</pdfrwt>
<totfact> 0.37442104E+02</totfact>
</mgrwt>
</event>
<event>
 5    0  0.2754780E-002  0.6859983E+03  0.7546771E-02  0.9741481E-01
         -2   -1    0    0    0  501 -0.00000000000E+00  0.00000000000E+00  0.56771985596E+02  0.56771985596E+02  0.00000000000E+00 0.  1.
          2   -1    0    0  502    0  0.00000000000E+00 -0.00000000000E+00 -0.22542046458E+04  0.22542046458E+04  0.00000000000E+00 0. -1.
         25    1    1    2    0    0  0.22668475334E+03  0.18563458515E+03 -0.16351564318E+04  0.16658954748E+04  0.12500000000E+03 0.  0.
         21    1    1    2  502  503 -0.20554390077E+03 -0.17707737979E+03 -0.41343683188E+03  0.49450450708E+03  0.00000000000E+00 0. -1.
         21    1    1    2  503  501 -0.21140852574E+02 -0.85572053628E+01 -0.14883939652E+03  0.15057664948E+03  0.00000000000E+00 0.  1.
<mgrwt>
<rscale>  4 0.68599834E+03</rscale>
<asrwt>0</asrwt>
<pdfrwt beam="1">  1        2 0.34680069E+00 0.68599834E+03</pdfrwt>
<pdfrwt beam="2">  1       -2 0.87341523E-02 0.68599834E+03</pdfrwt>
<totfact> 0.42605976E+02</totfact>
</mgrwt>
</event>
<event>
 5    0  0.2754780E-002  0.5853656E+03  0.7546771E-02  0.9936242E-01
         -1   -1    0    0    0  501 -0.00000000000E+00  0.00000000000E+00  0.32765507043E+03  0.32765507043E+03  0.00000000000E+00 0. -1.
          1   -1    0    0  502    0  0.00000000000E+00 -0.00000000000E+00 -0.36266529249E+03  0.36266529249E+03  0.00000000000E+00 0.  1.
         25    1    1    2    0    0 -0.20983630828E+03 -0.87270202366E+02 -0.22633286140E+03  0.34423673343E+03  0.12500000000E+03 0.  0.
         21    1    1    2  502  503  0.10648130365E+03  0.98953312595E+02  0.19353718101E+03  0.24204682715E+03  0.00000000000E+00 0. -1.
         21    1    1    2  503  501  0.10335500463E+03 -0.11683110229E+02 -0.22145416657E+01  0.10403680234E+03  0.00000000000E+00 0. -1.
<mgrwt>
<rscale>  4 0.58536558E+03</rscale>
<asrwt>0</asrwt>
<pdfrwt beam="1">  1        1 0.55794660E-01 0.58536558E+03</pdfrwt>
<pdfrwt beam="2">  1       -1 0.50408473E-01 0.58536558E+03</pdfrwt>
<totfact> 0.27501285E+02</totfact>
</mgrwt>
</event>
<event>
 5    0  0.2754780E-002  0.6536219E+03  0.7546771E-02  0.9800007E-01
         -2   -1    0    0    0  501 -0.00000000000E+00  0.00000000000E+00  0.37334196193E+03  0.37334196193E+03  0.00000000000E+00 0. -1.
          2   -1    0    0  502    0  0.00000000000E+00 -0.00000000000E+00 -0.30642365327E+03  0.30642365327E+03  0.00000000000E+00 0.  1.
         25    1    1    2    0    0 -0.28108206384E+03  0.86688298529E+02 -0.87659273226E+02  0.33140780904E+03  0.12500000000E+03 0.  0.
         21    1    1    2  502  503  0.26558961109E+03 -0.10172169714E+03  0.15969622889E+03  0.32617178099E+03  0.00000000000E+00 0. -1.
         21    1    1    2  503  501  0.15492452745E+02  0.15033398613E+02 -0.51186470026E+01  0.22186025175E+02  0.00000000000E+00 0.  1.
<mgrwt>
<rscale>  4 0.65362190E+03</rscale>
<asrwt>0</asrwt>
<pdfrwt beam="1">  1        2 0.47142101E-01 0.65362190E+03</pdfrwt>
<pdfrwt beam="2">  1       -2 0.57437224E-01 0.65362190E+03</pdfrwt>
<totfact> 0.30762777E+02</totfact>
</mgrwt>
</event>
<event>
 5    0  0.2754780E-002  0.4561111E+03  0.7546771E-02  0.1025915E+00
         -2   -1    0    0    0  501 -0.00000000000E+00  0.00000000000E+00  0.11529401325E+03  0.11529401325E+03  0.00000000000E+00 0.  1.
          2   -1    0    0  502    0  0.00000000000E+00 -0.00000000000E+00 -0.83736702410E+03  0.83736702410E+03  0.00000000000E+00 0. -1.
         25    1    1    2    0    0  0.21737445089E+03 -0.10669834331E+03 -0.32761323012E+03  0.42613567900E+03  0.12500000000E+03 0.  0.
         21    1    1    2  502  503 -0.13868410408E+03 -0.54750281003E+02 -0.93329713223E+02  0.17590141945E+03  0.00000000000E+00 0. -1.
         21    1    1    2  503  501 -0.78690346814E+02  0.16144862431E+03 -0.30113006750E+03  0.35062393889E+03  0.00000000000E+00 0.  1.
<mgrwt>
<rscale>  4 0.45611114E+03</rscale>
<asrwt>0</asrwt>
<pdfrwt beam="1">  1        2 0.12882570E+00 0.45611114E+03</pdfrwt>
<pdfrwt beam="2">  1       -2 0.17737541E-01 0.45611114E+03</pdfrwt>
<totfact> 0.86079285E+02</totfact>
</mgrwt>
</event>
<event>
 5    0  0.2754780E-002  0.5224081E+03  0.7546771E-02  0.1008090E+00
         -2   -1    0    0    0  501 -0.00000000000E+00  0.00000000000E+00  0.56584313267E+02  0.56584313267E+02  0.00000000000E+00 0.  1.
          2   -1    0    0  503    0  0.00000000000E+00 -0.00000000000E+00 -0.13837010360E+04  0.13837010360E+04  0.00000000000E+00 0. -1.
         25    1    1    2    0    0 -0.62242595327E+02  0.22220821745E+03 -0.40073472144E+03  0.47902395509E+03  0.12500000000E+03 0.  0.
         21    1    1    2  502  501 -0.25513465384E+02 -0.14109967664E+02 -0.14467197281E+03  0.14758051301E+03  0.00000000000E+00 0.  1.
         21    1    1    2  503  502  0.87756060711E+02 -0.20809824979E+03 -0.78171002844E+03  0.81368088113E+03  0.00000000000E+00 0. -1.
<mgrwt>
<rscale>  4 0.52240808E+03</rscale>
<asrwt>0</asrwt>
<pdfrwt beam="1">  1        2 0.21287709E+00 0.52240808E+03</pdfrwt>
<pdfrwt beam="2">  1       -2 0.87052786E-02 0.52240808E+03</pdfrwt>
<totfact> 0.12928453E+03</totfact>
</mgrwt>
</event>
<event>
 5    0  0.2754780E-002  0.9527414E+03  0.7546771E-02  0.9361952E-01
          1   -1    0    0  503    0  0.00000000000E+00  0.00000000000E+00  0.56939041680E+03  0.56939041680E+03  0.00000000000E+00 0.  1.
         -1   -1    0    0    0  501 -0.00000000000E+00 -0.00000000000E+00 -0.71208850770E+03  0.71208850770E+03  0.00000000000E+00 0. -1.
         25    1    1    2    0    0 -0.36511994470E+03 -0.16036784496E+03 -0.12654264792E+02  0.41810949539E+03  0.12500000000E+03 0.  0.
         21    1    1    2  502  501 -0.98766303335E+02  0.20617473577E+02  0.23566663870E+03  0.25635644616E+03  0.00000000000E+00 0.  1.
         21    1    1    2  503  502  0.46388624803E+03  0.13975037138E+03 -0.36571046480E+03  0.60701298296E+03  0.00000000000E+00 0.  1.
<mgrwt>
<rscale>  4 0.95274143E+03</rscale>
<asrwt>0</asrwt>
<pdfrwt beam="1">  1        1 0.87598526E-01 0.95274143E+03</pdfrwt>
<pdfrwt beam="2">  1       -1 0.10955208E+00 0.95274143E+03</pdfrwt>
<totfact> 0.28634258E+01</totfact>
</mgrwt>
</event>
<event>
 5    0  0.2754780E-002  0.7387242E+03  0.7546771E-02  0.9653208E-01
          3   -1    0    0  502    0  0.00000000000E+00  0.00000000000E+00  0.21397496222E+03  0.21397496222E+03  0.00000000000E+00 0. -1.
         -3   -1    0    0    0  501 -0.00000000000E+00 -0.00000000000E+00 -0.11305298778E+04  0.11305298778E+04  0.00000000000E+00 0.  1.
         25    1    1    2    0    0 -0.26307348789E+02 -0.37436543553E+03 -0.33439013220E+03  0.51796072866E+03  0.12500000000E+03 0.  0.
         21    1    1    2  502  503  0.78941984808E+02  0.28397798226E+03 -0.64172637775E+03  0.70617850100E+03  0.00000000000E+00 0.  1.
         21    1    1    2  503  501 -0.52634636019E+02  0.90387453268E+02  0.59561594411E+02  0.12036561031E+03  0.00000000000E+00 0. -1.
<mgrwt>
<rscale>  4 0.73872418E+03</rscale>
<asrwt>0</asrwt>
<pdfrwt beam="1">  1        3 0.32919224E-01 0.73872418E+03</pdfrwt>
<pdfrwt beam="2">  1       -3 0.17392768E+00 0.73872418E+03</pdfrwt>
<totfact> 0.51906845E+00</totfact>
</mgrwt>
</event>
<event>
 5    0  0.2754780E-002  0.5980867E+03  0.7546771E-02  0.9909383E-01
         -2   -1    0    0    0  501 -0.00000000000E+00  0.00000000000E+00  0.72321560285E+02  0.72321560285E+02  0.00000000000E+00 0.  1.
          2   -1    0    0  503    0  0.00000000000E+00 -0.00000000000E+00 -0.35616564060E+04  0.35616564060E+04  0.00000000000E+00 0. -1.
         25    1    1    2    0    0 -0.11648071547E+03 -0.20351023845E+03 -0.28503898063E+03  0.38968756037E+03  0.12500000000E+03 0.  0.
         21    1    1    2  502  501 -0.10827146289E+02 -0.31950083439E+02 -0.23229180388E+04  0.23231629840E+04  0.00000000000E+00 0. -1.
         21    1    1    2  503  502  0.12730786175E+03  0.23546032189E+03 -0.88137782620E+03  0.92112742190E+03  0.00000000000E+00 0. -1.
<mgrwt>
<rscale>  4 0.59808674E+03</rscale>
<asrwt>0</asrwt>
<pdfrwt beam="1">  1        2 0.54794710E+00 0.59808674E+03</pdfrwt>
<pdfrwt beam="2">  1       -2 0.11126395E-01 0.59808674E+03</pdfrwt>
<totfact> 0.46971140E+01</totfact>
</mgrwt>
</event>
<event>
 5    0  0.2754780E-002  0.4539256E+03  0.7546771E-02  0.1026558E+00
          1   -1    0    0  503    0  0.00000000000E+00  0.00000000000E+00  0.13960714983E+03  0.13960714983E+03  0.00000000000E+00 0.  1.
         -1   -1    0    0    0  501 -0.00000000000E+00 -0.00000000000E+00 -0.44906380428E+03  0.44906380428E+03  0.00000000000E+00 0. -1.
         25    1    1    2    0    0 -0.30548703110E+02 -0.21695138396E+03 -0.15054389233E+03  0.29375089750E+03  0.12500000000E+03 0.  0.
         21    1    1    2  502  501  0.97602927040E+01  0.19515425681E+02  0.18548882651E+02  0.28638718560E+02  0.00000000000E+00 0.  1.
         21    1    1    2  503  502  0.20788410406E+02  0.19743595828E+03 -0.17746164477E+03  0.26628133805E+03  0.00000000000E+00 0.  1.
<mgrwt>
<rscale>  4 0.45392562E+03</rscale>
<asrwt>0</asrwt>
<pdfrwt beam="1">  1        1 0.21478023E-01 0.45392562E+03</pdfrwt>
<pdfrwt beam="2">  1       -1 0.69086738E-01 0.45392562E+03</pdfrwt>
<totfact> 0.51228106E+02</totfact>
</mgrwt>
</event>
<event>
 5    0  0.2754780E-002  0.7069055E+03  0.7546771E-02  0.9705495E-01
         -1   -1    0    0    0  501 -0.00000000000E+00  0.00000000000E+00  0.13048729773E+03  0.13048729773E+03  0.00000000000E+00 0.  1.
          1   -1    0    0  502    0  0.00000000000E+00 -0.00000000000E+00 -0.19514564144E+04  0.19514564144E+04  0.00000000000E+00 0. -1.
         25    1    1    2    0    0  0.14032479164E+03 -0.30240658122E+03 -0.30047519081E+03  0.46588746260E+03  0.12500000000E+03 0.  0.
         21    1    1    2  502  503 -0.19942875033E+03  0.26226860608E+03 -0.53734232677E+03  0.63031216420E+03  0.00000000000E+00 0.  1.
         21    1    1    2  503  501  0.59103958687E+02  0.40137975144E+02 -0.98315159913E+03  0.98574408538E+03  0.00000000000E+00 0. -1.
<mgrwt>
<rscale>  4 0.70690553E+03</rscale>
<asrwt>0</asrwt>
<pdfrwt beam="1">  1        1 0.30022404E+00 0.70690553E+03</pdfrwt>
<pdfrwt beam="2">  1       -1 0.20074970E-01 0.70690553E+03</pdfrwt>
<totfact> 0.67678541E+01</totfact>
</mgrwt>
</event>
<event>
 5    0  0.2754780E-002  0.4917430E+03  0.7546771E-02  0.1015957E+00
          2   -1    0    0  503    0  0.00000000000E+00  0.00000000000E+00  0.81706425003E+03  0.81706425003E+03  0.00000000000E+00 0.  1.
         -2   -1    0    0    0  501 -0.00000000000E+00 -0.00000000000E+00 -0.86002962759E+02  0.86002962759E+02  0.00000000000E+00 0. -1.
         25    1    1    2    0    0  0.17941695057E+03 -0.10051106418E+03  0.25397959908E+03  0.34989077284E+03  0.12500000000E+03 0.  0.
         21    1    1    2  502  501  0.37471345624E+02 -0.66207109687E+01  0.61733201690E+02  0.72518437294E+02  0.00000000000E+00 0.  1.
         21    1    1    2  503  502 -0.21688829619E+03  0.10713177515E+03  0.41534848651E+03  0.48065800265E+03  0.00000000000E+00 0. -1.
<mgrwt>
<rscale>  4 0.49174300E+03</rscale>
<asrwt>0</asrwt>
<pdfrwt beam="1">  1        2 0.12570219E+00 0.49174300E+03</pdfrwt>
<pdfrwt beam="2">  1       -2 0.13231226E-01 0.49174300E+03</pdfrwt>
<totfact> 0.14549622E+03</totfact>
</mgrwt>
</event>
<event>
 5    0  0.2754780E-002  0.4778905E+03  0.7546771E-02  0.1019717E+00
         -1   -1    0    0    0  501 -0.00000000000E+00  0.00000000000E+00  0.14838532601E+03  0.14838532601E+03  0.00000000000E+00 0. -1.
          1   -1    0    0  502    0  0.00000000000E+00 -0.00000000000E+00 -0.61791079154E+03  0.61791079154E+03  0.00000000000E+00 0.  1.
         25    1    1    2    0    0  0.10354572950E+02  0.25182010507E+03 -0.12016916009E+03  0.30591863222E+03  0.12500000000E+03 0.  0.
         21    1    1    2  502  503  0.75062096889E+02 -0.94082705184E+02 -0.14590098027E+03  0.18913743640E+03  0.00000000000E+00 0.  1.
         21    1    1    2  503  501 -0.85416669839E+02 -0.15773739989E+03 -0.20345532516E+03  0.27124004893E+03  0.00000000000E+00 0.  1.
<mgrwt>
<rscale>  4 0.47789051E+03</rscale>
<asrwt>0</asrwt>
<pdfrwt beam="1">  1        1 0.95063199E-01 0.47789051E+03</pdfrwt>
<pdfrwt beam="2">  1       -1 0.22828512E-01 0.47789051E+03</pdfrwt>
<totfact> 0.54458198E+02</totfact>
</mgrwt>
</event>
<event>
 5    0  0.2754780E-002  0.5123412E+03  0.7546771E-02  0.1010607E+00
          1   -1    0    0  503    0  0.00000000000E+00  0.00000000000E+00  0.76077282484E+02  0.76077282484E+02  0.00000000000E+00 0. -1.
         -1   -1    0    0    0  501 -0.00000000000E+00 -0.00000000000E+00 -0.10154107957E+04  0.10154107957E+04  0.00000000000E+00 0.  1.
         25    1    1    2    0    0  0.18031875036E+03  0.17520376469E+03 -0.39652253900E+03  0.48586658131E+03  0.12500000000E+03 0.  0.
         21    1    1    2  502  501 -0.37884401418E+02 -0.72391075517E+01 -0.34877846567E+02  0.52000930089E+02  0.00000000000E+00 0. -1.
         21    1    1    2  503  502 -0.14243434895E+03 -0.16796465714E+03 -0.50793312764E+03  0.55362056678E+03  0.00000000000E+00 0.  1.
<mgrwt>
<rscale>  4 0.51234117E+03</rscale>
<asrwt>0</asrwt>
<pdfrwt beam="1">  1        1 0.11704198E-01 0.51234117E+03</pdfrwt>
<pdfrwt beam="2">  1       -1 0.15621704E+00 0.51234117E+03</pdfrwt>
<totfact> 0.17359574E+02</totfact>
</mgrwt>
</event>
<event>
 5    0  0.2754780E-002  0.6008896E+03  0.7546771E-02  0.9903562E-01
         -1   -1    0    0    0  501 -0.00000000000E+00  0.00000000000E+00  0.29479966797E+03  0.29479966797E+03  0.00000000000E+00 0. -1.
          1   -1    0    0  503    0  0.00000000000E+00 -0.00000000000E+00 -0.94590546899E+03  0.94590546899E+03  0.00000000000E+00 0.  1.
         25    1    1    2    0    0  0.21863503055E+03 -0.15224396496E+02 -0.18494882391E+03  0.31283242527E+03  0.12500000000E+03 0.  0.
         21    1    1    2  502  501 -0.10835889705E+03 -0.22797416964E+03 -0.58383233548E+03  0.63606137168E+03  0.00000000000E+00 0.  1.
         21    1    1    2  503  502 -0.11027613350E+03  0.24319856613E+03  0.11767535838E+03  0.29181134001E+03  0.00000000000E+00 0. -1.
<mgrwt>
<rscale>  4 0.60088964E+03</rscale>
<asrwt>0</asrwt>
<pdfrwt beam="1">  1        1 0.14552392E+00 0.60088964E+03</pdfrwt>
<pdfrwt beam="2">  1       -1 0.45353795E-01 0.60088964E+03</pdfrwt>
<totfact> 0.83401943E+01</totfact>
</mgrwt>
</event>
<event>
 5    0  0.2754780E-002  0.6741270E+03  0.7546771E-02  0.9762531E-01
          2   -1    0    0  502    0  0.00000000000E+00  0.00000000000E+00  0.69672636214E+03  0.69672636214E+03  0.00000000000E+00 0.  1.
         -2   -1    0    0    0  501 -0.00000000000E+00 -0.00000000000E+00 -0.16306515670E+03  0.16306515670E+03  0.00000000000E+00 0. -1.
         25    1    1    2    0    0  0.13268843681E+03  0.20441591236E+03  0.26209157451E+01  0.27390501217E+03  0.12500000000E+03 0.  0.
         21    1    1    2  502  503 -0.11268687401E+03 -0.18815343194E+03  0.44570193610E+03  0.49673963136E+03  0.00000000000E+00 0.  1.
         21    1    1    2  503  501 -0.20001562801E+02 -0.16262480420E+02  0.85338353588E+02  0.89146875307E+02  0.00000000000E+00 0. -1.
<mgrwt>
<rscale>  4 0.67412697E+03</rscale>
<asrwt>0</asrwt>
<pdfrwt beam="1">  1        2 0.10718867E+00 0.67412697E+03</pdfrwt>
<pdfrwt beam="2">  1       -2 0.25086948E-01 0.67412697E+03</pdfrwt>
<totfact> 0.59052853E+02</totfact>
</mgrwt>
</event>
<event>
 5    0  0.2754780E-002  0.5514577E+03  0.7546771E-02  0.1001157E+00
          2   -1    0    0  502    0  0.00000000000E+00  0.00000000000E+00  0.26484087709E+04  0.26484087709E+04  0.00000000000E+00 0. -1.
         -2   -1    0    0    0  501 -0.00000000000E+00 -0.00000000000E+00 -0.37398625291E+02  0.37398625291E+02  0.00000000000E+00 0.  1.
         25    1    1    2    0    0  0.98052136142E+02  0.24606214930E+03  0.11353148081E+04  0.11724868938E+04  0.12500000000E+03 0.  0.
         21    1    1    2  502  503 -0.72425440270E+02 -0.24707510372E+03  0.87541959627E+03  0.91249713468E+03  0.00000000000E+00 0.  1.
         21    1    1    2  503  501 -0.25626695873E+02  0.10129544219E+01  0.60027574130E+03  0.60082336773E+03  0.00000000000E+00 0. -1.
<mgrwt>
<rscale>  4 0.55145766E+03</rscale>
<asrwt>0</asrwt>
<pdfrwt beam="1">  1        2 0.40744736E+00 0.55145766E+03</pdfrwt>
<pdfrwt beam="2">  1       -2 0.57536367E-02 0.55145766E+03</pdfrwt>
<totfact> 0.50236219E+02</totfact>
</mgrwt>
</event>
<event>
 5    0  0.2754780E-002  0.7526752E+03  0.7546771E-02  0.9631163E-01
          3   -1    0    0  502    0  0.00000000000E+00  0.00000000000E+00  0.19900984348E+04  0.19900984348E+04  0.00000000000E+00 0. -1.
         -3   -1    0    0    0  501 -0.00000000000E+00 -0.00000000000E+00 -0.14627819902E+03  0.14627819902E+03  0.00000000000E+00 0.  1.
         25    1    1    2    0    0 -0.38946368465E+02  0.33808019263E+03  0.48006232189E+03  0.60158114096E+03  0.12500000000E+03 0.  0.
         21    1    1    2  502  503  0.93359956518E+02 -0.37152851960E+03  0.34958345282E+03  0.51861171683E+03  0.00000000000E+00 0.  1.
         21    1    1    2  503  501 -0.54413588054E+02  0.33448326970E+02  0.10141744611E+04  0.10161837761E+04  0.00000000000E+00 0. -1.
<mgrwt>
<rscale>  4 0.75267518E+03</rscale>
<asrwt>0</asrwt>
<pdfrwt beam="1">  1        3 0.30616897E+00 0.75267518E+03</pdfrwt>
<pdfrwt beam="2">  1       -3 0.22504340E-01 0.75267518E+03</pdfrwt>
<totfact> 0.17798143E+00</totfact>
</mgrwt>
</event>
<event>
 5    0  0.2754780E-002  0.5406434E+03  0.7546771E-02  0.1003683E+00
          2   -1    0    0  503    0  0.00000000000E+00  0.00000000000E+00  0.18412067376E+03  0.18412067376E+03  0.00000000000E+00 0.  1.
         -2   -1    0    0    0  501 -0.00000000000E+00 -0.00000000000E+00 -0.50185852188E+03  0.50185852188E+03  0.00000000000E+00 0. -1.
         25    1    1    2    0    0  0.13093077805E+03  0.16322029251E+03  0.57017484473E+00  0.24373973338E+03  0.12500000000E+03 0.  0.
         21    1    1    2  502  501  0.94130192356E-01 -0.22832314645E+02  0.34023234487E+02  0.40974430289E+02  0.00000000000E+00 0.  1.
         21    1    1    2  503  502 -0.13102490824E+03 -0.14038797787E+03 -0.35233125745E+03  0.40126503198E+03  0.00000000000E+00 0. -1.
<mgrwt>
<rscale>  4 0.54064340E+03</rscale>
<asrwt>0</asrwt>
<pdfrwt beam="1">  1        2 0.28326257E-01 0.54064340E+03</pdfrwt>
<pdfrwt beam="2">  1       -2 0.77209004E-01 0.54064340E+03</pdfrwt>
<totfact> 0.28779253E+02</totfact>
</mgrwt>
</event>
<event>
 5    0  0.2754780E-002  0.4968727E+03  0.7546771E-02  0.1014598E+00
         -1   -1    0    0    0  501 -0.00000000000E+00  0.00000000000E+00  0.96115146082E+02  0.96115146082E+02  0.00000000000E+00 0.  1.
          1   -1    0    0  502    0  0.00000000000E+00 -0.00000000000E+00 -0.10837303948E+04  0.10837303948E+04  0.00000000000E+00 0. -1.
         25    1    1    2    0    0  0.21914143186E+03  0.45163639404E+02 -0.34168156741E+03  0.42712295067E+03  0.12500000000E+03 0.  0.
         21    1    1    2  502  503 -0.23381608790E+03 -0.23148470336E+02 -0.20743006721E+03  0.31342151717E+03  0.00000000000E+00 0.  1.
         21    1    1    2  503  501  0.14674656037E+02 -0.22015169067E+02 -0.43850361406E+03  0.43930107300E+03  0.00000000000E+00 0.  1.
<mgrwt>
<rscale>  4 0.49687274E+03</rscale>
<asrwt>0</asrwt>
<pdfrwt beam="1">  1        1 0.16672774E+00 0.49687274E+03</pdfrwt>
<pdfrwt beam="2">  1       -1 0.14786946E-01 0.49687274E+03</pdfrwt>
<totfact> 0.44972064E+02</totfact>
</mgrwt>
</event>
<event>
 5    0  0.2754780E-002  0.6975066E+03  0.7546771E-02  0.9721506E-01
          1   -1    0    0  503    0  0.00000000000E+00  0.00000000000E+00  0.11395389644E+03  0.11395389644E+03  0.00000000000E+00 0. -1.
         -1   -1    0    0    0  501 -0.00000000000E+00 -0.00000000000E+00 -0.13221809730E+04  0.13221809730E+04  0.00000000000E+00 0.  1.
         25    1    1    2    0    0  0.22848878710E+03  0.65019238454E+02 -0.11322496353E+04  0.11636360530E+04  0.12500000000E+03 0.  0.
         21    1    1    2  502  501 -0.17439774403E+02  0.17455061031E+02  0.14376557956E+02  0.28557141059E+02  0.00000000000E+00 0. -1.
         21    1    1    2  503  502 -0.21104901269E+03 -0.82474299485E+02 -0.90353999279E+02  0.24394167545E+03  0.00000000000E+00 0. -1.
<mgrwt>
<rscale>  4 0.69750657E+03</rscale>
<asrwt>0</asrwt>
<pdfrwt beam="1">  1        1 0.17531369E-01 0.69750657E+03</pdfrwt>
<pdfrwt beam="2">  1       -1 0.20341246E+00 0.69750657E+03</pdfrwt>
<totfact> 0.45821022E+01</totfact>
</mgrwt>
</event>
<event>
 5    0  0.2754780E-002  0.4292705E+03  0.7546771E-02  0.1034091E+00
          1   -1    0    0  503    0  0.00000000000E+00  0.00000000000E+00  0.10260050871E+04  0.10260050871E+04  0.00000000000E+00 0. -1.
         -1   -1    0    0    0  501 -0.00000000000E+00 -0.00000000000E+00 -0.18614610780E+03  0.18614610780E+03  0.00000000000E+00 0.  1.
         25    1    1    2    0    0 -0.20290138369E+03  0.49568612915E+02  0.74451150095E+02  0.25454664138E+03  0.12500000000E+03 0.  0.
         21    1    1    2  502  501  0.30038786714E+02 -0.40675581692E+01  0.77783212182E+03  0.77842256100E+03  0.00000000000E+00 0. -1.
         21    1    1    2  503  502  0.17286259697E+03 -0.45501054746E+02 -0.12424292568E+02  0.17918199257E+03  0.00000000000E+00 0.  1.
<mgrwt>
<rscale>  4 0.42927054E+03</rscale>
<asrwt>0</asrwt>
<pdfrwt beam="1">  1        1 0.15784693E+00 0.42927054E+03</pdfrwt>
<pdfrwt beam="2">  1       -1 0.28637863E-01 0.42927054E+03</pdfrwt>
<totfact> 0.16702066E+02</totfact>
</mgrwt>
</event>
<event>
 5    0  0.2754780E-002  0.5279237E+03  0.7546771E-02  0.1006737E+00
         -2   -1    0    0    0  501 -0.00000000000E+00  0.00000000000E+00  0.12320703932E+04  0.12320703932E+04  0.00000000000E+00 0.  1.
          2   -1    0    0  503    0  0.00000000000E+00 -0.00000000000E+00 -0.83581515855E+02  0.83581515855E+02  0.00000000000E+00 0. -1.
         25    1    1    2    0    0  0.87342536412E+01  0.23478695171E+03  0.35739772050E+03  0.44559996689E+03  0.12500000000E+03 0.  0.
         21    1    1    2  502  501 -0.34759348782E+02 -0.28295880766E+02 -0.69163188778E+01  0.45350905866E+02  0.00000000000E+00 0. -1.
         21    1    1    2  503  502  0.26025095141E+02 -0.20649107094E+03  0.79800747574E+03  0.82470103631E+03  0.00000000000E+00 0.  1.
<mgrwt>
<rscale>  4 0.52792374E+03</rscale>
<asrwt>0</asrwt>
<pdfrwt beam="1">  1        2 0.12858696E-01 0.52792374E+03</pdfrwt>
<pdfrwt beam="2">  1       -2 0.18954928E+00 0.52792374E+03</pdfrwt>
<totfact> 0.77714049E+01</totfact>
</mgrwt>
</event>
<event>
 5    0  0.2754780E-002  0.4175052E+03  0.7546771E-02  0.1037881E+00
         -2   -1    0    0    0  501 -0.00000000000E+00  0.00000000000E+00  0.68231864884E+03  0.68231864884E+03  0.00000000000E+00 0.  1.
          2   -1    0    0  503    0  0.00000000000E+00 -0.00000000000E+00 -0.22509157975E+03  0.22509157975E+03  0.00000000000E+00 0. -1.
         25    1    1    2    0    0 -0.21045438366E+03  0.54329766605E+01  0.31545162345E+03  0.39931853397E+03  0.12500000000E+03 0.  0.
         21    1    1    2  502  501  0.51983845502E+02 -0.66657452502E+02 -0.14900971573E+03  0.17131675794E+03  0.00000000000E+00 0.  1.
         21    1    1    2  503  502  0.15847053816E+03  0.61224475841E+02  0.29078516137E+03  0.33677493668E+03  0.00000000000E+00 0.  1.
<mgrwt>
<rscale>  4 0.41750516E+03</rscale>
<asrwt>0</asrwt>
<pdfrwt beam="1">  1        2 0.34629474E-01 0.41750516E+03</pdfrwt>
<pdfrwt beam="2">  1       -2 0.10497210E+00 0.41750516E+03</pdfrwt>
<totfact> 0.11415483E+02</totfact>
</mgrwt>
</event>
<event>
 5    0  0.2754780E-002  0.5338664E+03  0.7546771E-02  0.1005299E+00
          2   -1    0    0  502    0  0.00000000000E+00  0.00000000000E+00  0.82725174846E+03  0.82725174846E+03  0.00000000000E+00 0. -1.
         -2   -1    0    0    0  501 -0.00000000000E+00 -0.00000000000E+00 -0.10149281203E+03  0.10149281203E+03  0.00000000000E+00 0.  1.
         25    1    1    2    0    0  0.10916026586E+03 -0.23290963008E+03  0.29889117589E+03  0.41367111871E+03  0.12500000000E+03 0.  0.
         21    1    1    2  502  503 -0.74736169393E+02  0.23414744867E+03  0.32456874498E+03  0.40713068289E+03  0.00000000000E+00 0.  1.
         21    1    1    2  503  501 -0.34424096465E+02 -0.12378185858E+01  0.10229901556E+03  0.10794275889E+03  0.00000000000E+00 0.  1.
<mgrwt>
<rscale>  4 0.53386639E+03</rscale>
<asrwt>0</asrwt>
<pdfrwt beam="1">  1        2 0.12726950E+00 0.53386639E+03</pdfrwt>
<pdfrwt beam="2">  1       -2 0.15614279E-01 0.53386639E+03</pdfrwt>
<totfact> 0.10844175E+03</totfact>
</mgrwt>
</event>
<event>
 5    0  0.2754780E-002  0.5522463E+03  0.7546771E-02  0.1000975E+00
          2   -1    0    0  503    0  0.00000000000E+00  0.00000000000E+00  0.65575880716E+03  0.65575880716E+03  0.00000000000E+00 0. -1.
         -2   -1    0    0    0  501 -0.00000000000E+00 -0.00000000000E+00 -0.13230159473E+03  0.13230159473E+03  0.00000000000E+00 0.  1.
         25    1    1    2    0    0  0.11412622698E+03  0.21057392426E+03  0.44603783244E+03  0.52147955016E+03  0.12500000000E+03 0.  0.
         21    1    1    2  502  501 -0.27823539633E+02 -0.15340746223E+01  0.10697601639E+01  0.27886325134E+02  0.00000000000E+00 0. -1.
         21    1    1    2  503  502 -0.86302687347E+02 -0.20903984964E+03  0.76349619827E+02  0.23869452660E+03  0.00000000000E+00 0.  1.
<mgrwt>
<rscale>  4 0.55224630E+03</rscale>
<asrwt>0</asrwt>
<pdfrwt beam="1">  1        2 0.10088597E+00 0.55224630E+03</pdfrwt>
<pdfrwt beam="2">  1       -2 0.20354092E-01 0.55224630E+03</pdfrwt>
<totfact> 0.92469104E+02</totfact>
</mgrwt>
</event>
<event>
 5    0  0.2754780E-002  0.5300840E+03  0.7546771E-02  0.1006212E+00
          3   -1    0    0  503    0  0.00000000000E+00  0.00000000000E+00  0.23783534039E+03  0.23783534039E+03  0.00000000000E+00 0.  1.
         -3   -1    0    0    0  501 -0.00000000000E+00 -0.00000000000E+00 -0.46793720594E+03  0.46793720594E+03  0.00000000000E+00 0. -1.
         25    1    1    2    0    0 -0.22918034988E+03 -0.80635829579E+02 -0.28535338055E+03  0.39506622429E+03  0.12500000000E+03 0.  0.
         21    1    1    2  502  501  0.27338125286E+02 -0.56227205516E+01  0.84753913475E+02  0.89231238531E+02  0.00000000000E+00 0.  1.
         21    1    1    2  503  502  0.20184222460E+03  0.86258550130E+02 -0.29502398467E+02  0.22147508351E+03  0.00000000000E+00 0.  1.
<mgrwt>
<rscale>  4 0.53008398E+03</rscale>
<asrwt>0</asrwt>
<pdfrwt beam="1">  1        3 0.36590053E-01 0.53008398E+03</pdfrwt>
<pdfrwt beam="2">  1       -3 0.71990338E-01 0.53008398E+03</pdfrwt>
<totfact> 0.35493778E+01</totfact>
</mgrwt>
</event>
<event>
 5    0  0.2754780E-002  0.6672632E+03  0.7546771E-02  0.9774915E-01
         -1   -1    0    0    0  501 -0.00000000000E+00  0.00000000000E+00  0.54414004648E+02  0.54414004648E+02  0.00000000000E+00 0. -1.
          1   -1    0    0  503    0  0.00000000000E+00 -0.00000000000E+00 -0.20456140556E+04  0.20456140556E+04  0.00000000000E+00 0.  1.
         25    1    1    2    0    0  0.10609177366E+02  0.22719701614E+03 -0.31501679187E+03  0.40815636458E+03  0.12500000000E+03 0.  0.
         21    1    1    2  502  501  0.65252729452E+01 -0.24434037902E+02 -0.24352381868E+03  0.24483351825E+03  0.00000000000E+00 0.  1.
         21    1    1    2  503  502 -0.17134450312E+02 -0.20276297824E+03 -0.14326594404E+04  0.14470381774E+04  0.00000000000E+00 0.  1.
<mgrwt>
<rscale>  4 0.66726322E+03</rscale>
<asrwt>0</asrwt>
<pdfrwt beam="1">  1        1 0.31470981E+00 0.66726322E+03</pdfrwt>
<pdfrwt beam="2">  1       -1 0.83713866E-02 0.66726322E+03</pdfrwt>
<totfact> 0.24045948E+02</totfact>
</mgrwt>
</event>
<event>
 5    0  0.2754780E-002  0.7402891E+03  0.7546771E-02  0.9650710E-01
          2   -1    0    0  503    0  0.00000000000E+00  0.00000000000E+00  0.22330554263E+04  0.22330554263E+04  0.00000000000E+00 0.  1.
         -2   -1    0    0    0  501 -0.00000000000E+00 -0.00000000000E+00 -0.86608931837E+02  0.86608931837E+02  0.00000000000E+00 0. -1.
         25    1    1    2    0    0  0.40680231692E+02  0.36525901371E+03  0.88260536873E+03  0.96420239850E+03  0.12500000000E+03 0.  0.
         21    1    1    2  502  501 -0.85360982477E+01 -0.19207246718E+02  0.64786239986E+03  0.64820326476E+03  0.00000000000E+00 0. -1.
         21    1    1    2  503  502 -0.32144133444E+02 -0.34605176699E+03  0.61597872585E+03  0.70725869486E+03  0.00000000000E+00 0. -1.
<mgrwt>
<rscale>  4 0.74028906E+03</rscale>
<asrwt>0</asrwt>
<pdfrwt beam="1">  1        2 0.34354694E+00 0.74028906E+03</pdfrwt>
<pdfrwt beam="2">  1       -2 0.13324453E-01 0.74028906E+03</pdfrwt>
<totfact> 0.21804697E+02</totfact>
</mgrwt>
</event>
<event>
 5    0  0.2754780E-002  0.5220010E+03  0.7546771E-02  0.1008191E+00
          3   -1    0    0  503    0  0.00000000000E+00  0.00000000000E+00  0.41169161427E+03  0.41169161427E+03  0.00000000000E+00 0.  1.
         -3   -1    0    0    0  501 -0.00000000000E+00 -0.00000000000E+00 -0.18649692752E+03  0.18649692752E+03  0.00000000000E+00 0. -1.
         25    1    1    2    0    0 -0.10043992277E+03 -0.22407217147E+03  0.61241185630E+02  0.28226228747E+03  0.12500000000E+03 0.  0.
         21    1    1    2  502  501 -0.17554393564E+02  0.13582475114E+02  0.37293274088E+02  0.43398486792E+02  0.00000000000E+00 0.  1.
         21    1    1    2  503  502  0.11799431634E+03  0.21048969635E+03  0.12666022703E+03  0.27252776752E+03  0.00000000000E+00 0.  1.
<mgrwt>
<rscale>  4 0.52200102E+03</rscale>
<asrwt>0</asrwt>
<pdfrwt beam="1">  1        3 0.63337171E-01 0.52200102E+03</pdfrwt>
<pdfrwt beam="2">  1       -3 0.28691835E-01 0.52200102E+03</pdfrwt>
<totfact> 0.74622172E+01</totfact>
</mgrwt>
</event>
<event>
 5    0  0.2754780E-002  0.3849091E+03  0.7546771E-02  0.1049134E+00
         -4   -1    0    0    0  501 -0.00000000000E+00  0.00000000000E+00  0.33804300020E+03  0.33804300020E+03  0.00000000000E+00 0. -1.
          4   -1    0    0  503    0  0.00000000000E+00 -0.00000000000E+00 -0.19264449173E+03  0.19264449173E+03  0.00000000000E+00 0.  1.
         25    1    1    2    0    0  0.17050065525E+03  0.12294427307E+03  0.62975007552E+02  0.25254033202E+03  0.12500000000E+03 0.  0.
         21    1    1    2  502  501 -0.55492481086E+02 -0.76206532923E+02 -0.41263224628E+02  0.10290531971E+03  0.00000000000E+00 0.  1.
         21    1    1    2  503  502 -0.11500817416E+03 -0.46737740150E+02  0.12368672555E+03  0.17524184019E+03  0.00000000000E+00 0. -1.
<mgrwt>
<rscale>  4 0.38490906E+03</rscale>
<asrwt>0</asrwt>
<pdfrwt beam="1">  1        4 0.29637614E-01 0.38490906E+03</pdfrwt>
<pdfrwt beam="2">  1       -4 0.52006615E-01 0.38490906E+03</pdfrwt>
<totfact> 0.74358065E+01</totfact>
</mgrwt>
</event>
<event>
 5    0  0.2754780E-002  0.5987498E+03  0.7546771E-02  0.9908003E-01
         -1   -1    0    0    0  501 -0.00000000000E+00  0.00000000000E+00  0.26999977165E+03  0.26999977165E+03  0.00000000000E+00 0.  1.
          1   -1    0    0  503    0  0.00000000000E+00 -0.00000000000E+00 -0.13958351371E+04  0.13958351371E+04  0.00000000000E+00 0. -1.
         25    1    1    2    0    0  0.21134369954E+03 -0.67707291336E+02 -0.17871841319E+03  0.31115222616E+03  0.12500000000E+03 0.  0.
         21    1    1    2  502  501 -0.11626476260E+02 -0.11410532033E+03 -0.10569278695E+04  0.10631329740E+04  0.00000000000E+00 0. -1.
         21    1    1    2  503  502 -0.19971722328E+03  0.18181261167E+03  0.10981091724E+03  0.29154970859E+03  0.00000000000E+00 0.  1.
<mgrwt>
<rscale>  4 0.59874985E+03</rscale>
<asrwt>0</asrwt>
<pdfrwt beam="1">  1        1 0.21474387E+00 0.59874985E+03</pdfrwt>
<pdfrwt beam="2">  1       -1 0.41538426E-01 0.59874985E+03</pdfrwt>
<totfact> 0.46021905E+01</totfact>
</mgrwt>
</event>
<event>
 5    0  0.2754780E-002  0.8228186E+03  0.7546771E-02  0.9527563E-01
          1   -1    0    0  503    0  0.00000000000E+00  0.00000000000E+00  0.82738437636E+03  0.82738437636E+03  0.00000000000E+00 0.  1.
         -1   -1    0    0    0  501 -0.00000000000E+00 -0.00000000000E+00 -0.25469331801E+03  0.25469331801E+03  0.00000000000E+00 0. -1.
         25    1    1    2    0    0 -0.37626090490E+03 -0.32032224053E+02  0.23196028713E+03  0.46046596697E+03  0.12500000000E+03 0.  0.
         21    1    1    2  502  501 -0.44886202874E+02 -0.13765776655E+02  0.14972282819E+03  0.15691141799E+03  0.00000000000E+00 0.  1.
         21    1    1    2  503  502  0.42114710777E+03  0.45798000708E+02  0.19100794304E+03  0.46470030940E+03  0.00000000000E+00 0. -1.
<mgrwt>
<rscale>  4 0.82281864E+03</rscale>
<asrwt>0</asrwt>
<pdfrwt beam="1">  1        1 0.12728990E+00 0.82281864E+03</pdfrwt>
<pdfrwt beam="2">  1       -1 0.39183588E-01 0.82281864E+03</pdfrwt>
<totfact> 0.13394892E+02</totfact>
</mgrwt>
</event>
<event>
 5    0  0.2754780E-002  0.4495410E+03  0.7546771E-02  0.1027859E+00
         -1   -1    0    0    0  501 -0.00000000000E+00  0.00000000000E+00  0.10235064830E+03  0.10235064830E+03  0.00000000000E+00 0.  1.
          1   -1    0    0  503    0  0.00000000000E+00 -0.00000000000E+00 -0.60183331342E+03  0.60183331342E+03  0.00000000000E+00 0. -1.
         25    1    1    2    0    0  0.15756234846E+03  0.14760828336E+03 -0.25859770360E+03  0.35932140387E+03  0.12500000000E+03 0.  0.
         21    1    1    2  502  501 -0.31405733325E+02  0.44282019898E+01 -0.92487982195E+02  0.97775027021E+02  0.00000000000E+00 0.  1.
         21    1    1    2  503  502 -0.12615661514E+03 -0.15203648535E+03 -0.14839697933E+03  0.24708753083E+03  0.00000000000E+00 0.  1.
<mgrwt>
<rscale>  4 0.44954101E+03</rscale>
<asrwt>0</asrwt>
<pdfrwt beam="1">  1        1 0.92589740E-01 0.44954101E+03</pdfrwt>
<pdfrwt beam="2">  1       -1 0.15746254E-01 0.44954101E+03</pdfrwt>
<totfact> 0.10418510E+03</totfact>
</mgrwt>
</event>
<event>
 5    0  0.2754780E-002  0.7554667E+03  0.7546771E-02  0.9626813E-01
         -1   -1    0    0    0  501 -0.00000000000E+00  0.00000000000E+00  0.34671270406E+03  0.34671270406E+03  0.00000000000E+00 0.  1.
          1   -1    0    0  502    0  0.00000000000E+00 -0.00000000000E+00 -0.41152945271E+03  0.41152945271E+03  0.00000000000E+00 0. -1.
         25    1    1    2    0    0  0.11736167137E+03  0.34149244553E+03  0.12556232543E+02  0.38232644591E+03  0.12500000000E+03 0.  0.
         21    1    1    2  502  503 -0.99100250576E+02 -0.33044429948E+03 -0.64414930971E+02  0.35094668834E+03  0.00000000000E+00 0. -1.
         21    1    1    2  503  501 -0.18261420792E+02 -0.11048146055E+02 -0.12958050217E+02  0.24969022529E+02  0.00000000000E+00 0. -1.
<mgrwt>
<rscale>  4 0.75546671E+03</rscale>
<asrwt>0</asrwt>
<pdfrwt beam="1">  1        1 0.63312223E-01 0.75546671E+03</pdfrwt>
<pdfrwt beam="2">  1       -1 0.53340416E-01 0.75546671E+03</pdfrwt>
<totfact> 0.20743996E+02</totfact>
</mgrwt>
</event>
<event>
 5    0  0.2785904E-002  0.1177698E+04  0.7546771E-02  0.9132604E-01
          1   -1    0    0  502    0  0.00000000000E+00  0.00000000000E+00  0.45164100117E+03  0.45164100117E+03  0.00000000000E+00 0. -1.
         -1   -1    0    0    0  501 -0.00000000000E+00 -0.00000000000E+00 -0.83313974400E+03  0.83313974400E+03  0.00000000000E+00 0.  1.
         25    1    1    2    0    0  0.39094150153E+03 -0.26983541506E+03  0.16482150435E+03  0.51810958024E+03  0.12500000000E+03 0.  0.
         21    1    1    2  502  503 -0.36125105912E+03  0.26959156514E+03 -0.57140973654E+03  0.72779875427E+03  0.00000000000E+00 0.  1.
         21    1    1    2  503  501 -0.29690442413E+02  0.24384992064E+00  0.25089489369E+02  0.38872410657E+02  0.00000000000E+00 0.  1.
<mgrwt>
<rscale>  4 0.11776984E+04</rscale>
<asrwt>0</asrwt>
<pdfrwt beam="1">  1        1 0.69483232E-01 0.11776984E+04</pdfrwt>
<pdfrwt beam="2">  1       -1 0.12817534E+00 0.11776984E+04</pdfrwt>
<totfact> 0.26538416E+01</totfact>
</mgrwt>
</event>
<event>
 5    0  0.2754780E-002  0.5322206E+03  0.7546771E-02  0.1005695E+00
          2   -1    0    0  503    0  0.00000000000E+00  0.00000000000E+00  0.11960523314E+04  0.11960523314E+04  0.00000000000E+00 0. -1.
         -2   -1    0    0    0  501 -0.00000000000E+00 -0.00000000000E+00 -0.13384944285E+03  0.13384944285E+03  0.00000000000E+00 0.  1.
         25    1    1    2    0    0 -0.14105409218E+03  0.16701676632E+03  0.40238558671E+03  0.47468939060E+03  0.12500000000E+03 0.  0.
         21    1    1    2  502  501  0.22663790746E+02 -0.19515246874E+02  0.66532296774E+03  0.66599485259E+03  0.00000000000E+00 0. -1.
         21    1    1    2  503  502  0.11839030143E+03 -0.14750151944E+03 -0.55056658931E+01  0.18921753108E+03  0.00000000000E+00 0.  1.
<mgrwt>
<rscale>  4 0.53222056E+03</rscale>
<asrwt>0</asrwt>
<pdfrwt beam="1">  1        2 0.18400804E+00 0.53222056E+03</pdfrwt>
<pdfrwt beam="2">  1       -2 0.20592223E-01 0.53222056E+03</pdfrwt>
<totfact> 0.39437454E+02</totfact>
</mgrwt>
</event>
<event>
 5    0  0.2754780E-002  0.5377321E+03  0.7546771E-02  0.1004374E+00
          1   -1    0    0  502    0  0.00000000000E+00  0.00000000000E+00  0.11681401526E+04  0.11681401526E+04  0.00000000000E+00 0. -1.
         -1   -1    0    0    0  501 -0.00000000000E+00 -0.00000000000E+00 -0.11514303959E+03  0.11514303959E+03  0.00000000000E+00 0.  1.
         25    1    1    2    0    0  0.11251130239E+03 -0.17012982934E+03  0.45143477870E+02  0.24344585762E+03  0.12500000000E+03 0.  0.
         21    1    1    2  502  503 -0.10784949189E+03  0.13564211263E+03  0.47118385101E+03  0.50204035403E+03  0.00000000000E+00 0. -1.
         21    1    1    2  503  501 -0.46618105055E+01  0.34487716708E+02  0.53666978417E+03  0.53779698058E+03  0.00000000000E+00 0.  1.
<mgrwt>
<rscale>  4 0.53773207E+03</rscale>
<asrwt>0</asrwt>
<pdfrwt beam="1">  1        1 0.17971386E+00 0.53773207E+03</pdfrwt>
<pdfrwt beam="2">  1       -1 0.17714315E-01 0.53773207E+03</pdfrwt>
<totfact> 0.29002190E+02</totfact>
</mgrwt>
</event>
<event>
 5    0  0.2754780E-002  0.7049548E+03  0.7546771E-02  0.9708796E-01
          2   -1    0    0  502    0  0.00000000000E+00  0.00000000000E+00  0.71819434660E+03  0.71819434660E+03  0.00000000000E+00 0. -1.
         -2   -1    0    0    0  501 -0.00000000000E+00 -0.00000000000E+00 -0.24767302273E+03  0.24767302273E+03  0.00000000000E+00 0.  1.
         25    1    1    2    0    0 -0.20352240624E+03  0.10255477870E+03  0.36535419049E+03  0.44838324789E+03  0.12500000000E+03 0.  0.
         21    1    1    2  502  503  0.25009908428E+03 -0.14999858019E+03 -0.94880192285E+02  0.30667796938E+03  0.00000000000E+00 0.  1.
         21    1    1    2  503  501 -0.46576678043E+02  0.47443801490E+02  0.20004732567E+03  0.21080615205E+03  0.00000000000E+00 0.  1.
<mgrwt>
<rscale>  4 0.70495479E+03</rscale>
<asrwt>0</asrwt>
<pdfrwt beam="1">  1        2 0.11049144E+00 0.70495479E+03</pdfrwt>
<pdfrwt beam="2">  1       -2 0.38103542E-01 0.70495479E+03</pdfrwt>
<totfact> 0.26046996E+02</totfact>
</mgrwt>
</event>
<event>
 5    0  0.2754780E-002  0.6368230E+03  0.7546771E-02  0.9831824E-01
          2   -1    0    0  502    0  0.00000000000E+00  0.00000000000E+00  0.89715804265E+03  0.89715804265E+03  0.00000000000E+00 0. -1.
         -2   -1    0    0    0  501 -0.00000000000E+00 -0.00000000000E+00 -0.12598602983E+03  0.12598602983E+03  0.00000000000E+00 0.  1.
         25    1    1    2    0    0  0.80404707199E+02 -0.25662750224E+03  0.53094426734E+03  0.60815245364E+03  0.12500000000E+03 0.  0.
         21    1    1    2  502  503 -0.81051498158E+02  0.27827925697E+03  0.15831060829E+03  0.33025889679E+03  0.00000000000E+00 0.  1.
         21    1    1    2  503  501  0.64679095875E+00 -0.21651754724E+02  0.81917137187E+02  0.84732722051E+02  0.00000000000E+00 0.  1.
<mgrwt>
<rscale>  4 0.63682304E+03</rscale>
<asrwt>0</asrwt>
<pdfrwt beam="1">  1        2 0.13802431E+00 0.63682304E+03</pdfrwt>
<pdfrwt beam="2">  1       -2 0.19382467E-01 0.63682304E+03</pdfrwt>
<totfact> 0.66907516E+02</totfact>
</mgrwt>
</event>
<event>
 5    0  0.2754780E-002  0.4808199E+03  0.7546771E-02  0.1018910E+00
          1   -1    0    0  502    0  0.00000000000E+00  0.00000000000E+00  0.14999727091E+04  0.14999727091E+04  0.00000000000E+00 0.  1.
         -1   -1    0    0    0  501 -0.00000000000E+00 -0.00000000000E+00 -0.46787622521E+02  0.46787622521E+02  0.00000000000E+00 0. -1.
         25    1    1    2    0    0 -0.42355062333E+02  0.20576346181E+03  0.86067445498E+03  0.89471675460E+03  0.12500000000E+03 0.  0.
         21    1    1    2  502  503  0.66448218704E+02 -0.19812472769E+03  0.34577128049E+03  0.40401305908E+03  0.00000000000E+00 0. -1.
         21    1    1    2  503  501 -0.24093156371E+02 -0.76387341206E+01  0.24673935113E+03  0.24803051796E+03  0.00000000000E+00 0. -1.
<mgrwt>
<rscale>  4 0.48081994E+03</rscale>
<asrwt>0</asrwt>
<pdfrwt beam="1">  1        1 0.23076500E+00 0.48081994E+03</pdfrwt>
<pdfrwt beam="2">  1       -1 0.71980969E-02 0.48081994E+03</pdfrwt>
<totfact> 0.71388154E+02</totfact>
</mgrwt>
</event>
<event>
 5    0  0.2754780E-002  0.6659979E+03  0.7546771E-02  0.9777215E-01
          1   -1    0    0  503    0  0.00000000000E+00  0.00000000000E+00  0.19511911727E+04  0.19511911727E+04  0.00000000000E+00 0. -1.
         -1   -1    0    0    0  501 -0.00000000000E+00 -0.00000000000E+00 -0.62834036752E+02  0.62834036752E+02  0.00000000000E+00 0.  1.
         25    1    1    2    0    0 -0.23046865606E+03 -0.17219490616E+03  0.13683078106E+04  0.14038013220E+04  0.12500000000E+03 0.  0.
         21    1    1    2  502  501  0.22093974427E+02  0.57910767251E+01  0.16295787021E+03  0.16455074518E+03  0.00000000000E+00 0. -1.
         21    1    1    2  503  502  0.20837468163E+03  0.16640382944E+03  0.35709145512E+03  0.44567314225E+03  0.00000000000E+00 0.  1.
<mgrwt>
<rscale>  4 0.66599787E+03</rscale>
<asrwt>0</asrwt>
<pdfrwt beam="1">  1        1 0.30018321E+00 0.66599787E+03</pdfrwt>
<pdfrwt beam="2">  1       -1 0.96667764E-02 0.66599787E+03</pdfrwt>
<totfact> 0.22171092E+02</totfact>
</mgrwt>
</event>
<event>
 5    0  0.2754780E-002  0.6850196E+03  0.7546771E-02  0.9743199E-01
         -2   -1    0    0    0  501 -0.00000000000E+00  0.00000000000E+00  0.55862317360E+02  0.55862317360E+02  0.00000000000E+00 0. -1.
          2   -1    0    0  503    0  0.00000000000E+00 -0.00000000000E+00 -0.27424361400E+04  0.27424361400E+04  0.00000000000E+00 0.  1.
         25    1    1    2    0    0  0.15152872471E+03  0.29327310397E+03 -0.10617061814E+04  0.11188454243E+04  0.12500000000E+03 0.  0.
         21    1    1    2  502  501  0.23631215925E+02 -0.11196136286E+02 -0.63191322256E+03  0.63245403682E+03  0.00000000000E+00 0.  1.
         21    1    1    2  503  502 -0.17515994063E+03 -0.28207696768E+03 -0.99295441865E+03  0.10469989962E+04  0.00000000000E+00 0. -1.
<mgrwt>
<rscale>  4 0.68501961E+03</rscale>
<asrwt>0</asrwt>
<pdfrwt beam="1">  1        2 0.42191318E+00 0.68501961E+03</pdfrwt>
<pdfrwt beam="2">  1       -2 0.85942042E-02 0.68501961E+03</pdfrwt>
<totfact> 0.23139401E+02</totfact>
</mgrwt>
</event>
<event>
 5    0  0.2754780E-002  0.4509870E+03  0.7546771E-02  0.1027428E+00
          1   -1    0    0  503    0  0.00000000000E+00  0.00000000000E+00  0.12571871674E+03  0.12571871674E+03  0.00000000000E+00 0.  1.
         -1   -1    0    0    0  501 -0.00000000000E+00 -0.00000000000E+00 -0.97223707123E+03  0.97223707123E+03  0.00000000000E+00 0. -1.
         25    1    1    2    0    0 -0.67713267183E+02 -0.20528980013E+03 -0.41735492714E+03  0.48635287991E+03  0.12500000000E+03 0.  0.
         21    1    1    2  502  501  0.30349374111E+02  0.16032603794E+02  0.69178541325E+02  0.77225639999E+02  0.00000000000E+00 0.  1.
         21    1    1    2  503  502  0.37363893072E+02  0.18925719634E+03 -0.49834196868E+03  0.53437726806E+03  0.00000000000E+00 0.  1.
<mgrwt>
<rscale>  4 0.45098695E+03</rscale>
<asrwt>0</asrwt>
<pdfrwt beam="1">  1        1 0.19341341E-01 0.45098695E+03</pdfrwt>
<pdfrwt beam="2">  1       -1 0.14957494E+00 0.45098695E+03</pdfrwt>
<totfact> 0.10011928E+02</totfact>
</mgrwt>
</event>
<event>
 5    0  0.2754780E-002  0.4611728E+03  0.7546771E-02  0.1024442E+00
          4   -1    0    0  503    0  0.00000000000E+00  0.00000000000E+00  0.83136238515E+02  0.83136238515E+02  0.00000000000E+00 0.  1.
         -4   -1    0    0    0  501 -0.00000000000E+00 -0.00000000000E+00 -0.80488676018E+03  0.80488676018E+03  0.00000000000E+00 0. -1.
         25    1    1    2    0    0  0.80329939407E+02 -0.18736906313E+03 -0.58082905381E+03  0.62813012564E+03  0.12500000000E+03 0.  0.
         21    1    1    2  502  501 -0.41487615584E+01  0.21844814779E+02  0.89432566287E+01  0.23966434743E+02  0.00000000000E+00 0. -1.
         21    1    1    2  503  502 -0.76181177849E+02  0.16552424835E+03 -0.14986472448E+03  0.23592643831E+03  0.00000000000E+00 0. -1.
<mgrwt>
<rscale>  4 0.46117280E+03</rscale>
<asrwt>0</asrwt>
<pdfrwt beam="1">  1        4 0.12790191E-01 0.46117280E+03</pdfrwt>
<pdfrwt beam="2">  1       -4 0.12382873E+00 0.46117280E+03</pdfrwt>
<totfact> 0.49150302E+01</totfact>
</mgrwt>
</event>
<event>
 5    0  0.2754780E-002  0.6007647E+03  0.7546771E-02  0.9903821E-01
         -1   -1    0    0    0  501 -0.00000000000E+00  0.00000000000E+00  0.10631093804E+03  0.10631093804E+03  0.00000000000E+00 0. -1.
          1   -1    0    0  502    0  0.00000000000E+00 -0.00000000000E+00 -0.95828474611E+03  0.95828474611E+03  0.00000000000E+00 0.  1.
         25    1    1    2    0    0 -0.28902796223E+03  0.61579313242E+02 -0.38372014024E+03  0.50019528266E+03  0.12500000000E+03 0.  0.
         21    1    1    2  502  503  0.26901457084E+03 -0.75309566512E+02 -0.37247354291E+03  0.46559307373E+03  0.00000000000E+00 0.  1.
         21    1    1    2  503  501  0.20013391382E+02  0.13730253270E+02 -0.95780124915E+02  0.98807327755E+02  0.00000000000E+00 0. -1.
<mgrwt>
<rscale>  4 0.60076473E+03</rscale>
<asrwt>0</asrwt>
<pdfrwt beam="1">  1        1 0.14742842E+00 0.60076473E+03</pdfrwt>
<pdfrwt beam="2">  1       -1 0.16355529E-01 0.60076473E+03</pdfrwt>
<totfact> 0.47313474E+02</totfact>
</mgrwt>
</event>
<event>
 5    0  0.2754780E-002  0.5588764E+03  0.7546771E-02  0.9994600E-01
          4   -1    0    0  502    0  0.00000000000E+00  0.00000000000E+00  0.59000229285E+03  0.59000229285E+03  0.00000000000E+00 0. -1.
         -4   -1    0    0    0  501 -0.00000000000E+00 -0.00000000000E+00 -0.15996593834E+03  0.15996593834E+03  0.00000000000E+00 0.  1.
         25    1    1    2    0    0 -0.14009385965E+03  0.20410660119E+03  0.77271118055E+02  0.28789168075E+03  0.12500000000E+03 0.  0.
         21    1    1    2  502  503  0.16351031035E+03 -0.19802124347E+03  0.25704429019E+03  0.36334529249E+03  0.00000000000E+00 0.  1.
         21    1    1    2  503  501 -0.23416450703E+02 -0.60853577209E+01  0.95720946263E+02  0.98731257946E+02  0.00000000000E+00 0.  1.
<mgrwt>
<rscale>  4 0.55887638E+03</rscale>
<asrwt>0</asrwt>
<pdfrwt beam="1">  1        4 0.90769582E-01 0.55887638E+03</pdfrwt>
<pdfrwt beam="2">  1       -4 0.24610145E-01 0.55887638E+03</pdfrwt>
<totfact> 0.31982903E+01</totfact>
</mgrwt>
</event>
<event>
 5    0  0.2754780E-002  0.4892966E+03  0.7546771E-02  0.1016611E+00
         -2   -1    0    0    0  501 -0.00000000000E+00  0.00000000000E+00  0.88921459816E+03  0.88921459816E+03  0.00000000000E+00 0. -1.
          2   -1    0    0  502    0  0.00000000000E+00 -0.00000000000E+00 -0.16313854527E+03  0.16313854527E+03  0.00000000000E+00 0.  1.
         25    1    1    2    0    0  0.19219753979E+03  0.58607911033E+02  0.24303699305E+03  0.33921491938E+03  0.12500000000E+03 0.  0.
         21    1    1    2  502  503 -0.42596116117E+01 -0.43762577663E+02  0.51930099224E+03  0.52115911969E+03  0.00000000000E+00 0. -1.
         21    1    1    2  503  501 -0.18793792817E+03 -0.14845333370E+02 -0.36261932403E+02  0.19197910436E+03  0.00000000000E+00 0.  1.
<mgrwt>
<rscale>  4 0.48929660E+03</rscale>
<asrwt>0</asrwt>
<pdfrwt beam="1">  1        2 0.25098238E-01 0.48929660E+03</pdfrwt>
<pdfrwt beam="2">  1       -2 0.13680224E+00 0.48929660E+03</pdfrwt>
<totfact> 0.85104264E+01</totfact>
</mgrwt>
</event>
<event>
 5    0  0.2754780E-002  0.1235535E+04  0.7546771E-02  0.9082309E-01
         -2   -1    0    0    0  501 -0.00000000000E+00  0.00000000000E+00  0.47257687784E+03  0.47257687784E+03  0.00000000000E+00 0. -1.
          2   -1    0    0  502    0  0.00000000000E+00 -0.00000000000E+00 -0.12850849015E+04  0.12850849015E+04  0.00000000000E+00 0.  1.
         25    1    1    2    0    0  0.40363134815E+03 -0.35683325204E+02  0.30723204119E+03  0.52364882511E+03  0.12500000000E+03 0.  0.
         21    1    1    2  502  503 -0.39866160274E+03  0.11444417299E+02 -0.64308983293E+03  0.75672094024E+03  0.00000000000E+00 0.  1.
         21    1    1    2  503  501 -0.49697454062E+01  0.24238907905E+02 -0.47665023192E+03  0.47729201399E+03  0.00000000000E+00 0. -1.
<mgrwt>
<rscale>  4 0.12355348E+04</rscale>
<asrwt>0</asrwt>
<pdfrwt beam="1">  1        2 0.19770536E+00 0.12355348E+04</pdfrwt>
<pdfrwt beam="2">  1       -2 0.72704137E-01 0.12355348E+04</pdfrwt>
<totfact> 0.28270915E+01</totfact>
</mgrwt>
</event>
<event>
 5    0  0.2754780E-002  0.5889468E+03  0.7546771E-02  0.9928607E-01
         -1   -1    0    0    0  501 -0.00000000000E+00  0.00000000000E+00  0.58138240286E+02  0.58138240286E+02  0.00000000000E+00 0.  1.
          1   -1    0    0  502    0  0.00000000000E+00 -0.00000000000E+00 -0.14915238482E+04  0.14915238482E+04  0.00000000000E+00 0. -1.
         25    1    1    2    0    0  0.19507746744E+03 -0.13213856065E+03 -0.11020601264E+04  0.11338771272E+04  0.12500000000E+03 0.  0.
         21    1    1    2  502  503 -0.15224956356E+03  0.13887952761E+03 -0.25346990427E+03  0.32667176977E+03  0.00000000000E+00 0.  1.
         21    1    1    2  503  501 -0.42827903872E+02 -0.67409669567E+01 -0.77855577318E+02  0.89113191532E+02  0.00000000000E+00 0.  1.
<mgrwt>
<rscale>  4 0.58894676E+03</rscale>
<asrwt>0</asrwt>
<pdfrwt beam="1">  1        1 0.22946520E+00 0.58894676E+03</pdfrwt>
<pdfrwt beam="2">  1       -1 0.89443448E-02 0.58894676E+03</pdfrwt>
<totfact> 0.51241777E+02</totfact>
</mgrwt>
</event>
<event>
 5    0  0.2754780E-002  0.7080827E+03  0.7546771E-02  0.9703509E-01
          2   -1    0    0  502    0  0.00000000000E+00  0.00000000000E+00  0.50349229440E+03  0.50349229440E+03  0.00000000000E+00 0.  1.
         -2   -1    0    0    0  501 -0.00000000000E+00 -0.00000000000E+00 -0.24895174403E+03  0.24895174403E+03  0.00000000000E+00 0. -1.
         25    1    1    2    0    0  0.12963223171E+03  0.27506587787E+03 -0.26392415564E+02  0.32982921682E+03  0.12500000000E+03 0.  0.
         21    1    1    2  502  503 -0.93928929375E+02 -0.26033893144E+03  0.23991927235E+03  0.36627893776E+03  0.00000000000E+00 0.  1.
         21    1    1    2  503  501 -0.35703302332E+02 -0.14726946430E+02  0.41013693586E+02  0.56335883858E+02  0.00000000000E+00 0. -1.
<mgrwt>
<rscale>  4 0.70808272E+03</rscale>
<asrwt>0</asrwt>
<pdfrwt beam="1">  1        2 0.77460353E-01 0.70808272E+03</pdfrwt>
<pdfrwt beam="2">  1       -2 0.38300268E-01 0.70808272E+03</pdfrwt>
<totfact> 0.39621380E+02</totfact>
</mgrwt>
</event>
<event>
 5    0  0.2754780E-002  0.7794101E+03  0.7546771E-02  0.9590308E-01
          1   -1    0    0  503    0  0.00000000000E+00  0.00000000000E+00  0.51677328618E+03  0.51677328618E+03  0.00000000000E+00 0. -1.
         -1   -1    0    0    0  501 -0.00000000000E+00 -0.00000000000E+00 -0.32558484496E+03  0.32558484496E+03  0.00000000000E+00 0.  1.
         25    1    1    2    0    0 -0.86670199109E+02  0.30722187676E+03  0.29853197789E+03  0.45458040740E+03  0.12500000000E+03 0.  0.
         21    1    1    2  502  501  0.37558891048E+02  0.45116183175E+01  0.25243507331E+02  0.45478122861E+02  0.00000000000E+00 0. -1.
         21    1    1    2  503  502  0.49111308061E+02 -0.31173349507E+03 -0.13258704400E+03  0.34229960088E+03  0.00000000000E+00 0.  1.
<mgrwt>
<rscale>  4 0.77941005E+03</rscale>
<asrwt>0</asrwt>
<pdfrwt beam="1">  1        1 0.79503582E-01 0.77941005E+03</pdfrwt>
<pdfrwt beam="2">  1       -1 0.50089976E-01 0.77941005E+03</pdfrwt>
<totfact> 0.17154571E+02</totfact>
</mgrwt>
</event>
<event>
 5    0  0.2754780E-002  0.4755239E+03  0.7546771E-02  0.1020373E+00
          1   -1    0    0  503    0  0.00000000000E+00  0.00000000000E+00  0.52448550506E+04  0.52448550506E+04  0.00000000000E+00 0. -1.
         -1   -1    0    0    0  501 -0.00000000000E+00 -0.00000000000E+00 -0.21198893291E+02  0.21198893291E+02  0.00000000000E+00 0.  1.
         25    1    1    2    0    0 -0.15705658909E+03 -0.18785473569E+03  0.12416513630E+04  0.12717229577E+04  0.12500000000E+03 0.  0.
         21    1    1    2  502  501  0.55553257008E+02  0.35205414608E+02  0.25227156950E+04  0.25235728765E+04  0.00000000000E+00 0.  1.
         21    1    1    2  503  502  0.10150333209E+03  0.15264932108E+03  0.14592890993E+04  0.14707581096E+04  0.00000000000E+00 0. -1.
<mgrwt>
<rscale>  4 0.47552395E+03</rscale>
<asrwt>0</asrwt>
<pdfrwt beam="1">  1        1 0.80689974E+00 0.47552395E+03</pdfrwt>
<pdfrwt beam="2">  1       -1 0.32613724E-02 0.47552395E+03</pdfrwt>
<totfact> 0.18104678E+00</totfact>
</mgrwt>
</event>
<event>
 5    0  0.2754780E-002  0.4128289E+03  0.7546771E-02  0.1039426E+00
          1   -1    0    0  502    0  0.00000000000E+00  0.00000000000E+00  0.30527443370E+03  0.30527443370E+03  0.00000000000E+00 0. -1.
         -1   -1    0    0    0  501 -0.00000000000E+00 -0.00000000000E+00 -0.30369352910E+03  0.30369352910E+03  0.00000000000E+00 0.  1.
         25    1    1    2    0    0  0.15382753980E+03 -0.16453957761E+03 -0.86926936367E+02  0.27187768733E+03  0.12500000000E+03 0.  0.
         21    1    1    2  502  503 -0.67074838137E+02  0.13992959688E+03 -0.57495372822E+02  0.16548427083E+03  0.00000000000E+00 0.  1.
         21    1    1    2  503  501 -0.86752701659E+02  0.24609980725E+02  0.14600321378E+03  0.17160600465E+03  0.00000000000E+00 0.  1.
<mgrwt>
<rscale>  4 0.41282887E+03</rscale>
<asrwt>0</asrwt>
<pdfrwt beam="1">  1        1 0.46965298E-01 0.41282887E+03</pdfrwt>
<pdfrwt beam="2">  1       -1 0.46722081E-01 0.41282887E+03</pdfrwt>
<totfact> 0.39893365E+02</totfact>
</mgrwt>
</event>
<event>
 5    0  0.2754780E-002  0.5526972E+03  0.7546771E-02  0.1000872E+00
          2   -1    0    0  502    0  0.00000000000E+00  0.00000000000E+00  0.66880358628E+03  0.66880358628E+03  0.00000000000E+00 0. -1.
         -2   -1    0    0    0  501 -0.00000000000E+00 -0.00000000000E+00 -0.19728444812E+03  0.19728444812E+03  0.00000000000E+00 0.  1.
         25    1    1    2    0    0 -0.72590422842E+02  0.24966320250E+03  0.20006210442E+03  0.35107111786E+03  0.12500000000E+03 0.  0.
         21    1    1    2  502  503  0.27616376128E+02 -0.23366590116E+03 -0.41279543595E+01  0.23532840373E+03  0.00000000000E+00 0.  1.
         21    1    1    2  503  501  0.44974046715E+02 -0.15997301345E+02  0.27558498810E+03  0.27968851280E+03  0.00000000000E+00 0.  1.
<mgrwt>
<rscale>  4 0.55269721E+03</rscale>
<asrwt>0</asrwt>
<pdfrwt beam="1">  1        2 0.10289286E+00 0.55269721E+03</pdfrwt>
<pdfrwt beam="2">  1       -2 0.30351454E-01 0.55269721E+03</pdfrwt>
<totfact> 0.44056288E+02</totfact>
</mgrwt>
</event>
<event>
 5    0  0.2754780E-002  0.5855170E+03  0.7546771E-02  0.9935918E-01
         -2   -1    0    0    0  501 -0.00000000000E+00  0.00000000000E+00  0.14672813107E+03  0.14672813107E+03  0.00000000000E+00 0. -1.
          2   -1    0    0  503    0  0.00000000000E+00 -0.00000000000E+00 -0.67583733196E+03  0.67583733196E+03  0.00000000000E+00 0.  1.
         25    1    1    2    0    0  0.17343839631E+02  0.29004342891E+03 -0.30535918841E+03  0.43965353788E+03  0.12500000000E+03 0.  0.
         21    1    1    2  502  501  0.26422105124E+02 -0.29897167600E+02 -0.61177735067E+02  0.73038917965E+02  0.00000000000E+00 0.  1.
         21    1    1    2  503  502 -0.43765944755E+02 -0.26014626131E+03 -0.16257227742E+03  0.30987300718E+03  0.00000000000E+00 0. -1.
<mgrwt>
<rscale>  4 0.58551702E+03</rscale>
<asrwt>0</asrwt>
<pdfrwt beam="1">  1        2 0.10397498E+00 0.58551702E+03</pdfrwt>
<pdfrwt beam="2">  1       -2 0.22573558E-01 0.58551702E+03</pdfrwt>
<totfact> 0.74231625E+02</totfact>
</mgrwt>
</event>
