<event>
 5    0  0.4257006E+000  0.2895089E+03  0.7546771E-02  0.1090606E+00
         21   -1    0    0  504  501  0.00000000000E+00  0.00000000000E+00  0.21263624290E+03  0.21263624290E+03  0.00000000000E+00 0.  1.
         21   -1    0    0  503  502 -0.00000000000E+00 -0.00000000000E+00 -0.78608263649E+03  0.78608263649E+03  0.00000000000E+00 0.  1.
         25    1    1    2    0    0 -0.25810009386E+03 -0.17407092061E+02  0.49716087935E+02  0.29157392666E+03  0.12500000000E+03 0.  0.
         21    1    1    2  503  501  0.27444657988E+03 -0.37420761700E+02 -0.52104542030E+03  0.59009284746E+03  0.00000000000E+00 0.  1.
         21    1    1    2  504  502 -0.16346486013E+02  0.54827853761E+02 -0.10211706123E+03  0.11705210526E+03  0.00000000000E+00 0.  1.
<mgrwt>
<rscale>  4 0.28950892E+03</rscale>
<asrwt>0</asrwt>
<pdfrwt beam="1">  1       21 0.32713268E-01 0.28950892E+03</pdfrwt>
<pdfrwt beam="2">  1       21 0.12093579E+00 0.28950892E+03</pdfrwt>
<totfact> 0.43603149E+03</totfact>
</mgrwt>
</event>
<event>
 5    0  0.4257006E+000  0.2396642E+03  0.7546771E-02  0.1120017E+00
         21   -1    0    0  503  501  0.00000000000E+00  0.00000000000E+00  0.13431034441E+04  0.13431034441E+04  0.00000000000E+00 0.  1.
         21   -1    0    0  504  502 -0.00000000000E+00 -0.00000000000E+00 -0.54085787076E+03  0.54085787076E+03  0.00000000000E+00 0. -1.
         25    1    1    2    0    0 -0.16694030912E+03  0.26392681154E+03  0.21495497264E+03  0.39919552718E+03  0.12500000000E+03 0.  0.
         21    1    1    2  503  502  0.68391327225E+02 -0.97045831561E+02 -0.43158727480E+03  0.44761908229E+03  0.00000000000E+00 0. -1.
         21    1    1    2  504  501  0.98548981891E+02 -0.16688097998E+03  0.10188778755E+04  0.10371467054E+04  0.00000000000E+00 0.  1.
<mgrwt>
<rscale>  4 0.23966416E+03</rscale>
<asrwt>0</asrwt>
<pdfrwt beam="1">  1       21 0.20663130E+00 0.23966416E+03</pdfrwt>
<pdfrwt beam="2">  1       21 0.83208904E-01 0.23966416E+03</pdfrwt>
<totfact> 0.14441637E+02</totfact>
</mgrwt>
</event>
<event>
 5    0  0.4257006E+000  0.3774430E+03  0.7546771E-02  0.1051883E+00
         21   -1    0    0  504  501  0.00000000000E+00  0.00000000000E+00  0.27555326186E+03  0.27555326186E+03  0.00000000000E+00 0. -1.
         21   -1    0    0  501  502 -0.00000000000E+00 -0.00000000000E+00 -0.98742164715E+03  0.98742164715E+03  0.00000000000E+00 0. -1.
         25    1    1    2    0    0  0.28130332211E+03 -0.18518319737E+03 -0.68546005104E+02  0.36571564150E+03  0.12500000000E+03 0.  0.
         21    1    1    2  503  502  0.39264612138E+02 -0.22528761806E+02 -0.47950018001E+03  0.48163230530E+03  0.00000000000E+00 0. -1.
         21    1    1    2  504  503 -0.32056793425E+03  0.20771195917E+03 -0.16382220017E+03  0.41562696222E+03  0.00000000000E+00 0. -1.
<mgrwt>
<rscale>  4 0.37744297E+03</rscale>
<asrwt>0</asrwt>
<pdfrwt beam="1">  1       21 0.42392809E-01 0.37744297E+03</pdfrwt>
<pdfrwt beam="2">  1       21 0.15191102E+00 0.37744297E+03</pdfrwt>
<totfact> 0.13582489E+03</totfact>
</mgrwt>
</event>
<event>
 5    0  0.4257006E+000  0.2404456E+03  0.7546771E-02  0.1119496E+00
         21   -1    0    0  503  501  0.00000000000E+00  0.00000000000E+00  0.30345353327E+03  0.30345353327E+03  0.00000000000E+00 0.  1.
         21   -1    0    0  504  502 -0.00000000000E+00 -0.00000000000E+00 -0.81339741035E+03  0.81339741035E+03  0.00000000000E+00 0.  1.
         25    1    1    2    0    0  0.82382973376E+00 -0.20633431618E+03  0.23724033279E+03  0.33835263297E+03  0.12500000000E+03 0.  0.
         21    1    1    2  503  502 -0.19800881135E+02  0.13126728192E+02 -0.10252550008E+03  0.10524193106E+03  0.00000000000E+00 0.  1.
         21    1    1    2  504  501  0.18977051401E+02  0.19320758799E+03 -0.64465870980E+03  0.67325637959E+03  0.00000000000E+00 0.  1.
<mgrwt>
<rscale>  4 0.24044559E+03</rscale>
<asrwt>0</asrwt>
<pdfrwt beam="1">  1       21 0.46685160E-01 0.24044559E+03</pdfrwt>
<pdfrwt beam="2">  1       21 0.12513806E+00 0.24044559E+03</pdfrwt>
<totfact> 0.20066037E+03</totfact>
</mgrwt>
</event>
<event>
 5    0  0.4257006E+000  0.2804986E+03  0.7546771E-02  0.1095417E+00
         21   -1    0    0  503  501  0.00000000000E+00  0.00000000000E+00  0.41135502879E+03  0.41135502879E+03  0.00000000000E+00 0.  1.
         21   -1    0    0  504  502 -0.00000000000E+00 -0.00000000000E+00 -0.19403955796E+03  0.19403955796E+03  0.00000000000E+00 0.  1.
         25    1    1    2    0    0 -0.21882402750E+03  0.12316857394E+03  0.19631706824E+03  0.34237383647E+03  0.12500000000E+03 0.  0.
         21    1    1    2  503  502  0.83532161549E+02 -0.11765790913E+02 -0.10331242433E+02  0.84987001471E+02  0.00000000000E+00 0.  1.
         21    1    1    2  504  501  0.13529186595E+03 -0.11140278302E+03  0.31329645036E+02  0.17803374881E+03  0.00000000000E+00 0.  1.
<mgrwt>
<rscale>  4 0.28049858E+03</rscale>
<asrwt>0</asrwt>
<pdfrwt beam="1">  1       21 0.63285389E-01 0.28049858E+03</pdfrwt>
<pdfrwt beam="2">  1       21 0.29852240E-01 0.28049858E+03</pdfrwt>
<totfact> 0.23790710E+04</totfact>
</mgrwt>
</event>
<event>
 5    0  0.4257006E+000  0.2434909E+03  0.7546771E-02  0.1117489E+00
         21   -1    0    0  504  501  0.00000000000E+00  0.00000000000E+00  0.10088117397E+03  0.10088117397E+03  0.00000000000E+00 0.  1.
         21   -1    0    0  503  502 -0.00000000000E+00 -0.00000000000E+00 -0.10717233427E+04  0.10717233427E+04  0.00000000000E+00 0. -1.
         25    1    1    2    0    0  0.18555888101E+03 -0.93974365780E+02 -0.88103231843E+02  0.25816750223E+03  0.12500000000E+03 0.  0.
         21    1    1    2  503  501 -0.19973387508E+03  0.77067007537E+02 -0.75328454086E+03  0.78311591990E+03  0.00000000000E+00 0. -1.
         21    1    1    2  504  502  0.14174994068E+02  0.16907358242E+02 -0.12945439608E+03  0.13132109459E+03  0.00000000000E+00 0. -1.
<mgrwt>
<rscale>  4 0.24349095E+03</rscale>
<asrwt>0</asrwt>
<pdfrwt beam="1">  1       21 0.15520181E-01 0.24349095E+03</pdfrwt>
<pdfrwt beam="2">  1       21 0.16488051E+00 0.24349095E+03</pdfrwt>
<totfact> 0.82395584E+03</totfact>
</mgrwt>
</event>
<event>
 5    0  0.4257006E+000  0.2388647E+03  0.7546771E-02  0.1120551E+00
         21   -1    0    0  504  501  0.00000000000E+00  0.00000000000E+00  0.74838466153E+03  0.74838466153E+03  0.00000000000E+00 0.  1.
         21   -1    0    0  501  502 -0.00000000000E+00 -0.00000000000E+00 -0.19733069084E+03  0.19733069084E+03  0.00000000000E+00 0.  1.
         25    1    1    2    0    0  0.81547273351E+02 -0.18270829520E+03  0.62757250436E+03  0.67045098789E+03  0.12500000000E+03 0.  0.
         21    1    1    2  503  502  0.99472318127E+01 -0.22695174195E+02 -0.40585082776E+02  0.47551732843E+02  0.00000000000E+00 0. -1.
         21    1    1    2  504  503 -0.91494505164E+02  0.20540346940E+03 -0.35933450900E+02  0.22771263164E+03  0.00000000000E+00 0.  1.
<mgrwt>
<rscale>  4 0.23886469E+03</rscale>
<asrwt>0</asrwt>
<pdfrwt beam="1">  1       21 0.11513610E+00 0.23886469E+03</pdfrwt>
<pdfrwt beam="2">  1       21 0.30358568E-01 0.23886469E+03</pdfrwt>
<totfact> 0.58862502E+03</totfact>
</mgrwt>
</event>
<event>
 5    0  0.4257006E+000  0.2761585E+03  0.7546771E-02  0.1097806E+00
         21   -1    0    0  503  501  0.00000000000E+00  0.00000000000E+00  0.49039099886E+03  0.49039099886E+03  0.00000000000E+00 0. -1.
         21   -1    0    0  504  502 -0.00000000000E+00 -0.00000000000E+00 -0.40725689823E+03  0.40725689823E+03  0.00000000000E+00 0. -1.
         25    1    1    2    0    0  0.16791664009E+03 -0.16729566790E+03  0.32215992317E+03  0.41904159055E+03  0.12500000000E+03 0.  0.
         21    1    1    2  503  502 -0.21269239558E+02 -0.83843142749E+02 -0.15226756699E+03  0.17512128681E+03  0.00000000000E+00 0. -1.
         21    1    1    2  504  501 -0.14664740053E+03  0.25113881065E+03 -0.86758255546E+02  0.30348501973E+03  0.00000000000E+00 0. -1.
<mgrwt>
<rscale>  4 0.27615851E+03</rscale>
<asrwt>0</asrwt>
<pdfrwt beam="1">  1       21 0.75444769E-01 0.27615851E+03</pdfrwt>
<pdfrwt beam="2">  1       21 0.62654907E-01 0.27615851E+03</pdfrwt>
<totfact> 0.34920622E+03</totfact>
</mgrwt>
</event>
<event>
 5    0  0.4257006E+000  0.2511022E+03  0.7546771E-02  0.1112610E+00
         21   -1    0    0  503  501  0.00000000000E+00  0.00000000000E+00  0.10390625898E+04  0.10390625898E+04  0.00000000000E+00 0.  1.
         21   -1    0    0  504  502 -0.00000000000E+00 -0.00000000000E+00 -0.92951746319E+02  0.92951746319E+02  0.00000000000E+00 0.  1.
         25    1    1    2    0    0  0.21465136388E+03  0.17764278064E+02  0.80183355884E+03  0.83961469358E+03  0.12500000000E+03 0.  0.
         21    1    1    2  503  502 -0.22736689177E+03  0.31277742720E+01  0.11686127330E+03  0.25566001573E+03  0.00000000000E+00 0.  1.
         21    1    1    2  504  501  0.12715527888E+02 -0.20892052336E+02  0.27416011320E+02  0.36739626794E+02  0.00000000000E+00 0.  1.
<mgrwt>
<rscale>  4 0.25110220E+03</rscale>
<asrwt>0</asrwt>
<pdfrwt beam="1">  1       21 0.15985577E+00 0.25110220E+03</pdfrwt>
<pdfrwt beam="2">  1       21 0.14300269E-01 0.25110220E+03</pdfrwt>
<totfact> 0.10368375E+04</totfact>
</mgrwt>
</event>
<event>
 5    0  0.4257006E+000  0.2723552E+03  0.7546771E-02  0.1099939E+00
         21   -1    0    0  503  501  0.00000000000E+00  0.00000000000E+00  0.67025840415E+03  0.67025840415E+03  0.00000000000E+00 0.  1.
         21   -1    0    0  504  502 -0.00000000000E+00 -0.00000000000E+00 -0.15255022477E+03  0.15255022477E+03  0.00000000000E+00 0.  1.
         25    1    1    2    0    0  0.12297660577E+03 -0.19434417983E+03  0.33127543230E+03  0.42221003996E+03  0.12500000000E+03 0.  0.
         21    1    1    2  503  502 -0.15056049025E+03  0.20871937512E+03  0.23128712677E+03  0.34601441268E+03  0.00000000000E+00 0.  1.
         21    1    1    2  504  501  0.27583884475E+02 -0.14375195289E+02 -0.44854379692E+02  0.54584176277E+02  0.00000000000E+00 0.  1.
<mgrwt>
<rscale>  4 0.27235515E+03</rscale>
<asrwt>0</asrwt>
<pdfrwt beam="1">  1       21 0.10311668E+00 0.27235515E+03</pdfrwt>
<pdfrwt beam="2">  1       21 0.23469266E-01 0.27235515E+03</pdfrwt>
<totfact> 0.12436414E+04</totfact>
</mgrwt>
</event>
<event>
 5    0  0.4257006E+000  0.2798643E+03  0.7546771E-02  0.1095763E+00
         21   -1    0    0  503  501  0.00000000000E+00  0.00000000000E+00  0.15466835410E+03  0.15466835410E+03  0.00000000000E+00 0. -1.
         21   -1    0    0  504  502 -0.00000000000E+00 -0.00000000000E+00 -0.21085540785E+04  0.21085540785E+04  0.00000000000E+00 0. -1.
         25    1    1    2    0    0 -0.18555725792E+03 -0.18482686941E+03 -0.32825746192E+02  0.29205307263E+03  0.12500000000E+03 0.  0.
         21    1    1    2  503  502  0.28526960678E+02  0.15544192407E+03 -0.27345991151E+03  0.31584221131E+03  0.00000000000E+00 0. -1.
         21    1    1    2  504  501  0.15703029724E+03  0.29384945338E+02 -0.16476000667E+04  0.16553271486E+04  0.00000000000E+00 0. -1.
<mgrwt>
<rscale>  4 0.27986433E+03</rscale>
<asrwt>0</asrwt>
<pdfrwt beam="1">  1       21 0.23795132E-01 0.27986433E+03</pdfrwt>
<pdfrwt beam="2">  1       21 0.32439293E+00 0.27986433E+03</pdfrwt>
<totfact> 0.36806645E+02</totfact>
</mgrwt>
</event>
<event>
 5    0  0.4257006E+000  0.2560106E+03  0.7546771E-02  0.1109564E+00
         21   -1    0    0  504  501  0.00000000000E+00  0.00000000000E+00  0.71302834464E+03  0.71302834464E+03  0.00000000000E+00 0. -1.
         21   -1    0    0  501  502 -0.00000000000E+00 -0.00000000000E+00 -0.41053077851E+03  0.41053077851E+03  0.00000000000E+00 0. -1.
         25    1    1    2    0    0  0.12637030346E+03 -0.18929381744E+03  0.57281499588E+03  0.62892258858E+03  0.12500000000E+03 0.  0.
         21    1    1    2  503  502 -0.40069660177E+02 -0.30305405881E+01 -0.28071896201E+03  0.28358049558E+03  0.00000000000E+00 0. -1.
         21    1    1    2  504  503 -0.86300643280E+02  0.19232435803E+03  0.10401532255E+02  0.21105603899E+03  0.00000000000E+00 0. -1.
<mgrwt>
<rscale>  4 0.25601059E+03</rscale>
<asrwt>0</asrwt>
<pdfrwt beam="1">  1       21 0.10969667E+00 0.25601059E+03</pdfrwt>
<pdfrwt beam="2">  1       21 0.63158581E-01 0.25601059E+03</pdfrwt>
<totfact> 0.14455557E+03</totfact>
</mgrwt>
</event>
<event>
 5    0  0.4257006E+000  0.2880255E+03  0.7546771E-02  0.1091385E+00
         21   -1    0    0  504  501  0.00000000000E+00  0.00000000000E+00  0.12206201956E+04  0.12206201956E+04  0.00000000000E+00 0.  1.
         21   -1    0    0  503  502 -0.00000000000E+00 -0.00000000000E+00 -0.19598640742E+03  0.19598640742E+03  0.00000000000E+00 0.  1.
         25    1    1    2    0    0 -0.24573845575E+03  0.96546516283E+02  0.57668973526E+03  0.64645546575E+03  0.12500000000E+03 0.  0.
         21    1    1    2  503  501  0.26815426448E+03  0.26577287639E+02  0.54750908507E+03  0.61022885871E+03  0.00000000000E+00 0.  1.
         21    1    1    2  504  502 -0.22415808724E+02 -0.12312380392E+03 -0.99565032103E+02  0.15992227859E+03  0.00000000000E+00 0.  1.
<mgrwt>
<rscale>  4 0.28802546E+03</rscale>
<asrwt>0</asrwt>
<pdfrwt beam="1">  1       21 0.18778772E+00 0.28802546E+03</pdfrwt>
<pdfrwt beam="2">  1       21 0.30151756E-01 0.28802546E+03</pdfrwt>
<totfact> 0.15679582E+03</totfact>
</mgrwt>
</event>
<event>
 5    0  0.4257006E+000  0.2948286E+03  0.7546771E-02  0.1087855E+00
         21   -1    0    0  504  501  0.00000000000E+00  0.00000000000E+00  0.42227498445E+03  0.42227498445E+03  0.00000000000E+00 0. -1.
         21   -1    0    0  503  502 -0.00000000000E+00 -0.00000000000E+00 -0.44368340620E+03  0.44368340620E+03  0.00000000000E+00 0. -1.
         25    1    1    2    0    0 -0.59170860982E+02 -0.26105513435E+03  0.29729810114E+03  0.41912066866E+03  0.12500000000E+03 0.  0.
         21    1    1    2  503  501  0.96012422787E+02  0.24824647272E+03 -0.23738493241E+03  0.35664590659E+03  0.00000000000E+00 0. -1.
         21    1    1    2  504  502 -0.36841561804E+02  0.12808661625E+02 -0.81321590478E+02  0.90191815409E+02  0.00000000000E+00 0.  1.
<mgrwt>
<rscale>  4 0.29482863E+03</rscale>
<asrwt>0</asrwt>
<pdfrwt beam="1">  1       21 0.64965383E-01 0.29482863E+03</pdfrwt>
<pdfrwt beam="2">  1       21 0.68258985E-01 0.29482863E+03</pdfrwt>
<totfact> 0.39935656E+03</totfact>
</mgrwt>
</event>
<event>
 5    0  0.4257006E+000  0.3582988E+03  0.7546771E-02  0.1059259E+00
         21   -1    0    0  503  501  0.00000000000E+00  0.00000000000E+00  0.34098655812E+03  0.34098655812E+03  0.00000000000E+00 0.  1.
         21   -1    0    0  504  502 -0.00000000000E+00 -0.00000000000E+00 -0.61295026556E+03  0.61295026556E+03  0.00000000000E+00 0.  1.
         25    1    1    2    0    0 -0.33523689174E+03 -0.27992473261E+02  0.10650154527E+03  0.37434600477E+03  0.12500000000E+03 0.  0.
         21    1    1    2  503  502  0.33539188842E+03 -0.20913130208E+01 -0.18349274141E+03  0.38231097102E+03  0.00000000000E+00 0.  1.
         21    1    1    2  504  501 -0.15499668473E+00  0.30083786282E+02 -0.19497251130E+03  0.19727984789E+03  0.00000000000E+00 0.  1.
<mgrwt>
<rscale>  4 0.35829881E+03</rscale>
<asrwt>0</asrwt>
<pdfrwt beam="1">  1       21 0.52459470E-01 0.35829881E+03</pdfrwt>
<pdfrwt beam="2">  1       21 0.94300041E-01 0.35829881E+03</pdfrwt>
<totfact> 0.29288394E+03</totfact>
</mgrwt>
</event>
<event>
 5    0  0.4257006E+000  0.2775115E+03  0.7546771E-02  0.1097056E+00
         21   -1    0    0  504  501  0.00000000000E+00  0.00000000000E+00  0.32555277708E+03  0.32555277708E+03  0.00000000000E+00 0.  1.
         21   -1    0    0  501  502 -0.00000000000E+00 -0.00000000000E+00 -0.50209009576E+03  0.50209009576E+03  0.00000000000E+00 0.  1.
         25    1    1    2    0    0  0.77675535907E+02 -0.23527459364E+03  0.21890629590E+03  0.35345804514E+03  0.12500000000E+03 0.  0.
         21    1    1    2  503  502  0.18140441962E+02  0.30433090484E+02 -0.58293271133E+02  0.68215497435E+02  0.00000000000E+00 0. -1.
         21    1    1    2  504  503 -0.95815977869E+02  0.20484150315E+03 -0.33715034345E+03  0.40596933027E+03  0.00000000000E+00 0.  1.
<mgrwt>
<rscale>  4 0.27751148E+03</rscale>
<asrwt>0</asrwt>
<pdfrwt beam="1">  1       21 0.50085043E-01 0.27751148E+03</pdfrwt>
<pdfrwt beam="2">  1       21 0.77244630E-01 0.27751148E+03</pdfrwt>
<totfact> 0.53446567E+03</totfact>
</mgrwt>
</event>
<event>
 5    0  0.4257006E+000  0.2558248E+03  0.7546771E-02  0.1109678E+00
         21   -1    0    0  504  501  0.00000000000E+00  0.00000000000E+00  0.78361521340E+03  0.78361521340E+03  0.00000000000E+00 0. -1.
         21   -1    0    0  503  502 -0.00000000000E+00 -0.00000000000E+00 -0.11165114841E+03  0.11165114841E+03  0.00000000000E+00 0. -1.
         25    1    1    2    0    0 -0.10224839867E+03  0.20917579799E+03  0.54939346115E+03  0.60964532693E+03  0.12500000000E+03 0.  0.
         21    1    1    2  503  501  0.11367981468E+03 -0.17227057213E+03  0.13308001568E+03  0.24558204507E+03  0.00000000000E+00 0. -1.
         21    1    1    2  504  502 -0.11431416009E+02 -0.36905225863E+02 -0.10509411836E+02  0.40038989811E+02  0.00000000000E+00 0. -1.
<mgrwt>
<rscale>  4 0.25582477E+03</rscale>
<asrwt>0</asrwt>
<pdfrwt beam="1">  1       21 0.12055618E+00 0.25582477E+03</pdfrwt>
<pdfrwt beam="2">  1       21 0.17177100E-01 0.25582477E+03</pdfrwt>
<totfact> 0.15385477E+04</totfact>
</mgrwt>
</event>
<event>
 5    0  0.4257006E+000  0.2626616E+03  0.7546771E-02  0.1105555E+00
         21   -1    0    0  503  501  0.00000000000E+00  0.00000000000E+00  0.15319096220E+03  0.15319096220E+03  0.00000000000E+00 0. -1.
         21   -1    0    0  504  502 -0.00000000000E+00 -0.00000000000E+00 -0.77480422789E+03  0.77480422789E+03  0.00000000000E+00 0. -1.
         25    1    1    2    0    0  0.79376836587E+02  0.26642888750E+03 -0.23196704288E+03  0.38303882736E+03  0.12500000000E+03 0.  0.
         21    1    1    2  503  502  0.37032045654E+02 -0.91036882067E+02 -0.30083410511E+03  0.31648103434E+03  0.00000000000E+00 0. -1.
         21    1    1    2  504  501 -0.11640888224E+03 -0.17539200543E+03 -0.88812117694E+02  0.22847532839E+03  0.00000000000E+00 0. -1.
<mgrwt>
<rscale>  4 0.26266159E+03</rscale>
<asrwt>0</asrwt>
<pdfrwt beam="1">  1       21 0.23567840E-01 0.26266159E+03</pdfrwt>
<pdfrwt beam="2">  1       21 0.11920065E+00 0.26266159E+03</pdfrwt>
<totfact> 0.86949956E+03</totfact>
</mgrwt>
</event>
<event>
 5    0  0.4257006E+000  0.3801694E+03  0.7546771E-02  0.1050871E+00
         21   -1    0    0  504  501  0.00000000000E+00  0.00000000000E+00  0.73995897694E+03  0.73995897694E+03  0.00000000000E+00 0.  1.
         21   -1    0    0  503  502 -0.00000000000E+00 -0.00000000000E+00 -0.10512191447E+04  0.10512191447E+04  0.00000000000E+00 0.  1.
         25    1    1    2    0    0 -0.35443949623E+03  0.79305092820E+02  0.57376051006E+03  0.69046562343E+03  0.12500000000E+03 0.  0.
         21    1    1    2  503  501  0.27472714468E+03 -0.25869949945E+03 -0.29527591573E+03  0.47915373467E+03  0.00000000000E+00 0.  1.
         21    1    1    2  504  502  0.79712351553E+02  0.17939440663E+03 -0.58974476209E+03  0.62155876354E+03  0.00000000000E+00 0.  1.
<mgrwt>
<rscale>  4 0.38016938E+03</rscale>
<asrwt>0</asrwt>
<pdfrwt beam="1">  1       21 0.11383984E+00 0.38016938E+03</pdfrwt>
<pdfrwt beam="2">  1       21 0.16172602E+00 0.38016938E+03</pdfrwt>
<totfact> 0.12329498E+02</totfact>
</mgrwt>
</event>
<event>
 5    0  0.4257006E+000  0.2352575E+03  0.7546771E-02  0.1122993E+00
         21   -1    0    0  504  501  0.00000000000E+00  0.00000000000E+00  0.52883928670E+03  0.52883928670E+03  0.00000000000E+00 0.  1.
         21   -1    0    0  501  502 -0.00000000000E+00 -0.00000000000E+00 -0.12966976976E+04  0.12966976976E+04  0.00000000000E+00 0.  1.
         25    1    1    2    0    0 -0.16394697237E+03 -0.16377580287E+03 -0.87903679673E+01  0.26344523895E+03  0.12500000000E+03 0.  0.
         21    1    1    2  503  502  0.26984028561E+02  0.26764548057E+02 -0.11368753357E+04  0.11375104429E+04  0.00000000000E+00 0.  1.
         21    1    1    2  504  503  0.13696294381E+03  0.13701125481E+03  0.37780729276E+03  0.42458130244E+03  0.00000000000E+00 0.  1.
<mgrwt>
<rscale>  4 0.23525753E+03</rscale>
<asrwt>0</asrwt>
<pdfrwt beam="1">  1       21 0.81359891E-01 0.23525753E+03</pdfrwt>
<pdfrwt beam="2">  1       21 0.19949195E+00 0.23525753E+03</pdfrwt>
<totfact> 0.16981246E+02</totfact>
</mgrwt>
</event>
<event>
 5    0  0.4257006E+000  0.2283758E+03  0.7546771E-02  0.1127788E+00
         21   -1    0    0  504  501  0.00000000000E+00  0.00000000000E+00  0.75147054665E+03  0.75147054665E+03  0.00000000000E+00 0. -1.
         21   -1    0    0  501  502 -0.00000000000E+00 -0.00000000000E+00 -0.76230801214E+02  0.76230801214E+02  0.00000000000E+00 0. -1.
         25    1    1    2    0    0 -0.14345226297E+03  0.15364497625E+03  0.41606710351E+03  0.48262010433E+03  0.12500000000E+03 0.  0.
         21    1    1    2  503  502  0.34362856307E+02 -0.16090831289E+02  0.82341403080E+01  0.38826818202E+02  0.00000000000E+00 0.  1.
         21    1    1    2  504  503  0.10908940667E+03 -0.13755414496E+03  0.25093850161E+03  0.30625442533E+03  0.00000000000E+00 0. -1.
<mgrwt>
<rscale>  4 0.22837580E+03</rscale>
<asrwt>0</asrwt>
<pdfrwt beam="1">  1       21 0.11561085E+00 0.22837580E+03</pdfrwt>
<pdfrwt beam="2">  1       21 0.11727816E-01 0.22837580E+03</pdfrwt>
<totfact> 0.34702712E+04</totfact>
</mgrwt>
</event>
<event>
 5    0  0.4257006E+000  0.2372828E+03  0.7546771E-02  0.1121616E+00
         21   -1    0    0  503  501  0.00000000000E+00  0.00000000000E+00  0.12248796119E+04  0.12248796119E+04  0.00000000000E+00 0.  1.
         21   -1    0    0  504  502 -0.00000000000E+00 -0.00000000000E+00 -0.20610616143E+03  0.20610616143E+03  0.00000000000E+00 0.  1.
         25    1    1    2    0    0 -0.20790824505E+03 -0.33560847128E+02  0.65003303499E+03  0.69463667870E+03  0.12500000000E+03 0.  0.
         21    1    1    2  503  502  0.19636232381E+03 -0.39460970445E+02  0.52585687889E+03  0.56270843914E+03  0.00000000000E+00 0.  1.
         21    1    1    2  504  501  0.11545921240E+02  0.73021817573E+02 -0.15711646345E+03  0.17364065545E+03  0.00000000000E+00 0.  1.
<mgrwt>
<rscale>  4 0.23728283E+03</rscale>
<asrwt>0</asrwt>
<pdfrwt beam="1">  1       21 0.18844301E+00 0.23728283E+03</pdfrwt>
<pdfrwt beam="2">  1       21 0.31708641E-01 0.23728283E+03</pdfrwt>
<totfact> 0.14623679E+03</totfact>
</mgrwt>
</event>
<event>
 5    0  0.4257006E+000  0.2642118E+03  0.7546771E-02  0.1104639E+00
         21   -1    0    0  503  501  0.00000000000E+00  0.00000000000E+00  0.23426310010E+03  0.23426310010E+03  0.00000000000E+00 0. -1.
         21   -1    0    0  504  502 -0.00000000000E+00 -0.00000000000E+00 -0.30402761740E+03  0.30402761740E+03  0.00000000000E+00 0. -1.
         25    1    1    2    0    0  0.15742367285E+02  0.24083664708E+03 -0.22172593984E+02  0.27270265240E+03  0.12500000000E+03 0.  0.
         21    1    1    2  503  502 -0.17032671494E+02 -0.14850448294E+02 -0.31847890555E+02  0.39050426958E+02  0.00000000000E+00 0.  1.
         21    1    1    2  504  501  0.12903042093E+01 -0.22598619879E+03 -0.15744032754E+02  0.22653763814E+03  0.00000000000E+00 0. -1.
<mgrwt>
<rscale>  4 0.26421184E+03</rscale>
<asrwt>0</asrwt>
<pdfrwt beam="1">  1       21 0.36040477E-01 0.26421184E+03</pdfrwt>
<pdfrwt beam="2">  1       21 0.46773479E-01 0.26421184E+03</pdfrwt>
<totfact> 0.31390088E+04</totfact>
</mgrwt>
</event>
<event>
 5    0  0.4257006E+000  0.2846907E+03  0.7546771E-02  0.1093154E+00
         21   -1    0    0  503  501  0.00000000000E+00  0.00000000000E+00  0.14442537693E+03  0.14442537693E+03  0.00000000000E+00 0.  1.
         21   -1    0    0  504  502 -0.00000000000E+00 -0.00000000000E+00 -0.80351777729E+03  0.80351777729E+03  0.00000000000E+00 0. -1.
         25    1    1    2    0    0  0.24286562357E+03 -0.80783422238E+02 -0.78168419141E+02  0.29537260227E+03  0.12500000000E+03 0.  0.
         21    1    1    2  503  502  0.10169743985E+02  0.34732500221E+02 -0.11258528435E+03  0.11825910754E+03  0.00000000000E+00 0. -1.
         21    1    1    2  504  501 -0.25303536755E+03  0.46050922017E+02 -0.46833869687E+03  0.53431144442E+03  0.00000000000E+00 0. -1.
<mgrwt>
<rscale>  4 0.28469072E+03</rscale>
<asrwt>0</asrwt>
<pdfrwt beam="1">  1       21 0.22219289E-01 0.28469072E+03</pdfrwt>
<pdfrwt beam="2">  1       21 0.12361812E+00 0.28469072E+03</pdfrwt>
<totfact> 0.87738944E+03</totfact>
</mgrwt>
</event>
<event>
 5    0  0.4257006E+000  0.3013416E+03  0.7546771E-02  0.1084572E+00
         21   -1    0    0  503  501  0.00000000000E+00  0.00000000000E+00  0.66645321240E+03  0.66645321240E+03  0.00000000000E+00 0. -1.
         21   -1    0    0  504  502 -0.00000000000E+00 -0.00000000000E+00 -0.30955043392E+03  0.30955043392E+03  0.00000000000E+00 0. -1.
         25    1    1    2    0    0 -0.12687637028E+03 -0.25227580073E+03  0.41673936168E+03  0.51868814190E+03  0.12500000000E+03 0.  0.
         21    1    1    2  503  502 -0.19249394032E+02  0.35339907921E+02 -0.16912061262E+03  0.17384254334E+03  0.00000000000E+00 0. -1.
         21    1    1    2  504  501  0.14612576431E+03  0.21693589281E+03  0.10928402941E+03  0.28347296109E+03  0.00000000000E+00 0. -1.
<mgrwt>
<rscale>  4 0.30134158E+03</rscale>
<asrwt>0</asrwt>
<pdfrwt beam="1">  1       21 0.10253126E+00 0.30134158E+03</pdfrwt>
<pdfrwt beam="2">  1       21 0.47623144E-01 0.30134158E+03</pdfrwt>
<totfact> 0.30246490E+03</totfact>
</mgrwt>
</event>
<event>
 5    0  0.4257006E+000  0.2580926E+03  0.7546771E-02  0.1108295E+00
         21   -1    0    0  504  501  0.00000000000E+00  0.00000000000E+00  0.70375572131E+03  0.70375572131E+03  0.00000000000E+00 0.  1.
         21   -1    0    0  501  502 -0.00000000000E+00 -0.00000000000E+00 -0.18123515757E+03  0.18123515757E+03  0.00000000000E+00 0. -1.
         25    1    1    2    0    0 -0.23989331228E+03 -0.38059426510E+02  0.30538551664E+03  0.40973483498E+03  0.12500000000E+03 0.  0.
         21    1    1    2  503  502  0.16257051952E+03  0.16623275515E+03  0.28212481045E+02  0.23421880110E+03  0.00000000000E+00 0. -1.
         21    1    1    2  504  503  0.77322792755E+02 -0.12817332863E+03  0.18892256606E+03  0.24103724281E+03  0.00000000000E+00 0. -1.
<mgrwt>
<rscale>  4 0.25809258E+03</rscale>
<asrwt>0</asrwt>
<pdfrwt beam="1">  1       21 0.10827011E+00 0.25809258E+03</pdfrwt>
<pdfrwt beam="2">  1       21 0.27882332E-01 0.25809258E+03</pdfrwt>
<totfact> 0.79851748E+03</totfact>
</mgrwt>
</event>
<event>
 5    0  0.4257006E+000  0.3671530E+03  0.7546771E-02  0.1055787E+00
         21   -1    0    0  504  501  0.00000000000E+00  0.00000000000E+00  0.21939905400E+04  0.21939905400E+04  0.00000000000E+00 0. -1.
         21   -1    0    0  501  502 -0.00000000000E+00 -0.00000000000E+00 -0.19523896566E+03  0.19523896566E+03  0.00000000000E+00 0.  1.
         25    1    1    2    0    0  0.52837392770E+02  0.35867830512E+03  0.19330447551E+04  0.19707178748E+04  0.12500000000E+03 0.  0.
         21    1    1    2  503  502 -0.10761982316E+03 -0.11681326902E+03  0.61968734554E+02  0.17049190661E+03  0.00000000000E+00 0. -1.
         21    1    1    2  504  503  0.54782430392E+02 -0.24186503611E+03  0.37380846858E+01  0.24801972431E+03  0.00000000000E+00 0.  1.
<mgrwt>
<rscale>  4 0.36715298E+03</rscale>
<asrwt>0</asrwt>
<pdfrwt beam="1">  1       21 0.33753699E+00 0.36715298E+03</pdfrwt>
<pdfrwt beam="2">  1       21 0.30036765E-01 0.36715298E+03</pdfrwt>
<totfact> 0.18034156E+02</totfact>
</mgrwt>
</event>
<event>
 5    0  0.4257006E+000  0.5397865E+03  0.7546771E-02  0.1003886E+00
         21   -1    0    0  503  501  0.00000000000E+00  0.00000000000E+00  0.85621783330E+03  0.85621783330E+03  0.00000000000E+00 0.  1.
         21   -1    0    0  504  502 -0.00000000000E+00 -0.00000000000E+00 -0.36452797340E+03  0.36452797340E+03  0.00000000000E+00 0. -1.
         25    1    1    2    0    0  0.23073934481E+03 -0.45860019186E+03  0.20850087261E+03  0.56802499513E+03  0.12500000000E+03 0.  0.
         21    1    1    2  503  502  0.58503218022E+01 -0.21469020741E+02 -0.26321532661E+02  0.34466914547E+02  0.00000000000E+00 0. -1.
         21    1    1    2  504  501 -0.23658966661E+03  0.48006921260E+03  0.30951051995E+03  0.61825389703E+03  0.00000000000E+00 0.  1.
<mgrwt>
<rscale>  4 0.53978647E+03</rscale>
<asrwt>0</asrwt>
<pdfrwt beam="1">  1       21 0.13172582E+00 0.53978647E+03</pdfrwt>
<pdfrwt beam="2">  1       21 0.56081227E-01 0.53978647E+03</pdfrwt>
<totfact> 0.10260949E+03</totfact>
</mgrwt>
</event>
<event>
 5    0  0.4257006E+000  0.2773373E+03  0.7546771E-02  0.1097152E+00
         21   -1    0    0  504  501  0.00000000000E+00  0.00000000000E+00  0.12827976289E+04  0.12827976289E+04  0.00000000000E+00 0. -1.
         21   -1    0    0  503  502 -0.00000000000E+00 -0.00000000000E+00 -0.28131515601E+03  0.28131515601E+03  0.00000000000E+00 0. -1.
         25    1    1    2    0    0 -0.10634567048E+03 -0.19773456513E+03 -0.50477364872E+02  0.26188036246E+03  0.12500000000E+03 0.  0.
         21    1    1    2  503  501  0.90605836690E+02  0.23264011159E+03  0.11605442140E+04  0.11870946516E+04  0.00000000000E+00 0. -1.
         21    1    1    2  504  502  0.15739833786E+02 -0.34905546465E+02 -0.10858437618E+03  0.11513777092E+03  0.00000000000E+00 0. -1.
<mgrwt>
<rscale>  4 0.27733726E+03</rscale>
<asrwt>0</asrwt>
<pdfrwt beam="1">  1       21 0.19735348E+00 0.27733726E+03</pdfrwt>
<pdfrwt beam="2">  1       21 0.43279256E-01 0.27733726E+03</pdfrwt>
<totfact> 0.65946280E+02</totfact>
</mgrwt>
</event>
<event>
 5    0  0.4257006E+000  0.3129436E+03  0.7546771E-02  0.1078943E+00
         21   -1    0    0  504  501  0.00000000000E+00  0.00000000000E+00  0.54869441985E+03  0.54869441985E+03  0.00000000000E+00 0. -1.
         21   -1    0    0  501  502 -0.00000000000E+00 -0.00000000000E+00 -0.84076290712E+03  0.84076290712E+03  0.00000000000E+00 0. -1.
         25    1    1    2    0    0 -0.80353536399E+02  0.27449034784E+03  0.45751659820E+03  0.55384842646E+03  0.12500000000E+03 0.  0.
         21    1    1    2  503  502  0.24693814317E+02 -0.30303209111E+03 -0.58003356474E+03  0.65488714214E+03  0.00000000000E+00 0. -1.
         21    1    1    2  504  503  0.55659722082E+02  0.28541743279E+02 -0.16955152073E+03  0.18072175838E+03  0.00000000000E+00 0. -1.
<mgrwt>
<rscale>  4 0.31294358E+03</rscale>
<asrwt>0</asrwt>
<pdfrwt beam="1">  1       21 0.84414526E-01 0.31294358E+03</pdfrwt>
<pdfrwt beam="2">  1       21 0.12934814E+00 0.31294358E+03</pdfrwt>
<totfact> 0.47949548E+02</totfact>
</mgrwt>
</event>
<event>
 5    0  0.4257006E+000  0.3004694E+03  0.7546771E-02  0.1085006E+00
         21   -1    0    0  503  501  0.00000000000E+00  0.00000000000E+00  0.17134094429E+03  0.17134094429E+03  0.00000000000E+00 0.  1.
         21   -1    0    0  504  502 -0.00000000000E+00 -0.00000000000E+00 -0.85819654787E+03  0.85819654787E+03  0.00000000000E+00 0.  1.
         25    1    1    2    0    0  0.36476516449E+02  0.27912986501E+03 -0.50276324507E+03  0.58960995445E+03  0.12500000000E+03 0.  0.
         21    1    1    2  503  502  0.47769045889E+02 -0.26955363731E+03 -0.45576443773E+02  0.27752163404E+03  0.00000000000E+00 0.  1.
         21    1    1    2  504  501 -0.84245562337E+02 -0.95762277020E+01 -0.13851591474E+03  0.16240590367E+03  0.00000000000E+00 0. -1.
<mgrwt>
<rscale>  4 0.30046937E+03</rscale>
<asrwt>0</asrwt>
<pdfrwt beam="1">  1       21 0.26360145E-01 0.30046937E+03</pdfrwt>
<pdfrwt beam="2">  1       21 0.13203024E+00 0.30046937E+03</pdfrwt>
<totfact> 0.52983260E+03</totfact>
</mgrwt>
</event>
<event>
 5    0  0.4257006E+000  0.2110674E+03  0.7546771E-02  0.1140723E+00
         21   -1    0    0  504  501  0.00000000000E+00  0.00000000000E+00  0.29362126192E+03  0.29362126192E+03  0.00000000000E+00 0. -1.
         21   -1    0    0  501  502 -0.00000000000E+00 -0.00000000000E+00 -0.55381018433E+03  0.55381018433E+03  0.00000000000E+00 0.  1.
         25    1    1    2    0    0  0.21814047560E+03 -0.10366798863E+03 -0.14145541286E+03  0.30654029554E+03  0.12500000000E+03 0.  0.
         21    1    1    2  503  502 -0.85310600084E+02  0.13795330128E+02 -0.29216170883E+03  0.30467470149E+03  0.00000000000E+00 0.  1.
         21    1    1    2  504  503 -0.13282987552E+03  0.89872658504E+02  0.17342819927E+03  0.23621644922E+03  0.00000000000E+00 0. -1.
<mgrwt>
<rscale>  4 0.21106743E+03</rscale>
<asrwt>0</asrwt>
<pdfrwt beam="1">  1       21 0.45172502E-01 0.21106743E+03</pdfrwt>
<pdfrwt beam="2">  1       21 0.85201566E-01 0.21106743E+03</pdfrwt>
<totfact> 0.55255132E+03</totfact>
</mgrwt>
</event>
<event>
 5    0  0.4257006E+000  0.2609198E+03  0.7546771E-02  0.1106592E+00
         21   -1    0    0  503  501  0.00000000000E+00  0.00000000000E+00  0.18238206779E+03  0.18238206779E+03  0.00000000000E+00 0. -1.
         21   -1    0    0  504  502 -0.00000000000E+00 -0.00000000000E+00 -0.81063711084E+03  0.81063711084E+03  0.00000000000E+00 0. -1.
         25    1    1    2    0    0  0.23383207877E+03 -0.57311110888E+02  0.15983158744E+02  0.27173970239E+03  0.12500000000E+03 0.  0.
         21    1    1    2  503  502 -0.50916693907E+02 -0.37880616006E+02 -0.38420434401E+03  0.38941036034E+03  0.00000000000E+00 0. -1.
         21    1    1    2  504  501 -0.18291538486E+03  0.95191726893E+02 -0.26003385779E+03  0.33186911589E+03  0.00000000000E+00 0. -1.
<mgrwt>
<rscale>  4 0.26091982E+03</rscale>
<asrwt>0</asrwt>
<pdfrwt beam="1">  1       21 0.28058780E-01 0.26091982E+03</pdfrwt>
<pdfrwt beam="2">  1       21 0.12471340E+00 0.26091982E+03</pdfrwt>
<totfact> 0.55489426E+03</totfact>
</mgrwt>
</event>
<event>
 5    0  0.4257006E+000  0.2511370E+03  0.7546771E-02  0.1112588E+00
         21   -1    0    0  503  501  0.00000000000E+00  0.00000000000E+00  0.26388993664E+04  0.26388993664E+04  0.00000000000E+00 0. -1.
         21   -1    0    0  504  502 -0.00000000000E+00 -0.00000000000E+00 -0.81635098197E+02  0.81635098197E+02  0.00000000000E+00 0. -1.
         25    1    1    2    0    0  0.20757256587E+03  0.53242583082E+02  0.22053691943E+04  0.22192790329E+04  0.12500000000E+03 0.  0.
         21    1    1    2  503  502  0.10753746439E+02  0.39138630576E+02 -0.30889222272E+02  0.51006073348E+02  0.00000000000E+00 0. -1.
         21    1    1    2  504  501 -0.21832631231E+03 -0.92381213658E+02  0.38278429618E+03  0.45024935834E+03  0.00000000000E+00 0. -1.
<mgrwt>
<rscale>  4 0.25113702E+03</rscale>
<asrwt>0</asrwt>
<pdfrwt beam="1">  1       21 0.40598445E+00 0.25113702E+03</pdfrwt>
<pdfrwt beam="2">  1       21 0.12559248E-01 0.25113702E+03</pdfrwt>
<totfact> 0.39725837E+02</totfact>
</mgrwt>
</event>
<event>
 5    0  0.4257006E+000  0.2538988E+03  0.7546771E-02  0.1110865E+00
         21   -1    0    0  503  501  0.00000000000E+00  0.00000000000E+00  0.13893938753E+04  0.13893938753E+04  0.00000000000E+00 0.  1.
         21   -1    0    0  504  502 -0.00000000000E+00 -0.00000000000E+00 -0.49088322894E+02  0.49088322894E+02  0.00000000000E+00 0.  1.
         25    1    1    2    0    0  0.16347554080E+03  0.14701913576E+03  0.76232490286E+03  0.80318312746E+03  0.12500000000E+03 0.  0.
         21    1    1    2  503  502  0.14943773931E+02 -0.13871648330E+02  0.55948042702E+01  0.21143340358E+02  0.00000000000E+00 0. -1.
         21    1    1    2  504  501 -0.17841931473E+03 -0.13314748743E+03  0.57238584526E+03  0.61415573036E+03  0.00000000000E+00 0.  1.
<mgrwt>
<rscale>  4 0.25389885E+03</rscale>
<asrwt>0</asrwt>
<pdfrwt beam="1">  1       21 0.21375287E+00 0.25389885E+03</pdfrwt>
<pdfrwt beam="2">  1       21 0.75520507E-02 0.25389885E+03</pdfrwt>
<totfact> 0.13936631E+04</totfact>
</mgrwt>
</event>
<event>
 5    0  0.4257006E+000  0.2830458E+03  0.7546771E-02  0.1094037E+00
         21   -1    0    0  503  501  0.00000000000E+00  0.00000000000E+00  0.78302755515E+03  0.78302755515E+03  0.00000000000E+00 0. -1.
         21   -1    0    0  504  502 -0.00000000000E+00 -0.00000000000E+00 -0.21317794863E+03  0.21317794863E+03  0.00000000000E+00 0. -1.
         25    1    1    2    0    0 -0.24692095040E+03  0.50776004203E+02  0.63818959744E+03  0.69746621469E+03  0.12500000000E+03 0.  0.
         21    1    1    2  503  502  0.25423008120E+03 -0.74573511333E+02 -0.55359289482E+02  0.27066361727E+03  0.00000000000E+00 0. -1.
         21    1    1    2  504  501 -0.73091307975E+01  0.23797507130E+02 -0.12980701440E+02  0.28075671826E+02  0.00000000000E+00 0. -1.
<mgrwt>
<rscale>  4 0.28304582E+03</rscale>
<asrwt>0</asrwt>
<pdfrwt beam="1">  1       21 0.12046578E+00 0.28304582E+03</pdfrwt>
<pdfrwt beam="2">  1       21 0.32796608E-01 0.28304582E+03</pdfrwt>
<totfact> 0.43968407E+03</totfact>
</mgrwt>
</event>
<event>
 5    0  0.4257006E+000  0.2876099E+03  0.7546771E-02  0.1091604E+00
         21   -1    0    0  502  501  0.00000000000E+00  0.00000000000E+00  0.27988840351E+03  0.27988840351E+03  0.00000000000E+00 0. -1.
         21   -1    0    0  503  502 -0.00000000000E+00 -0.00000000000E+00 -0.53596084065E+03  0.53596084065E+03  0.00000000000E+00 0. -1.
         25    1    1    2    0    0  0.23750159943E+03  0.17927509874E+03  0.26677441891E+02  0.32385684595E+03  0.12500000000E+03 0.  0.
         21    1    1    2  503  504 -0.12414414208E+03 -0.22089340601E+03 -0.27045887680E+03  0.37061255898E+03  0.00000000000E+00 0. -1.
         21    1    1    2  504  501 -0.11335745735E+03  0.41618307272E+02 -0.12291002231E+02  0.12137983923E+03  0.00000000000E+00 0.  1.
<mgrwt>
<rscale>  4 0.28760987E+03</rscale>
<asrwt>0</asrwt>
<pdfrwt beam="1">  1       21 0.43059755E-01 0.28760987E+03</pdfrwt>
<pdfrwt beam="2">  1       21 0.82455514E-01 0.28760987E+03</pdfrwt>
<totfact> 0.62743612E+03</totfact>
</mgrwt>
</event>
<event>
 5    0  0.4257006E+000  0.2543284E+03  0.7546771E-02  0.1110600E+00
         21   -1    0    0  504  501  0.00000000000E+00  0.00000000000E+00  0.49158706722E+03  0.49158706722E+03  0.00000000000E+00 0.  1.
         21   -1    0    0  503  502 -0.00000000000E+00 -0.00000000000E+00 -0.23046532923E+03  0.23046532923E+03  0.00000000000E+00 0.  1.
         25    1    1    2    0    0  0.53661725001E+02  0.21509567384E+03  0.37189945896E+03  0.45064391399E+03  0.12500000000E+03 0.  0.
         21    1    1    2  503  501 -0.33488979021E+02 -0.21890485015E+03 -0.82187088236E+02  0.23621084355E+03  0.00000000000E+00 0.  1.
         21    1    1    2  504  502 -0.20172745980E+02  0.38091763101E+01 -0.28590632739E+02  0.35197638912E+02  0.00000000000E+00 0.  1.
<mgrwt>
<rscale>  4 0.25432841E+03</rscale>
<asrwt>0</asrwt>
<pdfrwt beam="1">  1       21 0.75628780E-01 0.25432841E+03</pdfrwt>
<pdfrwt beam="2">  1       21 0.35456205E-01 0.25432841E+03</pdfrwt>
<totfact> 0.11530368E+04</totfact>
</mgrwt>
</event>
<event>
 5    0  0.4257006E+000  0.2315663E+03  0.7546771E-02  0.1125542E+00
         21   -1    0    0  504  501  0.00000000000E+00  0.00000000000E+00  0.19490281966E+03  0.19490281966E+03  0.00000000000E+00 0. -1.
         21   -1    0    0  501  502 -0.00000000000E+00 -0.00000000000E+00 -0.16037888393E+04  0.16037888393E+04  0.00000000000E+00 0. -1.
         25    1    1    2    0    0 -0.55686899766E+02 -0.20474431294E+03  0.12729645295E+02  0.24659340696E+03  0.12500000000E+03 0.  0.
         21    1    1    2  503  502  0.55195995952E+02  0.24838924169E+02 -0.13608672136E+04  0.13622125910E+04  0.00000000000E+00 0. -1.
         21    1    1    2  504  503  0.49090381366E+00  0.17990538877E+03 -0.60748451328E+02  0.18988566095E+03  0.00000000000E+00 0. -1.
<mgrwt>
<rscale>  4 0.23156630E+03</rscale>
<asrwt>0</asrwt>
<pdfrwt beam="1">  1       21 0.29985049E-01 0.23156630E+03</pdfrwt>
<pdfrwt beam="2">  1       21 0.24673675E+00 0.23156630E+03</pdfrwt>
<totfact> 0.70819159E+02</totfact>
</mgrwt>
</event>
<event>
 5    0  0.4257006E+000  0.2606909E+03  0.7546771E-02  0.1106729E+00
         21   -1    0    0  503  501  0.00000000000E+00  0.00000000000E+00  0.22324108123E+03  0.22324108123E+03  0.00000000000E+00 0.  1.
         21   -1    0    0  504  502 -0.00000000000E+00 -0.00000000000E+00 -0.43917194788E+03  0.43917194788E+03  0.00000000000E+00 0.  1.
         25    1    1    2    0    0  0.15741068901E+03 -0.16012170939E+03  0.63242565940E+02  0.26465394193E+03  0.12500000000E+03 0.  0.
         21    1    1    2  503  502 -0.89998195507E+01 -0.29258580059E+02 -0.79170175891E+02  0.84882141877E+02  0.00000000000E+00 0.  1.
         21    1    1    2  504  501 -0.14841086946E+03  0.18938028945E+03 -0.20000325670E+03  0.31287694529E+03  0.00000000000E+00 0.  1.
<mgrwt>
<rscale>  4 0.26069085E+03</rscale>
<asrwt>0</asrwt>
<pdfrwt beam="1">  1       21 0.34344782E-01 0.26069085E+03</pdfrwt>
<pdfrwt beam="2">  1       21 0.67564915E-01 0.26069085E+03</pdfrwt>
<totfact> 0.15750094E+04</totfact>
</mgrwt>
</event>
<event>
 5    0  0.4257006E+000  0.3656808E+03  0.7546771E-02  0.1056357E+00
         21   -1    0    0  504  501  0.00000000000E+00  0.00000000000E+00  0.69695527860E+03  0.69695527860E+03  0.00000000000E+00 0. -1.
         21   -1    0    0  503  502 -0.00000000000E+00 -0.00000000000E+00 -0.23816309525E+03  0.23816309525E+03  0.00000000000E+00 0. -1.
         25    1    1    2    0    0 -0.54265015965E+02  0.34880905754E+03  0.35921078179E+03  0.51891216630E+03  0.12500000000E+03 0.  0.
         21    1    1    2  503  501  0.41350201534E+02 -0.32855599083E+03  0.14757070468E+03  0.36254101996E+03  0.00000000000E+00 0. -1.
         21    1    1    2  504  502  0.12914814432E+02 -0.20253066717E+02 -0.47989303129E+02  0.53665187581E+02  0.00000000000E+00 0.  1.
<mgrwt>
<rscale>  4 0.36568085E+03</rscale>
<asrwt>0</asrwt>
<pdfrwt beam="1">  1       21 0.10722389E+00 0.36568085E+03</pdfrwt>
<pdfrwt beam="2">  1       21 0.36640477E-01 0.36568085E+03</pdfrwt>
<totfact> 0.45099397E+03</totfact>
</mgrwt>
</event>
<event>
 5    0  0.4257006E+000  0.4614695E+03  0.7546771E-02  0.1024356E+00
         21   -1    0    0  504  501  0.00000000000E+00  0.00000000000E+00  0.11292087800E+04  0.11292087800E+04  0.00000000000E+00 0.  1.
         21   -1    0    0  501  502 -0.00000000000E+00 -0.00000000000E+00 -0.33762254440E+03  0.33762254440E+03  0.00000000000E+00 0.  1.
         25    1    1    2    0    0  0.41543685834E+03 -0.12053892361E+03  0.62579481323E+03  0.77094848313E+03  0.12500000000E+03 0.  0.
         21    1    1    2  503  502  0.61925271054E+02  0.10969713141E+03 -0.89412779206E+02  0.15447603348E+03  0.00000000000E+00 0. -1.
         21    1    1    2  504  503 -0.47736212939E+03  0.10841792204E+02  0.25520420162E+03  0.54140680783E+03  0.00000000000E+00 0.  1.
<mgrwt>
<rscale>  4 0.46146949E+03</rscale>
<asrwt>0</asrwt>
<pdfrwt beam="1">  1       21 0.17372443E+00 0.46146949E+03</pdfrwt>
<pdfrwt beam="2">  1       21 0.51941930E-01 0.46146949E+03</pdfrwt>
<totfact> 0.58494306E+02</totfact>
</mgrwt>
</event>
<event>
 5    0  0.4257006E+000  0.2578328E+03  0.7546771E-02  0.1108452E+00
         21   -1    0    0  504  501  0.00000000000E+00  0.00000000000E+00  0.16658659230E+04  0.16658659230E+04  0.00000000000E+00 0.  1.
         21   -1    0    0  503  502 -0.00000000000E+00 -0.00000000000E+00 -0.91532920690E+02  0.91532920690E+02  0.00000000000E+00 0. -1.
         25    1    1    2    0    0 -0.41553503007E+02  0.24455645215E+03  0.71843775151E+03  0.77026771625E+03  0.12500000000E+03 0.  0.
         21    1    1    2  503  501  0.53956327232E+02 -0.20792199401E+03  0.90184259488E+03  0.92707222307E+03  0.00000000000E+00 0.  1.
         21    1    1    2  504  502 -0.12402824225E+02 -0.36634458137E+02 -0.45947344056E+02  0.60058904399E+02  0.00000000000E+00 0. -1.
<mgrwt>
<rscale>  4 0.25783276E+03</rscale>
<asrwt>0</asrwt>
<pdfrwt beam="1">  1       21 0.25628704E+00 0.25783276E+03</pdfrwt>
<pdfrwt beam="2">  1       21 0.14081989E-01 0.25783276E+03</pdfrwt>
<totfact> 0.25198901E+03</totfact>
</mgrwt>
</event>
<event>
 5    0  0.4257006E+000  0.2658765E+03  0.7546771E-02  0.1103663E+00
         21   -1    0    0  503  501  0.00000000000E+00  0.00000000000E+00  0.82789014555E+02  0.82789014555E+02  0.00000000000E+00 0.  1.
         21   -1    0    0  504  502 -0.00000000000E+00 -0.00000000000E+00 -0.14528733872E+04  0.14528733872E+04  0.00000000000E+00 0.  1.
         25    1    1    2    0    0  0.10628190601E+03  0.20668785664E+03 -0.60152836764E+03  0.65686915798E+03  0.12500000000E+03 0.  0.
         21    1    1    2  503  502 -0.20256491791E+03 -0.13843462392E+03 -0.26312489218E+03  0.35976575706E+03  0.00000000000E+00 0.  1.
         21    1    1    2  504  501  0.96283011899E+02 -0.68253232715E+02 -0.50543111284E+03  0.51902748673E+03  0.00000000000E+00 0.  1.
<mgrwt>
<rscale>  4 0.26587650E+03</rscale>
<asrwt>0</asrwt>
<pdfrwt beam="1">  1       21 0.12736773E-01 0.26587650E+03</pdfrwt>
<pdfrwt beam="2">  1       21 0.22351896E+00 0.26587650E+03</pdfrwt>
<totfact> 0.47453565E+03</totfact>
</mgrwt>
</event>
<event>
 5    0  0.4257006E+000  0.3323109E+03  0.7546771E-02  0.1070119E+00
         21   -1    0    0  504  501  0.00000000000E+00  0.00000000000E+00  0.11426004962E+04  0.11426004962E+04  0.00000000000E+00 0. -1.
         21   -1    0    0  503  502 -0.00000000000E+00 -0.00000000000E+00 -0.48849630517E+03  0.48849630517E+03  0.00000000000E+00 0.  1.
         25    1    1    2    0    0 -0.19862034070E+03  0.24737101742E+03  0.63549712228E+03  0.72119626484E+03  0.12500000000E+03 0.  0.
         21    1    1    2  503  501  0.18050478938E+03 -0.23655709881E+03  0.41626609949E+03  0.51168223105E+03  0.00000000000E+00 0. -1.
         21    1    1    2  504  502  0.18115551318E+02 -0.10813918608E+02 -0.39765903078E+03  0.39821830545E+03  0.00000000000E+00 0.  1.
<mgrwt>
<rscale>  4 0.33231087E+03</rscale>
<asrwt>0</asrwt>
<pdfrwt beam="1">  1       21 0.17578469E+00 0.33231087E+03</pdfrwt>
<pdfrwt beam="2">  1       21 0.75153278E-01 0.33231087E+03</pdfrwt>
<totfact> 0.26982793E+02</totfact>
</mgrwt>
</event>
<event>
 5    0  0.4257006E+000  0.4484191E+03  0.7546771E-02  0.1028195E+00
         21   -1    0    0  504  501  0.00000000000E+00  0.00000000000E+00  0.14629985760E+04  0.14629985760E+04  0.00000000000E+00 0. -1.
         21   -1    0    0  501  502 -0.00000000000E+00 -0.00000000000E+00 -0.28386867370E+03  0.28386867370E+03  0.00000000000E+00 0. -1.
         25    1    1    2    0    0 -0.70081143298E+01  0.43023736796E+03  0.11334688242E+04  0.12188231545E+04  0.12500000000E+03 0.  0.
         21    1    1    2  503  502  0.20288996147E+02  0.19241175895E+01 -0.76163888977E+02  0.78843411756E+02  0.00000000000E+00 0. -1.
         21    1    1    2  504  503 -0.13280881817E+02 -0.43216148555E+03  0.12182496705E+03  0.44920068345E+03  0.00000000000E+00 0. -1.
<mgrwt>
<rscale>  4 0.44841906E+03</rscale>
<asrwt>0</asrwt>
<pdfrwt beam="1">  1       21 0.22507670E+00 0.44841906E+03</pdfrwt>
<pdfrwt beam="2">  1       21 0.43672104E-01 0.44841906E+03</pdfrwt>
<totfact> 0.38403884E+02</totfact>
</mgrwt>
</event>
