<event>
 5    0  0.1856407E+000  0.3210302E+03  0.7546771E-02  0.1075176E+00
         21   -1    0    0  502  501  0.00000000000E+00  0.00000000000E+00  0.21601166857E+03  0.21601166857E+03  0.00000000000E+00 0.  1.
         21   -1    0    0  503  502 -0.00000000000E+00 -0.00000000000E+00 -0.10999726008E+04  0.10999726008E+04  0.00000000000E+00 0. -1.
         25    1    1    2    0    0  0.72983830551E+02 -0.28654624125E+03  0.58918202353E+02  0.32639200735E+03  0.12500000000E+03 0.  0.
         21    1    1    2  503  504  0.82483758065E+01  0.21196402291E+02 -0.81594878813E+02  0.84705651653E+02  0.00000000000E+00 0.  1.
         21    1    1    2  504  501 -0.81232206358E+02  0.26534983896E+03 -0.86128425580E+03  0.90488661040E+03  0.00000000000E+00 0. -1.
<mgrwt>
<rscale>  4 0.32103020E+03</rscale>
<asrwt>0</asrwt>
<pdfrwt beam="1">  1       21 0.33232565E-01 0.32103020E+03</pdfrwt>
<pdfrwt beam="2">  1       21 0.16922655E+00 0.32103020E+03</pdfrwt>
<totfact> 0.17052179E+03</totfact>
</mgrwt>
</event>
<event>
 5    0  0.1856407E+000  0.4511389E+03  0.7546771E-02  0.1027383E+00
         21   -1    0    0  502  501  0.00000000000E+00  0.00000000000E+00  0.80787852441E+03  0.80787852441E+03  0.00000000000E+00 0. -1.
         21   -1    0    0  503  502 -0.00000000000E+00 -0.00000000000E+00 -0.35597508655E+03  0.35597508655E+03  0.00000000000E+00 0. -1.
         25    1    1    2    0    0  0.40375609328E+03 -0.17255175611E+03  0.48838913568E+03  0.66853723849E+03  0.12500000000E+03 0.  0.
         21    1    1    2  503  504  0.46867963719E+01  0.66577755179E+02  0.19786811689E+02  0.69613802236E+02  0.00000000000E+00 0. -1.
         21    1    1    2  504  501 -0.40844288965E+03  0.10597400093E+03 -0.56272509516E+02  0.42570257024E+03  0.00000000000E+00 0. -1.
<mgrwt>
<rscale>  4 0.45113886E+03</rscale>
<asrwt>0</asrwt>
<pdfrwt beam="1">  1       21 0.12428900E+00 0.45113886E+03</pdfrwt>
<pdfrwt beam="2">  1       21 0.54765398E-01 0.45113886E+03</pdfrwt>
<totfact> 0.12981239E+03</totfact>
</mgrwt>
</event>
<event>
 5    0  0.1856407E+000  0.3545517E+03  0.7546771E-02  0.1060762E+00
         21   -1    0    0  502  501  0.00000000000E+00  0.00000000000E+00  0.88553386067E+03  0.88553386067E+03  0.00000000000E+00 0.  1.
         21   -1    0    0  503  502 -0.00000000000E+00 -0.00000000000E+00 -0.33359751733E+03  0.33359751733E+03  0.00000000000E+00 0.  1.
         25    1    1    2    0    0  0.23085597569E+03  0.38194088191E+03  0.54394393600E+03  0.71461410866E+03  0.12500000000E+03 0.  0.
         21    1    1    2  503  504 -0.15254914155E+03 -0.17912979172E+03  0.11536364990E+03  0.26204483316E+03  0.00000000000E+00 0.  1.
         21    1    1    2  504  501 -0.78306834134E+02 -0.20281109019E+03 -0.10737124256E+03  0.24247243618E+03  0.00000000000E+00 0.  1.
<mgrwt>
<rscale>  4 0.35455169E+03</rscale>
<asrwt>0</asrwt>
<pdfrwt beam="1">  1       21 0.13623598E+00 0.35455169E+03</pdfrwt>
<pdfrwt beam="2">  1       21 0.51322695E-01 0.35455169E+03</pdfrwt>
<totfact> 0.12305215E+03</totfact>
</mgrwt>
</event>
<event>
 5    0  0.1856407E+000  0.3399669E+03  0.7546771E-02  0.1066810E+00
         21   -1    0    0  502  501  0.00000000000E+00  0.00000000000E+00  0.25145944063E+03  0.25145944063E+03  0.00000000000E+00 0. -1.
         21   -1    0    0  503  502 -0.00000000000E+00 -0.00000000000E+00 -0.11287600148E+04  0.11287600148E+04  0.00000000000E+00 0.  1.
         25    1    1    2    0    0  0.31576720456E+03 -0.15606789796E+02  0.97669892987E+02  0.35371868392E+03  0.12500000000E+03 0.  0.
         21    1    1    2  503  504 -0.18879700872E+02 -0.12912394753E+02 -0.66446232458E+02  0.70272859990E+02  0.00000000000E+00 0. -1.
         21    1    1    2  504  501 -0.29688750368E+03  0.28519184548E+02 -0.90852423466E+03  0.95622791148E+03  0.00000000000E+00 0.  1.
<mgrwt>
<rscale>  4 0.33996691E+03</rscale>
<asrwt>0</asrwt>
<pdfrwt beam="1">  1       21 0.38686068E-01 0.33996691E+03</pdfrwt>
<pdfrwt beam="2">  1       21 0.17365539E+00 0.33996691E+03</pdfrwt>
<totfact> 0.11536947E+03</totfact>
</mgrwt>
</event>
<event>
 5    0  0.2121085E+000  0.3171639E+03  0.7546771E-02  0.1076962E+00
         21   -1    0    0  502  501  0.00000000000E+00  0.00000000000E+00  0.14039330460E+03  0.14039330460E+03  0.00000000000E+00 0.  1.
         21   -1    0    0  503  502 -0.00000000000E+00 -0.00000000000E+00 -0.88595660340E+03  0.88595660340E+03  0.00000000000E+00 0. -1.
         25    1    1    2    0    0  0.46775020874E+02 -0.28751541103E+03 -0.16249719784E+03  0.35620689700E+03  0.12500000000E+03 0.  0.
         21    1    1    2  503  504 -0.10513195556E+02  0.29330757647E+03 -0.52383570839E+03  0.60045292162E+03  0.00000000000E+00 0. -1.
         21    1    1    2  504  501 -0.36261825318E+02 -0.57921654396E+01 -0.59230392570E+02  0.69690089395E+02  0.00000000000E+00 0. -1.
<mgrwt>
<rscale>  4 0.31716394E+03</rscale>
<asrwt>0</asrwt>
<pdfrwt beam="1">  1       21 0.21598970E-01 0.31716394E+03</pdfrwt>
<pdfrwt beam="2">  1       21 0.13630101E+00 0.31716394E+03</pdfrwt>
<totfact> 0.70956716E+03</totfact>
</mgrwt>
</event>
<event>
 5    0  0.2091096E+000  0.3277999E+03  0.7546771E-02  0.1072115E+00
         21   -1    0    0  502  501  0.00000000000E+00  0.00000000000E+00  0.11421061832E+03  0.11421061832E+03  0.00000000000E+00 0.  1.
         21   -1    0    0  503  502 -0.00000000000E+00 -0.00000000000E+00 -0.91296726514E+03  0.91296726514E+03  0.00000000000E+00 0.  1.
         25    1    1    2    0    0  0.14627372887E+03 -0.26538979656E+03 -0.36814185665E+03  0.49293120666E+03  0.12500000000E+03 0.  0.
         21    1    1    2  503  504 -0.10460765196E+02  0.80599787000E+02 -0.16053403984E+03  0.17993590865E+03  0.00000000000E+00 0.  1.
         21    1    1    2  504  501 -0.13581296368E+03  0.18479000956E+03 -0.27008075033E+03  0.35431076816E+03  0.00000000000E+00 0.  1.
<mgrwt>
<rscale>  4 0.32779986E+03</rscale>
<asrwt>0</asrwt>
<pdfrwt beam="1">  1       21 0.17570864E-01 0.32779986E+03</pdfrwt>
<pdfrwt beam="2">  1       21 0.14045650E+00 0.32779986E+03</pdfrwt>
<totfact> 0.96301321E+03</totfact>
</mgrwt>
</event>
<event>
 5    0  0.1856407E+000  0.5876500E+03  0.7546771E-02  0.9931365E-01
         21   -1    0    0  502  501  0.00000000000E+00  0.00000000000E+00  0.58459806474E+03  0.58459806474E+03  0.00000000000E+00 0. -1.
         21   -1    0    0  503  502 -0.00000000000E+00 -0.00000000000E+00 -0.70973468600E+03  0.70973468600E+03  0.00000000000E+00 0.  1.
         25    1    1    2    0    0 -0.47686845595E+03 -0.31984997984E+03  0.20426423436E+03  0.62213857888E+03  0.12500000000E+03 0.  0.
         21    1    1    2  503  504  0.37003816449E+03  0.28882788103E+03 -0.30014352502E+03  0.55716776975E+03  0.00000000000E+00 0.  1.
         21    1    1    2  504  501  0.10683029146E+03  0.31022098813E+02 -0.29257330601E+02  0.11502640211E+03  0.00000000000E+00 0. -1.
<mgrwt>
<rscale>  4 0.58765001E+03</rscale>
<asrwt>0</asrwt>
<pdfrwt beam="1">  1       21 0.89938163E-01 0.58765001E+03</pdfrwt>
<pdfrwt beam="2">  1       21 0.10918995E+00 0.58765001E+03</pdfrwt>
<totfact> 0.55728483E+02</totfact>
</mgrwt>
</event>
<event>
 5    0  0.1856407E+000  0.4564366E+03  0.7546771E-02  0.1026146E+00
         21   -1    0    0  502  501  0.00000000000E+00  0.00000000000E+00  0.19621870959E+03  0.19621870959E+03  0.00000000000E+00 0.  1.
         21   -1    0    0  503  502 -0.00000000000E+00 -0.00000000000E+00 -0.12336659747E+04  0.12336659747E+04  0.00000000000E+00 0.  1.
         25    1    1    2    0    0  0.17831787366E+03 -0.39609383299E+03 -0.24182131764E+03  0.51263060606E+03  0.12500000000E+03 0.  0.
         21    1    1    2  503  504 -0.49130056240E+02  0.54334685865E+02 -0.55648825307E+02  0.91993544731E+02  0.00000000000E+00 0.  1.
         21    1    1    2  504  501 -0.12918781742E+03  0.34175914713E+03 -0.73997712214E+03  0.82526053347E+03  0.00000000000E+00 0.  1.
<mgrwt>
<rscale>  4 0.45532580E+03</rscale>
<asrwt>0</asrwt>
<pdfrwt beam="1">  1       21 0.30187494E-01 0.45643663E+03</pdfrwt>
<pdfrwt beam="2">  1       21 0.18979476E+00 0.45643663E+03</pdfrwt>
<totfact> 0.13831787E+03</totfact>
</mgrwt>
</event>
<event>
 5    0  0.1856407E+000  0.4513842E+03  0.7546771E-02  0.1027310E+00
         21   -1    0    0  502  501  0.00000000000E+00  0.00000000000E+00  0.27216374295E+03  0.27216374295E+03  0.00000000000E+00 0.  1.
         21   -1    0    0  503  502 -0.00000000000E+00 -0.00000000000E+00 -0.74759154129E+03  0.74759154129E+03  0.00000000000E+00 0.  1.
         25    1    1    2    0    0  0.13683049560E+03 -0.41158240034E+03 -0.32168659728E+03  0.55428325220E+03  0.12500000000E+03 0.  0.
         21    1    1    2  503  504 -0.19945241557E+02  0.13663500461E+02 -0.38253750642E+01  0.24477283346E+02  0.00000000000E+00 0. -1.
         21    1    1    2  504  501 -0.11688525404E+03  0.39791889988E+03 -0.14991582599E+03  0.44099474869E+03  0.00000000000E+00 0.  1.
<mgrwt>
<rscale>  4 0.45138416E+03</rscale>
<asrwt>0</asrwt>
<pdfrwt beam="1">  1       21 0.41871345E-01 0.45138416E+03</pdfrwt>
<pdfrwt beam="2">  1       21 0.11501408E+00 0.45138416E+03</pdfrwt>
<totfact> 0.27876850E+03</totfact>
</mgrwt>
</event>
<event>
 5    0  0.2952720E+000  0.2873694E+03  0.7546771E-02  0.1091731E+00
         21   -1    0    0  502  501  0.00000000000E+00  0.00000000000E+00  0.15871015829E+04  0.15871015829E+04  0.00000000000E+00 0. -1.
         21   -1    0    0  503  502 -0.00000000000E+00 -0.00000000000E+00 -0.80033057792E+02  0.80033057792E+02  0.00000000000E+00 0. -1.
         25    1    1    2    0    0 -0.17447225862E+03  0.20478906989E+03  0.11751675861E+04  0.12120325852E+04  0.12500000000E+03 0.  0.
         21    1    1    2  503  504  0.13293923767E+03 -0.19822649046E+03  0.33677098591E+03  0.41277267277E+03  0.00000000000E+00 0. -1.
         21    1    1    2  504  501  0.41533020954E+02 -0.65625794347E+01 -0.48700469727E+01  0.42329382655E+02  0.00000000000E+00 0. -1.
<mgrwt>
<rscale>  4 0.28736936E+03</rscale>
<asrwt>0</asrwt>
<pdfrwt beam="1">  1       21 0.24416945E+00 0.28736936E+03</pdfrwt>
<pdfrwt beam="2">  1       21 0.12312779E-01 0.28736936E+03</pdfrwt>
<totfact> 0.37142800E+03</totfact>
</mgrwt>
</event>
<event>
 5    0  0.2169891E+000  0.2661547E+03  0.7546771E-02  0.1103501E+00
         21   -1    0    0  502  501  0.00000000000E+00  0.00000000000E+00  0.63891940677E+03  0.63891940677E+03  0.00000000000E+00 0.  1.
         21   -1    0    0  503  502 -0.00000000000E+00 -0.00000000000E+00 -0.10485361846E+03  0.10485361846E+03  0.00000000000E+00 0.  1.
         25    1    1    2    0    0 -0.20634685078E+03  0.11240233895E+03  0.34043114278E+03  0.43212460194E+03  0.12500000000E+03 0.  0.
         21    1    1    2  503  504  0.15747315052E+03 -0.11388607719E+03  0.14318204547E+03  0.24138958109E+03  0.00000000000E+00 0.  1.
         21    1    1    2  504  501  0.48873700258E+02  0.14837382328E+01  0.50452600056E+02  0.70258842208E+02  0.00000000000E+00 0.  1.
<mgrwt>
<rscale>  4 0.26615467E+03</rscale>
<asrwt>0</asrwt>
<pdfrwt beam="1">  1       21 0.98295291E-01 0.26615467E+03</pdfrwt>
<pdfrwt beam="2">  1       21 0.16131326E-01 0.26615467E+03</pdfrwt>
<totfact> 0.28292029E+04</totfact>
</mgrwt>
</event>
