<event>
 5    0  0.1856407E+000  0.2456271E+03  0.7546771E-02  0.1116100E+00
         21   -1    0    0  502  501  0.00000000000E+00  0.00000000000E+00  0.35314660205E+02  0.35314660205E+02  0.00000000000E+00 0.  1.
         21   -1    0    0  503  502 -0.00000000000E+00 -0.00000000000E+00 -0.16758627539E+04  0.16758627539E+04  0.00000000000E+00 0.  1.
         25    1    1    2    0    0 -0.21141159028E+03  0.35785087951E+01 -0.10921741990E+04  0.11194539505E+04  0.12500000000E+03 0.  0.
         21    1    1    2  503  504  0.14402627777E+03  0.10492740630E+02 -0.28494222716E+03  0.31944598778E+03  0.00000000000E+00 0.  1.
         21    1    1    2  504  501  0.67385312509E+02 -0.14071249425E+02 -0.26343166748E+03  0.27227747581E+03  0.00000000000E+00 0.  1.
<mgrwt>
<rscale>  4 0.24562709E+03</rscale>
<asrwt>0</asrwt>
<pdfrwt beam="1">  1       21 0.54330247E-02 0.24562709E+03</pdfrwt>
<pdfrwt beam="2">  1       21 0.25782504E+00 0.24562709E+03</pdfrwt>
<totfact> 0.13362751E+04</totfact>
</mgrwt>
</event>
<event>
 5    0  0.1856407E+000  0.2610345E+03  0.7546771E-02  0.1106523E+00
         21   -1    0    0  502  501  0.00000000000E+00  0.00000000000E+00  0.52498620213E+03  0.52498620213E+03  0.00000000000E+00 0.  1.
         21   -1    0    0  503  502 -0.00000000000E+00 -0.00000000000E+00 -0.13355789871E+03  0.13355789871E+03  0.00000000000E+00 0. -1.
         25    1    1    2    0    0 -0.15062462100E+03 -0.17270269211E+03  0.31077925195E+03  0.40586049297E+03  0.12500000000E+03 0.  0.
         21    1    1    2  503  504  0.47198657777E+02  0.57782787681E+02  0.61898317418E+02  0.96943104692E+02  0.00000000000E+00 0. -1.
         21    1    1    2  504  501  0.10342596322E+03  0.11491990443E+03  0.18750734046E+02  0.15574050317E+03  0.00000000000E+00 0. -1.
<mgrwt>
<rscale>  4 0.26103447E+03</rscale>
<asrwt>0</asrwt>
<pdfrwt beam="1">  1       21 0.80767107E-01 0.26103447E+03</pdfrwt>
<pdfrwt beam="2">  1       21 0.20547369E-01 0.26103447E+03</pdfrwt>
<totfact> 0.28540406E+04</totfact>
</mgrwt>
</event>
<event>
 5    0  0.2087673E+000  0.2803778E+03  0.7546771E-02  0.1095483E+00
         21   -1    0    0  502  501  0.00000000000E+00  0.00000000000E+00  0.25589838079E+04  0.25589838079E+04  0.00000000000E+00 0. -1.
         21   -1    0    0  503  502 -0.00000000000E+00 -0.00000000000E+00 -0.34379817291E+02  0.34379817291E+02  0.00000000000E+00 0. -1.
         25    1    1    2    0    0 -0.55691465250E+02 -0.24471443797E+03  0.75545011282E+03  0.80580181708E+03  0.12500000000E+03 0.  0.
         21    1    1    2  503  504  0.88009786883E+01  0.19294713240E+02  0.78990572101E+02  0.81787857692E+02  0.00000000000E+00 0. -1.
         21    1    1    2  504  501  0.46890486562E+02  0.22541972473E+03  0.16901633057E+04  0.17057739504E+04  0.00000000000E+00 0. -1.
<mgrwt>
<rscale>  4 0.28037777E+03</rscale>
<asrwt>0</asrwt>
<pdfrwt beam="1">  1       21 0.39368967E+00 0.28037777E+03</pdfrwt>
<pdfrwt beam="2">  1       21 0.52892047E-02 0.28037777E+03</pdfrwt>
<totfact> 0.20997316E+03</totfact>
</mgrwt>
</event>
<event>
 5    0  0.2818620E+000  0.2354551E+03  0.7546771E-02  0.1122858E+00
         21   -1    0    0  502  501  0.00000000000E+00  0.00000000000E+00  0.24696182573E+03  0.24696182573E+03  0.00000000000E+00 0. -1.
         21   -1    0    0  503  502 -0.00000000000E+00 -0.00000000000E+00 -0.30603162847E+03  0.30603162847E+03  0.00000000000E+00 0. -1.
         25    1    1    2    0    0  0.17274131593E+03  0.11017702576E+03  0.12280529423E+03  0.26960096351E+03  0.12500000000E+03 0.  0.
         21    1    1    2  503  504 -0.27852308293E+02  0.41881104319E+01 -0.67786499794E+01  0.28969664164E+02  0.00000000000E+00 0. -1.
         21    1    1    2  504  501 -0.14488900763E+03 -0.11436513620E+03 -0.17509644699E+03  0.25442282653E+03  0.00000000000E+00 0. -1.
<mgrwt>
<rscale>  4 0.23545507E+03</rscale>
<asrwt>0</asrwt>
<pdfrwt beam="1">  1       21 0.37994127E-01 0.23545507E+03</pdfrwt>
<pdfrwt beam="2">  1       21 0.47081789E-01 0.23545507E+03</pdfrwt>
<totfact> 0.28201950E+04</totfact>
</mgrwt>
</event>
<event>
 5    0  0.1856407E+000  0.2582750E+03  0.7546771E-02  0.1108184E+00
         21   -1    0    0  502  501  0.00000000000E+00  0.00000000000E+00  0.86932096126E+03  0.86932096126E+03  0.00000000000E+00 0.  1.
         21   -1    0    0  503  502 -0.00000000000E+00 -0.00000000000E+00 -0.91222068377E+02  0.91222068377E+02  0.00000000000E+00 0.  1.
         25    1    1    2    0    0 -0.85173927589E+02  0.20934755592E+03  0.62444639016E+03  0.67575090921E+03  0.12500000000E+03 0.  0.
         21    1    1    2  503  504  0.88812395337E+02 -0.11603615734E+03  0.10042291846E+03  0.17730424114E+03  0.00000000000E+00 0.  1.
         21    1    1    2  504  501 -0.36384677482E+01 -0.93311398583E+02  0.53229584268E+02  0.10748787929E+03  0.00000000000E+00 0.  1.
<mgrwt>
<rscale>  4 0.25827504E+03</rscale>
<asrwt>0</asrwt>
<pdfrwt beam="1">  1       21 0.13374168E+00 0.25827504E+03</pdfrwt>
<pdfrwt beam="2">  1       21 0.14034165E-01 0.25827504E+03</pdfrwt>
<totfact> 0.17123817E+04</totfact>
</mgrwt>
</event>
<event>
 5    0  0.1856407E+000  0.2490189E+03  0.7546771E-02  0.1113926E+00
         21   -1    0    0  502  501  0.00000000000E+00  0.00000000000E+00  0.88075321678E+03  0.88075321678E+03  0.00000000000E+00 0.  1.
         21   -1    0    0  503  502 -0.00000000000E+00 -0.00000000000E+00 -0.20814090009E+03  0.20814090009E+03  0.00000000000E+00 0. -1.
         25    1    1    2    0    0 -0.12405426106E+02 -0.22619463887E+03  0.76081485718E+03  0.80360572183E+03  0.12500000000E+03 0.  0.
         21    1    1    2  503  504  0.56536707958E+02  0.13583658204E+03 -0.10835981426E+03  0.18272883109E+03  0.00000000000E+00 0. -1.
         21    1    1    2  504  501 -0.44131281852E+02  0.90358056836E+02  0.20157273763E+02  0.10255956396E+03  0.00000000000E+00 0. -1.
<mgrwt>
<rscale>  4 0.24901894E+03</rscale>
<asrwt>0</asrwt>
<pdfrwt beam="1">  1       21 0.13550049E+00 0.24901894E+03</pdfrwt>
<pdfrwt beam="2">  1       21 0.32021677E-01 0.24901894E+03</pdfrwt>
<totfact> 0.34928659E+03</totfact>
</mgrwt>
</event>
<event>
 5    0  0.1856407E+000  0.2784505E+03  0.7546771E-02  0.1096538E+00
         21   -1    0    0  502  501  0.00000000000E+00  0.00000000000E+00  0.29213117898E+03  0.29213117898E+03  0.00000000000E+00 0.  1.
         21   -1    0    0  503  502 -0.00000000000E+00 -0.00000000000E+00 -0.82009995577E+03  0.82009995577E+03  0.00000000000E+00 0.  1.
         25    1    1    2    0    0 -0.16273680513E+03  0.20898307124E+03  0.15121519552E+03  0.32961830527E+03  0.12500000000E+03 0.  0.
         21    1    1    2  503  504  0.13068326281E+03 -0.58906014920E+02 -0.80145037739E+02  0.16422929351E+03  0.00000000000E+00 0.  1.
         21    1    1    2  504  501  0.32053542324E+02 -0.15007705632E+03 -0.59903893458E+03  0.61838353596E+03  0.00000000000E+00 0.  1.
<mgrwt>
<rscale>  4 0.27845053E+03</rscale>
<asrwt>0</asrwt>
<pdfrwt beam="1">  1       21 0.44943259E-01 0.27845053E+03</pdfrwt>
<pdfrwt beam="2">  1       21 0.12616922E+00 0.27845053E+03</pdfrwt>
<totfact> 0.20706306E+03</totfact>
</mgrwt>
</event>
<event>
 5    0  0.2528473E+000  0.2958128E+03  0.7546771E-02  0.1087353E+00
         21   -1    0    0  502  501  0.00000000000E+00  0.00000000000E+00  0.29272018639E+03  0.29272018639E+03  0.00000000000E+00 0. -1.
         21   -1    0    0  503  502 -0.00000000000E+00 -0.00000000000E+00 -0.31229984574E+03  0.31229984574E+03  0.00000000000E+00 0. -1.
         25    1    1    2    0    0 -0.27039924474E+02  0.26673780205E+03  0.92369073330E+02  0.30989878714E+03  0.12500000000E+03 0.  0.
         21    1    1    2  503  504  0.41886461132E+02 -0.22131296315E+03 -0.94083059637E+02  0.24410146537E+03  0.00000000000E+00 0. -1.
         21    1    1    2  504  501 -0.14846536658E+02 -0.45424838903E+02 -0.17865673044E+02  0.51019779630E+02  0.00000000000E+00 0. -1.
<mgrwt>
<rscale>  4 0.29581280E+03</rscale>
<asrwt>0</asrwt>
<pdfrwt beam="1">  1       21 0.45033875E-01 0.29581280E+03</pdfrwt>
<pdfrwt beam="2">  1       21 0.48046130E-01 0.29581280E+03</pdfrwt>
<totfact> 0.18594203E+04</totfact>
</mgrwt>
</event>
<event>
 5    0  0.1856407E+000  0.4264019E+03  0.7546771E-02  0.1035003E+00
         21   -1    0    0  502  501  0.00000000000E+00  0.00000000000E+00  0.72380325322E+03  0.72380325322E+03  0.00000000000E+00 0.  1.
         21   -1    0    0  503  502 -0.00000000000E+00 -0.00000000000E+00 -0.24131464819E+03  0.24131464819E+03  0.00000000000E+00 0.  1.
         25    1    1    2    0    0  0.17395212303E+03  0.36869264869E+03  0.23722014223E+03  0.48794672474E+03  0.12500000000E+03 0.  0.
         21    1    1    2  503  504 -0.64099262805E+01 -0.19950273422E+02  0.22391449584E+02  0.30667206900E+02  0.00000000000E+00 0.  1.
         21    1    1    2  504  501 -0.16754219675E+03 -0.34874237526E+03  0.22287701321E+03  0.44650396976E+03  0.00000000000E+00 0.  1.
<mgrwt>
<rscale>  4 0.42640194E+03</rscale>
<asrwt>0</asrwt>
<pdfrwt beam="1">  1       21 0.11135435E+00 0.42640194E+03</pdfrwt>
<pdfrwt beam="2">  1       21 0.37125331E-01 0.42640194E+03</pdfrwt>
<totfact> 0.39045322E+03</totfact>
</mgrwt>
</event>
<event>
 5    0  0.1856407E+000  0.2793701E+03  0.7546771E-02  0.1096033E+00
         21   -1    0    0  502  501  0.00000000000E+00  0.00000000000E+00  0.38472475533E+03  0.38472475533E+03  0.00000000000E+00 0.  1.
         21   -1    0    0  503  502 -0.00000000000E+00 -0.00000000000E+00 -0.31775714730E+03  0.31775714730E+03  0.00000000000E+00 0.  1.
         25    1    1    2    0    0 -0.22268724020E+03  0.11328296569E+03  0.25664449861E+03  0.37936003470E+03  0.12500000000E+03 0.  0.
         21    1    1    2  503  504  0.35756229147E+02 -0.53255013155E+02 -0.59972312142E+02  0.87813908765E+02  0.00000000000E+00 0.  1.
         21    1    1    2  504  501  0.18693101105E+03 -0.60027952535E+02 -0.12970457843E+03  0.23530795916E+03  0.00000000000E+00 0.  1.
<mgrwt>
<rscale>  4 0.27937007E+03</rscale>
<asrwt>0</asrwt>
<pdfrwt beam="1">  1       21 0.59188424E-01 0.27937007E+03</pdfrwt>
<pdfrwt beam="2">  1       21 0.48885715E-01 0.27937007E+03</pdfrwt>
<totfact> 0.10127892E+04</totfact>
</mgrwt>
</event>
<event>
 5    0  0.1856407E+000  0.3590098E+03  0.7546771E-02  0.1058977E+00
         21   -1    0    0  502  501  0.00000000000E+00  0.00000000000E+00  0.10586838548E+04  0.10586838548E+04  0.00000000000E+00 0. -1.
         21   -1    0    0  503  502 -0.00000000000E+00 -0.00000000000E+00 -0.17033627447E+03  0.17033627447E+03  0.00000000000E+00 0. -1.
         25    1    1    2    0    0 -0.32865665973E+03 -0.72441958572E+02  0.77280185254E+03  0.85212131802E+03  0.12500000000E+03 0.  0.
         21    1    1    2  503  504  0.23103892156E+03  0.13190322821E+02  0.12372506031E+03  0.26241352565E+03  0.00000000000E+00 0. -1.
         21    1    1    2  504  501  0.97617738164E+02  0.59251635751E+02 -0.81793324995E+01  0.11448528562E+03  0.00000000000E+00 0.  1.
<mgrwt>
<rscale>  4 0.35900980E+03</rscale>
<asrwt>0</asrwt>
<pdfrwt beam="1">  1       21 0.16287444E+00 0.35900980E+03</pdfrwt>
<pdfrwt beam="2">  1       21 0.26205581E-01 0.35900980E+03</pdfrwt>
<totfact> 0.29689515E+03</totfact>
</mgrwt>
</event>
<event>
 5    0  0.1911703E+000  0.2385235E+03  0.7546771E-02  0.1120780E+00
         21   -1    0    0  502  501  0.00000000000E+00  0.00000000000E+00  0.30319930481E+03  0.30319930481E+03  0.00000000000E+00 0. -1.
         21   -1    0    0  503  502 -0.00000000000E+00 -0.00000000000E+00 -0.18286130785E+03  0.18286130785E+03  0.00000000000E+00 0. -1.
         25    1    1    2    0    0  0.46064848464E+02 -0.19785472049E+03  0.14460194950E+03  0.27893222203E+03  0.12500000000E+03 0.  0.
         21    1    1    2  503  504 -0.15266970773E+02  0.20042304628E+02 -0.44395235792E+01  0.25582879842E+02  0.00000000000E+00 0. -1.
         21    1    1    2  504  501 -0.30797877690E+02  0.17781241587E+03 -0.19824428967E+02  0.18154551080E+03  0.00000000000E+00 0. -1.
<mgrwt>
<rscale>  4 0.23852350E+03</rscale>
<asrwt>0</asrwt>
<pdfrwt beam="1">  1       21 0.46646047E-01 0.23852350E+03</pdfrwt>
<pdfrwt beam="2">  1       21 0.28132509E-01 0.23852350E+03</pdfrwt>
<totfact> 0.52041929E+04</totfact>
</mgrwt>
</event>
<event>
 5    0  0.1856407E+000  0.3620780E+03  0.7546771E-02  0.1057764E+00
         21   -1    0    0  502  501  0.00000000000E+00  0.00000000000E+00  0.45934489536E+03  0.45934489536E+03  0.00000000000E+00 0.  1.
         21   -1    0    0  503  502 -0.00000000000E+00 -0.00000000000E+00 -0.54988675903E+03  0.54988675903E+03  0.00000000000E+00 0.  1.
         25    1    1    2    0    0 -0.10526010965E+03  0.32310338946E+03  0.30616943619E+03  0.47417319053E+03  0.12500000000E+03 0.  0.
         21    1    1    2  503  504 -0.82698638615E+01 -0.13695869257E+03 -0.19197221811E+03  0.23596484197E+03  0.00000000000E+00 0.  1.
         21    1    1    2  504  501  0.11352997351E+03 -0.18614469689E+03 -0.20473908175E+03  0.29909362190E+03  0.00000000000E+00 0.  1.
<mgrwt>
<rscale>  4 0.36207802E+03</rscale>
<asrwt>0</asrwt>
<pdfrwt beam="1">  1       21 0.70668446E-01 0.36207802E+03</pdfrwt>
<pdfrwt beam="2">  1       21 0.84597963E-01 0.36207802E+03</pdfrwt>
<totfact> 0.19672955E+03</totfact>
</mgrwt>
</event>
<event>
 5    0  0.2141756E+000  0.2761720E+03  0.7546771E-02  0.1097798E+00
         21   -1    0    0  502  501  0.00000000000E+00  0.00000000000E+00  0.34110319603E+03  0.34110319603E+03  0.00000000000E+00 0. -1.
         21   -1    0    0  503  502 -0.00000000000E+00 -0.00000000000E+00 -0.26876279040E+03  0.26876279040E+03  0.00000000000E+00 0. -1.
         25    1    1    2    0    0 -0.12644476789E+03 -0.21132363851E+03  0.18633392758E+03  0.33315355632E+03  0.12500000000E+03 0.  0.
         21    1    1    2  503  504  0.46422013319E+02  0.34085502059E+02 -0.23076206677E+02  0.62043018026E+02  0.00000000000E+00 0. -1.
         21    1    1    2  504  501  0.80022754569E+02  0.17723813646E+03 -0.90917315277E+02  0.21466941207E+03  0.00000000000E+00 0. -1.
<mgrwt>
<rscale>  4 0.27617197E+03</rscale>
<asrwt>0</asrwt>
<pdfrwt beam="1">  1       21 0.52477415E-01 0.27617197E+03</pdfrwt>
<pdfrwt beam="2">  1       21 0.41348121E-01 0.27617197E+03</pdfrwt>
<totfact> 0.18565464E+04</totfact>
</mgrwt>
</event>
<event>
 5    0  0.3632048E+000  0.2380665E+03  0.7546771E-02  0.1121088E+00
         21   -1    0    0  502  501  0.00000000000E+00  0.00000000000E+00  0.67585367513E+02  0.67585367513E+02  0.00000000000E+00 0.  1.
         21   -1    0    0  503  502 -0.00000000000E+00 -0.00000000000E+00 -0.81402519191E+03  0.81402519191E+03  0.00000000000E+00 0.  1.
         25    1    1    2    0    0 -0.18262617984E+03  0.87740205838E+02 -0.27756867037E+03  0.36567749734E+03  0.12500000000E+03 0.  0.
         21    1    1    2  503  504  0.40314068988E+02 -0.13146583368E+02 -0.41401484069E+02  0.59263308174E+02  0.00000000000E+00 0. -1.
         21    1    1    2  504  501  0.14231211085E+03 -0.74593622470E+02 -0.42746966995E+03  0.45666975391E+03  0.00000000000E+00 0.  1.
<mgrwt>
<rscale>  4 0.23806651E+03</rscale>
<asrwt>0</asrwt>
<pdfrwt beam="1">  1       21 0.10397750E-01 0.23806651E+03</pdfrwt>
<pdfrwt beam="2">  1       21 0.12523463E+00 0.23806651E+03</pdfrwt>
<totfact> 0.35087278E+04</totfact>
</mgrwt>
</event>
