<event>
 4    0  0.1003929E-001  0.2392685E+03  0.7546771E-02  0.1120281E+00
         21   -1    0    0  502  501  0.00000000000E+00  0.00000000000E+00  0.14179419501E+03  0.14179419501E+03  0.00000000000E+00 0. -1.
         21   -1    0    0  503  502 -0.00000000000E+00 -0.00000000000E+00 -0.41582543914E+03  0.41582543914E+03  0.00000000000E+00 0. -1.
         25    1    1    2    0    0  0.70793101254E+01 -0.20389771885E+03 -0.25966495175E+03  0.35309387357E+03  0.12500000000E+03 0.  0.
         21    1    1    2  503  501 -0.70793101254E+01  0.20389771885E+03 -0.14366292389E+02  0.20452576058E+03  0.00000000000E+00 0. -1.
<mgrwt>
<rscale>  3 0.23926846E+03</rscale>
<asrwt>0</asrwt>
<pdfrwt beam="1">  1       21 0.21814492E-01 0.23926846E+03</pdfrwt>
<pdfrwt beam="2">  1       21 0.63973144E-01 0.23926846E+03</pdfrwt>
<totfact> 0.43284024E+04</totfact>
</mgrwt>
</event>
<event>
 4    0  0.1241100E-001  0.2684246E+03  0.7546771E-02  0.1102185E+00
         21   -1    0    0  503  501  0.00000000000E+00  0.00000000000E+00  0.12914872225E+04  0.12914872225E+04  0.00000000000E+00 0.  1.
         21   -1    0    0  501  502 -0.00000000000E+00 -0.00000000000E+00 -0.51629018876E+02  0.51629018876E+02  0.00000000000E+00 0.  1.
         25    1    1    2    0    0 -0.47393707391E+01  0.23749593812E+03  0.79057475393E+03  0.83490132579E+03  0.12500000000E+03 0.  0.
         21    1    1    2  503  502  0.47393707391E+01 -0.23749593812E+03  0.44928344973E+03  0.50821491562E+03  0.00000000000E+00 0.  1.
<mgrwt>
<rscale>  3 0.26842463E+03</rscale>
<asrwt>0</asrwt>
<pdfrwt beam="1">  1       21 0.19869032E+00 0.26842463E+03</pdfrwt>
<pdfrwt beam="2">  1       21 0.79429270E-02 0.26842463E+03</pdfrwt>
<totfact> 0.15797643E+04</totfact>
</mgrwt>
</event>
<event>
 4    0  0.1334111E-001  0.2551104E+03  0.7546771E-02  0.1110117E+00
         21   -1    0    0  503  501  0.00000000000E+00  0.00000000000E+00  0.57178464562E+02  0.57178464562E+02  0.00000000000E+00 0. -1.
         21   -1    0    0  501  502 -0.00000000000E+00 -0.00000000000E+00 -0.10086049347E+04  0.10086049347E+04  0.00000000000E+00 0. -1.
         25    1    1    2    0    0 -0.16932170441E+03  0.14417520271E+03 -0.56521175471E+03  0.62011745365E+03  0.12500000000E+03 0.  0.
         21    1    1    2  503  502  0.16932170441E+03 -0.14417520271E+03 -0.38621471539E+03  0.44566594557E+03  0.00000000000E+00 0. -1.
<mgrwt>
<rscale>  3 0.25511042E+03</rscale>
<asrwt>0</asrwt>
<pdfrwt beam="1">  1       21 0.87966868E-02 0.25511042E+03</pdfrwt>
<pdfrwt beam="2">  1       21 0.15516999E+00 0.25511042E+03</pdfrwt>
<totfact> 0.26794394E+04</totfact>
</mgrwt>
</event>
<event>
 4    0  0.1158471E-001  0.2807448E+03  0.7546771E-02  0.1095283E+00
         21   -1    0    0  503  501  0.00000000000E+00  0.00000000000E+00  0.71374830257E+03  0.71374830257E+03  0.00000000000E+00 0. -1.
         21   -1    0    0  501  502 -0.00000000000E+00 -0.00000000000E+00 -0.34845181539E+03  0.34845181539E+03  0.00000000000E+00 0. -1.
         25    1    1    2    0    0 -0.22158985950E+03  0.11870382208E+03  0.63452407697E+03  0.69385767089E+03  0.12500000000E+03 0.  0.
         21    1    1    2  503  502  0.22158985950E+03 -0.11870382208E+03 -0.26922758979E+03  0.36834244707E+03  0.00000000000E+00 0. -1.
<mgrwt>
<rscale>  3 0.28074484E+03</rscale>
<asrwt>0</asrwt>
<pdfrwt beam="1">  1       21 0.10980743E+00 0.28074484E+03</pdfrwt>
<pdfrwt beam="2">  1       21 0.53607972E-01 0.28074484E+03</pdfrwt>
<totfact> 0.20181284E+03</totfact>
</mgrwt>
</event>
<event>
 4    0  0.1524130E-001  0.2627104E+03  0.7546771E-02  0.1105526E+00
         21   -1    0    0  503  501  0.00000000000E+00  0.00000000000E+00  0.64191457681E+02  0.64191457681E+02  0.00000000000E+00 0. -1.
         21   -1    0    0  501  502 -0.00000000000E+00 -0.00000000000E+00 -0.94972017675E+03  0.94972017675E+03  0.00000000000E+00 0. -1.
         25    1    1    2    0    0 -0.22761543099E+03  0.39786614714E+02 -0.46465602323E+03  0.53378083430E+03  0.12500000000E+03 0.  0.
         21    1    1    2  503  502  0.22761543099E+03 -0.39786614714E+02 -0.42087269583E+03  0.48013080013E+03  0.00000000000E+00 0. -1.
<mgrwt>
<rscale>  3 0.26271041E+03</rscale>
<asrwt>0</asrwt>
<pdfrwt beam="1">  1       21 0.98756098E-02 0.26271041E+03</pdfrwt>
<pdfrwt beam="2">  1       21 0.14611078E+00 0.26271041E+03</pdfrwt>
<totfact> 0.25532347E+04</totfact>
</mgrwt>
</event>
<event>
 4    0  0.1263746E-001  0.3478823E+03  0.7546771E-02  0.1063488E+00
         21   -1    0    0  502  501  0.00000000000E+00  0.00000000000E+00  0.41233422715E+03  0.41233422715E+03  0.00000000000E+00 0. -1.
         21   -1    0    0  503  502 -0.00000000000E+00 -0.00000000000E+00 -0.31948353186E+03  0.31948353186E+03  0.00000000000E+00 0. -1.
         25    1    1    2    0    0  0.27716929239E+03  0.16903937928E+03 -0.89839480960E+02  0.35929550614E+03  0.12500000000E+03 0.  0.
         21    1    1    2  503  501 -0.27716929239E+03 -0.16903937928E+03  0.18269017625E+03  0.37252225287E+03  0.00000000000E+00 0. -1.
<mgrwt>
<rscale>  3 0.34788235E+03</rscale>
<asrwt>0</asrwt>
<pdfrwt beam="1">  1       21 0.63436035E-01 0.34788235E+03</pdfrwt>
<pdfrwt beam="2">  1       21 0.49151313E-01 0.34788235E+03</pdfrwt>
<totfact> 0.83535242E+03</totfact>
</mgrwt>
</event>
<event>
 4    0  0.1398095E-001  0.2591282E+03  0.7546771E-02  0.1107668E+00
         21   -1    0    0  503  501  0.00000000000E+00  0.00000000000E+00  0.52071296478E+03  0.52071296478E+03  0.00000000000E+00 0.  1.
         21   -1    0    0  501  502 -0.00000000000E+00 -0.00000000000E+00 -0.13804910428E+03  0.13804910428E+03  0.00000000000E+00 0.  1.
         25    1    1    2    0    0  0.15175865855E+03 -0.16879489043E+03  0.34051024594E+03  0.42789558664E+03  0.12500000000E+03 0.  0.
         21    1    1    2  503  502 -0.15175865855E+03  0.16879489043E+03  0.42153614568E+02  0.23086648242E+03  0.00000000000E+00 0.  1.
<mgrwt>
<rscale>  3 0.25912816E+03</rscale>
<asrwt>0</asrwt>
<pdfrwt beam="1">  1       21 0.80109686E-01 0.25912816E+03</pdfrwt>
<pdfrwt beam="2">  1       21 0.21238324E-01 0.25912816E+03</pdfrwt>
<totfact> 0.27339395E+04</totfact>
</mgrwt>
</event>
<event>
 4    0  0.1051726E-001  0.2775071E+03  0.7546771E-02  0.1097058E+00
         21   -1    0    0  502  501  0.00000000000E+00  0.00000000000E+00  0.26324637747E+03  0.26324637747E+03  0.00000000000E+00 0.  1.
         21   -1    0    0  503  502 -0.00000000000E+00 -0.00000000000E+00 -0.74849268525E+03  0.74849268525E+03  0.00000000000E+00 0.  1.
         25    1    1    2    0    0  0.18980496210E+03 -0.15924600401E+03  0.16016191403E+03  0.32040919484E+03  0.12500000000E+03 0.  0.
         21    1    1    2  503  501 -0.18980496210E+03  0.15924600401E+03 -0.64540822182E+03  0.69132986788E+03  0.00000000000E+00 0.  1.
<mgrwt>
<rscale>  3 0.27750714E+03</rscale>
<asrwt>0</asrwt>
<pdfrwt beam="1">  1       21 0.40499444E-01 0.27750714E+03</pdfrwt>
<pdfrwt beam="2">  1       21 0.11515272E+00 0.27750714E+03</pdfrwt>
<totfact> 0.32271061E+03</totfact>
</mgrwt>
</event>
<event>
 4    0  0.1254688E-001  0.2807757E+03  0.7546771E-02  0.1095266E+00
         21   -1    0    0  503  501  0.00000000000E+00  0.00000000000E+00  0.46906707681E+03  0.46906707681E+03  0.00000000000E+00 0.  1.
         21   -1    0    0  501  502 -0.00000000000E+00 -0.00000000000E+00 -0.30309990777E+03  0.30309990777E+03  0.00000000000E+00 0.  1.
         25    1    1    2    0    0  0.25037192611E+03 -0.22888786213E+02  0.35859574403E+03  0.45544034248E+03  0.12500000000E+03 0.  0.
         21    1    1    2  503  502 -0.25037192611E+03  0.22888786213E+02 -0.19262857499E+03  0.31672664210E+03  0.00000000000E+00 0.  1.
<mgrwt>
<rscale>  3 0.28077571E+03</rscale>
<asrwt>0</asrwt>
<pdfrwt beam="1">  1       21 0.72164166E-01 0.28077571E+03</pdfrwt>
<pdfrwt beam="2">  1       21 0.46630755E-01 0.28077571E+03</pdfrwt>
<totfact> 0.72227643E+03</totfact>
</mgrwt>
</event>
<event>
 4    0  0.1246992E-001  0.2996755E+03  0.7546771E-02  0.1085403E+00
         21   -1    0    0  502  501  0.00000000000E+00  0.00000000000E+00  0.49713853541E+03  0.49713853541E+03  0.00000000000E+00 0.  1.
         21   -1    0    0  503  502 -0.00000000000E+00 -0.00000000000E+00 -0.24626050460E+03  0.24626050460E+03  0.00000000000E+00 0.  1.
         25    1    1    2    0    0  0.27005693343E+03  0.35350339861E+02  0.34338072089E+03  0.45575839356E+03  0.12500000000E+03 0.  0.
         21    1    1    2  503  501 -0.27005693343E+03 -0.35350339861E+02 -0.92502690079E+02  0.28764064646E+03  0.00000000000E+00 0.  1.
<mgrwt>
<rscale>  3 0.29967548E+03</rscale>
<asrwt>0</asrwt>
<pdfrwt beam="1">  1       21 0.76482851E-01 0.29967548E+03</pdfrwt>
<pdfrwt beam="2">  1       21 0.37886232E-01 0.29967548E+03</pdfrwt>
<totfact> 0.96200444E+03</totfact>
</mgrwt>
</event>
<event>
 4    0  0.1718988E-001  0.3271382E+03  0.7546771E-02  0.1072410E+00
         21   -1    0    0  503  501  0.00000000000E+00  0.00000000000E+00  0.28025337911E+03  0.28025337911E+03  0.00000000000E+00 0.  1.
         21   -1    0    0  501  502 -0.00000000000E+00 -0.00000000000E+00 -0.10495404452E+04  0.10495404452E+04  0.00000000000E+00 0. -1.
         25    1    1    2    0    0 -0.30073292509E+03 -0.30889084163E+02  0.15159657170E+03  0.36055644261E+03  0.12500000000E+03 0.  0.
         21    1    1    2  503  502  0.30073292509E+03  0.30889084163E+02 -0.92088363774E+03  0.96923738166E+03  0.00000000000E+00 0. -1.
<mgrwt>
<rscale>  3 0.32713824E+03</rscale>
<asrwt>0</asrwt>
<pdfrwt beam="1">  1       21 0.43115904E-01 0.32713824E+03</pdfrwt>
<pdfrwt beam="2">  1       21 0.16146776E+00 0.32713824E+03</pdfrwt>
<totfact> 0.11410758E+03</totfact>
</mgrwt>
</event>
<event>
 4    0  0.1318466E-001  0.4678474E+03  0.7546771E-02  0.1022530E+00
         21   -1    0    0  502  501  0.00000000000E+00  0.00000000000E+00  0.14748534373E+03  0.14748534373E+03  0.00000000000E+00 0. -1.
         21   -1    0    0  503  502 -0.00000000000E+00 -0.00000000000E+00 -0.15253556159E+04  0.15253556159E+04  0.00000000000E+00 0. -1.
         25    1    1    2    0    0 -0.44970076613E+03 -0.32021694448E+02 -0.49249046948E+03  0.67928494058E+03  0.12500000000E+03 0.  0.
         21    1    1    2  503  501  0.44970076613E+03  0.32021694448E+02 -0.88537980269E+03  0.99355601905E+03  0.00000000000E+00 0. -1.
<mgrwt>
<rscale>  3 0.46784738E+03</rscale>
<asrwt>0</asrwt>
<pdfrwt beam="1">  1       21 0.22690051E-01 0.46784738E+03</pdfrwt>
<pdfrwt beam="2">  1       21 0.23467011E+00 0.46784738E+03</pdfrwt>
<totfact> 0.12271094E+03</totfact>
</mgrwt>
</event>
<event>
 4    0  0.1087270E-001  0.5854047E+03  0.7546771E-02  0.9936158E-01
         21   -1    0    0  502  501  0.00000000000E+00  0.00000000000E+00  0.10898180316E+04  0.10898180316E+04  0.00000000000E+00 0.  1.
         21   -1    0    0  503  502 -0.00000000000E+00 -0.00000000000E+00 -0.50131407417E+03  0.50131407417E+03  0.00000000000E+00 0. -1.
         25    1    1    2    0    0 -0.51585226347E+02  0.56957235122E+03  0.79132924890E+03  0.98432752629E+03  0.12500000000E+03 0.  0.
         21    1    1    2  503  501  0.51585226347E+02 -0.56957235122E+03 -0.20282529145E+03  0.60680457950E+03  0.00000000000E+00 0. -1.
<mgrwt>
<rscale>  3 0.58540473E+03</rscale>
<asrwt>0</asrwt>
<pdfrwt beam="1">  1       21 0.16766431E+00 0.58540473E+03</pdfrwt>
<pdfrwt beam="2">  1       21 0.77125243E-01 0.58540473E+03</pdfrwt>
<totfact> 0.25569395E+02</totfact>
</mgrwt>
</event>
<event>
 4    0  0.1035219E-001  0.2822772E+03  0.7546771E-02  0.1094452E+00
         21   -1    0    0  503  501  0.00000000000E+00  0.00000000000E+00  0.55241393589E+03  0.55241393589E+03  0.00000000000E+00 0.  1.
         21   -1    0    0  501  502 -0.00000000000E+00 -0.00000000000E+00 -0.23818617533E+03  0.23818617533E+03  0.00000000000E+00 0.  1.
         25    1    1    2    0    0  0.25147151453E+03  0.28592000545E+02  0.42832851638E+03  0.51297733191E+03  0.12500000000E+03 0.  0.
         21    1    1    2  503  502 -0.25147151453E+03 -0.28592000545E+02 -0.11410075582E+03  0.27762277931E+03  0.00000000000E+00 0.  1.
<mgrwt>
<rscale>  3 0.28227721E+03</rscale>
<asrwt>0</asrwt>
<pdfrwt beam="1">  1       21 0.84986759E-01 0.28227721E+03</pdfrwt>
<pdfrwt beam="2">  1       21 0.36644027E-01 0.28227721E+03</pdfrwt>
<totfact> 0.81512234E+03</totfact>
</mgrwt>
</event>
<event>
 4    0  0.1364860E-001  0.3942797E+03  0.7546771E-02  0.1045779E+00
         21   -1    0    0  502  501  0.00000000000E+00  0.00000000000E+00  0.29298086745E+03  0.29298086745E+03  0.00000000000E+00 0. -1.
         21   -1    0    0  503  502 -0.00000000000E+00 -0.00000000000E+00 -0.57753572075E+03  0.57753572075E+03  0.00000000000E+00 0. -1.
         25    1    1    2    0    0  0.16541423909E+02  0.37357438922E+03 -0.30126555835E+03  0.49620296214E+03  0.12500000000E+03 0.  0.
         21    1    1    2  503  501 -0.16541423909E+02 -0.37357438922E+03  0.16710705048E+02  0.37431362606E+03  0.00000000000E+00 0. -1.
<mgrwt>
<rscale>  3 0.39427965E+03</rscale>
<asrwt>0</asrwt>
<pdfrwt beam="1">  1       21 0.45073980E-01 0.39427965E+03</pdfrwt>
<pdfrwt beam="2">  1       21 0.88851648E-01 0.39427965E+03</pdfrwt>
<totfact> 0.45743945E+03</totfact>
</mgrwt>
</event>
<event>
 4    0  0.1452304E-001  0.2480648E+03  0.7546771E-02  0.1114534E+00
         21   -1    0    0  503  501  0.00000000000E+00  0.00000000000E+00  0.17092017369E+03  0.17092017369E+03  0.00000000000E+00 0.  1.
         21   -1    0    0  501  502 -0.00000000000E+00 -0.00000000000E+00 -0.38284727735E+03  0.38284727735E+03  0.00000000000E+00 0.  1.
         25    1    1    2    0    0  0.13606206139E+03 -0.16552419241E+03  0.60141908786E+01  0.24813769023E+03  0.12500000000E+03 0.  0.
         21    1    1    2  503  502 -0.13606206139E+03  0.16552419241E+03 -0.21794129454E+03  0.30562976080E+03  0.00000000000E+00 0.  1.
<mgrwt>
<rscale>  3 0.24806480E+03</rscale>
<asrwt>0</asrwt>
<pdfrwt beam="1">  1       21 0.26295412E-01 0.24806480E+03</pdfrwt>
<pdfrwt beam="2">  1       21 0.58899580E-01 0.24806480E+03</pdfrwt>
<totfact> 0.36092183E+04</totfact>
</mgrwt>
</event>
<event>
 4    0  0.1003929E-001  0.3006549E+03  0.7546771E-02  0.1084914E+00
         21   -1    0    0  503  501  0.00000000000E+00  0.00000000000E+00  0.63886712707E+02  0.63886712707E+02  0.00000000000E+00 0.  1.
         21   -1    0    0  501  502 -0.00000000000E+00 -0.00000000000E+00 -0.16805470680E+04  0.16805470680E+04  0.00000000000E+00 0. -1.
         25    1    1    2    0    0 -0.85550138342E+01 -0.27330422485E+03 -0.41747879234E+03  0.51447247704E+03  0.12500000000E+03 0.  0.
         21    1    1    2  503  502  0.85550138342E+01  0.27330422485E+03 -0.11991815629E+04  0.12299613036E+04  0.00000000000E+00 0. -1.
<mgrwt>
<rscale>  3 0.30065493E+03</rscale>
<asrwt>0</asrwt>
<pdfrwt beam="1">  1       21 0.98287268E-02 0.30065493E+03</pdfrwt>
<pdfrwt beam="2">  1       21 0.25854566E+00 0.30065493E+03</pdfrwt>
<totfact> 0.45206733E+03</totfact>
</mgrwt>
</event>
<event>
 4    0  0.1003929E-001  0.5297254E+03  0.7546771E-02  0.1006299E+00
         21   -1    0    0  502  501  0.00000000000E+00  0.00000000000E+00  0.21638955891E+04  0.21638955891E+04  0.00000000000E+00 0.  1.
         21   -1    0    0  503  502 -0.00000000000E+00 -0.00000000000E+00 -0.50039930977E+03  0.50039930977E+03  0.00000000000E+00 0. -1.
         25    1    1    2    0    0  0.47161987734E+03 -0.20629766169E+03  0.19869442199E+04  0.20563453910E+04  0.12500000000E+03 0.  0.
         21    1    1    2  503  501 -0.47161987734E+03  0.20629766169E+03 -0.32344794056E+03  0.60794950792E+03  0.00000000000E+00 0. -1.
<mgrwt>
<rscale>  3 0.52972543E+03</rscale>
<asrwt>0</asrwt>
<pdfrwt beam="1">  1       21 0.33290701E+00 0.52972543E+03</pdfrwt>
<pdfrwt beam="2">  1       21 0.76984511E-01 0.52972543E+03</pdfrwt>
<totfact> 0.23279504E+01</totfact>
</mgrwt>
</event>
<event>
 4    0  0.1482951E-001  0.2593123E+03  0.7546771E-02  0.1107557E+00
         21   -1    0    0  503  501  0.00000000000E+00  0.00000000000E+00  0.34764644628E+03  0.34764644628E+03  0.00000000000E+00 0.  1.
         21   -1    0    0  501  502 -0.00000000000E+00 -0.00000000000E+00 -0.21418849663E+03  0.21418849663E+03  0.00000000000E+00 0.  1.
         25    1    1    2    0    0 -0.18812816256E+03 -0.12737996292E+03  0.19730259138E+03  0.32583918283E+03  0.12500000000E+03 0.  0.
         21    1    1    2  503  502  0.18812816256E+03  0.12737996292E+03 -0.63844641726E+02  0.23599576008E+03  0.00000000000E+00 0.  1.
<mgrwt>
<rscale>  3 0.25931228E+03</rscale>
<asrwt>0</asrwt>
<pdfrwt beam="1">  1       21 0.53484069E-01 0.25931228E+03</pdfrwt>
<pdfrwt beam="2">  1       21 0.32952076E-01 0.25931228E+03</pdfrwt>
<totfact> 0.28379193E+04</totfact>
</mgrwt>
</event>
<event>
 4    0  0.1003929E-001  0.2873456E+03  0.7546771E-02  0.1091743E+00
         21   -1    0    0  502  501  0.00000000000E+00  0.00000000000E+00  0.20232127483E+04  0.20232127483E+04  0.00000000000E+00 0. -1.
         21   -1    0    0  503  502 -0.00000000000E+00 -0.00000000000E+00 -0.11217925744E+03  0.11217925744E+03  0.00000000000E+00 0. -1.
         25    1    1    2    0    0  0.24483220534E+03  0.83664078589E+02  0.18465118546E+04  0.18687358069E+04  0.12500000000E+03 0.  0.
         21    1    1    2  503  501 -0.24483220534E+03 -0.83664078589E+02  0.64521636236E+02  0.26665619881E+03  0.00000000000E+00 0. -1.
<mgrwt>
<rscale>  3 0.28734559E+03</rscale>
<asrwt>0</asrwt>
<pdfrwt beam="1">  1       21 0.31126347E+00 0.28734559E+03</pdfrwt>
<pdfrwt beam="2">  1       21 0.17258349E-01 0.28734559E+03</pdfrwt>
<totfact> 0.80084399E+02</totfact>
</mgrwt>
</event>
<event>
 4    0  0.1003929E-001  0.2680771E+03  0.7546771E-02  0.1102385E+00
         21   -1    0    0  502  501  0.00000000000E+00  0.00000000000E+00  0.12301390000E+03  0.12301390000E+03  0.00000000000E+00 0. -1.
         21   -1    0    0  503  502 -0.00000000000E+00 -0.00000000000E+00 -0.12185685110E+04  0.12185685110E+04  0.00000000000E+00 0. -1.
         25    1    1    2    0    0  0.18803004086E+02 -0.23640385856E+03 -0.10699863494E+04  0.11030576255E+04  0.12500000000E+03 0.  0.
         21    1    1    2  503  501 -0.18803004086E+02  0.23640385856E+03 -0.25568261631E+02  0.23852478552E+03  0.00000000000E+00 0. -1.
<mgrwt>
<rscale>  3 0.26807711E+03</rscale>
<asrwt>0</asrwt>
<pdfrwt beam="1">  1       21 0.18925216E-01 0.26807711E+03</pdfrwt>
<pdfrwt beam="2">  1       21 0.18747207E+00 0.26807711E+03</pdfrwt>
<totfact> 0.39034803E+03</totfact>
</mgrwt>
</event>
<event>
 4    0  0.1425301E-001  0.2724371E+03  0.7546771E-02  0.1099893E+00
         21   -1    0    0  503  501  0.00000000000E+00  0.00000000000E+00  0.11788678794E+04  0.11788678794E+04  0.00000000000E+00 0. -1.
         21   -1    0    0  501  502 -0.00000000000E+00 -0.00000000000E+00 -0.59978158186E+02  0.59978158186E+02  0.00000000000E+00 0. -1.
         25    1    1    2    0    0 -0.24110474688E+03 -0.21575162624E+02  0.74683736750E+03  0.79497675444E+03  0.12500000000E+03 0.  0.
         21    1    1    2  503  502  0.24110474688E+03  0.21575162624E+02  0.37205235367E+03  0.44386928310E+03  0.00000000000E+00 0. -1.
<mgrwt>
<rscale>  3 0.27243712E+03</rscale>
<asrwt>0</asrwt>
<pdfrwt beam="1">  1       21 0.18136427E+00 0.27243712E+03</pdfrwt>
<pdfrwt beam="2">  1       21 0.92274098E-02 0.27243712E+03</pdfrwt>
<totfact> 0.15813494E+04</totfact>
</mgrwt>
</event>
<event>
 4    0  0.1143563E-001  0.2882044E+03  0.7546771E-02  0.1091290E+00
         21   -1    0    0  503  501  0.00000000000E+00  0.00000000000E+00  0.51257189977E+03  0.51257189977E+03  0.00000000000E+00 0.  1.
         21   -1    0    0  501  502 -0.00000000000E+00 -0.00000000000E+00 -0.20157136724E+03  0.20157136724E+03  0.00000000000E+00 0. -1.
         25    1    1    2    0    0  0.17627607078E+03  0.19069220391E+03  0.34798654326E+03  0.45183670065E+03  0.12500000000E+03 0.  0.
         21    1    1    2  503  502 -0.17627607078E+03 -0.19069220391E+03 -0.36986010739E+02  0.26230656636E+03  0.00000000000E+00 0. -1.
<mgrwt>
<rscale>  3 0.28820439E+03</rscale>
<asrwt>0</asrwt>
<pdfrwt beam="1">  1       21 0.78857215E-01 0.28820439E+03</pdfrwt>
<pdfrwt beam="2">  1       21 0.31010980E-01 0.28820439E+03</pdfrwt>
<totfact> 0.13464452E+04</totfact>
</mgrwt>
</event>
<event>
 4    0  0.1739580E-001  0.3324266E+03  0.7546771E-02  0.1070068E+00
         21   -1    0    0  503  501  0.00000000000E+00  0.00000000000E+00  0.23897043764E+03  0.23897043764E+03  0.00000000000E+00 0. -1.
         21   -1    0    0  501  502 -0.00000000000E+00 -0.00000000000E+00 -0.43317992113E+03  0.43317992113E+03  0.00000000000E+00 0. -1.
         25    1    1    2    0    0  0.29918092032E+03 -0.73302191399E+02 -0.68242247606E+02  0.33935886419E+03  0.12500000000E+03 0.  0.
         21    1    1    2  503  502 -0.29918092032E+03  0.73302191399E+02 -0.12596723589E+03  0.33279149458E+03  0.00000000000E+00 0. -1.
<mgrwt>
<rscale>  3 0.33242658E+03</rscale>
<asrwt>0</asrwt>
<pdfrwt beam="1">  1       21 0.36764683E-01 0.33242658E+03</pdfrwt>
<pdfrwt beam="2">  1       21 0.66643064E-01 0.33242658E+03</pdfrwt>
<totfact> 0.13729771E+04</totfact>
</mgrwt>
</event>
<event>
 4    0  0.1485845E-001  0.2895637E+03  0.7546771E-02  0.1090577E+00
         21   -1    0    0  502  501  0.00000000000E+00  0.00000000000E+00  0.10593649118E+03  0.10593649118E+03  0.00000000000E+00 0.  1.
         21   -1    0    0  503  502 -0.00000000000E+00 -0.00000000000E+00 -0.72201737772E+03  0.72201737772E+03  0.00000000000E+00 0.  1.
         25    1    1    2    0    0 -0.86414444570E+02 -0.24648461237E+03 -0.28552579672E+03  0.40665968691E+03  0.12500000000E+03 0.  0.
         21    1    1    2  503  501  0.86414444570E+02  0.24648461237E+03 -0.33055508982E+03  0.42129418198E+03  0.00000000000E+00 0.  1.
<mgrwt>
<rscale>  3 0.28956367E+03</rscale>
<asrwt>0</asrwt>
<pdfrwt beam="1">  1       21 0.16297922E-01 0.28956367E+03</pdfrwt>
<pdfrwt beam="2">  1       21 0.11107959E+00 0.28956367E+03</pdfrwt>
<totfact> 0.20432704E+04</totfact>
</mgrwt>
</event>
<event>
 4    0  0.1003929E-001  0.2400688E+03  0.7546771E-02  0.1119747E+00
         21   -1    0    0  503  501  0.00000000000E+00  0.00000000000E+00  0.13986580814E+03  0.13986580814E+03  0.00000000000E+00 0.  1.
         21   -1    0    0  501  502 -0.00000000000E+00 -0.00000000000E+00 -0.42158257858E+03  0.42158257858E+03  0.00000000000E+00 0.  1.
         25    1    1    2    0    0  0.19951845299E+03  0.46908740296E+02 -0.26229381560E+03  0.35557149591E+03  0.12500000000E+03 0.  0.
         21    1    1    2  503  502 -0.19951845299E+03 -0.46908740296E+02 -0.19422954841E+02  0.20587689082E+03  0.00000000000E+00 0.  1.
<mgrwt>
<rscale>  3 0.24006883E+03</rscale>
<asrwt>0</asrwt>
<pdfrwt beam="1">  1       21 0.21517817E-01 0.24006883E+03</pdfrwt>
<pdfrwt beam="2">  1       21 0.64858858E-01 0.24006883E+03</pdfrwt>
<totfact> 0.43090320E+04</totfact>
</mgrwt>
</event>
<event>
 4    0  0.1151822E-001  0.4021492E+03  0.7546771E-02  0.1043038E+00
         21   -1    0    0  503  501  0.00000000000E+00  0.00000000000E+00  0.39183755371E+03  0.39183755371E+03  0.00000000000E+00 0.  1.
         21   -1    0    0  501  502 -0.00000000000E+00 -0.00000000000E+00 -0.54749737933E+03  0.54749737933E+03  0.00000000000E+00 0.  1.
         25    1    1    2    0    0  0.30272078042E+03 -0.23336474947E+03  0.17055950214E+03  0.43682321477E+03  0.12500000000E+03 0.  0.
         21    1    1    2  503  502 -0.30272078042E+03  0.23336474947E+03 -0.32621932775E+03  0.50251171827E+03  0.00000000000E+00 0.  1.
<mgrwt>
<rscale>  3 0.40214920E+03</rscale>
<asrwt>0</asrwt>
<pdfrwt beam="1">  1       21 0.60282700E-01 0.40214920E+03</pdfrwt>
<pdfrwt beam="2">  1       21 0.84230366E-01 0.40214920E+03</pdfrwt>
<totfact> 0.27768688E+03</totfact>
</mgrwt>
</event>
<event>
 4    0  0.1401940E-001  0.2735845E+03  0.7546771E-02  0.1099245E+00
         21   -1    0    0  502  501  0.00000000000E+00  0.00000000000E+00  0.13015787434E+03  0.13015787434E+03  0.00000000000E+00 0.  1.
         21   -1    0    0  503  502 -0.00000000000E+00 -0.00000000000E+00 -0.22404688612E+04  0.22404688612E+04  0.00000000000E+00 0. -1.
         25    1    1    2    0    0 -0.24120401070E+03  0.32312636282E+02 -0.28978164370E+02  0.27511491281E+03  0.12500000000E+03 0.  0.
         21    1    1    2  503  501  0.24120401070E+03 -0.32312636282E+02 -0.20813328225E+04  0.20955118227E+04  0.00000000000E+00 0. -1.
<mgrwt>
<rscale>  3 0.27358450E+03</rscale>
<asrwt>0</asrwt>
<pdfrwt beam="1">  1       21 0.20024291E-01 0.27358450E+03</pdfrwt>
<pdfrwt beam="2">  1       21 0.34468748E+00 0.27358450E+03</pdfrwt>
<totfact> 0.38956195E+02</totfact>
</mgrwt>
</event>
<event>
 4    0  0.1489998E-001  0.3132542E+03  0.7546771E-02  0.1078796E+00
         21   -1    0    0  503  501  0.00000000000E+00  0.00000000000E+00  0.50136383112E+03  0.50136383112E+03  0.00000000000E+00 0. -1.
         21   -1    0    0  501  502 -0.00000000000E+00 -0.00000000000E+00 -0.22470770909E+03  0.22470770909E+03  0.00000000000E+00 0. -1.
         25    1    1    2    0    0 -0.16914687088E+03  0.23214759970E+03  0.30529144802E+03  0.43741403750E+03  0.12500000000E+03 0.  0.
         21    1    1    2  503  502  0.16914687088E+03 -0.23214759970E+03 -0.28635325990E+02  0.28865750271E+03  0.00000000000E+00 0. -1.
<mgrwt>
<rscale>  3 0.31325417E+03</rscale>
<asrwt>0</asrwt>
<pdfrwt beam="1">  1       21 0.77132897E-01 0.31325417E+03</pdfrwt>
<pdfrwt beam="2">  1       21 0.34570417E-01 0.31325417E+03</pdfrwt>
<totfact> 0.11282112E+04</totfact>
</mgrwt>
</event>
<event>
 4    0  0.1073784E-001  0.3462328E+03  0.7546771E-02  0.1064172E+00
         21   -1    0    0  502  501  0.00000000000E+00  0.00000000000E+00  0.40976811155E+03  0.40976811155E+03  0.00000000000E+00 0.  1.
         21   -1    0    0  503  502 -0.00000000000E+00 -0.00000000000E+00 -0.34787503667E+03  0.34787503667E+03  0.00000000000E+00 0.  1.
         25    1    1    2    0    0  0.14575974587E+03 -0.28810804413E+03 -0.14369335052E+03  0.37486654638E+03  0.12500000000E+03 0.  0.
         21    1    1    2  503  501 -0.14575974587E+03  0.28810804413E+03  0.20558642540E+03  0.38277660184E+03  0.00000000000E+00 0.  1.
<mgrwt>
<rscale>  3 0.34623280E+03</rscale>
<asrwt>0</asrwt>
<pdfrwt beam="1">  1       21 0.63041248E-01 0.34623280E+03</pdfrwt>
<pdfrwt beam="2">  1       21 0.53519236E-01 0.34623280E+03</pdfrwt>
<totfact> 0.70731914E+03</totfact>
</mgrwt>
</event>
<event>
 4    0  0.1047179E-001  0.2610463E+03  0.7546771E-02  0.1106516E+00
         21   -1    0    0  503  501  0.00000000000E+00  0.00000000000E+00  0.40745939564E+03  0.40745939564E+03  0.00000000000E+00 0.  1.
         21   -1    0    0  501  502 -0.00000000000E+00 -0.00000000000E+00 -0.81421739292E+03  0.81421739292E+03  0.00000000000E+00 0.  1.
         25    1    1    2    0    0 -0.17871344687E+03 -0.14346317594E+03  0.34678447416E+03  0.43405604530E+03  0.12500000000E+03 0.  0.
         21    1    1    2  503  502  0.17871344687E+03  0.14346317594E+03 -0.75354247144E+03  0.78762074326E+03  0.00000000000E+00 0.  1.
<mgrwt>
<rscale>  3 0.26104632E+03</rscale>
<asrwt>0</asrwt>
<pdfrwt beam="1">  1       21 0.62686061E-01 0.26104632E+03</pdfrwt>
<pdfrwt beam="2">  1       21 0.12526421E+00 0.26104632E+03</pdfrwt>
<totfact> 0.10532709E+03</totfact>
</mgrwt>
</event>
<event>
 4    0  0.1400216E-001  0.3200533E+03  0.7546771E-02  0.1075625E+00
         21   -1    0    0  503  501  0.00000000000E+00  0.00000000000E+00  0.22832760400E+03  0.22832760400E+03  0.00000000000E+00 0. -1.
         21   -1    0    0  501  502 -0.00000000000E+00 -0.00000000000E+00 -0.42931137610E+03  0.42931137610E+03  0.00000000000E+00 0. -1.
         25    1    1    2    0    0  0.29007378769E+03  0.51636305548E+02 -0.16714003871E+03  0.36106772619E+03  0.12500000000E+03 0.  0.
         21    1    1    2  503  502 -0.29007378769E+03 -0.51636305548E+02 -0.33843733392E+02  0.29657125391E+03  0.00000000000E+00 0. -1.
<mgrwt>
<rscale>  3 0.32005329E+03</rscale>
<asrwt>0</asrwt>
<pdfrwt beam="1">  1       21 0.35127324E-01 0.32005329E+03</pdfrwt>
<pdfrwt beam="2">  1       21 0.66047903E-01 0.32005329E+03</pdfrwt>
<totfact> 0.15426757E+04</totfact>
</mgrwt>
</event>
<event>
 4    0  0.1361315E-001  0.2426185E+03  0.7546771E-02  0.1118061E+00
         21   -1    0    0  503  501  0.00000000000E+00  0.00000000000E+00  0.17103433743E+03  0.17103433743E+03  0.00000000000E+00 0. -1.
         21   -1    0    0  501  502 -0.00000000000E+00 -0.00000000000E+00 -0.48119006844E+03  0.48119006844E+03  0.00000000000E+00 0. -1.
         25    1    1    2    0    0  0.10348049662E+03 -0.18036219847E+03  0.39104826565E+02  0.24574971674E+03  0.12500000000E+03 0.  0.
         21    1    1    2  503  502 -0.10348049662E+03  0.18036219847E+03 -0.34926055757E+03  0.40647468912E+03  0.00000000000E+00 0. -1.
<mgrwt>
<rscale>  3 0.24261850E+03</rscale>
<asrwt>0</asrwt>
<pdfrwt beam="1">  1       21 0.26312975E-01 0.24261850E+03</pdfrwt>
<pdfrwt beam="2">  1       21 0.74029241E-01 0.24261850E+03</pdfrwt>
<totfact> 0.21869325E+04</totfact>
</mgrwt>
</event>
<event>
 4    0  0.1622370E-001  0.2732603E+03  0.7546771E-02  0.1099428E+00
         21   -1    0    0  502  501  0.00000000000E+00  0.00000000000E+00  0.24349648723E+03  0.24349648723E+03  0.00000000000E+00 0. -1.
         21   -1    0    0  503  502 -0.00000000000E+00 -0.00000000000E+00 -0.33093753531E+03  0.33093753531E+03  0.00000000000E+00 0. -1.
         25    1    1    2    0    0 -0.17440370498E+03 -0.16920259031E+03  0.73503479130E+02  0.28297337388E+03  0.12500000000E+03 0.  0.
         21    1    1    2  503  501  0.17440370498E+03  0.16920259031E+03 -0.16094452722E+03  0.29146064867E+03  0.00000000000E+00 0. -1.
<mgrwt>
<rscale>  3 0.27326026E+03</rscale>
<asrwt>0</asrwt>
<pdfrwt beam="1">  1       21 0.37460998E-01 0.27326026E+03</pdfrwt>
<pdfrwt beam="2">  1       21 0.50913467E-01 0.27326026E+03</pdfrwt>
<totfact> 0.24221081E+04</totfact>
</mgrwt>
</event>
<event>
 4    0  0.1403361E-001  0.2386615E+03  0.7546771E-02  0.1120688E+00
         21   -1    0    0  503  501  0.00000000000E+00  0.00000000000E+00  0.16479989038E+03  0.16479989038E+03  0.00000000000E+00 0.  1.
         21   -1    0    0  501  502 -0.00000000000E+00 -0.00000000000E+00 -0.38284038856E+03  0.38284038856E+03  0.00000000000E+00 0.  1.
         25    1    1    2    0    0  0.18033249087E+03  0.93885627498E+02  0.14074750405E+02  0.23907617387E+03  0.12500000000E+03 0.  0.
         21    1    1    2  503  502 -0.18033249087E+03 -0.93885627498E+02 -0.23211524859E+03  0.30856410507E+03  0.00000000000E+00 0.  1.
<mgrwt>
<rscale>  3 0.23866151E+03</rscale>
<asrwt>0</asrwt>
<pdfrwt beam="1">  1       21 0.25353830E-01 0.23866151E+03</pdfrwt>
<pdfrwt beam="2">  1       21 0.58898520E-01 0.23866151E+03</pdfrwt>
<totfact> 0.38878008E+04</totfact>
</mgrwt>
</event>
<event>
 4    0  0.1061135E-001  0.3916082E+03  0.7546771E-02  0.1046725E+00
         21   -1    0    0  502  501  0.00000000000E+00  0.00000000000E+00  0.36681685308E+03  0.36681685308E+03  0.00000000000E+00 0.  1.
         21   -1    0    0  503  502 -0.00000000000E+00 -0.00000000000E+00 -0.54468393863E+03  0.54468393863E+03  0.00000000000E+00 0. -1.
         25    1    1    2    0    0 -0.22317300986E+03  0.29652288056E+03  0.14698680784E+03  0.41828475074E+03  0.12500000000E+03 0.  0.
         21    1    1    2  503  501  0.22317300986E+03 -0.29652288056E+03 -0.32485389339E+03  0.49321604097E+03  0.00000000000E+00 0. -1.
<mgrwt>
<rscale>  3 0.39160824E+03</rscale>
<asrwt>0</asrwt>
<pdfrwt beam="1">  1       21 0.56433362E-01 0.39160824E+03</pdfrwt>
<pdfrwt beam="2">  1       21 0.83797529E-01 0.39160824E+03</pdfrwt>
<totfact> 0.32580978E+03</totfact>
</mgrwt>
</event>
<event>
 4    0  0.1068856E-001  0.3269199E+03  0.7546771E-02  0.1072508E+00
         21   -1    0    0  502  501  0.00000000000E+00  0.00000000000E+00  0.15967511124E+04  0.15967511124E+04  0.00000000000E+00 0. -1.
         21   -1    0    0  503  502 -0.00000000000E+00 -0.00000000000E+00 -0.95063048278E+02  0.95063048278E+02  0.00000000000E+00 0. -1.
         25    1    1    2    0    0  0.13480522205E+03  0.27033162597E+03  0.12692025336E+04  0.13106302709E+04  0.12500000000E+03 0.  0.
         21    1    1    2  503  501 -0.13480522205E+03 -0.27033162597E+03  0.23248553060E+03  0.38118388978E+03  0.00000000000E+00 0. -1.
<mgrwt>
<rscale>  3 0.32691992E+03</rscale>
<asrwt>0</asrwt>
<pdfrwt beam="1">  1       21 0.24565400E+00 0.32691992E+03</pdfrwt>
<pdfrwt beam="2">  1       21 0.14625086E-01 0.32691992E+03</pdfrwt>
<totfact> 0.25883353E+03</totfact>
</mgrwt>
</event>
<event>
 4    0  0.1049485E-001  0.2582553E+03  0.7546771E-02  0.1108196E+00
         21   -1    0    0  503  501  0.00000000000E+00  0.00000000000E+00  0.46884481972E+03  0.46884481972E+03  0.00000000000E+00 0.  1.
         21   -1    0    0  501  502 -0.00000000000E+00 -0.00000000000E+00 -0.56611984044E+03  0.56611984044E+03  0.00000000000E+00 0.  1.
         25    1    1    2    0    0  0.22578384008E+03 -0.96146646209E+01  0.40719665564E+03  0.48218761969E+03  0.12500000000E+03 0.  0.
         21    1    1    2  503  502 -0.22578384008E+03  0.96146646209E+01 -0.50447167636E+03  0.55277704047E+03  0.00000000000E+00 0.  1.
<mgrwt>
<rscale>  3 0.25825527E+03</rscale>
<asrwt>0</asrwt>
<pdfrwt beam="1">  1       21 0.72129972E-01 0.25825527E+03</pdfrwt>
<pdfrwt beam="2">  1       21 0.87095360E-01 0.25825527E+03</pdfrwt>
<totfact> 0.18639689E+03</totfact>
</mgrwt>
</event>
<event>
 4    0  0.1400229E-001  0.2432064E+03  0.7546771E-02  0.1117675E+00
         21   -1    0    0  503  501  0.00000000000E+00  0.00000000000E+00  0.55755107531E+03  0.55755107531E+03  0.00000000000E+00 0. -1.
         21   -1    0    0  501  502 -0.00000000000E+00 -0.00000000000E+00 -0.10800607852E+03  0.10800607852E+03  0.00000000000E+00 0. -1.
         25    1    1    2    0    0 -0.11188139991E+03 -0.17608782468E+03  0.36896734070E+03  0.44191205930E+03  0.12500000000E+03 0.  0.
         21    1    1    2  503  502  0.11188139991E+03  0.17608782468E+03  0.80577656082E+02  0.22364509453E+03  0.00000000000E+00 0. -1.
<mgrwt>
<rscale>  3 0.24320643E+03</rscale>
<asrwt>0</asrwt>
<pdfrwt beam="1">  1       21 0.85777087E-01 0.24320643E+03</pdfrwt>
<pdfrwt beam="2">  1       21 0.16616320E-01 0.24320643E+03</pdfrwt>
<totfact> 0.37233248E+04</totfact>
</mgrwt>
</event>
<event>
 4    0  0.1199826E-001  0.4949167E+03  0.7546771E-02  0.1015114E+00
         21   -1    0    0  502  501  0.00000000000E+00  0.00000000000E+00  0.72003073244E+03  0.72003073244E+03  0.00000000000E+00 0.  1.
         21   -1    0    0  503  502 -0.00000000000E+00 -0.00000000000E+00 -0.38869041639E+03  0.38869041639E+03  0.00000000000E+00 0.  1.
         25    1    1    2    0    0 -0.31481529257E+03  0.36084468481E+03  0.38475482567E+03  0.62688023647E+03  0.12500000000E+03 0.  0.
         21    1    1    2  503  501  0.31481529257E+03 -0.36084468481E+03 -0.53414509626E+02  0.48184091237E+03  0.00000000000E+00 0.  1.
<mgrwt>
<rscale>  3 0.49491672E+03</rscale>
<asrwt>0</asrwt>
<pdfrwt beam="1">  1       21 0.11077396E+00 0.49491672E+03</pdfrwt>
<pdfrwt beam="2">  1       21 0.59798526E-01 0.49491672E+03</pdfrwt>
<totfact> 0.14099706E+03</totfact>
</mgrwt>
</event>
<event>
 4    0  0.1484438E-001  0.2953554E+03  0.7546771E-02  0.1087586E+00
         21   -1    0    0  502  501  0.00000000000E+00  0.00000000000E+00  0.22669134509E+03  0.22669134509E+03  0.00000000000E+00 0. -1.
         21   -1    0    0  503  502 -0.00000000000E+00 -0.00000000000E+00 -0.83467772765E+03  0.83467772765E+03  0.00000000000E+00 0.  1.
         25    1    1    2    0    0 -0.22480606047E+03  0.14516214844E+03  0.94124472923E+02  0.30999069432E+03  0.12500000000E+03 0.  0.
         21    1    1    2  503  501  0.22480606047E+03 -0.14516214844E+03 -0.70211085549E+03  0.75137837842E+03  0.00000000000E+00 0.  1.
<mgrwt>
<rscale>  3 0.29535540E+03</rscale>
<asrwt>0</asrwt>
<pdfrwt beam="1">  1       21 0.34875591E-01 0.29535540E+03</pdfrwt>
<pdfrwt beam="2">  1       21 0.12841196E+00 0.29535540E+03</pdfrwt>
<totfact> 0.32851231E+03</totfact>
</mgrwt>
</event>
<event>
 4    0  0.1003929E-001  0.2610284E+03  0.7546771E-02  0.1106527E+00
         21   -1    0    0  502  501  0.00000000000E+00  0.00000000000E+00  0.24342967431E+02  0.24342967431E+02  0.00000000000E+00 0.  1.
         21   -1    0    0  503  502 -0.00000000000E+00 -0.00000000000E+00 -0.24707947296E+04  0.24707947296E+04  0.00000000000E+00 0.  1.
         25    1    1    2    0    0  0.18339423234E+03 -0.13739498775E+03 -0.13472613239E+04  0.13723151613E+04  0.12500000000E+03 0.  0.
         21    1    1    2  503  501 -0.18339423234E+03  0.13739498775E+03 -0.10991904382E+04  0.11228225357E+04  0.00000000000E+00 0.  1.
<mgrwt>
<rscale>  3 0.26102840E+03</rscale>
<asrwt>0</asrwt>
<pdfrwt beam="1">  1       21 0.37450724E-02 0.26102840E+03</pdfrwt>
<pdfrwt beam="2">  1       21 0.38012222E+00 0.26102840E+03</pdfrwt>
<totfact> 0.46713634E+03</totfact>
</mgrwt>
</event>
<event>
 4    0  0.1129254E-001  0.2591870E+03  0.7546771E-02  0.1107633E+00
         21   -1    0    0  503  501  0.00000000000E+00  0.00000000000E+00  0.34468474158E+03  0.34468474158E+03  0.00000000000E+00 0.  1.
         21   -1    0    0  501  502 -0.00000000000E+00 -0.00000000000E+00 -0.58509188500E+03  0.58509188500E+03  0.00000000000E+00 0.  1.
         25    1    1    2    0    0 -0.78952682717E+02  0.21288349925E+03  0.26808761856E+03  0.37289258720E+03  0.12500000000E+03 0.  0.
         21    1    1    2  503  502  0.78952682717E+02 -0.21288349925E+03 -0.50849476197E+03  0.55688403938E+03  0.00000000000E+00 0.  1.
<mgrwt>
<rscale>  3 0.25918702E+03</rscale>
<asrwt>0</asrwt>
<pdfrwt beam="1">  1       21 0.53028422E-01 0.25918702E+03</pdfrwt>
<pdfrwt beam="2">  1       21 0.90014135E-01 0.25918702E+03</pdfrwt>
<totfact> 0.33686544E+03</totfact>
</mgrwt>
</event>
<event>
 4    0  0.1003929E-001  0.2650673E+03  0.7546771E-02  0.1104136E+00
         21   -1    0    0  502  501  0.00000000000E+00  0.00000000000E+00  0.13567727004E+04  0.13567727004E+04  0.00000000000E+00 0. -1.
         21   -1    0    0  503  502 -0.00000000000E+00 -0.00000000000E+00 -0.63306136627E+02  0.63306136627E+02  0.00000000000E+00 0. -1.
         25    1    1    2    0    0 -0.22564715698E+03 -0.60983763655E+02  0.30378838519E+03  0.40317247160E+03  0.12500000000E+03 0.  0.
         21    1    1    2  503  501  0.22564715698E+03  0.60983763655E+02  0.98967817862E+03  0.10169063655E+04  0.00000000000E+00 0. -1.
<mgrwt>
<rscale>  3 0.26506727E+03</rscale>
<asrwt>0</asrwt>
<pdfrwt beam="1">  1       21 0.20873424E+00 0.26506727E+03</pdfrwt>
<pdfrwt beam="2">  1       21 0.97394067E-02 0.26506727E+03</pdfrwt>
<totfact> 0.95146733E+03</totfact>
</mgrwt>
</event>
<event>
 4    0  0.1003929E-001  0.2848865E+03  0.7546771E-02  0.1093050E+00
         21   -1    0    0  503  501  0.00000000000E+00  0.00000000000E+00  0.26756420213E+04  0.26756420213E+04  0.00000000000E+00 0. -1.
         21   -1    0    0  501  502 -0.00000000000E+00 -0.00000000000E+00 -0.93763792190E+02  0.93763792190E+02  0.00000000000E+00 0. -1.
         25    1    1    2    0    0  0.16559163869E+03 -0.19522987239E+03  0.24760663015E+04  0.24924013769E+04  0.12500000000E+03 0.  0.
         21    1    1    2  503  502 -0.16559163869E+03  0.19522987239E+03  0.10581192755E+03  0.27700443658E+03  0.00000000000E+00 0. -1.
<mgrwt>
<rscale>  3 0.28488646E+03</rscale>
<asrwt>0</asrwt>
<pdfrwt beam="1">  1       21 0.41163718E+00 0.28488646E+03</pdfrwt>
<pdfrwt beam="2">  1       21 0.14425201E-01 0.28488646E+03</pdfrwt>
<totfact> 0.27296473E+02</totfact>
</mgrwt>
</event>
<event>
 4    0  0.1331056E-001  0.2493266E+03  0.7546771E-02  0.1113731E+00
         21   -1    0    0  503  501  0.00000000000E+00  0.00000000000E+00  0.87005046654E+02  0.87005046654E+02  0.00000000000E+00 0.  1.
         21   -1    0    0  501  502 -0.00000000000E+00 -0.00000000000E+00 -0.62300917583E+03  0.62300917583E+03  0.00000000000E+00 0.  1.
         25    1    1    2    0    0 -0.59636517126E+02 -0.20732155578E+03 -0.30504554267E+03  0.39397528446E+03  0.12500000000E+03 0.  0.
         21    1    1    2  503  502  0.59636517126E+02  0.20732155578E+03 -0.23095858650E+03  0.31603893802E+03  0.00000000000E+00 0.  1.
<mgrwt>
<rscale>  3 0.24932658E+03</rscale>
<asrwt>0</asrwt>
<pdfrwt beam="1">  1       21 0.13385391E-01 0.24932658E+03</pdfrwt>
<pdfrwt beam="2">  1       21 0.95847569E-01 0.24932658E+03</pdfrwt>
<totfact> 0.42571784E+04</totfact>
</mgrwt>
</event>
<event>
 4    0  0.1039927E-001  0.3247722E+03  0.7546771E-02  0.1073474E+00
         21   -1    0    0  502  501  0.00000000000E+00  0.00000000000E+00  0.99207373761E+02  0.99207373761E+02  0.00000000000E+00 0. -1.
         21   -1    0    0  503  502 -0.00000000000E+00 -0.00000000000E+00 -0.18311940299E+04  0.18311940299E+04  0.00000000000E+00 0.  1.
         25    1    1    2    0    0 -0.28117002186E+03 -0.10390087911E+03 -0.22794867211E+03  0.39678403571E+03  0.12500000000E+03 0.  0.
         21    1    1    2  503  501  0.28117002186E+03  0.10390087911E+03 -0.15040379840E+04  0.15336173679E+04  0.00000000000E+00 0.  1.
<mgrwt>
<rscale>  3 0.32477219E+03</rscale>
<asrwt>0</asrwt>
<pdfrwt beam="1">  1       21 0.15262672E-01 0.32477219E+03</pdfrwt>
<pdfrwt beam="2">  1       21 0.28172218E+00 0.32477219E+03</pdfrwt>
<totfact> 0.14573157E+03</totfact>
</mgrwt>
</event>
<event>
 4    0  0.1003929E-001  0.2524230E+03  0.7546771E-02  0.1111783E+00
         21   -1    0    0  502  501  0.00000000000E+00  0.00000000000E+00  0.15535636574E+03  0.15535636574E+03  0.00000000000E+00 0. -1.
         21   -1    0    0  503  502 -0.00000000000E+00 -0.00000000000E+00 -0.36477284474E+03  0.36477284474E+03  0.00000000000E+00 0.  1.
         25    1    1    2    0    0 -0.19464159482E+03  0.10102981512E+03 -0.76793941282E+02  0.26384594633E+03  0.12500000000E+03 0.  0.
         21    1    1    2  503  501  0.19464159482E+03 -0.10102981512E+03 -0.13262253772E+03  0.25628326416E+03  0.00000000000E+00 0.  1.
<mgrwt>
<rscale>  3 0.25242301E+03</rscale>
<asrwt>0</asrwt>
<pdfrwt beam="1">  1       21 0.23900980E-01 0.25242301E+03</pdfrwt>
<pdfrwt beam="2">  1       21 0.56118899E-01 0.25242301E+03</pdfrwt>
<totfact> 0.48014959E+04</totfact>
</mgrwt>
</event>
<event>
 4    0  0.1404924E-001  0.3351215E+03  0.7546771E-02  0.1068893E+00
         21   -1    0    0  502  501  0.00000000000E+00  0.00000000000E+00  0.13560309546E+03  0.13560309546E+03  0.00000000000E+00 0.  1.
         21   -1    0    0  503  502 -0.00000000000E+00 -0.00000000000E+00 -0.77259601383E+03  0.77259601383E+03  0.00000000000E+00 0.  1.
         25    1    1    2    0    0  0.30939212071E+03 -0.30950213677E+02 -0.35906032014E+03  0.49115243416E+03  0.12500000000E+03 0.  0.
         21    1    1    2  503  501 -0.30939212071E+03  0.30950213677E+02 -0.27793259823E+03  0.41704667513E+03  0.00000000000E+00 0.  1.
<mgrwt>
<rscale>  3 0.33512147E+03</rscale>
<asrwt>0</asrwt>
<pdfrwt beam="1">  1       21 0.20862015E-01 0.33512147E+03</pdfrwt>
<pdfrwt beam="2">  1       21 0.11886092E+00 0.33512147E+03</pdfrwt>
<totfact> 0.10669852E+04</totfact>
</mgrwt>
</event>
<event>
 4    0  0.1504966E-001  0.3542952E+03  0.7546771E-02  0.1060866E+00
         21   -1    0    0  502  501  0.00000000000E+00  0.00000000000E+00  0.14905862394E+03  0.14905862394E+03  0.00000000000E+00 0. -1.
         21   -1    0    0  503  502 -0.00000000000E+00 -0.00000000000E+00 -0.79125072572E+03  0.79125072572E+03  0.00000000000E+00 0. -1.
         25    1    1    2    0    0 -0.77549033747E+02  0.32231382514E+03 -0.35769004534E+03  0.50345528406E+03  0.12500000000E+03 0.  0.
         21    1    1    2  503  501  0.77549033747E+02 -0.32231382514E+03 -0.28450205644E+03  0.43685406560E+03  0.00000000000E+00 0. -1.
<mgrwt>
<rscale>  3 0.35429515E+03</rscale>
<asrwt>0</asrwt>
<pdfrwt beam="1">  1       21 0.22932096E-01 0.35429515E+03</pdfrwt>
<pdfrwt beam="2">  1       21 0.12173088E+00 0.35429515E+03</pdfrwt>
<totfact> 0.83194648E+03</totfact>
</mgrwt>
</event>
<event>
 4    0  0.1076401E-001  0.2874366E+03  0.7546771E-02  0.1091695E+00
         21   -1    0    0  503  501  0.00000000000E+00  0.00000000000E+00  0.16534780201E+04  0.16534780201E+04  0.00000000000E+00 0. -1.
         21   -1    0    0  501  502 -0.00000000000E+00 -0.00000000000E+00 -0.73855678289E+02  0.73855678289E+02  0.00000000000E+00 0. -1.
         25    1    1    2    0    0  0.25221549443E+03 -0.58156120508E+02  0.13533584697E+04  0.13835457844E+04  0.12500000000E+03 0.  0.
         21    1    1    2  503  502 -0.25221549443E+03  0.58156120508E+02  0.22626387208E+03  0.34378791397E+03  0.00000000000E+00 0. -1.
<mgrwt>
<rscale>  3 0.28743658E+03</rscale>
<asrwt>0</asrwt>
<pdfrwt beam="1">  1       21 0.25438121E+00 0.28743658E+03</pdfrwt>
<pdfrwt beam="2">  1       21 0.11362413E-01 0.28743658E+03</pdfrwt>
<totfact> 0.37269022E+03</totfact>
</mgrwt>
</event>
<event>
 4    0  0.1509079E-001  0.2550448E+03  0.7546771E-02  0.1110158E+00
         21   -1    0    0  502  501  0.00000000000E+00  0.00000000000E+00  0.34491738142E+03  0.34491738142E+03  0.00000000000E+00 0.  1.
         21   -1    0    0  503  502 -0.00000000000E+00 -0.00000000000E+00 -0.17184571211E+03  0.17184571211E+03  0.00000000000E+00 0.  1.
         25    1    1    2    0    0 -0.22122913016E+03 -0.21920588944E+02  0.14307752006E+03  0.29243634692E+03  0.12500000000E+03 0.  0.
         21    1    1    2  503  501  0.22122913016E+03  0.21920588944E+02  0.29994149245E+02  0.22432674660E+03  0.00000000000E+00 0.  1.
<mgrwt>
<rscale>  3 0.25504478E+03</rscale>
<asrwt>0</asrwt>
<pdfrwt beam="1">  1       21 0.53064213E-01 0.25504478E+03</pdfrwt>
<pdfrwt beam="2">  1       21 0.26437802E-01 0.25504478E+03</pdfrwt>
<totfact> 0.44504883E+04</totfact>
</mgrwt>
</event>
<event>
 4    0  0.1256015E-001  0.3799813E+03  0.7546771E-02  0.1050941E+00
         21   -1    0    0  503  501  0.00000000000E+00  0.00000000000E+00  0.96254115622E+03  0.96254115622E+03  0.00000000000E+00 0.  1.
         21   -1    0    0  501  502 -0.00000000000E+00 -0.00000000000E+00 -0.15030479508E+03  0.15030479508E+03  0.00000000000E+00 0.  1.
         25    1    1    2    0    0 -0.24505021578E+03  0.26212814032E+03  0.28455945442E+03  0.47472081616E+03  0.12500000000E+03 0.  0.
         21    1    1    2  503  502  0.24505021578E+03 -0.26212814032E+03  0.52767690673E+03  0.63812513514E+03  0.00000000000E+00 0.  1.
<mgrwt>
<rscale>  3 0.37998128E+03</rscale>
<asrwt>0</asrwt>
<pdfrwt beam="1">  1       21 0.14808325E+00 0.37998128E+03</pdfrwt>
<pdfrwt beam="2">  1       21 0.23123815E-01 0.37998128E+03</pdfrwt>
<totfact> 0.48594393E+03</totfact>
</mgrwt>
</event>
<event>
 4    0  0.1105740E-001  0.2508292E+03  0.7546771E-02  0.1112782E+00
         21   -1    0    0  502  501  0.00000000000E+00  0.00000000000E+00  0.77537253467E+03  0.77537253467E+03  0.00000000000E+00 0.  1.
         21   -1    0    0  503  502 -0.00000000000E+00 -0.00000000000E+00 -0.33320338603E+03  0.33320338603E+03  0.00000000000E+00 0.  1.
         25    1    1    2    0    0 -0.19452033117E+03  0.97221952838E+02  0.71613628780E+03  0.75879275831E+03  0.12500000000E+03 0.  0.
         21    1    1    2  503  501  0.19452033117E+03 -0.97221952838E+02 -0.27396713916E+03  0.34978316239E+03  0.00000000000E+00 0.  1.
<mgrwt>
<rscale>  3 0.25082916E+03</rscale>
<asrwt>0</asrwt>
<pdfrwt beam="1">  1       21 0.11928808E+00 0.25082916E+03</pdfrwt>
<pdfrwt beam="2">  1       21 0.51262059E-01 0.25082916E+03</pdfrwt>
<totfact> 0.18466728E+03</totfact>
</mgrwt>
</event>
<event>
 4    0  0.1367075E-001  0.2395236E+03  0.7546771E-02  0.1120111E+00
         21   -1    0    0  503  501  0.00000000000E+00  0.00000000000E+00  0.81715741101E+02  0.81715741101E+02  0.00000000000E+00 0. -1.
         21   -1    0    0  501  502 -0.00000000000E+00 -0.00000000000E+00 -0.14066983636E+04  0.14066983636E+04  0.00000000000E+00 0.  1.
         25    1    1    2    0    0 -0.18960893390E+03 -0.76125073600E+02 -0.12313212380E+03  0.26931968840E+03  0.12500000000E+03 0.  0.
         21    1    1    2  503  502  0.18960893390E+03  0.76125073600E+02 -0.12018504987E+04  0.12190944163E+04  0.00000000000E+00 0.  1.
<mgrwt>
<rscale>  3 0.23952364E+03</rscale>
<asrwt>0</asrwt>
<pdfrwt beam="1">  1       21 0.12571653E-01 0.23952364E+03</pdfrwt>
<pdfrwt beam="2">  1       21 0.21641512E+00 0.23952364E+03</pdfrwt>
<totfact> 0.54860188E+03</totfact>
</mgrwt>
</event>
<event>
 4    0  0.1504224E-001  0.2711597E+03  0.7546771E-02  0.1100618E+00
         21   -1    0    0  502  501  0.00000000000E+00  0.00000000000E+00  0.68657006493E+02  0.68657006493E+02  0.00000000000E+00 0.  1.
         21   -1    0    0  503  502 -0.00000000000E+00 -0.00000000000E+00 -0.96409364984E+03  0.96409364984E+03  0.00000000000E+00 0.  1.
         25    1    1    2    0    0 -0.24006430037E+03 -0.16484041307E+02 -0.42076483118E+03  0.50057030983E+03  0.12500000000E+03 0.  0.
         21    1    1    2  503  501  0.24006430037E+03  0.16484041307E+02 -0.47467181217E+03  0.53218034650E+03  0.00000000000E+00 0.  1.
<mgrwt>
<rscale>  3 0.27115972E+03</rscale>
<asrwt>0</asrwt>
<pdfrwt beam="1">  1       21 0.10562617E-01 0.27115972E+03</pdfrwt>
<pdfrwt beam="2">  1       21 0.14832209E+00 0.27115972E+03</pdfrwt>
<totfact> 0.21674078E+04</totfact>
</mgrwt>
</event>
<event>
 4    0  0.1024412E-001  0.2431046E+03  0.7546771E-02  0.1117742E+00
         21   -1    0    0  502  501  0.00000000000E+00  0.00000000000E+00  0.29185911389E+02  0.29185911389E+02  0.00000000000E+00 0.  1.
         21   -1    0    0  503  502 -0.00000000000E+00 -0.00000000000E+00 -0.17482709224E+04  0.17482709224E+04  0.00000000000E+00 0.  1.
         25    1    1    2    0    0 -0.65359846884E+02  0.19799735625E+03 -0.90155501280E+03  0.93375655488E+03  0.12500000000E+03 0.  0.
         21    1    1    2  503  501  0.65359846884E+02 -0.19799735625E+03 -0.81752999825E+03  0.84370027895E+03  0.00000000000E+00 0.  1.
<mgrwt>
<rscale>  3 0.24310463E+03</rscale>
<asrwt>0</asrwt>
<pdfrwt beam="1">  1       21 0.44901401E-02 0.24310463E+03</pdfrwt>
<pdfrwt beam="2">  1       21 0.26896477E+00 0.24310463E+03</pdfrwt>
<totfact> 0.15924814E+04</totfact>
</mgrwt>
</event>
<event>
 4    0  0.1021586E-001  0.2536379E+03  0.7546771E-02  0.1111027E+00
         21   -1    0    0  502  501  0.00000000000E+00  0.00000000000E+00  0.10916232521E+03  0.10916232521E+03  0.00000000000E+00 0.  1.
         21   -1    0    0  503  502 -0.00000000000E+00 -0.00000000000E+00 -0.58245844502E+03  0.58245844502E+03  0.00000000000E+00 0.  1.
         25    1    1    2    0    0  0.60869844466E+02 -0.21213688080E+03 -0.36838310651E+03  0.44725642234E+03  0.12500000000E+03 0.  0.
         21    1    1    2  503  501 -0.60869844466E+02  0.21213688080E+03 -0.10491301331E+03  0.24436434790E+03  0.00000000000E+00 0.  1.
<mgrwt>
<rscale>  3 0.25363792E+03</rscale>
<asrwt>0</asrwt>
<pdfrwt beam="1">  1       21 0.16794204E-01 0.25363792E+03</pdfrwt>
<pdfrwt beam="2">  1       21 0.89608991E-01 0.25363792E+03</pdfrwt>
<totfact> 0.32838056E+04</totfact>
</mgrwt>
</event>
<event>
 4    0  0.1199774E-001  0.3494870E+03  0.7546771E-02  0.1062826E+00
         21   -1    0    0  503  501  0.00000000000E+00  0.00000000000E+00  0.57684269164E+03  0.57684269164E+03  0.00000000000E+00 0.  1.
         21   -1    0    0  501  502 -0.00000000000E+00 -0.00000000000E+00 -0.34654544208E+03  0.34654544208E+03  0.00000000000E+00 0.  1.
         25    1    1    2    0    0  0.42799241720E+02 -0.32354961949E+03  0.41960880078E+03  0.54608852493E+03  0.12500000000E+03 0.  0.
         21    1    1    2  503  502 -0.42799241720E+02  0.32354961949E+03 -0.18931155123E+03  0.37729960879E+03  0.00000000000E+00 0.  1.
<mgrwt>
<rscale>  3 0.34948695E+03</rscale>
<asrwt>0</asrwt>
<pdfrwt beam="1">  1       21 0.88745030E-01 0.34948695E+03</pdfrwt>
<pdfrwt beam="2">  1       21 0.53314683E-01 0.34948695E+03</pdfrwt>
<totfact> 0.32789887E+03</totfact>
</mgrwt>
</event>
<event>
 4    0  0.1583727E-001  0.2847660E+03  0.7546771E-02  0.1093114E+00
         21   -1    0    0  502  501  0.00000000000E+00  0.00000000000E+00  0.18369582556E+03  0.18369582556E+03  0.00000000000E+00 0.  1.
         21   -1    0    0  503  502 -0.00000000000E+00 -0.00000000000E+00 -0.40038923740E+03  0.40038923740E+03  0.00000000000E+00 0.  1.
         25    1    1    2    0    0  0.12483942815E+03 -0.22334232346E+03 -0.90554739934E+02  0.29881739775E+03  0.12500000000E+03 0.  0.
         21    1    1    2  503  501 -0.12483942815E+03  0.22334232346E+03 -0.12613867190E+03  0.28526766522E+03  0.00000000000E+00 0.  1.
<mgrwt>
<rscale>  3 0.28476600E+03</rscale>
<asrwt>0</asrwt>
<pdfrwt beam="1">  1       21 0.28260896E-01 0.28476600E+03</pdfrwt>
<pdfrwt beam="2">  1       21 0.61598345E-01 0.28476600E+03</pdfrwt>
<totfact> 0.28047652E+04</totfact>
</mgrwt>
</event>
<event>
 4    0  0.1424875E-001  0.2825959E+03  0.7546771E-02  0.1094280E+00
         21   -1    0    0  503  501  0.00000000000E+00  0.00000000000E+00  0.30422256976E+03  0.30422256976E+03  0.00000000000E+00 0.  1.
         21   -1    0    0  501  502 -0.00000000000E+00 -0.00000000000E+00 -0.23620933599E+03  0.23620933599E+03  0.00000000000E+00 0.  1.
         25    1    1    2    0    0 -0.22103756615E+03 -0.12400738560E+03  0.40856168655E+02  0.28553399771E+03  0.12500000000E+03 0.  0.
         21    1    1    2  503  502  0.22103756615E+03  0.12400738560E+03  0.27157065117E+02  0.25489790803E+03  0.00000000000E+00 0.  1.
<mgrwt>
<rscale>  3 0.28259589E+03</rscale>
<asrwt>0</asrwt>
<pdfrwt beam="1">  1       21 0.46803472E-01 0.28259589E+03</pdfrwt>
<pdfrwt beam="2">  1       21 0.36339898E-01 0.28259589E+03</pdfrwt>
<totfact> 0.30604516E+04</totfact>
</mgrwt>
</event>
<event>
 4    0  0.1812628E-001  0.2796910E+03  0.7546771E-02  0.1095858E+00
         21   -1    0    0  502  501  0.00000000000E+00  0.00000000000E+00  0.10762950734E+04  0.10762950734E+04  0.00000000000E+00 0.  1.
         21   -1    0    0  503  502 -0.00000000000E+00 -0.00000000000E+00 -0.28132457930E+03  0.28132457930E+03  0.00000000000E+00 0. -1.
         25    1    1    2    0    0 -0.37033618027E+02 -0.24744807649E+03  0.99734228702E+03  0.10358178782E+04  0.12500000000E+03 0.  0.
         21    1    1    2  503  501  0.37033618027E+02  0.24744807649E+03 -0.20237179297E+03  0.32180177441E+03  0.00000000000E+00 0. -1.
<mgrwt>
<rscale>  3 0.27969097E+03</rscale>
<asrwt>0</asrwt>
<pdfrwt beam="1">  1       21 0.16558386E+00 0.27969097E+03</pdfrwt>
<pdfrwt beam="2">  1       21 0.43280705E-01 0.27969097E+03</pdfrwt>
<totfact> 0.10897566E+03</totfact>
</mgrwt>
</event>
<event>
 4    0  0.1277513E-001  0.3009741E+03  0.7546771E-02  0.1084755E+00
         21   -1    0    0  503  501  0.00000000000E+00  0.00000000000E+00  0.10056845704E+04  0.10056845704E+04  0.00000000000E+00 0. -1.
         21   -1    0    0  501  502 -0.00000000000E+00 -0.00000000000E+00 -0.85129622731E+02  0.85129622731E+02  0.00000000000E+00 0. -1.
         25    1    1    2    0    0  0.73171088580E+02 -0.26383020203E+03  0.37886102451E+03  0.48386057868E+03  0.12500000000E+03 0.  0.
         21    1    1    2  503  502 -0.73171088580E+02  0.26383020203E+03  0.54169392315E+03  0.60695361444E+03  0.00000000000E+00 0. -1.
<mgrwt>
<rscale>  3 0.30097406E+03</rscale>
<asrwt>0</asrwt>
<pdfrwt beam="1">  1       21 0.15472069E+00 0.30097406E+03</pdfrwt>
<pdfrwt beam="2">  1       21 0.13096866E-01 0.30097406E+03</pdfrwt>
<totfact> 0.12947317E+04</totfact>
</mgrwt>
</event>
<event>
 4    0  0.1003929E-001  0.2481455E+03  0.7546771E-02  0.1114482E+00
         21   -1    0    0  502  501  0.00000000000E+00  0.00000000000E+00  0.38959014351E+03  0.38959014351E+03  0.00000000000E+00 0. -1.
         21   -1    0    0  503  502 -0.00000000000E+00 -0.00000000000E+00 -0.13842759191E+03  0.13842759191E+03  0.00000000000E+00 0.  1.
         25    1    1    2    0    0 -0.20599820811E+03  0.59295082882E+02  0.11058005997E+03  0.27166913380E+03  0.12500000000E+03 0.  0.
         21    1    1    2  503  501  0.20599820811E+03 -0.59295082882E+02  0.14058249163E+03  0.25634860162E+03  0.00000000000E+00 0.  1.
<mgrwt>
<rscale>  3 0.24814546E+03</rscale>
<asrwt>0</asrwt>
<pdfrwt beam="1">  1       21 0.59936945E-01 0.24814546E+03</pdfrwt>
<pdfrwt beam="2">  1       21 0.21296553E-01 0.24814546E+03</pdfrwt>
<totfact> 0.51993229E+04</totfact>
</mgrwt>
</event>
<event>
 4    0  0.1003929E-001  0.4069773E+03  0.7546771E-02  0.1041390E+00
         21   -1    0    0  502  501  0.00000000000E+00  0.00000000000E+00  0.19363672727E+04  0.19363672727E+04  0.00000000000E+00 0.  1.
         21   -1    0    0  503  502 -0.00000000000E+00 -0.00000000000E+00 -0.99868326899E+02  0.99868326899E+02  0.00000000000E+00 0.  1.
         25    1    1    2    0    0 -0.26032337094E+03 -0.28677041557E+03  0.13738921618E+04  0.14329027186E+04  0.12500000000E+03 0.  0.
         21    1    1    2  503  501  0.26032337094E+03  0.28677041557E+03  0.46260678403E+03  0.60333288103E+03  0.00000000000E+00 0.  1.
<mgrwt>
<rscale>  3 0.40697731E+03</rscale>
<asrwt>0</asrwt>
<pdfrwt beam="1">  1       21 0.29790263E+00 0.40697731E+03</pdfrwt>
<pdfrwt beam="2">  1       21 0.15364359E-01 0.40697731E+03</pdfrwt>
<totfact> 0.10921560E+03</totfact>
</mgrwt>
</event>
<event>
 4    0  0.1003929E-001  0.2383791E+03  0.7546771E-02  0.1120877E+00
         21   -1    0    0  503  501  0.00000000000E+00  0.00000000000E+00  0.14312561403E+03  0.14312561403E+03  0.00000000000E+00 0.  1.
         21   -1    0    0  501  502 -0.00000000000E+00 -0.00000000000E+00 -0.34691846755E+03  0.34691846755E+03  0.00000000000E+00 0. -1.
         25    1    1    2    0    0 -0.20178154452E+03  0.21995191637E+02 -0.14377146565E+03  0.27837890455E+03  0.12500000000E+03 0.  0.
         21    1    1    2  503  502  0.20178154452E+03 -0.21995191637E+02 -0.60021387873E+02  0.21166517703E+03  0.00000000000E+00 0. -1.
<mgrwt>
<rscale>  3 0.23837907E+03</rscale>
<asrwt>0</asrwt>
<pdfrwt beam="1">  1       21 0.22019325E-01 0.23837907E+03</pdfrwt>
<pdfrwt beam="2">  1       21 0.53372072E-01 0.23837907E+03</pdfrwt>
<totfact> 0.62793639E+04</totfact>
</mgrwt>
</event>
<event>
 4    0  0.1036568E-001  0.2390012E+03  0.7546771E-02  0.1120460E+00
         21   -1    0    0  503  501  0.00000000000E+00  0.00000000000E+00  0.59993787495E+03  0.59993787495E+03  0.00000000000E+00 0. -1.
         21   -1    0    0  501  502 -0.00000000000E+00 -0.00000000000E+00 -0.21430726212E+03  0.21430726212E+03  0.00000000000E+00 0. -1.
         25    1    1    2    0    0  0.20301688468E+03  0.16754635012E+02  0.51857098157E+03  0.57099687932E+03  0.12500000000E+03 0.  0.
         21    1    1    2  503  502 -0.20301688468E+03 -0.16754635012E+02 -0.13294036875E+03  0.24324825776E+03  0.00000000000E+00 0. -1.
<mgrwt>
<rscale>  3 0.23900120E+03</rscale>
<asrwt>0</asrwt>
<pdfrwt beam="1">  1       21 0.92298134E-01 0.23900120E+03</pdfrwt>
<pdfrwt beam="2">  1       21 0.32970348E-01 0.23900120E+03</pdfrwt>
<totfact> 0.85079946E+03</totfact>
</mgrwt>
</event>
<event>
 4    0  0.1003929E-001  0.2500742E+03  0.7546771E-02  0.1113258E+00
         21   -1    0    0  502  501  0.00000000000E+00  0.00000000000E+00  0.57196421877E+02  0.57196421877E+02  0.00000000000E+00 0.  1.
         21   -1    0    0  503  502 -0.00000000000E+00 -0.00000000000E+00 -0.99499262411E+03  0.99499262411E+03  0.00000000000E+00 0. -1.
         25    1    1    2    0    0  0.18677625498E+03  0.10966649956E+03 -0.39184702654E+03  0.46484535360E+03  0.12500000000E+03 0.  0.
         21    1    1    2  503  501 -0.18677625498E+03 -0.10966649956E+03 -0.54594917569E+03  0.58734369239E+03  0.00000000000E+00 0. -1.
<mgrwt>
<rscale>  3 0.25007421E+03</rscale>
<asrwt>0</asrwt>
<pdfrwt beam="1">  1       21 0.87994495E-02 0.25007421E+03</pdfrwt>
<pdfrwt beam="2">  1       21 0.15307579E+00 0.25007421E+03</pdfrwt>
<totfact> 0.27844569E+04</totfact>
</mgrwt>
</event>
<event>
 4    0  0.1003929E-001  0.2906465E+03  0.7546771E-02  0.1090012E+00
         21   -1    0    0  503  501  0.00000000000E+00  0.00000000000E+00  0.26579026288E+02  0.26579026288E+02  0.00000000000E+00 0. -1.
         21   -1    0    0  501  502 -0.00000000000E+00 -0.00000000000E+00 -0.29151688608E+04  0.29151688608E+04  0.00000000000E+00 0. -1.
         25    1    1    2    0    0 -0.19683136608E+03 -0.17351600687E+03 -0.16855715928E+04  0.17104464288E+04  0.12500000000E+03 0.  0.
         21    1    1    2  503  502  0.19683136608E+03  0.17351600687E+03 -0.12030182417E+04  0.12313014583E+04  0.00000000000E+00 0. -1.
<mgrwt>
<rscale>  3 0.29064651E+03</rscale>
<asrwt>0</asrwt>
<pdfrwt beam="1">  1       21 0.40890811E-02 0.29064651E+03</pdfrwt>
<pdfrwt beam="2">  1       21 0.44848750E+00 0.29064651E+03</pdfrwt>
<totfact> 0.14240830E+03</totfact>
</mgrwt>
</event>
<event>
 4    0  0.1443748E-001  0.2966564E+03  0.7546771E-02  0.1086924E+00
         21   -1    0    0  502  501  0.00000000000E+00  0.00000000000E+00  0.70676235655E+02  0.70676235655E+02  0.00000000000E+00 0. -1.
         21   -1    0    0  503  502 -0.00000000000E+00 -0.00000000000E+00 -0.12094376302E+04  0.12094376302E+04  0.00000000000E+00 0. -1.
         25    1    1    2    0    0 -0.64010495060E+02 -0.26130954740E+03 -0.43356845388E+03  0.52534429400E+03  0.12500000000E+03 0.  0.
         21    1    1    2  503  501  0.64010495060E+02  0.26130954740E+03 -0.70519294069E+03  0.75476957188E+03  0.00000000000E+00 0. -1.
<mgrwt>
<rscale>  3 0.29665641E+03</rscale>
<asrwt>0</asrwt>
<pdfrwt beam="1">  1       21 0.10873267E-01 0.29665641E+03</pdfrwt>
<pdfrwt beam="2">  1       21 0.18606733E+00 0.29665641E+03</pdfrwt>
<totfact> 0.10818339E+04</totfact>
</mgrwt>
</event>
<event>
 4    0  0.1003929E-001  0.2410984E+03  0.7546771E-02  0.1119063E+00
         21   -1    0    0  503  501  0.00000000000E+00  0.00000000000E+00  0.45782439896E+02  0.45782439896E+02  0.00000000000E+00 0.  1.
         21   -1    0    0  501  502 -0.00000000000E+00 -0.00000000000E+00 -0.29552960823E+04  0.29552960823E+04  0.00000000000E+00 0.  1.
         25    1    1    2    0    0 -0.14222788286E+03 -0.14924707614E+03 -0.30673285340E+03  0.39014549049E+03  0.12500000000E+03 0.  0.
         21    1    1    2  503  502  0.14222788286E+03  0.14924707614E+03 -0.26027807890E+04  0.26109330317E+04  0.00000000000E+00 0.  1.
<mgrwt>
<rscale>  3 0.24109845E+03</rscale>
<asrwt>0</asrwt>
<pdfrwt beam="1">  1       21 0.70434507E-02 0.24109845E+03</pdfrwt>
<pdfrwt beam="2">  1       21 0.45466104E+00 0.24109845E+03</pdfrwt>
<totfact> 0.53947389E+02</totfact>
</mgrwt>
</event>
<event>
 4    0  0.1389457E-001  0.2418570E+03  0.7546771E-02  0.1118562E+00
         21   -1    0    0  502  501  0.00000000000E+00  0.00000000000E+00  0.61340307383E+02  0.61340307383E+02  0.00000000000E+00 0. -1.
         21   -1    0    0  503  502 -0.00000000000E+00 -0.00000000000E+00 -0.86957953787E+03  0.86957953787E+03  0.00000000000E+00 0. -1.
         25    1    1    2    0    0 -0.16214514244E+03  0.12875861933E+03 -0.32436294247E+03  0.40460616371E+03  0.12500000000E+03 0.  0.
         21    1    1    2  503  501  0.16214514244E+03 -0.12875861933E+03 -0.48387628802E+03  0.52631368154E+03  0.00000000000E+00 0. -1.
<mgrwt>
<rscale>  3 0.24185704E+03</rscale>
<asrwt>0</asrwt>
<pdfrwt beam="1">  1       21 0.94369703E-02 0.24185704E+03</pdfrwt>
<pdfrwt beam="2">  1       21 0.13378147E+00 0.24185704E+03</pdfrwt>
<totfact> 0.35174999E+04</totfact>
</mgrwt>
</event>
<event>
 4    0  0.1557587E-001  0.2919393E+03  0.7546771E-02  0.1089341E+00
         21   -1    0    0  503  501  0.00000000000E+00  0.00000000000E+00  0.14394490259E+03  0.14394490259E+03  0.00000000000E+00 0. -1.
         21   -1    0    0  501  502 -0.00000000000E+00 -0.00000000000E+00 -0.55388112969E+03  0.55388112969E+03  0.00000000000E+00 0. -1.
         25    1    1    2    0    0  0.26112220709E+03  0.37666025512E+02 -0.15317987840E+03  0.32968562550E+03  0.12500000000E+03 0.  0.
         21    1    1    2  503  502 -0.26112220709E+03 -0.37666025512E+02 -0.25675634869E+03  0.36814040678E+03  0.00000000000E+00 0. -1.
<mgrwt>
<rscale>  3 0.29193927E+03</rscale>
<asrwt>0</asrwt>
<pdfrwt beam="1">  1       21 0.22145370E-01 0.29193927E+03</pdfrwt>
<pdfrwt beam="2">  1       21 0.85212481E-01 0.29193927E+03</pdfrwt>
<totfact> 0.21609389E+04</totfact>
</mgrwt>
</event>
<event>
 4    0  0.1009513E-001  0.4204173E+03  0.7546771E-02  0.1036931E+00
         21   -1    0    0  502  501  0.00000000000E+00  0.00000000000E+00  0.27137032596E+03  0.27137032596E+03  0.00000000000E+00 0.  1.
         21   -1    0    0  503  502 -0.00000000000E+00 -0.00000000000E+00 -0.94246108838E+03  0.94246108838E+03  0.00000000000E+00 0.  1.
         25    1    1    2    0    0  0.58003879724E+01  0.40136273228E+03  0.13057368159E+02  0.42061999742E+03  0.12500000000E+03 0.  0.
         21    1    1    2  503  501 -0.58003879724E+01 -0.40136273228E+03 -0.68414813058E+03  0.79321141692E+03  0.00000000000E+00 0.  1.
<mgrwt>
<rscale>  3 0.42041728E+03</rscale>
<asrwt>0</asrwt>
<pdfrwt beam="1">  1       21 0.41749281E-01 0.42041728E+03</pdfrwt>
<pdfrwt beam="2">  1       21 0.14499401E+00 0.42041728E+03</pdfrwt>
<totfact> 0.15577425E+03</totfact>
</mgrwt>
</event>
<event>
 4    0  0.1406691E-001  0.2545782E+03  0.7546771E-02  0.1110445E+00
         21   -1    0    0  503  501  0.00000000000E+00  0.00000000000E+00  0.11757941048E+04  0.11757941048E+04  0.00000000000E+00 0. -1.
         21   -1    0    0  501  502 -0.00000000000E+00 -0.00000000000E+00 -0.49170527211E+02  0.49170527211E+02  0.00000000000E+00 0. -1.
         25    1    1    2    0    0  0.83556523378E+02 -0.20543455642E+03  0.68511481319E+03  0.73088463989E+03  0.12500000000E+03 0.  0.
         21    1    1    2  503  502 -0.83556523378E+02  0.20543455642E+03  0.44150876437E+03  0.49407999210E+03  0.00000000000E+00 0. -1.
<mgrwt>
<rscale>  3 0.25457818E+03</rscale>
<asrwt>0</asrwt>
<pdfrwt beam="1">  1       21 0.18089138E+00 0.25457818E+03</pdfrwt>
<pdfrwt beam="2">  1       21 0.75646974E-02 0.25457818E+03</pdfrwt>
<totfact> 0.22817041E+04</totfact>
</mgrwt>
</event>
<event>
 4    0  0.1167838E-001  0.2418639E+03  0.7546771E-02  0.1118557E+00
         21   -1    0    0  503  501  0.00000000000E+00  0.00000000000E+00  0.59212439219E+03  0.59212439219E+03  0.00000000000E+00 0. -1.
         21   -1    0    0  501  502 -0.00000000000E+00 -0.00000000000E+00 -0.97343459736E+02  0.97343459736E+02  0.00000000000E+00 0. -1.
         25    1    1    2    0    0  0.16746361668E+03  0.12177470561E+03  0.14215945370E+03  0.28054848443E+03  0.12500000000E+03 0.  0.
         21    1    1    2  503  502 -0.16746361668E+03 -0.12177470561E+03  0.35262147876E+03  0.40891936750E+03  0.00000000000E+00 0. -1.
<mgrwt>
<rscale>  3 0.24186389E+03</rscale>
<asrwt>0</asrwt>
<pdfrwt beam="1">  1       21 0.91096058E-01 0.24186389E+03</pdfrwt>
<pdfrwt beam="2">  1       21 0.14975917E-01 0.24186389E+03</pdfrwt>
<totfact> 0.39221365E+04</totfact>
</mgrwt>
</event>
<event>
 4    0  0.1003929E-001  0.2676174E+03  0.7546771E-02  0.1102651E+00
         21   -1    0    0  503  501  0.00000000000E+00  0.00000000000E+00  0.28307390789E+03  0.28307390789E+03  0.00000000000E+00 0.  1.
         21   -1    0    0  501  502 -0.00000000000E+00 -0.00000000000E+00 -0.15490197573E+04  0.15490197573E+04  0.00000000000E+00 0.  1.
         25    1    1    2    0    0 -0.16395559836E+03  0.17062422627E+03  0.20820609097E+03  0.33907055481E+03  0.12500000000E+03 0.  0.
         21    1    1    2  503  502  0.16395559836E+03 -0.17062422627E+03 -0.14741519404E+04  0.14930231104E+04  0.00000000000E+00 0.  1.
<mgrwt>
<rscale>  3 0.26761739E+03</rscale>
<asrwt>0</asrwt>
<pdfrwt beam="1">  1       21 0.43549831E-01 0.26761739E+03</pdfrwt>
<pdfrwt beam="2">  1       21 0.23831074E+00 0.26761739E+03</pdfrwt>
<totfact> 0.36293583E+02</totfact>
</mgrwt>
</event>
<event>
 4    0  0.1003929E-001  0.3390724E+03  0.7546771E-02  0.1067192E+00
         21   -1    0    0  503  501  0.00000000000E+00  0.00000000000E+00  0.26849951872E+04  0.26849951872E+04  0.00000000000E+00 0. -1.
         21   -1    0    0  501  502 -0.00000000000E+00 -0.00000000000E+00 -0.42636735086E+02  0.42636735086E+02  0.00000000000E+00 0. -1.
         25    1    1    2    0    0 -0.28815316895E+03 -0.12772176364E+03  0.17142924383E+04  0.17475035512E+04  0.12500000000E+03 0.  0.
         21    1    1    2  503  502  0.28815316895E+03  0.12772176364E+03  0.92806601388E+03  0.98012837108E+03  0.00000000000E+00 0. -1.
<mgrwt>
<rscale>  3 0.33907241E+03</rscale>
<asrwt>0</asrwt>
<pdfrwt beam="1">  1       21 0.41307605E+00 0.33907241E+03</pdfrwt>
<pdfrwt beam="2">  1       21 0.65594998E-02 0.33907241E+03</pdfrwt>
<totfact> 0.10338166E+03</totfact>
</mgrwt>
</event>
<event>
 4    0  0.1003929E-001  0.2652880E+03  0.7546771E-02  0.1104007E+00
         21   -1    0    0  503  501  0.00000000000E+00  0.00000000000E+00  0.18430276472E+02  0.18430276472E+02  0.00000000000E+00 0.  1.
         21   -1    0    0  501  502 -0.00000000000E+00 -0.00000000000E+00 -0.38694298444E+04  0.38694298444E+04  0.00000000000E+00 0.  1.
         25    1    1    2    0    0  0.16783528706E+03  0.16304618043E+03 -0.13417973254E+04  0.13677711077E+04  0.12500000000E+03 0.  0.
         21    1    1    2  503  502 -0.16783528706E+03 -0.16304618043E+03 -0.25092022426E+04  0.25200890132E+04  0.00000000000E+00 0.  1.
<mgrwt>
<rscale>  3 0.26528803E+03</rscale>
<asrwt>0</asrwt>
<pdfrwt beam="1">  1       21 0.28354242E-02 0.26528803E+03</pdfrwt>
<pdfrwt beam="2">  1       21 0.59529753E+00 0.26528803E+03</pdfrwt>
<totfact> 0.23303403E+02</totfact>
</mgrwt>
</event>
<event>
 4    0  0.1003929E-001  0.2470905E+03  0.7546771E-02  0.1115157E+00
         21   -1    0    0  503  501  0.00000000000E+00  0.00000000000E+00  0.12874042629E+03  0.12874042629E+03  0.00000000000E+00 0. -1.
         21   -1    0    0  501  502 -0.00000000000E+00 -0.00000000000E+00 -0.43189641163E+03  0.43189641163E+03  0.00000000000E+00 0.  1.
         25    1    1    2    0    0 -0.19699307216E+03  0.81378444111E+02 -0.22325845745E+03  0.33301360403E+03  0.12500000000E+03 0.  0.
         21    1    1    2  503  502  0.19699307216E+03 -0.81378444111E+02 -0.79897527895E+02  0.22762323389E+03  0.00000000000E+00 0.  1.
<mgrwt>
<rscale>  3 0.24709051E+03</rscale>
<asrwt>0</asrwt>
<pdfrwt beam="1">  1       21 0.19806219E-01 0.24709051E+03</pdfrwt>
<pdfrwt beam="2">  1       21 0.66445603E-01 0.24709051E+03</pdfrwt>
<totfact> 0.47631899E+04</totfact>
</mgrwt>
</event>
<event>
 4    0  0.1003929E-001  0.2605810E+03  0.7546771E-02  0.1106795E+00
         21   -1    0    0  503  501  0.00000000000E+00  0.00000000000E+00  0.28101676310E+03  0.28101676310E+03  0.00000000000E+00 0.  1.
         21   -1    0    0  501  502 -0.00000000000E+00 -0.00000000000E+00 -0.92259199170E+03  0.92259199170E+03  0.00000000000E+00 0.  1.
         25    1    1    2    0    0  0.22691895976E+03 -0.28022422786E+02  0.20193047536E+03  0.32966405227E+03  0.12500000000E+03 0.  0.
         21    1    1    2  503  502 -0.22691895976E+03  0.28022422786E+02 -0.84350570396E+03  0.87394470254E+03  0.00000000000E+00 0.  1.
<mgrwt>
<rscale>  3 0.26058102E+03</rscale>
<asrwt>0</asrwt>
<pdfrwt beam="1">  1       21 0.43233348E-01 0.26058102E+03</pdfrwt>
<pdfrwt beam="2">  1       21 0.14193723E+00 0.26058102E+03</pdfrwt>
<totfact> 0.16769532E+03</totfact>
</mgrwt>
</event>
<event>
 4    0  0.1232686E-001  0.3337630E+03  0.7546771E-02  0.1069484E+00
         21   -1    0    0  503  501  0.00000000000E+00  0.00000000000E+00  0.25640895789E+03  0.25640895789E+03  0.00000000000E+00 0. -1.
         21   -1    0    0  501  502 -0.00000000000E+00 -0.00000000000E+00 -0.49235327225E+03  0.49235327225E+03  0.00000000000E+00 0. -1.
         25    1    1    2    0    0  0.26854088922E+03  0.15381329700E+03 -0.28065289429E+03  0.43607772998E+03  0.12500000000E+03 0.  0.
         21    1    1    2  503  502 -0.26854088922E+03 -0.15381329700E+03  0.44708579932E+02  0.31268450015E+03  0.00000000000E+00 0. -1.
<mgrwt>
<rscale>  3 0.33376300E+03</rscale>
<asrwt>0</asrwt>
<pdfrwt beam="1">  1       21 0.39447533E-01 0.33376300E+03</pdfrwt>
<pdfrwt beam="2">  1       21 0.75746656E-01 0.33376300E+03</pdfrwt>
<totfact> 0.89244720E+03</totfact>
</mgrwt>
</event>
<event>
 4    0  0.1003929E-001  0.2462267E+03  0.7546771E-02  0.1115713E+00
         21   -1    0    0  503  501  0.00000000000E+00  0.00000000000E+00  0.99422149871E+02  0.99422149871E+02  0.00000000000E+00 0.  1.
         21   -1    0    0  501  502 -0.00000000000E+00 -0.00000000000E+00 -0.65772600894E+03  0.65772600894E+03  0.00000000000E+00 0.  1.
         25    1    1    2    0    0  0.20615418517E+03  0.50030284760E+02 -0.46338893275E+03  0.52474458592E+03  0.12500000000E+03 0.  0.
         21    1    1    2  503  502 -0.20615418517E+03 -0.50030284760E+02 -0.94914926314E+02  0.23240357289E+03  0.00000000000E+00 0.  1.
<mgrwt>
<rscale>  3 0.24622668E+03</rscale>
<asrwt>0</asrwt>
<pdfrwt beam="1">  1       21 0.15295715E-01 0.24622668E+03</pdfrwt>
<pdfrwt beam="2">  1       21 0.10118862E+00 0.24622668E+03</pdfrwt>
<totfact> 0.29373991E+04</totfact>
</mgrwt>
</event>
<event>
 4    0  0.1271720E-001  0.2378488E+03  0.7546771E-02  0.1121234E+00
         21   -1    0    0  502  501  0.00000000000E+00  0.00000000000E+00  0.11422211046E+03  0.11422211046E+03  0.00000000000E+00 0. -1.
         21   -1    0    0  503  502 -0.00000000000E+00 -0.00000000000E+00 -0.44754828779E+03  0.44754828779E+03  0.00000000000E+00 0. -1.
         25    1    1    2    0    0 -0.38288075050E+02  0.19869842069E+03 -0.24345761279E+03  0.34035811772E+03  0.12500000000E+03 0.  0.
         21    1    1    2  503  501  0.38288075050E+02 -0.19869842069E+03 -0.89868564538E+02  0.22141228053E+03  0.00000000000E+00 0. -1.
<mgrwt>
<rscale>  3 0.23784877E+03</rscale>
<asrwt>0</asrwt>
<pdfrwt beam="1">  1       21 0.17572632E-01 0.23784877E+03</pdfrwt>
<pdfrwt beam="2">  1       21 0.68853582E-01 0.23784877E+03</pdfrwt>
<totfact> 0.55256926E+04</totfact>
</mgrwt>
</event>
<event>
 4    0  0.1699072E-001  0.3171985E+03  0.7546771E-02  0.1076946E+00
         21   -1    0    0  503  501  0.00000000000E+00  0.00000000000E+00  0.41259034615E+03  0.41259034615E+03  0.00000000000E+00 0. -1.
         21   -1    0    0  501  502 -0.00000000000E+00 -0.00000000000E+00 -0.26190219964E+03  0.26190219964E+03  0.00000000000E+00 0. -1.
         25    1    1    2    0    0  0.58989869297E+02  0.28549974999E+03  0.20537045971E+03  0.37787820477E+03  0.12500000000E+03 0.  0.
         21    1    1    2  503  502 -0.58989869297E+02 -0.28549974999E+03 -0.54682313199E+02  0.29661434102E+03  0.00000000000E+00 0. -1.
<mgrwt>
<rscale>  3 0.31719854E+03</rscale>
<asrwt>0</asrwt>
<pdfrwt beam="1">  1       21 0.63475438E-01 0.31719854E+03</pdfrwt>
<pdfrwt beam="2">  1       21 0.40292646E-01 0.31719854E+03</pdfrwt>
<totfact> 0.12764040E+04</totfact>
</mgrwt>
</event>
<event>
 4    0  0.1429891E-001  0.2828607E+03  0.7546771E-02  0.1094137E+00
         21   -1    0    0  503  501  0.00000000000E+00  0.00000000000E+00  0.81257811704E+03  0.81257811704E+03  0.00000000000E+00 0.  1.
         21   -1    0    0  501  502 -0.00000000000E+00 -0.00000000000E+00 -0.89322189306E+02  0.89322189306E+02  0.00000000000E+00 0.  1.
         25    1    1    2    0    0 -0.25344552049E+03 -0.12269510154E+02  0.42187927439E+03  0.50792941921E+03  0.12500000000E+03 0.  0.
         21    1    1    2  503  502  0.25344552049E+03  0.12269510154E+02  0.30137665334E+03  0.39397088714E+03  0.00000000000E+00 0.  1.
<mgrwt>
<rscale>  3 0.28286069E+03</rscale>
<asrwt>0</asrwt>
<pdfrwt beam="1">  1       21 0.12501201E+00 0.28286069E+03</pdfrwt>
<pdfrwt beam="2">  1       21 0.13741876E-01 0.28286069E+03</pdfrwt>
<totfact> 0.20884875E+04</totfact>
</mgrwt>
</event>
<event>
 4    0  0.1003929E-001  0.2540823E+03  0.7546771E-02  0.1110752E+00
         21   -1    0    0  503  501  0.00000000000E+00  0.00000000000E+00  0.37908503136E+02  0.37908503136E+02  0.00000000000E+00 0.  1.
         21   -1    0    0  501  502 -0.00000000000E+00 -0.00000000000E+00 -0.16033825939E+04  0.16033825939E+04  0.00000000000E+00 0. -1.
         25    1    1    2    0    0  0.14645236174E+02 -0.22072235018E+03 -0.61508307230E+03  0.66549607410E+03  0.12500000000E+03 0.  0.
         21    1    1    2  503  502 -0.14645236174E+02  0.22072235018E+03 -0.95039101848E+03  0.97579502295E+03  0.00000000000E+00 0. -1.
<mgrwt>
<rscale>  3 0.25408235E+03</rscale>
<asrwt>0</asrwt>
<pdfrwt beam="1">  1       21 0.58320769E-02 0.25408235E+03</pdfrwt>
<pdfrwt beam="2">  1       21 0.24667427E+00 0.25408235E+03</pdfrwt>
<totfact> 0.13703711E+04</totfact>
</mgrwt>
</event>
<event>
 4    0  0.1119003E-001  0.3071203E+03  0.7546771E-02  0.1081734E+00
         21   -1    0    0  502  501  0.00000000000E+00  0.00000000000E+00  0.71950312292E+02  0.71950312292E+02  0.00000000000E+00 0. -1.
         21   -1    0    0  503  502 -0.00000000000E+00 -0.00000000000E+00 -0.16309741648E+04  0.16309741648E+04  0.00000000000E+00 0. -1.
         25    1    1    2    0    0  0.41665513618E+02  0.27742005670E+03 -0.36805140966E+03  0.47935867890E+03  0.12500000000E+03 0.  0.
         21    1    1    2  503  501 -0.41665513618E+02 -0.27742005670E+03 -0.11909724428E+04  0.12235657982E+04  0.00000000000E+00 0. -1.
<mgrwt>
<rscale>  3 0.30712034E+03</rscale>
<asrwt>0</asrwt>
<pdfrwt beam="1">  1       21 0.11069279E-01 0.30712034E+03</pdfrwt>
<pdfrwt beam="2">  1       21 0.25091909E+00 0.30712034E+03</pdfrwt>
<totfact> 0.40429945E+03</totfact>
</mgrwt>
</event>
<event>
 4    0  0.1269803E-001  0.2637670E+03  0.7546771E-02  0.1104901E+00
         21   -1    0    0  503  501  0.00000000000E+00  0.00000000000E+00  0.94618889163E+03  0.94618889163E+03  0.00000000000E+00 0.  1.
         21   -1    0    0  501  502 -0.00000000000E+00 -0.00000000000E+00 -0.90110731816E+02  0.90110731816E+02  0.00000000000E+00 0.  1.
         25    1    1    2    0    0  0.10193662493E+03 -0.20870305238E+03  0.72071761059E+03  0.76746785847E+03  0.12500000000E+03 0.  0.
         21    1    1    2  503  502 -0.10193662493E+03  0.20870305238E+03  0.13536054922E+03  0.26883176498E+03  0.00000000000E+00 0.  1.
<mgrwt>
<rscale>  3 0.26376702E+03</rscale>
<asrwt>0</asrwt>
<pdfrwt beam="1">  1       21 0.14556751E+00 0.26376702E+03</pdfrwt>
<pdfrwt beam="2">  1       21 0.13863190E-01 0.26376702E+03</pdfrwt>
<totfact> 0.13999904E+04</totfact>
</mgrwt>
</event>
<event>
 4    0  0.1142124E-001  0.3020006E+03  0.7546771E-02  0.1084245E+00
         21   -1    0    0  503  501  0.00000000000E+00  0.00000000000E+00  0.55389153180E+02  0.55389153180E+02  0.00000000000E+00 0. -1.
         21   -1    0    0  501  502 -0.00000000000E+00 -0.00000000000E+00 -0.15776314853E+04  0.15776314853E+04  0.00000000000E+00 0. -1.
         25    1    1    2    0    0 -0.18062862094E+03  0.20725023995E+03 -0.97343566912E+03  0.10192062414E+04  0.12500000000E+03 0.  0.
         21    1    1    2  503  502  0.18062862094E+03 -0.20725023995E+03 -0.54880666297E+03  0.61381439701E+03  0.00000000000E+00 0. -1.
<mgrwt>
<rscale>  3 0.30200060E+03</rscale>
<asrwt>0</asrwt>
<pdfrwt beam="1">  1       21 0.85214086E-02 0.30200060E+03</pdfrwt>
<pdfrwt beam="2">  1       21 0.24271253E+00 0.30200060E+03</pdfrwt>
<totfact> 0.72460171E+03</totfact>
</mgrwt>
</event>
<event>
 4    0  0.1003929E-001  0.5970141E+03  0.7546771E-02  0.9911620E-01
         21   -1    0    0  502  501  0.00000000000E+00  0.00000000000E+00  0.46150011055E+03  0.46150011055E+03  0.00000000000E+00 0.  1.
         21   -1    0    0  503  502 -0.00000000000E+00 -0.00000000000E+00 -0.77744892811E+03  0.77744892811E+03  0.00000000000E+00 0. -1.
         25    1    1    2    0    0  0.53316980149E+03  0.23776213367E+03 -0.55133735785E+02  0.59955449981E+03  0.12500000000E+03 0.  0.
         21    1    1    2  503  501 -0.53316980149E+03 -0.23776213367E+03 -0.26081508177E+03  0.63939453885E+03  0.00000000000E+00 0. -1.
<mgrwt>
<rscale>  3 0.59701413E+03</rscale>
<asrwt>0</asrwt>
<pdfrwt beam="1">  1       21 0.71000018E-01 0.59701413E+03</pdfrwt>
<pdfrwt beam="2">  1       21 0.11960753E+00 0.59701413E+03</pdfrwt>
<totfact> 0.76533749E+02</totfact>
</mgrwt>
</event>
<event>
 4    0  0.1003929E-001  0.2527755E+03  0.7546771E-02  0.1111563E+00
         21   -1    0    0  502  501  0.00000000000E+00  0.00000000000E+00  0.54528586297E+03  0.54528586297E+03  0.00000000000E+00 0.  1.
         21   -1    0    0  503  502 -0.00000000000E+00 -0.00000000000E+00 -0.13679992253E+04  0.13679992253E+04  0.00000000000E+00 0.  1.
         25    1    1    2    0    0 -0.19462744668E+03  0.10193442643E+03  0.50648105647E+03  0.56605523658E+03  0.12500000000E+03 0.  0.
         21    1    1    2  503  501  0.19462744668E+03 -0.10193442643E+03 -0.13291944188E+04  0.13472298517E+04  0.00000000000E+00 0.  1.
<mgrwt>
<rscale>  3 0.25277553E+03</rscale>
<asrwt>0</asrwt>
<pdfrwt beam="1">  1       21 0.83890133E-01 0.25277553E+03</pdfrwt>
<pdfrwt beam="2">  1       21 0.21046142E+00 0.25277553E+03</pdfrwt>
<totfact> 0.13210400E+02</totfact>
</mgrwt>
</event>
<event>
 4    0  0.1506774E-001  0.2677310E+03  0.7546771E-02  0.1102585E+00
         21   -1    0    0  503  501  0.00000000000E+00  0.00000000000E+00  0.47139537013E+03  0.47139537013E+03  0.00000000000E+00 0. -1.
         21   -1    0    0  501  502 -0.00000000000E+00 -0.00000000000E+00 -0.17799750349E+03  0.17799750349E+03  0.00000000000E+00 0. -1.
         25    1    1    2    0    0  0.20968128081E+03  0.10994842238E+03  0.31292766826E+03  0.41182960150E+03  0.12500000000E+03 0.  0.
         21    1    1    2  503  502 -0.20968128081E+03 -0.10994842238E+03 -0.19529801615E+02  0.23756327212E+03  0.00000000000E+00 0. -1.
<mgrwt>
<rscale>  3 0.26773101E+03</rscale>
<asrwt>0</asrwt>
<pdfrwt beam="1">  1       21 0.72522364E-01 0.26773101E+03</pdfrwt>
<pdfrwt beam="2">  1       21 0.27384232E-01 0.26773101E+03</pdfrwt>
<totfact> 0.20948917E+04</totfact>
</mgrwt>
</event>
<event>
 4    0  0.1456028E-001  0.2405369E+03  0.7546771E-02  0.1119436E+00
         21   -1    0    0  502  501  0.00000000000E+00  0.00000000000E+00  0.21276342628E+03  0.21276342628E+03  0.00000000000E+00 0.  1.
         21   -1    0    0  503  502 -0.00000000000E+00 -0.00000000000E+00 -0.23764535950E+03  0.23764535950E+03  0.00000000000E+00 0.  1.
         25    1    1    2    0    0  0.18858488813E+03 -0.81662444783E+02  0.15251230217E+02  0.24101994719E+03  0.12500000000E+03 0.  0.
         21    1    1    2  503  501 -0.18858488813E+03  0.81662444783E+02 -0.40133163441E+02  0.20938883859E+03  0.00000000000E+00 0.  1.
<mgrwt>
<rscale>  3 0.24053693E+03</rscale>
<asrwt>0</asrwt>
<pdfrwt beam="1">  1       21 0.32732835E-01 0.24053693E+03</pdfrwt>
<pdfrwt beam="2">  1       21 0.36560824E-01 0.24053693E+03</pdfrwt>
<totfact> 0.63505228E+04</totfact>
</mgrwt>
</event>
<event>
 4    0  0.1385595E-001  0.2611055E+03  0.7546771E-02  0.1106481E+00
         21   -1    0    0  502  501  0.00000000000E+00  0.00000000000E+00  0.14954013676E+03  0.14954013676E+03  0.00000000000E+00 0.  1.
         21   -1    0    0  503  502 -0.00000000000E+00 -0.00000000000E+00 -0.80124365628E+03  0.80124365628E+03  0.00000000000E+00 0. -1.
         25    1    1    2    0    0  0.15062589653E+03  0.17280888129E+03 -0.12413459965E+01  0.26110842786E+03  0.12500000000E+03 0.  0.
         21    1    1    2  503  501 -0.15062589653E+03 -0.17280888129E+03 -0.65046217352E+03  0.68967536518E+03  0.00000000000E+00 0. -1.
<mgrwt>
<rscale>  3 0.26110548E+03</rscale>
<asrwt>0</asrwt>
<pdfrwt beam="1">  1       21 0.23006174E-01 0.26110548E+03</pdfrwt>
<pdfrwt beam="2">  1       21 0.12326826E+00 0.26110548E+03</pdfrwt>
<totfact> 0.83763121E+03</totfact>
</mgrwt>
</event>
<event>
 4    0  0.1003929E-001  0.4687102E+03  0.7546771E-02  0.1022285E+00
         21   -1    0    0  503  501  0.00000000000E+00  0.00000000000E+00  0.69511223941E+03  0.69511223941E+03  0.00000000000E+00 0. -1.
         21   -1    0    0  501  502 -0.00000000000E+00 -0.00000000000E+00 -0.30996131285E+03  0.30996131285E+03  0.00000000000E+00 0.  1.
         25    1    1    2    0    0 -0.39307442639E+03  0.22261345888E+03  0.26149279750E+03  0.53671942381E+03  0.12500000000E+03 0.  0.
         21    1    1    2  503  502  0.39307442639E+03 -0.22261345888E+03  0.12365812907E+03  0.46835412845E+03  0.00000000000E+00 0.  1.
<mgrwt>
<rscale>  3 0.46871021E+03</rscale>
<asrwt>0</asrwt>
<pdfrwt beam="1">  1       21 0.10694034E+00 0.46871021E+03</pdfrwt>
<pdfrwt beam="2">  1       21 0.47686356E-01 0.46871021E+03</pdfrwt>
<totfact> 0.25286096E+03</totfact>
</mgrwt>
</event>
<event>
 4    0  0.1115755E-001  0.3777516E+03  0.7546771E-02  0.1051768E+00
         21   -1    0    0  503  501  0.00000000000E+00  0.00000000000E+00  0.14674733262E+04  0.14674733262E+04  0.00000000000E+00 0.  1.
         21   -1    0    0  501  502 -0.00000000000E+00 -0.00000000000E+00 -0.10047958654E+03  0.10047958654E+03  0.00000000000E+00 0.  1.
         25    1    1    2    0    0 -0.21798705002E+03  0.28205121798E+03  0.93142083309E+03  0.10051074628E+04  0.12500000000E+03 0.  0.
         21    1    1    2  503  502  0.21798705002E+03 -0.28205121798E+03  0.43557290655E+03  0.56284544989E+03  0.00000000000E+00 0.  1.
<mgrwt>
<rscale>  3 0.37775156E+03</rscale>
<asrwt>0</asrwt>
<pdfrwt beam="1">  1       21 0.22576511E+00 0.37775156E+03</pdfrwt>
<pdfrwt beam="2">  1       21 0.15458399E-01 0.37775156E+03</pdfrwt>
<totfact> 0.30107568E+03</totfact>
</mgrwt>
</event>
<event>
 4    0  0.1147723E-001  0.3390973E+03  0.7546771E-02  0.1067181E+00
         21   -1    0    0  502  501  0.00000000000E+00  0.00000000000E+00  0.16181123389E+03  0.16181123389E+03  0.00000000000E+00 0. -1.
         21   -1    0    0  503  502 -0.00000000000E+00 -0.00000000000E+00 -0.12163362485E+04  0.12163362485E+04  0.00000000000E+00 0. -1.
         25    1    1    2    0    0  0.30641858904E+03 -0.73956845976E+02 -0.72485057904E+02  0.34675791324E+03  0.12500000000E+03 0.  0.
         21    1    1    2  503  501 -0.30641858904E+03  0.73956845976E+02 -0.98203995666E+03  0.10313895691E+04  0.00000000000E+00 0. -1.
<mgrwt>
<rscale>  3 0.33909728E+03</rscale>
<asrwt>0</asrwt>
<pdfrwt beam="1">  1       21 0.24894036E-01 0.33909728E+03</pdfrwt>
<pdfrwt beam="2">  1       21 0.18712866E+00 0.33909728E+03</pdfrwt>
<totfact> 0.22294452E+03</totfact>
</mgrwt>
</event>
<event>
 4    0  0.1401027E-001  0.2377046E+03  0.7546771E-02  0.1121331E+00
         21   -1    0    0  502  501  0.00000000000E+00  0.00000000000E+00  0.14765929952E+03  0.14765929952E+03  0.00000000000E+00 0.  1.
         21   -1    0    0  503  502 -0.00000000000E+00 -0.00000000000E+00 -0.34433315887E+03  0.34433315887E+03  0.00000000000E+00 0.  1.
         25    1    1    2    0    0  0.14921460447E+03 -0.13643124212E+03 -0.51857850925E+02  0.24329553781E+03  0.12500000000E+03 0.  0.
         21    1    1    2  503  501 -0.14921460447E+03  0.13643124212E+03 -0.14481600842E+03  0.24869692058E+03  0.00000000000E+00 0.  1.
<mgrwt>
<rscale>  3 0.23770461E+03</rscale>
<asrwt>0</asrwt>
<pdfrwt beam="1">  1       21 0.22716815E-01 0.23770461E+03</pdfrwt>
<pdfrwt beam="2">  1       21 0.52974332E-01 0.23770461E+03</pdfrwt>
<totfact> 0.60145973E+04</totfact>
</mgrwt>
</event>
<event>
 4    0  0.1003929E-001  0.2430957E+03  0.7546771E-02  0.1117748E+00
         21   -1    0    0  502  501  0.00000000000E+00  0.00000000000E+00  0.22355205732E+04  0.22355205732E+04  0.00000000000E+00 0.  1.
         21   -1    0    0  503  502 -0.00000000000E+00 -0.00000000000E+00 -0.44680806410E+02  0.44680806410E+02  0.00000000000E+00 0. -1.
         25    1    1    2    0    0  0.10752312719E+02 -0.20821843741E+03  0.19347872391E+04  0.19499992796E+04  0.12500000000E+03 0.  0.
         21    1    1    2  503  501 -0.10752312719E+02  0.20821843741E+03  0.25605252771E+03  0.33020210002E+03  0.00000000000E+00 0. -1.
<mgrwt>
<rscale>  3 0.24309572E+03</rscale>
<asrwt>0</asrwt>
<pdfrwt beam="1">  1       21 0.34392615E+00 0.24309572E+03</pdfrwt>
<pdfrwt beam="2">  1       21 0.68739720E-02 0.24309572E+03</pdfrwt>
<totfact> 0.27917271E+03</totfact>
</mgrwt>
</event>
<event>
 4    0  0.1197736E-001  0.2904110E+03  0.7546771E-02  0.1090135E+00
         21   -1    0    0  502  501  0.00000000000E+00  0.00000000000E+00  0.16453353725E+03  0.16453353725E+03  0.00000000000E+00 0.  1.
         21   -1    0    0  503  502 -0.00000000000E+00 -0.00000000000E+00 -0.48592638403E+03  0.48592638403E+03  0.00000000000E+00 0.  1.
         25    1    1    2    0    0  0.44455248840E+02 -0.25833558750E+03 -0.23771359663E+03  0.37529494926E+03  0.12500000000E+03 0.  0.
         21    1    1    2  503  501 -0.44455248840E+02  0.25833558750E+03 -0.83679250147E+02  0.27516497202E+03  0.00000000000E+00 0.  1.
<mgrwt>
<rscale>  3 0.29041099E+03</rscale>
<asrwt>0</asrwt>
<pdfrwt beam="1">  1       21 0.25312852E-01 0.29041099E+03</pdfrwt>
<pdfrwt beam="2">  1       21 0.74757905E-01 0.29041099E+03</pdfrwt>
<totfact> 0.22567489E+04</totfact>
</mgrwt>
</event>
<event>
 4    0  0.1003929E-001  0.2884081E+03  0.7546771E-02  0.1091183E+00
         21   -1    0    0  502  501  0.00000000000E+00  0.00000000000E+00  0.19930922059E+04  0.19930922059E+04  0.00000000000E+00 0.  1.
         21   -1    0    0  503  502 -0.00000000000E+00 -0.00000000000E+00 -0.56750120768E+02  0.56750120768E+02  0.00000000000E+00 0. -1.
         25    1    1    2    0    0  0.18156116983E+03  0.18598333176E+03  0.15947068020E+04  0.16205767623E+04  0.12500000000E+03 0.  0.
         21    1    1    2  503  501 -0.18156116983E+03 -0.18598333176E+03  0.34163528308E+03  0.42926556434E+03  0.00000000000E+00 0. -1.
<mgrwt>
<rscale>  3 0.28840814E+03</rscale>
<asrwt>0</asrwt>
<pdfrwt beam="1">  1       21 0.30662952E+00 0.28840814E+03</pdfrwt>
<pdfrwt beam="2">  1       21 0.87307894E-02 0.28840814E+03</pdfrwt>
<totfact> 0.29253905E+03</totfact>
</mgrwt>
</event>
<event>
 4    0  0.1238159E-001  0.2431320E+03  0.7546771E-02  0.1117724E+00
         21   -1    0    0  503  501  0.00000000000E+00  0.00000000000E+00  0.12798521591E+04  0.12798521591E+04  0.00000000000E+00 0. -1.
         21   -1    0    0  501  502 -0.00000000000E+00 -0.00000000000E+00 -0.62680740446E+02  0.62680740446E+02  0.00000000000E+00 0. -1.
         25    1    1    2    0    0 -0.16220809070E+03 -0.13105990852E+03  0.10425916533E+04  0.10705655140E+04  0.12500000000E+03 0.  0.
         21    1    1    2  503  502  0.16220809070E+03  0.13105990852E+03  0.17457976535E+03  0.27196738550E+03  0.00000000000E+00 0. -1.
<mgrwt>
<rscale>  3 0.24313199E+03</rscale>
<asrwt>0</asrwt>
<pdfrwt beam="1">  1       21 0.19690031E+00 0.24313199E+03</pdfrwt>
<pdfrwt beam="2">  1       21 0.96431918E-02 0.24313199E+03</pdfrwt>
<totfact> 0.11713464E+04</totfact>
</mgrwt>
</event>
<event>
 4    0  0.1859151E-001  0.2772908E+03  0.7546771E-02  0.1097178E+00
         21   -1    0    0  503  501  0.00000000000E+00  0.00000000000E+00  0.91405030040E+03  0.91405030040E+03  0.00000000000E+00 0. -1.
         21   -1    0    0  501  502 -0.00000000000E+00 -0.00000000000E+00 -0.47528897712E+03  0.47528897712E+03  0.00000000000E+00 0.  1.
         25    1    1    2    0    0 -0.96154633656E+01 -0.24733124713E+03  0.85843615198E+03  0.90211020944E+03  0.12500000000E+03 0.  0.
         21    1    1    2  503  502  0.96154633656E+01  0.24733124713E+03 -0.41967482870E+03  0.48722906809E+03  0.00000000000E+00 0.  1.
<mgrwt>
<rscale>  3 0.27729083E+03</rscale>
<asrwt>0</asrwt>
<pdfrwt beam="1">  1       21 0.14062312E+00 0.27729083E+03</pdfrwt>
<pdfrwt beam="2">  1       21 0.73121381E-01 0.27729083E+03</pdfrwt>
<totfact> 0.54975674E+02</totfact>
</mgrwt>
</event>
<event>
 4    0  0.1370306E-001  0.2570582E+03  0.7546771E-02  0.1108924E+00
         21   -1    0    0  503  501  0.00000000000E+00  0.00000000000E+00  0.85331758823E+03  0.85331758823E+03  0.00000000000E+00 0. -1.
         21   -1    0    0  501  502 -0.00000000000E+00 -0.00000000000E+00 -0.10145253481E+03  0.10145253481E+03  0.00000000000E+00 0. -1.
         25    1    1    2    0    0  0.50560635565E+02  0.21885510606E+03  0.66671205656E+03  0.71455153885E+03  0.12500000000E+03 0.  0.
         21    1    1    2  503  502 -0.50560635565E+02 -0.21885510606E+03  0.85152996869E+02  0.24021858419E+03  0.00000000000E+00 0. -1.
<mgrwt>
<rscale>  3 0.25705823E+03</rscale>
<asrwt>0</asrwt>
<pdfrwt beam="1">  1       21 0.13127962E+00 0.25705823E+03</pdfrwt>
<pdfrwt beam="2">  1       21 0.15608083E-01 0.25705823E+03</pdfrwt>
<totfact> 0.14790925E+04</totfact>
</mgrwt>
</event>
<event>
 4    0  0.1625037E-001  0.3330600E+03  0.7546771E-02  0.1069791E+00
         21   -1    0    0  503  501  0.00000000000E+00  0.00000000000E+00  0.28237916836E+03  0.28237916836E+03  0.00000000000E+00 0. -1.
         21   -1    0    0  501  502 -0.00000000000E+00 -0.00000000000E+00 -0.47796249408E+03  0.47796249408E+03  0.00000000000E+00 0. -1.
         25    1    1    2    0    0 -0.29952806706E+03 -0.74745370252E+02  0.84386306885E+02  0.34358402483E+03  0.12500000000E+03 0.  0.
         21    1    1    2  503  502  0.29952806706E+03  0.74745370252E+02 -0.27996963260E+03  0.41675763761E+03  0.00000000000E+00 0. -1.
<mgrwt>
<rscale>  3 0.33305995E+03</rscale>
<asrwt>0</asrwt>
<pdfrwt beam="1">  1       21 0.43442949E-01 0.33305995E+03</pdfrwt>
<pdfrwt beam="2">  1       21 0.73532691E-01 0.33305995E+03</pdfrwt>
<totfact> 0.78284853E+03</totfact>
</mgrwt>
</event>
<event>
 4    0  0.1062972E-001  0.2493474E+03  0.7546771E-02  0.1113718E+00
         21   -1    0    0  503  501  0.00000000000E+00  0.00000000000E+00  0.13444126296E+04  0.13444126296E+04  0.00000000000E+00 0. -1.
         21   -1    0    0  501  502 -0.00000000000E+00 -0.00000000000E+00 -0.11273984368E+03  0.11273984368E+03  0.00000000000E+00 0. -1.
         25    1    1    2    0    0 -0.74580953616E+02 -0.20245194495E+03  0.12154809539E+04  0.12407933180E+04  0.12500000000E+03 0.  0.
         21    1    1    2  503  502  0.74580953616E+02  0.20245194495E+03  0.16191832023E+02  0.21635915530E+03  0.00000000000E+00 0. -1.
<mgrwt>
<rscale>  3 0.24934737E+03</rscale>
<asrwt>0</asrwt>
<pdfrwt beam="1">  1       21 0.20683270E+00 0.24934737E+03</pdfrwt>
<pdfrwt beam="2">  1       21 0.17344592E-01 0.24934737E+03</pdfrwt>
<totfact> 0.34746795E+03</totfact>
</mgrwt>
</event>
<event>
 4    0  0.1186100E-001  0.3491777E+03  0.7546771E-02  0.1062953E+00
         21   -1    0    0  503  501  0.00000000000E+00  0.00000000000E+00  0.18543529396E+03  0.18543529396E+03  0.00000000000E+00 0. -1.
         21   -1    0    0  501  502 -0.00000000000E+00 -0.00000000000E+00 -0.83255792098E+03  0.83255792098E+03  0.00000000000E+00 0.  1.
         25    1    1    2    0    0  0.11410813858E+03 -0.30541675278E+03 -0.71461888885E+02  0.35641529391E+03  0.12500000000E+03 0.  0.
         21    1    1    2  503  502 -0.11410813858E+03  0.30541675278E+03 -0.57566073814E+03  0.66157792104E+03  0.00000000000E+00 0.  1.
<mgrwt>
<rscale>  3 0.34917769E+03</rscale>
<asrwt>0</asrwt>
<pdfrwt beam="1">  1       21 0.28528507E-01 0.34917769E+03</pdfrwt>
<pdfrwt beam="2">  1       21 0.12808583E+00 0.34917769E+03</pdfrwt>
<totfact> 0.47926613E+03</totfact>
</mgrwt>
</event>
<event>
 4    0  0.1094807E-001  0.2430317E+03  0.7546771E-02  0.1117790E+00
         21   -1    0    0  502  501  0.00000000000E+00  0.00000000000E+00  0.81924459092E+03  0.81924459092E+03  0.00000000000E+00 0. -1.
         21   -1    0    0  503  502 -0.00000000000E+00 -0.00000000000E+00 -0.19740129248E+03  0.19740129248E+03  0.00000000000E+00 0. -1.
         25    1    1    2    0    0  0.17992214771E+03  0.10520191134E+03  0.73873391650E+03  0.77768388229E+03  0.12500000000E+03 0.  0.
         21    1    1    2  503  501 -0.17992214771E+03 -0.10520191134E+03 -0.11689061805E+03  0.23896200111E+03  0.00000000000E+00 0. -1.
<mgrwt>
<rscale>  3 0.24303173E+03</rscale>
<asrwt>0</asrwt>
<pdfrwt beam="1">  1       21 0.12603763E+00 0.24303173E+03</pdfrwt>
<pdfrwt beam="2">  1       21 0.30369430E-01 0.24303173E+03</pdfrwt>
<totfact> 0.46810452E+03</totfact>
</mgrwt>
</event>
<event>
 4    0  0.1781327E-001  0.2547780E+03  0.7546771E-02  0.1110322E+00
         21   -1    0    0  503  501  0.00000000000E+00  0.00000000000E+00  0.22951192650E+03  0.22951192650E+03  0.00000000000E+00 0. -1.
         21   -1    0    0  501  502 -0.00000000000E+00 -0.00000000000E+00 -0.26773584917E+03  0.26773584917E+03  0.00000000000E+00 0. -1.
         25    1    1    2    0    0 -0.22088579393E+03 -0.22277775319E+02  0.47679605540E+02  0.25920103784E+03  0.12500000000E+03 0.  0.
         21    1    1    2  503  502  0.22088579393E+03  0.22277775319E+02 -0.85903528207E+02  0.23804673783E+03  0.00000000000E+00 0. -1.
<mgrwt>
<rscale>  3 0.25477801E+03</rscale>
<asrwt>0</asrwt>
<pdfrwt beam="1">  1       21 0.35309527E-01 0.25477801E+03</pdfrwt>
<pdfrwt beam="2">  1       21 0.41190131E-01 0.25477801E+03</pdfrwt>
<totfact> 0.42668104E+04</totfact>
</mgrwt>
</event>
<event>
 4    0  0.1663111E-001  0.3183889E+03  0.7546771E-02  0.1076393E+00
         21   -1    0    0  502  501  0.00000000000E+00  0.00000000000E+00  0.15600951486E+04  0.15600951486E+04  0.00000000000E+00 0. -1.
         21   -1    0    0  503  502 -0.00000000000E+00 -0.00000000000E+00 -0.54058581546E+03  0.54058581546E+03  0.00000000000E+00 0.  1.
         25    1    1    2    0    0  0.12089784228E+03 -0.26670244819E+03  0.15024960965E+04  0.15358600210E+04  0.12500000000E+03 0.  0.
         21    1    1    2  503  501 -0.12089784228E+03  0.26670244819E+03 -0.48298676336E+03  0.56482094306E+03  0.00000000000E+00 0.  1.
<mgrwt>
<rscale>  3 0.31838889E+03</rscale>
<asrwt>0</asrwt>
<pdfrwt beam="1">  1       21 0.24001464E+00 0.31838889E+03</pdfrwt>
<pdfrwt beam="2">  1       21 0.83167049E-01 0.31838889E+03</pdfrwt>
<totfact> 0.82790153E+01</totfact>
</mgrwt>
</event>
<event>
 4    0  0.2305786E-001  0.2417851E+03  0.7546771E-02  0.1118609E+00
         21   -1    0    0  502  501  0.00000000000E+00  0.00000000000E+00  0.25593132882E+03  0.25593132882E+03  0.00000000000E+00 0. -1.
         21   -1    0    0  503  502 -0.00000000000E+00 -0.00000000000E+00 -0.11941787830E+04  0.11941787830E+04  0.00000000000E+00 0.  1.
         25    1    1    2    0    0  0.45517249912E+02  0.20189898094E+03  0.18720417440E+03  0.30578656193E+03  0.12500000000E+03 0.  0.
         21    1    1    2  503  501 -0.45517249912E+02 -0.20189898094E+03 -0.11254516286E+04  0.11443235499E+04  0.00000000000E+00 0.  1.
<mgrwt>
<rscale>  3 0.24178507E+03</rscale>
<asrwt>0</asrwt>
<pdfrwt beam="1">  1       21 0.39374051E-01 0.24178507E+03</pdfrwt>
<pdfrwt beam="2">  1       21 0.18371981E+00 0.24178507E+03</pdfrwt>
<totfact> 0.10169403E+03</totfact>
</mgrwt>
</event>
<event>
 4    0  0.1226781E-001  0.4052381E+03  0.7546771E-02  0.1041981E+00
         21   -1    0    0  503  501  0.00000000000E+00  0.00000000000E+00  0.59900637949E+03  0.59900637949E+03  0.00000000000E+00 0.  1.
         21   -1    0    0  501  502 -0.00000000000E+00 -0.00000000000E+00 -0.37212109096E+03  0.37212109096E+03  0.00000000000E+00 0.  1.
         25    1    1    2    0    0  0.36659480841E+03 -0.11916865591E+03  0.38077780450E+03  0.55606623572E+03  0.12500000000E+03 0.  0.
         21    1    1    2  503  502 -0.36659480841E+03  0.11916865591E+03 -0.15389251596E+03  0.41506123473E+03  0.00000000000E+00 0.  1.
<mgrwt>
<rscale>  3 0.40523811E+03</rscale>
<asrwt>0</asrwt>
<pdfrwt beam="1">  1       21 0.92154827E-01 0.40523811E+03</pdfrwt>
<pdfrwt beam="2">  1       21 0.57249399E-01 0.40523811E+03</pdfrwt>
<totfact> 0.25120901E+03</totfact>
</mgrwt>
</event>
<event>
 4    0  0.1723722E-001  0.3425793E+03  0.7546771E-02  0.1065703E+00
         21   -1    0    0  502  501  0.00000000000E+00  0.00000000000E+00  0.14347847755E+04  0.14347847755E+04  0.00000000000E+00 0. -1.
         21   -1    0    0  503  502 -0.00000000000E+00 -0.00000000000E+00 -0.52953067294E+03  0.52953067294E+03  0.00000000000E+00 0.  1.
         25    1    1    2    0    0  0.16226272639E+03  0.27460226659E+03  0.13635637720E+04  0.14059398129E+04  0.12500000000E+03 0.  0.
         21    1    1    2  503  501 -0.16226272639E+03 -0.27460226659E+03 -0.45830966947E+03  0.55837563550E+03  0.00000000000E+00 0.  1.
<mgrwt>
<rscale>  3 0.34257933E+03</rscale>
<asrwt>0</asrwt>
<pdfrwt beam="1">  1       21 0.22073612E+00 0.34257933E+03</pdfrwt>
<pdfrwt beam="2">  1       21 0.81466258E-01 0.34257933E+03</pdfrwt>
<totfact> 0.11201199E+02</totfact>
</mgrwt>
</event>
<event>
 4    0  0.1112888E-001  0.2586140E+03  0.7546771E-02  0.1107979E+00
         21   -1    0    0  502  501  0.00000000000E+00  0.00000000000E+00  0.41505985848E+03  0.41505985848E+03  0.00000000000E+00 0. -1.
         21   -1    0    0  503  502 -0.00000000000E+00 -0.00000000000E+00 -0.59793881331E+03  0.59793881331E+03  0.00000000000E+00 0. -1.
         25    1    1    2    0    0  0.60382030031E+02 -0.21819764745E+03  0.34932760178E+03  0.43463890331E+03  0.12500000000E+03 0.  0.
         21    1    1    2  503  501 -0.60382030031E+02  0.21819764745E+03 -0.53220655661E+03  0.57835976849E+03  0.00000000000E+00 0. -1.
<mgrwt>
<rscale>  3 0.25861400E+03</rscale>
<asrwt>0</asrwt>
<pdfrwt beam="1">  1       21 0.63855363E-01 0.25861400E+03</pdfrwt>
<pdfrwt beam="2">  1       21 0.91990587E-01 0.25861400E+03</pdfrwt>
<totfact> 0.21473500E+03</totfact>
</mgrwt>
</event>
<event>
 4    0  0.1633643E-001  0.3234630E+03  0.7546771E-02  0.1074066E+00
         21   -1    0    0  503  501  0.00000000000E+00  0.00000000000E+00  0.21500729298E+03  0.21500729298E+03  0.00000000000E+00 0.  1.
         21   -1    0    0  501  502 -0.00000000000E+00 -0.00000000000E+00 -0.48873268864E+03  0.48873268864E+03  0.00000000000E+00 0.  1.
         25    1    1    2    0    0 -0.28385687413E+03 -0.91807425358E+02 -0.42402930184E+02  0.32623049648E+03  0.12500000000E+03 0.  0.
         21    1    1    2  503  502  0.28385687413E+03  0.91807425358E+02 -0.23132246547E+03  0.37750948515E+03  0.00000000000E+00 0.  1.
<mgrwt>
<rscale>  3 0.32346302E+03</rscale>
<asrwt>0</asrwt>
<pdfrwt beam="1">  1       21 0.33078045E-01 0.32346302E+03</pdfrwt>
<pdfrwt beam="2">  1       21 0.75189644E-01 0.32346302E+03</pdfrwt>
<totfact> 0.13002448E+04</totfact>
</mgrwt>
</event>
<event>
 4    0  0.1232493E-001  0.2500075E+03  0.7546771E-02  0.1113300E+00
         21   -1    0    0  503  501  0.00000000000E+00  0.00000000000E+00  0.38166134781E+03  0.38166134781E+03  0.00000000000E+00 0.  1.
         21   -1    0    0  501  502 -0.00000000000E+00 -0.00000000000E+00 -0.27543728308E+03  0.27543728308E+03  0.00000000000E+00 0.  1.
         25    1    1    2    0    0 -0.14815786243E+03  0.15788596155E+03  0.28297786963E+03  0.37759793929E+03  0.12500000000E+03 0.  0.
         21    1    1    2  503  502  0.14815786243E+03 -0.15788596155E+03 -0.17675380490E+03  0.27950069160E+03  0.00000000000E+00 0.  1.
<mgrwt>
<rscale>  3 0.25000746E+03</rscale>
<asrwt>0</asrwt>
<pdfrwt beam="1">  1       21 0.58717130E-01 0.25000746E+03</pdfrwt>
<pdfrwt beam="2">  1       21 0.42374967E-01 0.25000746E+03</pdfrwt>
<totfact> 0.14063526E+04</totfact>
</mgrwt>
</event>
<event>
 4    0  0.1172744E-001  0.3034660E+03  0.7546771E-02  0.1083521E+00
         21   -1    0    0  503  501  0.00000000000E+00  0.00000000000E+00  0.25163998212E+03  0.25163998212E+03  0.00000000000E+00 0. -1.
         21   -1    0    0  501  502 -0.00000000000E+00 -0.00000000000E+00 -0.69977523696E+03  0.69977523696E+03  0.00000000000E+00 0. -1.
         25    1    1    2    0    0 -0.15450736180E+03 -0.22933401286E+03  0.11461974093E+03  0.32439065849E+03  0.12500000000E+03 0.  0.
         21    1    1    2  503  502  0.15450736180E+03  0.22933401286E+03 -0.56275499578E+03  0.62702456059E+03  0.00000000000E+00 0. -1.
<mgrwt>
<rscale>  3 0.30346600E+03</rscale>
<asrwt>0</asrwt>
<pdfrwt beam="1">  1       21 0.38713844E-01 0.30346600E+03</pdfrwt>
<pdfrwt beam="2">  1       21 0.10765773E+00 0.30346600E+03</pdfrwt>
<totfact> 0.41129129E+03</totfact>
</mgrwt>
</event>
<event>
 4    0  0.1161684E-001  0.2534514E+03  0.7546771E-02  0.1111143E+00
         21   -1    0    0  502  501  0.00000000000E+00  0.00000000000E+00  0.42698866732E+02  0.42698866732E+02  0.00000000000E+00 0.  1.
         21   -1    0    0  503  502 -0.00000000000E+00 -0.00000000000E+00 -0.17874225796E+04  0.17874225796E+04  0.00000000000E+00 0.  1.
         25    1    1    2    0    0 -0.21804854528E+03 -0.32671955997E+02 -0.44746305908E+03  0.51425753670E+03  0.12500000000E+03 0.  0.
         21    1    1    2  503  501  0.21804854528E+03  0.32671955997E+02 -0.12972606537E+04  0.13158639096E+04  0.00000000000E+00 0.  1.
<mgrwt>
<rscale>  3 0.25345142E+03</rscale>
<asrwt>0</asrwt>
<pdfrwt beam="1">  1       21 0.65690570E-02 0.25345142E+03</pdfrwt>
<pdfrwt beam="2">  1       21 0.27498806E+00 0.25345142E+03</pdfrwt>
<totfact> 0.75904182E+03</totfact>
</mgrwt>
</event>
<event>
 4    0  0.1003929E-001  0.2433088E+03  0.7546771E-02  0.1117608E+00
         21   -1    0    0  503  501  0.00000000000E+00  0.00000000000E+00  0.27668110575E+04  0.27668110575E+04  0.00000000000E+00 0.  1.
         21   -1    0    0  501  502 -0.00000000000E+00 -0.00000000000E+00 -0.27899767681E+02  0.27899767681E+02  0.00000000000E+00 0.  1.
         25    1    1    2    0    0  0.10230636613E+03  0.18195488039E+03  0.22497907824E+04  0.22629091311E+04  0.12500000000E+03 0.  0.
         21    1    1    2  503  502 -0.10230636613E+03 -0.18195488039E+03  0.48912050741E+03  0.53180169407E+03  0.00000000000E+00 0.  1.
<mgrwt>
<rscale>  3 0.24330880E+03</rscale>
<asrwt>0</asrwt>
<pdfrwt beam="1">  1       21 0.42566302E+00 0.24330880E+03</pdfrwt>
<pdfrwt beam="2">  1       21 0.42922742E-02 0.24330880E+03</pdfrwt>
<totfact> 0.19513448E+03</totfact>
</mgrwt>
</event>
<event>
 4    0  0.1372722E-001  0.2727535E+03  0.7546771E-02  0.1099714E+00
         21   -1    0    0  503  501  0.00000000000E+00  0.00000000000E+00  0.64568420721E+03  0.64568420721E+03  0.00000000000E+00 0.  1.
         21   -1    0    0  501  502 -0.00000000000E+00 -0.00000000000E+00 -0.14747237649E+03  0.14747237649E+03  0.00000000000E+00 0.  1.
         25    1    1    2    0    0  0.81710618132E+02 -0.22823856894E+03  0.47742277549E+03  0.54984268298E+03  0.12500000000E+03 0.  0.
         21    1    1    2  503  502 -0.81710618132E+02  0.22823856894E+03  0.20789055228E+02  0.24331390072E+03  0.00000000000E+00 0.  1.
<mgrwt>
<rscale>  3 0.27275350E+03</rscale>
<asrwt>0</asrwt>
<pdfrwt beam="1">  1       21 0.99336031E-01 0.27275350E+03</pdfrwt>
<pdfrwt beam="2">  1       21 0.22688058E-01 0.27275350E+03</pdfrwt>
<totfact> 0.14511975E+04</totfact>
</mgrwt>
</event>
<event>
 4    0  0.1403296E-001  0.2619296E+03  0.7546771E-02  0.1105989E+00
         21   -1    0    0  503  501  0.00000000000E+00  0.00000000000E+00  0.13261039749E+03  0.13261039749E+03  0.00000000000E+00 0. -1.
         21   -1    0    0  501  502 -0.00000000000E+00 -0.00000000000E+00 -0.66005865233E+03  0.66005865233E+03  0.00000000000E+00 0. -1.
         25    1    1    2    0    0  0.21058855034E+03  0.92922553770E+02 -0.55737102167E+02  0.26779425515E+03  0.12500000000E+03 0.  0.
         21    1    1    2  503  502 -0.21058855034E+03 -0.92922553770E+02 -0.47171115267E+03  0.52487479468E+03  0.00000000000E+00 0. -1.
<mgrwt>
<rscale>  3 0.26192964E+03</rscale>
<asrwt>0</asrwt>
<pdfrwt beam="1">  1       21 0.20401600E-01 0.26192964E+03</pdfrwt>
<pdfrwt beam="2">  1       21 0.10154748E+00 0.26192964E+03</pdfrwt>
<totfact> 0.16923987E+04</totfact>
</mgrwt>
</event>
<event>
 4    0  0.1510638E-001  0.2916804E+03  0.7546771E-02  0.1089475E+00
         21   -1    0    0  503  501  0.00000000000E+00  0.00000000000E+00  0.65102427989E+03  0.65102427989E+03  0.00000000000E+00 0.  1.
         21   -1    0    0  501  502 -0.00000000000E+00 -0.00000000000E+00 -0.12143289728E+03  0.12143289728E+03  0.00000000000E+00 0.  1.
         25    1    1    2    0    0 -0.25811767327E+03 -0.53176526837E+02  0.33906202726E+03  0.44725891225E+03  0.12500000000E+03 0.  0.
         21    1    1    2  503  502  0.25811767327E+03  0.53176526837E+02  0.19052935535E+03  0.32519826492E+03  0.00000000000E+00 0.  1.
<mgrwt>
<rscale>  3 0.29168044E+03</rscale>
<asrwt>0</asrwt>
<pdfrwt beam="1">  1       21 0.10015758E+00 0.29168044E+03</pdfrwt>
<pdfrwt beam="2">  1       21 0.18681985E-01 0.29168044E+03</pdfrwt>
<totfact> 0.20366137E+04</totfact>
</mgrwt>
</event>
<event>
 4    0  0.1065192E-001  0.2475020E+03  0.7546771E-02  0.1114894E+00
         21   -1    0    0  502  501  0.00000000000E+00  0.00000000000E+00  0.60368864003E+03  0.60368864003E+03  0.00000000000E+00 0.  1.
         21   -1    0    0  503  502 -0.00000000000E+00 -0.00000000000E+00 -0.63919656642E+03  0.63919656642E+03  0.00000000000E+00 0.  1.
         25    1    1    2    0    0  0.99081991805E+02 -0.18924850182E+03  0.55890432372E+03  0.61125385857E+03  0.12500000000E+03 0.  0.
         21    1    1    2  503  501 -0.99081991805E+02  0.18924850182E+03 -0.59441225011E+03  0.63163134788E+03  0.00000000000E+00 0.  1.
<mgrwt>
<rscale>  3 0.24750199E+03</rscale>
<asrwt>0</asrwt>
<pdfrwt beam="1">  1       21 0.92875175E-01 0.24750199E+03</pdfrwt>
<pdfrwt beam="2">  1       21 0.98337933E-01 0.24750199E+03</pdfrwt>
<totfact> 0.79253483E+02</totfact>
</mgrwt>
</event>
<event>
 4    0  0.1003929E-001  0.2380565E+03  0.7546771E-02  0.1121094E+00
         21   -1    0    0  503  501  0.00000000000E+00  0.00000000000E+00  0.23608329650E+04  0.23608329650E+04  0.00000000000E+00 0.  1.
         21   -1    0    0  501  502 -0.00000000000E+00 -0.00000000000E+00 -0.96722820400E+02  0.96722820400E+02  0.00000000000E+00 0.  1.
         25    1    1    2    0    0  0.15190402517E+03 -0.13405611358E+03  0.22410403108E+04  0.22536487191E+04  0.12500000000E+03 0.  0.
         21    1    1    2  503  502 -0.15190402517E+03  0.13405611358E+03  0.23069833788E+02  0.20390706629E+03  0.00000000000E+00 0.  1.
<mgrwt>
<rscale>  3 0.23805645E+03</rscale>
<asrwt>0</asrwt>
<pdfrwt beam="1">  1       21 0.36320503E+00 0.23805645E+03</pdfrwt>
<pdfrwt beam="2">  1       21 0.14880436E-01 0.23805645E+03</pdfrwt>
<totfact> 0.54508475E+02</totfact>
</mgrwt>
</event>
<event>
 4    0  0.1003929E-001  0.2618512E+03  0.7546771E-02  0.1106036E+00
         21   -1    0    0  503  501  0.00000000000E+00  0.00000000000E+00  0.50473710100E+02  0.50473710100E+02  0.00000000000E+00 0.  1.
         21   -1    0    0  501  502 -0.00000000000E+00 -0.00000000000E+00 -0.24201106116E+04  0.24201106116E+04  0.00000000000E+00 0. -1.
         25    1    1    2    0    0 -0.20788818126E+03 -0.98607976234E+02 -0.34603063339E+03  0.43393919865E+03  0.12500000000E+03 0.  0.
         21    1    1    2  503  502  0.20788818126E+03  0.98607976234E+02 -0.20236062681E+04  0.20366451231E+04  0.00000000000E+00 0. -1.
<mgrwt>
<rscale>  3 0.26185116E+03</rscale>
<asrwt>0</asrwt>
<pdfrwt beam="1">  1       21 0.77651904E-02 0.26185116E+03</pdfrwt>
<pdfrwt beam="2">  1       21 0.37232451E+00 0.26185116E+03</pdfrwt>
<totfact> 0.14928978E+03</totfact>
</mgrwt>
</event>
<event>
 4    0  0.1260685E-001  0.3373622E+03  0.7546771E-02  0.1067925E+00
         21   -1    0    0  503  501  0.00000000000E+00  0.00000000000E+00  0.30779651769E+03  0.30779651769E+03  0.00000000000E+00 0.  1.
         21   -1    0    0  501  502 -0.00000000000E+00 -0.00000000000E+00 -0.43940934018E+03  0.43940934018E+03  0.00000000000E+00 0.  1.
         25    1    1    2    0    0  0.15932598740E+03 -0.26982116073E+03  0.10636435838E+03  0.35373239288E+03  0.12500000000E+03 0.  0.
         21    1    1    2  503  502 -0.15932598740E+03  0.26982116073E+03 -0.23797718086E+03  0.39347346499E+03  0.00000000000E+00 0.  1.
<mgrwt>
<rscale>  3 0.33736216E+03</rscale>
<asrwt>0</asrwt>
<pdfrwt beam="1">  1       21 0.47353311E-01 0.33736216E+03</pdfrwt>
<pdfrwt beam="2">  1       21 0.67601437E-01 0.33736216E+03</pdfrwt>
<totfact> 0.78829276E+03</totfact>
</mgrwt>
</event>
<event>
 4    0  0.1466139E-001  0.2800446E+03  0.7546771E-02  0.1095665E+00
         21   -1    0    0  503  501  0.00000000000E+00  0.00000000000E+00  0.11976308289E+03  0.11976308289E+03  0.00000000000E+00 0. -1.
         21   -1    0    0  501  502 -0.00000000000E+00 -0.00000000000E+00 -0.78474058567E+03  0.78474058567E+03  0.00000000000E+00 0. -1.
         25    1    1    2    0    0 -0.87913975889E+02 -0.23467231407E+03 -0.12000369469E+03  0.30467334785E+03  0.12500000000E+03 0.  0.
         21    1    1    2  503  502  0.87913975889E+02  0.23467231407E+03 -0.54497380809E+03  0.59983032072E+03  0.00000000000E+00 0. -1.
<mgrwt>
<rscale>  3 0.28004457E+03</rscale>
<asrwt>0</asrwt>
<pdfrwt beam="1">  1       21 0.18425090E-01 0.28004457E+03</pdfrwt>
<pdfrwt beam="2">  1       21 0.12072932E+00 0.28004457E+03</pdfrwt>
<totfact> 0.13289852E+04</totfact>
</mgrwt>
</event>
<event>
 4    0  0.1256924E-001  0.2434071E+03  0.7546771E-02  0.1117544E+00
         21   -1    0    0  502  501  0.00000000000E+00  0.00000000000E+00  0.43124585653E+03  0.43124585653E+03  0.00000000000E+00 0. -1.
         21   -1    0    0  503  502 -0.00000000000E+00 -0.00000000000E+00 -0.30793924360E+03  0.30793924360E+03  0.00000000000E+00 0. -1.
         25    1    1    2    0    0  0.10069226409E+03  0.18298377130E+03  0.35296661333E+03  0.42875683403E+03  0.12500000000E+03 0.  0.
         21    1    1    2  503  501 -0.10069226409E+03 -0.18298377130E+03 -0.22966000040E+03  0.31042826609E+03  0.00000000000E+00 0. -1.
<mgrwt>
<rscale>  3 0.24340705E+03</rscale>
<asrwt>0</asrwt>
<pdfrwt beam="1">  1       21 0.66345516E-01 0.24340705E+03</pdfrwt>
<pdfrwt beam="2">  1       21 0.47375268E-01 0.24340705E+03</pdfrwt>
<totfact> 0.85946715E+03</totfact>
</mgrwt>
</event>
<event>
 4    0  0.1289391E-001  0.2766008E+03  0.7546771E-02  0.1097560E+00
         21   -1    0    0  502  501  0.00000000000E+00  0.00000000000E+00  0.34389531447E+03  0.34389531447E+03  0.00000000000E+00 0.  1.
         21   -1    0    0  503  502 -0.00000000000E+00 -0.00000000000E+00 -0.34896118188E+03  0.34896118188E+03  0.00000000000E+00 0.  1.
         25    1    1    2    0    0 -0.10849788979E+03 -0.22161048164E+03  0.22418963972E+03  0.35604633437E+03  0.12500000000E+03 0.  0.
         21    1    1    2  503  501  0.10849788979E+03  0.22161048164E+03 -0.22925550713E+03  0.33681016198E+03  0.00000000000E+00 0.  1.
<mgrwt>
<rscale>  3 0.27660079E+03</rscale>
<asrwt>0</asrwt>
<pdfrwt beam="1">  1       21 0.52906971E-01 0.27660079E+03</pdfrwt>
<pdfrwt beam="2">  1       21 0.53686336E-01 0.27660079E+03</pdfrwt>
<totfact> 0.10581348E+04</totfact>
</mgrwt>
</event>
<event>
 4    0  0.1003929E-001  0.2836826E+03  0.7546771E-02  0.1093694E+00
         21   -1    0    0  503  501  0.00000000000E+00  0.00000000000E+00  0.24577474132E+03  0.24577474132E+03  0.00000000000E+00 0.  1.
         21   -1    0    0  501  502 -0.00000000000E+00 -0.00000000000E+00 -0.30554283238E+03  0.30554283238E+03  0.00000000000E+00 0. -1.
         25    1    1    2    0    0 -0.21777071474E+03 -0.13201031894E+03  0.20194079006E+02  0.28440043834E+03  0.12500000000E+03 0.  0.
         21    1    1    2  503  502  0.21777071474E+03  0.13201031894E+03 -0.79962170066E+02  0.26691713535E+03  0.00000000000E+00 0. -1.
<mgrwt>
<rscale>  3 0.28368258E+03</rscale>
<asrwt>0</asrwt>
<pdfrwt beam="1">  1       21 0.37811499E-01 0.28368258E+03</pdfrwt>
<pdfrwt beam="2">  1       21 0.47006589E-01 0.28368258E+03</pdfrwt>
<totfact> 0.27983095E+04</totfact>
</mgrwt>
</event>
<event>
 4    0  0.1414767E-001  0.2733094E+03  0.7546771E-02  0.1099400E+00
         21   -1    0    0  503  501  0.00000000000E+00  0.00000000000E+00  0.36375521943E+03  0.36375521943E+03  0.00000000000E+00 0. -1.
         21   -1    0    0  501  502 -0.00000000000E+00 -0.00000000000E+00 -0.19214950037E+03  0.19214950037E+03  0.00000000000E+00 0. -1.
         25    1    1    2    0    0  0.24068997471E+03  0.33784046172E+02  0.15033247794E+03  0.31192608039E+03  0.12500000000E+03 0.  0.
         21    1    1    2  503  502 -0.24068997471E+03 -0.33784046172E+02  0.21273241125E+02  0.24397863941E+03  0.00000000000E+00 0. -1.
<mgrwt>
<rscale>  3 0.27330940E+03</rscale>
<asrwt>0</asrwt>
<pdfrwt beam="1">  1       21 0.55962341E-01 0.27330940E+03</pdfrwt>
<pdfrwt beam="2">  1       21 0.29561462E-01 0.27330940E+03</pdfrwt>
<totfact> 0.31739475E+04</totfact>
</mgrwt>
</event>
<event>
 4    0  0.1044363E-001  0.2842471E+03  0.7546771E-02  0.1093392E+00
         21   -1    0    0  503  501  0.00000000000E+00  0.00000000000E+00  0.69198804199E+03  0.69198804199E+03  0.00000000000E+00 0.  1.
         21   -1    0    0  501  502 -0.00000000000E+00 -0.00000000000E+00 -0.35251161444E+03  0.35251161444E+03  0.00000000000E+00 0.  1.
         25    1    1    2    0    0  0.20905999532E+02  0.25442944474E+03  0.60973287742E+03  0.67273366571E+03  0.12500000000E+03 0.  0.
         21    1    1    2  503  502 -0.20905999532E+02 -0.25442944474E+03 -0.27025644987E+03  0.37176599073E+03  0.00000000000E+00 0.  1.
<mgrwt>
<rscale>  3 0.28424708E+03</rscale>
<asrwt>0</asrwt>
<pdfrwt beam="1">  1       21 0.10645970E+00 0.28424708E+03</pdfrwt>
<pdfrwt beam="2">  1       21 0.54232556E-01 0.28424708E+03</pdfrwt>
<totfact> 0.21189645E+03</totfact>
</mgrwt>
</event>
<event>
 4    0  0.1134494E-001  0.3685174E+03  0.7546771E-02  0.1055261E+00
         21   -1    0    0  503  501  0.00000000000E+00  0.00000000000E+00  0.14595916693E+04  0.14595916693E+04  0.00000000000E+00 0.  1.
         21   -1    0    0  501  502 -0.00000000000E+00 -0.00000000000E+00 -0.14526593901E+03  0.14526593901E+03  0.00000000000E+00 0. -1.
         25    1    1    2    0    0  0.15752149506E+03 -0.30881559025E+03  0.11746619785E+04  0.12311116334E+04  0.12500000000E+03 0.  0.
         21    1    1    2  503  502 -0.15752149506E+03  0.30881559025E+03  0.13966375178E+03  0.37374597489E+03  0.00000000000E+00 0. -1.
<mgrwt>
<rscale>  3 0.36851742E+03</rscale>
<asrwt>0</asrwt>
<pdfrwt beam="1">  1       21 0.22455255E+00 0.36851742E+03</pdfrwt>
<pdfrwt beam="2">  1       21 0.22348607E-01 0.36851742E+03</pdfrwt>
<totfact> 0.15381386E+03</totfact>
</mgrwt>
</event>
<event>
 4    0  0.1114165E-001  0.4852053E+03  0.7546771E-02  0.1017714E+00
         21   -1    0    0  503  501  0.00000000000E+00  0.00000000000E+00  0.30141651534E+03  0.30141651534E+03  0.00000000000E+00 0. -1.
         21   -1    0    0  501  502 -0.00000000000E+00 -0.00000000000E+00 -0.11943404318E+04  0.11943404318E+04  0.00000000000E+00 0. -1.
         25    1    1    2    0    0  0.30669399114E+02 -0.46782319803E+03  0.22881398817E+01  0.48521066790E+03  0.12500000000E+03 0.  0.
         21    1    1    2  503  502 -0.30669399114E+02  0.46782319803E+03 -0.89521205634E+03  0.10105462792E+04  0.00000000000E+00 0. -1.
<mgrwt>
<rscale>  3 0.48520527E+03</rscale>
<asrwt>0</asrwt>
<pdfrwt beam="1">  1       21 0.46371771E-01 0.48520527E+03</pdfrwt>
<pdfrwt beam="2">  1       21 0.18374468E+00 0.48520527E+03</pdfrwt>
<totfact> 0.62518537E+02</totfact>
</mgrwt>
</event>
<event>
 4    0  0.1003929E-001  0.2796852E+03  0.7546771E-02  0.1095861E+00
         21   -1    0    0  503  501  0.00000000000E+00  0.00000000000E+00  0.33357667185E+02  0.33357667185E+02  0.00000000000E+00 0.  1.
         21   -1    0    0  501  502 -0.00000000000E+00 -0.00000000000E+00 -0.22801333658E+04  0.22801333658E+04  0.00000000000E+00 0.  1.
         25    1    1    2    0    0  0.52226501512E+02  0.24468587265E+03 -0.86029998104E+03  0.90462137998E+03  0.12500000000E+03 0.  0.
         21    1    1    2  503  502 -0.52226501512E+02 -0.24468587265E+03 -0.13864757175E+04  0.14088696530E+04  0.00000000000E+00 0.  1.
<mgrwt>
<rscale>  3 0.27968515E+03</rscale>
<asrwt>0</asrwt>
<pdfrwt beam="1">  1       21 0.51319485E-02 0.27968515E+03</pdfrwt>
<pdfrwt beam="2">  1       21 0.35078977E+00 0.27968515E+03</pdfrwt>
<totfact> 0.40561123E+03</totfact>
</mgrwt>
</event>
<event>
 4    0  0.1187618E-001  0.2517336E+03  0.7546771E-02  0.1112214E+00
         21   -1    0    0  502  501  0.00000000000E+00  0.00000000000E+00  0.10722121884E+04  0.10722121884E+04  0.00000000000E+00 0.  1.
         21   -1    0    0  503  502 -0.00000000000E+00 -0.00000000000E+00 -0.77952629551E+02  0.77952629551E+02  0.00000000000E+00 0.  1.
         25    1    1    2    0    0  0.15385307015E+03 -0.15515809937E+03  0.85444535062E+03  0.89075622938E+03  0.12500000000E+03 0.  0.
         21    1    1    2  503  501 -0.15385307015E+03  0.15515809937E+03  0.13981420821E+03  0.25940858855E+03  0.00000000000E+00 0.  1.
<mgrwt>
<rscale>  3 0.25173360E+03</rscale>
<asrwt>0</asrwt>
<pdfrwt beam="1">  1       21 0.16495571E+00 0.25173360E+03</pdfrwt>
<pdfrwt beam="2">  1       21 0.11992713E-01 0.25173360E+03</pdfrwt>
<totfact> 0.13082628E+04</totfact>
</mgrwt>
</event>
<event>
 4    0  0.1118904E-001  0.2676714E+03  0.7546771E-02  0.1102620E+00
         21   -1    0    0  503  501  0.00000000000E+00  0.00000000000E+00  0.15052258284E+04  0.15052258284E+04  0.00000000000E+00 0. -1.
         21   -1    0    0  501  502 -0.00000000000E+00 -0.00000000000E+00 -0.46088443248E+02  0.46088443248E+02  0.00000000000E+00 0. -1.
         25    1    1    2    0    0 -0.30446232804E+02  0.23472543831E+03  0.54718501004E+03  0.60914648459E+03  0.12500000000E+03 0.  0.
         21    1    1    2  503  502  0.30446232804E+02 -0.23472543831E+03  0.91195237507E+03  0.94216778701E+03  0.00000000000E+00 0. -1.
<mgrwt>
<rscale>  3 0.26767145E+03</rscale>
<asrwt>0</asrwt>
<pdfrwt beam="1">  1       21 0.23157317E+00 0.26767145E+03</pdfrwt>
<pdfrwt beam="2">  1       21 0.70905309E-02 0.26767145E+03</pdfrwt>
<totfact> 0.11950996E+04</totfact>
</mgrwt>
</event>
<event>
 4    0  0.1003929E-001  0.2577979E+03  0.7546771E-02  0.1108474E+00
         21   -1    0    0  503  501  0.00000000000E+00  0.00000000000E+00  0.90305983119E+02  0.90305983119E+02  0.00000000000E+00 0.  1.
         21   -1    0    0  501  502 -0.00000000000E+00 -0.00000000000E+00 -0.64653834479E+03  0.64653834479E+03  0.00000000000E+00 0. -1.
         25    1    1    2    0    0 -0.12936856814E+03  0.18465793700E+03 -0.29583048637E+03  0.39239706521E+03  0.12500000000E+03 0.  0.
         21    1    1    2  503  502  0.12936856814E+03 -0.18465793700E+03 -0.26040187529E+03  0.34444726269E+03  0.00000000000E+00 0. -1.
<mgrwt>
<rscale>  3 0.25779794E+03</rscale>
<asrwt>0</asrwt>
<pdfrwt beam="1">  1       21 0.13893228E-01 0.25779794E+03</pdfrwt>
<pdfrwt beam="2">  1       21 0.99467436E-01 0.25779794E+03</pdfrwt>
<totfact> 0.36300257E+04</totfact>
</mgrwt>
</event>
<event>
 4    0  0.1301711E-001  0.2847250E+03  0.7546771E-02  0.1093136E+00
         21   -1    0    0  502  501  0.00000000000E+00  0.00000000000E+00  0.10863901347E+04  0.10863901347E+04  0.00000000000E+00 0. -1.
         21   -1    0    0  503  502 -0.00000000000E+00 -0.00000000000E+00 -0.75810465190E+02  0.75810465190E+02  0.00000000000E+00 0. -1.
         25    1    1    2    0    0  0.20219847934E+03 -0.15671345861E+03  0.72441144575E+03  0.77835742168E+03  0.12500000000E+03 0.  0.
         21    1    1    2  503  501 -0.20219847934E+03  0.15671345861E+03  0.28616822372E+03  0.38384317816E+03  0.00000000000E+00 0. -1.
<mgrwt>
<rscale>  3 0.28472501E+03</rscale>
<asrwt>0</asrwt>
<pdfrwt beam="1">  1       21 0.16713693E+00 0.28472501E+03</pdfrwt>
<pdfrwt beam="2">  1       21 0.11663149E-01 0.28472501E+03</pdfrwt>
<totfact> 0.13023332E+04</totfact>
</mgrwt>
</event>
<event>
 4    0  0.1003929E-001  0.5412497E+03  0.7546771E-02  0.1003540E+00
         21   -1    0    0  503  501  0.00000000000E+00  0.00000000000E+00  0.21288599584E+04  0.21288599584E+04  0.00000000000E+00 0.  1.
         21   -1    0    0  501  502 -0.00000000000E+00 -0.00000000000E+00 -0.20416229918E+03  0.20416229918E+03  0.00000000000E+00 0.  1.
         25    1    1    2    0    0 -0.34206567621E+03  0.40039648121E+03  0.16552099144E+04  0.17414566115E+04  0.12500000000E+03 0.  0.
         21    1    1    2  503  502  0.34206567621E+03 -0.40039648121E+03  0.26948774482E+03  0.59156564607E+03  0.00000000000E+00 0.  1.
<mgrwt>
<rscale>  3 0.54124973E+03</rscale>
<asrwt>0</asrwt>
<pdfrwt beam="1">  1       21 0.32751690E+00 0.54124973E+03</pdfrwt>
<pdfrwt beam="2">  1       21 0.31409586E-01 0.54124973E+03</pdfrwt>
<totfact> 0.16958845E+02</totfact>
</mgrwt>
</event>
<event>
 4    0  0.1150863E-001  0.2394990E+03  0.7546771E-02  0.1120127E+00
         21   -1    0    0  502  501  0.00000000000E+00  0.00000000000E+00  0.10802029099E+04  0.10802029099E+04  0.00000000000E+00 0. -1.
         21   -1    0    0  503  502 -0.00000000000E+00 -0.00000000000E+00 -0.14622967929E+03  0.14622967929E+03  0.00000000000E+00 0. -1.
         25    1    1    2    0    0  0.19952515585E+03 -0.43869186273E+02  0.98677898493E+03  0.10154272787E+04  0.12500000000E+03 0.  0.
         21    1    1    2  503  501 -0.19952515585E+03  0.43869186273E+02 -0.52805754362E+02  0.21100531040E+03  0.00000000000E+00 0. -1.
<mgrwt>
<rscale>  3 0.23949905E+03</rscale>
<asrwt>0</asrwt>
<pdfrwt beam="1">  1       21 0.16618506E+00 0.23949905E+03</pdfrwt>
<pdfrwt beam="2">  1       21 0.22496874E-01 0.23949905E+03</pdfrwt>
<totfact> 0.40439279E+03</totfact>
</mgrwt>
</event>
<event>
 4    0  0.1003929E-001  0.4154226E+03  0.7546771E-02  0.1038566E+00
         21   -1    0    0  503  501  0.00000000000E+00  0.00000000000E+00  0.81893225913E+02  0.81893225913E+02  0.00000000000E+00 0.  1.
         21   -1    0    0  501  502 -0.00000000000E+00 -0.00000000000E+00 -0.22123890385E+04  0.22123890385E+04  0.00000000000E+00 0.  1.
         25    1    1    2    0    0  0.97778084587E+02 -0.38391455143E+03 -0.74202826014E+03  0.85040100863E+03  0.12500000000E+03 0.  0.
         21    1    1    2  503  502 -0.97778084587E+02  0.38391455143E+03 -0.13884675525E+04  0.14438812558E+04  0.00000000000E+00 0.  1.
<mgrwt>
<rscale>  3 0.41542260E+03</rscale>
<asrwt>0</asrwt>
<pdfrwt beam="1">  1       21 0.12598958E-01 0.41542260E+03</pdfrwt>
<pdfrwt beam="2">  1       21 0.34036753E+00 0.41542260E+03</pdfrwt>
<totfact> 0.86926866E+02</totfact>
</mgrwt>
</event>
<event>
 4    0  0.1044270E-001  0.2877446E+03  0.7546771E-02  0.1091533E+00
         21   -1    0    0  503  501  0.00000000000E+00  0.00000000000E+00  0.79444372378E+03  0.79444372378E+03  0.00000000000E+00 0.  1.
         21   -1    0    0  501  502 -0.00000000000E+00 -0.00000000000E+00 -0.21846127035E+03  0.21846127035E+03  0.00000000000E+00 0.  1.
         25    1    1    2    0    0  0.19640128304E+02  0.25843035591E+03  0.67631840880E+03  0.73498542406E+03  0.12500000000E+03 0.  0.
         21    1    1    2  503  502 -0.19640128304E+02 -0.25843035591E+03 -0.10033595537E+03  0.27791957008E+03  0.00000000000E+00 0.  1.
<mgrwt>
<rscale>  3 0.28774465E+03</rscale>
<asrwt>0</asrwt>
<pdfrwt beam="1">  1       21 0.12222211E+00 0.28774465E+03</pdfrwt>
<pdfrwt beam="2">  1       21 0.33609427E-01 0.28774465E+03</pdfrwt>
<totfact> 0.40271041E+03</totfact>
</mgrwt>
</event>
<event>
 4    0  0.1003929E-001  0.2385773E+03  0.7546771E-02  0.1120744E+00
         21   -1    0    0  503  501  0.00000000000E+00  0.00000000000E+00  0.82755840171E+03  0.82755840171E+03  0.00000000000E+00 0. -1.
         21   -1    0    0  501  502 -0.00000000000E+00 -0.00000000000E+00 -0.84448456408E+02  0.84448456408E+02  0.00000000000E+00 0. -1.
         25    1    1    2    0    0  0.17531818401E+03 -0.10275055188E+03  0.14236947425E+03  0.27782766017E+03  0.12500000000E+03 0.  0.
         21    1    1    2  503  502 -0.17531818401E+03  0.10275055188E+03  0.60074047105E+03  0.63417919795E+03  0.00000000000E+00 0. -1.
<mgrwt>
<rscale>  3 0.23857733E+03</rscale>
<asrwt>0</asrwt>
<pdfrwt beam="1">  1       21 0.12731667E+00 0.23857733E+03</pdfrwt>
<pdfrwt beam="2">  1       21 0.12992071E-01 0.23857733E+03</pdfrwt>
<totfact> 0.22563733E+04</totfact>
</mgrwt>
</event>
<event>
 4    0  0.1306126E-001  0.2414461E+03  0.7546771E-02  0.1118833E+00
         21   -1    0    0  503  501  0.00000000000E+00  0.00000000000E+00  0.23604405375E+03  0.23604405375E+03  0.00000000000E+00 0.  1.
         21   -1    0    0  501  502 -0.00000000000E+00 -0.00000000000E+00 -0.21558181550E+03  0.21558181550E+03  0.00000000000E+00 0.  1.
         25    1    1    2    0    0 -0.17778752951E+03  0.10517992529E+03 -0.15523789817E+02  0.24194464322E+03  0.12500000000E+03 0.  0.
         21    1    1    2  503  502  0.17778752951E+03 -0.10517992529E+03  0.35986028075E+02  0.20968122603E+03  0.00000000000E+00 0.  1.
<mgrwt>
<rscale>  3 0.24144611E+03</rscale>
<asrwt>0</asrwt>
<pdfrwt beam="1">  1       21 0.36314470E-01 0.24144611E+03</pdfrwt>
<pdfrwt beam="2">  1       21 0.33166433E-01 0.24144611E+03</pdfrwt>
<totfact> 0.62693805E+04</totfact>
</mgrwt>
</event>
<event>
 4    0  0.1003929E-001  0.3909869E+03  0.7546771E-02  0.1046946E+00
         21   -1    0    0  503  501  0.00000000000E+00  0.00000000000E+00  0.38392570691E+03  0.38392570691E+03  0.00000000000E+00 0. -1.
         21   -1    0    0  501  502 -0.00000000000E+00 -0.00000000000E+00 -0.50214611723E+03  0.50214611723E+03  0.00000000000E+00 0.  1.
         25    1    1    2    0    0 -0.31572915685E+03  0.19380615173E+03  0.16031436139E+03  0.42257711652E+03  0.12500000000E+03 0.  0.
         21    1    1    2  503  502  0.31572915685E+03 -0.19380615173E+03 -0.27853477171E+03  0.46349470762E+03  0.00000000000E+00 0.  1.
<mgrwt>
<rscale>  3 0.39098686E+03</rscale>
<asrwt>0</asrwt>
<pdfrwt beam="1">  1       21 0.59065493E-01 0.39098686E+03</pdfrwt>
<pdfrwt beam="2">  1       21 0.77253249E-01 0.39098686E+03</pdfrwt>
<totfact> 0.35605109E+03</totfact>
</mgrwt>
</event>
<event>
 4    0  0.1266594E-001  0.2513561E+03  0.7546771E-02  0.1112451E+00
         21   -1    0    0  502  501  0.00000000000E+00  0.00000000000E+00  0.52776735245E+02  0.52776735245E+02  0.00000000000E+00 0.  1.
         21   -1    0    0  503  502 -0.00000000000E+00 -0.00000000000E+00 -0.10670689060E+04  0.10670689060E+04  0.00000000000E+00 0.  1.
         25    1    1    2    0    0  0.18584535148E+03 -0.11408948320E+03 -0.45991249943E+03  0.52411774629E+03  0.12500000000E+03 0.  0.
         21    1    1    2  503  501 -0.18584535148E+03  0.11408948320E+03 -0.55437967133E+03  0.59572789496E+03  0.00000000000E+00 0.  1.
<mgrwt>
<rscale>  3 0.25135613E+03</rscale>
<asrwt>0</asrwt>
<pdfrwt beam="1">  1       21 0.81194983E-02 0.25135613E+03</pdfrwt>
<pdfrwt beam="2">  1       21 0.16416444E+00 0.25135613E+03</pdfrwt>
<totfact> 0.26505841E+04</totfact>
</mgrwt>
</event>
<event>
 4    0  0.1003929E-001  0.2986267E+03  0.7546771E-02  0.1085929E+00
         21   -1    0    0  502  501  0.00000000000E+00  0.00000000000E+00  0.58731881810E+02  0.58731881810E+02  0.00000000000E+00 0.  1.
         21   -1    0    0  503  502 -0.00000000000E+00 -0.00000000000E+00 -0.18998314049E+04  0.18998314049E+04  0.00000000000E+00 0.  1.
         25    1    1    2    0    0  0.77938875003E+02  0.25976608233E+03 -0.44202819334E+03  0.53344803822E+03  0.12500000000E+03 0.  0.
         21    1    1    2  503  501 -0.77938875003E+02 -0.25976608233E+03 -0.13990713298E+04  0.14251152485E+04  0.00000000000E+00 0.  1.
<mgrwt>
<rscale>  3 0.29862667E+03</rscale>
<asrwt>0</asrwt>
<pdfrwt beam="1">  1       21 0.90356749E-02 0.29862667E+03</pdfrwt>
<pdfrwt beam="2">  1       21 0.29228173E+00 0.29862667E+03</pdfrwt>
<totfact> 0.33181993E+03</totfact>
</mgrwt>
</event>
<event>
 4    0  0.1003929E-001  0.4153525E+03  0.7546771E-02  0.1038590E+00
         21   -1    0    0  502  501  0.00000000000E+00  0.00000000000E+00  0.10661674848E+04  0.10661674848E+04  0.00000000000E+00 0.  1.
         21   -1    0    0  503  502 -0.00000000000E+00 -0.00000000000E+00 -0.17206994782E+03  0.17206994782E+03  0.00000000000E+00 0. -1.
         25    1    1    2    0    0  0.39607587564E+03  0.40727179770E+01  0.65493613241E+03  0.77553789323E+03  0.12500000000E+03 0.  0.
         21    1    1    2  503  501 -0.39607587564E+03 -0.40727179770E+01  0.23916140452E+03  0.46269953935E+03  0.00000000000E+00 0. -1.
<mgrwt>
<rscale>  3 0.41535248E+03</rscale>
<asrwt>0</asrwt>
<pdfrwt beam="1">  1       21 0.16402576E+00 0.41535248E+03</pdfrwt>
<pdfrwt beam="2">  1       21 0.26472300E-01 0.41535248E+03</pdfrwt>
<totfact> 0.27815337E+03</totfact>
</mgrwt>
</event>
<event>
 4    0  0.1004280E-001  0.2603348E+03  0.7546771E-02  0.1106942E+00
         21   -1    0    0  503  501  0.00000000000E+00  0.00000000000E+00  0.49318044387E+03  0.49318044387E+03  0.00000000000E+00 0.  1.
         21   -1    0    0  501  502 -0.00000000000E+00 -0.00000000000E+00 -0.83583879445E+03  0.83583879445E+03  0.00000000000E+00 0.  1.
         25    1    1    2    0    0 -0.10538894813E+03  0.20258913260E+03  0.44136087991E+03  0.51241937253E+03  0.12500000000E+03 0.  0.
         21    1    1    2  503  502  0.10538894813E+03 -0.20258913260E+03 -0.78401923048E+03  0.81659986579E+03  0.00000000000E+00 0.  1.
<mgrwt>
<rscale>  3 0.26033476E+03</rscale>
<asrwt>0</asrwt>
<pdfrwt beam="1">  1       21 0.75873916E-01 0.26033476E+03</pdfrwt>
<pdfrwt beam="2">  1       21 0.12859058E+00 0.26033476E+03</pdfrwt>
<totfact> 0.64579457E+02</totfact>
</mgrwt>
</event>
<event>
 4    0  0.1658641E-001  0.2497812E+03  0.7546771E-02  0.1113443E+00
         21   -1    0    0  502  501  0.00000000000E+00  0.00000000000E+00  0.34893152155E+03  0.34893152155E+03  0.00000000000E+00 0. -1.
         21   -1    0    0  503  502 -0.00000000000E+00 -0.00000000000E+00 -0.47338287872E+03  0.47338287872E+03  0.00000000000E+00 0.  1.
         25    1    1    2    0    0  0.21426177334E+03  0.29284206244E+02  0.27288442908E+03  0.36994132492E+03  0.12500000000E+03 0.  0.
         21    1    1    2  503  501 -0.21426177334E+03 -0.29284206244E+02 -0.39733578625E+03  0.45237307534E+03  0.00000000000E+00 0.  1.
<mgrwt>
<rscale>  3 0.24978125E+03</rscale>
<asrwt>0</asrwt>
<pdfrwt beam="1">  1       21 0.53681773E-01 0.24978125E+03</pdfrwt>
<pdfrwt beam="2">  1       21 0.72828135E-01 0.24978125E+03</pdfrwt>
<totfact> 0.53558800E+03</totfact>
</mgrwt>
</event>
<event>
 4    0  0.1003929E-001  0.3035447E+03  0.7546771E-02  0.1083482E+00
         21   -1    0    0  502  501  0.00000000000E+00  0.00000000000E+00  0.14393666286E+04  0.14393666286E+04  0.00000000000E+00 0. -1.
         21   -1    0    0  503  502 -0.00000000000E+00 -0.00000000000E+00 -0.36355586976E+03  0.36355586976E+03  0.00000000000E+00 0. -1.
         25    1    1    2    0    0  0.27596457468E+03 -0.18919708451E+02  0.13675865173E+04  0.14008684036E+04  0.12500000000E+03 0.  0.
         21    1    1    2  503  501 -0.27596457468E+03  0.18919708451E+02 -0.29177575851E+03  0.40205409474E+03  0.00000000000E+00 0. -1.
<mgrwt>
<rscale>  3 0.30354473E+03</rscale>
<asrwt>0</asrwt>
<pdfrwt beam="1">  1       21 0.22144102E+00 0.30354473E+03</pdfrwt>
<pdfrwt beam="2">  1       21 0.55931673E-01 0.30354473E+03</pdfrwt>
<totfact> 0.26390757E+02</totfact>
</mgrwt>
</event>
<event>
 4    0  0.1537909E-001  0.2678625E+03  0.7546771E-02  0.1102509E+00
         21   -1    0    0  503  501  0.00000000000E+00  0.00000000000E+00  0.21250085866E+03  0.21250085866E+03  0.00000000000E+00 0.  1.
         21   -1    0    0  501  502 -0.00000000000E+00 -0.00000000000E+00 -0.84271518473E+03  0.84271518473E+03  0.00000000000E+00 0. -1.
         25    1    1    2    0    0  0.12405839398E+03  0.20182868685E+03  0.10123741292E+03  0.28635522996E+03  0.12500000000E+03 0.  0.
         21    1    1    2  503  502 -0.12405839398E+03 -0.20182868685E+03 -0.73145173899E+03  0.76886081343E+03  0.00000000000E+00 0. -1.
<mgrwt>
<rscale>  3 0.26786247E+03</rscale>
<asrwt>0</asrwt>
<pdfrwt beam="1">  1       21 0.32692440E-01 0.26786247E+03</pdfrwt>
<pdfrwt beam="2">  1       21 0.12964849E+00 0.26786247E+03</pdfrwt>
<totfact> 0.37073013E+03</totfact>
</mgrwt>
</event>
<event>
 4    0  0.1003929E-001  0.5451779E+03  0.7546771E-02  0.1002616E+00
         21   -1    0    0  503  501  0.00000000000E+00  0.00000000000E+00  0.20238469380E+04  0.20238469380E+04  0.00000000000E+00 0. -1.
         21   -1    0    0  501  502 -0.00000000000E+00 -0.00000000000E+00 -0.14300273324E+03  0.14300273324E+03  0.00000000000E+00 0. -1.
         25    1    1    2    0    0  0.42693226187E+03 -0.31515523309E+03  0.96895830943E+03  0.11117999742E+04  0.12500000000E+03 0.  0.
         21    1    1    2  503  502 -0.42693226187E+03  0.31515523309E+03  0.91188589537E+03  0.10550496971E+04  0.00000000000E+00 0. -1.
<mgrwt>
<rscale>  3 0.54517793E+03</rscale>
<asrwt>0</asrwt>
<pdfrwt beam="1">  1       21 0.31136105E+00 0.54517793E+03</pdfrwt>
<pdfrwt beam="2">  1       21 0.22000422E-01 0.54517793E+03</pdfrwt>
<totfact> 0.42731703E+02</totfact>
</mgrwt>
</event>
<event>
 4    0  0.1003929E-001  0.2796339E+03  0.7546771E-02  0.1095889E+00
         21   -1    0    0  503  501  0.00000000000E+00  0.00000000000E+00  0.25038360789E+04  0.25038360789E+04  0.00000000000E+00 0. -1.
         21   -1    0    0  501  502 -0.00000000000E+00 -0.00000000000E+00 -0.77332910153E+02  0.77332910153E+02  0.00000000000E+00 0. -1.
         25    1    1    2    0    0 -0.15006036674E+03 -0.20012996467E+03  0.22677035610E+04  0.22848795498E+04  0.12500000000E+03 0.  0.
         21    1    1    2  503  502  0.15006036674E+03  0.20012996467E+03  0.15879960781E+03  0.29628943934E+03  0.00000000000E+00 0. -1.
<mgrwt>
<rscale>  3 0.27963390E+03</rscale>
<asrwt>0</asrwt>
<pdfrwt beam="1">  1       21 0.38520549E+00 0.27963390E+03</pdfrwt>
<pdfrwt beam="2">  1       21 0.11897373E-01 0.27963390E+03</pdfrwt>
<totfact> 0.57180040E+02</totfact>
</mgrwt>
</event>
<event>
 4    0  0.1003929E-001  0.3401180E+03  0.7546771E-02  0.1066746E+00
         21   -1    0    0  503  501  0.00000000000E+00  0.00000000000E+00  0.12368520234E+04  0.12368520234E+04  0.00000000000E+00 0.  1.
         21   -1    0    0  501  502 -0.00000000000E+00 -0.00000000000E+00 -0.92581469238E+02  0.92581469238E+02  0.00000000000E+00 0. -1.
         25    1    1    2    0    0  0.18045044678E+03  0.25979394267E+03  0.75333857690E+03  0.82655868989E+03  0.12500000000E+03 0.  0.
         21    1    1    2  503  502 -0.18045044678E+03 -0.25979394267E+03  0.39093197727E+03  0.50287480275E+03  0.00000000000E+00 0. -1.
<mgrwt>
<rscale>  3 0.34011800E+03</rscale>
<asrwt>0</asrwt>
<pdfrwt beam="1">  1       21 0.19028492E+00 0.34011800E+03</pdfrwt>
<pdfrwt beam="2">  1       21 0.14243304E-01 0.34011800E+03</pdfrwt>
<totfact> 0.60677071E+03</totfact>
</mgrwt>
</event>
<event>
 4    0  0.1492455E-001  0.2586817E+03  0.7546771E-02  0.1107938E+00
         21   -1    0    0  503  501  0.00000000000E+00  0.00000000000E+00  0.20668670388E+03  0.20668670388E+03  0.00000000000E+00 0. -1.
         21   -1    0    0  501  502 -0.00000000000E+00 -0.00000000000E+00 -0.72079808924E+03  0.72079808924E+03  0.00000000000E+00 0. -1.
         25    1    1    2    0    0  0.22644639761E+03  0.36402329273E+01  0.96602048295E+02  0.27613072633E+03  0.12500000000E+03 0.  0.
         21    1    1    2  503  502 -0.22644639761E+03 -0.36402329273E+01 -0.61071343365E+03  0.65135406680E+03  0.00000000000E+00 0. -1.
<mgrwt>
<rscale>  3 0.25868170E+03</rscale>
<asrwt>0</asrwt>
<pdfrwt beam="1">  1       21 0.31797954E-01 0.25868170E+03</pdfrwt>
<pdfrwt beam="2">  1       21 0.11089201E+00 0.25868170E+03</pdfrwt>
<totfact> 0.58190818E+03</totfact>
</mgrwt>
</event>
<event>
 4    0  0.1523633E-001  0.3309178E+03  0.7546771E-02  0.1070732E+00
         21   -1    0    0  503  501  0.00000000000E+00  0.00000000000E+00  0.65982494409E+03  0.65982494409E+03  0.00000000000E+00 0. -1.
         21   -1    0    0  501  502 -0.00000000000E+00 -0.00000000000E+00 -0.16123595161E+03  0.16123595161E+03  0.00000000000E+00 0. -1.
         25    1    1    2    0    0 -0.29156201777E+03  0.94197429761E+02  0.34598293682E+03  0.47875960413E+03  0.12500000000E+03 0.  0.
         21    1    1    2  503  502  0.29156201777E+03 -0.94197429761E+02  0.15260605566E+03  0.34230129156E+03  0.00000000000E+00 0. -1.
<mgrwt>
<rscale>  3 0.33091776E+03</rscale>
<asrwt>0</asrwt>
<pdfrwt beam="1">  1       21 0.10151153E+00 0.33091776E+03</pdfrwt>
<pdfrwt beam="2">  1       21 0.24805531E-01 0.33091776E+03</pdfrwt>
<totfact> 0.11311371E+04</totfact>
</mgrwt>
</event>
<event>
 4    0  0.1244151E-001  0.2926343E+03  0.7546771E-02  0.1088982E+00
         21   -1    0    0  502  501  0.00000000000E+00  0.00000000000E+00  0.50653942744E+03  0.50653942744E+03  0.00000000000E+00 0. -1.
         21   -1    0    0  503  502 -0.00000000000E+00 -0.00000000000E+00 -0.19103552096E+03  0.19103552096E+03  0.00000000000E+00 0. -1.
         25    1    1    2    0    0  0.22059609580E+03 -0.14610686258E+03  0.91525045784E+01  0.29277742590E+03  0.12500000000E+03 0.  0.
         21    1    1    2  503  501 -0.22059609580E+03  0.14610686258E+03  0.30635140190E+03  0.40479752250E+03  0.00000000000E+00 0. -1.
<mgrwt>
<rscale>  3 0.29263433E+03</rscale>
<asrwt>0</asrwt>
<pdfrwt beam="1">  1       21 0.77929142E-01 0.29263433E+03</pdfrwt>
<pdfrwt beam="2">  1       21 0.29390080E-01 0.29263433E+03</pdfrwt>
<totfact> 0.15344856E+04</totfact>
</mgrwt>
</event>
<event>
 4    0  0.1003929E-001  0.3120164E+03  0.7546771E-02  0.1079383E+00
         21   -1    0    0  503  501  0.00000000000E+00  0.00000000000E+00  0.22107869900E+03  0.22107869900E+03  0.00000000000E+00 0. -1.
         21   -1    0    0  501  502 -0.00000000000E+00 -0.00000000000E+00 -0.40639284613E+03  0.40639284613E+03  0.00000000000E+00 0.  1.
         25    1    1    2    0    0  0.19443686650E+03  0.20957936824E+03 -0.73923301930E+02  0.32065380274E+03  0.12500000000E+03 0.  0.
         21    1    1    2  503  502 -0.19443686650E+03 -0.20957936824E+03 -0.11139084520E+03  0.30681774238E+03  0.00000000000E+00 0.  1.
<mgrwt>
<rscale>  3 0.31201636E+03</rscale>
<asrwt>0</asrwt>
<pdfrwt beam="1">  1       21 0.34012108E-01 0.31201636E+03</pdfrwt>
<pdfrwt beam="2">  1       21 0.62521976E-01 0.31201636E+03</pdfrwt>
<totfact> 0.18626785E+04</totfact>
</mgrwt>
</event>
<event>
 4    0  0.1425747E-001  0.3780209E+03  0.7546771E-02  0.1051668E+00
         21   -1    0    0  502  501  0.00000000000E+00  0.00000000000E+00  0.16649082742E+03  0.16649082742E+03  0.00000000000E+00 0.  1.
         21   -1    0    0  503  502 -0.00000000000E+00 -0.00000000000E+00 -0.85455467784E+03  0.85455467784E+03  0.00000000000E+00 0.  1.
         25    1    1    2    0    0  0.12357646943E+03 -0.33466945887E+03 -0.23787247031E+03  0.44663531279E+03  0.12500000000E+03 0.  0.
         21    1    1    2  503  501 -0.12357646943E+03  0.33466945887E+03 -0.45019138011E+03  0.57441019248E+03  0.00000000000E+00 0.  1.
<mgrwt>
<rscale>  3 0.37802089E+03</rscale>
<asrwt>0</asrwt>
<pdfrwt beam="1">  1       21 0.25613974E-01 0.37802089E+03</pdfrwt>
<pdfrwt beam="2">  1       21 0.13146995E+00 0.37802089E+03</pdfrwt>
<totfact> 0.54634591E+03</totfact>
</mgrwt>
</event>
<event>
 4    0  0.1616600E-001  0.2430703E+03  0.7546771E-02  0.1117764E+00
         21   -1    0    0  502  501  0.00000000000E+00  0.00000000000E+00  0.95160702700E+02  0.95160702700E+02  0.00000000000E+00 0. -1.
         21   -1    0    0  503  502 -0.00000000000E+00 -0.00000000000E+00 -0.60461100756E+03  0.60461100756E+03  0.00000000000E+00 0. -1.
         25    1    1    2    0    0  0.20800887198E+03 -0.13801126130E+02 -0.15414799152E+03  0.28782766580E+03  0.12500000000E+03 0.  0.
         21    1    1    2  503  501 -0.20800887198E+03  0.13801126130E+02 -0.35530231334E+03  0.41194404446E+03  0.00000000000E+00 0. -1.
<mgrwt>
<rscale>  3 0.24307028E+03</rscale>
<asrwt>0</asrwt>
<pdfrwt beam="1">  1       21 0.14640108E-01 0.24307028E+03</pdfrwt>
<pdfrwt beam="2">  1       21 0.93017081E-01 0.24307028E+03</pdfrwt>
<totfact> 0.38912251E+04</totfact>
</mgrwt>
</event>
<event>
 4    0  0.1204691E-001  0.2887373E+03  0.7546771E-02  0.1091010E+00
         21   -1    0    0  503  501  0.00000000000E+00  0.00000000000E+00  0.56517093905E+03  0.56517093905E+03  0.00000000000E+00 0.  1.
         21   -1    0    0  501  502 -0.00000000000E+00 -0.00000000000E+00 -0.27536773052E+03  0.27536773052E+03  0.00000000000E+00 0.  1.
         25    1    1    2    0    0  0.24758226978E+02  0.25909701284E+03  0.45017955179E+03  0.53481853064E+03  0.12500000000E+03 0.  0.
         21    1    1    2  503  502 -0.24758226978E+02 -0.25909701284E+03 -0.16037634326E+03  0.30572013893E+03  0.00000000000E+00 0.  1.
<mgrwt>
<rscale>  3 0.28873731E+03</rscale>
<asrwt>0</asrwt>
<pdfrwt beam="1">  1       21 0.86949375E-01 0.28873731E+03</pdfrwt>
<pdfrwt beam="2">  1       21 0.42364266E-01 0.28873731E+03</pdfrwt>
<totfact> 0.57359773E+03</totfact>
</mgrwt>
</event>
<event>
 4    0  0.1573716E-001  0.2679761E+03  0.7546771E-02  0.1102444E+00
         21   -1    0    0  502  501  0.00000000000E+00  0.00000000000E+00  0.10187762724E+03  0.10187762724E+03  0.00000000000E+00 0. -1.
         21   -1    0    0  503  502 -0.00000000000E+00 -0.00000000000E+00 -0.72403588473E+03  0.72403588473E+03  0.00000000000E+00 0. -1.
         25    1    1    2    0    0 -0.21074258212E+03 -0.10850699336E+03 -0.17572230011E+03  0.32045207174E+03  0.12500000000E+03 0.  0.
         21    1    1    2  503  501  0.21074258212E+03  0.10850699336E+03 -0.44643595738E+03  0.50546144024E+03  0.00000000000E+00 0. -1.
<mgrwt>
<rscale>  3 0.26797612E+03</rscale>
<asrwt>0</asrwt>
<pdfrwt beam="1">  1       21 0.15673481E-01 0.26797612E+03</pdfrwt>
<pdfrwt beam="2">  1       21 0.11139014E+00 0.26797612E+03</pdfrwt>
<totfact> 0.22022277E+04</totfact>
</mgrwt>
</event>
<event>
 4    0  0.1264532E-001  0.2460686E+03  0.7546771E-02  0.1115815E+00
         21   -1    0    0  503  501  0.00000000000E+00  0.00000000000E+00  0.52055284234E+02  0.52055284234E+02  0.00000000000E+00 0.  1.
         21   -1    0    0  501  502 -0.00000000000E+00 -0.00000000000E+00 -0.10088295362E+04  0.10088295362E+04  0.00000000000E+00 0.  1.
         25    1    1    2    0    0 -0.15651389373E+03  0.14292703786E+03 -0.49485112885E+03  0.55265484419E+03  0.12500000000E+03 0.  0.
         21    1    1    2  503  502  0.15651389373E+03 -0.14292703786E+03 -0.46192312311E+03  0.50822997624E+03  0.00000000000E+00 0.  1.
<mgrwt>
<rscale>  3 0.24606856E+03</rscale>
<asrwt>0</asrwt>
<pdfrwt beam="1">  1       21 0.80085052E-02 0.24606856E+03</pdfrwt>
<pdfrwt beam="2">  1       21 0.15520455E+00 0.24606856E+03</pdfrwt>
<totfact> 0.31723193E+04</totfact>
</mgrwt>
</event>
<event>
 4    0  0.2180739E-001  0.2551661E+03  0.7546771E-02  0.1110083E+00
         21   -1    0    0  502  501  0.00000000000E+00  0.00000000000E+00  0.60362599560E+03  0.60362599560E+03  0.00000000000E+00 0. -1.
         21   -1    0    0  503  502 -0.00000000000E+00 -0.00000000000E+00 -0.10164926638E+04  0.10164926638E+04  0.00000000000E+00 0.  1.
         25    1    1    2    0    0  0.20329519496E+03  0.90309513974E+02  0.56357989733E+03  0.61865341289E+03  0.12500000000E+03 0.  0.
         21    1    1    2  503  501 -0.20329519496E+03 -0.90309513974E+02 -0.97644656553E+03  0.10014652465E+04  0.00000000000E+00 0.  1.
<mgrwt>
<rscale>  3 0.25516611E+03</rscale>
<asrwt>0</asrwt>
<pdfrwt beam="1">  1       21 0.92865539E-01 0.25516611E+03</pdfrwt>
<pdfrwt beam="2">  1       21 0.15638349E+00 0.25516611E+03</pdfrwt>
<totfact> 0.24415595E+02</totfact>
</mgrwt>
</event>
<event>
 4    0  0.1003929E-001  0.6122625E+03  0.7546771E-02  0.9880287E-01
         21   -1    0    0  502  501  0.00000000000E+00  0.00000000000E+00  0.23797352994E+03  0.23797352994E+03  0.00000000000E+00 0.  1.
         21   -1    0    0  503  502 -0.00000000000E+00 -0.00000000000E+00 -0.16941464705E+04  0.16941464705E+04  0.00000000000E+00 0. -1.
         25    1    1    2    0    0  0.36061494674E+03 -0.47874552792E+03 -0.44587312885E+03  0.75740891687E+03  0.12500000000E+03 0.  0.
         21    1    1    2  503  501 -0.36061494674E+03  0.47874552792E+03 -0.10102998117E+04  0.11747110835E+04  0.00000000000E+00 0. -1.
<mgrwt>
<rscale>  3 0.61226254E+03</rscale>
<asrwt>0</asrwt>
<pdfrwt beam="1">  1       21 0.36611315E-01 0.61226254E+03</pdfrwt>
<pdfrwt beam="2">  1       21 0.26063790E+00 0.61226254E+03</pdfrwt>
<totfact> 0.30779924E+02</totfact>
</mgrwt>
</event>
<event>
 4    0  0.1003929E-001  0.3166757E+03  0.7546771E-02  0.1077189E+00
         21   -1    0    0  502  501  0.00000000000E+00  0.00000000000E+00  0.15507834413E+04  0.15507834413E+04  0.00000000000E+00 0.  1.
         21   -1    0    0  503  502 -0.00000000000E+00 -0.00000000000E+00 -0.10679013446E+03  0.10679013446E+03  0.00000000000E+00 0.  1.
         25    1    1    2    0    0 -0.28230976772E+03  0.70425200516E+02  0.12901447160E+04  0.13284415313E+04  0.12500000000E+03 0.  0.
         21    1    1    2  503  501  0.28230976772E+03 -0.70425200516E+02  0.15384859089E+03  0.32913204453E+03  0.00000000000E+00 0.  1.
<mgrwt>
<rscale>  3 0.31667572E+03</rscale>
<asrwt>0</asrwt>
<pdfrwt beam="1">  1       21 0.23858205E+00 0.31667572E+03</pdfrwt>
<pdfrwt beam="2">  1       21 0.16429253E-01 0.31667572E+03</pdfrwt>
<totfact> 0.23212117E+03</totfact>
</mgrwt>
</event>
<event>
 4    0  0.1003929E-001  0.2402839E+03  0.7546771E-02  0.1119604E+00
         21   -1    0    0  502  501  0.00000000000E+00  0.00000000000E+00  0.36066550810E+02  0.36066550810E+02  0.00000000000E+00 0. -1.
         21   -1    0    0  503  502 -0.00000000000E+00 -0.00000000000E+00 -0.14972548675E+04  0.14972548675E+04  0.00000000000E+00 0. -1.
         25    1    1    2    0    0  0.95554574225E+02 -0.18160577161E+03 -0.10012761895E+04  0.10297040063E+04  0.12500000000E+03 0.  0.
         21    1    1    2  503  501 -0.95554574225E+02  0.18160577161E+03 -0.45991212717E+03  0.50361741199E+03  0.00000000000E+00 0. -1.
<mgrwt>
<rscale>  3 0.24028386E+03</rscale>
<asrwt>0</asrwt>
<pdfrwt beam="1">  1       21 0.55487000E-02 0.24028386E+03</pdfrwt>
<pdfrwt beam="2">  1       21 0.23034691E+00 0.24028386E+03</pdfrwt>
<totfact> 0.18910834E+04</totfact>
</mgrwt>
</event>
<event>
 4    0  0.1162589E-001  0.2609935E+03  0.7546771E-02  0.1106548E+00
         21   -1    0    0  502  501  0.00000000000E+00  0.00000000000E+00  0.10777620817E+03  0.10777620817E+03  0.00000000000E+00 0. -1.
         21   -1    0    0  503  502 -0.00000000000E+00 -0.00000000000E+00 -0.12906160263E+04  0.12906160263E+04  0.00000000000E+00 0. -1.
         25    1    1    2    0    0  0.13927795097E+03  0.18191829387E+03 -0.81425021180E+02  0.27340015974E+03  0.12500000000E+03 0.  0.
         21    1    1    2  503  501 -0.13927795097E+03 -0.18191829387E+03 -0.11014147969E+04  0.11249920747E+04  0.00000000000E+00 0. -1.
<mgrwt>
<rscale>  3 0.26099351E+03</rscale>
<asrwt>0</asrwt>
<pdfrwt beam="1">  1       21 0.16580956E-01 0.26099351E+03</pdfrwt>
<pdfrwt beam="2">  1       21 0.19855630E+00 0.26099351E+03</pdfrwt>
<totfact> 0.42350174E+03</totfact>
</mgrwt>
</event>
<event>
 4    0  0.1003929E-001  0.3930740E+03  0.7546771E-02  0.1046205E+00
         21   -1    0    0  502  501  0.00000000000E+00  0.00000000000E+00  0.24418493663E+03  0.24418493663E+03  0.00000000000E+00 0.  1.
         21   -1    0    0  503  502 -0.00000000000E+00 -0.00000000000E+00 -0.12189500631E+04  0.12189500631E+04  0.00000000000E+00 0.  1.
         25    1    1    2    0    0  0.37179379614E+03  0.25525577625E+02  0.27294541679E+02  0.39402052480E+03  0.12500000000E+03 0.  0.
         21    1    1    2  503  501 -0.37179379614E+03 -0.25525577625E+02 -0.10020596681E+04  0.10691144749E+04  0.00000000000E+00 0.  1.
<mgrwt>
<rscale>  3 0.39307402E+03</rscale>
<asrwt>0</asrwt>
<pdfrwt beam="1">  1       21 0.37566914E-01 0.39307402E+03</pdfrwt>
<pdfrwt beam="2">  1       21 0.18753077E+00 0.39307402E+03</pdfrwt>
<totfact> 0.95138337E+02</totfact>
</mgrwt>
</event>
<event>
 4    0  0.1529781E-001  0.2548321E+03  0.7546771E-02  0.1110289E+00
         21   -1    0    0  502  501  0.00000000000E+00  0.00000000000E+00  0.23499454794E+03  0.23499454794E+03  0.00000000000E+00 0. -1.
         21   -1    0    0  503  502 -0.00000000000E+00 -0.00000000000E+00 -0.30782530202E+03  0.30782530202E+03  0.00000000000E+00 0. -1.
         25    1    1    2    0    0 -0.18334312642E+03 -0.12529841569E+03  0.86933832014E+02  0.26925245798E+03  0.12500000000E+03 0.  0.
         21    1    1    2  503  501  0.18334312642E+03  0.12529841569E+03 -0.15976458609E+03  0.27356739197E+03  0.00000000000E+00 0. -1.
<mgrwt>
<rscale>  3 0.25483209E+03</rscale>
<asrwt>0</asrwt>
<pdfrwt beam="1">  1       21 0.36153008E-01 0.25483209E+03</pdfrwt>
<pdfrwt beam="2">  1       21 0.47357738E-01 0.25483209E+03</pdfrwt>
<totfact> 0.30519178E+04</totfact>
</mgrwt>
</event>
<event>
 4    0  0.1264582E-001  0.2498331E+03  0.7546771E-02  0.1113410E+00
         21   -1    0    0  503  501  0.00000000000E+00  0.00000000000E+00  0.10212721935E+04  0.10212721935E+04  0.00000000000E+00 0.  1.
         21   -1    0    0  501  502 -0.00000000000E+00 -0.00000000000E+00 -0.82226774166E+02  0.82226774166E+02  0.00000000000E+00 0.  1.
         25    1    1    2    0    0 -0.63607070899E+02 -0.20675035938E+03  0.81868080357E+03  0.85595258555E+03  0.12500000000E+03 0.  0.
         21    1    1    2  503  502  0.63607070899E+02  0.20675035938E+03  0.12036461576E+03  0.24754638212E+03  0.00000000000E+00 0.  1.
<mgrwt>
<rscale>  3 0.24983309E+03</rscale>
<asrwt>0</asrwt>
<pdfrwt beam="1">  1       21 0.15711879E+00 0.24983309E+03</pdfrwt>
<pdfrwt beam="2">  1       21 0.12650274E-01 0.24983309E+03</pdfrwt>
<totfact> 0.13586863E+04</totfact>
</mgrwt>
</event>
<event>
 4    0  0.1003929E-001  0.2390797E+03  0.7546771E-02  0.1120407E+00
         21   -1    0    0  502  501  0.00000000000E+00  0.00000000000E+00  0.29486812799E+04  0.29486812799E+04  0.00000000000E+00 0.  1.
         21   -1    0    0  503  502 -0.00000000000E+00 -0.00000000000E+00 -0.17520230420E+03  0.17520230420E+03  0.00000000000E+00 0. -1.
         25    1    1    2    0    0  0.19794092323E+03  0.48512812543E+02  0.28827442587E+04  0.28926412780E+04  0.12500000000E+03 0.  0.
         21    1    1    2  503  501 -0.19794092323E+03 -0.48512812543E+02 -0.10926528300E+03  0.23124230612E+03  0.00000000000E+00 0. -1.
<mgrwt>
<rscale>  3 0.23907970E+03</rscale>
<asrwt>0</asrwt>
<pdfrwt beam="1">  1       21 0.45364324E+00 0.23907970E+03</pdfrwt>
<pdfrwt beam="2">  1       21 0.26954203E-01 0.23907970E+03</pdfrwt>
<totfact> 0.47553923E+01</totfact>
</mgrwt>
</event>
<event>
 4    0  0.1003929E-001  0.2450828E+03  0.7546771E-02  0.1116452E+00
         21   -1    0    0  503  501  0.00000000000E+00  0.00000000000E+00  0.20332044770E+04  0.20332044770E+04  0.00000000000E+00 0.  1.
         21   -1    0    0  501  502 -0.00000000000E+00 -0.00000000000E+00 -0.26774654066E+02  0.26774654066E+02  0.00000000000E+00 0. -1.
         25    1    1    2    0    0  0.21056355536E+03 -0.10177569707E+02  0.12943993229E+04  0.13173971310E+04  0.12500000000E+03 0.  0.
         21    1    1    2  503  502 -0.21056355536E+03  0.10177569707E+02  0.71203050008E+03  0.74258200006E+03  0.00000000000E+00 0. -1.
<mgrwt>
<rscale>  3 0.24508283E+03</rscale>
<asrwt>0</asrwt>
<pdfrwt beam="1">  1       21 0.31280057E+00 0.24508283E+03</pdfrwt>
<pdfrwt beam="2">  1       21 0.41191792E-02 0.24508283E+03</pdfrwt>
<totfact> 0.10201370E+04</totfact>
</mgrwt>
</event>
<event>
 4    0  0.1343416E-001  0.4366413E+03  0.7546771E-02  0.1031782E+00
         21   -1    0    0  503  501  0.00000000000E+00  0.00000000000E+00  0.30082098705E+03  0.30082098705E+03  0.00000000000E+00 0. -1.
         21   -1    0    0  501  502 -0.00000000000E+00 -0.00000000000E+00 -0.64659382828E+03  0.64659382828E+03  0.00000000000E+00 0. -1.
         25    1    1    2    0    0  0.41649477285E+03 -0.39531875135E+02 -0.29275856257E+03  0.52570261643E+03  0.12500000000E+03 0.  0.
         21    1    1    2  503  502 -0.41649477285E+03  0.39531875135E+02 -0.53014278665E+02  0.42171219891E+03  0.00000000000E+00 0. -1.
<mgrwt>
<rscale>  3 0.43664135E+03</rscale>
<asrwt>0</asrwt>
<pdfrwt beam="1">  1       21 0.46280152E-01 0.43664135E+03</pdfrwt>
<pdfrwt beam="2">  1       21 0.99475973E-01 0.43664135E+03</pdfrwt>
<totfact> 0.32533554E+03</totfact>
</mgrwt>
</event>
<event>
 4    0  0.1003929E-001  0.2414495E+03  0.7546771E-02  0.1118831E+00
         21   -1    0    0  503  501  0.00000000000E+00  0.00000000000E+00  0.79291088033E+03  0.79291088033E+03  0.00000000000E+00 0.  1.
         21   -1    0    0  501  502 -0.00000000000E+00 -0.00000000000E+00 -0.83263090950E+02  0.83263090950E+02  0.00000000000E+00 0. -1.
         25    1    1    2    0    0 -0.20538147074E+03 -0.22165601775E+02  0.58990097377E+03  0.63740177383E+03  0.12500000000E+03 0.  0.
         21    1    1    2  503  502  0.20538147074E+03  0.22165601775E+02  0.11974681561E+03  0.23877219745E+03  0.00000000000E+00 0. -1.
<mgrwt>
<rscale>  3 0.24144950E+03</rscale>
<asrwt>0</asrwt>
<pdfrwt beam="1">  1       21 0.12198628E+00 0.24144950E+03</pdfrwt>
<pdfrwt beam="2">  1       21 0.12809707E-01 0.24144950E+03</pdfrwt>
<totfact> 0.25743592E+04</totfact>
</mgrwt>
</event>
<event>
 4    0  0.1487240E-001  0.2478603E+03  0.7546771E-02  0.1114665E+00
         21   -1    0    0  502  501  0.00000000000E+00  0.00000000000E+00  0.36873052313E+03  0.36873052313E+03  0.00000000000E+00 0.  1.
         21   -1    0    0  503  502 -0.00000000000E+00 -0.00000000000E+00 -0.15187709138E+03  0.15187709138E+03  0.00000000000E+00 0.  1.
         25    1    1    2    0    0 -0.29579220568E+02 -0.21197824053E+03  0.17263522144E+03  0.30205566445E+03  0.12500000000E+03 0.  0.
         21    1    1    2  503  501  0.29579220568E+02  0.21197824053E+03  0.44218210309E+02  0.21855195005E+03  0.00000000000E+00 0.  1.
<mgrwt>
<rscale>  3 0.24786025E+03</rscale>
<asrwt>0</asrwt>
<pdfrwt beam="1">  1       21 0.56727773E-01 0.24786025E+03</pdfrwt>
<pdfrwt beam="2">  1       21 0.23365706E-01 0.24786025E+03</pdfrwt>
<totfact> 0.49083112E+04</totfact>
</mgrwt>
</event>
<event>
 4    0  0.1105299E-001  0.2394318E+03  0.7546771E-02  0.1120172E+00
         21   -1    0    0  503  501  0.00000000000E+00  0.00000000000E+00  0.23545943778E+03  0.23545943778E+03  0.00000000000E+00 0. -1.
         21   -1    0    0  501  502 -0.00000000000E+00 -0.00000000000E+00 -0.25897560407E+03  0.25897560407E+03  0.00000000000E+00 0. -1.
         25    1    1    2    0    0  0.10893033518E+03  0.17273316919E+03 -0.12086246766E+03  0.26820757213E+03  0.12500000000E+03 0.  0.
         21    1    1    2  503  502 -0.10893033518E+03 -0.17273316919E+03  0.97346301363E+02  0.22622746971E+03  0.00000000000E+00 0. -1.
<mgrwt>
<rscale>  3 0.23943176E+03</rscale>
<asrwt>0</asrwt>
<pdfrwt beam="1">  1       21 0.36224529E-01 0.23943176E+03</pdfrwt>
<pdfrwt beam="2">  1       21 0.39842401E-01 0.23943176E+03</pdfrwt>
<totfact> 0.43653669E+04</totfact>
</mgrwt>
</event>
<event>
 4    0  0.1003929E-001  0.3548360E+03  0.7546771E-02  0.1060647E+00
         21   -1    0    0  503  501  0.00000000000E+00  0.00000000000E+00  0.51440301005E+03  0.51440301005E+03  0.00000000000E+00 0. -1.
         21   -1    0    0  501  502 -0.00000000000E+00 -0.00000000000E+00 -0.19830633641E+04  0.19830633641E+04  0.00000000000E+00 0. -1.
         25    1    1    2    0    0 -0.72730655522E+02 -0.32402751340E+03  0.43709528036E+03  0.56299277242E+03  0.12500000000E+03 0.  0.
         21    1    1    2  503  502  0.72730655522E+02  0.32402751340E+03 -0.19057556344E+04  0.19344736017E+04  0.00000000000E+00 0. -1.
<mgrwt>
<rscale>  3 0.35483599E+03</rscale>
<asrwt>0</asrwt>
<pdfrwt beam="1">  1       21 0.79138924E-01 0.35483599E+03</pdfrwt>
<pdfrwt beam="2">  1       21 0.30508667E+00 0.35483599E+03</pdfrwt>
<totfact> 0.36628898E+01</totfact>
</mgrwt>
</event>
<event>
 4    0  0.1003929E-001  0.2393544E+03  0.7546771E-02  0.1120224E+00
         21   -1    0    0  502  501  0.00000000000E+00  0.00000000000E+00  0.70339746404E+02  0.70339746404E+02  0.00000000000E+00 0.  1.
         21   -1    0    0  503  502 -0.00000000000E+00 -0.00000000000E+00 -0.82273164829E+03  0.82273164829E+03  0.00000000000E+00 0.  1.
         25    1    1    2    0    0  0.59130250656E+02  0.19536919294E+03 -0.57429018782E+03  0.62217339056E+03  0.12500000000E+03 0.  0.
         21    1    1    2  503  501 -0.59130250656E+02 -0.19536919294E+03 -0.17810171407E+03  0.27089800414E+03  0.00000000000E+00 0.  1.
<mgrwt>
<rscale>  3 0.23935436E+03</rscale>
<asrwt>0</asrwt>
<pdfrwt beam="1">  1       21 0.10821499E-01 0.23935436E+03</pdfrwt>
<pdfrwt beam="2">  1       21 0.12657410E+00 0.23935436E+03</pdfrwt>
<totfact> 0.31790005E+04</totfact>
</mgrwt>
</event>
<event>
 4    0  0.1113774E-001  0.2910423E+03  0.7546771E-02  0.1089806E+00
         21   -1    0    0  503  501  0.00000000000E+00  0.00000000000E+00  0.23423057040E+04  0.23423057040E+04  0.00000000000E+00 0.  1.
         21   -1    0    0  501  502 -0.00000000000E+00 -0.00000000000E+00 -0.15014043320E+03  0.15014043320E+03  0.00000000000E+00 0. -1.
         25    1    1    2    0    0 -0.12088106189E+03  0.23338469782E+03  0.22099319773E+04  0.22290143545E+04  0.12500000000E+03 0.  0.
         21    1    1    2  503  502  0.12088106189E+03 -0.23338469782E+03 -0.17766706456E+02  0.26343178274E+03  0.00000000000E+00 0. -1.
<mgrwt>
<rscale>  3 0.29104235E+03</rscale>
<asrwt>0</asrwt>
<pdfrwt beam="1">  1       21 0.36035470E+00 0.29104235E+03</pdfrwt>
<pdfrwt beam="2">  1       21 0.23098530E-01 0.29104235E+03</pdfrwt>
<totfact> 0.23461556E+02</totfact>
</mgrwt>
</event>
<event>
 4    0  0.1483378E-001  0.2564341E+03  0.7546771E-02  0.1109305E+00
         21   -1    0    0  503  501  0.00000000000E+00  0.00000000000E+00  0.36448733172E+03  0.36448733172E+03  0.00000000000E+00 0. -1.
         21   -1    0    0  501  502 -0.00000000000E+00 -0.00000000000E+00 -0.24520991159E+03  0.24520991159E+03  0.00000000000E+00 0. -1.
         25    1    1    2    0    0  0.99812807597E+02 -0.20042663326E+03  0.24351377896E+03  0.35363454642E+03  0.12500000000E+03 0.  0.
         21    1    1    2  503  502 -0.99812807597E+02  0.20042663326E+03 -0.12423635883E+03  0.25606269688E+03  0.00000000000E+00 0. -1.
<mgrwt>
<rscale>  3 0.25643407E+03</rscale>
<asrwt>0</asrwt>
<pdfrwt beam="1">  1       21 0.56074974E-01 0.25643407E+03</pdfrwt>
<pdfrwt beam="2">  1       21 0.37724602E-01 0.25643407E+03</pdfrwt>
<totfact> 0.19601278E+04</totfact>
</mgrwt>
</event>
<event>
 4    0  0.1526683E-001  0.3131823E+03  0.7546771E-02  0.1078831E+00
         21   -1    0    0  503  501  0.00000000000E+00  0.00000000000E+00  0.93300791092E+02  0.93300791092E+02  0.00000000000E+00 0. -1.
         21   -1    0    0  501  502 -0.00000000000E+00 -0.00000000000E+00 -0.97716093142E+03  0.97716093142E+03  0.00000000000E+00 0. -1.
         25    1    1    2    0    0 -0.18120456068E+03 -0.22276227060E+03 -0.40297236262E+03  0.51036246634E+03  0.12500000000E+03 0.  0.
         21    1    1    2  503  502  0.18120456068E+03  0.22276227060E+03 -0.48088777771E+03  0.56009925617E+03  0.00000000000E+00 0. -1.
<mgrwt>
<rscale>  3 0.31318225E+03</rscale>
<asrwt>0</asrwt>
<pdfrwt beam="1">  1       21 0.14353967E-01 0.31318225E+03</pdfrwt>
<pdfrwt beam="2">  1       21 0.15033246E+00 0.31318225E+03</pdfrwt>
<totfact> 0.11764889E+04</totfact>
</mgrwt>
</event>
<event>
 4    0  0.1093384E-001  0.4071233E+03  0.7546771E-02  0.1041341E+00
         21   -1    0    0  503  501  0.00000000000E+00  0.00000000000E+00  0.50162905351E+03  0.50162905351E+03  0.00000000000E+00 0.  1.
         21   -1    0    0  501  502 -0.00000000000E+00 -0.00000000000E+00 -0.46242322314E+03  0.46242322314E+03  0.00000000000E+00 0.  1.
         25    1    1    2    0    0  0.94413210775E+01 -0.38734382982E+03  0.29236020330E+03  0.50122237531E+03  0.12500000000E+03 0.  0.
         21    1    1    2  503  502 -0.94413210775E+01  0.38734382982E+03 -0.25315437292E+03  0.46282990134E+03  0.00000000000E+00 0.  1.
<mgrwt>
<rscale>  3 0.40712330E+03</rscale>
<asrwt>0</asrwt>
<pdfrwt beam="1">  1       21 0.77173700E-01 0.40712330E+03</pdfrwt>
<pdfrwt beam="2">  1       21 0.71142035E-01 0.40712330E+03</pdfrwt>
<totfact> 0.23478853E+03</totfact>
</mgrwt>
</event>
<event>
 4    0  0.1003929E-001  0.2376344E+03  0.7546771E-02  0.1121379E+00
         21   -1    0    0  502  501  0.00000000000E+00  0.00000000000E+00  0.51627568087E+03  0.51627568087E+03  0.00000000000E+00 0.  1.
         21   -1    0    0  503  502 -0.00000000000E+00 -0.00000000000E+00 -0.96869018485E+02  0.96869018485E+02  0.00000000000E+00 0. -1.
         25    1    1    2    0    0  0.46057869869E+00 -0.20210114828E+03  0.28191381023E+03  0.36870785544E+03  0.12500000000E+03 0.  0.
         21    1    1    2  503  501 -0.46057869869E+00  0.20210114828E+03  0.13749285216E+03  0.24443684391E+03  0.00000000000E+00 0. -1.
<mgrwt>
<rscale>  3 0.23763435E+03</rscale>
<asrwt>0</asrwt>
<pdfrwt beam="1">  1       21 0.79427026E-01 0.23763435E+03</pdfrwt>
<pdfrwt beam="2">  1       21 0.14902926E-01 0.23763435E+03</pdfrwt>
<totfact> 0.54355673E+04</totfact>
</mgrwt>
</event>
<event>
 4    0  0.1303642E-001  0.2936028E+03  0.7546771E-02  0.1088483E+00
         21   -1    0    0  502  501  0.00000000000E+00  0.00000000000E+00  0.20105841955E+03  0.20105841955E+03  0.00000000000E+00 0. -1.
         21   -1    0    0  503  502 -0.00000000000E+00 -0.00000000000E+00 -0.74463244114E+03  0.74463244114E+03  0.00000000000E+00 0. -1.
         25    1    1    2    0    0 -0.25094424253E+03  0.87204255775E+02  0.47722032505E+02  0.29745585802E+03  0.12500000000E+03 0.  0.
         21    1    1    2  503  501  0.25094424253E+03 -0.87204255775E+02 -0.59129605410E+03  0.64823500267E+03  0.00000000000E+00 0. -1.
<mgrwt>
<rscale>  3 0.29360278E+03</rscale>
<asrwt>0</asrwt>
<pdfrwt beam="1">  1       21 0.30932065E-01 0.29360278E+03</pdfrwt>
<pdfrwt beam="2">  1       21 0.11455883E+00 0.29360278E+03</pdfrwt>
<totfact> 0.55632468E+03</totfact>
</mgrwt>
</event>
<event>
 4    0  0.1390968E-001  0.2891551E+03  0.7546771E-02  0.1090791E+00
         21   -1    0    0  503  501  0.00000000000E+00  0.00000000000E+00  0.69957459900E+03  0.69957459900E+03  0.00000000000E+00 0.  1.
         21   -1    0    0  501  502 -0.00000000000E+00 -0.00000000000E+00 -0.14387621439E+03  0.14387621439E+03  0.00000000000E+00 0.  1.
         25    1    1    2    0    0  0.25686560430E+03 -0.44785098174E+02  0.49883437831E+03  0.57658163401E+03  0.12500000000E+03 0.  0.
         21    1    1    2  503  502 -0.25686560430E+03  0.44785098174E+02  0.56864006305E+02  0.26686917938E+03  0.00000000000E+00 0.  1.
<mgrwt>
<rscale>  3 0.28915505E+03</rscale>
<asrwt>0</asrwt>
<pdfrwt beam="1">  1       21 0.10762686E+00 0.28915505E+03</pdfrwt>
<pdfrwt beam="2">  1       21 0.22134803E-01 0.28915505E+03</pdfrwt>
<totfact> 0.12431190E+04</totfact>
</mgrwt>
</event>
<event>
 4    0  0.1003929E-001  0.2460791E+03  0.7546771E-02  0.1115808E+00
         21   -1    0    0  502  501  0.00000000000E+00  0.00000000000E+00  0.58886540076E+03  0.58886540076E+03  0.00000000000E+00 0. -1.
         21   -1    0    0  503  502 -0.00000000000E+00 -0.00000000000E+00 -0.10370874573E+03  0.10370874573E+03  0.00000000000E+00 0. -1.
         25    1    1    2    0    0  0.18114687507E+03  0.11007158480E+03  0.12831334928E+03  0.27752343996E+03  0.12500000000E+03 0.  0.
         21    1    1    2  503  501 -0.18114687507E+03 -0.11007158480E+03  0.35684330575E+03  0.41505070653E+03  0.00000000000E+00 0. -1.
<mgrwt>
<rscale>  3 0.24607914E+03</rscale>
<asrwt>0</asrwt>
<pdfrwt beam="1">  1       21 0.90594675E-01 0.24607914E+03</pdfrwt>
<pdfrwt beam="2">  1       21 0.15955192E-01 0.24607914E+03</pdfrwt>
<totfact> 0.35303364E+04</totfact>
</mgrwt>
</event>
<event>
 4    0  0.1177137E-001  0.2720196E+03  0.7546771E-02  0.1100129E+00
         21   -1    0    0  503  501  0.00000000000E+00  0.00000000000E+00  0.14776056280E+04  0.14776056280E+04  0.00000000000E+00 0. -1.
         21   -1    0    0  501  502 -0.00000000000E+00 -0.00000000000E+00 -0.70715491611E+02  0.70715491611E+02  0.00000000000E+00 0. -1.
         25    1    1    2    0    0  0.82354704196E+02 -0.22712852633E+03  0.11993797118E+04  0.12298399725E+04  0.12500000000E+03 0.  0.
         21    1    1    2  503  502 -0.82354704196E+02  0.22712852633E+03  0.20751042457E+03  0.31848114713E+03  0.00000000000E+00 0. -1.
<mgrwt>
<rscale>  3 0.27201960E+03</rscale>
<asrwt>0</asrwt>
<pdfrwt beam="1">  1       21 0.22732392E+00 0.27201960E+03</pdfrwt>
<pdfrwt beam="2">  1       21 0.10879307E-01 0.27201960E+03</pdfrwt>
<totfact> 0.59442380E+03</totfact>
</mgrwt>
</event>
<event>
 4    0  0.1332462E-001  0.2483075E+03  0.7546771E-02  0.1114379E+00
         21   -1    0    0  503  501  0.00000000000E+00  0.00000000000E+00  0.53225750036E+03  0.53225750036E+03  0.00000000000E+00 0.  1.
         21   -1    0    0  501  502 -0.00000000000E+00 -0.00000000000E+00 -0.13081075422E+03  0.13081075422E+03  0.00000000000E+00 0.  1.
         25    1    1    2    0    0  0.17806617168E+03 -0.11968307311E+03  0.37091499237E+03  0.44635695475E+03  0.12500000000E+03 0.  0.
         21    1    1    2  503  502 -0.17806617168E+03  0.11968307311E+03  0.30531753768E+02  0.21671129983E+03  0.00000000000E+00 0.  1.
<mgrwt>
<rscale>  3 0.24830747E+03</rscale>
<asrwt>0</asrwt>
<pdfrwt beam="1">  1       21 0.81885768E-01 0.24830747E+03</pdfrwt>
<pdfrwt beam="2">  1       21 0.20124732E-01 0.24830747E+03</pdfrwt>
<totfact> 0.28925028E+04</totfact>
</mgrwt>
</event>
<event>
 4    0  0.1656583E-001  0.2983150E+03  0.7546771E-02  0.1086086E+00
         21   -1    0    0  502  501  0.00000000000E+00  0.00000000000E+00  0.26296226645E+03  0.26296226645E+03  0.00000000000E+00 0. -1.
         21   -1    0    0  503  502 -0.00000000000E+00 -0.00000000000E+00 -0.33479478639E+03  0.33479478639E+03  0.00000000000E+00 0. -1.
         25    1    1    2    0    0 -0.24925683246E+03  0.10600872726E+03  0.46961666257E+02  0.30198876946E+03  0.12500000000E+03 0.  0.
         21    1    1    2  503  501  0.24925683246E+03 -0.10600872726E+03 -0.11879418620E+03  0.29576828338E+03  0.00000000000E+00 0. -1.
<mgrwt>
<rscale>  3 0.29831497E+03</rscale>
<asrwt>0</asrwt>
<pdfrwt beam="1">  1       21 0.40455733E-01 0.29831497E+03</pdfrwt>
<pdfrwt beam="2">  1       21 0.51506890E-01 0.29831497E+03</pdfrwt>
<totfact> 0.20010045E+04</totfact>
</mgrwt>
</event>
<event>
 4    0  0.1514603E-001  0.5065057E+03  0.7546771E-02  0.1012095E+00
         21   -1    0    0  503  501  0.00000000000E+00  0.00000000000E+00  0.76075510767E+03  0.76075510767E+03  0.00000000000E+00 0. -1.
         21   -1    0    0  501  502 -0.00000000000E+00 -0.00000000000E+00 -0.35917534762E+03  0.35917534762E+03  0.00000000000E+00 0. -1.
         25    1    1    2    0    0 -0.27085027679E+03 -0.40934479154E+03  0.37155693641E+03  0.62817401076E+03  0.12500000000E+03 0.  0.
         21    1    1    2  503  502  0.27085027679E+03  0.40934479154E+03  0.30022823631E+02  0.49175644453E+03  0.00000000000E+00 0. -1.
<mgrwt>
<rscale>  3 0.50650571E+03</rscale>
<asrwt>0</asrwt>
<pdfrwt beam="1">  1       21 0.11703925E+00 0.50650571E+03</pdfrwt>
<pdfrwt beam="2">  1       21 0.55257746E-01 0.50650571E+03</pdfrwt>
<totfact> 0.14534754E+03</totfact>
</mgrwt>
</event>
<event>
 4    0  0.1262774E-001  0.2445187E+03  0.7546771E-02  0.1116819E+00
         21   -1    0    0  502  501  0.00000000000E+00  0.00000000000E+00  0.62293139453E+03  0.62293139453E+03  0.00000000000E+00 0. -1.
         21   -1    0    0  503  502 -0.00000000000E+00 -0.00000000000E+00 -0.25258528282E+03  0.25258528282E+03  0.00000000000E+00 0. -1.
         25    1    1    2    0    0  0.19436565100E+03 -0.79915029603E+02  0.54816452246E+03  0.60022809159E+03  0.12500000000E+03 0.  0.
         21    1    1    2  503  501 -0.19436565100E+03  0.79915029603E+02 -0.17781841075E+03  0.27528858576E+03  0.00000000000E+00 0. -1.
<mgrwt>
<rscale>  3 0.24451875E+03</rscale>
<asrwt>0</asrwt>
<pdfrwt beam="1">  1       21 0.95835599E-01 0.24451875E+03</pdfrwt>
<pdfrwt beam="2">  1       21 0.38859274E-01 0.24451875E+03</pdfrwt>
<totfact> 0.55860265E+03</totfact>
</mgrwt>
</event>
<event>
 4    0  0.1329589E-001  0.2596178E+03  0.7546771E-02  0.1107373E+00
         21   -1    0    0  503  501  0.00000000000E+00  0.00000000000E+00  0.12663345779E+03  0.12663345779E+03  0.00000000000E+00 0. -1.
         21   -1    0    0  501  502 -0.00000000000E+00 -0.00000000000E+00 -0.22088313108E+04  0.22088313108E+04  0.00000000000E+00 0.  1.
         25    1    1    2    0    0  0.10118119795E+03 -0.20381056841E+03 -0.19603210984E+02  0.26035680996E+03  0.12500000000E+03 0.  0.
         21    1    1    2  503  502 -0.10118119795E+03  0.20381056841E+03 -0.20625946421E+04  0.20751079587E+04  0.00000000000E+00 0.  1.
<mgrwt>
<rscale>  3 0.25961776E+03</rscale>
<asrwt>0</asrwt>
<pdfrwt beam="1">  1       21 0.19482071E-01 0.25961776E+03</pdfrwt>
<pdfrwt beam="2">  1       21 0.33982019E+00 0.25961776E+03</pdfrwt>
<totfact> 0.44544720E+02</totfact>
</mgrwt>
</event>
<event>
 4    0  0.1117757E-001  0.2481797E+03  0.7546771E-02  0.1114461E+00
         21   -1    0    0  503  501  0.00000000000E+00  0.00000000000E+00  0.17550059816E+04  0.17550059816E+04  0.00000000000E+00 0.  1.
         21   -1    0    0  501  502 -0.00000000000E+00 -0.00000000000E+00 -0.35424842083E+02  0.35424842083E+02  0.00000000000E+00 0.  1.
         25    1    1    2    0    0 -0.21425015309E+03 -0.80649638248E+01  0.12474533305E+04  0.12719013262E+04  0.12500000000E+03 0.  0.
         21    1    1    2  503  502  0.21425015309E+03  0.80649638248E+01  0.47212780903E+03  0.51852949752E+03  0.00000000000E+00 0.  1.
<mgrwt>
<rscale>  3 0.24817972E+03</rscale>
<asrwt>0</asrwt>
<pdfrwt beam="1">  1       21 0.27000085E+00 0.24817972E+03</pdfrwt>
<pdfrwt beam="2">  1       21 0.54499771E-02 0.24817972E+03</pdfrwt>
<totfact> 0.11245602E+04</totfact>
</mgrwt>
</event>
<event>
 4    0  0.1003929E-001  0.6803163E+03  0.7546771E-02  0.9751499E-01
         21   -1    0    0  502  501  0.00000000000E+00  0.00000000000E+00  0.67352834757E+03  0.67352834757E+03  0.00000000000E+00 0. -1.
         21   -1    0    0  503  502 -0.00000000000E+00 -0.00000000000E+00 -0.12707734505E+04  0.12707734505E+04  0.00000000000E+00 0. -1.
         25    1    1    2    0    0  0.19062862096E+03 -0.64098830633E+03  0.36535019663E+03  0.77221178841E+03  0.12500000000E+03 0.  0.
         21    1    1    2  503  501 -0.19062862096E+03  0.64098830633E+03 -0.96259529952E+03  0.11720900096E+04  0.00000000000E+00 0. -1.
<mgrwt>
<rscale>  3 0.68031631E+03</rscale>
<asrwt>0</asrwt>
<pdfrwt beam="1">  1       21 0.10361975E+00 0.68031631E+03</pdfrwt>
<pdfrwt beam="2">  1       21 0.19550361E+00 0.68031631E+03</pdfrwt>
<totfact> 0.77279349E+01</totfact>
</mgrwt>
</event>
<event>
 4    0  0.1534737E-001  0.3300533E+03  0.7546771E-02  0.1071113E+00
         21   -1    0    0  502  501  0.00000000000E+00  0.00000000000E+00  0.79308946645E+03  0.79308946645E+03  0.00000000000E+00 0.  1.
         21   -1    0    0  503  502 -0.00000000000E+00 -0.00000000000E+00 -0.12929544343E+03  0.12929544343E+03  0.00000000000E+00 0.  1.
         25    1    1    2    0    0 -0.89309463534E+02  0.29211982295E+03  0.40158807490E+03  0.51981549913E+03  0.12500000000E+03 0.  0.
         21    1    1    2  503  501  0.89309463534E+02 -0.29211982295E+03  0.26220594813E+03  0.40256941075E+03  0.00000000000E+00 0.  1.
<mgrwt>
<rscale>  3 0.33005329E+03</rscale>
<asrwt>0</asrwt>
<pdfrwt beam="1">  1       21 0.12201376E+00 0.33005329E+03</pdfrwt>
<pdfrwt beam="2">  1       21 0.19891607E-01 0.33005329E+03</pdfrwt>
<totfact> 0.10953687E+04</totfact>
</mgrwt>
</event>
<event>
 4    0  0.1003929E-001  0.3365018E+03  0.7546771E-02  0.1068296E+00
         21   -1    0    0  503  501  0.00000000000E+00  0.00000000000E+00  0.16111657280E+04  0.16111657280E+04  0.00000000000E+00 0.  1.
         21   -1    0    0  501  502 -0.00000000000E+00 -0.00000000000E+00 -0.23793906111E+03  0.23793906111E+03  0.00000000000E+00 0.  1.
         25    1    1    2    0    0 -0.11014747890E+03 -0.29236272241E+03  0.14808980251E+04  0.15186482112E+04  0.12500000000E+03 0.  0.
         21    1    1    2  503  502  0.11014747890E+03  0.29236272241E+03 -0.10767135817E+03  0.33045657798E+03  0.00000000000E+00 0.  1.
<mgrwt>
<rscale>  3 0.33650175E+03</rscale>
<asrwt>0</asrwt>
<pdfrwt beam="1">  1       21 0.24787164E+00 0.33650175E+03</pdfrwt>
<pdfrwt beam="2">  1       21 0.36606010E-01 0.33650175E+03</pdfrwt>
<totfact> 0.42721904E+02</totfact>
</mgrwt>
</event>
<event>
 4    0  0.1326173E-001  0.2626134E+03  0.7546771E-02  0.1105583E+00
         21   -1    0    0  503  501  0.00000000000E+00  0.00000000000E+00  0.27856065379E+03  0.27856065379E+03  0.00000000000E+00 0. -1.
         21   -1    0    0  501  502 -0.00000000000E+00 -0.00000000000E+00 -0.42770819061E+03  0.42770819061E+03  0.00000000000E+00 0. -1.
         25    1    1    2    0    0  0.57956600102E+02 -0.22356612455E+03  0.16961907595E+03  0.31262823044E+03  0.12500000000E+03 0.  0.
         21    1    1    2  503  502 -0.57956600102E+02  0.22356612455E+03 -0.31876661277E+03  0.39364061396E+03  0.00000000000E+00 0. -1.
<mgrwt>
<rscale>  3 0.26261337E+03</rscale>
<asrwt>0</asrwt>
<pdfrwt beam="1">  1       21 0.42855485E-01 0.26261337E+03</pdfrwt>
<pdfrwt beam="2">  1       21 0.65801260E-01 0.26261337E+03</pdfrwt>
<totfact> 0.10655774E+04</totfact>
</mgrwt>
</event>
<event>
 4    0  0.1003929E-001  0.2633606E+03  0.7546771E-02  0.1105141E+00
         21   -1    0    0  503  501  0.00000000000E+00  0.00000000000E+00  0.16167778018E+04  0.16167778018E+04  0.00000000000E+00 0.  1.
         21   -1    0    0  501  502 -0.00000000000E+00 -0.00000000000E+00 -0.47134022915E+02  0.47134022915E+02  0.00000000000E+00 0. -1.
         25    1    1    2    0    0  0.18563852285E+03  0.13882411844E+03  0.11924228880E+04  0.12211597524E+04  0.12500000000E+03 0.  0.
         21    1    1    2  503  502 -0.18563852285E+03 -0.13882411844E+03  0.37722089086E+03  0.44275207230E+03  0.00000000000E+00 0. -1.
<mgrwt>
<rscale>  3 0.26336058E+03</rscale>
<asrwt>0</asrwt>
<pdfrwt beam="1">  1       21 0.24873500E+00 0.26336058E+03</pdfrwt>
<pdfrwt beam="2">  1       21 0.72513894E-02 0.26336058E+03</pdfrwt>
<totfact> 0.90755925E+03</totfact>
</mgrwt>
</event>
<event>
 4    0  0.1372575E-001  0.3443606E+03  0.7546771E-02  0.1064954E+00
         21   -1    0    0  502  501  0.00000000000E+00  0.00000000000E+00  0.68279827992E+03  0.68279827992E+03  0.00000000000E+00 0.  1.
         21   -1    0    0  503  502 -0.00000000000E+00 -0.00000000000E+00 -0.16389078925E+03  0.16389078925E+03  0.00000000000E+00 0.  1.
         25    1    1    2    0    0  0.55284018605E+02 -0.31607424811E+03  0.31359145273E+03  0.46575084784E+03  0.12500000000E+03 0.  0.
         21    1    1    2  503  501 -0.55284018605E+02  0.31607424811E+03  0.20531603794E+03  0.38093822133E+03  0.00000000000E+00 0.  1.
<mgrwt>
<rscale>  3 0.34436064E+03</rscale>
<asrwt>0</asrwt>
<pdfrwt beam="1">  1       21 0.10504589E+00 0.34436064E+03</pdfrwt>
<pdfrwt beam="2">  1       21 0.25213968E-01 0.34436064E+03</pdfrwt>
<totfact> 0.10028793E+04</totfact>
</mgrwt>
</event>
<event>
 4    0  0.1177750E-001  0.2394502E+03  0.7546771E-02  0.1120160E+00
         21   -1    0    0  502  501  0.00000000000E+00  0.00000000000E+00  0.10289198613E+04  0.10289198613E+04  0.00000000000E+00 0.  1.
         21   -1    0    0  503  502 -0.00000000000E+00 -0.00000000000E+00 -0.69972883932E+02  0.69972883932E+02  0.00000000000E+00 0.  1.
         25    1    1    2    0    0  0.90252476798E+02 -0.18320991705E+03  0.81390228321E+03  0.84839454848E+03  0.12500000000E+03 0.  0.
         21    1    1    2  503  501 -0.90252476798E+02  0.18320991705E+03  0.14504469416E+03  0.25049819675E+03  0.00000000000E+00 0.  1.
<mgrwt>
<rscale>  3 0.23945017E+03</rscale>
<asrwt>0</asrwt>
<pdfrwt beam="1">  1       21 0.15829535E+00 0.23945017E+03</pdfrwt>
<pdfrwt beam="2">  1       21 0.10765060E-01 0.23945017E+03</pdfrwt>
<totfact> 0.17896547E+04</totfact>
</mgrwt>
</event>
<event>
 4    0  0.1260468E-001  0.3987493E+03  0.7546771E-02  0.1044214E+00
         21   -1    0    0  502  501  0.00000000000E+00  0.00000000000E+00  0.93745627251E+02  0.93745627251E+02  0.00000000000E+00 0. -1.
         21   -1    0    0  503  502 -0.00000000000E+00 -0.00000000000E+00 -0.17099535159E+04  0.17099535159E+04  0.00000000000E+00 0. -1.
         25    1    1    2    0    0  0.24953327476E+03 -0.28479665853E+03 -0.61165659099E+03  0.73015394077E+03  0.12500000000E+03 0.  0.
         21    1    1    2  503  501 -0.24953327476E+03  0.28479665853E+03 -0.10045512976E+04  0.10735452024E+04  0.00000000000E+00 0. -1.
<mgrwt>
<rscale>  3 0.39874928E+03</rscale>
<asrwt>0</asrwt>
<pdfrwt beam="1">  1       21 0.14422405E-01 0.39874928E+03</pdfrwt>
<pdfrwt beam="2">  1       21 0.26306976E+00 0.39874928E+03</pdfrwt>
<totfact> 0.19965253E+03</totfact>
</mgrwt>
</event>
<event>
 4    0  0.1416670E-001  0.2922080E+03  0.7546771E-02  0.1089202E+00
         21   -1    0    0  502  501  0.00000000000E+00  0.00000000000E+00  0.89385434177E+03  0.89385434177E+03  0.00000000000E+00 0.  1.
         21   -1    0    0  503  502 -0.00000000000E+00 -0.00000000000E+00 -0.96514024748E+02  0.96514024748E+02  0.00000000000E+00 0.  1.
         25    1    1    2    0    0 -0.87972624929E+02  0.24904084098E+03  0.57553313159E+03  0.64546410339E+03  0.12500000000E+03 0.  0.
         21    1    1    2  503  501  0.87972624929E+02 -0.24904084098E+03  0.22180718544E+03  0.34490426313E+03  0.00000000000E+00 0.  1.
<mgrwt>
<rscale>  3 0.29220801E+03</rscale>
<asrwt>0</asrwt>
<pdfrwt beam="1">  1       21 0.13751605E+00 0.29220801E+03</pdfrwt>
<pdfrwt beam="2">  1       21 0.14848312E-01 0.29220801E+03</pdfrwt>
<totfact> 0.14133604E+04</totfact>
</mgrwt>
</event>
<event>
 4    0  0.1596519E-001  0.3017129E+03  0.7546771E-02  0.1084387E+00
         21   -1    0    0  502  501  0.00000000000E+00  0.00000000000E+00  0.24812000301E+03  0.24812000301E+03  0.00000000000E+00 0.  1.
         21   -1    0    0  503  502 -0.00000000000E+00 -0.00000000000E+00 -0.33538260104E+03  0.33538260104E+03  0.00000000000E+00 0.  1.
         25    1    1    2    0    0 -0.27078718273E+03 -0.45606435989E+02 -0.32097150789E+02  0.30341534638E+03  0.12500000000E+03 0.  0.
         21    1    1    2  503  501  0.27078718273E+03  0.45606435989E+02 -0.55165447241E+02  0.28008725766E+03  0.00000000000E+00 0.  1.
<mgrwt>
<rscale>  3 0.30171285E+03</rscale>
<asrwt>0</asrwt>
<pdfrwt beam="1">  1       21 0.38172308E-01 0.30171285E+03</pdfrwt>
<pdfrwt beam="2">  1       21 0.51597323E-01 0.30171285E+03</pdfrwt>
<totfact> 0.22409900E+04</totfact>
</mgrwt>
</event>
<event>
 4    0  0.1291770E-001  0.3043444E+03  0.7546771E-02  0.1083089E+00
         21   -1    0    0  503  501  0.00000000000E+00  0.00000000000E+00  0.12995863415E+03  0.12995863415E+03  0.00000000000E+00 0. -1.
         21   -1    0    0  501  502 -0.00000000000E+00 -0.00000000000E+00 -0.72649591012E+03  0.72649591012E+03  0.00000000000E+00 0. -1.
         25    1    1    2    0    0 -0.21865988192E+03 -0.17084606200E+03 -0.44831319418E+03  0.54185813728E+03  0.12500000000E+03 0.  0.
         21    1    1    2  503  502  0.21865988192E+03  0.17084606200E+03 -0.14822408179E+03  0.31459640698E+03  0.00000000000E+00 0. -1.
<mgrwt>
<rscale>  3 0.30434441E+03</rscale>
<asrwt>0</asrwt>
<pdfrwt beam="1">  1       21 0.19993637E-01 0.30434441E+03</pdfrwt>
<pdfrwt beam="2">  1       21 0.11176860E+00 0.30434441E+03</pdfrwt>
<totfact> 0.13649093E+04</totfact>
</mgrwt>
</event>
<event>
 4    0  0.1413654E-001  0.3288864E+03  0.7546771E-02  0.1071631E+00
         21   -1    0    0  502  501  0.00000000000E+00  0.00000000000E+00  0.66413360870E+03  0.66413360870E+03  0.00000000000E+00 0. -1.
         21   -1    0    0  503  502 -0.00000000000E+00 -0.00000000000E+00 -0.17081702724E+03  0.17081702724E+03  0.00000000000E+00 0. -1.
         25    1    1    2    0    0  0.13913328349E+03  0.27052388723E+03  0.39769684509E+03  0.51607075554E+03  0.12500000000E+03 0.  0.
         21    1    1    2  503  501 -0.13913328349E+03 -0.27052388723E+03  0.95619736370E+02  0.31887988039E+03  0.00000000000E+00 0. -1.
<mgrwt>
<rscale>  3 0.32888637E+03</rscale>
<asrwt>0</asrwt>
<pdfrwt beam="1">  1       21 0.10217440E+00 0.32888637E+03</pdfrwt>
<pdfrwt beam="2">  1       21 0.26279543E-01 0.32888637E+03</pdfrwt>
<totfact> 0.99646774E+03</totfact>
</mgrwt>
</event>
<event>
 4    0  0.1003929E-001  0.2958908E+03  0.7546771E-02  0.1087313E+00
         21   -1    0    0  502  501  0.00000000000E+00  0.00000000000E+00  0.13359704344E+04  0.13359704344E+04  0.00000000000E+00 0. -1.
         21   -1    0    0  503  502 -0.00000000000E+00 -0.00000000000E+00 -0.70406924699E+02  0.70406924699E+02  0.00000000000E+00 0.  1.
         25    1    1    2    0    0  0.15229071552E+03 -0.22075756135E+03  0.93500621798E+03  0.98070790279E+03  0.12500000000E+03 0.  0.
         21    1    1    2  503  501 -0.15229071552E+03  0.22075756135E+03  0.33055729171E+03  0.42566945631E+03  0.00000000000E+00 0.  1.
<mgrwt>
<rscale>  3 0.29589080E+03</rscale>
<asrwt>0</asrwt>
<pdfrwt beam="1">  1       21 0.20553389E+00 0.29589080E+03</pdfrwt>
<pdfrwt beam="2">  1       21 0.10831836E-01 0.29589080E+03</pdfrwt>
<totfact> 0.80979453E+03</totfact>
</mgrwt>
</event>
<event>
 4    0  0.1003929E-001  0.2988554E+03  0.7546771E-02  0.1085814E+00
         21   -1    0    0  502  501  0.00000000000E+00  0.00000000000E+00  0.94269562621E+03  0.94269562621E+03  0.00000000000E+00 0. -1.
         21   -1    0    0  503  502 -0.00000000000E+00 -0.00000000000E+00 -0.18601262658E+03  0.18601262658E+03  0.00000000000E+00 0. -1.
         25    1    1    2    0    0 -0.27049363331E+03 -0.22864221933E+02 -0.26293044373E+02  0.30000983732E+03  0.12500000000E+03 0.  0.
         21    1    1    2  503  501  0.27049363331E+03  0.22864221933E+02  0.78297604401E+03  0.82869841547E+03  0.00000000000E+00 0. -1.
<mgrwt>
<rscale>  3 0.29885545E+03</rscale>
<asrwt>0</asrwt>
<pdfrwt beam="1">  1       21 0.14503009E+00 0.29885545E+03</pdfrwt>
<pdfrwt beam="2">  1       21 0.28617328E-01 0.29885545E+03</pdfrwt>
<totfact> 0.35354634E+03</totfact>
</mgrwt>
</event>
<event>
 4    0  0.1309988E-001  0.3857654E+03  0.7546771E-02  0.1048823E+00
         21   -1    0    0  503  501  0.00000000000E+00  0.00000000000E+00  0.12345757781E+03  0.12345757781E+03  0.00000000000E+00 0.  1.
         21   -1    0    0  501  502 -0.00000000000E+00 -0.00000000000E+00 -0.11526455715E+04  0.11526455715E+04  0.00000000000E+00 0.  1.
         25    1    1    2    0    0 -0.11084002810E+02 -0.36478360167E+03 -0.46526080307E+03  0.60438609021E+03  0.12500000000E+03 0.  0.
         21    1    1    2  503  502  0.11084002810E+02  0.36478360167E+03 -0.56392719066E+03  0.67171705913E+03  0.00000000000E+00 0.  1.
<mgrwt>
<rscale>  3 0.38576538E+03</rscale>
<asrwt>0</asrwt>
<pdfrwt beam="1">  1       21 0.18993474E-01 0.38576538E+03</pdfrwt>
<pdfrwt beam="2">  1       21 0.17733008E+00 0.38576538E+03</pdfrwt>
<totfact> 0.42713140E+03</totfact>
</mgrwt>
</event>
<event>
 4    0  0.1125733E-001  0.3399710E+03  0.7546771E-02  0.1066808E+00
         21   -1    0    0  502  501  0.00000000000E+00  0.00000000000E+00  0.10154768530E+03  0.10154768530E+03  0.00000000000E+00 0.  1.
         21   -1    0    0  503  502 -0.00000000000E+00 -0.00000000000E+00 -0.13723908992E+04  0.13723908992E+04  0.00000000000E+00 0.  1.
         25    1    1    2    0    0  0.17567136086E+03 -0.26285897203E+03 -0.30172155904E+03  0.45455050918E+03  0.12500000000E+03 0.  0.
         21    1    1    2  503  501 -0.17567136086E+03  0.26285897203E+03 -0.96912165484E+03  0.10193880753E+04  0.00000000000E+00 0.  1.
<mgrwt>
<rscale>  3 0.33997098E+03</rscale>
<asrwt>0</asrwt>
<pdfrwt beam="1">  1       21 0.15622723E-01 0.33997098E+03</pdfrwt>
<pdfrwt beam="2">  1       21 0.21113703E+00 0.33997098E+03</pdfrwt>
<totfact> 0.37305299E+03</totfact>
</mgrwt>
</event>
<event>
 4    0  0.1003929E-001  0.2579951E+03  0.7546771E-02  0.1108354E+00
         21   -1    0    0  502  501  0.00000000000E+00  0.00000000000E+00  0.31223677328E+04  0.31223677328E+04  0.00000000000E+00 0. -1.
         21   -1    0    0  503  502 -0.00000000000E+00 -0.00000000000E+00 -0.11871853029E+03  0.11871853029E+03  0.00000000000E+00 0. -1.
         25    1    1    2    0    0 -0.14325475096E+03  0.17439771535E+03  0.30043368645E+04  0.30153940841E+04  0.12500000000E+03 0.  0.
         21    1    1    2  503  501  0.14325475096E+03 -0.17439771535E+03 -0.68766199116E+00  0.22569217903E+03  0.00000000000E+00 0. -1.
<mgrwt>
<rscale>  3 0.25799513E+03</rscale>
<asrwt>0</asrwt>
<pdfrwt beam="1">  1       21 0.48036421E+00 0.25799513E+03</pdfrwt>
<pdfrwt beam="2">  1       21 0.18264392E-01 0.25799513E+03</pdfrwt>
<totfact> 0.63682825E+01</totfact>
</mgrwt>
</event>
<event>
 4    0  0.1003929E-001  0.3261180E+03  0.7546771E-02  0.1072868E+00
         21   -1    0    0  503  501  0.00000000000E+00  0.00000000000E+00  0.40757793081E+02  0.40757793081E+02  0.00000000000E+00 0. -1.
         21   -1    0    0  501  502 -0.00000000000E+00 -0.00000000000E+00 -0.25316461872E+04  0.25316461872E+04  0.00000000000E+00 0. -1.
         25    1    1    2    0    0 -0.25467443083E+03 -0.16083813302E+03 -0.10154218341E+04  0.10665057299E+04  0.12500000000E+03 0.  0.
         21    1    1    2  503  502  0.25467443083E+03  0.16083813302E+03 -0.14754665600E+04  0.15058982504E+04  0.00000000000E+00 0. -1.
<mgrwt>
<rscale>  3 0.32611803E+03</rscale>
<asrwt>0</asrwt>
<pdfrwt beam="1">  1       21 0.62704293E-02 0.32611803E+03</pdfrwt>
<pdfrwt beam="2">  1       21 0.38948405E+00 0.32611803E+03</pdfrwt>
<totfact> 0.15973303E+03</totfact>
</mgrwt>
</event>
<event>
 4    0  0.1423792E-001  0.2417772E+03  0.7546771E-02  0.1118615E+00
         21   -1    0    0  502  501  0.00000000000E+00  0.00000000000E+00  0.46076435637E+03  0.46076435637E+03  0.00000000000E+00 0. -1.
         21   -1    0    0  503  502 -0.00000000000E+00 -0.00000000000E+00 -0.11664680534E+03  0.11664680534E+03  0.00000000000E+00 0. -1.
         25    1    1    2    0    0 -0.17542465201E+03  0.10980632501E+03  0.25703704260E+03  0.35287997792E+03  0.12500000000E+03 0.  0.
         21    1    1    2  503  501  0.17542465201E+03 -0.10980632501E+03  0.87080508434E+02  0.22453118379E+03  0.00000000000E+00 0. -1.
<mgrwt>
<rscale>  3 0.24177725E+03</rscale>
<asrwt>0</asrwt>
<pdfrwt beam="1">  1       21 0.70886823E-01 0.24177725E+03</pdfrwt>
<pdfrwt beam="2">  1       21 0.17945663E-01 0.24177725E+03</pdfrwt>
<totfact> 0.49743355E+04</totfact>
</mgrwt>
</event>
<event>
 4    0  0.1410896E-001  0.2505560E+03  0.7546771E-02  0.1112954E+00
         21   -1    0    0  503  501  0.00000000000E+00  0.00000000000E+00  0.32688210974E+03  0.32688210974E+03  0.00000000000E+00 0.  1.
         21   -1    0    0  501  502 -0.00000000000E+00 -0.00000000000E+00 -0.18534634617E+03  0.18534634617E+03  0.00000000000E+00 0.  1.
         25    1    1    2    0    0  0.19409942053E+03 -0.97358819604E+02  0.15506669238E+03  0.29465913169E+03  0.12500000000E+03 0.  0.
         21    1    1    2  503  502 -0.19409942053E+03  0.97358819604E+02 -0.13530928813E+02  0.21756932422E+03  0.00000000000E+00 0.  1.
<mgrwt>
<rscale>  3 0.25055603E+03</rscale>
<asrwt>0</asrwt>
<pdfrwt beam="1">  1       21 0.50289555E-01 0.25055603E+03</pdfrwt>
<pdfrwt beam="2">  1       21 0.28514822E-01 0.25055603E+03</pdfrwt>
<totfact> 0.43113919E+04</totfact>
</mgrwt>
</event>
<event>
 4    0  0.1439041E-001  0.2369602E+03  0.7546771E-02  0.1121835E+00
         21   -1    0    0  503  501  0.00000000000E+00  0.00000000000E+00  0.63964049297E+03  0.63964049297E+03  0.00000000000E+00 0. -1.
         21   -1    0    0  501  502 -0.00000000000E+00 -0.00000000000E+00 -0.29596287502E+03  0.29596287502E+03  0.00000000000E+00 0. -1.
         25    1    1    2    0    0 -0.11786436152E+03 -0.16319661131E+03  0.57918430636E+03  0.62578319120E+03  0.12500000000E+03 0.  0.
         21    1    1    2  503  502  0.11786436152E+03  0.16319661131E+03 -0.23550668840E+03  0.30982017678E+03  0.00000000000E+00 0. -1.
<mgrwt>
<rscale>  3 0.23696021E+03</rscale>
<asrwt>0</asrwt>
<pdfrwt beam="1">  1       21 0.98406230E-01 0.23696021E+03</pdfrwt>
<pdfrwt beam="2">  1       21 0.45532750E-01 0.23696021E+03</pdfrwt>
<totfact> 0.38126592E+03</totfact>
</mgrwt>
</event>
<event>
 4    0  0.1090215E-001  0.4674921E+03  0.7546771E-02  0.1022630E+00
         21   -1    0    0  502  501  0.00000000000E+00  0.00000000000E+00  0.10490104352E+04  0.10490104352E+04  0.00000000000E+00 0.  1.
         21   -1    0    0  503  502 -0.00000000000E+00 -0.00000000000E+00 -0.25959773505E+03  0.25959773505E+03  0.00000000000E+00 0.  1.
         25    1    1    2    0    0 -0.17377770150E+03 -0.41560213159E+03  0.71166314498E+03  0.85147710083E+03  0.12500000000E+03 0.  0.
         21    1    1    2  503  501  0.17377770150E+03  0.41560213159E+03  0.77749555197E+02  0.45713106944E+03  0.00000000000E+00 0.  1.
<mgrwt>
<rscale>  3 0.46749205E+03</rscale>
<asrwt>0</asrwt>
<pdfrwt beam="1">  1       21 0.16138622E+00 0.46749205E+03</pdfrwt>
<pdfrwt beam="2">  1       21 0.39938114E-01 0.46749205E+03</pdfrwt>
<totfact> 0.12485328E+03</totfact>
</mgrwt>
</event>
<event>
 4    0  0.1425264E-001  0.3361868E+03  0.7546771E-02  0.1068432E+00
         21   -1    0    0  502  501  0.00000000000E+00  0.00000000000E+00  0.23253915985E+03  0.23253915985E+03  0.00000000000E+00 0. -1.
         21   -1    0    0  503  502 -0.00000000000E+00 -0.00000000000E+00 -0.54781666150E+03  0.54781666150E+03  0.00000000000E+00 0. -1.
         25    1    1    2    0    0  0.44054163884E+02 -0.30895917996E+03  0.77440819544E+00  0.33618766180E+03  0.12500000000E+03 0.  0.
         21    1    1    2  503  501 -0.44054163884E+02  0.30895917996E+03 -0.31605190985E+03  0.44416815955E+03  0.00000000000E+00 0. -1.
<mgrwt>
<rscale>  3 0.33618677E+03</rscale>
<asrwt>0</asrwt>
<pdfrwt beam="1">  1       21 0.35775256E-01 0.33618677E+03</pdfrwt>
<pdfrwt beam="2">  1       21 0.84279485E-01 0.33618677E+03</pdfrwt>
<totfact> 0.85100734E+03</totfact>
</mgrwt>
</event>
<event>
 4    0  0.1237837E-001  0.2555649E+03  0.7546771E-02  0.1109838E+00
         21   -1    0    0  503  501  0.00000000000E+00  0.00000000000E+00  0.12172877709E+04  0.12172877709E+04  0.00000000000E+00 0. -1.
         21   -1    0    0  501  502 -0.00000000000E+00 -0.00000000000E+00 -0.50706427469E+02  0.50706427469E+02  0.00000000000E+00 0. -1.
         25    1    1    2    0    0  0.21720886595E+03  0.50087040719E+02  0.79082960617E+03  0.83109859168E+03  0.12500000000E+03 0.  0.
         21    1    1    2  503  502 -0.21720886595E+03 -0.50087040719E+02  0.37575173728E+03  0.43689560671E+03  0.00000000000E+00 0. -1.
<mgrwt>
<rscale>  3 0.25556487E+03</rscale>
<asrwt>0</asrwt>
<pdfrwt beam="1">  1       21 0.18727502E+00 0.25556487E+03</pdfrwt>
<pdfrwt beam="2">  1       21 0.78009898E-02 0.25556487E+03</pdfrwt>
<totfact> 0.19556024E+04</totfact>
</mgrwt>
</event>
<event>
 4    0  0.1003929E-001  0.6682767E+03  0.7546771E-02  0.9773076E-01
         21   -1    0    0  503  501  0.00000000000E+00  0.00000000000E+00  0.92276514713E+03  0.92276514713E+03  0.00000000000E+00 0.  1.
         21   -1    0    0  501  502 -0.00000000000E+00 -0.00000000000E+00 -0.66857043928E+03  0.66857043928E+03  0.00000000000E+00 0. -1.
         25    1    1    2    0    0  0.37680705795E+03  0.53757340598E+03  0.55550282350E+03  0.86900927075E+03  0.12500000000E+03 0.  0.
         21    1    1    2  503  502 -0.37680705795E+03 -0.53757340598E+03 -0.30130811565E+03  0.72232631566E+03  0.00000000000E+00 0. -1.
<mgrwt>
<rscale>  3 0.66827668E+03</rscale>
<asrwt>0</asrwt>
<pdfrwt beam="1">  1       21 0.14196387E+00 0.66827668E+03</pdfrwt>
<pdfrwt beam="2">  1       21 0.10285699E+00 0.66827668E+03</pdfrwt>
<totfact> 0.19843465E+02</totfact>
</mgrwt>
</event>
<event>
 4    0  0.1003929E-001  0.2475947E+03  0.7546771E-02  0.1114834E+00
         21   -1    0    0  503  501  0.00000000000E+00  0.00000000000E+00  0.62714706368E+03  0.62714706368E+03  0.00000000000E+00 0. -1.
         21   -1    0    0  501  502 -0.00000000000E+00 -0.00000000000E+00 -0.96485495274E+02  0.96485495274E+02  0.00000000000E+00 0.  1.
         25    1    1    2    0    0 -0.12090099404E+03  0.17624161772E+03  0.40788945528E+03  0.47715507532E+03  0.12500000000E+03 0.  0.
         21    1    1    2  503  502  0.12090099404E+03 -0.17624161772E+03  0.12277211312E+03  0.24647748363E+03  0.00000000000E+00 0.  1.
<mgrwt>
<rscale>  3 0.24759475E+03</rscale>
<asrwt>0</asrwt>
<pdfrwt beam="1">  1       21 0.96484161E-01 0.24759475E+03</pdfrwt>
<pdfrwt beam="2">  1       21 0.14843923E-01 0.24759475E+03</pdfrwt>
<totfact> 0.34736241E+04</totfact>
</mgrwt>
</event>
<event>
 4    0  0.1418823E-001  0.2545451E+03  0.7546771E-02  0.1110466E+00
         21   -1    0    0  503  501  0.00000000000E+00  0.00000000000E+00  0.10531926768E+04  0.10531926768E+04  0.00000000000E+00 0. -1.
         21   -1    0    0  501  502 -0.00000000000E+00 -0.00000000000E+00 -0.67368082119E+02  0.67368082119E+02  0.00000000000E+00 0. -1.
         25    1    1    2    0    0  0.91943606362E+02 -0.20177852944E+03  0.77057594035E+03  0.81152971698E+03  0.12500000000E+03 0.  0.
         21    1    1    2  503  502 -0.91943606362E+02  0.20177852944E+03  0.21524865435E+03  0.30903104196E+03  0.00000000000E+00 0. -1.
<mgrwt>
<rscale>  3 0.25454509E+03</rscale>
<asrwt>0</asrwt>
<pdfrwt beam="1">  1       21 0.16202963E+00 0.25454509E+03</pdfrwt>
<pdfrwt beam="2">  1       21 0.10364321E-01 0.25454509E+03</pdfrwt>
<totfact> 0.17817577E+04</totfact>
</mgrwt>
</event>
<event>
 4    0  0.1003929E-001  0.4719597E+03  0.7546771E-02  0.1021369E+00
         21   -1    0    0  503  501  0.00000000000E+00  0.00000000000E+00  0.18265911646E+04  0.18265911646E+04  0.00000000000E+00 0.  1.
         21   -1    0    0  501  502 -0.00000000000E+00 -0.00000000000E+00 -0.11939051521E+03  0.11939051521E+03  0.00000000000E+00 0.  1.
         25    1    1    2    0    0 -0.37057079414E+03  0.26419350214E+03  0.75076560493E+03  0.88678910322E+03  0.12500000000E+03 0.  0.
         21    1    1    2  503  502  0.37057079414E+03 -0.26419350214E+03  0.95643504447E+03  0.10591925766E+04  0.00000000000E+00 0.  1.
<mgrwt>
<rscale>  3 0.47195966E+03</rscale>
<asrwt>0</asrwt>
<pdfrwt beam="1">  1       21 0.28101400E+00 0.47195966E+03</pdfrwt>
<pdfrwt beam="2">  1       21 0.18367773E-01 0.47195966E+03</pdfrwt>
<totfact> 0.95358610E+02</totfact>
</mgrwt>
</event>
<event>
 4    0  0.1551273E-001  0.2614887E+03  0.7546771E-02  0.1106252E+00
         21   -1    0    0  502  501  0.00000000000E+00  0.00000000000E+00  0.85473811079E+02  0.85473811079E+02  0.00000000000E+00 0.  1.
         21   -1    0    0  503  502 -0.00000000000E+00 -0.00000000000E+00 -0.78817513571E+03  0.78817513571E+03  0.00000000000E+00 0.  1.
         25    1    1    2    0    0 -0.22880027492E+03 -0.20044082517E+02 -0.23060350975E+03  0.34864639645E+03  0.12500000000E+03 0.  0.
         21    1    1    2  503  501  0.22880027492E+03  0.20044082517E+02 -0.47209781488E+03  0.52500255034E+03  0.00000000000E+00 0.  1.
<mgrwt>
<rscale>  3 0.26148868E+03</rscale>
<asrwt>0</asrwt>
<pdfrwt beam="1">  1       21 0.13149817E-01 0.26148868E+03</pdfrwt>
<pdfrwt beam="2">  1       21 0.12125771E+00 0.26148868E+03</pdfrwt>
<totfact> 0.24679921E+04</totfact>
</mgrwt>
</event>
<event>
 4    0  0.1387332E-001  0.2428454E+03  0.7546771E-02  0.1117912E+00
         21   -1    0    0  503  501  0.00000000000E+00  0.00000000000E+00  0.28878207601E+03  0.28878207601E+03  0.00000000000E+00 0.  1.
         21   -1    0    0  501  502 -0.00000000000E+00 -0.00000000000E+00 -0.20533214959E+03  0.20533214959E+03  0.00000000000E+00 0.  1.
         25    1    1    2    0    0  0.12519979730E+03 -0.16635479938E+03  0.13741756056E+03  0.27902955842E+03  0.12500000000E+03 0.  0.
         21    1    1    2  503  502 -0.12519979730E+03  0.16635479938E+03 -0.53967634137E+02  0.21508466718E+03  0.00000000000E+00 0.  1.
<mgrwt>
<rscale>  3 0.24284544E+03</rscale>
<asrwt>0</asrwt>
<pdfrwt beam="1">  1       21 0.44428012E-01 0.24284544E+03</pdfrwt>
<pdfrwt beam="2">  1       21 0.31589561E-01 0.24284544E+03</pdfrwt>
<totfact> 0.45791400E+04</totfact>
</mgrwt>
</event>
<event>
 4    0  0.1442880E-001  0.2939769E+03  0.7546771E-02  0.1088291E+00
         21   -1    0    0  502  501  0.00000000000E+00  0.00000000000E+00  0.67256294187E+03  0.67256294187E+03  0.00000000000E+00 0.  1.
         21   -1    0    0  503  502 -0.00000000000E+00 -0.00000000000E+00 -0.13048413431E+03  0.13048413431E+03  0.00000000000E+00 0.  1.
         25    1    1    2    0    0  0.11959927309E+03  0.23768347767E+03  0.41397292782E+03  0.50773615850E+03  0.12500000000E+03 0.  0.
         21    1    1    2  503  501 -0.11959927309E+03 -0.23768347767E+03  0.12810587973E+03  0.29531091768E+03  0.00000000000E+00 0.  1.
<mgrwt>
<rscale>  3 0.29397691E+03</rscale>
<asrwt>0</asrwt>
<pdfrwt beam="1">  1       21 0.10347122E+00 0.29397691E+03</pdfrwt>
<pdfrwt beam="2">  1       21 0.20074483E-01 0.29397691E+03</pdfrwt>
<totfact> 0.16428864E+04</totfact>
</mgrwt>
</event>
<event>
 4    0  0.1003929E-001  0.4641420E+03  0.7546771E-02  0.1023587E+00
         21   -1    0    0  503  501  0.00000000000E+00  0.00000000000E+00  0.11265483869E+03  0.11265483869E+03  0.00000000000E+00 0. -1.
         21   -1    0    0  501  502 -0.00000000000E+00 -0.00000000000E+00 -0.21106619884E+04  0.21106619884E+04  0.00000000000E+00 0. -1.
         25    1    1    2    0    0 -0.29451652095E+03  0.33624809422E+03 -0.61907203767E+03  0.77374281890E+03  0.12500000000E+03 0.  0.
         21    1    1    2  503  502  0.29451652095E+03 -0.33624809422E+03 -0.13789351121E+04  0.14495740082E+04  0.00000000000E+00 0. -1.
<mgrwt>
<rscale>  3 0.46414196E+03</rscale>
<asrwt>0</asrwt>
<pdfrwt beam="1">  1       21 0.17331513E-01 0.46414196E+03</pdfrwt>
<pdfrwt beam="2">  1       21 0.32471725E+00 0.46414196E+03</pdfrwt>
<totfact> 0.58218917E+02</totfact>
</mgrwt>
</event>
<event>
 4    0  0.1255440E-001  0.2562445E+03  0.7546771E-02  0.1109421E+00
         21   -1    0    0  502  501  0.00000000000E+00  0.00000000000E+00  0.13704996979E+04  0.13704996979E+04  0.00000000000E+00 0. -1.
         21   -1    0    0  503  502 -0.00000000000E+00 -0.00000000000E+00 -0.53313699550E+02  0.53313699550E+02  0.00000000000E+00 0. -1.
         25    1    1    2    0    0  0.14458766557E+03 -0.17067700116E+03  0.10209156581E+04  0.10525825444E+04  0.12500000000E+03 0.  0.
         21    1    1    2  503  501 -0.14458766557E+03  0.17067700116E+03  0.29627034023E+03  0.37123085306E+03  0.00000000000E+00 0. -1.
<mgrwt>
<rscale>  3 0.25624448E+03</rscale>
<asrwt>0</asrwt>
<pdfrwt beam="1">  1       21 0.21084608E+00 0.25624448E+03</pdfrwt>
<pdfrwt beam="2">  1       21 0.82021087E-02 0.25624448E+03</pdfrwt>
<totfact> 0.12564279E+04</totfact>
</mgrwt>
</event>
<event>
 4    0  0.1003929E-001  0.3089999E+03  0.7546771E-02  0.1080826E+00
         21   -1    0    0  503  501  0.00000000000E+00  0.00000000000E+00  0.17814196904E+03  0.17814196904E+03  0.00000000000E+00 0. -1.
         21   -1    0    0  501  502 -0.00000000000E+00 -0.00000000000E+00 -0.28142730949E+04  0.28142730949E+04  0.00000000000E+00 0.  1.
         25    1    1    2    0    0  0.18495353830E+03  0.21365421276E+03  0.30821129402E+02  0.31053321236E+03  0.12500000000E+03 0.  0.
         21    1    1    2  503  502 -0.18495353830E+03 -0.21365421276E+03 -0.26669522553E+04  0.26818818516E+04  0.00000000000E+00 0.  1.
<mgrwt>
<rscale>  3 0.30899989E+03</rscale>
<asrwt>0</asrwt>
<pdfrwt beam="1">  1       21 0.27406460E-01 0.30899989E+03</pdfrwt>
<pdfrwt beam="2">  1       21 0.43296504E+00 0.30899989E+03</pdfrwt>
<totfact> 0.57562764E+01</totfact>
</mgrwt>
</event>
<event>
 4    0  0.1003929E-001  0.2525772E+03  0.7546771E-02  0.1111687E+00
         21   -1    0    0  502  501  0.00000000000E+00  0.00000000000E+00  0.22595290333E+03  0.22595290333E+03  0.00000000000E+00 0.  1.
         21   -1    0    0  503  502 -0.00000000000E+00 -0.00000000000E+00 -0.24771770150E+03  0.24771770150E+03  0.00000000000E+00 0. -1.
         25    1    1    2    0    0  0.12690659122E+03 -0.17906688762E+03 -0.27858156098E+02  0.25410885463E+03  0.12500000000E+03 0.  0.
         21    1    1    2  503  501 -0.12690659122E+03  0.17906688762E+03  0.60933579260E+01  0.21956175020E+03  0.00000000000E+00 0. -1.
<mgrwt>
<rscale>  3 0.25257718E+03</rscale>
<asrwt>0</asrwt>
<pdfrwt beam="1">  1       21 0.34761985E-01 0.25257718E+03</pdfrwt>
<pdfrwt beam="2">  1       21 0.38110415E-01 0.25257718E+03</pdfrwt>
<totfact> 0.51592396E+04</totfact>
</mgrwt>
</event>
<event>
 4    0  0.1449634E-001  0.2757251E+03  0.7546771E-02  0.1098047E+00
         21   -1    0    0  503  501  0.00000000000E+00  0.00000000000E+00  0.39250316625E+03  0.39250316625E+03  0.00000000000E+00 0.  1.
         21   -1    0    0  501  502 -0.00000000000E+00 -0.00000000000E+00 -0.20712246212E+03  0.20712246212E+03  0.00000000000E+00 0.  1.
         25    1    1    2    0    0  0.48902163555E+01  0.24571405376E+03  0.21828334649E+03  0.35167020031E+03  0.12500000000E+03 0.  0.
         21    1    1    2  503  502 -0.48902163555E+01 -0.24571405376E+03 -0.32902642357E+02  0.24795542806E+03  0.00000000000E+00 0.  1.
<mgrwt>
<rscale>  3 0.27572506E+03</rscale>
<asrwt>0</asrwt>
<pdfrwt beam="1">  1       21 0.60385102E-01 0.27572506E+03</pdfrwt>
<pdfrwt beam="2">  1       21 0.31864994E-01 0.27572506E+03</pdfrwt>
<totfact> 0.23214861E+04</totfact>
</mgrwt>
</event>
<event>
 4    0  0.1003929E-001  0.2450727E+03  0.7546771E-02  0.1116459E+00
         21   -1    0    0  503  501  0.00000000000E+00  0.00000000000E+00  0.16293625359E+04  0.16293625359E+04  0.00000000000E+00 0. -1.
         21   -1    0    0  501  502 -0.00000000000E+00 -0.00000000000E+00 -0.64162470874E+02  0.64162470874E+02  0.00000000000E+00 0. -1.
         25    1    1    2    0    0  0.17854463935E+03  0.11206002118E+03  0.14115647390E+04  0.14326812797E+04  0.12500000000E+03 0.  0.
         21    1    1    2  503  502 -0.17854463935E+03 -0.11206002118E+03  0.15363532601E+03  0.26084372714E+03  0.00000000000E+00 0. -1.
<mgrwt>
<rscale>  3 0.24507272E+03</rscale>
<asrwt>0</asrwt>
<pdfrwt beam="1">  1       21 0.25067113E+00 0.24507272E+03</pdfrwt>
<pdfrwt beam="2">  1       21 0.98711506E-02 0.24507272E+03</pdfrwt>
<totfact> 0.52105009E+03</totfact>
</mgrwt>
</event>
<event>
 4    0  0.1282007E-001  0.2378788E+03  0.7546771E-02  0.1121214E+00
         21   -1    0    0  503  501  0.00000000000E+00  0.00000000000E+00  0.22409197929E+03  0.22409197929E+03  0.00000000000E+00 0. -1.
         21   -1    0    0  501  502 -0.00000000000E+00 -0.00000000000E+00 -0.21801975903E+03  0.21801975903E+03  0.00000000000E+00 0. -1.
         25    1    1    2    0    0  0.19724716410E+03  0.45331018718E+02 -0.16596440210E+02  0.23845709642E+03  0.12500000000E+03 0.  0.
         21    1    1    2  503  502 -0.19724716410E+03 -0.45331018718E+02  0.22668660464E+02  0.20365464191E+03  0.00000000000E+00 0. -1.
<mgrwt>
<rscale>  3 0.23787885E+03</rscale>
<asrwt>0</asrwt>
<pdfrwt beam="1">  1       21 0.34475689E-01 0.23787885E+03</pdfrwt>
<pdfrwt beam="2">  1       21 0.33541501E-01 0.23787885E+03</pdfrwt>
<totfact> 0.68111471E+04</totfact>
</mgrwt>
</event>
<event>
 4    0  0.1025149E-001  0.4973878E+03  0.7546771E-02  0.1014463E+00
         21   -1    0    0  502  501  0.00000000000E+00  0.00000000000E+00  0.59452579643E+03  0.59452579643E+03  0.00000000000E+00 0. -1.
         21   -1    0    0  503  502 -0.00000000000E+00 -0.00000000000E+00 -0.61903918025E+03  0.61903918025E+03  0.00000000000E+00 0. -1.
         25    1    1    2    0    0 -0.12486569028E+02  0.48126260648E+03  0.34614712217E+03  0.60598056156E+03  0.12500000000E+03 0.  0.
         21    1    1    2  503  501  0.12486569028E+02 -0.48126260648E+03 -0.37066050598E+03  0.60758441512E+03  0.00000000000E+00 0. -1.
<mgrwt>
<rscale>  3 0.49738779E+03</rscale>
<asrwt>0</asrwt>
<pdfrwt beam="1">  1       21 0.91465508E-01 0.49738779E+03</pdfrwt>
<pdfrwt beam="2">  1       21 0.95236796E-01 0.49738779E+03</pdfrwt>
<totfact> 0.77323639E+02</totfact>
</mgrwt>
</event>
<event>
 4    0  0.1086340E-001  0.2678570E+03  0.7546771E-02  0.1102512E+00
         21   -1    0    0  503  501  0.00000000000E+00  0.00000000000E+00  0.18613802859E+04  0.18613802859E+04  0.00000000000E+00 0.  1.
         21   -1    0    0  501  502 -0.00000000000E+00 -0.00000000000E+00 -0.40762886814E+02  0.40762886814E+02  0.00000000000E+00 0.  1.
         25    1    1    2    0    0  0.79640114744E+02 -0.22311389875E+03  0.13376249102E+04  0.13641802521E+04  0.12500000000E+03 0.  0.
         21    1    1    2  503  502 -0.79640114744E+02  0.22311389875E+03  0.48299248888E+03  0.53796292066E+03  0.00000000000E+00 0.  1.
<mgrwt>
<rscale>  3 0.26785698E+03</rscale>
<asrwt>0</asrwt>
<pdfrwt beam="1">  1       21 0.28636613E+00 0.26785698E+03</pdfrwt>
<pdfrwt beam="2">  1       21 0.62712148E-02 0.26785698E+03</pdfrwt>
<totfact> 0.69731464E+03</totfact>
</mgrwt>
</event>
<event>
 4    0  0.1012647E-001  0.2948637E+03  0.7546771E-02  0.1087837E+00
         21   -1    0    0  503  501  0.00000000000E+00  0.00000000000E+00  0.15091671374E+04  0.15091671374E+04  0.00000000000E+00 0. -1.
         21   -1    0    0  501  502 -0.00000000000E+00 -0.00000000000E+00 -0.16993908764E+03  0.16993908764E+03  0.00000000000E+00 0. -1.
         25    1    1    2    0    0 -0.64861566231E+02  0.25906094205E+03  0.13780488668E+04  0.14092420919E+04  0.12500000000E+03 0.  0.
         21    1    1    2  503  502  0.64861566231E+02 -0.25906094205E+03 -0.38820817062E+02  0.26986413305E+03  0.00000000000E+00 0. -1.
<mgrwt>
<rscale>  3 0.29486369E+03</rscale>
<asrwt>0</asrwt>
<pdfrwt beam="1">  1       21 0.23217955E+00 0.29486369E+03</pdfrwt>
<pdfrwt beam="2">  1       21 0.26144476E-01 0.29486369E+03</pdfrwt>
<totfact> 0.10700886E+03</totfact>
</mgrwt>
</event>
<event>
 4    0  0.1003929E-001  0.3816026E+03  0.7546771E-02  0.1050343E+00
         21   -1    0    0  502  501  0.00000000000E+00  0.00000000000E+00  0.16829201746E+04  0.16829201746E+04  0.00000000000E+00 0.  1.
         21   -1    0    0  503  502 -0.00000000000E+00 -0.00000000000E+00 -0.11270834196E+03  0.11270834196E+03  0.00000000000E+00 0.  1.
         25    1    1    2    0    0  0.27666438318E+03 -0.23119771445E+03  0.12711423625E+04  0.13271862981E+04  0.12500000000E+03 0.  0.
         21    1    1    2  503  501 -0.27666438318E+03  0.23119771445E+03  0.29906947019E+03  0.46844221852E+03  0.00000000000E+00 0.  1.
<mgrwt>
<rscale>  3 0.38160263E+03</rscale>
<asrwt>0</asrwt>
<pdfrwt beam="1">  1       21 0.25891078E+00 0.38160263E+03</pdfrwt>
<pdfrwt beam="2">  1       21 0.17339746E-01 0.38160263E+03</pdfrwt>
<totfact> 0.15171466E+03</totfact>
</mgrwt>
</event>
<event>
 4    0  0.1628162E-001  0.2796234E+03  0.7546771E-02  0.1095895E+00
         21   -1    0    0  503  501  0.00000000000E+00  0.00000000000E+00  0.20545516757E+03  0.20545516757E+03  0.00000000000E+00 0. -1.
         21   -1    0    0  501  502 -0.00000000000E+00 -0.00000000000E+00 -0.45987485764E+03  0.45987485764E+03  0.00000000000E+00 0. -1.
         25    1    1    2    0    0  0.23468003391E+03 -0.86542104478E+02  0.36127733173E+02  0.28194763214E+03  0.12500000000E+03 0.  0.
         21    1    1    2  503  502 -0.23468003391E+03  0.86542104478E+02 -0.29054742324E+03  0.38338239307E+03  0.00000000000E+00 0. -1.
<mgrwt>
<rscale>  3 0.27962341E+03</rscale>
<asrwt>0</asrwt>
<pdfrwt beam="1">  1       21 0.31608488E-01 0.27962341E+03</pdfrwt>
<pdfrwt beam="2">  1       21 0.70749978E-01 0.27962341E+03</pdfrwt>
<totfact> 0.16621438E+04</totfact>
</mgrwt>
</event>
<event>
 4    0  0.1003929E-001  0.2823055E+03  0.7546771E-02  0.1094436E+00
         21   -1    0    0  502  501  0.00000000000E+00  0.00000000000E+00  0.13989866632E+04  0.13989866632E+04  0.00000000000E+00 0.  1.
         21   -1    0    0  503  502 -0.00000000000E+00 -0.00000000000E+00 -0.13583650378E+03  0.13583650378E+03  0.00000000000E+00 0.  1.
         25    1    1    2    0    0  0.68904266391E+02 -0.24356432732E+03  0.12498661942E+04  0.12813515844E+04  0.12500000000E+03 0.  0.
         21    1    1    2  503  501 -0.68904266391E+02  0.24356432732E+03  0.13283965286E+02  0.25347158263E+03  0.00000000000E+00 0.  1.
<mgrwt>
<rscale>  3 0.28230547E+03</rscale>
<asrwt>0</asrwt>
<pdfrwt beam="1">  1       21 0.21522871E+00 0.28230547E+03</pdfrwt>
<pdfrwt beam="2">  1       21 0.20897925E-01 0.28230547E+03</pdfrwt>
<totfact> 0.21143844E+03</totfact>
</mgrwt>
</event>
<event>
 4    0  0.1003929E-001  0.2487208E+03  0.7546771E-02  0.1114116E+00
         21   -1    0    0  503  501  0.00000000000E+00  0.00000000000E+00  0.61492262194E+03  0.61492262194E+03  0.00000000000E+00 0. -1.
         21   -1    0    0  501  502 -0.00000000000E+00 -0.00000000000E+00 -0.96876326396E+02  0.96876326396E+02  0.00000000000E+00 0.  1.
         25    1    1    2    0    0  0.96042417632E+02  0.19238734805E+03  0.38684856122E+03  0.45990634589E+03  0.12500000000E+03 0.  0.
         21    1    1    2  503  502 -0.96042417632E+02 -0.19238734805E+03  0.13119773432E+03  0.25189260244E+03  0.00000000000E+00 0.  1.
<mgrwt>
<rscale>  3 0.24872080E+03</rscale>
<asrwt>0</asrwt>
<pdfrwt beam="1">  1       21 0.94603478E-01 0.24872080E+03</pdfrwt>
<pdfrwt beam="2">  1       21 0.14904051E-01 0.24872080E+03</pdfrwt>
<totfact> 0.36102601E+04</totfact>
</mgrwt>
</event>
<event>
 4    0  0.1003929E-001  0.2601363E+03  0.7546771E-02  0.1107061E+00
         21   -1    0    0  502  501  0.00000000000E+00  0.00000000000E+00  0.17185276190E+04  0.17185276190E+04  0.00000000000E+00 0.  1.
         21   -1    0    0  503  502 -0.00000000000E+00 -0.00000000000E+00 -0.15113674868E+03  0.15113674868E+03  0.00000000000E+00 0.  1.
         25    1    1    2    0    0  0.31763307425E+02  0.22591370034E+03  0.16156683300E+04  0.16364764160E+04  0.12500000000E+03 0.  0.
         21    1    1    2  503  501 -0.31763307425E+02 -0.22591370034E+03 -0.48277459626E+02  0.23318795168E+03  0.00000000000E+00 0.  1.
<mgrwt>
<rscale>  3 0.26013633E+03</rscale>
<asrwt>0</asrwt>
<pdfrwt beam="1">  1       21 0.26438885E+00 0.26013633E+03</pdfrwt>
<pdfrwt beam="2">  1       21 0.23251809E-01 0.26013633E+03</pdfrwt>
<totfact> 0.88410609E+02</totfact>
</mgrwt>
</event>
<event>
 4    0  0.1003929E-001  0.3766062E+03  0.7546771E-02  0.1052195E+00
         21   -1    0    0  503  501  0.00000000000E+00  0.00000000000E+00  0.10908651712E+03  0.10908651712E+03  0.00000000000E+00 0.  1.
         21   -1    0    0  501  502 -0.00000000000E+00 -0.00000000000E+00 -0.18434578688E+04  0.18434578688E+04  0.00000000000E+00 0.  1.
         25    1    1    2    0    0  0.93222262555E+02  0.34280734662E+03 -0.31987366340E+03  0.49411681581E+03  0.12500000000E+03 0.  0.
         21    1    1    2  503  502 -0.93222262555E+02 -0.34280734662E+03 -0.14144976883E+04  0.14584275701E+04  0.00000000000E+00 0.  1.
<mgrwt>
<rscale>  3 0.37660625E+03</rscale>
<asrwt>0</asrwt>
<pdfrwt beam="1">  1       21 0.16782542E-01 0.37660625E+03</pdfrwt>
<pdfrwt beam="2">  1       21 0.28360889E+00 0.37660625E+03</pdfrwt>
<totfact> 0.11497784E+03</totfact>
</mgrwt>
</event>
<event>
 4    0  0.1384780E-001  0.2415612E+03  0.7546771E-02  0.1118757E+00
         21   -1    0    0  503  501  0.00000000000E+00  0.00000000000E+00  0.29793556014E+03  0.29793556014E+03  0.00000000000E+00 0. -1.
         21   -1    0    0  501  502 -0.00000000000E+00 -0.00000000000E+00 -0.17657857852E+03  0.17657857852E+03  0.00000000000E+00 0. -1.
         25    1    1    2    0    0 -0.19299113645E+03  0.74035271110E+02  0.14935225335E+02  0.24202243919E+03  0.12500000000E+03 0.  0.
         21    1    1    2  503  502  0.19299113645E+03 -0.74035271110E+02  0.10642175628E+03  0.23249169948E+03  0.00000000000E+00 0. -1.
<mgrwt>
<rscale>  3 0.24156117E+03</rscale>
<asrwt>0</asrwt>
<pdfrwt beam="1">  1       21 0.45836240E-01 0.24156117E+03</pdfrwt>
<pdfrwt beam="2">  1       21 0.27165935E-01 0.24156117E+03</pdfrwt>
<totfact> 0.57685663E+04</totfact>
</mgrwt>
</event>
<event>
 4    0  0.1572120E-001  0.2438510E+03  0.7546771E-02  0.1117254E+00
         21   -1    0    0  502  501  0.00000000000E+00  0.00000000000E+00  0.19158711196E+03  0.19158711196E+03  0.00000000000E+00 0.  1.
         21   -1    0    0  503  502 -0.00000000000E+00 -0.00000000000E+00 -0.29502701193E+03  0.29502701193E+03  0.00000000000E+00 0.  1.
         25    1    1    2    0    0 -0.20839461055E+03 -0.20248313086E+02  0.18094374403E+02  0.24452139840E+03  0.12500000000E+03 0.  0.
         21    1    1    2  503  501  0.20839461055E+03  0.20248313086E+02 -0.12153427438E+03  0.24209272550E+03  0.00000000000E+00 0.  1.
<mgrwt>
<rscale>  3 0.24385100E+03</rscale>
<asrwt>0</asrwt>
<pdfrwt beam="1">  1       21 0.29474940E-01 0.24385100E+03</pdfrwt>
<pdfrwt beam="2">  1       21 0.45388771E-01 0.24385100E+03</pdfrwt>
<totfact> 0.50177878E+04</totfact>
</mgrwt>
</event>
<event>
 4    0  0.1527273E-001  0.2782038E+03  0.7546771E-02  0.1096674E+00
         21   -1    0    0  503  501  0.00000000000E+00  0.00000000000E+00  0.18772166300E+03  0.18772166300E+03  0.00000000000E+00 0.  1.
         21   -1    0    0  501  502 -0.00000000000E+00 -0.00000000000E+00 -0.36961153821E+03  0.36961153821E+03  0.00000000000E+00 0.  1.
         25    1    1    2    0    0 -0.52303104732E+02  0.24297479409E+03 -0.91436091747E+02  0.29284453931E+03  0.12500000000E+03 0.  0.
         21    1    1    2  503  502  0.52303104732E+02 -0.24297479409E+03 -0.90453783470E+02  0.26448866190E+03  0.00000000000E+00 0.  1.
<mgrwt>
<rscale>  3 0.27820382E+03</rscale>
<asrwt>0</asrwt>
<pdfrwt beam="1">  1       21 0.28880256E-01 0.27820382E+03</pdfrwt>
<pdfrwt beam="2">  1       21 0.56863313E-01 0.27820382E+03</pdfrwt>
<totfact> 0.32042970E+04</totfact>
</mgrwt>
</event>
<event>
 4    0  0.1145408E-001  0.3521152E+03  0.7546771E-02  0.1061750E+00
         21   -1    0    0  502  501  0.00000000000E+00  0.00000000000E+00  0.10619898876E+04  0.10619898876E+04  0.00000000000E+00 0. -1.
         21   -1    0    0  503  502 -0.00000000000E+00 -0.00000000000E+00 -0.12377669733E+03  0.12377669733E+03  0.00000000000E+00 0. -1.
         25    1    1    2    0    0 -0.32013402558E+03 -0.76643915811E+02  0.28016066359E+03  0.44997231203E+03  0.12500000000E+03 0.  0.
         21    1    1    2  503  501  0.32013402558E+03  0.76643915811E+02  0.65805252665E+03  0.73579427287E+03  0.00000000000E+00 0. -1.
<mgrwt>
<rscale>  3 0.35211516E+03</rscale>
<asrwt>0</asrwt>
<pdfrwt beam="1">  1       21 0.16338305E+00 0.35211516E+03</pdfrwt>
<pdfrwt beam="2">  1       21 0.19042569E-01 0.35211516E+03</pdfrwt>
<totfact> 0.54422122E+03</totfact>
</mgrwt>
</event>
<event>
 4    0  0.1003929E-001  0.2420939E+03  0.7546771E-02  0.1118406E+00
         21   -1    0    0  503  501  0.00000000000E+00  0.00000000000E+00  0.12010934258E+04  0.12010934258E+04  0.00000000000E+00 0.  1.
         21   -1    0    0  501  502 -0.00000000000E+00 -0.00000000000E+00 -0.12614169633E+03  0.12614169633E+03  0.00000000000E+00 0.  1.
         25    1    1    2    0    0  0.18681696520E+03  0.89910367334E+02  0.10926552985E+04  0.11191537223E+04  0.12500000000E+03 0.  0.
         21    1    1    2  503  502 -0.18681696520E+03 -0.89910367334E+02 -0.17703569010E+02  0.20808139993E+03  0.00000000000E+00 0.  1.
<mgrwt>
<rscale>  3 0.24209389E+03</rscale>
<asrwt>0</asrwt>
<pdfrwt beam="1">  1       21 0.18478360E+00 0.24209389E+03</pdfrwt>
<pdfrwt beam="2">  1       21 0.19406416E-01 0.24209389E+03</pdfrwt>
<totfact> 0.39559097E+03</totfact>
</mgrwt>
</event>
<event>
 4    0  0.1003929E-001  0.2664672E+03  0.7546771E-02  0.1103319E+00
         21   -1    0    0  502  501  0.00000000000E+00  0.00000000000E+00  0.30092172505E+03  0.30092172505E+03  0.00000000000E+00 0. -1.
         21   -1    0    0  503  502 -0.00000000000E+00 -0.00000000000E+00 -0.25354796652E+03  0.25354796652E+03  0.00000000000E+00 0.  1.
         25    1    1    2    0    0  0.15401543829E+03  0.17792978937E+03  0.14067376489E+03  0.30132021722E+03  0.12500000000E+03 0.  0.
         21    1    1    2  503  501 -0.15401543829E+03 -0.17792978937E+03 -0.93300006360E+02  0.25314947436E+03  0.00000000000E+00 0.  1.
<mgrwt>
<rscale>  3 0.26646719E+03</rscale>
<asrwt>0</asrwt>
<pdfrwt beam="1">  1       21 0.46295650E-01 0.26646719E+03</pdfrwt>
<pdfrwt beam="2">  1       21 0.39007379E-01 0.26646719E+03</pdfrwt>
<totfact> 0.27311240E+04</totfact>
</mgrwt>
</event>
<event>
 4    0  0.1458999E-001  0.2494934E+03  0.7546771E-02  0.1113625E+00
         21   -1    0    0  503  501  0.00000000000E+00  0.00000000000E+00  0.14508809492E+03  0.14508809492E+03  0.00000000000E+00 0.  1.
         21   -1    0    0  501  502 -0.00000000000E+00 -0.00000000000E+00 -0.42550873891E+03  0.42550873891E+03  0.00000000000E+00 0.  1.
         25    1    1    2    0    0  0.89161827120E+02 -0.19665225083E+03 -0.49318028048E+02  0.25432107082E+03  0.12500000000E+03 0.  0.
         21    1    1    2  503  502 -0.89161827120E+02  0.19665225083E+03 -0.23110261595E+03  0.31627576301E+03  0.00000000000E+00 0.  1.
<mgrwt>
<rscale>  3 0.24949336E+03</rscale>
<asrwt>0</asrwt>
<pdfrwt beam="1">  1       21 0.22321245E-01 0.24949336E+03</pdfrwt>
<pdfrwt beam="2">  1       21 0.65462883E-01 0.24949336E+03</pdfrwt>
<totfact> 0.39233596E+04</totfact>
</mgrwt>
</event>
<event>
 4    0  0.1003929E-001  0.3605184E+03  0.7546771E-02  0.1058379E+00
         21   -1    0    0  503  501  0.00000000000E+00  0.00000000000E+00  0.23244992740E+03  0.23244992740E+03  0.00000000000E+00 0.  1.
         21   -1    0    0  501  502 -0.00000000000E+00 -0.00000000000E+00 -0.20389571568E+04  0.20389571568E+04  0.00000000000E+00 0.  1.
         25    1    1    2    0    0 -0.27196696555E+03 -0.20095392568E+03  0.67801367585E+02  0.36683856946E+03  0.12500000000E+03 0.  0.
         21    1    1    2  503  502  0.27196696555E+03  0.20095392568E+03 -0.18743085970E+04  0.19045685148E+04  0.00000000000E+00 0.  1.
<mgrwt>
<rscale>  3 0.36051839E+03</rscale>
<asrwt>0</asrwt>
<pdfrwt beam="1">  1       21 0.35761528E-01 0.36051839E+03</pdfrwt>
<pdfrwt beam="2">  1       21 0.31368571E+00 0.36051839E+03</pdfrwt>
<totfact> 0.17780475E+02</totfact>
</mgrwt>
</event>
<event>
 4    0  0.1239688E-001  0.2827639E+03  0.7546771E-02  0.1094189E+00
         21   -1    0    0  503  501  0.00000000000E+00  0.00000000000E+00  0.81601800565E+03  0.81601800565E+03  0.00000000000E+00 0.  1.
         21   -1    0    0  501  502 -0.00000000000E+00 -0.00000000000E+00 -0.11546615146E+03  0.11546615146E+03  0.00000000000E+00 0.  1.
         25    1    1    2    0    0  0.24335103201E+03  0.71489023980E+02  0.59107971297E+03  0.65523326565E+03  0.12500000000E+03 0.  0.
         21    1    1    2  503  502 -0.24335103201E+03 -0.71489023980E+02  0.10947214121E+03  0.27625089146E+03  0.00000000000E+00 0.  1.
<mgrwt>
<rscale>  3 0.28276387E+03</rscale>
<asrwt>0</asrwt>
<pdfrwt beam="1">  1       21 0.12554123E+00 0.28276387E+03</pdfrwt>
<pdfrwt beam="2">  1       21 0.17764024E-01 0.28276387E+03</pdfrwt>
<totfact> 0.12872977E+04</totfact>
</mgrwt>
</event>
<event>
 4    0  0.1233531E-001  0.2764853E+03  0.7546771E-02  0.1097624E+00
         21   -1    0    0  503  501  0.00000000000E+00  0.00000000000E+00  0.62703312898E+03  0.62703312898E+03  0.00000000000E+00 0.  1.
         21   -1    0    0  501  502 -0.00000000000E+00 -0.00000000000E+00 -0.17166256244E+03  0.17166256244E+03  0.00000000000E+00 0.  1.
         25    1    1    2    0    0 -0.64281458909E+01 -0.24653156149E+03  0.47678579703E+03  0.55115227308E+03  0.12500000000E+03 0.  0.
         21    1    1    2  503  502  0.64281458909E+01  0.24653156149E+03 -0.21415230493E+02  0.24754341835E+03  0.00000000000E+00 0.  1.
<mgrwt>
<rscale>  3 0.27648532E+03</rscale>
<asrwt>0</asrwt>
<pdfrwt beam="1">  1       21 0.96466634E-01 0.27648532E+03</pdfrwt>
<pdfrwt beam="2">  1       21 0.26409625E-01 0.27648532E+03</pdfrwt>
<totfact> 0.11601699E+04</totfact>
</mgrwt>
</event>
<event>
 4    0  0.1428671E-001  0.2770090E+03  0.7546771E-02  0.1097334E+00
         21   -1    0    0  503  501  0.00000000000E+00  0.00000000000E+00  0.15423513219E+04  0.15423513219E+04  0.00000000000E+00 0. -1.
         21   -1    0    0  501  502 -0.00000000000E+00 -0.00000000000E+00 -0.51106958535E+02  0.51106958535E+02  0.00000000000E+00 0. -1.
         25    1    1    2    0    0 -0.24323537041E+03  0.44108244090E+02  0.10677232028E+04  0.11030715391E+04  0.12500000000E+03 0.  0.
         21    1    1    2  503  502  0.24323537041E+03 -0.44108244090E+02  0.42352116057E+03  0.49038674132E+03  0.00000000000E+00 0. -1.
<mgrwt>
<rscale>  3 0.27700899E+03</rscale>
<asrwt>0</asrwt>
<pdfrwt beam="1">  1       21 0.23728478E+00 0.27700899E+03</pdfrwt>
<pdfrwt beam="2">  1       21 0.78626102E-02 0.27700899E+03</pdfrwt>
<totfact> 0.91498776E+03</totfact>
</mgrwt>
</event>
<event>
 4    0  0.1004296E-001  0.2964064E+03  0.7546771E-02  0.1087051E+00
         21   -1    0    0  502  501  0.00000000000E+00  0.00000000000E+00  0.26722579460E+04  0.26722579460E+04  0.00000000000E+00 0. -1.
         21   -1    0    0  503  502 -0.00000000000E+00 -0.00000000000E+00 -0.30904661601E+02  0.30904661601E+02  0.00000000000E+00 0. -1.
         25    1    1    2    0    0 -0.26018403538E+03  0.67350070219E+02  0.16286897751E+04  0.16554416775E+04  0.12500000000E+03 0.  0.
         21    1    1    2  503  501  0.26018403538E+03 -0.67350070219E+02  0.10126635093E+04  0.10477209301E+04  0.00000000000E+00 0. -1.
<mgrwt>
<rscale>  3 0.29640642E+03</rscale>
<asrwt>0</asrwt>
<pdfrwt beam="1">  1       21 0.41111643E+00 0.29640642E+03</pdfrwt>
<pdfrwt beam="2">  1       21 0.47545654E-02 0.29640642E+03</pdfrwt>
<totfact> 0.19251294E+03</totfact>
</mgrwt>
</event>
<event>
 4    0  0.1003929E-001  0.2363457E+03  0.7546771E-02  0.1122251E+00
         21   -1    0    0  502  501  0.00000000000E+00  0.00000000000E+00  0.18908987727E+03  0.18908987727E+03  0.00000000000E+00 0.  1.
         21   -1    0    0  503  502 -0.00000000000E+00 -0.00000000000E+00 -0.25460838352E+03  0.25460838352E+03  0.00000000000E+00 0.  1.
         25    1    1    2    0    0  0.12996296961E+01 -0.20058064903E+03 -0.55990345619E+02  0.24288722611E+03  0.12500000000E+03 0.  0.
         21    1    1    2  503  501 -0.12996296961E+01  0.20058064903E+03 -0.95281606301E+01  0.20081103468E+03  0.00000000000E+00 0.  1.
<mgrwt>
<rscale>  3 0.23634569E+03</rscale>
<asrwt>0</asrwt>
<pdfrwt beam="1">  1       21 0.29090751E-01 0.23634569E+03</pdfrwt>
<pdfrwt beam="2">  1       21 0.39170520E-01 0.23634569E+03</pdfrwt>
<totfact> 0.69801277E+04</totfact>
</mgrwt>
</event>
<event>
 4    0  0.1003929E-001  0.3139901E+03  0.7546771E-02  0.1078449E+00
         21   -1    0    0  502  501  0.00000000000E+00  0.00000000000E+00  0.64453961534E+02  0.64453961534E+02  0.00000000000E+00 0. -1.
         21   -1    0    0  503  502 -0.00000000000E+00 -0.00000000000E+00 -0.28584152340E+04  0.28584152340E+04  0.00000000000E+00 0. -1.
         25    1    1    2    0    0 -0.71985489771E+02 -0.27889583313E+03 -0.38525513629E+03  0.49700233049E+03  0.12500000000E+03 0.  0.
         21    1    1    2  503  501  0.71985489771E+02  0.27889583313E+03 -0.24087061362E+04  0.24258668651E+04  0.00000000000E+00 0. -1.
<mgrwt>
<rscale>  3 0.31399012E+03</rscale>
<asrwt>0</asrwt>
<pdfrwt beam="1">  1       21 0.99159943E-02 0.31399012E+03</pdfrwt>
<pdfrwt beam="2">  1       21 0.43975618E+00 0.31399012E+03</pdfrwt>
<totfact> 0.34188256E+02</totfact>
</mgrwt>
</event>
<event>
 4    0  0.1471934E-001  0.2541456E+03  0.7546771E-02  0.1110713E+00
         21   -1    0    0  503  501  0.00000000000E+00  0.00000000000E+00  0.19424445254E+03  0.19424445254E+03  0.00000000000E+00 0.  1.
         21   -1    0    0  501  502 -0.00000000000E+00 -0.00000000000E+00 -0.38929758541E+03  0.38929758541E+03  0.00000000000E+00 0.  1.
         25    1    1    2    0    0  0.17206436533E+03 -0.13913599620E+03  0.43854373747E+02  0.25790148769E+03  0.12500000000E+03 0.  0.
         21    1    1    2  503  502 -0.17206436533E+03  0.13913599620E+03 -0.23890750662E+03  0.32564055026E+03  0.00000000000E+00 0.  1.
<mgrwt>
<rscale>  3 0.25414557E+03</rscale>
<asrwt>0</asrwt>
<pdfrwt beam="1">  1       21 0.29883762E-01 0.25414557E+03</pdfrwt>
<pdfrwt beam="2">  1       21 0.59891936E-01 0.25414557E+03</pdfrwt>
<totfact> 0.27069652E+04</totfact>
</mgrwt>
</event>
<event>
 4    0  0.1003929E-001  0.2833552E+03  0.7546771E-02  0.1093870E+00
         21   -1    0    0  503  501  0.00000000000E+00  0.00000000000E+00  0.15741544911E+03  0.15741544911E+03  0.00000000000E+00 0.  1.
         21   -1    0    0  501  502 -0.00000000000E+00 -0.00000000000E+00 -0.19076569782E+04  0.19076569782E+04  0.00000000000E+00 0.  1.
         25    1    1    2    0    0  0.32443833646E+02  0.25221528122E+03  0.12937263220E+02  0.28365035378E+03  0.12500000000E+03 0.  0.
         21    1    1    2  503  502 -0.32443833646E+02 -0.25221528122E+03 -0.17631787923E+04  0.17814220735E+04  0.00000000000E+00 0.  1.
<mgrwt>
<rscale>  3 0.28335517E+03</rscale>
<asrwt>0</asrwt>
<pdfrwt beam="1">  1       21 0.24217763E-01 0.28335517E+03</pdfrwt>
<pdfrwt beam="2">  1       21 0.29348568E+00 0.28335517E+03</pdfrwt>
<totfact> 0.53922717E+02</totfact>
</mgrwt>
</event>
<event>
 4    0  0.1575182E-001  0.3119978E+03  0.7546771E-02  0.1079392E+00
         21   -1    0    0  503  501  0.00000000000E+00  0.00000000000E+00  0.33205254162E+03  0.33205254162E+03  0.00000000000E+00 0. -1.
         21   -1    0    0  501  502 -0.00000000000E+00 -0.00000000000E+00 -0.31925094793E+03  0.31925094793E+03  0.00000000000E+00 0. -1.
         25    1    1    2    0    0 -0.20839369089E+03  0.19567748609E+03  0.13558759226E+03  0.34018613161E+03  0.12500000000E+03 0.  0.
         21    1    1    2  503  502  0.20839369089E+03 -0.19567748609E+03 -0.12278599857E+03  0.31111735794E+03  0.00000000000E+00 0. -1.
<mgrwt>
<rscale>  3 0.31199777E+03</rscale>
<asrwt>0</asrwt>
<pdfrwt beam="1">  1       21 0.51085006E-01 0.31199777E+03</pdfrwt>
<pdfrwt beam="2">  1       21 0.49115530E-01 0.31199777E+03</pdfrwt>
<totfact> 0.13542094E+04</totfact>
</mgrwt>
</event>
<event>
 4    0  0.1565004E-001  0.2499384E+03  0.7546771E-02  0.1113344E+00
         21   -1    0    0  503  501  0.00000000000E+00  0.00000000000E+00  0.37300752641E+03  0.37300752641E+03  0.00000000000E+00 0. -1.
         21   -1    0    0  501  502 -0.00000000000E+00 -0.00000000000E+00 -0.33141255356E+03  0.33141255356E+03  0.00000000000E+00 0.  1.
         25    1    1    2    0    0  0.10009352064E+02 -0.21620360825E+03  0.28475649049E+03  0.37888711542E+03  0.12500000000E+03 0.  0.
         21    1    1    2  503  502 -0.10009352064E+02  0.21620360825E+03 -0.24316151764E+03  0.32553296456E+03  0.00000000000E+00 0.  1.
<mgrwt>
<rscale>  3 0.24993837E+03</rscale>
<asrwt>0</asrwt>
<pdfrwt beam="1">  1       21 0.57385773E-01 0.24993837E+03</pdfrwt>
<pdfrwt beam="2">  1       21 0.50986547E-01 0.24993837E+03</pdfrwt>
<totfact> 0.10061731E+04</totfact>
</mgrwt>
</event>
<event>
 4    0  0.1003929E-001  0.2388173E+03  0.7546771E-02  0.1120583E+00
         21   -1    0    0  502  501  0.00000000000E+00  0.00000000000E+00  0.74696416737E+03  0.74696416737E+03  0.00000000000E+00 0. -1.
         21   -1    0    0  503  502 -0.00000000000E+00 -0.00000000000E+00 -0.59731124231E+03  0.59731124231E+03  0.00000000000E+00 0. -1.
         25    1    1    2    0    0  0.18365933900E+03 -0.87624020269E+02  0.70948853145E+03  0.74860383247E+03  0.12500000000E+03 0.  0.
         21    1    1    2  503  501 -0.18365933900E+03  0.87624020269E+02 -0.55983560639E+03  0.59567157722E+03  0.00000000000E+00 0. -1.
<mgrwt>
<rscale>  3 0.23881734E+03</rscale>
<asrwt>0</asrwt>
<pdfrwt beam="1">  1       21 0.11491756E+00 0.23881734E+03</pdfrwt>
<pdfrwt beam="2">  1       21 0.91894037E-01 0.23881734E+03</pdfrwt>
<totfact> 0.56129690E+02</totfact>
</mgrwt>
</event>
<event>
 4    0  0.1003929E-001  0.2708882E+03  0.7546771E-02  0.1100772E+00
         21   -1    0    0  503  501  0.00000000000E+00  0.00000000000E+00  0.65886758004E+03  0.65886758004E+03  0.00000000000E+00 0. -1.
         21   -1    0    0  501  502 -0.00000000000E+00 -0.00000000000E+00 -0.10501024786E+03  0.10501024786E+03  0.00000000000E+00 0.  1.
         25    1    1    2    0    0  0.17750239235E+03 -0.16201328490E+03  0.38254907798E+03  0.46874748088E+03  0.12500000000E+03 0.  0.
         21    1    1    2  503  502 -0.17750239235E+03  0.16201328490E+03  0.17130825419E+03  0.29513034701E+03  0.00000000000E+00 0.  1.
<mgrwt>
<rscale>  3 0.27088818E+03</rscale>
<asrwt>0</asrwt>
<pdfrwt beam="1">  1       21 0.10136424E+00 0.27088818E+03</pdfrwt>
<pdfrwt beam="2">  1       21 0.16155423E-01 0.27088818E+03</pdfrwt>
<totfact> 0.26157271E+04</totfact>
</mgrwt>
</event>
<event>
 4    0  0.1394838E-001  0.2436920E+03  0.7546771E-02  0.1117357E+00
         21   -1    0    0  502  501  0.00000000000E+00  0.00000000000E+00  0.95198530483E+03  0.95198530483E+03  0.00000000000E+00 0. -1.
         21   -1    0    0  503  502 -0.00000000000E+00 -0.00000000000E+00 -0.53875502937E+02  0.53875502937E+02  0.00000000000E+00 0. -1.
         25    1    1    2    0    0 -0.42328812973E+02  0.20486357665E+03  0.49122624291E+03  0.54835119693E+03  0.12500000000E+03 0.  0.
         21    1    1    2  503  501  0.42328812973E+02 -0.20486357665E+03  0.40688355898E+03  0.45750961084E+03  0.00000000000E+00 0. -1.
<mgrwt>
<rscale>  3 0.24369205E+03</rscale>
<asrwt>0</asrwt>
<pdfrwt beam="1">  1       21 0.14645926E+00 0.24369205E+03</pdfrwt>
<pdfrwt beam="2">  1       21 0.82885396E-02 0.24369205E+03</pdfrwt>
<totfact> 0.34894812E+04</totfact>
</mgrwt>
</event>
<event>
 4    0  0.1003929E-001  0.2551684E+03  0.7546771E-02  0.1110081E+00
         21   -1    0    0  502  501  0.00000000000E+00  0.00000000000E+00  0.10305789401E+03  0.10305789401E+03  0.00000000000E+00 0. -1.
         21   -1    0    0  503  502 -0.00000000000E+00 -0.00000000000E+00 -0.69761846663E+03  0.69761846663E+03  0.00000000000E+00 0.  1.
         25    1    1    2    0    0  0.21587801206E+03  0.53689621424E+02 -0.13173884139E+03  0.28716896397E+03  0.12500000000E+03 0.  0.
         21    1    1    2  503  501 -0.21587801206E+03 -0.53689621424E+02 -0.46282173123E+03  0.51350739667E+03  0.00000000000E+00 0.  1.
<mgrwt>
<rscale>  3 0.25516836E+03</rscale>
<asrwt>0</asrwt>
<pdfrwt beam="1">  1       21 0.15855061E-01 0.25516836E+03</pdfrwt>
<pdfrwt beam="2">  1       21 0.10732591E+00 0.25516836E+03</pdfrwt>
<totfact> 0.23749862E+04</totfact>
</mgrwt>
</event>
<event>
 4    0  0.1221883E-001  0.2384656E+03  0.7546771E-02  0.1120819E+00
         21   -1    0    0  503  501  0.00000000000E+00  0.00000000000E+00  0.70707578425E+02  0.70707578425E+02  0.00000000000E+00 0.  1.
         21   -1    0    0  501  502 -0.00000000000E+00 -0.00000000000E+00 -0.68963756422E+03  0.68963756422E+03  0.00000000000E+00 0.  1.
         25    1    1    2    0    0 -0.13587839139E+03  0.15092355643E+03 -0.32615013089E+03  0.40402941107E+03  0.12500000000E+03 0.  0.
         21    1    1    2  503  502  0.13587839139E+03 -0.15092355643E+03 -0.29277985491E+03  0.35631573158E+03  0.00000000000E+00 0.  1.
<mgrwt>
<rscale>  3 0.23846563E+03</rscale>
<asrwt>0</asrwt>
<pdfrwt beam="1">  1       21 0.10878089E-01 0.23846563E+03</pdfrwt>
<pdfrwt beam="2">  1       21 0.10609808E+00 0.23846563E+03</pdfrwt>
<totfact> 0.48711873E+04</totfact>
</mgrwt>
</event>
<event>
 4    0  0.1346702E-001  0.3519555E+03  0.7546771E-02  0.1061815E+00
         21   -1    0    0  503  501  0.00000000000E+00  0.00000000000E+00  0.13078578406E+03  0.13078578406E+03  0.00000000000E+00 0. -1.
         21   -1    0    0  501  502 -0.00000000000E+00 -0.00000000000E+00 -0.11898082582E+04  0.11898082582E+04  0.00000000000E+00 0. -1.
         25    1    1    2    0    0  0.23399893291E+03 -0.23128382629E+03 -0.20950721339E+03  0.40959245765E+03  0.12500000000E+03 0.  0.
         21    1    1    2  503  502 -0.23399893291E+03  0.23128382629E+03 -0.84951526079E+03  0.91100158464E+03  0.00000000000E+00 0. -1.
<mgrwt>
<rscale>  3 0.35195555E+03</rscale>
<asrwt>0</asrwt>
<pdfrwt beam="1">  1       21 0.20120890E-01 0.35195555E+03</pdfrwt>
<pdfrwt beam="2">  1       21 0.18304743E+00 0.35195555E+03</pdfrwt>
<totfact> 0.35496329E+03</totfact>
</mgrwt>
</event>
<event>
 4    0  0.1530087E-001  0.2390750E+03  0.7546771E-02  0.1120411E+00
         21   -1    0    0  502  501  0.00000000000E+00  0.00000000000E+00  0.31677201045E+03  0.31677201045E+03  0.00000000000E+00 0. -1.
         21   -1    0    0  503  502 -0.00000000000E+00 -0.00000000000E+00 -0.16182179119E+03  0.16182179119E+03  0.00000000000E+00 0. -1.
         25    1    1    2    0    0 -0.79929684760E+02 -0.18746493731E+03  0.13310996745E+03  0.27363318633E+03  0.12500000000E+03 0.  0.
         21    1    1    2  503  501  0.79929684760E+02  0.18746493731E+03  0.21840251805E+02  0.20496061531E+03  0.00000000000E+00 0. -1.
<mgrwt>
<rscale>  3 0.23907500E+03</rscale>
<asrwt>0</asrwt>
<pdfrwt beam="1">  1       21 0.48734155E-01 0.23907500E+03</pdfrwt>
<pdfrwt beam="2">  1       21 0.24895660E-01 0.23907500E+03</pdfrwt>
<totfact> 0.60140903E+04</totfact>
</mgrwt>
</event>
<event>
 4    0  0.1482598E-001  0.2988696E+03  0.7546771E-02  0.1085807E+00
         21   -1    0    0  502  501  0.00000000000E+00  0.00000000000E+00  0.45186642163E+03  0.45186642163E+03  0.00000000000E+00 0. -1.
         21   -1    0    0  503  502 -0.00000000000E+00 -0.00000000000E+00 -0.25484113673E+03  0.25484113673E+03  0.00000000000E+00 0. -1.
         25    1    1    2    0    0 -0.13920986597E+03 -0.23306360104E+03  0.29322483561E+03  0.41869300583E+03  0.12500000000E+03 0.  0.
         21    1    1    2  503  501  0.13920986597E+03  0.23306360104E+03 -0.96199550709E+02  0.28801455253E+03  0.00000000000E+00 0. -1.
<mgrwt>
<rscale>  3 0.29886959E+03</rscale>
<asrwt>0</asrwt>
<pdfrwt beam="1">  1       21 0.69517911E-01 0.29886959E+03</pdfrwt>
<pdfrwt beam="2">  1       21 0.39206329E-01 0.29886959E+03</pdfrwt>
<totfact> 0.11125128E+04</totfact>
</mgrwt>
</event>
<event>
 4    0  0.1410788E-001  0.3043677E+03  0.7546771E-02  0.1083077E+00
         21   -1    0    0  503  501  0.00000000000E+00  0.00000000000E+00  0.12102895957E+04  0.12102895957E+04  0.00000000000E+00 0. -1.
         21   -1    0    0  501  502 -0.00000000000E+00 -0.00000000000E+00 -0.70603924465E+02  0.70603924465E+02  0.00000000000E+00 0. -1.
         25    1    1    2    0    0  0.27227655679E+03 -0.53667017665E+02  0.65796064453E+03  0.72494957198E+03  0.12500000000E+03 0.  0.
         21    1    1    2  503  502 -0.27227655679E+03  0.53667017665E+02  0.48172502667E+03  0.55594394815E+03  0.00000000000E+00 0. -1.
<mgrwt>
<rscale>  3 0.30436766E+03</rscale>
<asrwt>0</asrwt>
<pdfrwt beam="1">  1       21 0.18619838E+00 0.30436766E+03</pdfrwt>
<pdfrwt beam="2">  1       21 0.10862143E-01 0.30436766E+03</pdfrwt>
<totfact> 0.10772519E+04</totfact>
</mgrwt>
</event>
<event>
 4    0  0.1107289E-001  0.2410981E+03  0.7546771E-02  0.1119063E+00
         21   -1    0    0  502  501  0.00000000000E+00  0.00000000000E+00  0.18746930293E+03  0.18746930293E+03  0.00000000000E+00 0.  1.
         21   -1    0    0  503  502 -0.00000000000E+00 -0.00000000000E+00 -0.33325716860E+03  0.33325716860E+03  0.00000000000E+00 0.  1.
         25    1    1    2    0    0 -0.19897807799E+03  0.53953987690E+02 -0.19346394982E+03  0.30912231914E+03  0.12500000000E+03 0.  0.
         21    1    1    2  503  501  0.19897807799E+03 -0.53953987690E+02  0.47676084153E+02  0.21160415239E+03  0.00000000000E+00 0.  1.
<mgrwt>
<rscale>  3 0.24109813E+03</rscale>
<asrwt>0</asrwt>
<pdfrwt beam="1">  1       21 0.28841431E-01 0.24109813E+03</pdfrwt>
<pdfrwt beam="2">  1       21 0.51270334E-01 0.24109813E+03</pdfrwt>
<totfact> 0.40648713E+04</totfact>
</mgrwt>
</event>
<event>
 4    0  0.1003929E-001  0.4728954E+03  0.7546771E-02  0.1021106E+00
         21   -1    0    0  503  501  0.00000000000E+00  0.00000000000E+00  0.73453953054E+03  0.73453953054E+03  0.00000000000E+00 0. -1.
         21   -1    0    0  501  502 -0.00000000000E+00 -0.00000000000E+00 -0.71471257723E+03  0.71471257723E+03  0.00000000000E+00 0. -1.
         25    1    1    2    0    0 -0.34667466226E+03 -0.29634732043E+03  0.56609337341E+03  0.73762576094E+03  0.12500000000E+03 0.  0.
         21    1    1    2  503  502  0.34667466226E+03  0.29634732043E+03 -0.54626642010E+03  0.71162634683E+03  0.00000000000E+00 0. -1.
<mgrwt>
<rscale>  3 0.47289540E+03</rscale>
<asrwt>0</asrwt>
<pdfrwt beam="1">  1       21 0.11300608E+00 0.47289540E+03</pdfrwt>
<pdfrwt beam="2">  1       21 0.10995578E+00 0.47289540E+03</pdfrwt>
<totfact> 0.32776038E+02</totfact>
</mgrwt>
</event>
<event>
 4    0  0.1441634E-001  0.2429183E+03  0.7546771E-02  0.1117864E+00
         21   -1    0    0  502  501  0.00000000000E+00  0.00000000000E+00  0.15906320137E+03  0.15906320137E+03  0.00000000000E+00 0.  1.
         21   -1    0    0  503  502 -0.00000000000E+00 -0.00000000000E+00 -0.32057421919E+03  0.32057421919E+03  0.00000000000E+00 0.  1.
         25    1    1    2    0    0 -0.20821910717E+03 -0.53964022798E+01 -0.76645961558E+02  0.25472322464E+03  0.12500000000E+03 0.  0.
         21    1    1    2  503  501  0.20821910717E+03  0.53964022798E+01 -0.84865056260E+02  0.22491419591E+03  0.00000000000E+00 0.  1.
<mgrwt>
<rscale>  3 0.24291834E+03</rscale>
<asrwt>0</asrwt>
<pdfrwt beam="1">  1       21 0.24471262E-01 0.24291834E+03</pdfrwt>
<pdfrwt beam="2">  1       21 0.49319111E-01 0.24291834E+03</pdfrwt>
<totfact> 0.60533901E+04</totfact>
</mgrwt>
</event>
<event>
 4    0  0.1436949E-001  0.2384591E+03  0.7546771E-02  0.1120824E+00
         21   -1    0    0  502  501  0.00000000000E+00  0.00000000000E+00  0.11588679291E+04  0.11588679291E+04  0.00000000000E+00 0. -1.
         21   -1    0    0  503  502 -0.00000000000E+00 -0.00000000000E+00 -0.13149516207E+03  0.13149516207E+03  0.00000000000E+00 0.  1.
         25    1    1    2    0    0  0.20214276933E+03  0.19392326575E+02  0.10584048895E+04  0.10849348698E+04  0.12500000000E+03 0.  0.
         21    1    1    2  503  501 -0.20214276933E+03 -0.19392326575E+02 -0.31032122471E+02  0.20542822140E+03  0.00000000000E+00 0.  1.
<mgrwt>
<rscale>  3 0.23845914E+03</rscale>
<asrwt>0</asrwt>
<pdfrwt beam="1">  1       21 0.17828737E+00 0.23845914E+03</pdfrwt>
<pdfrwt beam="2">  1       21 0.20230026E-01 0.23845914E+03</pdfrwt>
<totfact> 0.40641936E+03</totfact>
</mgrwt>
</event>
<event>
 4    0  0.1112838E-001  0.2578629E+03  0.7546771E-02  0.1108434E+00
         21   -1    0    0  502  501  0.00000000000E+00  0.00000000000E+00  0.13140308494E+04  0.13140308494E+04  0.00000000000E+00 0. -1.
         21   -1    0    0  503  502 -0.00000000000E+00 -0.00000000000E+00 -0.91301022235E+02  0.91301022235E+02  0.00000000000E+00 0. -1.
         25    1    1    2    0    0 -0.14548263270E+03  0.17234585160E+03  0.11340284917E+04  0.11629763149E+04  0.12500000000E+03 0.  0.
         21    1    1    2  503  501  0.14548263270E+03 -0.17234585160E+03  0.88701335476E+02  0.24235555677E+03  0.00000000000E+00 0. -1.
<mgrwt>
<rscale>  3 0.25786293E+03</rscale>
<asrwt>0</asrwt>
<pdfrwt beam="1">  1       21 0.20215858E+00 0.25786293E+03</pdfrwt>
<pdfrwt beam="2">  1       21 0.14046312E-01 0.25786293E+03</pdfrwt>
<totfact> 0.54533756E+03</totfact>
</mgrwt>
</event>
<event>
 4    0  0.1220641E-001  0.3215202E+03  0.7546771E-02  0.1074952E+00
         21   -1    0    0  503  501  0.00000000000E+00  0.00000000000E+00  0.16690105902E+04  0.16690105902E+04  0.00000000000E+00 0.  1.
         21   -1    0    0  501  502 -0.00000000000E+00 -0.00000000000E+00 -0.61698723653E+02  0.61698723653E+02  0.00000000000E+00 0.  1.
         25    1    1    2    0    0  0.16242250078E+03 -0.24772795371E+03  0.10686316679E+04  0.11159519924E+04  0.12500000000E+03 0.  0.
         21    1    1    2  503  502 -0.16242250078E+03  0.24772795371E+03  0.53868019864E+03  0.61475732140E+03  0.00000000000E+00 0.  1.
<mgrwt>
<rscale>  3 0.32152015E+03</rscale>
<asrwt>0</asrwt>
<pdfrwt beam="1">  1       21 0.25677082E+00 0.32152015E+03</pdfrwt>
<pdfrwt beam="2">  1       21 0.94921126E-02 0.32152015E+03</pdfrwt>
<totfact> 0.48627596E+03</totfact>
</mgrwt>
</event>
<event>
 4    0  0.1602755E-001  0.3575291E+03  0.7546771E-02  0.1059567E+00
         21   -1    0    0  502  501  0.00000000000E+00  0.00000000000E+00  0.41477520798E+03  0.41477520798E+03  0.00000000000E+00 0.  1.
         21   -1    0    0  503  502 -0.00000000000E+00 -0.00000000000E+00 -0.29830818417E+03  0.29830818417E+03  0.00000000000E+00 0.  1.
         25    1    1    2    0    0 -0.10343691508E+03 -0.31859512955E+03  0.12287996357E+03  0.37805626224E+03  0.12500000000E+03 0.  0.
         21    1    1    2  503  501  0.10343691508E+03  0.31859512955E+03 -0.64129397687E+01  0.33502712990E+03  0.00000000000E+00 0.  1.
<mgrwt>
<rscale>  3 0.35752909E+03</rscale>
<asrwt>0</asrwt>
<pdfrwt beam="1">  1       21 0.63811571E-01 0.35752909E+03</pdfrwt>
<pdfrwt beam="2">  1       21 0.45893567E-01 0.35752909E+03</pdfrwt>
<totfact> 0.94874287E+03</totfact>
</mgrwt>
</event>
<event>
 4    0  0.1209651E-001  0.2413702E+03  0.7546771E-02  0.1118883E+00
         21   -1    0    0  502  501  0.00000000000E+00  0.00000000000E+00  0.85727797891E+02  0.85727797891E+02  0.00000000000E+00 0.  1.
         21   -1    0    0  503  502 -0.00000000000E+00 -0.00000000000E+00 -0.23921465642E+04  0.23921465642E+04  0.00000000000E+00 0. -1.
         25    1    1    2    0    0  0.15719036075E+03  0.13388720412E+03 -0.99105094970E+02  0.26092415141E+03  0.12500000000E+03 0.  0.
         21    1    1    2  503  501 -0.15719036075E+03 -0.13388720412E+03 -0.22073136713E+04  0.22169502107E+04  0.00000000000E+00 0. -1.
<mgrwt>
<rscale>  3 0.24137024E+03</rscale>
<asrwt>0</asrwt>
<pdfrwt beam="1">  1       21 0.13188894E-01 0.24137024E+03</pdfrwt>
<pdfrwt beam="2">  1       21 0.36802250E+00 0.24137024E+03</pdfrwt>
<totfact> 0.63236508E+02</totfact>
</mgrwt>
</event>
<event>
 4    0  0.1101531E-001  0.2665297E+03  0.7546771E-02  0.1103282E+00
         21   -1    0    0  503  501  0.00000000000E+00  0.00000000000E+00  0.60556069129E+03  0.60556069129E+03  0.00000000000E+00 0.  1.
         21   -1    0    0  501  502 -0.00000000000E+00 -0.00000000000E+00 -0.14996618013E+03  0.14996618013E+03  0.00000000000E+00 0. -1.
         25    1    1    2    0    0 -0.32805049684E+02  0.23310279328E+03  0.44644035731E+03  0.51994910920E+03  0.12500000000E+03 0.  0.
         21    1    1    2  503  502  0.32805049684E+02 -0.23310279328E+03  0.91541538455E+01  0.23557776222E+03  0.00000000000E+00 0. -1.
<mgrwt>
<rscale>  3 0.26652970E+03</rscale>
<asrwt>0</asrwt>
<pdfrwt beam="1">  1       21 0.93163182E-01 0.26652970E+03</pdfrwt>
<pdfrwt beam="2">  1       21 0.23071720E-01 0.26652970E+03</pdfrwt>
<totfact> 0.16413170E+04</totfact>
</mgrwt>
</event>
<event>
 4    0  0.1215100E-001  0.2501612E+03  0.7546771E-02  0.1113203E+00
         21   -1    0    0  503  501  0.00000000000E+00  0.00000000000E+00  0.43163666246E+02  0.43163666246E+02  0.00000000000E+00 0. -1.
         21   -1    0    0  501  502 -0.00000000000E+00 -0.00000000000E+00 -0.15851383403E+04  0.15851383403E+04  0.00000000000E+00 0. -1.
         25    1    1    2    0    0 -0.21601316664E+03  0.17144525827E+02 -0.44837024472E+03  0.51343597389E+03  0.12500000000E+03 0.  0.
         21    1    1    2  503  502  0.21601316664E+03 -0.17144525827E+02 -0.10936044293E+04  0.11148660326E+04  0.00000000000E+00 0. -1.
<mgrwt>
<rscale>  3 0.25016119E+03</rscale>
<asrwt>0</asrwt>
<pdfrwt beam="1">  1       21 0.66405652E-02 0.25016119E+03</pdfrwt>
<pdfrwt beam="2">  1       21 0.24386739E+00 0.25016119E+03</pdfrwt>
<totfact> 0.11417428E+04</totfact>
</mgrwt>
</event>
<event>
 4    0  0.1342209E-001  0.2853400E+03  0.7546771E-02  0.1092808E+00
         21   -1    0    0  502  501  0.00000000000E+00  0.00000000000E+00  0.93274827086E+02  0.93274827086E+02  0.00000000000E+00 0.  1.
         21   -1    0    0  503  502 -0.00000000000E+00 -0.00000000000E+00 -0.83657827147E+03  0.83657827147E+03  0.00000000000E+00 0.  1.
         25    1    1    2    0    0  0.25294832711E+03  0.42556715588E+02 -0.27711869461E+03  0.39776085923E+03  0.12500000000E+03 0.  0.
         21    1    1    2  503  501 -0.25294832711E+03 -0.42556715588E+02 -0.46618474977E+03  0.53209223932E+03  0.00000000000E+00 0.  1.
<mgrwt>
<rscale>  3 0.28534003E+03</rscale>
<asrwt>0</asrwt>
<pdfrwt beam="1">  1       21 0.14349974E-01 0.28534003E+03</pdfrwt>
<pdfrwt beam="2">  1       21 0.12870435E+00 0.28534003E+03</pdfrwt>
<totfact> 0.17898968E+04</totfact>
</mgrwt>
</event>
<event>
 4    0  0.1184806E-001  0.2680824E+03  0.7546771E-02  0.1102382E+00
         21   -1    0    0  503  501  0.00000000000E+00  0.00000000000E+00  0.15943980764E+04  0.15943980764E+04  0.00000000000E+00 0.  1.
         21   -1    0    0  501  502 -0.00000000000E+00 -0.00000000000E+00 -0.41063685929E+02  0.41063685929E+02  0.00000000000E+00 0.  1.
         25    1    1    2    0    0 -0.21260059183E+03 -0.10509133061E+03  0.95278992037E+03  0.98978625560E+03  0.12500000000E+03 0.  0.
         21    1    1    2  503  502  0.21260059183E+03  0.10509133061E+03  0.60054447009E+03  0.64567550672E+03  0.00000000000E+00 0.  1.
<mgrwt>
<rscale>  3 0.26808245E+03</rscale>
<asrwt>0</asrwt>
<pdfrwt beam="1">  1       21 0.24529196E+00 0.26808245E+03</pdfrwt>
<pdfrwt beam="2">  1       21 0.63174914E-02 0.26808245E+03</pdfrwt>
<totfact> 0.12052079E+04</totfact>
</mgrwt>
</event>
<event>
 4    0  0.1465492E-001  0.2918933E+03  0.7546771E-02  0.1089365E+00
         21   -1    0    0  503  501  0.00000000000E+00  0.00000000000E+00  0.89825743563E+03  0.89825743563E+03  0.00000000000E+00 0. -1.
         21   -1    0    0  501  502 -0.00000000000E+00 -0.00000000000E+00 -0.90491892791E+02  0.90491892791E+02  0.00000000000E+00 0. -1.
         25    1    1    2    0    0 -0.25200539769E+03 -0.77910144968E+02  0.53409918407E+03  0.60865725132E+03  0.12500000000E+03 0.  0.
         21    1    1    2  503  502  0.25200539769E+03  0.77910144968E+02  0.27366635877E+03  0.38009207711E+03  0.00000000000E+00 0. -1.
<mgrwt>
<rscale>  3 0.29189332E+03</rscale>
<asrwt>0</asrwt>
<pdfrwt beam="1">  1       21 0.13819345E+00 0.29189332E+03</pdfrwt>
<pdfrwt beam="2">  1       21 0.13921830E-01 0.29189332E+03</pdfrwt>
<totfact> 0.15703794E+04</totfact>
</mgrwt>
</event>
<event>
 4    0  0.1368231E-001  0.4448293E+03  0.7546771E-02  0.1029275E+00
         21   -1    0    0  502  501  0.00000000000E+00  0.00000000000E+00  0.23792672973E+03  0.23792672973E+03  0.00000000000E+00 0.  1.
         21   -1    0    0  503  502 -0.00000000000E+00 -0.00000000000E+00 -0.92328982804E+03  0.92328982804E+03  0.00000000000E+00 0.  1.
         25    1    1    2    0    0 -0.31496044366E+03 -0.28818053642E+03 -0.13534523443E+03  0.46496390734E+03  0.12500000000E+03 0.  0.
         21    1    1    2  503  501  0.31496044366E+03  0.28818053642E+03 -0.55001786388E+03  0.69625265043E+03  0.00000000000E+00 0.  1.
<mgrwt>
<rscale>  3 0.44482930E+03</rscale>
<asrwt>0</asrwt>
<pdfrwt beam="1">  1       21 0.36604113E-01 0.44482930E+03</pdfrwt>
<pdfrwt beam="2">  1       21 0.14204459E+00 0.44482930E+03</pdfrwt>
<totfact> 0.21341126E+03</totfact>
</mgrwt>
</event>
<event>
 4    0  0.1686063E-001  0.2632649E+03  0.7546771E-02  0.1105197E+00
         21   -1    0    0  502  501  0.00000000000E+00  0.00000000000E+00  0.13076563415E+04  0.13076563415E+04  0.00000000000E+00 0.  1.
         21   -1    0    0  503  502 -0.00000000000E+00 -0.00000000000E+00 -0.16646338171E+03  0.16646338171E+03  0.00000000000E+00 0. -1.
         25    1    1    2    0    0 -0.12166752922E+03 -0.19718111945E+03  0.12053010069E+04  0.12337175118E+04  0.12500000000E+03 0.  0.
         21    1    1    2  503  501  0.12166752922E+03  0.19718111945E+03 -0.64108047190E+02  0.24040221140E+03  0.00000000000E+00 0. -1.
<mgrwt>
<rscale>  3 0.26326485E+03</rscale>
<asrwt>0</asrwt>
<pdfrwt beam="1">  1       21 0.20117789E+00 0.26326485E+03</pdfrwt>
<pdfrwt beam="2">  1       21 0.25609752E-01 0.26326485E+03</pdfrwt>
<totfact> 0.17896130E+03</totfact>
</mgrwt>
</event>
<event>
 4    0  0.1363454E-001  0.2539578E+03  0.7546771E-02  0.1110829E+00
         21   -1    0    0  502  501  0.00000000000E+00  0.00000000000E+00  0.57187147400E+03  0.57187147400E+03  0.00000000000E+00 0.  1.
         21   -1    0    0  503  502 -0.00000000000E+00 -0.00000000000E+00 -0.10994180682E+03  0.10994180682E+03  0.00000000000E+00 0.  1.
         25    1    1    2    0    0 -0.53709814803E+02  0.21444074327E+03  0.35436275369E+03  0.43596735862E+03  0.12500000000E+03 0.  0.
         21    1    1    2  503  501  0.53709814803E+02 -0.21444074327E+03  0.10756691350E+03  0.24584592220E+03  0.00000000000E+00 0.  1.
<mgrwt>
<rscale>  3 0.25395782E+03</rscale>
<asrwt>0</asrwt>
<pdfrwt beam="1">  1       21 0.87980225E-01 0.25395782E+03</pdfrwt>
<pdfrwt beam="2">  1       21 0.16914124E-01 0.25395782E+03</pdfrwt>
<totfact> 0.33816597E+04</totfact>
</mgrwt>
</event>
<event>
 4    0  0.2189890E-001  0.2712151E+03  0.7546771E-02  0.1100586E+00
         21   -1    0    0  502  501  0.00000000000E+00  0.00000000000E+00  0.81287786870E+03  0.81287786870E+03  0.00000000000E+00 0. -1.
         21   -1    0    0  503  502 -0.00000000000E+00 -0.00000000000E+00 -0.60506613882E+03  0.60506613882E+03  0.00000000000E+00 0.  1.
         25    1    1    2    0    0 -0.23380549592E+03  0.57163186862E+02  0.76464373715E+03  0.81131848532E+03  0.12500000000E+03 0.  0.
         21    1    1    2  503  501  0.23380549592E+03 -0.57163186862E+02 -0.55683200727E+03  0.60662552219E+03  0.00000000000E+00 0.  1.
<mgrwt>
<rscale>  3 0.27121512E+03</rscale>
<asrwt>0</asrwt>
<pdfrwt beam="1">  1       21 0.12505813E+00 0.27121512E+03</pdfrwt>
<pdfrwt beam="2">  1       21 0.93087098E-01 0.27121512E+03</pdfrwt>
<totfact> 0.42895887E+02</totfact>
</mgrwt>
</event>
<event>
 4    0  0.1135872E-001  0.2426931E+03  0.7546771E-02  0.1118012E+00
         21   -1    0    0  503  501  0.00000000000E+00  0.00000000000E+00  0.91339574688E+02  0.91339574688E+02  0.00000000000E+00 0.  1.
         21   -1    0    0  501  502 -0.00000000000E+00 -0.00000000000E+00 -0.11722258391E+04  0.11722258391E+04  0.00000000000E+00 0.  1.
         25    1    1    2    0    0  0.15008668157E+03  0.14404489506E+03 -0.10274193248E+03  0.26354477507E+03  0.12500000000E+03 0.  0.
         21    1    1    2  503  502 -0.15008668157E+03 -0.14404489506E+03 -0.97814433193E+03  0.10000206387E+04  0.00000000000E+00 0.  1.
<mgrwt>
<rscale>  3 0.24269311E+03</rscale>
<asrwt>0</asrwt>
<pdfrwt beam="1">  1       21 0.14052242E-01 0.24269311E+03</pdfrwt>
<pdfrwt beam="2">  1       21 0.18034245E+00 0.24269311E+03</pdfrwt>
<totfact> 0.76930087E+03</totfact>
</mgrwt>
</event>
<event>
 4    0  0.1413453E-001  0.2478692E+03  0.7546771E-02  0.1114659E+00
         21   -1    0    0  502  501  0.00000000000E+00  0.00000000000E+00  0.79835977863E+03  0.79835977863E+03  0.00000000000E+00 0. -1.
         21   -1    0    0  503  502 -0.00000000000E+00 -0.00000000000E+00 -0.12304539232E+03  0.12304539232E+03  0.00000000000E+00 0. -1.
         25    1    1    2    0    0 -0.21254738585E+03 -0.25254005836E+02  0.66207585627E+03  0.70695374354E+03  0.12500000000E+03 0.  0.
         21    1    1    2  503  501  0.21254738585E+03  0.25254005836E+02  0.13238530029E+02  0.21445142741E+03  0.00000000000E+00 0. -1.
<mgrwt>
<rscale>  3 0.24786923E+03</rscale>
<asrwt>0</asrwt>
<pdfrwt beam="1">  1       21 0.12282458E+00 0.24786923E+03</pdfrwt>
<pdfrwt beam="2">  1       21 0.18930061E-01 0.24786923E+03</pdfrwt>
<totfact> 0.12306153E+04</totfact>
</mgrwt>
</event>
<event>
 4    0  0.1764008E-001  0.3222355E+03  0.7546771E-02  0.1074625E+00
         21   -1    0    0  503  501  0.00000000000E+00  0.00000000000E+00  0.22481537826E+03  0.22481537826E+03  0.00000000000E+00 0. -1.
         21   -1    0    0  501  502 -0.00000000000E+00 -0.00000000000E+00 -0.43971427535E+03  0.43971427535E+03  0.00000000000E+00 0. -1.
         25    1    1    2    0    0  0.20200508509E+03 -0.21772616246E+03 -0.53951496945E+02  0.32672082922E+03  0.12500000000E+03 0.  0.
         21    1    1    2  503  502 -0.20200508509E+03  0.21772616246E+03 -0.16094740014E+03  0.33780882439E+03  0.00000000000E+00 0. -1.
<mgrwt>
<rscale>  3 0.32223553E+03</rscale>
<asrwt>0</asrwt>
<pdfrwt beam="1">  1       21 0.34586982E-01 0.32223553E+03</pdfrwt>
<pdfrwt beam="2">  1       21 0.67648349E-01 0.32223553E+03</pdfrwt>
<totfact> 0.15079368E+04</totfact>
</mgrwt>
</event>
<event>
 4    0  0.1003929E-001  0.3347205E+03  0.7546771E-02  0.1069067E+00
         21   -1    0    0  502  501  0.00000000000E+00  0.00000000000E+00  0.17608465445E+03  0.17608465445E+03  0.00000000000E+00 0.  1.
         21   -1    0    0  503  502 -0.00000000000E+00 -0.00000000000E+00 -0.67609283858E+03  0.67609283858E+03  0.00000000000E+00 0. -1.
         25    1    1    2    0    0  0.13189533134E+03 -0.28109863375E+03 -0.10720199622E+03  0.35146847414E+03  0.12500000000E+03 0.  0.
         21    1    1    2  503  501 -0.13189533134E+03  0.28109863375E+03 -0.39280618792E+03  0.50070901889E+03  0.00000000000E+00 0. -1.
<mgrwt>
<rscale>  3 0.33472051E+03</rscale>
<asrwt>0</asrwt>
<pdfrwt beam="1">  1       21 0.27089947E-01 0.33472051E+03</pdfrwt>
<pdfrwt beam="2">  1       21 0.10401428E+00 0.33472051E+03</pdfrwt>
<totfact> 0.89714410E+03</totfact>
</mgrwt>
</event>
<event>
 4    0  0.1003929E-001  0.3886519E+03  0.7546771E-02  0.1047782E+00
         21   -1    0    0  503  501  0.00000000000E+00  0.00000000000E+00  0.66777691294E+03  0.66777691294E+03  0.00000000000E+00 0.  1.
         21   -1    0    0  501  502 -0.00000000000E+00 -0.00000000000E+00 -0.24957894520E+03  0.24957894520E+03  0.00000000000E+00 0. -1.
         25    1    1    2    0    0  0.11610272772E+03  0.34920693953E+03  0.38629661099E+03  0.54797390600E+03  0.12500000000E+03 0.  0.
         21    1    1    2  503  502 -0.11610272772E+03 -0.34920693953E+03  0.31901356747E+02  0.36938195213E+03  0.00000000000E+00 0. -1.
<mgrwt>
<rscale>  3 0.38865194E+03</rscale>
<asrwt>0</asrwt>
<pdfrwt beam="1">  1       21 0.10273491E+00 0.38865194E+03</pdfrwt>
<pdfrwt beam="2">  1       21 0.38396761E-01 0.38865194E+03</pdfrwt>
<totfact> 0.45101750E+03</totfact>
</mgrwt>
</event>
<event>
 4    0  0.1464652E-001  0.2671235E+03  0.7546771E-02  0.1102937E+00
         21   -1    0    0  502  501  0.00000000000E+00  0.00000000000E+00  0.18783989906E+03  0.18783989906E+03  0.00000000000E+00 0.  1.
         21   -1    0    0  503  502 -0.00000000000E+00 -0.00000000000E+00 -0.33887667879E+03  0.33887667879E+03  0.00000000000E+00 0.  1.
         25    1    1    2    0    0 -0.15331074716E+03 -0.17951538305E+03 -0.99731647456E+02  0.28513393248E+03  0.12500000000E+03 0.  0.
         21    1    1    2  503  501  0.15331074716E+03  0.17951538305E+03 -0.51305132283E+02  0.24158264537E+03  0.00000000000E+00 0.  1.
<mgrwt>
<rscale>  3 0.26712349E+03</rscale>
<asrwt>0</asrwt>
<pdfrwt beam="1">  1       21 0.28898446E-01 0.26712349E+03</pdfrwt>
<pdfrwt beam="2">  1       21 0.52134873E-01 0.26712349E+03</pdfrwt>
<totfact> 0.38674138E+04</totfact>
</mgrwt>
</event>
<event>
 4    0  0.1405006E-001  0.2385064E+03  0.7546771E-02  0.1120792E+00
         21   -1    0    0  503  501  0.00000000000E+00  0.00000000000E+00  0.13647246515E+03  0.13647246515E+03  0.00000000000E+00 0.  1.
         21   -1    0    0  501  502 -0.00000000000E+00 -0.00000000000E+00 -0.36287480761E+03  0.36287480761E+03  0.00000000000E+00 0.  1.
         25    1    1    2    0    0  0.14145033905E+03  0.14578102208E+03 -0.91246551455E+02  0.25536491139E+03  0.12500000000E+03 0.  0.
         21    1    1    2  503  502 -0.14145033905E+03 -0.14578102208E+03 -0.13515579101E+03  0.24398236137E+03  0.00000000000E+00 0.  1.
<mgrwt>
<rscale>  3 0.23850640E+03</rscale>
<asrwt>0</asrwt>
<pdfrwt beam="1">  1       21 0.20995764E-01 0.23850640E+03</pdfrwt>
<pdfrwt beam="2">  1       21 0.55826893E-01 0.23850640E+03</pdfrwt>
<totfact> 0.62442537E+04</totfact>
</mgrwt>
</event>
<event>
 4    0  0.1933442E-001  0.2391462E+03  0.7546771E-02  0.1120363E+00
         21   -1    0    0  502  501  0.00000000000E+00  0.00000000000E+00  0.93248853057E+03  0.93248853057E+03  0.00000000000E+00 0. -1.
         21   -1    0    0  503  502 -0.00000000000E+00 -0.00000000000E+00 -0.19632303372E+03  0.19632303372E+03  0.00000000000E+00 0.  1.
         25    1    1    2    0    0 -0.11352172157E+03 -0.16934795169E+03  0.85840617321E+03  0.89109599271E+03  0.12500000000E+03 0.  0.
         21    1    1    2  503  501  0.11352172157E+03  0.16934795169E+03 -0.12224067637E+03  0.23771557158E+03  0.00000000000E+00 0.  1.
<mgrwt>
<rscale>  3 0.23914621E+03</rscale>
<asrwt>0</asrwt>
<pdfrwt beam="1">  1       21 0.14345977E+00 0.23914621E+03</pdfrwt>
<pdfrwt beam="2">  1       21 0.30203544E-01 0.23914621E+03</pdfrwt>
<totfact> 0.34015002E+03</totfact>
</mgrwt>
</event>
<event>
 4    0  0.1109447E-001  0.2752852E+03  0.7546771E-02  0.1098292E+00
         21   -1    0    0  502  501  0.00000000000E+00  0.00000000000E+00  0.22261129846E+03  0.22261129846E+03  0.00000000000E+00 0. -1.
         21   -1    0    0  503  502 -0.00000000000E+00 -0.00000000000E+00 -0.88842779968E+03  0.88842779968E+03  0.00000000000E+00 0. -1.
         25    1    1    2    0    0  0.23461840352E+03 -0.71492177814E+02  0.11069916442E+03  0.29670900182E+03  0.12500000000E+03 0.  0.
         21    1    1    2  503  501 -0.23461840352E+03  0.71492177814E+02 -0.77651566564E+03  0.81433009631E+03  0.00000000000E+00 0. -1.
<mgrwt>
<rscale>  3 0.27528517E+03</rscale>
<asrwt>0</asrwt>
<pdfrwt beam="1">  1       21 0.34247892E-01 0.27528517E+03</pdfrwt>
<pdfrwt beam="2">  1       21 0.13668120E+00 0.27528517E+03</pdfrwt>
<totfact> 0.29372967E+03</totfact>
</mgrwt>
</event>
<event>
 4    0  0.1322993E-001  0.2604602E+03  0.7546771E-02  0.1106867E+00
         21   -1    0    0  503  501  0.00000000000E+00  0.00000000000E+00  0.51697741138E+03  0.51697741138E+03  0.00000000000E+00 0. -1.
         21   -1    0    0  501  502 -0.00000000000E+00 -0.00000000000E+00 -0.11634437066E+03  0.11634437066E+03  0.00000000000E+00 0. -1.
         25    1    1    2    0    0 -0.70766177243E+01 -0.22839531535E+03  0.18835237984E+03  0.32142824640E+03  0.12500000000E+03 0.  0.
         21    1    1    2  503  502  0.70766177243E+01  0.22839531535E+03  0.21228066087E+03  0.31189353564E+03  0.00000000000E+00 0. -1.
<mgrwt>
<rscale>  3 0.26046017E+03</rscale>
<asrwt>0</asrwt>
<pdfrwt beam="1">  1       21 0.79534985E-01 0.26046017E+03</pdfrwt>
<pdfrwt beam="2">  1       21 0.17899134E-01 0.26046017E+03</pdfrwt>
<totfact> 0.38287202E+04</totfact>
</mgrwt>
</event>
<event>
 4    0  0.1306650E-001  0.2919494E+03  0.7546771E-02  0.1089336E+00
         21   -1    0    0  503  501  0.00000000000E+00  0.00000000000E+00  0.29277816477E+03  0.29277816477E+03  0.00000000000E+00 0.  1.
         21   -1    0    0  501  502 -0.00000000000E+00 -0.00000000000E+00 -0.39604321386E+03  0.39604321386E+03  0.00000000000E+00 0.  1.
         25    1    1    2    0    0 -0.24814559513E+03 -0.89628325714E+02  0.14550322765E+03  0.32619880810E+03  0.12500000000E+03 0.  0.
         21    1    1    2  503  502  0.24814559513E+03  0.89628325714E+02 -0.24876827673E+03  0.36262257053E+03  0.00000000000E+00 0.  1.
<mgrwt>
<rscale>  3 0.29194944E+03</rscale>
<asrwt>0</asrwt>
<pdfrwt beam="1">  1       21 0.45042795E-01 0.29194944E+03</pdfrwt>
<pdfrwt beam="2">  1       21 0.60929725E-01 0.29194944E+03</pdfrwt>
<totfact> 0.11215464E+04</totfact>
</mgrwt>
</event>
<event>
 4    0  0.1231026E-001  0.3914642E+03  0.7546771E-02  0.1046776E+00
         21   -1    0    0  502  501  0.00000000000E+00  0.00000000000E+00  0.24447740980E+03  0.24447740980E+03  0.00000000000E+00 0. -1.
         21   -1    0    0  503  502 -0.00000000000E+00 -0.00000000000E+00 -0.76885300624E+03  0.76885300624E+03  0.00000000000E+00 0. -1.
         25    1    1    2    0    0  0.35629798568E+03 -0.10330024395E+03 -0.26385071655E+02  0.39235235058E+03  0.12500000000E+03 0.  0.
         21    1    1    2  503  501 -0.35629798568E+03  0.10330024395E+03 -0.49799052478E+03  0.62097806545E+03  0.00000000000E+00 0. -1.
<mgrwt>
<rscale>  3 0.39146417E+03</rscale>
<asrwt>0</asrwt>
<pdfrwt beam="1">  1       21 0.37611910E-01 0.39146417E+03</pdfrwt>
<pdfrwt beam="2">  1       21 0.11828507E+00 0.39146417E+03</pdfrwt>
<totfact> 0.33160981E+03</totfact>
</mgrwt>
</event>
<event>
 4    0  0.1402938E-001  0.2386836E+03  0.7546771E-02  0.1120673E+00
         21   -1    0    0  502  501  0.00000000000E+00  0.00000000000E+00  0.68301864681E+02  0.68301864681E+02  0.00000000000E+00 0. -1.
         21   -1    0    0  503  502 -0.00000000000E+00 -0.00000000000E+00 -0.85814731297E+03  0.85814731297E+03  0.00000000000E+00 0. -1.
         25    1    1    2    0    0 -0.29648172786E+02  0.20116126325E+03 -0.23264352803E+03  0.33330598422E+03  0.12500000000E+03 0.  0.
         21    1    1    2  503  501  0.29648172786E+02 -0.20116126325E+03 -0.55720192026E+03  0.59314319343E+03  0.00000000000E+00 0. -1.
<mgrwt>
<rscale>  3 0.23868361E+03</rscale>
<asrwt>0</asrwt>
<pdfrwt beam="1">  1       21 0.10507980E-01 0.23868361E+03</pdfrwt>
<pdfrwt beam="2">  1       21 0.13202265E+00 0.23868361E+03</pdfrwt>
<totfact> 0.30111211E+04</totfact>
</mgrwt>
</event>
<event>
 4    0  0.1353395E-001  0.2378016E+03  0.7546771E-02  0.1121266E+00
         21   -1    0    0  503  501  0.00000000000E+00  0.00000000000E+00  0.20775420866E+03  0.20775420866E+03  0.00000000000E+00 0.  1.
         21   -1    0    0  501  502 -0.00000000000E+00 -0.00000000000E+00 -0.23731305749E+03  0.23731305749E+03  0.00000000000E+00 0.  1.
         25    1    1    2    0    0  0.15827022901E+03 -0.12599653199E+03  0.13698615592E+02  0.23819580923E+03  0.12500000000E+03 0.  0.
         21    1    1    2  503  502 -0.15827022901E+03  0.12599653199E+03 -0.43257464423E+02  0.20687145693E+03  0.00000000000E+00 0.  1.
<mgrwt>
<rscale>  3 0.23780158E+03</rscale>
<asrwt>0</asrwt>
<pdfrwt beam="1">  1       21 0.31962186E-01 0.23780158E+03</pdfrwt>
<pdfrwt beam="2">  1       21 0.36509701E-01 0.23780158E+03</pdfrwt>
<totfact> 0.66824375E+04</totfact>
</mgrwt>
</event>
<event>
 4    0  0.1003929E-001  0.3138530E+03  0.7546771E-02  0.1078514E+00
         21   -1    0    0  503  501  0.00000000000E+00  0.00000000000E+00  0.57168588114E+03  0.57168588114E+03  0.00000000000E+00 0. -1.
         21   -1    0    0  501  502 -0.00000000000E+00 -0.00000000000E+00 -0.83728196113E+03  0.83728196113E+03  0.00000000000E+00 0. -1.
         25    1    1    2    0    0 -0.15120141802E+03  0.24498331894E+03  0.50038798230E+03  0.59067065967E+03  0.12500000000E+03 0.  0.
         21    1    1    2  503  502  0.15120141802E+03 -0.24498331894E+03 -0.76598406229E+03  0.81829718260E+03  0.00000000000E+00 0. -1.
<mgrwt>
<rscale>  3 0.31385298E+03</rscale>
<asrwt>0</asrwt>
<pdfrwt beam="1">  1       21 0.87951674E-01 0.31385298E+03</pdfrwt>
<pdfrwt beam="2">  1       21 0.12881261E+00 0.31385298E+03</pdfrwt>
<totfact> 0.44023159E+02</totfact>
</mgrwt>
</event>
<event>
 4    0  0.1574530E-001  0.2548985E+03  0.7546771E-02  0.1110248E+00
         21   -1    0    0  502  501  0.00000000000E+00  0.00000000000E+00  0.48156995319E+03  0.48156995319E+03  0.00000000000E+00 0. -1.
         21   -1    0    0  503  502 -0.00000000000E+00 -0.00000000000E+00 -0.13625126632E+03  0.13625126632E+03  0.00000000000E+00 0. -1.
         25    1    1    2    0    0  0.21339124669E+03 -0.61745011057E+02  0.29533415981E+03  0.39012246347E+03  0.12500000000E+03 0.  0.
         21    1    1    2  503  501 -0.21339124669E+03  0.61745011057E+02  0.49984527057E+02  0.22769875604E+03  0.00000000000E+00 0. -1.
<mgrwt>
<rscale>  3 0.25489855E+03</rscale>
<asrwt>0</asrwt>
<pdfrwt beam="1">  1       21 0.74087684E-01 0.25489855E+03</pdfrwt>
<pdfrwt beam="2">  1       21 0.20961734E-01 0.25489855E+03</pdfrwt>
<totfact> 0.33504039E+04</totfact>
</mgrwt>
</event>
<event>
 4    0  0.1003929E-001  0.4313904E+03  0.7546771E-02  0.1033422E+00
         21   -1    0    0  503  501  0.00000000000E+00  0.00000000000E+00  0.13007073941E+04  0.13007073941E+04  0.00000000000E+00 0. -1.
         21   -1    0    0  501  502 -0.00000000000E+00 -0.00000000000E+00 -0.11283647251E+04  0.11283647251E+04  0.00000000000E+00 0. -1.
         25    1    1    2    0    0 -0.32839508488E+03  0.25025850007E+03  0.12247859988E+04  0.12985370197E+04  0.12500000000E+03 0.  0.
         21    1    1    2  503  502  0.32839508488E+03 -0.25025850007E+03 -0.10524433299E+04  0.11305350995E+04  0.00000000000E+00 0. -1.
<mgrwt>
<rscale>  3 0.43139037E+03</rscale>
<asrwt>0</asrwt>
<pdfrwt beam="1">  1       21 0.20010883E+00 0.43139037E+03</pdfrwt>
<pdfrwt beam="2">  1       21 0.17359457E+00 0.43139037E+03</pdfrwt>
<totfact> 0.20832844E+01</totfact>
</mgrwt>
</event>
<event>
 4    0  0.1038661E-001  0.3285585E+03  0.7546771E-02  0.1071776E+00
         21   -1    0    0  502  501  0.00000000000E+00  0.00000000000E+00  0.32232288720E+03  0.32232288720E+03  0.00000000000E+00 0. -1.
         21   -1    0    0  503  502 -0.00000000000E+00 -0.00000000000E+00 -0.93474382286E+03  0.93474382286E+03  0.00000000000E+00 0. -1.
         25    1    1    2    0    0 -0.20394817175E+03  0.22523510769E+03  0.20345180145E+03  0.38644966815E+03  0.12500000000E+03 0.  0.
         21    1    1    2  503  501  0.20394817175E+03 -0.22523510769E+03 -0.81587273712E+03  0.87061704191E+03  0.00000000000E+00 0. -1.
<mgrwt>
<rscale>  3 0.32855853E+03</rscale>
<asrwt>0</asrwt>
<pdfrwt beam="1">  1       21 0.49588137E-01 0.32855853E+03</pdfrwt>
<pdfrwt beam="2">  1       21 0.14380674E+00 0.32855853E+03</pdfrwt>
<totfact> 0.11644453E+03</totfact>
</mgrwt>
</event>
<event>
 4    0  0.1441779E-001  0.3515891E+03  0.7546771E-02  0.1061965E+00
         21   -1    0    0  502  501  0.00000000000E+00  0.00000000000E+00  0.44220780776E+03  0.44220780776E+03  0.00000000000E+00 0.  1.
         21   -1    0    0  503  502 -0.00000000000E+00 -0.00000000000E+00 -0.29510784514E+03  0.29510784514E+03  0.00000000000E+00 0.  1.
         25    1    1    2    0    0  0.32030187549E+03  0.73461349327E+02  0.19995956809E+03  0.40447334913E+03  0.12500000000E+03 0.  0.
         21    1    1    2  503  501 -0.32030187549E+03 -0.73461349327E+02 -0.52859605462E+02  0.33284230377E+03  0.00000000000E+00 0.  1.
<mgrwt>
<rscale>  3 0.35158905E+03</rscale>
<asrwt>0</asrwt>
<pdfrwt beam="1">  1       21 0.68031970E-01 0.35158905E+03</pdfrwt>
<pdfrwt beam="2">  1       21 0.45401207E-01 0.35158905E+03</pdfrwt>
<totfact> 0.84392889E+03</totfact>
</mgrwt>
</event>
<event>
 4    0  0.1331077E-001  0.3234801E+03  0.7546771E-02  0.1074059E+00
         21   -1    0    0  503  501  0.00000000000E+00  0.00000000000E+00  0.13630090850E+04  0.13630090850E+04  0.00000000000E+00 0. -1.
         21   -1    0    0  501  502 -0.00000000000E+00 -0.00000000000E+00 -0.76005432728E+02  0.76005432728E+02  0.00000000000E+00 0. -1.
         25    1    1    2    0    0 -0.74403448237E+01 -0.29825996932E+03  0.85367798028E+03  0.91291043484E+03  0.12500000000E+03 0.  0.
         21    1    1    2  503  502  0.74403448237E+01  0.29825996932E+03  0.43332567203E+03  0.52610408292E+03  0.00000000000E+00 0. -1.
<mgrwt>
<rscale>  3 0.32348009E+03</rscale>
<asrwt>0</asrwt>
<pdfrwt beam="1">  1       21 0.20969369E+00 0.32348009E+03</pdfrwt>
<pdfrwt beam="2">  1       21 0.11693144E-01 0.32348009E+03</pdfrwt>
<totfact> 0.65321573E+03</totfact>
</mgrwt>
</event>
<event>
 4    0  0.1638682E-001  0.2605415E+03  0.7546771E-02  0.1106818E+00
         21   -1    0    0  502  501  0.00000000000E+00  0.00000000000E+00  0.44087919674E+03  0.44087919674E+03  0.00000000000E+00 0. -1.
         21   -1    0    0  503  502 -0.00000000000E+00 -0.00000000000E+00 -0.31812562996E+03  0.31812562996E+03  0.00000000000E+00 0.  1.
         25    1    1    2    0    0  0.11245825457E+03  0.19902261667E+03  0.35022907033E+03  0.43651146912E+03  0.12500000000E+03 0.  0.
         21    1    1    2  503  501 -0.11245825457E+03 -0.19902261667E+03 -0.22747550356E+03  0.32249335758E+03  0.00000000000E+00 0.  1.
<mgrwt>
<rscale>  3 0.26054148E+03</rscale>
<asrwt>0</asrwt>
<pdfrwt beam="1">  1       21 0.67827569E-01 0.26054148E+03</pdfrwt>
<pdfrwt beam="2">  1       21 0.48942405E-01 0.26054148E+03</pdfrwt>
<totfact> 0.75750584E+03</totfact>
</mgrwt>
</event>
<event>
 4    0  0.1550204E-001  0.3196547E+03  0.7546771E-02  0.1075808E+00
         21   -1    0    0  502  501  0.00000000000E+00  0.00000000000E+00  0.90381820445E+03  0.90381820445E+03  0.00000000000E+00 0. -1.
         21   -1    0    0  503  502 -0.00000000000E+00 -0.00000000000E+00 -0.10449303418E+03  0.10449303418E+03  0.00000000000E+00 0. -1.
         25    1    1    2    0    0 -0.28879800410E+03  0.56123623676E+02  0.39090436173E+03  0.50496075920E+03  0.12500000000E+03 0.  0.
         21    1    1    2  503  501  0.28879800410E+03 -0.56123623676E+02  0.40842080854E+03  0.50335047944E+03  0.00000000000E+00 0. -1.
<mgrwt>
<rscale>  3 0.31965473E+03</rscale>
<asrwt>0</asrwt>
<pdfrwt beam="1">  1       21 0.13904895E+00 0.31965473E+03</pdfrwt>
<pdfrwt beam="2">  1       21 0.16075852E-01 0.31965473E+03</pdfrwt>
<totfact> 0.11709989E+04</totfact>
</mgrwt>
</event>
<event>
 4    0  0.1003929E-001  0.2426444E+03  0.7546771E-02  0.1118044E+00
         21   -1    0    0  503  501  0.00000000000E+00  0.00000000000E+00  0.13644414844E+04  0.13644414844E+04  0.00000000000E+00 0. -1.
         21   -1    0    0  501  502 -0.00000000000E+00 -0.00000000000E+00 -0.15797620500E+03  0.15797620500E+03  0.00000000000E+00 0. -1.
         25    1    1    2    0    0 -0.12816378245E+03  0.16378443931E+03  0.12792658506E+04  0.13020742737E+04  0.12500000000E+03 0.  0.
         21    1    1    2  503  502  0.12816378245E+03 -0.16378443931E+03 -0.72800571190E+02  0.22034341573E+03  0.00000000000E+00 0. -1.
<mgrwt>
<rscale>  3 0.24264439E+03</rscale>
<asrwt>0</asrwt>
<pdfrwt beam="1">  1       21 0.20991407E+00 0.24264439E+03</pdfrwt>
<pdfrwt beam="2">  1       21 0.24304032E-01 0.24264439E+03</pdfrwt>
<totfact> 0.17690006E+03</totfact>
</mgrwt>
</event>
<event>
 4    0  0.1572530E-001  0.3006776E+03  0.7546771E-02  0.1084902E+00
         21   -1    0    0  503  501  0.00000000000E+00  0.00000000000E+00  0.35915852219E+03  0.35915852219E+03  0.00000000000E+00 0. -1.
         21   -1    0    0  501  502 -0.00000000000E+00 -0.00000000000E+00 -0.25814714633E+03  0.25814714633E+03  0.00000000000E+00 0. -1.
         25    1    1    2    0    0  0.26460462660E+03  0.69039137723E+02  0.15543823133E+03  0.33847903143E+03  0.12500000000E+03 0.  0.
         21    1    1    2  503  502 -0.26460462660E+03 -0.69039137723E+02 -0.54426855471E+02  0.27882663710E+03  0.00000000000E+00 0. -1.
<mgrwt>
<rscale>  3 0.30067759E+03</rscale>
<asrwt>0</asrwt>
<pdfrwt beam="1">  1       21 0.55255157E-01 0.30067759E+03</pdfrwt>
<pdfrwt beam="2">  1       21 0.39714946E-01 0.30067759E+03</pdfrwt>
<totfact> 0.17876976E+04</totfact>
</mgrwt>
</event>
<event>
 4    0  0.1582990E-001  0.2403419E+03  0.7546771E-02  0.1119565E+00
         21   -1    0    0  502  501  0.00000000000E+00  0.00000000000E+00  0.22025364466E+03  0.22025364466E+03  0.00000000000E+00 0. -1.
         21   -1    0    0  503  502 -0.00000000000E+00 -0.00000000000E+00 -0.22991906174E+03  0.22991906174E+03  0.00000000000E+00 0. -1.
         25    1    1    2    0    0  0.17827590123E+03 -0.10176912233E+03  0.26267239050E+02  0.24177307349E+03  0.12500000000E+03 0.  0.
         21    1    1    2  503  501 -0.17827590123E+03  0.10176912233E+03 -0.35932656135E+02  0.20839963291E+03  0.00000000000E+00 0. -1.
<mgrwt>
<rscale>  3 0.24034195E+03</rscale>
<asrwt>0</asrwt>
<pdfrwt beam="1">  1       21 0.33885176E-01 0.24034195E+03</pdfrwt>
<pdfrwt beam="2">  1       21 0.35372163E-01 0.24034195E+03</pdfrwt>
<totfact> 0.63354617E+04</totfact>
</mgrwt>
</event>
<event>
 4    0  0.1283496E-001  0.4552407E+03  0.7546771E-02  0.1026171E+00
         21   -1    0    0  502  501  0.00000000000E+00  0.00000000000E+00  0.13605810163E+04  0.13605810163E+04  0.00000000000E+00 0. -1.
         21   -1    0    0  503  502 -0.00000000000E+00 -0.00000000000E+00 -0.15003351157E+03  0.15003351157E+03  0.00000000000E+00 0. -1.
         25    1    1    2    0    0  0.38166458617E+03 -0.21436249230E+03  0.73238575889E+03  0.86234159952E+03  0.12500000000E+03 0.  0.
         21    1    1    2  503  501 -0.38166458617E+03  0.21436249230E+03  0.47816174585E+03  0.64827292835E+03  0.00000000000E+00 0. -1.
<mgrwt>
<rscale>  3 0.45524074E+03</rscale>
<asrwt>0</asrwt>
<pdfrwt beam="1">  1       21 0.20932015E+00 0.45524074E+03</pdfrwt>
<pdfrwt beam="2">  1       21 0.23082080E-01 0.45524074E+03</pdfrwt>
<totfact> 0.17333691E+03</totfact>
</mgrwt>
</event>
<event>
 4    0  0.1003929E-001  0.2939579E+03  0.7546771E-02  0.1088301E+00
         21   -1    0    0  503  501  0.00000000000E+00  0.00000000000E+00  0.26092834501E+03  0.26092834501E+03  0.00000000000E+00 0. -1.
         21   -1    0    0  501  502 -0.00000000000E+00 -0.00000000000E+00 -0.37064900418E+03  0.37064900418E+03  0.00000000000E+00 0.  1.
         25    1    1    2    0    0  0.24066563639E+03  0.11342980147E+03  0.80184361115E+02  0.30469788343E+03  0.12500000000E+03 0.  0.
         21    1    1    2  503  502 -0.24066563639E+03 -0.11342980147E+03 -0.18990502029E+03  0.32687946575E+03  0.00000000000E+00 0.  1.
<mgrwt>
<rscale>  3 0.29395794E+03</rscale>
<asrwt>0</asrwt>
<pdfrwt beam="1">  1       21 0.40142822E-01 0.29395794E+03</pdfrwt>
<pdfrwt beam="2">  1       21 0.57022924E-01 0.29395794E+03</pdfrwt>
<totfact> 0.16392922E+04</totfact>
</mgrwt>
</event>
<event>
 4    0  0.1045453E-001  0.2372901E+03  0.7546771E-02  0.1121611E+00
         21   -1    0    0  503  501  0.00000000000E+00  0.00000000000E+00  0.81691653809E+02  0.81691653809E+02  0.00000000000E+00 0.  1.
         21   -1    0    0  501  502 -0.00000000000E+00 -0.00000000000E+00 -0.86471302831E+03  0.86471302831E+03  0.00000000000E+00 0. -1.
         25    1    1    2    0    0 -0.18835557663E+03  0.72137009697E+02 -0.14691934862E+03  0.27909114356E+03  0.12500000000E+03 0.  0.
         21    1    1    2  503  502  0.18835557663E+03 -0.72137009697E+02 -0.63610202588E+03  0.66731353856E+03  0.00000000000E+00 0. -1.
<mgrwt>
<rscale>  3 0.23729006E+03</rscale>
<asrwt>0</asrwt>
<pdfrwt beam="1">  1       21 0.12567947E-01 0.23729006E+03</pdfrwt>
<pdfrwt beam="2">  1       21 0.13303277E+00 0.23729006E+03</pdfrwt>
<totfact> 0.21441389E+04</totfact>
</mgrwt>
</event>
<event>
 4    0  0.1266414E-001  0.3335160E+03  0.7546771E-02  0.1069592E+00
         21   -1    0    0  502  501  0.00000000000E+00  0.00000000000E+00  0.72196291243E+03  0.72196291243E+03  0.00000000000E+00 0. -1.
         21   -1    0    0  503  502 -0.00000000000E+00 -0.00000000000E+00 -0.24707948255E+03  0.24707948255E+03  0.00000000000E+00 0.  1.
         25    1    1    2    0    0  0.13513092051E+03 -0.27811432628E+03  0.55691246311E+03  0.64914130644E+03  0.12500000000E+03 0.  0.
         21    1    1    2  503  501 -0.13513092051E+03  0.27811432628E+03 -0.82029033232E+02  0.31990108854E+03  0.00000000000E+00 0.  1.
<mgrwt>
<rscale>  3 0.33351603E+03</rscale>
<asrwt>0</asrwt>
<pdfrwt beam="1">  1       21 0.11107122E+00 0.33351603E+03</pdfrwt>
<pdfrwt beam="2">  1       21 0.38012228E-01 0.33351603E+03</pdfrwt>
<totfact> 0.38941251E+03</totfact>
</mgrwt>
</event>
<event>
 4    0  0.1302723E-001  0.2935523E+03  0.7546771E-02  0.1088509E+00
         21   -1    0    0  503  501  0.00000000000E+00  0.00000000000E+00  0.15170252261E+03  0.15170252261E+03  0.00000000000E+00 0.  1.
         21   -1    0    0  501  502 -0.00000000000E+00 -0.00000000000E+00 -0.63334643855E+03  0.63334643855E+03  0.00000000000E+00 0.  1.
         25    1    1    2    0    0  0.74082174334E+01  0.26550533868E+03 -0.81289662395E+02  0.30459969758E+03  0.12500000000E+03 0.  0.
         21    1    1    2  503  502 -0.74082174334E+01 -0.26550533868E+03 -0.40035425355E+03  0.48044926359E+03  0.00000000000E+00 0.  1.
<mgrwt>
<rscale>  3 0.29355232E+03</rscale>
<asrwt>0</asrwt>
<pdfrwt beam="1">  1       21 0.23338850E-01 0.29355232E+03</pdfrwt>
<pdfrwt beam="2">  1       21 0.97437912E-01 0.29355232E+03</pdfrwt>
<totfact> 0.14258704E+04</totfact>
</mgrwt>
</event>
<event>
 4    0  0.1333021E-001  0.2965266E+03  0.7546771E-02  0.1086990E+00
         21   -1    0    0  502  501  0.00000000000E+00  0.00000000000E+00  0.59485381673E+03  0.59485381673E+03  0.00000000000E+00 0.  1.
         21   -1    0    0  503  502 -0.00000000000E+00 -0.00000000000E+00 -0.17760712010E+03  0.17760712010E+03  0.00000000000E+00 0.  1.
         25    1    1    2    0    0 -0.23102331476E+03  0.13759092489E+03  0.40675209080E+03  0.50336398157E+03  0.12500000000E+03 0.  0.
         21    1    1    2  503  501  0.23102331476E+03 -0.13759092489E+03  0.10494605831E+02  0.26909695526E+03  0.00000000000E+00 0.  1.
<mgrwt>
<rscale>  3 0.29652662E+03</rscale>
<asrwt>0</asrwt>
<pdfrwt beam="1">  1       21 0.91515971E-01 0.29652662E+03</pdfrwt>
<pdfrwt beam="2">  1       21 0.27324173E-01 0.29652662E+03</pdfrwt>
<totfact> 0.12183919E+04</totfact>
</mgrwt>
</event>
<event>
 4    0  0.1120272E-001  0.2761614E+03  0.7546771E-02  0.1097804E+00
         21   -1    0    0  502  501  0.00000000000E+00  0.00000000000E+00  0.46830829347E+03  0.46830829347E+03  0.00000000000E+00 0. -1.
         21   -1    0    0  503  502 -0.00000000000E+00 -0.00000000000E+00 -0.59240813436E+03  0.59240813436E+03  0.00000000000E+00 0. -1.
         25    1    1    2    0    0 -0.24040111217E+03 -0.53361077483E+02  0.39743823106E+03  0.48396512977E+03  0.12500000000E+03 0.  0.
         21    1    1    2  503  501  0.24040111217E+03  0.53361077483E+02 -0.52153807195E+03  0.57675129806E+03  0.00000000000E+00 0. -1.
<mgrwt>
<rscale>  3 0.27616136E+03</rscale>
<asrwt>0</asrwt>
<pdfrwt beam="1">  1       21 0.72047430E-01 0.27616136E+03</pdfrwt>
<pdfrwt beam="2">  1       21 0.91139713E-01 0.27616136E+03</pdfrwt>
<totfact> 0.16607982E+03</totfact>
</mgrwt>
</event>
<event>
 4    0  0.1297277E-001  0.2962277E+03  0.7546771E-02  0.1087142E+00
         21   -1    0    0  503  501  0.00000000000E+00  0.00000000000E+00  0.37529053601E+03  0.37529053601E+03  0.00000000000E+00 0. -1.
         21   -1    0    0  501  502 -0.00000000000E+00 -0.00000000000E+00 -0.79829925237E+03  0.79829925237E+03  0.00000000000E+00 0. -1.
         25    1    1    2    0    0  0.26837561349E+03  0.10019728616E+02  0.28824403876E+03  0.41332250212E+03  0.12500000000E+03 0.  0.
         21    1    1    2  503  502 -0.26837561349E+03 -0.10019728616E+02 -0.71125275512E+03  0.76026728625E+03  0.00000000000E+00 0. -1.
<mgrwt>
<rscale>  3 0.29622772E+03</rscale>
<asrwt>0</asrwt>
<pdfrwt beam="1">  1       21 0.57737007E-01 0.29622772E+03</pdfrwt>
<pdfrwt beam="2">  1       21 0.12281527E+00 0.29622772E+03</pdfrwt>
<totfact> 0.12913196E+03</totfact>
</mgrwt>
</event>
<event>
 4    0  0.1003929E-001  0.2447371E+03  0.7546771E-02  0.1116677E+00
         21   -1    0    0  502  501  0.00000000000E+00  0.00000000000E+00  0.27087091810E+02  0.27087091810E+02  0.00000000000E+00 0.  1.
         21   -1    0    0  503  502 -0.00000000000E+00 -0.00000000000E+00 -0.24052823479E+04  0.24052823479E+04  0.00000000000E+00 0.  1.
         25    1    1    2    0    0  0.77531191941E+02 -0.19560207995E+03 -0.71084667490E+03  0.75179734944E+03  0.12500000000E+03 0.  0.
         21    1    1    2  503  501 -0.77531191941E+02  0.19560207995E+03 -0.16673485811E+04  0.16805720902E+04  0.00000000000E+00 0.  1.
<mgrwt>
<rscale>  3 0.24473712E+03</rscale>
<asrwt>0</asrwt>
<pdfrwt beam="1">  1       21 0.41672448E-02 0.24473712E+03</pdfrwt>
<pdfrwt beam="2">  1       21 0.37004345E+00 0.24473712E+03</pdfrwt>
<totfact> 0.45711766E+03</totfact>
</mgrwt>
</event>
<event>
 4    0  0.1448634E-001  0.2372800E+03  0.7546771E-02  0.1121618E+00
         21   -1    0    0  502  501  0.00000000000E+00  0.00000000000E+00  0.22106703081E+03  0.22106703081E+03  0.00000000000E+00 0. -1.
         21   -1    0    0  503  502 -0.00000000000E+00 -0.00000000000E+00 -0.41289776096E+03  0.41289776096E+03  0.00000000000E+00 0.  1.
         25    1    1    2    0    0  0.10983941165E+02  0.20138560046E+03  0.11743198915E+03  0.26474908708E+03  0.12500000000E+03 0.  0.
         21    1    1    2  503  501 -0.10983941165E+02 -0.20138560046E+03 -0.30926271931E+03  0.36921570469E+03  0.00000000000E+00 0.  1.
<mgrwt>
<rscale>  3 0.23728002E+03</rscale>
<asrwt>0</asrwt>
<pdfrwt beam="1">  1       21 0.34010313E-01 0.23728002E+03</pdfrwt>
<pdfrwt beam="2">  1       21 0.63522732E-01 0.23728002E+03</pdfrwt>
<totfact> 0.18603551E+04</totfact>
</mgrwt>
</event>
<event>
 4    0  0.1557128E-001  0.2800691E+03  0.7546771E-02  0.1095651E+00
         21   -1    0    0  503  501  0.00000000000E+00  0.00000000000E+00  0.13382297884E+03  0.13382297884E+03  0.00000000000E+00 0. -1.
         21   -1    0    0  501  502 -0.00000000000E+00 -0.00000000000E+00 -0.54462052634E+03  0.54462052634E+03  0.00000000000E+00 0. -1.
         25    1    1    2    0    0  0.22642400202E+03 -0.10745169791E+03 -0.15401099271E+03  0.31962177953E+03  0.12500000000E+03 0.  0.
         21    1    1    2  503  502 -0.22642400202E+03  0.10745169791E+03 -0.25678655480E+03  0.35882172565E+03  0.00000000000E+00 0. -1.
<mgrwt>
<rscale>  3 0.28006909E+03</rscale>
<asrwt>0</asrwt>
<pdfrwt beam="1">  1       21 0.20588151E-01 0.28006909E+03</pdfrwt>
<pdfrwt beam="2">  1       21 0.83787773E-01 0.28006909E+03</pdfrwt>
<totfact> 0.25926050E+04</totfact>
</mgrwt>
</event>
<event>
 4    0  0.1426688E-001  0.2413062E+03  0.7546771E-02  0.1118926E+00
         21   -1    0    0  503  501  0.00000000000E+00  0.00000000000E+00  0.11536158880E+03  0.11536158880E+03  0.00000000000E+00 0. -1.
         21   -1    0    0  501  502 -0.00000000000E+00 -0.00000000000E+00 -0.43456875262E+03  0.43456875262E+03  0.00000000000E+00 0. -1.
         25    1    1    2    0    0  0.20310556579E+03 -0.36767311330E+02 -0.17762758744E+03  0.29963355262E+03  0.12500000000E+03 0.  0.
         21    1    1    2  503  502 -0.20310556579E+03  0.36767311330E+02 -0.14157957638E+03  0.25029678880E+03  0.00000000000E+00 0. -1.
<mgrwt>
<rscale>  3 0.24130625E+03</rscale>
<asrwt>0</asrwt>
<pdfrwt beam="1">  1       21 0.17747937E-01 0.24130625E+03</pdfrwt>
<pdfrwt beam="2">  1       21 0.66856731E-01 0.24130625E+03</pdfrwt>
<totfact> 0.57805470E+04</totfact>
</mgrwt>
</event>
<event>
 4    0  0.1003929E-001  0.3962256E+03  0.7546771E-02  0.1045095E+00
         21   -1    0    0  502  501  0.00000000000E+00  0.00000000000E+00  0.17729651474E+03  0.17729651474E+03  0.00000000000E+00 0. -1.
         21   -1    0    0  503  502 -0.00000000000E+00 -0.00000000000E+00 -0.11185608786E+04  0.11185608786E+04  0.00000000000E+00 0.  1.
         25    1    1    2    0    0 -0.16137215187E+03 -0.33960088248E+03 -0.15714104817E+03  0.42624880035E+03  0.12500000000E+03 0.  0.
         21    1    1    2  503  501  0.16137215187E+03  0.33960088248E+03 -0.78412331566E+03  0.86960859295E+03  0.00000000000E+00 0.  1.
<mgrwt>
<rscale>  3 0.39622561E+03</rscale>
<asrwt>0</asrwt>
<pdfrwt beam="1">  1       21 0.27276387E-01 0.39622561E+03</pdfrwt>
<pdfrwt beam="2">  1       21 0.17208629E+00 0.39622561E+03</pdfrwt>
<totfact> 0.23105733E+03</totfact>
</mgrwt>
</event>
<event>
 4    0  0.1003929E-001  0.4454005E+03  0.7546771E-02  0.1029103E+00
         21   -1    0    0  502  501  0.00000000000E+00  0.00000000000E+00  0.92907753164E+03  0.92907753164E+03  0.00000000000E+00 0. -1.
         21   -1    0    0  503  502 -0.00000000000E+00 -0.00000000000E+00 -0.42622811816E+03  0.42622811816E+03  0.00000000000E+00 0. -1.
         25    1    1    2    0    0  0.31150008149E+03  0.29278717174E+03  0.74203170450E+03  0.86544363143E+03  0.12500000000E+03 0.  0.
         21    1    1    2  503  501 -0.31150008149E+03 -0.29278717174E+03 -0.23918229102E+03  0.48986201837E+03  0.00000000000E+00 0. -1.
<mgrwt>
<rscale>  3 0.44540053E+03</rscale>
<asrwt>0</asrwt>
<pdfrwt beam="1">  1       21 0.14293500E+00 0.44540053E+03</pdfrwt>
<pdfrwt beam="2">  1       21 0.65573557E-01 0.44540053E+03</pdfrwt>
<totfact> 0.60834695E+02</totfact>
</mgrwt>
</event>
<event>
 4    0  0.1065641E-001  0.3312525E+03  0.7546771E-02  0.1070584E+00
         21   -1    0    0  503  501  0.00000000000E+00  0.00000000000E+00  0.49545731101E+03  0.49545731101E+03  0.00000000000E+00 0. -1.
         21   -1    0    0  501  502 -0.00000000000E+00 -0.00000000000E+00 -0.26706498034E+03  0.26706498034E+03  0.00000000000E+00 0.  1.
         25    1    1    2    0    0 -0.15795280090E+03 -0.26297171635E+03  0.30067037968E+03  0.44735990895E+03  0.12500000000E+03 0.  0.
         21    1    1    2  503  502  0.15795280090E+03  0.26297171635E+03 -0.72278049021E+02  0.31516238240E+03  0.00000000000E+00 0.  1.
<mgrwt>
<rscale>  3 0.33125249E+03</rscale>
<asrwt>0</asrwt>
<pdfrwt beam="1">  1       21 0.76224202E-01 0.33125249E+03</pdfrwt>
<pdfrwt beam="2">  1       21 0.41086920E-01 0.33125249E+03</pdfrwt>
<totfact> 0.81023900E+03</totfact>
</mgrwt>
</event>
<event>
 4    0  0.1143285E-001  0.3571919E+03  0.7546771E-02  0.1059701E+00
         21   -1    0    0  503  501  0.00000000000E+00  0.00000000000E+00  0.57396422114E+03  0.57396422114E+03  0.00000000000E+00 0. -1.
         21   -1    0    0  501  502 -0.00000000000E+00 -0.00000000000E+00 -0.52325156411E+03  0.52325156411E+03  0.00000000000E+00 0. -1.
         25    1    1    2    0    0  0.29443857124E+03 -0.15895598391E+03  0.45111714163E+03  0.57540659757E+03  0.12500000000E+03 0.  0.
         21    1    1    2  503  502 -0.29443857124E+03  0.15895598391E+03 -0.40040448460E+03  0.52180918768E+03  0.00000000000E+00 0. -1.
<mgrwt>
<rscale>  3 0.35719193E+03</rscale>
<asrwt>0</asrwt>
<pdfrwt beam="1">  1       21 0.88302188E-01 0.35719193E+03</pdfrwt>
<pdfrwt beam="2">  1       21 0.80500240E-01 0.35719193E+03</pdfrwt>
<totfact> 0.13272339E+03</totfact>
</mgrwt>
</event>
<event>
 4    0  0.1003929E-001  0.2653302E+03  0.7546771E-02  0.1103982E+00
         21   -1    0    0  502  501  0.00000000000E+00  0.00000000000E+00  0.10958745704E+03  0.10958745704E+03  0.00000000000E+00 0.  1.
         21   -1    0    0  503  502 -0.00000000000E+00 -0.00000000000E+00 -0.15130805734E+04  0.15130805734E+04  0.00000000000E+00 0.  1.
         25    1    1    2    0    0 -0.50107979421E+02 -0.22861386224E+03 -0.77838221081E+02  0.27651201831E+03  0.12500000000E+03 0.  0.
         21    1    1    2  503  501  0.50107979421E+02  0.22861386224E+03 -0.13256548953E+04  0.13461560122E+04  0.00000000000E+00 0.  1.
<mgrwt>
<rscale>  3 0.26533019E+03</rscale>
<asrwt>0</asrwt>
<pdfrwt beam="1">  1       21 0.16859608E-01 0.26533019E+03</pdfrwt>
<pdfrwt beam="2">  1       21 0.23278164E+00 0.26533019E+03</pdfrwt>
<totfact> 0.24914260E+03</totfact>
</mgrwt>
</event>
<event>
 4    0  0.1003929E-001  0.2393299E+03  0.7546771E-02  0.1120240E+00
         21   -1    0    0  502  501  0.00000000000E+00  0.00000000000E+00  0.55703004747E+03  0.55703004747E+03  0.00000000000E+00 0.  1.
         21   -1    0    0  503  502 -0.00000000000E+00 -0.00000000000E+00 -0.11250826231E+03  0.11250826231E+03  0.00000000000E+00 0. -1.
         25    1    1    2    0    0 -0.77848464065E+02 -0.18866220464E+03  0.39118773105E+03  0.45859203192E+03  0.12500000000E+03 0.  0.
         21    1    1    2  503  501  0.77848464065E+02  0.18866220464E+03  0.53334054112E+02  0.21094627787E+03  0.00000000000E+00 0. -1.
<mgrwt>
<rscale>  3 0.23932992E+03</rscale>
<asrwt>0</asrwt>
<pdfrwt beam="1">  1       21 0.85696929E-01 0.23932992E+03</pdfrwt>
<pdfrwt beam="2">  1       21 0.17308964E-01 0.23932992E+03</pdfrwt>
<totfact> 0.34660051E+04</totfact>
</mgrwt>
</event>
<event>
 4    0  0.1410263E-001  0.2426153E+03  0.7546771E-02  0.1118063E+00
         21   -1    0    0  502  501  0.00000000000E+00  0.00000000000E+00  0.18476404024E+03  0.18476404024E+03  0.00000000000E+00 0. -1.
         21   -1    0    0  503  502 -0.00000000000E+00 -0.00000000000E+00 -0.45682465510E+03  0.45682465510E+03  0.00000000000E+00 0. -1.
         25    1    1    2    0    0 -0.49841681117E+02  0.20187368074E+03  0.59882072430E+02  0.24989605589E+03  0.12500000000E+03 0.  0.
         21    1    1    2  503  501  0.49841681117E+02 -0.20187368074E+03 -0.33194268729E+03  0.39169263945E+03  0.00000000000E+00 0. -1.
<mgrwt>
<rscale>  3 0.24261528E+03</rscale>
<asrwt>0</asrwt>
<pdfrwt beam="1">  1       21 0.28425237E-01 0.24261528E+03</pdfrwt>
<pdfrwt beam="2">  1       21 0.70280715E-01 0.24261528E+03</pdfrwt>
<totfact> 0.21142065E+04</totfact>
</mgrwt>
</event>
<event>
 4    0  0.1328800E-001  0.4453184E+03  0.7546771E-02  0.1029127E+00
         21   -1    0    0  503  501  0.00000000000E+00  0.00000000000E+00  0.37396898313E+03  0.37396898313E+03  0.00000000000E+00 0.  1.
         21   -1    0    0  501  502 -0.00000000000E+00 -0.00000000000E+00 -0.55524092730E+03  0.55524092730E+03  0.00000000000E+00 0.  1.
         25    1    1    2    0    0 -0.42609001117E+03  0.33626835598E+02  0.41456157661E+02  0.44724386491E+03  0.12500000000E+03 0.  0.
         21    1    1    2  503  502  0.42609001117E+03 -0.33626835598E+02 -0.22272810183E+03  0.48196604552E+03  0.00000000000E+00 0.  1.
<mgrwt>
<rscale>  3 0.44531838E+03</rscale>
<asrwt>0</asrwt>
<pdfrwt beam="1">  1       21 0.57533690E-01 0.44531838E+03</pdfrwt>
<pdfrwt beam="2">  1       21 0.85421681E-01 0.44531838E+03</pdfrwt>
<totfact> 0.29269295E+03</totfact>
</mgrwt>
</event>
<event>
 4    0  0.1081965E-001  0.2478252E+03  0.7546771E-02  0.1114687E+00
         21   -1    0    0  503  501  0.00000000000E+00  0.00000000000E+00  0.36000210395E+03  0.36000210395E+03  0.00000000000E+00 0. -1.
         21   -1    0    0  501  502 -0.00000000000E+00 -0.00000000000E+00 -0.12920513873E+04  0.12920513873E+04  0.00000000000E+00 0. -1.
         25    1    1    2    0    0  0.42433798962E+02  0.20974196333E+03  0.30706547017E+03  0.39459665666E+03  0.12500000000E+03 0.  0.
         21    1    1    2  503  502 -0.42433798962E+02 -0.20974196333E+03 -0.12391147535E+04  0.12574568346E+04  0.00000000000E+00 0. -1.
<mgrwt>
<rscale>  3 0.24782518E+03</rscale>
<asrwt>0</asrwt>
<pdfrwt beam="1">  1       21 0.55384939E-01 0.24782518E+03</pdfrwt>
<pdfrwt beam="2">  1       21 0.19877714E+00 0.24782518E+03</pdfrwt>
<totfact> 0.39530089E+02</totfact>
</mgrwt>
</event>
<event>
 4    0  0.1692137E-001  0.2985500E+03  0.7546771E-02  0.1085968E+00
         21   -1    0    0  503  501  0.00000000000E+00  0.00000000000E+00  0.12973536444E+03  0.12973536444E+03  0.00000000000E+00 0. -1.
         21   -1    0    0  501  502 -0.00000000000E+00 -0.00000000000E+00 -0.66775072636E+03  0.66775072636E+03  0.00000000000E+00 0. -1.
         25    1    1    2    0    0 -0.26157118712E+03 -0.71327397041E+02 -0.18078186398E+03  0.34901886173E+03  0.12500000000E+03 0.  0.
         21    1    1    2  503  502  0.26157118712E+03  0.71327397041E+02 -0.35723349795E+03  0.44846722908E+03  0.00000000000E+00 0. -1.
<mgrwt>
<rscale>  3 0.29854997E+03</rscale>
<asrwt>0</asrwt>
<pdfrwt beam="1">  1       21 0.19959287E-01 0.29854997E+03</pdfrwt>
<pdfrwt beam="2">  1       21 0.10273088E+00 0.29854997E+03</pdfrwt>
<totfact> 0.16866618E+04</totfact>
</mgrwt>
</event>
<event>
 4    0  0.1003929E-001  0.2634208E+03  0.7546771E-02  0.1105105E+00
         21   -1    0    0  502  501  0.00000000000E+00  0.00000000000E+00  0.12885534802E+03  0.12885534802E+03  0.00000000000E+00 0. -1.
         21   -1    0    0  503  502 -0.00000000000E+00 -0.00000000000E+00 -0.63090695201E+03  0.63090695201E+03  0.00000000000E+00 0.  1.
         25    1    1    2    0    0 -0.19626069978E+03 -0.12347981950E+03 -0.75112888789E+02  0.27392056178E+03  0.12500000000E+03 0.  0.
         21    1    1    2  503  501  0.19626069978E+03  0.12347981950E+03 -0.42693871520E+03  0.48584173826E+03  0.00000000000E+00 0.  1.
<mgrwt>
<rscale>  3 0.26342082E+03</rscale>
<asrwt>0</asrwt>
<pdfrwt beam="1">  1       21 0.19823899E-01 0.26342082E+03</pdfrwt>
<pdfrwt beam="2">  1       21 0.97062609E-01 0.26342082E+03</pdfrwt>
<totfact> 0.19885851E+04</totfact>
</mgrwt>
</event>
<event>
 4    0  0.1178016E-001  0.2377065E+03  0.7546771E-02  0.1121330E+00
         21   -1    0    0  502  501  0.00000000000E+00  0.00000000000E+00  0.14063001940E+03  0.14063001940E+03  0.00000000000E+00 0. -1.
         21   -1    0    0  503  502 -0.00000000000E+00 -0.00000000000E+00 -0.58564010243E+03  0.58564010243E+03  0.00000000000E+00 0.  1.
         25    1    1    2    0    0  0.19885392498E+03  0.36558436046E+02 -0.24628191699E+00  0.23770667508E+03  0.12500000000E+03 0.  0.
         21    1    1    2  503  501 -0.19885392498E+03 -0.36558436046E+02 -0.44476380111E+03  0.48856344675E+03  0.00000000000E+00 0.  1.
<mgrwt>
<rscale>  3 0.23770655E+03</rscale>
<asrwt>0</asrwt>
<pdfrwt beam="1">  1       21 0.21635387E-01 0.23770655E+03</pdfrwt>
<pdfrwt beam="2">  1       21 0.90098480E-01 0.23770655E+03</pdfrwt>
<totfact> 0.20344378E+04</totfact>
</mgrwt>
</event>
<event>
 4    0  0.1461013E-001  0.3436538E+03  0.7546771E-02  0.1065250E+00
         21   -1    0    0  502  501  0.00000000000E+00  0.00000000000E+00  0.45068375494E+03  0.45068375494E+03  0.00000000000E+00 0.  1.
         21   -1    0    0  503  502 -0.00000000000E+00 -0.00000000000E+00 -0.30645834527E+03  0.30645834527E+03  0.00000000000E+00 0.  1.
         25    1    1    2    0    0  0.80771031195E+02  0.30975635205E+03  0.24442503071E+03  0.42171264239E+03  0.12500000000E+03 0.  0.
         21    1    1    2  503  501 -0.80771031195E+02 -0.30975635205E+03 -0.10019962104E+03  0.33542945782E+03  0.00000000000E+00 0.  1.
<mgrwt>
<rscale>  3 0.34365383E+03</rscale>
<asrwt>0</asrwt>
<pdfrwt beam="1">  1       21 0.69335962E-01 0.34365383E+03</pdfrwt>
<pdfrwt beam="2">  1       21 0.47147438E-01 0.34365383E+03</pdfrwt>
<totfact> 0.74991742E+03</totfact>
</mgrwt>
</event>
<event>
 4    0  0.1003929E-001  0.2719066E+03  0.7546771E-02  0.1100193E+00
         21   -1    0    0  503  501  0.00000000000E+00  0.00000000000E+00  0.15999796083E+03  0.15999796083E+03  0.00000000000E+00 0. -1.
         21   -1    0    0  501  502 -0.00000000000E+00 -0.00000000000E+00 -0.43494358042E+03  0.43494358042E+03  0.00000000000E+00 0.  1.
         25    1    1    2    0    0  0.18709676894E+03 -0.15265311365E+03 -0.76702806447E+02  0.28251813140E+03  0.12500000000E+03 0.  0.
         21    1    1    2  503  502 -0.18709676894E+03  0.15265311365E+03 -0.19824281315E+03  0.31242340985E+03  0.00000000000E+00 0.  1.
<mgrwt>
<rscale>  3 0.27190655E+03</rscale>
<asrwt>0</asrwt>
<pdfrwt beam="1">  1       21 0.24615072E-01 0.27190655E+03</pdfrwt>
<pdfrwt beam="2">  1       21 0.66914395E-01 0.27190655E+03</pdfrwt>
<totfact> 0.30726736E+04</totfact>
</mgrwt>
</event>
<event>
 4    0  0.1003929E-001  0.2690919E+03  0.7546771E-02  0.1101800E+00
         21   -1    0    0  503  501  0.00000000000E+00  0.00000000000E+00  0.30250158795E+03  0.30250158795E+03  0.00000000000E+00 0.  1.
         21   -1    0    0  501  502 -0.00000000000E+00 -0.00000000000E+00 -0.27314585321E+03  0.27314585321E+03  0.00000000000E+00 0. -1.
         25    1    1    2    0    0  0.17155185954E+03 -0.16539465179E+03  0.15050609116E+03  0.30832209591E+03  0.12500000000E+03 0.  0.
         21    1    1    2  503  502 -0.17155185954E+03  0.16539465179E+03 -0.12115035642E+03  0.26732534525E+03  0.00000000000E+00 0. -1.
<mgrwt>
<rscale>  3 0.26909186E+03</rscale>
<asrwt>0</asrwt>
<pdfrwt beam="1">  1       21 0.46538706E-01 0.26909186E+03</pdfrwt>
<pdfrwt beam="2">  1       21 0.42022439E-01 0.26909186E+03</pdfrwt>
<totfact> 0.23182616E+04</totfact>
</mgrwt>
</event>
<event>
 4    0  0.1527410E-001  0.2438490E+03  0.7546771E-02  0.1117255E+00
         21   -1    0    0  503  501  0.00000000000E+00  0.00000000000E+00  0.11331764462E+04  0.11331764462E+04  0.00000000000E+00 0.  1.
         21   -1    0    0  501  502 -0.00000000000E+00 -0.00000000000E+00 -0.12559498066E+03  0.12559498066E+03  0.00000000000E+00 0. -1.
         25    1    1    2    0    0  0.12602543595E+03 -0.16719722207E+03  0.10202775967E+04  0.10490132010E+04  0.12500000000E+03 0.  0.
         21    1    1    2  503  502 -0.12602543595E+03  0.16719722207E+03 -0.12696131132E+02  0.20975822587E+03  0.00000000000E+00 0. -1.
<mgrwt>
<rscale>  3 0.24384897E+03</rscale>
<asrwt>0</asrwt>
<pdfrwt beam="1">  1       21 0.17433483E+00 0.24384897E+03</pdfrwt>
<pdfrwt beam="2">  1       21 0.19322305E-01 0.24384897E+03</pdfrwt>
<totfact> 0.47009356E+03</totfact>
</mgrwt>
</event>
<event>
 4    0  0.1425114E-001  0.3017608E+03  0.7546771E-02  0.1084364E+00
         21   -1    0    0  502  501  0.00000000000E+00  0.00000000000E+00  0.92668731502E+02  0.92668731502E+02  0.00000000000E+00 0.  1.
         21   -1    0    0  503  502 -0.00000000000E+00 -0.00000000000E+00 -0.10095864422E+04  0.10095864422E+04  0.00000000000E+00 0.  1.
         25    1    1    2    0    0 -0.11571449652E+03  0.24908783795E+03 -0.29320477275E+03  0.42074770883E+03  0.12500000000E+03 0.  0.
         21    1    1    2  503  501  0.11571449652E+03 -0.24908783795E+03 -0.62371293797E+03  0.68150746490E+03  0.00000000000E+00 0.  1.
<mgrwt>
<rscale>  3 0.30176083E+03</rscale>
<asrwt>0</asrwt>
<pdfrwt beam="1">  1       21 0.14256728E-01 0.30176083E+03</pdfrwt>
<pdfrwt beam="2">  1       21 0.15532099E+00 0.30176083E+03</pdfrwt>
<totfact> 0.10968976E+04</totfact>
</mgrwt>
</event>
<event>
 4    0  0.1228092E-001  0.2839950E+03  0.7546771E-02  0.1093527E+00
         21   -1    0    0  503  501  0.00000000000E+00  0.00000000000E+00  0.88007312063E+03  0.88007312063E+03  0.00000000000E+00 0.  1.
         21   -1    0    0  501  502 -0.00000000000E+00 -0.00000000000E+00 -0.13664127474E+03  0.13664127474E+03  0.00000000000E+00 0.  1.
         25    1    1    2    0    0  0.41961194987E+02 -0.25153018157E+03  0.70342274683E+03  0.75858864669E+03  0.12500000000E+03 0.  0.
         21    1    1    2  503  502 -0.41961194987E+02  0.25153018157E+03  0.40009099059E+02  0.25812574868E+03  0.00000000000E+00 0.  1.
<mgrwt>
<rscale>  3 0.28399502E+03</rscale>
<asrwt>0</asrwt>
<pdfrwt beam="1">  1       21 0.13539586E+00 0.28399502E+03</pdfrwt>
<pdfrwt beam="2">  1       21 0.21021735E-01 0.28399502E+03</pdfrwt>
<totfact> 0.77281473E+03</totfact>
</mgrwt>
</event>
<event>
 4    0  0.1245810E-001  0.3426302E+03  0.7546771E-02  0.1065681E+00
         21   -1    0    0  502  501  0.00000000000E+00  0.00000000000E+00  0.74384777222E+02  0.74384777222E+02  0.00000000000E+00 0.  1.
         21   -1    0    0  503  502 -0.00000000000E+00 -0.00000000000E+00 -0.15739027148E+04  0.15739027148E+04  0.00000000000E+00 0.  1.
         25    1    1    2    0    0  0.19916950264E+02  0.31839246278E+03 -0.56449383771E+03  0.66033986558E+03  0.12500000000E+03 0.  0.
         21    1    1    2  503  501 -0.19916950264E+02 -0.31839246278E+03 -0.93502409987E+03  0.98794762644E+03  0.00000000000E+00 0.  1.
<mgrwt>
<rscale>  3 0.34263019E+03</rscale>
<asrwt>0</asrwt>
<pdfrwt beam="1">  1       21 0.11443812E-01 0.34263019E+03</pdfrwt>
<pdfrwt beam="2">  1       21 0.24213887E+00 0.34263019E+03</pdfrwt>
<totfact> 0.42106114E+03</totfact>
</mgrwt>
</event>
<event>
 4    0  0.1461166E-001  0.3081909E+03  0.7546771E-02  0.1081216E+00
         21   -1    0    0  502  501  0.00000000000E+00  0.00000000000E+00  0.52510260023E+03  0.52510260023E+03  0.00000000000E+00 0. -1.
         21   -1    0    0  503  502 -0.00000000000E+00 -0.00000000000E+00 -0.24979871812E+03  0.24979871812E+03  0.00000000000E+00 0. -1.
         25    1    1    2    0    0 -0.27899349581E+03 -0.38977512668E+02  0.36645120206E+03  0.47881948654E+03  0.12500000000E+03 0.  0.
         21    1    1    2  503  501  0.27899349581E+03  0.38977512668E+02 -0.91147319949E+02  0.29608183182E+03  0.00000000000E+00 0. -1.
<mgrwt>
<rscale>  3 0.30819088E+03</rscale>
<asrwt>0</asrwt>
<pdfrwt beam="1">  1       21 0.80785015E-01 0.30819088E+03</pdfrwt>
<pdfrwt beam="2">  1       21 0.38430572E-01 0.30819088E+03</pdfrwt>
<totfact> 0.82174164E+03</totfact>
</mgrwt>
</event>
<event>
 4    0  0.1633307E-001  0.3084317E+03  0.7546771E-02  0.1081100E+00
         21   -1    0    0  503  501  0.00000000000E+00  0.00000000000E+00  0.53358501224E+03  0.53358501224E+03  0.00000000000E+00 0. -1.
         21   -1    0    0  501  502 -0.00000000000E+00 -0.00000000000E+00 -0.33534035935E+03  0.33534035935E+03  0.00000000000E+00 0.  1.
         25    1    1    2    0    0 -0.19185616487E+03 -0.20663092042E+03  0.41230960298E+03  0.51490711199E+03  0.12500000000E+03 0.  0.
         21    1    1    2  503  502  0.19185616487E+03  0.20663092042E+03 -0.21406495009E+03  0.35401825960E+03  0.00000000000E+00 0.  1.
<mgrwt>
<rscale>  3 0.30843172E+03</rscale>
<asrwt>0</asrwt>
<pdfrwt beam="1">  1       21 0.82090002E-01 0.30843172E+03</pdfrwt>
<pdfrwt beam="2">  1       21 0.51590824E-01 0.30843172E+03</pdfrwt>
<totfact> 0.42991932E+03</totfact>
</mgrwt>
</event>
<event>
 4    0  0.1780105E-001  0.2453528E+03  0.7546771E-02  0.1116277E+00
         21   -1    0    0  502  501  0.00000000000E+00  0.00000000000E+00  0.36907668241E+03  0.36907668241E+03  0.00000000000E+00 0.  1.
         21   -1    0    0  503  502 -0.00000000000E+00 -0.00000000000E+00 -0.48860541516E+03  0.48860541516E+03  0.00000000000E+00 0. -1.
         25    1    1    2    0    0 -0.11974717568E+03 -0.17387814811E+03  0.30028280884E+03  0.38777282236E+03  0.12500000000E+03 0.  0.
         21    1    1    2  503  501  0.11974717568E+03  0.17387814811E+03 -0.41981154159E+03  0.46990927521E+03  0.00000000000E+00 0. -1.
<mgrwt>
<rscale>  3 0.24535280E+03</rscale>
<asrwt>0</asrwt>
<pdfrwt beam="1">  1       21 0.56781028E-01 0.24535280E+03</pdfrwt>
<pdfrwt beam="2">  1       21 0.75170064E-01 0.24535280E+03</pdfrwt>
<totfact> 0.44390136E+03</totfact>
</mgrwt>
</event>
<event>
 4    0  0.1003929E-001  0.3124368E+03  0.7546771E-02  0.1079184E+00
         21   -1    0    0  503  501  0.00000000000E+00  0.00000000000E+00  0.24472086488E+04  0.24472086488E+04  0.00000000000E+00 0.  1.
         21   -1    0    0  501  502 -0.00000000000E+00 -0.00000000000E+00 -0.71970631661E+02  0.71970631661E+02  0.00000000000E+00 0.  1.
         25    1    1    2    0    0  0.24471642232E+03 -0.14867956102E+03  0.20962191188E+04  0.21193752224E+04  0.12500000000E+03 0.  0.
         21    1    1    2  503  502 -0.24471642232E+03  0.14867956102E+03  0.27901889829E+03  0.39980405804E+03  0.00000000000E+00 0.  1.
<mgrwt>
<rscale>  3 0.31243678E+03</rscale>
<asrwt>0</asrwt>
<pdfrwt beam="1">  1       21 0.37649357E+00 0.31243678E+03</pdfrwt>
<pdfrwt beam="2">  1       21 0.11072407E-01 0.31243678E+03</pdfrwt>
<totfact> 0.71379537E+02</totfact>
</mgrwt>
</event>
<event>
 4    0  0.1862865E-001  0.2476447E+03  0.7546771E-02  0.1114802E+00
         21   -1    0    0  502  501  0.00000000000E+00  0.00000000000E+00  0.28764886861E+03  0.28764886861E+03  0.00000000000E+00 0.  1.
         21   -1    0    0  503  502 -0.00000000000E+00 -0.00000000000E+00 -0.77333437118E+03  0.77333437118E+03  0.00000000000E+00 0. -1.
         25    1    1    2    0    0 -0.88838311419E+02 -0.19444962411E+03  0.21528389822E+03  0.32813877967E+03  0.12500000000E+03 0.  0.
         21    1    1    2  503  501  0.88838311419E+02  0.19444962411E+03 -0.70096940078E+03  0.73284446012E+03  0.00000000000E+00 0. -1.
<mgrwt>
<rscale>  3 0.24764471E+03</rscale>
<asrwt>0</asrwt>
<pdfrwt beam="1">  1       21 0.44253672E-01 0.24764471E+03</pdfrwt>
<pdfrwt beam="2">  1       21 0.11897452E+00 0.24764471E+03</pdfrwt>
<totfact> 0.25309016E+03</totfact>
</mgrwt>
</event>
<event>
 4    0  0.1050806E-001  0.3377706E+03  0.7546771E-02  0.1067749E+00
         21   -1    0    0  502  501  0.00000000000E+00  0.00000000000E+00  0.50933601067E+03  0.50933601067E+03  0.00000000000E+00 0.  1.
         21   -1    0    0  503  502 -0.00000000000E+00 -0.00000000000E+00 -0.59457130166E+03  0.59457130166E+03  0.00000000000E+00 0.  1.
         25    1    1    2    0    0  0.12172110294E+03  0.28921955885E+03  0.40156812173E+03  0.52473415795E+03  0.12500000000E+03 0.  0.
         21    1    1    2  503  501 -0.12172110294E+03 -0.28921955885E+03 -0.48680341272E+03  0.57917315439E+03  0.00000000000E+00 0.  1.
<mgrwt>
<rscale>  3 0.33777060E+03</rscale>
<asrwt>0</asrwt>
<pdfrwt beam="1">  1       21 0.78359386E-01 0.33777060E+03</pdfrwt>
<pdfrwt beam="2">  1       21 0.91472508E-01 0.33777060E+03</pdfrwt>
<totfact> 0.13126814E+03</totfact>
</mgrwt>
</event>
<event>
 4    0  0.1394521E-001  0.2464278E+03  0.7546771E-02  0.1115583E+00
         21   -1    0    0  502  501  0.00000000000E+00  0.00000000000E+00  0.25591018939E+03  0.25591018939E+03  0.00000000000E+00 0.  1.
         21   -1    0    0  503  502 -0.00000000000E+00 -0.00000000000E+00 -0.20816004749E+03  0.20816004749E+03  0.00000000000E+00 0.  1.
         25    1    1    2    0    0  0.59823340676E+02  0.20377150293E+03  0.51109844557E+02  0.25167215521E+03  0.12500000000E+03 0.  0.
         21    1    1    2  503  501 -0.59823340676E+02 -0.20377150293E+03 -0.33597026549E+01  0.21239808167E+03  0.00000000000E+00 0.  1.
<mgrwt>
<rscale>  3 0.24642779E+03</rscale>
<asrwt>0</asrwt>
<pdfrwt beam="1">  1       21 0.39370799E-01 0.24642779E+03</pdfrwt>
<pdfrwt beam="2">  1       21 0.32024623E-01 0.24642779E+03</pdfrwt>
<totfact> 0.56985094E+04</totfact>
</mgrwt>
</event>
<event>
 4    0  0.1425006E-001  0.3178150E+03  0.7546771E-02  0.1076659E+00
         21   -1    0    0  502  501  0.00000000000E+00  0.00000000000E+00  0.55333813861E+03  0.55333813861E+03  0.00000000000E+00 0.  1.
         21   -1    0    0  503  502 -0.00000000000E+00 -0.00000000000E+00 -0.16969541904E+03  0.16969541904E+03  0.00000000000E+00 0.  1.
         25    1    1    2    0    0 -0.75072534503E+02 -0.28239245829E+03  0.23455075413E+03  0.39499423059E+03  0.12500000000E+03 0.  0.
         21    1    1    2  503  501  0.75072534503E+02  0.28239245829E+03  0.14909196545E+03  0.32803932706E+03  0.00000000000E+00 0.  1.
<mgrwt>
<rscale>  3 0.31781502E+03</rscale>
<asrwt>0</asrwt>
<pdfrwt beam="1">  1       21 0.85128943E-01 0.31781502E+03</pdfrwt>
<pdfrwt beam="2">  1       21 0.26106988E-01 0.31781502E+03</pdfrwt>
<totfact> 0.15621245E+04</totfact>
</mgrwt>
</event>
<event>
 4    0  0.1390363E-001  0.2483491E+03  0.7546771E-02  0.1114353E+00
         21   -1    0    0  502  501  0.00000000000E+00  0.00000000000E+00  0.20061630926E+03  0.20061630926E+03  0.00000000000E+00 0.  1.
         21   -1    0    0  503  502 -0.00000000000E+00 -0.00000000000E+00 -0.45235643374E+03  0.45235643374E+03  0.00000000000E+00 0.  1.
         25    1    1    2    0    0  0.21456305495E+03 -0.38676575574E+01  0.77331967740E+02  0.26011054680E+03  0.12500000000E+03 0.  0.
         21    1    1    2  503  501 -0.21456305495E+03  0.38676575574E+01 -0.32907209222E+03  0.39286219620E+03  0.00000000000E+00 0.  1.
<mgrwt>
<rscale>  3 0.24834908E+03</rscale>
<asrwt>0</asrwt>
<pdfrwt beam="1">  1       21 0.30864048E-01 0.24834908E+03</pdfrwt>
<pdfrwt beam="2">  1       21 0.69593297E-01 0.24834908E+03</pdfrwt>
<totfact> 0.18340461E+04</totfact>
</mgrwt>
</event>
<event>
 4    0  0.1163882E-001  0.2806557E+03  0.7546771E-02  0.1095331E+00
         21   -1    0    0  502  501  0.00000000000E+00  0.00000000000E+00  0.32456423498E+03  0.32456423498E+03  0.00000000000E+00 0.  1.
         21   -1    0    0  503  502 -0.00000000000E+00 -0.00000000000E+00 -0.26335647794E+03  0.26335647794E+03  0.00000000000E+00 0.  1.
         25    1    1    2    0    0 -0.91583997513E+01  0.25111504280E+03 -0.89901326270E+02  0.29470305304E+03  0.12500000000E+03 0.  0.
         21    1    1    2  503  501  0.91583997513E+01 -0.25111504280E+03  0.15110908330E+03  0.29321765988E+03  0.00000000000E+00 0.  1.
<mgrwt>
<rscale>  3 0.28065573E+03</rscale>
<asrwt>0</asrwt>
<pdfrwt beam="1">  1       21 0.49932959E-01 0.28065573E+03</pdfrwt>
<pdfrwt beam="2">  1       21 0.40516382E-01 0.28065573E+03</pdfrwt>
<totfact> 0.21453106E+04</totfact>
</mgrwt>
</event>
<event>
 4    0  0.1376668E-001  0.2460147E+03  0.7546771E-02  0.1115850E+00
         21   -1    0    0  502  501  0.00000000000E+00  0.00000000000E+00  0.73035710526E+02  0.73035710526E+02  0.00000000000E+00 0.  1.
         21   -1    0    0  503  502 -0.00000000000E+00 -0.00000000000E+00 -0.78277922795E+03  0.78277922795E+03  0.00000000000E+00 0.  1.
         25    1    1    2    0    0  0.19370944485E+03 -0.85877034842E+02 -0.25607585371E+03  0.35510288226E+03  0.12500000000E+03 0.  0.
         21    1    1    2  503  501 -0.19370944485E+03  0.85877034842E+02 -0.45366766371E+03  0.50071205621E+03  0.00000000000E+00 0.  1.
<mgrwt>
<rscale>  3 0.24601466E+03</rscale>
<asrwt>0</asrwt>
<pdfrwt beam="1">  1       21 0.11236262E-01 0.24601466E+03</pdfrwt>
<pdfrwt beam="2">  1       21 0.12042758E+00 0.24601466E+03</pdfrwt>
<totfact> 0.33579618E+04</totfact>
</mgrwt>
</event>
<event>
 4    0  0.1377406E-001  0.2892237E+03  0.7546771E-02  0.1090755E+00
         21   -1    0    0  503  501  0.00000000000E+00  0.00000000000E+00  0.63999389125E+03  0.63999389125E+03  0.00000000000E+00 0.  1.
         21   -1    0    0  501  502 -0.00000000000E+00 -0.00000000000E+00 -0.16530314904E+03  0.16530314904E+03  0.00000000000E+00 0.  1.
         25    1    1    2    0    0 -0.21334304768E+03 -0.15003358347E+03  0.46088046816E+03  0.54411500448E+03  0.12500000000E+03 0.  0.
         21    1    1    2  503  502  0.21334304768E+03  0.15003358347E+03  0.13810274054E+02  0.26118203582E+03  0.00000000000E+00 0.  1.
<mgrwt>
<rscale>  3 0.28922367E+03</rscale>
<asrwt>0</asrwt>
<pdfrwt beam="1">  1       21 0.98460598E-01 0.28922367E+03</pdfrwt>
<pdfrwt beam="2">  1       21 0.25431254E-01 0.28922367E+03</pdfrwt>
<totfact> 0.11814790E+04</totfact>
</mgrwt>
</event>
<event>
 4    0  0.1003929E-001  0.3223534E+03  0.7546771E-02  0.1074571E+00
         21   -1    0    0  503  501  0.00000000000E+00  0.00000000000E+00  0.61668131056E+03  0.61668131056E+03  0.00000000000E+00 0.  1.
         21   -1    0    0  501  502 -0.00000000000E+00 -0.00000000000E+00 -0.60903401029E+03  0.60903401029E+03  0.00000000000E+00 0.  1.
         25    1    1    2    0    0  0.16404906437E+03  0.24773905936E+03  0.53257143119E+03  0.62253037386E+03  0.12500000000E+03 0.  0.
         21    1    1    2  503  502 -0.16404906437E+03 -0.24773905936E+03 -0.52492413092E+03  0.60318494699E+03  0.00000000000E+00 0.  1.
<mgrwt>
<rscale>  3 0.32235343E+03</rscale>
<asrwt>0</asrwt>
<pdfrwt beam="1">  1       21 0.94874048E-01 0.32235343E+03</pdfrwt>
<pdfrwt beam="2">  1       21 0.93697540E-01 0.32235343E+03</pdfrwt>
<totfact> 0.80163889E+02</totfact>
</mgrwt>
</event>
<event>
 4    0  0.1094928E-001  0.2612736E+03  0.7546771E-02  0.1106380E+00
         21   -1    0    0  502  501  0.00000000000E+00  0.00000000000E+00  0.37678746586E+03  0.37678746586E+03  0.00000000000E+00 0. -1.
         21   -1    0    0  503  502 -0.00000000000E+00 -0.00000000000E+00 -0.21309859419E+03  0.21309859419E+03  0.00000000000E+00 0. -1.
         25    1    1    2    0    0 -0.10339192470E+03  0.20481457508E+03 -0.61492081902E+02  0.26841232534E+03  0.12500000000E+03 0.  0.
         21    1    1    2  503  501  0.10339192470E+03 -0.20481457508E+03  0.22518095357E+03  0.32147373471E+03  0.00000000000E+00 0. -1.
<mgrwt>
<rscale>  3 0.26127361E+03</rscale>
<asrwt>0</asrwt>
<pdfrwt beam="1">  1       21 0.57967302E-01 0.26127361E+03</pdfrwt>
<pdfrwt beam="2">  1       21 0.32784399E-01 0.26127361E+03</pdfrwt>
<totfact> 0.24118531E+04</totfact>
</mgrwt>
</event>
<event>
 4    0  0.1232256E-001  0.2881725E+03  0.7546771E-02  0.1091307E+00
         21   -1    0    0  502  501  0.00000000000E+00  0.00000000000E+00  0.63738643238E+03  0.63738643238E+03  0.00000000000E+00 0.  1.
         21   -1    0    0  503  502 -0.00000000000E+00 -0.00000000000E+00 -0.12199700227E+03  0.12199700227E+03  0.00000000000E+00 0.  1.
         25    1    1    2    0    0  0.15394463761E+03 -0.20909198087E+03  0.19956730953E+03  0.35052891314E+03  0.12500000000E+03 0.  0.
         21    1    1    2  503  501 -0.15394463761E+03  0.20909198087E+03  0.31582212058E+03  0.40885452151E+03  0.00000000000E+00 0.  1.
<mgrwt>
<rscale>  3 0.28817253E+03</rscale>
<asrwt>0</asrwt>
<pdfrwt beam="1">  1       21 0.98059450E-01 0.28817253E+03</pdfrwt>
<pdfrwt beam="2">  1       21 0.18768770E-01 0.28817253E+03</pdfrwt>
<totfact> 0.21270208E+04</totfact>
</mgrwt>
</event>
<event>
 4    0  0.1265006E-001  0.2635521E+03  0.7546771E-02  0.1105028E+00
         21   -1    0    0  503  501  0.00000000000E+00  0.00000000000E+00  0.28166269287E+03  0.28166269287E+03  0.00000000000E+00 0.  1.
         21   -1    0    0  501  502 -0.00000000000E+00 -0.00000000000E+00 -0.37051958222E+03  0.37051958222E+03  0.00000000000E+00 0.  1.
         25    1    1    2    0    0  0.63086753006E+02  0.22328182776E+03  0.16288515894E+03  0.30982460847E+03  0.12500000000E+03 0.  0.
         21    1    1    2  503  502 -0.63086753006E+02 -0.22328182776E+03 -0.25174204830E+03  0.34235766662E+03  0.00000000000E+00 0.  1.
<mgrwt>
<rscale>  3 0.26355211E+03</rscale>
<asrwt>0</asrwt>
<pdfrwt beam="1">  1       21 0.43332722E-01 0.26355211E+03</pdfrwt>
<pdfrwt beam="2">  1       21 0.57003013E-01 0.26355211E+03</pdfrwt>
<totfact> 0.14219156E+04</totfact>
</mgrwt>
</event>
<event>
 4    0  0.1131245E-001  0.3270032E+03  0.7546771E-02  0.1072471E+00
         21   -1    0    0  503  501  0.00000000000E+00  0.00000000000E+00  0.56537548863E+03  0.56537548863E+03  0.00000000000E+00 0.  1.
         21   -1    0    0  501  502 -0.00000000000E+00 -0.00000000000E+00 -0.39225243262E+03  0.39225243262E+03  0.00000000000E+00 0.  1.
         25    1    1    2    0    0 -0.30066047800E+03  0.30155765324E+02  0.44426938112E+03  0.55163971595E+03  0.12500000000E+03 0.  0.
         21    1    1    2  503  502  0.30066047800E+03 -0.30155765324E+02 -0.27114632512E+03  0.40598820530E+03  0.00000000000E+00 0.  1.
<mgrwt>
<rscale>  3 0.32700320E+03</rscale>
<asrwt>0</asrwt>
<pdfrwt beam="1">  1       21 0.86980844E-01 0.32700320E+03</pdfrwt>
<pdfrwt beam="2">  1       21 0.60346528E-01 0.32700320E+03</pdfrwt>
<totfact> 0.26598223E+03</totfact>
</mgrwt>
</event>
<event>
 4    0  0.1003929E-001  0.2387224E+03  0.7546771E-02  0.1120647E+00
         21   -1    0    0  502  501  0.00000000000E+00  0.00000000000E+00  0.41121626175E+03  0.41121626175E+03  0.00000000000E+00 0. -1.
         21   -1    0    0  503  502 -0.00000000000E+00 -0.00000000000E+00 -0.99166574327E+03  0.99166574327E+03  0.00000000000E+00 0. -1.
         25    1    1    2    0    0 -0.12056222629E+03 -0.16379294871E+03  0.36481830634E+03  0.43598254219E+03  0.12500000000E+03 0.  0.
         21    1    1    2  503  501  0.12056222629E+03  0.16379294871E+03 -0.94526778786E+03  0.96689946283E+03  0.00000000000E+00 0. -1.
<mgrwt>
<rscale>  3 0.23872239E+03</rscale>
<asrwt>0</asrwt>
<pdfrwt beam="1">  1       21 0.63264041E-01 0.23872239E+03</pdfrwt>
<pdfrwt beam="2">  1       21 0.15256396E+00 0.23872239E+03</pdfrwt>
<totfact> 0.63045880E+02</totfact>
</mgrwt>
</event>
<event>
 4    0  0.1003929E-001  0.2369329E+03  0.7546771E-02  0.1121853E+00
         21   -1    0    0  503  501  0.00000000000E+00  0.00000000000E+00  0.17313699482E+04  0.17313699482E+04  0.00000000000E+00 0.  1.
         21   -1    0    0  501  502 -0.00000000000E+00 -0.00000000000E+00 -0.28191598204E+02  0.28191598204E+02  0.00000000000E+00 0.  1.
         25    1    1    2    0    0  0.98273999281E+02  0.17565420828E+03  0.10322348766E+04  0.10590779104E+04  0.12500000000E+03 0.  0.
         21    1    1    2  503  502 -0.98273999281E+02 -0.17565420828E+03  0.67094347344E+03  0.70048363605E+03  0.00000000000E+00 0.  1.
<mgrwt>
<rscale>  3 0.23693286E+03</rscale>
<asrwt>0</asrwt>
<pdfrwt beam="1">  1       21 0.26636452E+00 0.23693286E+03</pdfrwt>
<pdfrwt beam="2">  1       21 0.43371703E-02 0.23693286E+03</pdfrwt>
<totfact> 0.17573041E+04</totfact>
</mgrwt>
</event>
<event>
 4    0  0.1003929E-001  0.2526277E+03  0.7546771E-02  0.1111655E+00
         21   -1    0    0  502  501  0.00000000000E+00  0.00000000000E+00  0.63972225807E+02  0.63972225807E+02  0.00000000000E+00 0.  1.
         21   -1    0    0  503  502 -0.00000000000E+00 -0.00000000000E+00 -0.11799416572E+04  0.11799416572E+04  0.00000000000E+00 0. -1.
         25    1    1    2    0    0  0.21056286087E+03 -0.62121108513E+02 -0.26930591144E+03  0.36925116714E+03  0.12500000000E+03 0.  0.
         21    1    1    2  503  501 -0.21056286087E+03  0.62121108513E+02 -0.84666351992E+03  0.87466271583E+03  0.00000000000E+00 0. -1.
<mgrwt>
<rscale>  3 0.25262769E+03</rscale>
<asrwt>0</asrwt>
<pdfrwt beam="1">  1       21 0.98418810E-02 0.25262769E+03</pdfrwt>
<pdfrwt beam="2">  1       21 0.18152948E+00 0.25262769E+03</pdfrwt>
<totfact> 0.14229860E+04</totfact>
</mgrwt>
</event>
<event>
 4    0  0.1436432E-001  0.2941388E+03  0.7546771E-02  0.1088208E+00
         21   -1    0    0  502  501  0.00000000000E+00  0.00000000000E+00  0.11652877377E+04  0.11652877377E+04  0.00000000000E+00 0. -1.
         21   -1    0    0  503  502 -0.00000000000E+00 -0.00000000000E+00 -0.73307992636E+02  0.73307992636E+02  0.00000000000E+00 0. -1.
         25    1    1    2    0    0 -0.10050640327E+03  0.24655845003E+03  0.74694415511E+03  0.80277218265E+03  0.12500000000E+03 0.  0.
         21    1    1    2  503  501  0.10050640327E+03 -0.24655845003E+03  0.34503558993E+03  0.43582354766E+03  0.00000000000E+00 0. -1.
<mgrwt>
<rscale>  3 0.29413875E+03</rscale>
<asrwt>0</asrwt>
<pdfrwt beam="1">  1       21 0.17927502E+00 0.29413875E+03</pdfrwt>
<pdfrwt beam="2">  1       21 0.11278154E-01 0.29413875E+03</pdfrwt>
<totfact> 0.11295286E+04</totfact>
</mgrwt>
</event>
<event>
 4    0  0.1003929E-001  0.3335165E+03  0.7546771E-02  0.1069591E+00
         21   -1    0    0  503  501  0.00000000000E+00  0.00000000000E+00  0.22074066370E+04  0.22074066370E+04  0.00000000000E+00 0. -1.
         21   -1    0    0  501  502 -0.00000000000E+00 -0.00000000000E+00 -0.49675891358E+02  0.49675891358E+02  0.00000000000E+00 0. -1.
         25    1    1    2    0    0  0.20900376951E+03 -0.22787213764E+03  0.84522571074E+03  0.90864723016E+03  0.12500000000E+03 0.  0.
         21    1    1    2  503  502 -0.20900376951E+03  0.22787213764E+03  0.13125050349E+04  0.13484352982E+04  0.00000000000E+00 0. -1.
<mgrwt>
<rscale>  3 0.33351655E+03</rscale>
<asrwt>0</asrwt>
<pdfrwt beam="1">  1       21 0.33960094E+00 0.33351655E+03</pdfrwt>
<pdfrwt beam="2">  1       21 0.76424466E-02 0.33351655E+03</pdfrwt>
<totfact> 0.22738980E+03</totfact>
</mgrwt>
</event>
<event>
 4    0  0.1398277E-001  0.2582765E+03  0.7546771E-02  0.1108183E+00
         21   -1    0    0  503  501  0.00000000000E+00  0.00000000000E+00  0.17516174429E+03  0.17516174429E+03  0.00000000000E+00 0.  1.
         21   -1    0    0  501  502 -0.00000000000E+00 -0.00000000000E+00 -0.33499242915E+03  0.33499242915E+03  0.00000000000E+00 0.  1.
         25    1    1    2    0    0  0.66046206934E+02  0.21614728568E+03 -0.92192549929E+02  0.27423751898E+03  0.12500000000E+03 0.  0.
         21    1    1    2  503  502 -0.66046206934E+02 -0.21614728568E+03 -0.67638134931E+02  0.23591665446E+03  0.00000000000E+00 0.  1.
<mgrwt>
<rscale>  3 0.25827650E+03</rscale>
<asrwt>0</asrwt>
<pdfrwt beam="1">  1       21 0.26947961E-01 0.25827650E+03</pdfrwt>
<pdfrwt beam="2">  1       21 0.51537296E-01 0.25827650E+03</pdfrwt>
<totfact> 0.45561546E+04</totfact>
</mgrwt>
</event>
<event>
 4    0  0.1003929E-001  0.2888892E+03  0.7546771E-02  0.1090931E+00
         21   -1    0    0  502  501  0.00000000000E+00  0.00000000000E+00  0.23119362646E+03  0.23119362646E+03  0.00000000000E+00 0. -1.
         21   -1    0    0  503  502 -0.00000000000E+00 -0.00000000000E+00 -0.49891253399E+03  0.49891253399E+03  0.00000000000E+00 0. -1.
         25    1    1    2    0    0 -0.23694088625E+03 -0.10812486375E+03 -0.35291801919E+03  0.45607904799E+03  0.12500000000E+03 0.  0.
         21    1    1    2  503  501  0.23694088625E+03  0.10812486375E+03  0.85199111663E+02  0.27402711247E+03  0.00000000000E+00 0. -1.
<mgrwt>
<rscale>  3 0.28888920E+03</rscale>
<asrwt>0</asrwt>
<pdfrwt beam="1">  1       21 0.35568251E-01 0.28888920E+03</pdfrwt>
<pdfrwt beam="2">  1       21 0.76755773E-01 0.28888920E+03</pdfrwt>
<totfact> 0.10892436E+04</totfact>
</mgrwt>
</event>
<event>
 4    0  0.1003929E-001  0.2660816E+03  0.7546771E-02  0.1103543E+00
         21   -1    0    0  502  501  0.00000000000E+00  0.00000000000E+00  0.14582915746E+04  0.14582915746E+04  0.00000000000E+00 0.  1.
         21   -1    0    0  503  502 -0.00000000000E+00 -0.00000000000E+00 -0.13635499355E+03  0.13635499355E+03  0.00000000000E+00 0.  1.
         25    1    1    2    0    0 -0.11419101770E+02  0.23461460925E+03  0.13331914215E+04  0.13594847469E+04  0.12500000000E+03 0.  0.
         21    1    1    2  503  501  0.11419101770E+02 -0.23461460925E+03 -0.11254840393E+02  0.23516182128E+03  0.00000000000E+00 0.  1.
<mgrwt>
<rscale>  3 0.26608159E+03</rscale>
<asrwt>0</asrwt>
<pdfrwt beam="1">  1       21 0.22435254E+00 0.26608159E+03</pdfrwt>
<pdfrwt beam="2">  1       21 0.20977692E-01 0.26608159E+03</pdfrwt>
<totfact> 0.18639938E+03</totfact>
</mgrwt>
</event>
<event>
 4    0  0.1003929E-001  0.2713514E+03  0.7546771E-02  0.1100509E+00
         21   -1    0    0  503  501  0.00000000000E+00  0.00000000000E+00  0.43245601883E+04  0.43245601883E+04  0.00000000000E+00 0.  1.
         21   -1    0    0  501  502 -0.00000000000E+00 -0.00000000000E+00 -0.16208476311E+02  0.16208476311E+02  0.00000000000E+00 0.  1.
         25    1    1    2    0    0  0.19842292817E+02 -0.24002677093E+03  0.17247213150E+04  0.17459367634E+04  0.12500000000E+03 0.  0.
         21    1    1    2  503  502 -0.19842292817E+02  0.24002677093E+03  0.25836303969E+04  0.25948319012E+04  0.00000000000E+00 0.  1.
<mgrwt>
<rscale>  3 0.27135137E+03</rscale>
<asrwt>0</asrwt>
<pdfrwt beam="1">  1       21 0.66531604E+00 0.27135137E+03</pdfrwt>
<pdfrwt beam="2">  1       21 0.24936152E-02 0.27135137E+03</pdfrwt>
<totfact> 0.76954298E+01</totfact>
</mgrwt>
</event>
<event>
 4    0  0.1003929E-001  0.2802028E+03  0.7546771E-02  0.1095578E+00
         21   -1    0    0  502  501  0.00000000000E+00  0.00000000000E+00  0.27688656059E+03  0.27688656059E+03  0.00000000000E+00 0.  1.
         21   -1    0    0  503  502 -0.00000000000E+00 -0.00000000000E+00 -0.35647457407E+03  0.35647457407E+03  0.00000000000E+00 0.  1.
         25    1    1    2    0    0 -0.10107179687E+03  0.22950622219E+03 -0.21050856888E+03  0.35046750451E+03  0.12500000000E+03 0.  0.
         21    1    1    2  503  501  0.10107179687E+03 -0.22950622219E+03  0.13092055540E+03  0.28289363014E+03  0.00000000000E+00 0.  1.
<mgrwt>
<rscale>  3 0.28020281E+03</rscale>
<asrwt>0</asrwt>
<pdfrwt beam="1">  1       21 0.42597933E-01 0.28020281E+03</pdfrwt>
<pdfrwt beam="2">  1       21 0.54842242E-01 0.28020281E+03</pdfrwt>
<totfact> 0.15873559E+04</totfact>
</mgrwt>
</event>
<event>
 4    0  0.1005674E-001  0.3292165E+03  0.7546771E-02  0.1071484E+00
         21   -1    0    0  503  501  0.00000000000E+00  0.00000000000E+00  0.51822879242E+03  0.51822879242E+03  0.00000000000E+00 0.  1.
         21   -1    0    0  501  502 -0.00000000000E+00 -0.00000000000E+00 -0.24810559369E+03  0.24810559369E+03  0.00000000000E+00 0. -1.
         25    1    1    2    0    0  0.25667793899E+03  0.16393584502E+03  0.31836612424E+03  0.45797436032E+03  0.12500000000E+03 0.  0.
         21    1    1    2  503  502 -0.25667793899E+03 -0.16393584502E+03 -0.48242925503E+02  0.30836002580E+03  0.00000000000E+00 0. -1.
<mgrwt>
<rscale>  3 0.32921653E+03</rscale>
<asrwt>0</asrwt>
<pdfrwt beam="1">  1       21 0.79727506E-01 0.32921653E+03</pdfrwt>
<pdfrwt beam="2">  1       21 0.38170092E-01 0.32921653E+03</pdfrwt>
<totfact> 0.85078555E+03</totfact>
</mgrwt>
</event>
<event>
 4    0  0.1003929E-001  0.2685500E+03  0.7546771E-02  0.1102112E+00
         21   -1    0    0  503  501  0.00000000000E+00  0.00000000000E+00  0.80820043809E+03  0.80820043809E+03  0.00000000000E+00 0. -1.
         21   -1    0    0  501  502 -0.00000000000E+00 -0.00000000000E+00 -0.95974412696E+02  0.95974412696E+02  0.00000000000E+00 0.  1.
         25    1    1    2    0    0  0.21540349125E+03  0.10047595808E+03  0.56234863283E+03  0.62318140781E+03  0.12500000000E+03 0.  0.
         21    1    1    2  503  502 -0.21540349125E+03 -0.10047595808E+03  0.14987739256E+03  0.28099344297E+03  0.00000000000E+00 0.  1.
<mgrwt>
<rscale>  3 0.26854996E+03</rscale>
<asrwt>0</asrwt>
<pdfrwt beam="1">  1       21 0.12433852E+00 0.26854996E+03</pdfrwt>
<pdfrwt beam="2">  1       21 0.14765295E-01 0.26854996E+03</pdfrwt>
<totfact> 0.18691697E+04</totfact>
</mgrwt>
</event>
<event>
 4    0  0.1399568E-001  0.2848754E+03  0.7546771E-02  0.1093055E+00
         21   -1    0    0  502  501  0.00000000000E+00  0.00000000000E+00  0.12171635139E+03  0.12171635139E+03  0.00000000000E+00 0.  1.
         21   -1    0    0  503  502 -0.00000000000E+00 -0.00000000000E+00 -0.69298000480E+03  0.69298000480E+03  0.00000000000E+00 0.  1.
         25    1    1    2    0    0  0.21243262352E+03 -0.14283340521E+03 -0.15051380139E+03  0.32219311847E+03  0.12500000000E+03 0.  0.
         21    1    1    2  503  501 -0.21243262352E+03  0.14283340521E+03 -0.42074985203E+03  0.49250323772E+03  0.00000000000E+00 0.  1.
<mgrwt>
<rscale>  3 0.28487541E+03</rscale>
<asrwt>0</asrwt>
<pdfrwt beam="1">  1       21 0.18725593E-01 0.28487541E+03</pdfrwt>
<pdfrwt beam="2">  1       21 0.10661231E+00 0.28487541E+03</pdfrwt>
<totfact> 0.17481253E+04</totfact>
</mgrwt>
</event>
<event>
 4    0  0.1003929E-001  0.3537346E+03  0.7546771E-02  0.1061093E+00
         21   -1    0    0  502  501  0.00000000000E+00  0.00000000000E+00  0.57635916207E+03  0.57635916207E+03  0.00000000000E+00 0.  1.
         21   -1    0    0  503  502 -0.00000000000E+00 -0.00000000000E+00 -0.56789389689E+03  0.56789389689E+03  0.00000000000E+00 0.  1.
         25    1    1    2    0    0  0.12353032642E+03  0.30699097248E+03 -0.45403253846E+03  0.57556384938E+03  0.12500000000E+03 0.  0.
         21    1    1    2  503  501 -0.12353032642E+03 -0.30699097248E+03  0.46249780364E+03  0.56868920959E+03  0.00000000000E+00 0.  1.
<mgrwt>
<rscale>  3 0.35373464E+03</rscale>
<asrwt>0</asrwt>
<pdfrwt beam="1">  1       21 0.88670640E-01 0.35373464E+03</pdfrwt>
<pdfrwt beam="2">  1       21 0.87368292E-01 0.35373464E+03</pdfrwt>
<totfact> 0.10889580E+03</totfact>
</mgrwt>
</event>
<event>
 4    0  0.1739660E-001  0.2778690E+03  0.7546771E-02  0.1096859E+00
         21   -1    0    0  503  501  0.00000000000E+00  0.00000000000E+00  0.13224228477E+04  0.13224228477E+04  0.00000000000E+00 0.  1.
         21   -1    0    0  501  502 -0.00000000000E+00 -0.00000000000E+00 -0.33029046376E+03  0.33029046376E+03  0.00000000000E+00 0. -1.
         25    1    1    2    0    0  0.10696546770E+03 -0.22392978751E+03  0.12584092280E+04  0.12887222145E+04  0.12500000000E+03 0.  0.
         21    1    1    2  503  502 -0.10696546770E+03  0.22392978751E+03 -0.26627684404E+03  0.36399109699E+03  0.00000000000E+00 0. -1.
<mgrwt>
<rscale>  3 0.27786896E+03</rscale>
<asrwt>0</asrwt>
<pdfrwt beam="1">  1       21 0.20344967E+00 0.27786896E+03</pdfrwt>
<pdfrwt beam="2">  1       21 0.50813918E-01 0.27786896E+03</pdfrwt>
<totfact> 0.43044689E+02</totfact>
</mgrwt>
</event>
<event>
 4    0  0.1351127E-001  0.3031649E+03  0.7546771E-02  0.1083669E+00
         21   -1    0    0  502  501  0.00000000000E+00  0.00000000000E+00  0.18680567137E+03  0.18680567137E+03  0.00000000000E+00 0.  1.
         21   -1    0    0  503  502 -0.00000000000E+00 -0.00000000000E+00 -0.92106328782E+03  0.92106328782E+03  0.00000000000E+00 0. -1.
         25    1    1    2    0    0  0.60739509240E+02 -0.26943392836E+03  0.20803851815E+02  0.30387782081E+03  0.12500000000E+03 0.  0.
         21    1    1    2  503  501 -0.60739509240E+02  0.26943392836E+03 -0.75506146827E+03  0.80399113838E+03  0.00000000000E+00 0. -1.
<mgrwt>
<rscale>  3 0.30316486E+03</rscale>
<asrwt>0</asrwt>
<pdfrwt beam="1">  1       21 0.28739334E-01 0.30316486E+03</pdfrwt>
<pdfrwt beam="2">  1       21 0.14170204E+00 0.30316486E+03</pdfrwt>
<totfact> 0.37190192E+03</totfact>
</mgrwt>
</event>
<event>
 4    0  0.1203840E-001  0.2422017E+03  0.7546771E-02  0.1118335E+00
         21   -1    0    0  503  501  0.00000000000E+00  0.00000000000E+00  0.48065078544E+02  0.48065078544E+02  0.00000000000E+00 0.  1.
         21   -1    0    0  501  502 -0.00000000000E+00 -0.00000000000E+00 -0.11427815635E+04  0.11427815635E+04  0.00000000000E+00 0.  1.
         25    1    1    2    0    0  0.11344641070E+03  0.17368522625E+03 -0.41859689319E+03  0.48361658874E+03  0.12500000000E+03 0.  0.
         21    1    1    2  503  502 -0.11344641070E+03 -0.17368522625E+03 -0.67611959176E+03  0.70723005329E+03  0.00000000000E+00 0.  1.
<mgrwt>
<rscale>  3 0.24220166E+03</rscale>
<asrwt>0</asrwt>
<pdfrwt beam="1">  1       21 0.73946280E-02 0.24220166E+03</pdfrwt>
<pdfrwt beam="2">  1       21 0.17581254E+00 0.24220166E+03</pdfrwt>
<totfact> 0.25919306E+04</totfact>
</mgrwt>
</event>
<event>
 4    0  0.1172163E-001  0.2538661E+03  0.7546771E-02  0.1110886E+00
         21   -1    0    0  502  501  0.00000000000E+00  0.00000000000E+00  0.11665076979E+04  0.11665076979E+04  0.00000000000E+00 0.  1.
         21   -1    0    0  503  502 -0.00000000000E+00 -0.00000000000E+00 -0.54718162718E+02  0.54718162718E+02  0.00000000000E+00 0.  1.
         25    1    1    2    0    0 -0.68792666054E+02  0.20997756570E+03  0.79828216985E+03  0.83767680623E+03  0.12500000000E+03 0.  0.
         21    1    1    2  503  501  0.68792666054E+02 -0.20997756570E+03  0.31350736529E+03  0.38354905435E+03  0.00000000000E+00 0.  1.
<mgrwt>
<rscale>  3 0.25386612E+03</rscale>
<asrwt>0</asrwt>
<pdfrwt beam="1">  1       21 0.17946270E+00 0.25386612E+03</pdfrwt>
<pdfrwt beam="2">  1       21 0.84181798E-02 0.25386612E+03</pdfrwt>
<totfact> 0.19362447E+04</totfact>
</mgrwt>
</event>
<event>
 4    0  0.1409364E-001  0.3209584E+03  0.7546771E-02  0.1075209E+00
         21   -1    0    0  503  501  0.00000000000E+00  0.00000000000E+00  0.18337450978E+03  0.18337450978E+03  0.00000000000E+00 0.  1.
         21   -1    0    0  501  502 -0.00000000000E+00 -0.00000000000E+00 -0.59415341147E+03  0.59415341147E+03  0.00000000000E+00 0.  1.
         25    1    1    2    0    0 -0.27203814842E+03 -0.11569152501E+03 -0.73939715795E+02  0.32936509336E+03  0.12500000000E+03 0.  0.
         21    1    1    2  503  502  0.27203814842E+03  0.11569152501E+03 -0.33683918589E+03  0.44816282789E+03  0.00000000000E+00 0.  1.
<mgrwt>
<rscale>  3 0.32095838E+03</rscale>
<asrwt>0</asrwt>
<pdfrwt beam="1">  1       21 0.28211463E-01 0.32095838E+03</pdfrwt>
<pdfrwt beam="2">  1       21 0.91408217E-01 0.32095838E+03</pdfrwt>
<totfact> 0.11357306E+04</totfact>
</mgrwt>
</event>
<event>
 4    0  0.1332363E-001  0.2494664E+03  0.7546771E-02  0.1113643E+00
         21   -1    0    0  502  501  0.00000000000E+00  0.00000000000E+00  0.91615149277E+02  0.91615149277E+02  0.00000000000E+00 0.  1.
         21   -1    0    0  503  502 -0.00000000000E+00 -0.00000000000E+00 -0.92114320154E+03  0.92114320154E+03  0.00000000000E+00 0.  1.
         25    1    1    2    0    0 -0.53439011526E+02  0.20917155243E+03 -0.13128788515E+03  0.28190419487E+03  0.12500000000E+03 0.  0.
         21    1    1    2  503  501  0.53439011526E+02 -0.20917155243E+03 -0.69824016711E+03  0.73085415594E+03  0.00000000000E+00 0.  1.
<mgrwt>
<rscale>  3 0.24946636E+03</rscale>
<asrwt>0</asrwt>
<pdfrwt beam="1">  1       21 0.14094638E-01 0.24946636E+03</pdfrwt>
<pdfrwt beam="2">  1       21 0.14171434E+00 0.24946636E+03</pdfrwt>
<totfact> 0.14691211E+04</totfact>
</mgrwt>
</event>
<event>
 4    0  0.1192104E-001  0.2962603E+03  0.7546771E-02  0.1087125E+00
         21   -1    0    0  503  501  0.00000000000E+00  0.00000000000E+00  0.18917720913E+04  0.18917720913E+04  0.00000000000E+00 0. -1.
         21   -1    0    0  501  502 -0.00000000000E+00 -0.00000000000E+00 -0.48850962738E+02  0.48850962738E+02  0.00000000000E+00 0. -1.
         25    1    1    2    0    0 -0.12918741900E+03 -0.23549044952E+03  0.13190095929E+04  0.13518714611E+04  0.12500000000E+03 0.  0.
         21    1    1    2  503  502  0.12918741900E+03  0.23549044952E+03  0.52391153562E+03  0.58875159295E+03  0.00000000000E+00 0. -1.
<mgrwt>
<rscale>  3 0.29626026E+03</rscale>
<asrwt>0</asrwt>
<pdfrwt beam="1">  1       21 0.29104180E+00 0.29626026E+03</pdfrwt>
<pdfrwt beam="2">  1       21 0.75155342E-02 0.29626026E+03</pdfrwt>
<totfact> 0.46755686E+03</totfact>
</mgrwt>
</event>
<event>
 4    0  0.1599853E-001  0.2736675E+03  0.7546771E-02  0.1099199E+00
         21   -1    0    0  502  501  0.00000000000E+00  0.00000000000E+00  0.19112783468E+03  0.19112783468E+03  0.00000000000E+00 0.  1.
         21   -1    0    0  503  502 -0.00000000000E+00 -0.00000000000E+00 -0.35023591732E+03  0.35023591732E+03  0.00000000000E+00 0.  1.
         25    1    1    2    0    0 -0.22293643036E+03  0.97817484670E+02 -0.74473543247E+02  0.28361985285E+03  0.12500000000E+03 0.  0.
         21    1    1    2  503  501  0.22293643036E+03 -0.97817484670E+02 -0.84634539389E+02  0.25774389914E+03  0.00000000000E+00 0.  1.
<mgrwt>
<rscale>  3 0.27366752E+03</rscale>
<asrwt>0</asrwt>
<pdfrwt beam="1">  1       21 0.29404282E-01 0.27366752E+03</pdfrwt>
<pdfrwt beam="2">  1       21 0.53882449E-01 0.27366752E+03</pdfrwt>
<totfact> 0.34767492E+04</totfact>
</mgrwt>
</event>
<event>
 4    0  0.1283719E-001  0.2750310E+03  0.7546771E-02  0.1098434E+00
         21   -1    0    0  503  501  0.00000000000E+00  0.00000000000E+00  0.85506923678E+03  0.85506923678E+03  0.00000000000E+00 0. -1.
         21   -1    0    0  501  502 -0.00000000000E+00 -0.00000000000E+00 -0.14529675567E+03  0.14529675567E+03  0.00000000000E+00 0. -1.
         25    1    1    2    0    0  0.23066144484E+03 -0.82537087292E+02  0.70344635987E+03  0.75530050584E+03  0.12500000000E+03 0.  0.
         21    1    1    2  503  502 -0.23066144484E+03  0.82537087292E+02  0.63261212428E+01  0.24506548660E+03  0.00000000000E+00 0. -1.
<mgrwt>
<rscale>  3 0.27503104E+03</rscale>
<asrwt>0</asrwt>
<pdfrwt beam="1">  1       21 0.13154911E+00 0.27503104E+03</pdfrwt>
<pdfrwt beam="2">  1       21 0.22353348E-01 0.27503104E+03</pdfrwt>
<totfact> 0.74426844E+03</totfact>
</mgrwt>
</event>
<event>
 4    0  0.1003929E-001  0.3728303E+03  0.7546771E-02  0.1053616E+00
         21   -1    0    0  503  501  0.00000000000E+00  0.00000000000E+00  0.45476115886E+03  0.45476115886E+03  0.00000000000E+00 0.  1.
         21   -1    0    0  501  502 -0.00000000000E+00 -0.00000000000E+00 -0.88390077092E+03  0.88390077092E+03  0.00000000000E+00 0.  1.
         25    1    1    2    0    0  0.30775150189E+03 -0.16931160851E+03  0.33273567227E+03  0.49971535427E+03  0.12500000000E+03 0.  0.
         21    1    1    2  503  502 -0.30775150189E+03  0.16931160851E+03 -0.76187528433E+03  0.83894657551E+03  0.00000000000E+00 0.  1.
<mgrwt>
<rscale>  3 0.37283027E+03</rscale>
<asrwt>0</asrwt>
<pdfrwt beam="1">  1       21 0.69963256E-01 0.37283027E+03</pdfrwt>
<pdfrwt beam="2">  1       21 0.13598473E+00 0.37283027E+03</pdfrwt>
<totfact> 0.62287584E+02</totfact>
</mgrwt>
</event>
<event>
 4    0  0.1343741E-001  0.2450685E+03  0.7546771E-02  0.1116462E+00
         21   -1    0    0  502  501  0.00000000000E+00  0.00000000000E+00  0.26198314952E+03  0.26198314952E+03  0.00000000000E+00 0. -1.
         21   -1    0    0  503  502 -0.00000000000E+00 -0.00000000000E+00 -0.43498490217E+03  0.43498490217E+03  0.00000000000E+00 0. -1.
         25    1    1    2    0    0  0.25917960515E+02  0.20919333413E+03  0.16725822585E+03  0.29670508226E+03  0.12500000000E+03 0.  0.
         21    1    1    2  503  501 -0.25917960515E+02 -0.20919333413E+03 -0.34025997851E+03  0.40026296943E+03  0.00000000000E+00 0. -1.
<mgrwt>
<rscale>  3 0.24506854E+03</rscale>
<asrwt>0</asrwt>
<pdfrwt beam="1">  1       21 0.40305101E-01 0.24506854E+03</pdfrwt>
<pdfrwt beam="2">  1       21 0.66920753E-01 0.24506854E+03</pdfrwt>
<totfact> 0.11748689E+04</totfact>
</mgrwt>
</event>
<event>
 4    0  0.2123326E-001  0.2386074E+03  0.7546771E-02  0.1120724E+00
         21   -1    0    0  502  501  0.00000000000E+00  0.00000000000E+00  0.26486798692E+03  0.26486798692E+03  0.00000000000E+00 0.  1.
         21   -1    0    0  503  502 -0.00000000000E+00 -0.00000000000E+00 -0.10144974708E+04  0.10144974708E+04  0.00000000000E+00 0. -1.
         25    1    1    2    0    0 -0.13185128766E+03 -0.15467296870E+03  0.19807724772E+03  0.31010979567E+03  0.12500000000E+03 0.  0.
         21    1    1    2  503  501  0.13185128766E+03  0.15467296870E+03 -0.94770673163E+03  0.96925566209E+03  0.00000000000E+00 0. -1.
<mgrwt>
<rscale>  3 0.23860740E+03</rscale>
<asrwt>0</asrwt>
<pdfrwt beam="1">  1       21 0.40748921E-01 0.23860740E+03</pdfrwt>
<pdfrwt beam="2">  1       21 0.15607654E+00 0.23860740E+03</pdfrwt>
<totfact> 0.14963288E+03</totfact>
</mgrwt>
</event>
<event>
 4    0  0.1003929E-001  0.2532235E+03  0.7546771E-02  0.1111284E+00
         21   -1    0    0  503  501  0.00000000000E+00  0.00000000000E+00  0.10112337574E+04  0.10112337574E+04  0.00000000000E+00 0.  1.
         21   -1    0    0  501  502 -0.00000000000E+00 -0.00000000000E+00 -0.74836776175E+02  0.74836776175E+02  0.00000000000E+00 0. -1.
         25    1    1    2    0    0 -0.18633877920E+03  0.11736691610E+03  0.76850866350E+03  0.80915245752E+03  0.12500000000E+03 0.  0.
         21    1    1    2  503  502  0.18633877920E+03 -0.11736691610E+03  0.16788831777E+03  0.27691807610E+03  0.00000000000E+00 0. -1.
<mgrwt>
<rscale>  3 0.25322349E+03</rscale>
<asrwt>0</asrwt>
<pdfrwt beam="1">  1       21 0.15557441E+00 0.25322349E+03</pdfrwt>
<pdfrwt beam="2">  1       21 0.11513351E-01 0.25322349E+03</pdfrwt>
<totfact> 0.16502076E+04</totfact>
</mgrwt>
</event>
<event>
 4    0  0.1319053E-001  0.2467726E+03  0.7546771E-02  0.1115362E+00
         21   -1    0    0  502  501  0.00000000000E+00  0.00000000000E+00  0.58185069335E+02  0.58185069335E+02  0.00000000000E+00 0.  1.
         21   -1    0    0  503  502 -0.00000000000E+00 -0.00000000000E+00 -0.94827068678E+03  0.94827068678E+03  0.00000000000E+00 0.  1.
         25    1    1    2    0    0 -0.12676892367E+03  0.17088406924E+03 -0.37230930896E+03  0.44666648258E+03  0.12500000000E+03 0.  0.
         21    1    1    2  503  501  0.12676892367E+03 -0.17088406924E+03 -0.51777630849E+03  0.55978927354E+03  0.00000000000E+00 0.  1.
<mgrwt>
<rscale>  3 0.24677262E+03</rscale>
<asrwt>0</asrwt>
<pdfrwt beam="1">  1       21 0.89515497E-02 0.24677262E+03</pdfrwt>
<pdfrwt beam="2">  1       21 0.14588779E+00 0.24677262E+03</pdfrwt>
<totfact> 0.30747620E+04</totfact>
</mgrwt>
</event>
<event>
 4    0  0.1003929E-001  0.2602932E+03  0.7546771E-02  0.1106967E+00
         21   -1    0    0  503  501  0.00000000000E+00  0.00000000000E+00  0.22549284914E+04  0.22549284914E+04  0.00000000000E+00 0. -1.
         21   -1    0    0  501  502 -0.00000000000E+00 -0.00000000000E+00 -0.45898552147E+02  0.45898552147E+02  0.00000000000E+00 0.  1.
         25    1    1    2    0    0  0.21374373415E+03 -0.80256725658E+02  0.18937780473E+04  0.19115825429E+04  0.12500000000E+03 0.  0.
         21    1    1    2  503  502 -0.21374373415E+03  0.80256725658E+02  0.31525189198E+03  0.38924450067E+03  0.00000000000E+00 0.  1.
<mgrwt>
<rscale>  3 0.26029315E+03</rscale>
<asrwt>0</asrwt>
<pdfrwt beam="1">  1       21 0.34691199E+00 0.26029315E+03</pdfrwt>
<pdfrwt beam="2">  1       21 0.70613175E-02 0.26029315E+03</pdfrwt>
<totfact> 0.25133636E+03</totfact>
</mgrwt>
</event>
<event>
 4    0  0.1003929E-001  0.3397214E+03  0.7546771E-02  0.1066915E+00
         21   -1    0    0  503  501  0.00000000000E+00  0.00000000000E+00  0.18566441086E+04  0.18566441086E+04  0.00000000000E+00 0.  1.
         21   -1    0    0  501  502 -0.00000000000E+00 -0.00000000000E+00 -0.93178005454E+02  0.93178005454E+02  0.00000000000E+00 0.  1.
         25    1    1    2    0    0  0.30620707561E+03 -0.77607268014E+02  0.15014696640E+04  0.15394225583E+04  0.12500000000E+03 0.  0.
         21    1    1    2  503  502 -0.30620707561E+03  0.77607268014E+02  0.26199643914E+03  0.41039955571E+03  0.00000000000E+00 0.  1.
<mgrwt>
<rscale>  3 0.33972145E+03</rscale>
<asrwt>0</asrwt>
<pdfrwt beam="1">  1       21 0.28563753E+00 0.33972145E+03</pdfrwt>
<pdfrwt beam="2">  1       21 0.14335079E-01 0.33972145E+03</pdfrwt>
<totfact> 0.15337375E+03</totfact>
</mgrwt>
</event>
<event>
 4    0  0.1455758E-001  0.2648038E+03  0.7546771E-02  0.1104291E+00
         21   -1    0    0  503  501  0.00000000000E+00  0.00000000000E+00  0.37181510202E+03  0.37181510202E+03  0.00000000000E+00 0.  1.
         21   -1    0    0  501  502 -0.00000000000E+00 -0.00000000000E+00 -0.25461371628E+03  0.25461371628E+03  0.00000000000E+00 0.  1.
         25    1    1    2    0    0  0.15757084153E+03 -0.17224248667E+03  0.24459853154E+03  0.36048507035E+03  0.12500000000E+03 0.  0.
         21    1    1    2  503  502 -0.15757084153E+03  0.17224248667E+03 -0.12739714580E+03  0.26594374795E+03  0.00000000000E+00 0.  1.
<mgrwt>
<rscale>  3 0.26480378E+03</rscale>
<asrwt>0</asrwt>
<pdfrwt beam="1">  1       21 0.57202323E-01 0.26480378E+03</pdfrwt>
<pdfrwt beam="2">  1       21 0.39171341E-01 0.26480378E+03</pdfrwt>
<totfact> 0.17338116E+04</totfact>
</mgrwt>
</event>
<event>
 4    0  0.1003929E-001  0.3086845E+03  0.7546771E-02  0.1080978E+00
         21   -1    0    0  502  501  0.00000000000E+00  0.00000000000E+00  0.19387786887E+03  0.19387786887E+03  0.00000000000E+00 0.  1.
         21   -1    0    0  503  502 -0.00000000000E+00 -0.00000000000E+00 -0.27305580644E+04  0.27305580644E+04  0.00000000000E+00 0.  1.
         25    1    1    2    0    0  0.27691985643E+03  0.54557581679E+02  0.58308520214E+02  0.31414331146E+03  0.12500000000E+03 0.  0.
         21    1    1    2  503  501 -0.27691985643E+03 -0.54557581679E+02 -0.25949887157E+04  0.26102926218E+04  0.00000000000E+00 0.  1.
<mgrwt>
<rscale>  3 0.30868453E+03</rscale>
<asrwt>0</asrwt>
<pdfrwt beam="1">  1       21 0.29827366E-01 0.30868453E+03</pdfrwt>
<pdfrwt beam="2">  1       21 0.42008584E+00 0.30868453E+03</pdfrwt>
<totfact> 0.59199606E+01</totfact>
</mgrwt>
</event>
<event>
 4    0  0.1515637E-001  0.2686752E+03  0.7546771E-02  0.1102040E+00
         21   -1    0    0  503  501  0.00000000000E+00  0.00000000000E+00  0.13491004605E+03  0.13491004605E+03  0.00000000000E+00 0. -1.
         21   -1    0    0  501  502 -0.00000000000E+00 -0.00000000000E+00 -0.63970546642E+03  0.63970546642E+03  0.00000000000E+00 0. -1.
         25    1    1    2    0    0  0.11393810208E+03 -0.20875696067E+03 -0.67803963478E+02  0.27709878599E+03  0.12500000000E+03 0.  0.
         21    1    1    2  503  502 -0.11393810208E+03  0.20875696067E+03 -0.43699145688E+03  0.49751672648E+03  0.00000000000E+00 0. -1.
<mgrwt>
<rscale>  3 0.26867519E+03</rscale>
<asrwt>0</asrwt>
<pdfrwt beam="1">  1       21 0.20755392E-01 0.26867519E+03</pdfrwt>
<pdfrwt beam="2">  1       21 0.98416225E-01 0.26867519E+03</pdfrwt>
<totfact> 0.17602772E+04</totfact>
</mgrwt>
</event>
<event>
 4    0  0.1400062E-001  0.4032936E+03  0.7546771E-02  0.1042645E+00
         21   -1    0    0  503  501  0.00000000000E+00  0.00000000000E+00  0.10626773194E+04  0.10626773194E+04  0.00000000000E+00 0. -1.
         21   -1    0    0  501  502 -0.00000000000E+00 -0.00000000000E+00 -0.15178400967E+03  0.15178400967E+03  0.00000000000E+00 0. -1.
         25    1    1    2    0    0 -0.37154933746E+03  0.94719791162E+02  0.34402860903E+03  0.53009568272E+03  0.12500000000E+03 0.  0.
         21    1    1    2  503  502  0.37154933746E+03 -0.94719791162E+02  0.56686470072E+03  0.68436564636E+03  0.00000000000E+00 0. -1.
<mgrwt>
<rscale>  3 0.40329363E+03</rscale>
<asrwt>0</asrwt>
<pdfrwt beam="1">  1       21 0.16348881E+00 0.40329363E+03</pdfrwt>
<pdfrwt beam="2">  1       21 0.23351387E-01 0.40329363E+03</pdfrwt>
<totfact> 0.35994432E+03</totfact>
</mgrwt>
</event>
<event>
 4    0  0.1283711E-001  0.2873784E+03  0.7546771E-02  0.1091726E+00
         21   -1    0    0  502  501  0.00000000000E+00  0.00000000000E+00  0.13111123437E+04  0.13111123437E+04  0.00000000000E+00 0. -1.
         21   -1    0    0  503  502 -0.00000000000E+00 -0.00000000000E+00 -0.66948512975E+02  0.66948512975E+02  0.00000000000E+00 0. -1.
         25    1    1    2    0    0  0.71555157416E+02 -0.24867896564E+03  0.91673185631E+03  0.96072038850E+03  0.12500000000E+03 0.  0.
         21    1    1    2  503  501 -0.71555157416E+02  0.24867896564E+03  0.32743197440E+03  0.41734046816E+03  0.00000000000E+00 0. -1.
<mgrwt>
<rscale>  3 0.28737844E+03</rscale>
<asrwt>0</asrwt>
<pdfrwt beam="1">  1       21 0.20170957E+00 0.28737844E+03</pdfrwt>
<pdfrwt beam="2">  1       21 0.10299772E-01 0.28737844E+03</pdfrwt>
<totfact> 0.94284388E+03</totfact>
</mgrwt>
</event>
<event>
 4    0  0.1488774E-001  0.2722662E+03  0.7546771E-02  0.1099990E+00
         21   -1    0    0  502  501  0.00000000000E+00  0.00000000000E+00  0.23038797547E+03  0.23038797547E+03  0.00000000000E+00 0. -1.
         21   -1    0    0  503  502 -0.00000000000E+00 -0.00000000000E+00 -0.53328845149E+03  0.53328845149E+03  0.00000000000E+00 0.  1.
         25    1    1    2    0    0  0.22324165985E+03 -0.93097095473E+02  0.10306236101E+03  0.29111983466E+03  0.12500000000E+03 0.  0.
         21    1    1    2  503  501 -0.22324165985E+03  0.93097095473E+02 -0.40596283703E+03  0.47255659230E+03  0.00000000000E+00 0.  1.
<mgrwt>
<rscale>  3 0.27226624E+03</rscale>
<asrwt>0</asrwt>
<pdfrwt beam="1">  1       21 0.35444305E-01 0.27226624E+03</pdfrwt>
<pdfrwt beam="2">  1       21 0.82044376E-01 0.27226624E+03</pdfrwt>
<totfact> 0.95000164E+03</totfact>
</mgrwt>
</event>
<event>
 4    0  0.1003929E-001  0.2838815E+03  0.7546771E-02  0.1093588E+00
         21   -1    0    0  502  501  0.00000000000E+00  0.00000000000E+00  0.34277291118E+03  0.34277291118E+03  0.00000000000E+00 0.  1.
         21   -1    0    0  503  502 -0.00000000000E+00 -0.00000000000E+00 -0.25986557323E+03  0.25986557323E+03  0.00000000000E+00 0. -1.
         25    1    1    2    0    0  0.24829373139E+03 -0.57566734684E+02  0.17283895526E+03  0.33235825617E+03  0.12500000000E+03 0.  0.
         21    1    1    2  503  501 -0.24829373139E+03  0.57566734684E+02 -0.89931617298E+02  0.27028022824E+03  0.00000000000E+00 0. -1.
<mgrwt>
<rscale>  3 0.28388150E+03</rscale>
<asrwt>0</asrwt>
<pdfrwt beam="1">  1       21 0.52734294E-01 0.28388150E+03</pdfrwt>
<pdfrwt beam="2">  1       21 0.39979319E-01 0.28388150E+03</pdfrwt>
<totfact> 0.19617354E+04</totfact>
</mgrwt>
</event>
<event>
 4    0  0.1517759E-001  0.3314733E+03  0.7546771E-02  0.1070487E+00
         21   -1    0    0  502  501  0.00000000000E+00  0.00000000000E+00  0.74154780957E+03  0.74154780957E+03  0.00000000000E+00 0. -1.
         21   -1    0    0  503  502 -0.00000000000E+00 -0.00000000000E+00 -0.13771156772E+03  0.13771156772E+03  0.00000000000E+00 0. -1.
         25    1    1    2    0    0 -0.21811916285E+03 -0.21604072220E+03  0.29367042588E+03  0.44285085739E+03  0.12500000000E+03 0.  0.
         21    1    1    2  503  501  0.21811916285E+03  0.21604072220E+03  0.31016581597E+03  0.43640851990E+03  0.00000000000E+00 0. -1.
<mgrwt>
<rscale>  3 0.33147332E+03</rscale>
<asrwt>0</asrwt>
<pdfrwt beam="1">  1       21 0.11408428E+00 0.33147332E+03</pdfrwt>
<pdfrwt beam="2">  1       21 0.21186396E-01 0.33147332E+03</pdfrwt>
<totfact> 0.11492218E+04</totfact>
</mgrwt>
</event>
<event>
 4    0  0.1003929E-001  0.2519712E+03  0.7546771E-02  0.1112065E+00
         21   -1    0    0  502  501  0.00000000000E+00  0.00000000000E+00  0.80891337322E+03  0.80891337322E+03  0.00000000000E+00 0. -1.
         21   -1    0    0  503  502 -0.00000000000E+00 -0.00000000000E+00 -0.78107729830E+02  0.78107729830E+02  0.00000000000E+00 0. -1.
         25    1    1    2    0    0  0.21536058504E+03  0.38526951957E+02  0.23269456145E+03  0.34298143761E+03  0.12500000000E+03 0.  0.
         21    1    1    2  503  501 -0.21536058504E+03 -0.38526951957E+02  0.49811108194E+03  0.54403966544E+03  0.00000000000E+00 0. -1.
<mgrwt>
<rscale>  3 0.25197124E+03</rscale>
<asrwt>0</asrwt>
<pdfrwt beam="1">  1       21 0.12444821E+00 0.25197124E+03</pdfrwt>
<pdfrwt beam="2">  1       21 0.12016574E-01 0.25197124E+03</pdfrwt>
<totfact> 0.27330819E+04</totfact>
</mgrwt>
</event>
<event>
 4    0  0.1003929E-001  0.5886082E+03  0.7546771E-02  0.9929326E-01
         21   -1    0    0  502  501  0.00000000000E+00  0.00000000000E+00  0.74106144135E+03  0.74106144135E+03  0.00000000000E+00 0. -1.
         21   -1    0    0  503  502 -0.00000000000E+00 -0.00000000000E+00 -0.10761443945E+04  0.10761443945E+04  0.00000000000E+00 0. -1.
         25    1    1    2    0    0 -0.56918238142E+03  0.82861169288E+02  0.52084920660E+03  0.78596657226E+03  0.12500000000E+03 0.  0.
         21    1    1    2  503  501  0.56918238142E+03 -0.82861169288E+02 -0.85593215974E+03  0.10312392636E+04  0.00000000000E+00 0. -1.
<mgrwt>
<rscale>  3 0.58860815E+03</rscale>
<asrwt>0</asrwt>
<pdfrwt beam="1">  1       21 0.11400945E+00 0.58860815E+03</pdfrwt>
<pdfrwt beam="2">  1       21 0.16556068E+00 0.58860815E+03</pdfrwt>
<totfact> 0.10318763E+02</totfact>
</mgrwt>
</event>
<event>
 4    0  0.1371277E-001  0.2375141E+03  0.7546771E-02  0.1121460E+00
         21   -1    0    0  503  501  0.00000000000E+00  0.00000000000E+00  0.10877775396E+03  0.10877775396E+03  0.00000000000E+00 0. -1.
         21   -1    0    0  501  502 -0.00000000000E+00 -0.00000000000E+00 -0.63701760327E+03  0.63701760327E+03  0.00000000000E+00 0. -1.
         25    1    1    2    0    0  0.14796902830E+03  0.13745215908E+03 -0.74150873423E+02  0.24881977695E+03  0.12500000000E+03 0.  0.
         21    1    1    2  503  502 -0.14796902830E+03 -0.13745215908E+03 -0.45408897589E+03  0.49697558028E+03  0.00000000000E+00 0. -1.
<mgrwt>
<rscale>  3 0.23751406E+03</rscale>
<asrwt>0</asrwt>
<pdfrwt beam="1">  1       21 0.16735039E-01 0.23751406E+03</pdfrwt>
<pdfrwt beam="2">  1       21 0.98002708E-01 0.23751406E+03</pdfrwt>
<totfact> 0.26980299E+04</totfact>
</mgrwt>
</event>
<event>
 4    0  0.1319925E-001  0.2950139E+03  0.7546771E-02  0.1087760E+00
         21   -1    0    0  502  501  0.00000000000E+00  0.00000000000E+00  0.68228966455E+03  0.68228966455E+03  0.00000000000E+00 0. -1.
         21   -1    0    0  503  502 -0.00000000000E+00 -0.00000000000E+00 -0.18613585144E+03  0.18613585144E+03  0.00000000000E+00 0. -1.
         25    1    1    2    0    0  0.18370613125E+03 -0.19406248590E+03  0.52236982864E+03  0.59991951874E+03  0.12500000000E+03 0.  0.
         21    1    1    2  503  501 -0.18370613125E+03  0.19406248590E+03 -0.26216015527E+02  0.26850599725E+03  0.00000000000E+00 0. -1.
<mgrwt>
<rscale>  3 0.29501388E+03</rscale>
<asrwt>0</asrwt>
<pdfrwt beam="1">  1       21 0.10496764E+00 0.29501388E+03</pdfrwt>
<pdfrwt beam="2">  1       21 0.28636285E-01 0.29501388E+03</pdfrwt>
<totfact> 0.80156048E+03</totfact>
</mgrwt>
</event>
<event>
 4    0  0.1253523E-001  0.2408355E+03  0.7546771E-02  0.1119237E+00
         21   -1    0    0  503  501  0.00000000000E+00  0.00000000000E+00  0.57380383154E+02  0.57380383154E+02  0.00000000000E+00 0.  1.
         21   -1    0    0  501  502 -0.00000000000E+00 -0.00000000000E+00 -0.87300310162E+03  0.87300310162E+03  0.00000000000E+00 0.  1.
         25    1    1    2    0    0  0.17552045522E+03 -0.10756082544E+03 -0.40959317107E+03  0.47515084674E+03  0.12500000000E+03 0.  0.
         21    1    1    2  503  502 -0.17552045522E+03  0.10756082544E+03 -0.40602954740E+03  0.45523263803E+03  0.00000000000E+00 0.  1.
<mgrwt>
<rscale>  3 0.24083555E+03</rscale>
<asrwt>0</asrwt>
<pdfrwt beam="1">  1       21 0.88277516E-02 0.24083555E+03</pdfrwt>
<pdfrwt beam="2">  1       21 0.13430816E+00 0.24083555E+03</pdfrwt>
<totfact> 0.39194973E+04</totfact>
</mgrwt>
</event>
<event>
 4    0  0.1470886E-001  0.3111639E+03  0.7546771E-02  0.1079789E+00
         21   -1    0    0  503  501  0.00000000000E+00  0.00000000000E+00  0.29434163639E+03  0.29434163639E+03  0.00000000000E+00 0. -1.
         21   -1    0    0  501  502 -0.00000000000E+00 -0.00000000000E+00 -0.64286592747E+03  0.64286592747E+03  0.00000000000E+00 0.  1.
         25    1    1    2    0    0  0.16766148380E+03 -0.23040753049E+03  0.16329691900E+03  0.35140985617E+03  0.12500000000E+03 0.  0.
         21    1    1    2  503  502 -0.16766148380E+03  0.23040753049E+03 -0.51182121008E+03  0.58579770770E+03  0.00000000000E+00 0.  1.
<mgrwt>
<rscale>  3 0.31116395E+03</rscale>
<asrwt>0</asrwt>
<pdfrwt beam="1">  1       21 0.45283328E-01 0.31116395E+03</pdfrwt>
<pdfrwt beam="2">  1       21 0.98902451E-01 0.31116395E+03</pdfrwt>
<totfact> 0.36456065E+03</totfact>
</mgrwt>
</event>
<event>
 4    0  0.1260927E-001  0.2714373E+03  0.7546771E-02  0.1100460E+00
         21   -1    0    0  503  501  0.00000000000E+00  0.00000000000E+00  0.78417737627E+02  0.78417737627E+02  0.00000000000E+00 0. -1.
         21   -1    0    0  501  502 -0.00000000000E+00 -0.00000000000E+00 -0.12634582275E+04  0.12634582275E+04  0.00000000000E+00 0. -1.
         25    1    1    2    0    0 -0.52799759580E+01 -0.24088450445E+03 -0.22652611908E+03  0.35354250841E+03  0.12500000000E+03 0.  0.
         21    1    1    2  503  502  0.52799759580E+01  0.24088450445E+03 -0.95851437077E+03  0.98833345668E+03  0.00000000000E+00 0. -1.
<mgrwt>
<rscale>  3 0.27143733E+03</rscale>
<asrwt>0</asrwt>
<pdfrwt beam="1">  1       21 0.12064268E-01 0.27143733E+03</pdfrwt>
<pdfrwt beam="2">  1       21 0.19437818E+00 0.27143733E+03</pdfrwt>
<totfact> 0.80076961E+03</totfact>
</mgrwt>
</event>
<event>
 4    0  0.1003929E-001  0.2818857E+03  0.7546771E-02  0.1094663E+00
         21   -1    0    0  502  501  0.00000000000E+00  0.00000000000E+00  0.54152212569E+03  0.54152212569E+03  0.00000000000E+00 0.  1.
         21   -1    0    0  503  502 -0.00000000000E+00 -0.00000000000E+00 -0.13396720737E+03  0.13396720737E+03  0.00000000000E+00 0. -1.
         25    1    1    2    0    0  0.70113849672E+02 -0.24273150977E+03  0.25651798432E+03  0.38113122941E+03  0.12500000000E+03 0.  0.
         21    1    1    2  503  501 -0.70113849672E+02  0.24273150977E+03  0.15103693400E+03  0.29435810365E+03  0.00000000000E+00 0. -1.
<mgrwt>
<rscale>  3 0.28188568E+03</rscale>
<asrwt>0</asrwt>
<pdfrwt beam="1">  1       21 0.83311095E-01 0.28188568E+03</pdfrwt>
<pdfrwt beam="2">  1       21 0.20610340E-01 0.28188568E+03</pdfrwt>
<totfact> 0.26196002E+04</totfact>
</mgrwt>
</event>
<event>
 4    0  0.1311700E-001  0.2415930E+03  0.7546771E-02  0.1118736E+00
         21   -1    0    0  503  501  0.00000000000E+00  0.00000000000E+00  0.14593932312E+03  0.14593932312E+03  0.00000000000E+00 0.  1.
         21   -1    0    0  501  502 -0.00000000000E+00 -0.00000000000E+00 -0.52247748463E+03  0.52247748463E+03  0.00000000000E+00 0.  1.
         25    1    1    2    0    0 -0.87687228701E+02  0.18722482133E+03 -0.31498367825E+01  0.24161354530E+03  0.12500000000E+03 0.  0.
         21    1    1    2  503  502  0.87687228701E+02 -0.18722482133E+03 -0.37338832473E+03  0.42680326246E+03  0.00000000000E+00 0.  1.
<mgrwt>
<rscale>  3 0.24159301E+03</rscale>
<asrwt>0</asrwt>
<pdfrwt beam="1">  1       21 0.22452204E-01 0.24159301E+03</pdfrwt>
<pdfrwt beam="2">  1       21 0.80381151E-01 0.24159301E+03</pdfrwt>
<totfact> 0.24615850E+04</totfact>
</mgrwt>
</event>
<event>
 4    0  0.1003929E-001  0.3272969E+03  0.7546771E-02  0.1072339E+00
         21   -1    0    0  503  501  0.00000000000E+00  0.00000000000E+00  0.22670308609E+03  0.22670308609E+03  0.00000000000E+00 0.  1.
         21   -1    0    0  501  502 -0.00000000000E+00 -0.00000000000E+00 -0.15226311788E+04  0.15226311788E+04  0.00000000000E+00 0.  1.
         25    1    1    2    0    0  0.23697505895E+03  0.18799230421E+03  0.82968590268E+02  0.33764933286E+03  0.12500000000E+03 0.  0.
         21    1    1    2  503  502 -0.23697505895E+03 -0.18799230421E+03 -0.13788966830E+04  0.14116849320E+04  0.00000000000E+00 0.  1.
<mgrwt>
<rscale>  3 0.32729694E+03</rscale>
<asrwt>0</asrwt>
<pdfrwt beam="1">  1       21 0.34877397E-01 0.32729694E+03</pdfrwt>
<pdfrwt beam="2">  1       21 0.23425096E+00 0.32729694E+03</pdfrwt>
<totfact> 0.57441694E+02</totfact>
</mgrwt>
</event>
<event>
 4    0  0.1235253E-001  0.2618553E+03  0.7546771E-02  0.1106034E+00
         21   -1    0    0  502  501  0.00000000000E+00  0.00000000000E+00  0.51479307820E+02  0.51479307820E+02  0.00000000000E+00 0.  1.
         21   -1    0    0  503  502 -0.00000000000E+00 -0.00000000000E+00 -0.12086651396E+04  0.12086651396E+04  0.00000000000E+00 0.  1.
         25    1    1    2    0    0  0.22227359649E+03 -0.59477911739E+02 -0.51043983483E+03  0.57368719583E+03  0.12500000000E+03 0.  0.
         21    1    1    2  503  501 -0.22227359649E+03  0.59477911739E+02 -0.64674599693E+03  0.68645725156E+03  0.00000000000E+00 0.  1.
<mgrwt>
<rscale>  3 0.26185525E+03</rscale>
<asrwt>0</asrwt>
<pdfrwt beam="1">  1       21 0.79198936E-02 0.26185525E+03</pdfrwt>
<pdfrwt beam="2">  1       21 0.18594848E+00 0.26185525E+03</pdfrwt>
<totfact> 0.19372207E+04</totfact>
</mgrwt>
</event>
<event>
 4    0  0.1288643E-001  0.2825139E+03  0.7546771E-02  0.1094324E+00
         21   -1    0    0  503  501  0.00000000000E+00  0.00000000000E+00  0.30384856268E+03  0.30384856268E+03  0.00000000000E+00 0. -1.
         21   -1    0    0  501  502 -0.00000000000E+00 -0.00000000000E+00 -0.47556936140E+03  0.47556936140E+03  0.00000000000E+00 0. -1.
         25    1    1    2    0    0  0.33006343558E+02 -0.25119646683E+03  0.18805971214E+03  0.33938258499E+03  0.12500000000E+03 0.  0.
         21    1    1    2  503  502 -0.33006343558E+02  0.25119646683E+03 -0.35978051085E+03  0.44003533910E+03  0.00000000000E+00 0. -1.
<mgrwt>
<rscale>  3 0.28251386E+03</rscale>
<asrwt>0</asrwt>
<pdfrwt beam="1">  1       21 0.46745933E-01 0.28251386E+03</pdfrwt>
<pdfrwt beam="2">  1       21 0.73164517E-01 0.28251386E+03</pdfrwt>
<totfact> 0.69611563E+03</totfact>
</mgrwt>
</event>
<event>
 4    0  0.1003929E-001  0.2515498E+03  0.7546771E-02  0.1112329E+00
         21   -1    0    0  503  501  0.00000000000E+00  0.00000000000E+00  0.60277360330E+03  0.60277360330E+03  0.00000000000E+00 0.  1.
         21   -1    0    0  501  502 -0.00000000000E+00 -0.00000000000E+00 -0.10169380339E+03  0.10169380339E+03  0.00000000000E+00 0. -1.
         25    1    1    2    0    0 -0.17587273418E+03 -0.12931003346E+03  0.37746046386E+03  0.45360082138E+03  0.12500000000E+03 0.  0.
         21    1    1    2  503  502  0.17587273418E+03  0.12931003346E+03  0.12361933605E+03  0.25086658531E+03  0.00000000000E+00 0. -1.
<mgrwt>
<rscale>  3 0.25154980E+03</rscale>
<asrwt>0</asrwt>
<pdfrwt beam="1">  1       21 0.92734399E-01 0.25154980E+03</pdfrwt>
<pdfrwt beam="2">  1       21 0.15645201E-01 0.25154980E+03</pdfrwt>
<totfact> 0.34570843E+04</totfact>
</mgrwt>
</event>
<event>
 4    0  0.1775483E-001  0.2740772E+03  0.7546771E-02  0.1098969E+00
         21   -1    0    0  502  501  0.00000000000E+00  0.00000000000E+00  0.92998286431E+03  0.92998286431E+03  0.00000000000E+00 0. -1.
         21   -1    0    0  503  502 -0.00000000000E+00 -0.00000000000E+00 -0.14813997237E+04  0.14813997237E+04  0.00000000000E+00 0.  1.
         25    1    1    2    0    0 -0.23425051113E+03  0.67970457030E+02  0.89938555044E+03  0.94021947083E+03  0.12500000000E+03 0.  0.
         21    1    1    2  503  501  0.23425051113E+03 -0.67970457030E+02 -0.14508024098E+04  0.14711631172E+04  0.00000000000E+00 0.  1.
<mgrwt>
<rscale>  3 0.27407715E+03</rscale>
<asrwt>0</asrwt>
<pdfrwt beam="1">  1       21 0.14307429E+00 0.27407715E+03</pdfrwt>
<pdfrwt beam="2">  1       21 0.22790765E+00 0.27407715E+03</pdfrwt>
<totfact> 0.27130240E+01</totfact>
</mgrwt>
</event>
<event>
 4    0  0.1952835E-001  0.2584242E+03  0.7546771E-02  0.1108094E+00
         21   -1    0    0  502  501  0.00000000000E+00  0.00000000000E+00  0.37366710871E+03  0.37366710871E+03  0.00000000000E+00 0. -1.
         21   -1    0    0  503  502 -0.00000000000E+00 -0.00000000000E+00 -0.10693116714E+04  0.10693116714E+04  0.00000000000E+00 0.  1.
         25    1    1    2    0    0 -0.13832531940E+03  0.17895295846E+03  0.31493879569E+03  0.40739354482E+03  0.12500000000E+03 0.  0.
         21    1    1    2  503  501  0.13832531940E+03 -0.17895295846E+03 -0.10105833584E+04  0.10355852353E+04  0.00000000000E+00 0.  1.
<mgrwt>
<rscale>  3 0.25842418E+03</rscale>
<asrwt>0</asrwt>
<pdfrwt beam="1">  1       21 0.57487248E-01 0.25842418E+03</pdfrwt>
<pdfrwt beam="2">  1       21 0.16450949E+00 0.25842418E+03</pdfrwt>
<totfact> 0.62130132E+02</totfact>
</mgrwt>
</event>
<event>
 4    0  0.1631487E-001  0.2451523E+03  0.7546771E-02  0.1116407E+00
         21   -1    0    0  503  501  0.00000000000E+00  0.00000000000E+00  0.11910982290E+03  0.11910982290E+03  0.00000000000E+00 0. -1.
         21   -1    0    0  501  502 -0.00000000000E+00 -0.00000000000E+00 -0.47926578392E+03  0.47926578392E+03  0.00000000000E+00 0. -1.
         25    1    1    2    0    0  0.13892868100E+03 -0.15866147826E+03 -0.10327747568E+03  0.26601857091E+03  0.12500000000E+03 0.  0.
         21    1    1    2  503  502 -0.13892868100E+03  0.15866147826E+03 -0.25687848534E+03  0.33235703591E+03  0.00000000000E+00 0. -1.
<mgrwt>
<rscale>  3 0.24515229E+03</rscale>
<asrwt>0</asrwt>
<pdfrwt beam="1">  1       21 0.18324588E-01 0.24515229E+03</pdfrwt>
<pdfrwt beam="2">  1       21 0.73733199E-01 0.24515229E+03</pdfrwt>
<totfact> 0.43761402E+04</totfact>
</mgrwt>
</event>
<event>
 4    0  0.1551986E-001  0.2557408E+03  0.7546771E-02  0.1109730E+00
         21   -1    0    0  503  501  0.00000000000E+00  0.00000000000E+00  0.32031623367E+03  0.32031623367E+03  0.00000000000E+00 0. -1.
         21   -1    0    0  501  502 -0.00000000000E+00 -0.00000000000E+00 -0.21333822394E+03  0.21333822394E+03  0.00000000000E+00 0. -1.
         25    1    1    2    0    0  0.18793917251E+02  0.22231770422E+03  0.16344525616E+03  0.30350901913E+03  0.12500000000E+03 0.  0.
         21    1    1    2  503  502 -0.18793917251E+02 -0.22231770422E+03 -0.56467246432E+02  0.23014543848E+03  0.00000000000E+00 0. -1.
<mgrwt>
<rscale>  3 0.25574083E+03</rscale>
<asrwt>0</asrwt>
<pdfrwt beam="1">  1       21 0.49279420E-01 0.25574083E+03</pdfrwt>
<pdfrwt beam="2">  1       21 0.32821265E-01 0.25574083E+03</pdfrwt>
<totfact> 0.34045846E+04</totfact>
</mgrwt>
</event>
<event>
 4    0  0.1003929E-001  0.2868556E+03  0.7546771E-02  0.1092002E+00
         21   -1    0    0  503  501  0.00000000000E+00  0.00000000000E+00  0.15541207679E+03  0.15541207679E+03  0.00000000000E+00 0.  1.
         21   -1    0    0  501  502 -0.00000000000E+00 -0.00000000000E+00 -0.56104929020E+03  0.56104929020E+03  0.00000000000E+00 0. -1.
         25    1    1    2    0    0 -0.25537980421E+03  0.37977195721E+02 -0.74141258533E+02  0.29628202445E+03  0.12500000000E+03 0.  0.
         21    1    1    2  503  502  0.25537980421E+03 -0.37977195721E+02 -0.33149595488E+03  0.42017934254E+03  0.00000000000E+00 0. -1.
<mgrwt>
<rscale>  3 0.28685556E+03</rscale>
<asrwt>0</asrwt>
<pdfrwt beam="1">  1       21 0.23909550E-01 0.28685556E+03</pdfrwt>
<pdfrwt beam="2">  1       21 0.86315276E-01 0.28685556E+03</pdfrwt>
<totfact> 0.18155165E+04</totfact>
</mgrwt>
</event>
<event>
 4    0  0.1003929E-001  0.3487994E+03  0.7546771E-02  0.1063109E+00
         21   -1    0    0  502  501  0.00000000000E+00  0.00000000000E+00  0.11843343429E+03  0.11843343429E+03  0.00000000000E+00 0.  1.
         21   -1    0    0  503  502 -0.00000000000E+00 -0.00000000000E+00 -0.10052331462E+04  0.10052331462E+04  0.00000000000E+00 0. -1.
         25    1    1    2    0    0 -0.13215673541E+03 -0.29760819046E+03 -0.57685767172E+03  0.67411112672E+03  0.12500000000E+03 0.  0.
         21    1    1    2  503  501  0.13215673541E+03  0.29760819046E+03 -0.30994204023E+03  0.44955545381E+03  0.00000000000E+00 0. -1.
<mgrwt>
<rscale>  3 0.34879942E+03</rscale>
<asrwt>0</asrwt>
<pdfrwt beam="1">  1       21 0.18220528E-01 0.34879942E+03</pdfrwt>
<pdfrwt beam="2">  1       21 0.15465126E+00 0.34879942E+03</pdfrwt>
<totfact> 0.68892454E+03</totfact>
</mgrwt>
</event>
