<LesHouchesEvents version="3.0">
  <!--
  <scalesfunctionalform>
    muR  H_T/2 := sum_i mT(i)/2, i=final state
    muF1 H_T/2 := sum_i mT(i)/2, i=final state
    muF2 H_T/2 := sum_i mT(i)/2, i=final state
    QES  H_T/2 := sum_i mT(i)/2, i=final state
  </scalesfunctionalform>
HERWIG6   
  -->
  <header>
       34
  </header>
  <init>
   2212   2212 0.65000000D+04 0.65000000D+04 -1 -1   247000   247000 -3   1
 0.78749546D-02 0.18484392D-03 0.50409948D-03     66
  </init>
  <event>
  5     66 0.50409948E-03 0.35491463E+02 0.75467711E-02 0.11927909E+00
       21 -1    0    0  501  502 0.00000000E+00 0.00000000E+00 0.10342959E+04 0.10342962E+04 0.75000000E+00 0.0000E+00 0.9000E+01
       -3 -1    0    0    0  501 0.00000000E+00 0.00000000E+00 -.24941075E+02 0.24946086E+02 0.50000000E+00 0.0000E+00 0.9000E+01
       25  1    1    2    0    0 -.79231405E+02 0.75579709E+02 0.40689531E+03 0.43952099E+03 0.12500000E+03 0.0000E+00 0.9000E+01
       24  1    1    2    0    0 0.55654326E+02 -.49090488E+02 0.47202189E+03 0.48454015E+03 0.80419002E+02 0.0000E+00 0.9000E+01
       -4  1    1    2    0  502 0.23577079E+02 -.26489221E+02 0.13043767E+03 0.13518116E+03 0.15500000E+01 0.0000E+00 0.9000E+01
#aMCatNLO 1  0  0  1  2 0.17439501D+01 0.00000000D+00  -5  6  0 0.00000000D+00 0.00000000D+00 0.00000000D+00 0.00000000D+00 0.00000000D+00
  <mgrwgt>
 0.2552985998D-02   41    4    0
 0.160621452268437D+03 0.000000000000000D+00 0.000000000000000D+00 0.160621452268437D+03
 0.160621452268437D+03 0.000000000000000D+00 0.000000000000000D+00 -.160621452268437D+03
 0.170778164504924D+03 -.792431057052920D+02 0.755928554984282D+02 -.393246979320201D+02
 0.114571329687242D+03 0.556464759265680D+02 -.490816683816069D+02 0.339681200210433D+02
 0.358934103447087D+02 0.235966297787240D+02 -.265111871168213D+02 0.535657791097680D+01
 0.000000000000000D+00 -.000000000000000D+00 0.000000000000000D+00 0.000000000000000D+00
 0.169764224468937D+03 0.000000000000000D+00 0.000000000000000D+00 0.169764224468937D+03
 0.160707003672838D+03 0.000000000000000D+00 0.000000000000000D+00 -.160707003672838D+03
 0.170199201409960D+03 -.787212650846663D+02 0.748284619420532D+02 -.393246979320201D+02
 0.114963406298871D+03 0.559977618506667D+02 -.495962329559482D+02 0.339681200210433D+02
 0.360850305351583D+02 0.237067874549077D+02 -.266725463796535D+02 0.535657791097680D+01
 0.922358989778541D+01 -.983284220908089D+00 0.144031739354847D+01 0.905722079609876D+01
 0.160621452268437D+03 0.000000000000000D+00 0.000000000000000D+00 0.160621452268437D+03
 0.160621452268437D+03 0.000000000000000D+00 0.000000000000000D+00 -.160621452268437D+03
 0.170778164504924D+03 -.792431057052920D+02 0.755928554984282D+02 -.393246979320201D+02
 0.114571329687242D+03 0.556464759265680D+02 -.490816683816069D+02 0.339681200210433D+02
 0.000000000000000D+00 -.000000000000000D+00 0.000000000000000D+00 0.000000000000000D+00
 0.358934103447087D+02 0.235966297787240D+02 -.265111871168213D+02 0.535657791097680D+01
 0.169764224468937D+03 0.000000000000000D+00 0.000000000000000D+00 0.169764224468937D+03
 0.160707003672838D+03 0.000000000000000D+00 0.000000000000000D+00 -.160707003672838D+03
 0.170199201409960D+03 -.787212650846663D+02 0.748284619420532D+02 -.393246979320201D+02
 0.114963406298871D+03 0.559977618506667D+02 -.495962329559482D+02 0.339681200210433D+02
 0.922358989778541D+01 -.983284220908089D+00 0.144031739354847D+01 0.905722079609876D+01
 0.360850305351583D+02 0.237067874549077D+02 -.266725463796535D+02 0.535657791097680D+01
0.294934059732D-06 0.000000000000D+00 0.000000000000D+00 0.376386108608D-06 0.000000000000D+00  6 21 -3 25 24 -4 21 2 0.15912286D+00 0.38374949D-02 0.24195873D+05 0.24195873D+05 0.24195873D+05 0.12248229D+01  1  2  2  1  6  1       21 0.193247956517D-03 0.100000000000D+01
0.352327068321D-08 0.155640979315D-07 -.595386892329D-09 0.376386108608D-06 0.000000000000D+00  6 21 -3 25 24 -4 21 4 0.15912286D+00 0.38374949D-02 0.24195873D+05 0.24195873D+05 0.24195873D+05 0.12248229D+01  1  2  3  1  6  1       21 0.346323972870D-05 0.100000000000D+01
0.300121560063D-07 0.000000000000D+00 0.000000000000D+00 0.376386108608D-06 0.000000000000D+00  6 21 -3 25 24 -4 21 4 0.15912286D+00 0.38374949D-02 0.24195873D+05 0.24195873D+05 0.24195873D+05 0.12248229D+01  1  2 15  1  6  1       21 0.295007963823D-04 0.100000000000D+01
0.120478952665D-07 0.000000000000D+00 0.000000000000D+00 0.376063520352D-06 0.000000000000D+00  6 21 -3 25 24 -4 21 4 0.16822139D+00 0.38374949D-02 0.24469350D+05 0.24469350D+05 0.24469350D+05 0.12242979D+01  1  2 12  1  6  1       21 0.101782814525D-04 0.100000000000D+01
0.115022136596D-07 0.000000000000D+00 0.000000000000D+00 0.376063520352D-06 0.000000000000D+00  6 21 -3 25 24 -4 21 4 0.16863475D+00 0.38374949D-02 0.24469350D+05 0.24469350D+05 0.24469350D+05 0.12242979D+01  1  2 12  1  6  1       21 0.965268189934D-05 0.100000000000D+01
-.702383609869D-04 0.000000000000D+00 0.000000000000D+00 0.376386108608D-06 0.000000000000D+00  6 21 -3 25 24 -4 21 4 0.15912286D+00 0.38374949D-02 0.24195873D+05 0.24195873D+05 0.24195873D+05 0.12248229D+01  1  2  4  1  6  1       21 -.690416105148D-01 0.100000000000D+01
-.869733070098D-04 0.000000000000D+00 -.151250788219D-05 0.376386108608D-06 0.000000000000D+00  6 21 -3 25 24 -4 21 4 0.16821711D+00 0.38374949D-02 0.24195873D+05 0.24195873D+05 0.24195873D+05 0.12248229D+01  1  2  5  1  6  1       21 -.736119497281D-01 0.100000000000D+01
0.865494930723D-04 0.000000000000D+00 0.150320430898D-05 0.376386108608D-06 0.000000000000D+00  6 21 -3 25 24 -4 21 4 0.15912286D+00 0.38374949D-02 0.24195873D+05 0.24195873D+05 0.24195873D+05 0.12248229D+01  1  2  6  1  6  1       21 0.850748267328D-01 0.100000000000D+01
0.709985206694D-04 0.000000000000D+00 0.000000000000D+00 0.376386108608D-06 0.203137823965D-05  6 21 -3 25 24 -4 21 4 0.16818033D+00 0.38395388D-02 0.24469350D+05 0.24469350D+05 0.24469350D+05 0.12242979D+01  1  2 11  1  6  1       21 0.599705912987D-01 0.100000000000D+01
0.272091306121D-09 0.000000000000D+00 0.000000000000D+00 0.376063520352D-06 0.000000000000D+00  6 -3 -3 25 24 -4 -3 4 0.16822139D+00 0.38374949D-02 0.24469350D+05 0.24469350D+05 0.24469350D+05 0.12242979D+01  1  2 12  4  6  1       21 0.128861997122D-07 0.100000000000D+01
0.272033606235D-09 0.000000000000D+00 0.000000000000D+00 0.376063520352D-06 0.000000000000D+00  6 -3 -3 25 24 -4 -3 4 0.16863475D+00 0.38374949D-02 0.24469350D+05 0.24469350D+05 0.24469350D+05 0.12242979D+01  1  2 12  4  6  1       21 0.128017825707D-07 0.100000000000D+01
-.113412040039D-05 0.000000000000D+00 -.202416103596D-07 0.376386108608D-06 0.000000000000D+00  6 -3 -3 25 24 -4 -3 4 0.16821711D+00 0.38374949D-02 0.24195873D+05 0.24195873D+05 0.24195873D+05 0.12248229D+01  1  2  5  4  6  1       21 -.537732635119D-04 0.100000000000D+01
0.108007813766D-05 0.000000000000D+00 0.000000000000D+00 0.376386108608D-06 0.301874741270D-07  6 -3 -3 25 24 -4 -3 4 0.16818033D+00 0.38395388D-02 0.24469350D+05 0.24469350D+05 0.24469350D+05 0.12242979D+01  1  2 11  4  6  1       21 0.511420079837D-04 0.100000000000D+01
0.272091306121D-09 0.000000000000D+00 0.000000000000D+00 0.376063520352D-06 0.000000000000D+00  6 3 -3 25 24 3 -4 4 0.16822139D+00 0.38374949D-02 0.24469350D+05 0.24469350D+05 0.24469350D+05 0.12242979D+01  3  4 12  5  5  1       21 0.129469360711D-07 0.100000000000D+01
0.272033606235D-09 0.000000000000D+00 0.000000000000D+00 0.376063520352D-06 0.000000000000D+00  6 3 -3 25 24 3 -4 4 0.16863475D+00 0.38374949D-02 0.24469350D+05 0.24469350D+05 0.24469350D+05 0.12242979D+01  3  4 12  5  5  1       21 0.128623657704D-07 0.100000000000D+01
-.113412040039D-05 0.000000000000D+00 -.202416103596D-07 0.376386108608D-06 0.000000000000D+00  6 3 -3 25 24 3 -4 4 0.16821711D+00 0.38374949D-02 0.24195873D+05 0.24195873D+05 0.24195873D+05 0.12248229D+01  3  4  5  5  5  1       21 -.540266791559D-04 0.100000000000D+01
0.107573194581D-05 0.000000000000D+00 0.000000000000D+00 0.376386108608D-06 0.300376870419D-07  6 3 -3 25 24 3 -4 4 0.16818033D+00 0.38395388D-02 0.24469350D+05 0.24469350D+05 0.24469350D+05 0.12242979D+01  3  4 11  5  5  1       21 0.511761949490D-04 0.100000000000D+01
0.272091306121D-09 0.000000000000D+00 0.000000000000D+00 0.376063520352D-06 0.000000000000D+00  6 -4 -3 25 24 -4 -4 4 0.16822139D+00 0.38374949D-02 0.24469350D+05 0.24469350D+05 0.24469350D+05 0.12242979D+01  1  2 12  6  6  1       21 0.100451168942D-07 0.100000000000D+01
0.272033606235D-09 0.000000000000D+00 0.000000000000D+00 0.376063520352D-06 0.000000000000D+00  6 -4 -3 25 24 -4 -4 4 0.16863475D+00 0.38374949D-02 0.24469350D+05 0.24469350D+05 0.24469350D+05 0.12242979D+01  1  2 12  6  6  1       21 0.997758567923D-08 0.100000000000D+01
-.113412040039D-05 0.000000000000D+00 -.202416103596D-07 0.376386108608D-06 0.000000000000D+00  6 -4 -3 25 24 -4 -4 4 0.16821711D+00 0.38374949D-02 0.24195873D+05 0.24195873D+05 0.24195873D+05 0.12248229D+01  1  2  5  6  6  1       21 -.419134409532D-04 0.100000000000D+01
0.107453373708D-05 0.000000000000D+00 0.000000000000D+00 0.376386108608D-06 0.150080912650D-07  6 -4 -3 25 24 -4 -4 4 0.16818033D+00 0.38395388D-02 0.24469350D+05 0.24469350D+05 0.24469350D+05 0.12242979D+01  1  2 11  6  6  1       21 0.396625147385D-04 0.100000000000D+01
0.272091306121D-09 0.000000000000D+00 0.000000000000D+00 0.376063520352D-06 0.000000000000D+00  6 4 -3 25 24 4 -4 4 0.16822139D+00 0.38374949D-02 0.24469350D+05 0.24469350D+05 0.24469350D+05 0.12242979D+01  3  4 12  7  5  1       21 0.100451168942D-07 0.100000000000D+01
0.272033606235D-09 0.000000000000D+00 0.000000000000D+00 0.376063520352D-06 0.000000000000D+00  6 4 -3 25 24 4 -4 4 0.16863475D+00 0.38374949D-02 0.24469350D+05 0.24469350D+05 0.24469350D+05 0.12242979D+01  3  4 12  7  5  1       21 0.997758567923D-08 0.100000000000D+01
-.113412040039D-05 0.000000000000D+00 -.202416103596D-07 0.376386108608D-06 0.000000000000D+00  6 4 -3 25 24 4 -4 4 0.16821711D+00 0.38374949D-02 0.24195873D+05 0.24195873D+05 0.24195873D+05 0.12248229D+01  3  4  5  7  5  1       21 -.419134409532D-04 0.100000000000D+01
0.207603945600D-05 0.000000000000D+00 0.000000000000D+00 0.376386108608D-06 0.593209853978D-07  6 4 -3 25 24 4 -4 4 0.16818033D+00 0.38395388D-02 0.24469350D+05 0.24469350D+05 0.24469350D+05 0.12242979D+01  3  4 11  7  5  1       21 0.766294651157D-04 0.100000000000D+01
0.272091306121D-09 0.000000000000D+00 0.000000000000D+00 0.376063520352D-06 0.000000000000D+00  6 -1 -3 25 24 -4 -1 4 0.16822139D+00 0.38374949D-02 0.24469350D+05 0.24469350D+05 0.24469350D+05 0.12242979D+01  1  2 12  8  6  1       21 0.270873645680D-07 0.100000000000D+01
0.272091306121D-09 0.000000000000D+00 0.000000000000D+00 0.376063520352D-06 0.000000000000D+00  6 -2 -3 25 24 -4 -2 4 0.16822139D+00 0.38374949D-02 0.24469350D+05 0.24469350D+05 0.24469350D+05 0.12242979D+01  1  2 12  8  6  1       21 0.199163987183D-07 0.100000000000D+01
0.272033606235D-09 0.000000000000D+00 0.000000000000D+00 0.376063520352D-06 0.000000000000D+00  6 -1 -3 25 24 -4 -1 4 0.16863475D+00 0.38374949D-02 0.24469350D+05 0.24469350D+05 0.24469350D+05 0.12242979D+01  1  2 12  8  6  1       21 0.268993110746D-07 0.100000000000D+01
0.272033606235D-09 0.000000000000D+00 0.000000000000D+00 0.376063520352D-06 0.000000000000D+00  6 -2 -3 25 24 -4 -2 4 0.16863475D+00 0.38374949D-02 0.24469350D+05 0.24469350D+05 0.24469350D+05 0.12242979D+01  1  2 12  8  6  1       21 0.197823205379D-07 0.100000000000D+01
-.113412040039D-05 0.000000000000D+00 -.202416103596D-07 0.376386108608D-06 0.000000000000D+00  6 -1 -3 25 24 -4 -1 4 0.16821711D+00 0.38374949D-02 0.24195873D+05 0.24195873D+05 0.24195873D+05 0.12248229D+01  1  2  5  8  6  1       21 -.113065077194D-03 0.100000000000D+01
-.113412040039D-05 0.000000000000D+00 -.202416103596D-07 0.376386108608D-06 0.000000000000D+00  6 -2 -3 25 24 -4 -2 4 0.16821711D+00 0.38374949D-02 0.24195873D+05 0.24195873D+05 0.24195873D+05 0.12248229D+01  1  2  5  8  6  1       21 -.831247395642D-04 0.100000000000D+01
0.107539323529D-05 0.000000000000D+00 0.000000000000D+00 0.376386108608D-06 0.300282292206D-07  6 -1 -3 25 24 -4 -1 4 0.16818033D+00 0.38395388D-02 0.24469350D+05 0.24469350D+05 0.24469350D+05 0.12242979D+01  1  2 11  8  6  1       21 0.107040649261D-03 0.100000000000D+01
0.107539323529D-05 0.000000000000D+00 0.000000000000D+00 0.376386108608D-06 0.300282292206D-07  6 -2 -3 25 24 -4 -2 4 0.16818033D+00 0.38395388D-02 0.24469350D+05 0.24469350D+05 0.24469350D+05 0.12242979D+01  1  2 11  8  6  1       21 0.787016270394D-04 0.100000000000D+01
0.272091306121D-09 0.000000000000D+00 0.000000000000D+00 0.376063520352D-06 0.000000000000D+00  6 1 -3 25 24 1 -4 4 0.16822139D+00 0.38374949D-02 0.24469350D+05 0.24469350D+05 0.24469350D+05 0.12242979D+01  3  4 12  9  5  1       21 0.158099164939D-06 0.100000000000D+01
0.272091306121D-09 0.000000000000D+00 0.000000000000D+00 0.376063520352D-06 0.000000000000D+00  6 2 -3 25 24 2 -4 4 0.16822139D+00 0.38374949D-02 0.24469350D+05 0.24469350D+05 0.24469350D+05 0.12242979D+01  3  4 12  9  5  1       21 0.301518546519D-06 0.100000000000D+01
0.272033606235D-09 0.000000000000D+00 0.000000000000D+00 0.376063520352D-06 0.000000000000D+00  6 1 -3 25 24 1 -4 4 0.16863475D+00 0.38374949D-02 0.24469350D+05 0.24469350D+05 0.24469350D+05 0.12242979D+01  3  4 12  9  5  1       21 0.157373177474D-06 0.100000000000D+01
0.272033606235D-09 0.000000000000D+00 0.000000000000D+00 0.376063520352D-06 0.000000000000D+00  6 2 -3 25 24 2 -4 4 0.16863475D+00 0.38374949D-02 0.24469350D+05 0.24469350D+05 0.24469350D+05 0.12242979D+01  3  4 12  9  5  1       21 0.300380167847D-06 0.100000000000D+01
-.113412040039D-05 0.000000000000D+00 -.202416103596D-07 0.376386108608D-06 0.000000000000D+00  6 1 -3 25 24 1 -4 4 0.16821711D+00 0.38374949D-02 0.24195873D+05 0.24195873D+05 0.24195873D+05 0.12248229D+01  3  4  5  9  5  1       21 -.659888305856D-03 0.100000000000D+01
-.113412040039D-05 0.000000000000D+00 -.202416103596D-07 0.376386108608D-06 0.000000000000D+00  6 2 -3 25 24 2 -4 4 0.16821711D+00 0.38374949D-02 0.24195873D+05 0.24195873D+05 0.24195873D+05 0.12248229D+01  3  4  5  9  5  1       21 -.125840393251D-02 0.100000000000D+01
0.107539323529D-05 0.000000000000D+00 0.000000000000D+00 0.376386108608D-06 0.300282292206D-07  6 1 -3 25 24 1 -4 4 0.16818033D+00 0.38395388D-02 0.24469350D+05 0.24469350D+05 0.24469350D+05 0.12242979D+01  3  4 11  9  5  1       21 0.624610771481D-03 0.100000000000D+01
0.107539323529D-05 0.000000000000D+00 0.000000000000D+00 0.376386108608D-06 0.300282292206D-07  6 2 -3 25 24 2 -4 4 0.16818033D+00 0.38395388D-02 0.24469350D+05 0.24469350D+05 0.24469350D+05 0.12242979D+01  3  4 11  9  5  1       21 0.119112830354D-02 0.100000000000D+01
  </mgrwgt>
  </event>
  <event>
  5     66 0.50409948E-03 0.10325873E+03 0.75467711E-02 0.11418668E+00
       21 -1    0    0  501  502 0.00000000E+00 0.00000000E+00 0.10734207E+03 0.10734469E+03 0.75000000E+00 0.0000E+00 0.9000E+01
       -1 -1    0    0    0  501 0.00000000E+00 0.00000000E+00 -.42717147E+03 0.42717159E+03 0.32000000E+00 0.0000E+00 0.9000E+01
       25  1    1    2    0    0 0.20224836E+02 -.15876134E+03 -.20741513E+03 0.29027615E+03 0.12500000E+03 0.0000E+00 0.9000E+01
       24  1    1    2    0    0 0.21930542E+02 0.62654506E+02 -.23973086E+02 0.10699748E+03 0.80419002E+02 0.0000E+00 0.9000E+01
       -2  1    1    2    0  502 -.42155379E+02 0.96106836E+02 -.88441187E+02 0.13724265E+03 0.32000000E+00 0.0000E+00 0.9000E+01
#aMCatNLO 1  0  0  2  1 0.69421582D+01 0.00000000D+00  -5  6  0 0.00000000D+00 0.00000000D+00 0.00000000D+00 0.00000000D+00 0.00000000D+00
  <mgrwgt>
 0.3020252536D-01   11    4    0
 0.214135944482065D+03 0.000000000000000D+00 0.000000000000000D+00 0.214135944482065D+03
 0.214135944482065D+03 0.000000000000000D+00 0.000000000000000D+00 -.214135944482065D+03
 0.207391490536646D+03 0.202249308073810D+02 -.158761557246978D+03 -.420945419426686D+02
 0.115638165451141D+03 0.219305949478058D+02 0.626543856563287D+02 0.499844607633046D+02
 0.105242232976343D+03 -.421555257551869D+02 0.961071715906489D+02 -.788991882063595D+01
 0.000000000000000D+00 -.000000000000000D+00 0.000000000000000D+00 -.000000000000000D+00
 0.215505121637440D+03 0.000000000000000D+00 0.000000000000000D+00 0.215505121637440D+03
 0.223148395089674D+03 0.000000000000000D+00 0.000000000000000D+00 -.223148395089674D+03
 0.210011998753279D+03 0.205585495344155D+02 -.162127835981442D+03 -.420945419426686D+02
 0.114677758488933D+03 0.221146799095568D+02 0.607969320967360D+02 0.499844607633046D+02
 0.103638393172084D+03 -.419885734167760D+02 0.944225895785502D+02 -.788991882063595D+01
 0.103253663128165D+02 -.684656027196329D+00 0.690831430615580D+01 -.764327345223446D+01
 0.214135944482065D+03 0.000000000000000D+00 0.000000000000000D+00 0.214135944482065D+03
 0.214135944482065D+03 0.000000000000000D+00 0.000000000000000D+00 -.214135944482065D+03
 0.207391490536646D+03 0.202249308073810D+02 -.158761557246978D+03 -.420945419426686D+02
 0.115638165451141D+03 0.219305949478058D+02 0.626543856563287D+02 0.499844607633046D+02
 0.000000000000000D+00 -.000000000000000D+00 0.000000000000000D+00 -.000000000000000D+00
 0.105242232976343D+03 -.421555257551869D+02 0.961071715906489D+02 -.788991882063595D+01
 0.215505121637440D+03 0.000000000000000D+00 0.000000000000000D+00 0.215505121637440D+03
 0.223148395089674D+03 0.000000000000000D+00 0.000000000000000D+00 -.223148395089674D+03
 0.210011998753279D+03 0.205585495344155D+02 -.162127835981442D+03 -.420945419426686D+02
 0.114677758488933D+03 0.221146799095568D+02 0.607969320967360D+02 0.499844607633046D+02
 0.103253663128165D+02 -.684656027196329D+00 0.690831430615580D+01 -.764327345223446D+01
 0.103638393172084D+03 -.419885734167760D+02 0.944225895785502D+02 -.788991882063595D+01
0.193495127964D-05 0.000000000000D+00 0.000000000000D+00 0.106123715055D-06 0.000000000000D+00  6 21 -1 25 24 -2 21 2 0.16514375D-01 0.65718899D-01 0.42497380D+05 0.42497380D+05 0.42497380D+05 0.11993384D+01  1  2  2  2  6  2       -1 0.206698109906D-02 0.100000000000D+01
-.155381160899D-06 0.102110184345D-06 -.390610914942D-08 0.106123715055D-06 0.000000000000D+00  6 21 -1 25 24 -2 21 4 0.16514375D-01 0.65718899D-01 0.42497380D+05 0.42497380D+05 0.42497380D+05 0.11993384D+01  1  2  3  2  6  2       -1 -.238752717355D-03 0.100000000000D+01
0.221015386972D-06 0.000000000000D+00 0.000000000000D+00 0.106123715055D-06 0.000000000000D+00  6 21 -1 25 24 -2 21 4 0.16514375D-01 0.65718899D-01 0.42497380D+05 0.42497380D+05 0.42497380D+05 0.11993384D+01  1  2 15  2  6  2       -1 0.339603745471D-03 0.100000000000D+01
0.232051306511D-04 0.000000000000D+00 0.000000000000D+00 0.105865457894D-06 0.000000000000D+00  6 21 -1 25 24 -2 21 4 0.16514375D-01 0.68689628D-01 0.43940755D+05 0.43940755D+05 0.43940755D+05 0.11978782D+01  1  2 12  2  6  2       -1 0.325007841751D-01 0.100000000000D+01
-.106075006779D-04 0.000000000000D+00 0.000000000000D+00 0.106123715055D-06 0.000000000000D+00  6 21 -1 25 24 -2 21 4 0.16514375D-01 0.65718899D-01 0.42497380D+05 0.42497380D+05 0.42497380D+05 0.11993384D+01  1  2  4  2  6  2       -1 -.162990776780D-01 0.100000000000D+01
-.129955508958D-03 0.000000000000D+00 -.142130193433D-04 0.106123715055D-06 0.000000000000D+00  6 21 -1 25 24 -2 21 4 0.16514375D-01 0.68780214D-01 0.42497380D+05 0.42497380D+05 0.42497380D+05 0.11993384D+01  1  2  5  2  6  2       -1 -.182535776759D+00 0.100000000000D+01
0.130482076132D-03 0.000000000000D+00 0.141983006699D-04 0.106123715055D-06 0.000000000000D+00  6 21 -1 25 24 -2 21 4 0.16514375D-01 0.65718899D-01 0.42497380D+05 0.42497380D+05 0.42497380D+05 0.11993384D+01  1  2  6  2  6  2       -1 0.200493741085D+00 0.100000000000D+01
0.108681747356D-05 0.000000000000D+00 0.000000000000D+00 0.106123715055D-06 0.217495540035D-07  6 21 -1 25 24 -2 21 4 0.16619968D-01 0.68484845D-01 0.43940755D+05 0.43940755D+05 0.43940755D+05 0.11978782D+01  1  2 11  2  6  2       -1 0.151337340329D-02 0.100000000000D+01
0.419097336499D-06 0.000000000000D+00 0.000000000000D+00 0.105865457894D-06 0.000000000000D+00  6 21 21 25 24 1 -2 4 0.16514375D-01 0.68689628D-01 0.43940755D+05 0.43940755D+05 0.43940755D+05 0.11978782D+01  3  4 12 10  5  2       -1 0.544146196786D-02 0.100000000000D+01
-.102699937294D-05 0.000000000000D+00 -.113461955957D-06 0.106123715055D-06 0.000000000000D+00  6 21 21 25 24 1 -2 4 0.16514375D-01 0.68780214D-01 0.42497380D+05 0.42497380D+05 0.42497380D+05 0.11993384D+01  3  4  5 10  5  2       -1 -.133816885680D-01 0.100000000000D+01
0.233702788846D-07 0.000000000000D+00 0.000000000000D+00 0.106123715055D-06 0.142040245682D-09  6 21 21 25 24 1 -2 4 0.16619968D-01 0.68484845D-01 0.43940755D+05 0.43940755D+05 0.43940755D+05 0.11978782D+01  3  4 11 10  5  2       -1 0.301875608715D-03 0.100000000000D+01
  </mgrwgt>
  </event>
  <event>
  5     66 0.50409948E-03 0.62623613E+02 0.75467711E-02 0.11960922E+00
       21 -1    0    0  501  502 0.00000000E+00 0.00000000E+00 0.74024360E+02 0.74028159E+02 0.75000000E+00 0.0000E+00 0.9000E+01
       -1 -1    0    0    0  501 0.00000000E+00 0.00000000E+00 -.32788106E+03 0.32788121E+03 0.32000000E+00 0.0000E+00 0.9000E+01
       25  1    1    2    0    0 -.57869399E+01 -.83651336E+02 -.99105805E+02 0.18021652E+03 0.12500000E+03 0.0000E+00 0.9000E+01
       24  1    1    2    0    0 -.18298258E+01 0.12203867E+02 -.11080188E+03 0.13746474E+03 0.80419002E+02 0.0000E+00 0.9000E+01
       -2  1    1    2    0  502 0.76167657E+01 0.71447469E+02 -.43949010E+02 0.84228106E+02 0.32000000E+00 0.0000E+00 0.9000E+01
#aMCatNLO 1  0  0  1  2 0.34992602D+01 0.00000000D+00  -5  6  0 0.00000000D+00 0.00000000D+00 0.00000000D+00 0.00000000D+00 0.00000000D+00
  <mgrwgt>
 0.1829461489D-01   41    4    0
 0.155794673255997D+03 0.000000000000000D+00 0.000000000000000D+00 0.155794673255997D+03
 0.155794673255997D+03 0.000000000000000D+00 0.000000000000000D+00 -.155794673255997D+03
 0.151712803557518D+03 -.578697564534986D+01 -.836516715632150D+02 0.189916697749840D+02
 0.870394460960587D+02 -.182984634533676D+01 0.122036742922839D+02 -.309252521163286D+02
 0.728370968584171D+02 0.761682199068662D+01 0.714479972709311D+02 0.119335823413446D+02
 0.000000000000000D+00 0.000000000000000D+00 0.000000000000000D+00 0.000000000000000D+00
 0.160842908578334D+03 0.000000000000000D+00 0.000000000000000D+00 0.160842908578334D+03
 0.156412071010818D+03 0.000000000000000D+00 0.000000000000000D+00 -.156412071010818D+03
 0.152440744450006D+03 -.697847050653863D+01 -.848751907038758D+02 0.189916697749840D+02
 0.869610850596284D+02 -.251147817266296D+01 0.115037219762621D+02 -.309252521163286D+02
 0.722071653568649D+02 0.704862380852979D+01 0.708645274011039D+02 0.119335823413446D+02
 0.564598472265283D+01 0.244132487067181D+01 0.250694132650990D+01 0.443083756751534D+01
 0.155794673255997D+03 0.000000000000000D+00 0.000000000000000D+00 0.155794673255997D+03
 0.155794673255997D+03 0.000000000000000D+00 0.000000000000000D+00 -.155794673255997D+03
 0.151712803557518D+03 -.578697564534986D+01 -.836516715632150D+02 0.189916697749840D+02
 0.870394460960587D+02 -.182984634533676D+01 0.122036742922839D+02 -.309252521163286D+02
 0.000000000000000D+00 0.000000000000000D+00 0.000000000000000D+00 0.000000000000000D+00
 0.728370968584171D+02 0.761682199068662D+01 0.714479972709311D+02 0.119335823413446D+02
 0.160842908578334D+03 0.000000000000000D+00 0.000000000000000D+00 0.160842908578334D+03
 0.156412071010818D+03 0.000000000000000D+00 0.000000000000000D+00 -.156412071010818D+03
 0.152440744450006D+03 -.697847050653863D+01 -.848751907038758D+02 0.189916697749840D+02
 0.869610850596284D+02 -.251147817266296D+01 0.115037219762621D+02 -.309252521163286D+02
 0.564598472265283D+01 0.244132487067181D+01 0.250694132650990D+01 0.443083756751534D+01
 0.722071653568649D+02 0.704862380852979D+01 0.708645274011039D+02 0.119335823413446D+02
0.742965905227D-06 0.000000000000D+00 0.000000000000D+00 0.296723854361D-06 0.000000000000D+00  6 21 -1 25 24 -2 21 2 0.11388667D-01 0.50443544D-01 0.23063362D+05 0.23063362D+05 0.23063362D+05 0.12270698D+01  1  2  2  1  6  1       21 0.269138110694D-02 0.100000000000D+01
-.454460496592D-07 0.392073879810D-07 -.149983410469D-08 0.296723854361D-06 0.000000000000D+00  6 21 -1 25 24 -2 21 4 0.11388667D-01 0.50443544D-01 0.23063362D+05 0.23063362D+05 0.23063362D+05 0.12270698D+01  1  2  3  1  6  1       21 -.247879733507D-03 0.100000000000D+01
0.952401205325D-07 0.000000000000D+00 0.000000000000D+00 0.296723854361D-06 0.000000000000D+00  6 21 -1 25 24 -2 21 4 0.11388667D-01 0.50443544D-01 0.23063362D+05 0.23063362D+05 0.23063362D+05 0.12270698D+01  1  2 15  1  6  1       21 0.519475199140D-03 0.100000000000D+01
0.163758043782D-06 0.000000000000D+00 0.000000000000D+00 0.296202298293D-06 0.000000000000D+00  6 21 -1 25 24 -2 21 4 0.11779836D-01 0.50443544D-01 0.23599565D+05 0.23599565D+05 0.23599565D+05 0.12259910D+01  1  2 12  1  6  1       21 0.838397460736D-03 0.100000000000D+01
0.131360015441D-06 0.000000000000D+00 0.000000000000D+00 0.296202298293D-06 0.000000000000D+00  6 21 -1 25 24 -2 21 4 0.11873102D-01 0.50443544D-01 0.23599565D+05 0.23599565D+05 0.23599565D+05 0.12259910D+01  1  2 12  1  6  1       21 0.663167017173D-03 0.100000000000D+01
-.205185527391D-04 0.000000000000D+00 0.000000000000D+00 0.296723854361D-06 0.000000000000D+00  6 21 -1 25 24 -2 21 4 0.11388667D-01 0.50443544D-01 0.23063362D+05 0.23063362D+05 0.23063362D+05 0.12270698D+01  1  2  4  1  6  1       21 -.111915852380D+00 0.100000000000D+01
-.724719297624D-04 0.000000000000D+00 -.692480945911D-05 0.296723854361D-06 0.000000000000D+00  6 21 -1 25 24 -2 21 4 0.11799828D-01 0.50443544D-01 0.23063362D+05 0.23063362D+05 0.23063362D+05 0.12270698D+01  1  2  5  1  6  1       21 -.371179450505D+00 0.100000000000D+01
0.725389845415D-04 0.000000000000D+00 0.690741969200D-05 0.296723854361D-06 0.000000000000D+00  6 21 -1 25 24 -2 21 4 0.11388667D-01 0.50443544D-01 0.23063362D+05 0.23063362D+05 0.23063362D+05 0.12270698D+01  1  2  6  1  6  1       21 0.395654722289D+00 0.100000000000D+01
0.199643540878D-04 0.000000000000D+00 0.000000000000D+00 0.296723854361D-06 0.620352008539D-06  6 21 -1 25 24 -2 21 4 0.11757696D-01 0.50643446D-01 0.23599565D+05 0.23599565D+05 0.23599565D+05 0.12259910D+01  1  2 11  1  6  1       21 0.101812852186D+00 0.100000000000D+01
0.566393225242D-08 0.000000000000D+00 0.000000000000D+00 0.296202298293D-06 0.000000000000D+00  6 -1 -1 25 24 -2 -1 4 0.11779836D-01 0.50443544D-01 0.23599565D+05 0.23599565D+05 0.23599565D+05 0.12259910D+01  1  2 12  4  6  1       21 0.200367848395D-05 0.100000000000D+01
0.566763308048D-08 0.000000000000D+00 0.000000000000D+00 0.296202298293D-06 0.000000000000D+00  6 -1 -1 25 24 -2 -1 4 0.11873102D-01 0.50443544D-01 0.23599565D+05 0.23599565D+05 0.23599565D+05 0.12259910D+01  1  2 12  4  6  1       21 0.198068729759D-05 0.100000000000D+01
-.546371370832D-06 0.000000000000D+00 -.574872976151D-07 0.296723854361D-06 0.000000000000D+00  6 -1 -1 25 24 -2 -1 4 0.11799828D-01 0.50443544D-01 0.23063362D+05 0.23063362D+05 0.23063362D+05 0.12270698D+01  1  2  5  4  6  1       21 -.193361994591D-03 0.100000000000D+01
0.238100769112D-06 0.000000000000D+00 0.000000000000D+00 0.296723854361D-06 0.322088523722D-08  6 -1 -1 25 24 -2 -1 4 0.11757696D-01 0.50643446D-01 0.23599565D+05 0.23599565D+05 0.23599565D+05 0.12259910D+01  1  2 11  4  6  1       21 0.838652495639D-04 0.100000000000D+01
0.566393225242D-08 0.000000000000D+00 0.000000000000D+00 0.296202298293D-06 0.000000000000D+00  6 1 -1 25 24 1 -2 4 0.11779836D-01 0.50443544D-01 0.23599565D+05 0.23599565D+05 0.23599565D+05 0.12259910D+01  3  4 12  5  5  1       21 0.259992037021D-05 0.100000000000D+01
0.566763308048D-08 0.000000000000D+00 0.000000000000D+00 0.296202298293D-06 0.000000000000D+00  6 1 -1 25 24 1 -2 4 0.11873102D-01 0.50443544D-01 0.23599565D+05 0.23599565D+05 0.23599565D+05 0.12259910D+01  3  4 12  5  5  1       21 0.257471932876D-05 0.100000000000D+01
-.546371370832D-06 0.000000000000D+00 -.574872976151D-07 0.296723854361D-06 0.000000000000D+00  6 1 -1 25 24 1 -2 4 0.11799828D-01 0.50443544D-01 0.23063362D+05 0.23063362D+05 0.23063362D+05 0.12270698D+01  3  4  5  5  5  1       21 -.251006514072D-03 0.100000000000D+01
0.237002563917D-06 0.000000000000D+00 0.000000000000D+00 0.296723854361D-06 0.307188858522D-08  6 1 -1 25 24 1 -2 4 0.11757696D-01 0.50643446D-01 0.23599565D+05 0.23599565D+05 0.23599565D+05 0.12259910D+01  3  4 11  5  5  1       21 0.108273070024D-03 0.100000000000D+01
0.566393225242D-08 0.000000000000D+00 0.000000000000D+00 0.296202298293D-06 0.000000000000D+00  6 -2 -1 25 24 -2 -2 4 0.11779836D-01 0.50443544D-01 0.23599565D+05 0.23599565D+05 0.23599565D+05 0.12259910D+01  1  2 12  6  6  1       21 0.190045770932D-05 0.100000000000D+01
0.566763308048D-08 0.000000000000D+00 0.000000000000D+00 0.296202298293D-06 0.000000000000D+00  6 -2 -1 25 24 -2 -2 4 0.11873102D-01 0.50443544D-01 0.23599565D+05 0.23599565D+05 0.23599565D+05 0.12259910D+01  1  2 12  6  6  1       21 0.187786680204D-05 0.100000000000D+01
-.546371370832D-06 0.000000000000D+00 -.574872976151D-07 0.296723854361D-06 0.000000000000D+00  6 -2 -1 25 24 -2 -2 4 0.11799828D-01 0.50443544D-01 0.23063362D+05 0.23063362D+05 0.23063362D+05 0.12270698D+01  1  2  5  6  6  1       21 -.183381824254D-03 0.100000000000D+01
0.240248814955D-06 0.000000000000D+00 0.000000000000D+00 0.296723854361D-06 0.156143923281D-08  6 -2 -1 25 24 -2 -2 4 0.11757696D-01 0.50643446D-01 0.23599565D+05 0.23599565D+05 0.23599565D+05 0.12259910D+01  1  2 11  6  6  1       21 0.802704547370D-04 0.100000000000D+01
0.566393225242D-08 0.000000000000D+00 0.000000000000D+00 0.296202298293D-06 0.000000000000D+00  6 2 -1 25 24 2 -2 4 0.11779836D-01 0.50443544D-01 0.23599565D+05 0.23599565D+05 0.23599565D+05 0.12259910D+01  3  4 12  7  5  1       21 0.300607355856D-05 0.100000000000D+01
0.566763308048D-08 0.000000000000D+00 0.000000000000D+00 0.296202298293D-06 0.000000000000D+00  6 2 -1 25 24 2 -2 4 0.11873102D-01 0.50443544D-01 0.23599565D+05 0.23599565D+05 0.23599565D+05 0.12259910D+01  3  4 12  7  5  1       21 0.297950756597D-05 0.100000000000D+01
-.546371370832D-06 0.000000000000D+00 -.574872976151D-07 0.296723854361D-06 0.000000000000D+00  6 2 -1 25 24 2 -2 4 0.11799828D-01 0.50443544D-01 0.23063362D+05 0.23063362D+05 0.23063362D+05 0.12270698D+01  3  4  5  7  5  1       21 -.290269872542D-03 0.100000000000D+01
0.643924690409D-06 0.000000000000D+00 0.000000000000D+00 0.296723854361D-06 0.196203146350D-07  6 2 -1 25 24 2 -2 4 0.11757696D-01 0.50643446D-01 0.23599565D+05 0.23599565D+05 0.23599565D+05 0.12259910D+01  3  4 11  7  5  1       21 0.340057859281D-03 0.100000000000D+01
0.566393225242D-08 0.000000000000D+00 0.000000000000D+00 0.296202298293D-06 0.000000000000D+00  6 -3 -1 25 24 -2 -3 4 0.11779836D-01 0.50443544D-01 0.23599565D+05 0.23599565D+05 0.23599565D+05 0.12259910D+01  1  2 12  8  6  1       21 0.129538480312D-05 0.100000000000D+01
0.566393225242D-08 0.000000000000D+00 0.000000000000D+00 0.296202298293D-06 0.000000000000D+00  6 -4 -1 25 24 -2 -4 4 0.11779836D-01 0.50443544D-01 0.23599565D+05 0.23599565D+05 0.23599565D+05 0.12259910D+01  1  2 12  8  6  1       21 0.112736434224D-05 0.100000000000D+01
0.566763308048D-08 0.000000000000D+00 0.000000000000D+00 0.296202298293D-06 0.000000000000D+00  6 -3 -1 25 24 -2 -3 4 0.11873102D-01 0.50443544D-01 0.23599565D+05 0.23599565D+05 0.23599565D+05 0.12259910D+01  1  2 12  8  6  1       21 0.127918027586D-05 0.100000000000D+01
0.566763308048D-08 0.000000000000D+00 0.000000000000D+00 0.296202298293D-06 0.000000000000D+00  6 -4 -1 25 24 -2 -4 4 0.11873102D-01 0.50443544D-01 0.23599565D+05 0.23599565D+05 0.23599565D+05 0.12259910D+01  1  2 12  8  6  1       21 0.111296649508D-05 0.100000000000D+01
-.546371370832D-06 0.000000000000D+00 -.574872976151D-07 0.296723854361D-06 0.000000000000D+00  6 -3 -1 25 24 -2 -3 4 0.11799828D-01 0.50443544D-01 0.23063362D+05 0.23063362D+05 0.23063362D+05 0.12270698D+01  1  2  5  8  6  1       21 -.124914774162D-03 0.100000000000D+01
-.546371370832D-06 0.000000000000D+00 -.574872976151D-07 0.296723854361D-06 0.000000000000D+00  6 -4 -1 25 24 -2 -4 4 0.11799828D-01 0.50443544D-01 0.23063362D+05 0.23063362D+05 0.23063362D+05 0.12270698D+01  1  2  5  8  6  1       21 -.108680344443D-03 0.100000000000D+01
0.237064059489D-06 0.000000000000D+00 0.000000000000D+00 0.296723854361D-06 0.307268565485D-08  6 -3 -1 25 24 -2 -3 4 0.11757696D-01 0.50643446D-01 0.23599565D+05 0.23599565D+05 0.23599565D+05 0.12259910D+01  1  2 11  8  6  1       21 0.539965596350D-04 0.100000000000D+01
0.237064059489D-06 0.000000000000D+00 0.000000000000D+00 0.296723854361D-06 0.307268565485D-08  6 -4 -1 25 24 -2 -4 4 0.11757696D-01 0.50643446D-01 0.23599565D+05 0.23599565D+05 0.23599565D+05 0.12259910D+01  1  2 11  8  6  1       21 0.469957974349D-04 0.100000000000D+01
0.566393225242D-08 0.000000000000D+00 0.000000000000D+00 0.296202298293D-06 0.000000000000D+00  6 3 -1 25 24 3 -2 4 0.11779836D-01 0.50443544D-01 0.23599565D+05 0.23599565D+05 0.23599565D+05 0.12259910D+01  3  4 12  9  5  1       21 0.129522168287D-05 0.100000000000D+01
0.566393225242D-08 0.000000000000D+00 0.000000000000D+00 0.296202298293D-06 0.000000000000D+00  6 4 -1 25 24 4 -2 4 0.11779836D-01 0.50443544D-01 0.23599565D+05 0.23599565D+05 0.23599565D+05 0.12259910D+01  3  4 12  9  5  1       21 0.112736434224D-05 0.100000000000D+01
0.566763308048D-08 0.000000000000D+00 0.000000000000D+00 0.296202298293D-06 0.000000000000D+00  6 3 -1 25 24 3 -2 4 0.11873102D-01 0.50443544D-01 0.23599565D+05 0.23599565D+05 0.23599565D+05 0.12259910D+01  3  4 12  9  5  1       21 0.127901923462D-05 0.100000000000D+01
0.566763308048D-08 0.000000000000D+00 0.000000000000D+00 0.296202298293D-06 0.000000000000D+00  6 4 -1 25 24 4 -2 4 0.11873102D-01 0.50443544D-01 0.23599565D+05 0.23599565D+05 0.23599565D+05 0.12259910D+01  3  4 12  9  5  1       21 0.111296649508D-05 0.100000000000D+01
-.546371370832D-06 0.000000000000D+00 -.574872976151D-07 0.296723854361D-06 0.000000000000D+00  6 3 -1 25 24 3 -2 4 0.11799828D-01 0.50443544D-01 0.23063362D+05 0.23063362D+05 0.23063362D+05 0.12270698D+01  3  4  5  9  5  1       21 -.124899007453D-03 0.100000000000D+01
-.546371370832D-06 0.000000000000D+00 -.574872976151D-07 0.296723854361D-06 0.000000000000D+00  6 4 -1 25 24 4 -2 4 0.11799828D-01 0.50443544D-01 0.23063362D+05 0.23063362D+05 0.23063362D+05 0.12270698D+01  3  4  5  9  5  1       21 -.108680344443D-03 0.100000000000D+01
0.237064059489D-06 0.000000000000D+00 0.000000000000D+00 0.296723854361D-06 0.307268565485D-08  6 3 -1 25 24 3 -2 4 0.11757696D-01 0.50643446D-01 0.23599565D+05 0.23599565D+05 0.23599565D+05 0.12259910D+01  3  4 11  9  5  1       21 0.539897598538D-04 0.100000000000D+01
0.237064059489D-06 0.000000000000D+00 0.000000000000D+00 0.296723854361D-06 0.307268565485D-08  6 4 -1 25 24 4 -2 4 0.11757696D-01 0.50643446D-01 0.23599565D+05 0.23599565D+05 0.23599565D+05 0.12259910D+01  3  4 11  9  5  1       21 0.469957974349D-04 0.100000000000D+01
  </mgrwgt>
  </event>
  <event>
  5     66 0.50409948E-03 0.64506627E+02 0.75467711E-02 0.11576445E+00
       21 -1    0    0  501  502 0.00000000E+00 0.00000000E+00 0.93246669E+02 0.93249685E+02 0.75000000E+00 0.0000E+00 0.9000E+01
       -1 -1    0    0    0  501 0.00000000E+00 0.00000000E+00 -.43401380E+03 0.43401392E+03 0.32000000E+00 0.0000E+00 0.9000E+01
       25  1    1    2    0    0 0.58759546E+02 0.69666427E+02 -.27207445E+03 0.31297859E+03 0.12500000E+03 0.0000E+00 0.9000E+01
       24  1    1    2    0    0 0.20944086E+01 -.91570282E+02 -.83738520E+02 0.14788123E+03 0.80419002E+02 0.0000E+00 0.9000E+01
       -2  1    1    2    0  502 -.60853955E+02 0.21903855E+02 0.15045832E+02 0.66403781E+02 0.32000000E+00 0.0000E+00 0.9000E+01
#aMCatNLO 1  0  0  1  2 0.40799411D+02 0.00000000D+00  -5  6  0 0.00000000D+00 0.00000000D+00 0.00000000D+00 0.00000000D+00 0.00000000D+00
  <mgrwgt>
 0.2860199291D-01   23    4    0
 0.201174470322874D+03 0.000000000000000D+00 0.000000000000000D+00 0.201174470322874D+03
 0.201174470322874D+03 0.000000000000000D+00 0.000000000000000D+00 -.201174470322874D+03
 0.179715244450755D+03 0.587596861513796D+02 0.696663764593952D+02 -.914683790301530D+02
 0.122871110186532D+03 0.209450424836657D+01 -.915703164502952D+02 0.155107692022867D+02
 0.997625860084625D+02 -.608541903997461D+02 0.219039399909000D+02 0.759576098278663D+02
 0.000000000000000D+00 -.000000000000000D+00 -.000000000000000D+00 0.000000000000000D+00
 0.238203499910749D+03 0.000000000000000D+00 0.000000000000000D+00 0.238203499910749D+03
 0.213766629172140D+03 0.000000000000000D+00 0.000000000000000D+00 -.213766629172140D+03
 0.186841562149877D+03 0.772855296713798D+02 0.703224849363051D+02 -.914683790301530D+02
 0.123384818406101D+03 0.145403208771379D+02 -.911295372877493D+02 0.155107692022867D+02
 0.941858620320951D+02 -.510520027588522D+02 0.222510927883696D+02 0.759576098278663D+02
 0.475578864948157D+02 -.407738477896656D+02 -.144404043692539D+01 0.244368707386089D+02
 0.201174470322874D+03 0.000000000000000D+00 0.000000000000000D+00 0.201174470322874D+03
 0.201174470322874D+03 0.000000000000000D+00 0.000000000000000D+00 -.201174470322874D+03
 0.179715244450755D+03 0.587596861513796D+02 0.696663764593952D+02 -.914683790301530D+02
 0.122871110186532D+03 0.209450424836657D+01 -.915703164502952D+02 0.155107692022867D+02
 0.000000000000000D+00 -.000000000000000D+00 -.000000000000000D+00 0.000000000000000D+00
 0.997625860084625D+02 -.608541903997461D+02 0.219039399909000D+02 0.759576098278663D+02
 0.238203499910749D+03 0.000000000000000D+00 0.000000000000000D+00 0.238203499910749D+03
 0.213766629172140D+03 0.000000000000000D+00 0.000000000000000D+00 -.213766629172140D+03
 0.186841562149877D+03 0.772855296713798D+02 0.703224849363051D+02 -.914683790301530D+02
 0.123384818406101D+03 0.145403208771379D+02 -.911295372877493D+02 0.155107692022867D+02
 0.475578864948157D+02 -.407738477896656D+02 -.144404043692539D+01 0.244368707386089D+02
 0.941858620320951D+02 -.510520027588522D+02 0.222510927883696D+02 0.759576098278663D+02
0.367571673794D-05 0.000000000000D+00 0.000000000000D+00 0.393583944490D-06 0.000000000000D+00  6 21 -1 25 24 -2 21 2 0.14345882D-01 0.66771595D-01 0.29114805D+05 0.29114805D+05 0.29114805D+05 0.12162659D+01  1  2  2  1  6  1       21 0.508491469840D-02 0.100000000000D+01
0.248745400811D-08 0.193972901366D-06 -.742021307296D-08 0.393583944490D-06 0.000000000000D+00  6 21 -1 25 24 -2 21 4 0.14345882D-01 0.66771595D-01 0.29114805D+05 0.29114805D+05 0.29114805D+05 0.12162659D+01  1  2  3  1  6  1       21 0.509042201338D-05 0.100000000000D+01
0.350157704247D-06 0.000000000000D+00 0.000000000000D+00 0.393583944490D-06 0.000000000000D+00  6 21 -1 25 24 -2 21 4 0.14345882D-01 0.66771595D-01 0.29114805D+05 0.29114805D+05 0.29114805D+05 0.12162659D+01  1  2 15  1  6  1       21 0.716576258310D-03 0.100000000000D+01
0.644501167788D-05 0.000000000000D+00 0.000000000000D+00 0.387048463855D-06 0.000000000000D+00  6 21 -1 25 24 -2 21 4 0.17374510D-01 0.66771595D-01 0.36446046D+05 0.36446046D+05 0.36446046D+05 0.12061256D+01  1  2 12  1  6  1       21 0.896589678788D-02 0.100000000000D+01
-.512681186815D-06 0.000000000000D+00 0.000000000000D+00 0.393583944490D-06 0.000000000000D+00  6 21 -1 25 24 -2 21 4 0.14345882D-01 0.66771595D-01 0.29114805D+05 0.29114805D+05 0.29114805D+05 0.12162659D+01  1  2  4  1  6  1       21 -.104917059399D-02 0.100000000000D+01
-.245463856667D-04 0.000000000000D+00 -.647910145036D-05 0.393583944490D-06 0.000000000000D+00  6 21 -1 25 24 -2 21 4 0.17990395D-01 0.66771595D-01 0.29114805D+05 0.29114805D+05 0.29114805D+05 0.12162659D+01  1  2  5  1  6  1       21 -.332262187061D-01 0.100000000000D+01
0.238395947650D-04 0.000000000000D+00 0.586037277322D-05 0.393583944490D-06 0.000000000000D+00  6 21 -1 25 24 -2 21 4 0.14345882D-01 0.66771595D-01 0.29114805D+05 0.29114805D+05 0.29114805D+05 0.12162659D+01  1  2  6  1  6  1       21 0.487862680420D-01 0.100000000000D+01
0.351014169995D-06 0.000000000000D+00 0.000000000000D+00 0.387048463855D-06 0.000000000000D+00  6 -1 -1 25 24 -2 -1 4 0.17374510D-01 0.66771595D-01 0.36446046D+05 0.36446046D+05 0.36446046D+05 0.12061256D+01  1  2 12  4  6  1       21 0.373256307418D-04 0.100000000000D+01
-.124278697048D-05 0.000000000000D+00 -.431922033454D-06 0.393583944490D-06 0.000000000000D+00  6 -1 -1 25 24 -2 -1 4 0.17990395D-01 0.66771595D-01 0.29114805D+05 0.29114805D+05 0.29114805D+05 0.12162659D+01  1  2  5  4  6  1       21 -.129081757427D-03 0.100000000000D+01
0.351014169995D-06 0.000000000000D+00 0.000000000000D+00 0.387048463855D-06 0.000000000000D+00  6 1 -1 25 24 1 -2 4 0.17374510D-01 0.66771595D-01 0.36446046D+05 0.36446046D+05 0.36446046D+05 0.12061256D+01  3  4 12  5  5  1       21 0.536505440815D-04 0.100000000000D+01
-.124278697048D-05 0.000000000000D+00 -.431922033454D-06 0.393583944490D-06 0.000000000000D+00  6 1 -1 25 24 1 -2 4 0.17990395D-01 0.66771595D-01 0.29114805D+05 0.29114805D+05 0.29114805D+05 0.12162659D+01  3  4  5  5  5  1       21 -.187569275107D-03 0.100000000000D+01
0.351014169995D-06 0.000000000000D+00 0.000000000000D+00 0.387048463855D-06 0.000000000000D+00  6 -2 -1 25 24 -2 -2 4 0.17374510D-01 0.66771595D-01 0.36446046D+05 0.36446046D+05 0.36446046D+05 0.12061256D+01  1  2 12  6  6  1       21 0.345458486474D-04 0.100000000000D+01
-.124278697048D-05 0.000000000000D+00 -.431922033454D-06 0.393583944490D-06 0.000000000000D+00  6 -2 -1 25 24 -2 -2 4 0.17990395D-01 0.66771595D-01 0.29114805D+05 0.29114805D+05 0.29114805D+05 0.12162659D+01  1  2  5  6  6  1       21 -.119126183897D-03 0.100000000000D+01
0.351014169995D-06 0.000000000000D+00 0.000000000000D+00 0.387048463855D-06 0.000000000000D+00  6 2 -1 25 24 2 -2 4 0.17374510D-01 0.66771595D-01 0.36446046D+05 0.36446046D+05 0.36446046D+05 0.12061256D+01  3  4 12  7  5  1       21 0.650509579808D-04 0.100000000000D+01
-.124278697048D-05 0.000000000000D+00 -.431922033454D-06 0.393583944490D-06 0.000000000000D+00  6 2 -1 25 24 2 -2 4 0.17990395D-01 0.66771595D-01 0.29114805D+05 0.29114805D+05 0.29114805D+05 0.12162659D+01  3  4  5  7  5  1       21 -.228441707469D-03 0.100000000000D+01
0.351014169995D-06 0.000000000000D+00 0.000000000000D+00 0.387048463855D-06 0.000000000000D+00  6 -3 -1 25 24 -2 -3 4 0.17374510D-01 0.66771595D-01 0.36446046D+05 0.36446046D+05 0.36446046D+05 0.12061256D+01  1  2 12  8  6  1       21 0.230683882090D-04 0.100000000000D+01
0.351014169995D-06 0.000000000000D+00 0.000000000000D+00 0.387048463855D-06 0.000000000000D+00  6 -4 -1 25 24 -2 -4 4 0.17374510D-01 0.66771595D-01 0.36446046D+05 0.36446046D+05 0.36446046D+05 0.12061256D+01  1  2 12  8  6  1       21 0.198899233788D-04 0.100000000000D+01
-.124278697048D-05 0.000000000000D+00 -.431922033454D-06 0.393583944490D-06 0.000000000000D+00  6 -3 -1 25 24 -2 -3 4 0.17990395D-01 0.66771595D-01 0.29114805D+05 0.29114805D+05 0.29114805D+05 0.12162659D+01  1  2  5  8  6  1       21 -.789694859250D-04 0.100000000000D+01
-.124278697048D-05 0.000000000000D+00 -.431922033454D-06 0.393583944490D-06 0.000000000000D+00  6 -4 -1 25 24 -2 -4 4 0.17990395D-01 0.66771595D-01 0.29114805D+05 0.29114805D+05 0.29114805D+05 0.12162659D+01  1  2  5  8  6  1       21 -.678506878233D-04 0.100000000000D+01
0.351014169995D-06 0.000000000000D+00 0.000000000000D+00 0.387048463855D-06 0.000000000000D+00  6 3 -1 25 24 3 -2 4 0.17374510D-01 0.66771595D-01 0.36446046D+05 0.36446046D+05 0.36446046D+05 0.12061256D+01  3  4 12  9  5  1       21 0.230660371686D-04 0.100000000000D+01
0.351014169995D-06 0.000000000000D+00 0.000000000000D+00 0.387048463855D-06 0.000000000000D+00  6 4 -1 25 24 4 -2 4 0.17374510D-01 0.66771595D-01 0.36446046D+05 0.36446046D+05 0.36446046D+05 0.12061256D+01  3  4 12  9  5  1       21 0.198899233788D-04 0.100000000000D+01
-.124278697048D-05 0.000000000000D+00 -.431922033454D-06 0.393583944490D-06 0.000000000000D+00  6 3 -1 25 24 3 -2 4 0.17990395D-01 0.66771595D-01 0.29114805D+05 0.29114805D+05 0.29114805D+05 0.12162659D+01  3  4  5  9  5  1       21 -.789614658814D-04 0.100000000000D+01
-.124278697048D-05 0.000000000000D+00 -.431922033454D-06 0.393583944490D-06 0.000000000000D+00  6 4 -1 25 24 4 -2 4 0.17990395D-01 0.66771595D-01 0.29114805D+05 0.29114805D+05 0.29114805D+05 0.12162659D+01  3  4  5  9  5  1       21 -.678506878233D-04 0.100000000000D+01
  </mgrwgt>
  </event>
  <event>
  5     66 -.50409948E-03 0.12214667E+03 0.75467711E-02 0.11319547E+00
       21 -1    0    0  501  502 0.00000000E+00 0.00000000E+00 0.20689431E+03 0.20689567E+03 0.75000000E+00 0.0000E+00 0.9000E+01
       -1 -1    0    0    0  501 -.00000000E+00 -.00000000E+00 -.66119128E+03 0.66119136E+03 0.32000000E+00 0.0000E+00 0.9000E+01
       25  1    1    2    0    0 -.11036984E+03 -.20915667E+02 -.34713359E+03 0.38567563E+03 0.12500000E+03 0.0000E+00 0.9000E+01
       24  1    1    2    0    0 0.14647974E+02 0.11523687E+03 -.24945834E+03 0.28668934E+03 0.80419002E+02 0.0000E+00 0.9000E+01
       -2  1    1    2    0  502 0.95721871E+02 -.94321201E+02 0.14229496E+03 0.19572205E+03 0.32000000E+00 0.0000E+00 0.9000E+01
#aMCatNLO 1  0  0  5  1 0.12535869D+02 0.00000000D+00  -5  6  0 0.00000000D+00 0.00000000D+00 0.00000000D+00 0.00000000D+00 0.00000000D+00
  <mgrwgt>
 -.1199261863D-01    7    2    0
 0.369861242887374D+03 0.000000000000000D+00 0.000000000000000D+00 0.369861242887374D+03
 0.369861242887374D+03 -.000000000000000D+00 -.000000000000000D+00 -.369861242887374D+03
 0.239411822249557D+03 -.110369860501536D+03 -.209156513417400D+02 -.170511143491198D+03
 0.183235139898098D+03 0.146479616493233D+02 0.115236879406232D+03 -.116678187264538D+03
 0.317075523627092D+03 0.957218988522125D+02 -.943212280644922D+02 0.287189330755736D+03
 0.000000000000000D+00 0.000000000000000D+00 0.000000000000000D+00 0.000000000000000D+00
 0.369861242887374D+03 0.000000000000000D+00 0.000000000000000D+00 0.369861242887374D+03
 0.369861242887374D+03 -.000000000000000D+00 -.000000000000000D+00 -.369861242887374D+03
 0.239003093448916D+03 -.110207028950955D+03 -.210761002254598D+02 -.170022608635561D+03
 0.182929988429086D+03 0.147725882729036D+02 0.115114076407895D+03 -.116304276622882D+03
 0.259462788664256D+03 0.900111930327037D+02 -.779746625822135D+02 0.230518710358729D+03
 0.583266152324890D+02 0.542324764534816D+01 -.160633136002212D+02 0.558081748997134D+02
0.178227322543D-05 0.000000000000D+00 0.000000000000D+00 0.867189388681D-06 0.000000000000D+00  6 21 -1 25 24 -2 21 2 0.31830005D-01 0.10172185D+00 0.49223720D+05 0.49223720D+05 0.49223720D+05 0.11929554D+01  1  2  2  3  6  5       -2 0.216668544686D-03 0.100000000000D+01
0.213677652834D-07 0.940531420699D-07 -.359789614646D-08 0.867189388681D-06 0.000000000000D+00  6 21 -1 25 24 -2 21 4 0.31830005D-01 0.10172185D+00 0.49223720D+05 0.49223720D+05 0.49223720D+05 0.11929554D+01  1  2  3  3  6  5       -2 0.369682648219D-05 0.100000000000D+01
0.181123238039D-06 0.000000000000D+00 0.000000000000D+00 0.867189388681D-06 0.000000000000D+00  6 21 -1 25 24 -2 21 4 0.31830005D-01 0.10172185D+00 0.49223720D+05 0.49223720D+05 0.49223720D+05 0.11929554D+01  1  2 15  3  6  5       -2 0.313360416516D-04 0.100000000000D+01
0.400601575342D-04 0.000000000000D+00 0.000000000000D+00 0.866771267127D-06 0.000000000000D+00  6 21 -1 25 24 -2 21 4 0.31830005D-01 0.10172185D+00 0.49553549D+05 0.49553549D+05 0.49553549D+05 0.11926677D+01  1  2 12  3  6  5       -2 0.692214843057D-02 0.100000000000D+01
-.119917092847D-03 0.000000000000D+00 0.000000000000D+00 0.867189388681D-06 0.000000000000D+00  6 21 -1 25 24 -2 21 4 0.31830005D-01 0.10172185D+00 0.49223720D+05 0.49223720D+05 0.49223720D+05 0.11929554D+01  1  2  4  3  6  5       -2 -.207467968047D-01 0.100000000000D+01
-.455516277872D-04 0.000000000000D+00 0.000000000000D+00 0.867189388681D-06 0.000000000000D+00  6 21 -1 25 24 -2 21 4 0.31830005D-01 0.10172185D+00 0.49223720D+05 0.49223720D+05 0.49223720D+05 0.11929554D+01  1  2  5  3  6  5       -2 -.788086454886D-02 0.100000000000D+01
0.546859718124D-04 0.000000000000D+00 -.000000000000D+00 0.867189388681D-06 0.000000000000D+00  6 21 -1 25 24 -2 21 4 0.31830005D-01 0.10172185D+00 0.49223720D+05 0.49223720D+05 0.49223720D+05 0.11929554D+01  1  2  6  3  6  5       -2 0.946119288184D-02 0.100000000000D+01
  </mgrwgt>
  </event>
  <event>
  5     66 0.50409948E-03 0.11174561E+03 0.75467711E-02 0.11159092E+00
       21 -1    0    0  501  502 0.00000000E+00 0.00000000E+00 0.55924421E+02 0.55929449E+02 0.75000000E+00 0.0000E+00 0.9000E+01
       -1 -1    0    0    0  501 -.00000000E+00 -.00000000E+00 -.16085326E+04 0.16085327E+04 0.32000000E+00 0.0000E+00 0.9000E+01
       25  1    1    2    0    0 -.55285091E+02 -.98501955E+02 -.97076919E+03 0.98528012E+03 0.12500000E+03 0.0000E+00 0.9000E+01
       24  1    1    2    0    0 -.12111629E+01 0.19491368E+03 -.49375772E+03 0.53689544E+03 0.80419002E+02 0.0000E+00 0.9000E+01
       -2  1    1    2    0  502 0.56496254E+02 -.96411729E+02 -.88081303E+02 0.14228656E+03 0.32000000E+00 0.0000E+00 0.9000E+01
#aMCatNLO 1  0  0  5  1 0.83571222D+01 0.00000000D+00  -5  6  0 0.00000000D+00 0.00000000D+00 0.00000000D+00 0.00000000D+00 0.00000000D+00
  <mgrwgt>
 0.5191999494D-02    8    2    0
 0.299934105197459D+03 0.000000000000000D+00 0.000000000000000D+00 0.299934105197459D+03
 0.299934105197459D+03 -.000000000000000D+00 -.000000000000000D+00 -.299934105197459D+03
 0.221277304959755D+03 -.552851292316557D+02 -.985018894905041D+02 -.143455839696026D+03
 0.211762943340121D+03 -.121119955201120D+01 0.194913746227471D+03 0.195829707888951D+02
 0.166827962095043D+03 0.564963287836669D+02 -.964118567369674D+02 0.123872868907131D+03
 0.000000000000000D+00 0.000000000000000D+00 0.000000000000000D+00 0.000000000000000D+00
 0.299934105197459D+03 0.000000000000000D+00 0.000000000000000D+00 0.299934105197459D+03
 0.299934105197459D+03 -.000000000000000D+00 -.000000000000000D+00 -.299934105197459D+03
 0.221171730727987D+03 -.551690608780599D+02 -.986999619267049D+02 -.143201350240538D+03
 0.211610574331486D+03 -.110013530915250D+01 0.194724213383451D+03 0.198264883181241D+02
 0.576338321168281D+02 0.115357219496864D+02 -.356559026136183D+02 0.437863258606887D+02
 0.109452073218617D+03 0.447334742375259D+02 -.603683488431277D+02 0.795885360617254D+02
0.150408248635D-04 0.000000000000D+00 0.000000000000D+00 0.131398206010D-06 0.000000000000D+00  6 21 -1 25 24 -2 21 2 0.86041463D-02 0.24746695D+00 0.60289118D+05 0.60289118D+05 0.60289118D+05 0.11843161D+01  1  2  2  3  6  5       -2 0.172365548389D-02 0.100000000000D+01
-.260255288605D-06 0.793726134439D-06 -.303630919456D-07 0.131398206010D-06 0.000000000000D+00  6 21 -1 25 24 -2 21 4 0.86041463D-02 0.24746695D+00 0.60289118D+05 0.60289118D+05 0.60289118D+05 0.11843161D+01  1  2  3  3  6  5       -2 -.418324832838D-04 0.100000000000D+01
0.151327039626D-05 0.000000000000D+00 0.000000000000D+00 0.131398206010D-06 0.000000000000D+00  6 21 -1 25 24 -2 21 4 0.86041463D-02 0.24746695D+00 0.60289118D+05 0.60289118D+05 0.60289118D+05 0.11843161D+01  1  2 15  3  6  5       -2 0.243237549156D-03 0.100000000000D+01
0.102800696036D-03 0.000000000000D+00 0.000000000000D+00 0.131368994669D-06 0.000000000000D+00  6 21 -1 25 24 -2 21 4 0.86041463D-02 0.24746695D+00 0.60477841D+05 0.60477841D+05 0.60477841D+05 0.11841845D+01  1  2 12  3  6  5       -2 0.165142596494D-01 0.100000000000D+01
-.163772137314D-03 0.000000000000D+00 0.000000000000D+00 0.131398206010D-06 0.000000000000D+00  6 21 -1 25 24 -2 21 4 0.86041463D-02 0.24746695D+00 0.60289118D+05 0.60289118D+05 0.60289118D+05 0.11843161D+01  1  2  4  3  6  5       -2 -.263241344038D-01 0.100000000000D+01
-.102924236042D-03 0.000000000000D+00 0.000000000000D+00 0.131398206010D-06 0.000000000000D+00  6 21 -1 25 24 -2 21 4 0.86041463D-02 0.24746695D+00 0.60289118D+05 0.60289118D+05 0.60289118D+05 0.11843161D+01  1  2  5  3  6  5       -2 -.165436652865D-01 0.100000000000D+01
0.184075525228D-03 0.000000000000D+00 -.000000000000D+00 0.131398206010D-06 0.000000000000D+00  6 21 -1 25 24 -2 21 4 0.86041463D-02 0.24746695D+00 0.60289118D+05 0.60289118D+05 0.60289118D+05 0.11843161D+01  1  2  6  3  6  5       -2 0.295876267235D-01 0.100000000000D+01
0.204504197435D-06 0.000000000000D+00 0.000000000000D+00 0.131398206010D-06 0.283228276510D-08  6 21 -1 25 24 -2 21 4 0.86041463D-02 0.24746695D+00 0.60477841D+05 0.60477841D+05 0.60477841D+05 0.11841845D+01  1  2 11  3  6  5       -2 0.328522621543D-04 0.100000000000D+01
  </mgrwgt>
  </event>
  <event>
  5     66 0.50409948E-03 0.67381251E+02 0.75467711E-02 0.11936030E+00
       21 -1    0    0  501  502 0.00000000E+00 0.00000000E+00 0.95183266E+02 0.95186220E+02 0.75000000E+00 0.0000E+00 0.9000E+01
       -1 -1    0    0    0  501 -.00000000E+00 -.00000000E+00 -.29836382E+03 0.29836399E+03 0.32000000E+00 0.0000E+00 0.9000E+01
       25  1    1    2    0    0 0.97454514E+01 -.49051683E+02 -.15938442E+03 0.20863709E+03 0.12500000E+03 0.0000E+00 0.9000E+01
       24  1    1    2    0    0 0.46214292E+02 0.11518980E+02 -.65489838E+02 0.11412529E+03 0.80419002E+02 0.0000E+00 0.9000E+01
       -2  1    1    2    0  502 -.55959743E+02 0.37532704E+02 0.21693710E+02 0.70787825E+02 0.32000000E+00 0.0000E+00 0.9000E+01
#aMCatNLO 1  0  0  5  2 0.49841824D+02 0.00000000D+00  -5  6  0 0.00000000D+00 0.00000000D+00 0.00000000D+00 0.00000000D+00 0.00000000D+00
  <mgrwgt>
 0.3870443092D-01    4    2    0
 0.168522573419229D+03 0.000000000000000D+00 0.000000000000000D+00 0.168522573419229D+03
 0.168522573419229D+03 -.000000000000000D+00 -.000000000000000D+00 -.168522573419229D+03
 0.147533328339054D+03 0.974558820322589D+01 -.490517749568189D+02 -.603326599360397D+02
 0.937790880976870D+02 0.462143789149256D+02 0.115189211688958D+02 -.767118287330228D+01
 0.957327304017174D+02 -.559599671181515D+02 0.375328537879231D+02 0.680038428093420D+02
 0.000000000000000D+00 0.000000000000000D+00 0.000000000000000D+00 0.000000000000000D+00
 0.168522573419229D+03 0.000000000000000D+00 0.000000000000000D+00 0.168522573419229D+03
 0.168522573419229D+03 -.000000000000000D+00 -.000000000000000D+00 -.168522573419229D+03
 0.135699468039881D+03 -.926820024617637D+01 -.362990558510488D+02 -.372266656420612D+02
 0.897808907172081D+02 0.338917572073261D+02 0.197838144962759D+02 0.730355125821171D+01
 0.613113087078056D+02 -.516021109499319D+02 0.316651811120738D+02 -.967548583350323D+01
 0.502534793735639D+02 0.269785539887822D+02 -.151499397573009D+02 0.395986002173527D+02
0.204620862423D-04 0.000000000000D+00 0.000000000000D+00 0.647209260763D-06 0.000000000000D+00  6 21 -1 25 24 -2 21 2 0.14643820D-01 0.45902366D-01 0.21826973D+05 0.21826973D+05 0.21826973D+05 0.12296684D+01  1  2  2  3  6  5       -2 0.563429642555D-01 0.100000000000D+01
-.356183580150D-06 0.107981395722D-05 -.413070567348D-07 0.647209260763D-06 0.000000000000D+00  6 21 -1 25 24 -2 21 4 0.14643820D-01 0.45902366D-01 0.21826973D+05 0.21826973D+05 0.21826973D+05 0.12296684D+01  1  2  3  3  6  5       -2 -.148299495199D-02 0.100000000000D+01
0.210469660473D-05 0.000000000000D+00 0.000000000000D+00 0.647209260763D-06 0.000000000000D+00  6 21 -1 25 24 -2 21 4 0.14643820D-01 0.45902366D-01 0.21826973D+05 0.21826973D+05 0.21826973D+05 0.12296684D+01  1  2 15  3  6  5       -2 0.876304977052D-02 0.100000000000D+01
-.598491041954D-05 0.000000000000D+00 0.000000000000D+00 0.647209260763D-06 0.000000000000D+00  6 21 -1 25 24 -2 21 4 0.14643820D-01 0.45902366D-01 0.21826973D+05 0.21826973D+05 0.21826973D+05 0.12296684D+01  1  2  4  3  6  5       -2 -.249185881521D-01 0.100000000000D+01
  </mgrwgt>
  </event>
  <event>
  6     66 0.50409948E-03 0.11352950E+03 0.75467711E-02 0.10706206E+00
        2 -1    0    0  501    0 0.00000000E+00 0.00000000E+00 0.16602249E+04 0.16602249E+04 0.32000000E+00 0.0000E+00 0.9000E+01
       -1 -1    0    0    0  501 0.00000000E+00 0.00000000E+00 -.46898614E+03 0.46898625E+03 0.32000000E+00 0.0000E+00 0.9000E+01
       25  1    1    2    0    0 -.12012953E+03 0.96331764E+02 -.28740790E+03 0.34919796E+03 0.12500000E+03 0.0000E+00 0.9000E+01
       24  1    1    2    0    0 -.57484442E+01 0.40637743E+02 -.10564432E+03 0.13896909E+03 0.80419002E+02 0.0000E+00 0.9000E+01
        2  1    1    2  502    0 0.19923655E+03 0.20214534E+02 0.12341513E+04 0.12502934E+04 0.32000000E+00 0.0000E+00 0.9000E+01
       -2  1    1    2    0  502 -.73358579E+02 -.15718404E+03 0.35013960E+03 0.39075074E+03 0.32000000E+00 0.0000E+00 0.9000E+01
#aMCatNLO 2  0  0  1  5 0.11652320D+01 0.00000000D+00  -5  6  0 0.00000000D+00 0.00000000D+00 0.00000000D+00 0.00000000D+00 0.00000000D+00
  <mgrwgt>
 0.2673316041D-02    1    2    0
 0.427361428401208D+03 0.000000000000000D+00 0.000000000000000D+00 0.427361428401208D+03
 0.427361428401208D+03 0.000000000000000D+00 0.000000000000000D+00 -.427361428401208D+03
 0.318929129622096D+03 -.448670100623234D+02 0.103967914768390D+03 -.270681388034508D+03
 0.137220058450578D+03 0.254366952298410D+02 0.438017943406104D+02 -.989772995950918D+02
 0.000000000000000D+00 0.000000000000000D+00 0.000000000000000D+00 0.000000000000000D+00
 0.398573668729742D+03 0.194303148324824D+02 -.147769709109000D+03 0.369658687629600D+03
 0.174336348978145D+04 0.000000000000000D+00 0.000000000000000D+00 0.174336348978145D+04
 0.446620879086966D+03 0.000000000000000D+00 0.000000000000000D+00 -.446620879086966D+03
 0.335565690122773D+03 -.120129540583342D+03 0.963317810409420D+02 -.270681388034508D+03
 0.133970867118758D+03 -.574844894080635D+01 0.406377506983323D+02 -.989772995950918D+02
 0.131211479269776D+04 0.199236551509993D+03 0.202145335825632D+02 0.129674261069448D+04
 0.408333018929120D+03 -.733585619858441D+02 -.157184065321837D+03 0.369658687629600D+03
0.576124423659D-03 0.000000000000D+00 0.000000000000D+00 0.215929553677D-05 0.290098638397D-08  6 2 -1 25 24 2 -2 4 0.25541921D+00 0.72151722D-01 0.10967316D+06 0.10967316D+06 0.10967316D+06 0.11599058D+01  1  2  1  7  5  1       21 0.267331604057D-02 0.100000000000D+01
  </mgrwgt>
  </event>
  <event>
  5     66 -.50409948E-03 0.22447493E+02 0.75467711E-02 0.12359644E+00
       21 -1    0    0  501  502 0.00000000E+00 0.00000000E+00 0.14930258E+03 0.14930447E+03 0.75000000E+00 0.0000E+00 0.9000E+01
       -1 -1    0    0    0  501 0.00000000E+00 0.00000000E+00 -.13179279E+03 0.13179318E+03 0.32000000E+00 0.0000E+00 0.9000E+01
       25  1    1    2    0    0 -.13870658E+01 -.53627974E+02 0.66695590E+02 0.15149649E+03 0.12500000E+03 0.0000E+00 0.9000E+01
       24  1    1    2    0    0 -.15100278E+02 0.38395500E+02 -.19639799E+02 0.92494165E+02 0.80419002E+02 0.0000E+00 0.9000E+01
       -2  1    1    2    0  502 0.16487344E+02 0.15232474E+02 -.29546002E+02 0.37107000E+02 0.32000000E+00 0.0000E+00 0.9000E+01
#aMCatNLO 1  0  0  5  1 0.12154368D+02 0.00000000D+00  -5  6  0 0.00000000D+00 0.00000000D+00 0.00000000D+00 0.00000000D+00 0.00000000D+00
  <mgrwgt>
 -.1044983568D+00    7    2    0
 0.140275885554340D+03 0.000000000000000D+00 0.000000000000000D+00 0.140275885554340D+03
 0.140275885554340D+03 -.000000000000000D+00 -.000000000000000D+00 -.140275885554340D+03
 0.147628974791941D+03 -.138735754969581D+01 -.536282438697876D+02 0.573707320555664D+02
 0.938997545909869D+02 -.151004639579619D+02 0.383953286784717D+02 -.254503964959969D+02
 0.390230417257513D+02 0.164878215076578D+02 0.152329151913160D+02 -.319203355595695D+02
 0.000000000000000D+00 0.000000000000000D+00 0.000000000000000D+00 0.000000000000000D+00
 0.140275885554340D+03 0.000000000000000D+00 0.000000000000000D+00 0.140275885554340D+03
 0.140275885554340D+03 -.000000000000000D+00 -.000000000000000D+00 -.140275885554340D+03
 0.145169865988013D+03 0.927539338409453D+00 -.514895363421272D+02 0.528891038780777D+02
 0.950671502108205D+02 -.136064727293241D+02 0.397756105836246D+02 -.283427556423538D+02
 0.266057178834606D+02 0.118562907104657D+02 -.194652454975898D+01 -.237382315445023D+02
 0.137090370263857D+02 0.822642680448949D+00 0.136604503082617D+02 -.808116691221596D+00
0.117112184991D-04 0.000000000000D+00 0.000000000000D+00 0.279630885863D-06 0.000000000000D+00  6 21 -1 25 24 -2 21 2 0.22969803D-01 0.20275989D-01 0.15482560D+05 0.15482560D+05 0.15482560D+05 0.12462579D+01  1  2  2  3  6  5       -2 0.574698685087D-01 0.100000000000D+01
-.796433786581D-06 0.618017979285D-06 -.236415759981D-07 0.279630885863D-06 0.000000000000D+00  6 21 -1 25 24 -2 21 4 0.22969803D-01 0.20275989D-01 0.15482560D+05 0.15482560D+05 0.15482560D+05 0.12462579D+01  1  2  3  3  6  5       -2 -.607020889168D-02 0.100000000000D+01
0.163107859209D-05 0.000000000000D+00 0.000000000000D+00 0.279630885863D-06 0.000000000000D+00  6 21 -1 25 24 -2 21 4 0.22969803D-01 0.20275989D-01 0.15482560D+05 0.15482560D+05 0.15482560D+05 0.12462579D+01  1  2 15  3  6  5       -2 0.124316521217D-01 0.100000000000D+01
0.781245167225D-05 0.000000000000D+00 0.000000000000D+00 0.279140254729D-06 0.000000000000D+00  6 21 -1 25 24 -2 21 4 0.22969803D-01 0.20275989D-01 0.15830253D+05 0.15830253D+05 0.15830253D+05 0.12451641D+01  1  2 12  3  6  5       -2 0.593506427436D-01 0.100000000000D+01
-.331472968194D-04 0.000000000000D+00 0.000000000000D+00 0.279630885863D-06 0.000000000000D+00  6 21 -1 25 24 -2 21 4 0.22969803D-01 0.20275989D-01 0.15482560D+05 0.15482560D+05 0.15482560D+05 0.12462579D+01  1  2  4  3  6  5       -2 -.252639979969D+00 0.100000000000D+01
-.469441186337D-05 0.000000000000D+00 0.000000000000D+00 0.279630885863D-06 0.000000000000D+00  6 21 -1 25 24 -2 21 4 0.22969803D-01 0.20275989D-01 0.15482560D+05 0.15482560D+05 0.15482560D+05 0.12462579D+01  1  2  5  3  6  5       -2 -.357795727836D-01 0.100000000000D+01
0.796921242155D-05 0.000000000000D+00 -.000000000000D+00 0.279630885863D-06 0.000000000000D+00  6 21 -1 25 24 -2 21 4 0.22969803D-01 0.20275989D-01 0.15482560D+05 0.15482560D+05 0.15482560D+05 0.12462579D+01  1  2  6  3  6  5       -2 0.607392414989D-01 0.100000000000D+01
  </mgrwgt>
  </event>
  <event>
  6     66 0.50409948E-03 0.53574932E+02 0.75467711E-02 0.11331164E+00
       21 -1    0    0  501  502 0.00000000E+00 0.00000000E+00 0.25352102E+03 0.25352213E+03 0.75000000E+00 0.0000E+00 0.9000E+01
       21 -1    0    0  503  501 0.00000000E+00 0.00000000E+00 -.20482559E+03 0.20482697E+03 0.75000000E+00 0.0000E+00 0.9000E+01
       25  1    1    2    0    0 0.10564882E+03 -.92724815E+02 0.58949600E+02 0.19712844E+03 0.12500000E+03 0.0000E+00 0.9000E+01
       24  1    1    2    0    0 -.92144489E+02 0.13938949E+03 0.68589362E+01 0.18556481E+03 0.80419002E+02 0.0000E+00 0.9000E+01
        3  1    1    2  503    0 0.29688989E+01 0.95071148E+01 -.13770873E+02 0.17002545E+02 0.50000000E+00 0.0000E+00 0.9000E+01
       -4  1    1    2    0  502 -.16473232E+02 -.56171788E+02 -.33422400E+01 0.58653305E+02 0.15500000E+01 0.0000E+00 0.9000E+01
#aMCatNLO 2  0  0  2  1 0.99598993D+01 0.00000000D+00  -5  6  0 0.00000000D+00 0.00000000D+00 0.00000000D+00 0.00000000D+00 0.00000000D+00
  <mgrwgt>
 0.2232539717D-03    2    2    0
 0.218395018481047D+03 0.000000000000000D+00 0.000000000000000D+00 0.218395018481047D+03
 0.218395018481047D+03 0.000000000000000D+00 0.000000000000000D+00 -.218395018481047D+03
 0.189451960596096D+03 0.106943095977558D+03 -.885797200971802D+02 0.313664276567264D+02
 0.188932278018796D+03 -.908663977541123D+02 0.143482758195395D+03 -.196006526124600D+02
 0.000000000000000D+00 0.000000000000000D+00 0.000000000000000D+00 -.000000000000000D+00
 0.584057983472022D+02 -.160766982234460D+02 -.549030380982147D+02 -.117657750442665D+02
 0.219849784760264D+03 0.000000000000000D+00 0.000000000000000D+00 0.219849784760264D+03
 0.236191394260967D+03 0.000000000000000D+00 0.000000000000000D+00 -.236191394260967D+03
 0.190702320621294D+03 0.105651293454595D+03 -.927163766428201D+02 0.313664276567264D+02
 0.186475989271501D+03 -.921420728439042D+02 0.139397745496865D+03 -.196006526124600D+02
 0.191376015782866D+02 0.296889886856130D+01 0.950711484121260D+01 -.163416095007037D+02
 0.597252675501498D+02 -.164781194792525D+02 -.561884836952571D+02 -.117657750442665D+02
-.322861952777D-06 0.000000000000D+00 0.000000000000D+00 0.119569600796D-06 0.000000000000D+00  6 21 21 25 24 3 -4 4 0.38744763D-01 0.31603701D-01 0.48854895D+05 0.48854895D+05 0.48854895D+05 0.11932795D+01  1  2 13 10  5  2       -3 -.399582619147D-02 0.100000000000D+01
0.343516291479D-06 0.000000000000D+00 0.000000000000D+00 0.119970611597D-06 0.132535646531D-09  6 21 21 25 24 3 -4 4 0.39002848D-01 0.31511355D-01 0.48854895D+05 0.48854895D+05 0.48854895D+05 0.11932795D+01  1  2  1 10  5  2       -3 0.421908016319D-02 0.100000000000D+01
  </mgrwgt>
  </event>
  <event>
  5     66 -.50409948E-03 0.45855285E+02 0.75467711E-02 0.11917163E+00
       21 -1    0    0  501  502 0.00000000E+00 0.00000000E+00 0.43540194E+02 0.43546653E+02 0.75000000E+00 0.0000E+00 0.9000E+01
       -1 -1    0    0    0  501 -.00000000E+00 -.00000000E+00 -.10476721E+04 0.10476722E+04 0.32000000E+00 0.0000E+00 0.9000E+01
       25  1    1    2    0    0 -.66369405E+02 -.44153687E+02 -.50183610E+03 0.52327709E+03 0.12500000E+03 0.0000E+00 0.9000E+01
       24  1    1    2    0    0 0.82670445E+02 0.12937418E+01 -.50872559E+03 0.52163687E+03 0.80419002E+02 0.0000E+00 0.9000E+01
       -2  1    1    2    0  502 -.16301040E+02 0.42859945E+02 0.64297386E+01 0.46304889E+02 0.32000000E+00 0.0000E+00 0.9000E+01
#aMCatNLO 1  0  0  5  1 0.65408266D+01 0.00000000D+00  -5  6  0 0.00000000D+00 0.00000000D+00 0.00000000D+00 0.00000000D+00 0.00000000D+00
  <mgrwgt>
 -.5426625021D-02    7    2    0
 0.213586982875499D+03 0.000000000000000D+00 0.000000000000000D+00 0.213586982875499D+03
 0.213586982875499D+03 -.000000000000000D+00 -.000000000000000D+00 -.213586982875499D+03
 0.157079296593463D+03 -.663693875533803D+02 -.441537324047724D+02 -.519081663017871D+02
 0.136694633277593D+03 0.826704599223793D+02 0.129370231060916D+01 -.733629893275823D+02
 0.133400035879941D+03 -.163010723689990D+02 0.428600300941632D+02 0.125271155629369D+03
 0.000000000000000D+00 0.000000000000000D+00 0.000000000000000D+00 0.000000000000000D+00
 0.213586982875499D+03 0.000000000000000D+00 0.000000000000000D+00 0.213586982875499D+03
 0.213586982875499D+03 -.000000000000000D+00 -.000000000000000D+00 -.213586982875499D+03
 0.156773147500640D+03 -.664773455389654D+02 -.438698809865135D+02 -.510785263058701D+02
 0.136254406120113D+03 0.825765717624645D+02 0.154056026377585D+01 -.726414737103148D+02
 0.123418904563427D+03 -.215404015452546D+02 0.397093440399624D+02 0.114853842342438D+03
 0.107275075668171D+02 0.544117532175544D+01 0.261997668277530D+01 0.886615767374748D+01
0.155896903579D-05 0.000000000000D+00 0.000000000000D+00 0.161341791222D-05 0.000000000000D+00  6 21 -1 25 24 -2 21 2 0.66989920D-02 0.16118083D+00 0.23939805D+05 0.23939805D+05 0.23939805D+05 0.12253205D+01  1  2  2  3  6  5       -2 0.113779165627D-02 0.100000000000D+01
0.140261574007D-06 0.822690562331D-07 -.314710932436D-08 0.161341791222D-05 0.000000000000D+00  6 21 -1 25 24 -2 21 4 0.66989920D-02 0.16118083D+00 0.23939805D+05 0.23939805D+05 0.23939805D+05 0.12253205D+01  1  2  3  3  6  5       -2 0.153696275830D-03 0.100000000000D+01
0.152574889056D-06 0.000000000000D+00 0.000000000000D+00 0.161341791222D-05 0.000000000000D+00  6 21 -1 25 24 -2 21 4 0.66989920D-02 0.16118083D+00 0.23939805D+05 0.23939805D+05 0.23939805D+05 0.12253205D+01  1  2 15  3  6  5       -2 0.167188999547D-03 0.100000000000D+01
-.896636969073D-05 0.000000000000D+00 0.000000000000D+00 0.161341791222D-05 0.000000000000D+00  6 21 -1 25 24 -2 21 4 0.66989920D-02 0.16118083D+00 0.23939805D+05 0.23939805D+05 0.23939805D+05 0.12253205D+01  1  2  4  3  6  5       -2 -.982519723552D-02 0.100000000000D+01
-.146314144175D-04 0.000000000000D+00 0.000000000000D+00 0.161341791222D-05 0.000000000000D+00  6 21 -1 25 24 -2 21 4 0.66989920D-02 0.16118083D+00 0.23939805D+05 0.23939805D+05 0.23939805D+05 0.12253205D+01  1  2  5  3  6  5       -2 -.160328580512D-01 0.100000000000D+01
0.158551584223D-04 0.000000000000D+00 -.000000000000D+00 0.161341791222D-05 0.000000000000D+00  6 21 -1 25 24 -2 21 4 0.66989920D-02 0.16118083D+00 0.23939805D+05 0.23939805D+05 0.23939805D+05 0.12253205D+01  1  2  6  3  6  5       -2 0.173738161679D-01 0.100000000000D+01
0.146734397375D-05 0.000000000000D+00 0.000000000000D+00 0.161341791222D-05 0.430333577290D-06  6 21 -1 25 24 -2 21 4 0.66989920D-02 0.16118083D+00 0.24760435D+05 0.24760435D+05 0.24760435D+05 0.12237462D+01  1  2 11  3  6  5       -2 0.159893716609D-02 0.100000000000D+01
  </mgrwgt>
  </event>
  <event>
  5     66 -.50409948E-03 0.56709137E+02 0.75467711E-02 0.11857839E+00
       21 -1    0    0  501  502 0.00000000E+00 0.00000000E+00 0.17306649E+03 0.17306811E+03 0.75000000E+00 0.0000E+00 0.9000E+01
       -3 -1    0    0    0  501 0.00000000E+00 0.00000000E+00 -.16298251E+03 0.16298328E+03 0.50000000E+00 0.0000E+00 0.9000E+01
       25  1    1    2    0    0 0.65483887E+02 -.77838845E+02 -.11456667E+02 0.16156510E+03 0.12500000E+03 0.0000E+00 0.9000E+01
       24  1    1    2    0    0 -.65173214E+02 0.17345816E+02 -.11425843E+02 0.10557552E+03 0.80419002E+02 0.0000E+00 0.9000E+01
       -4  1    1    2    0  502 -.31067346E+00 0.60493029E+02 0.32966486E+02 0.68910774E+02 0.15500000E+01 0.0000E+00 0.9000E+01
#aMCatNLO 1  0  0  5  1 0.64353099D+01 0.00000000D+00  -5  6  0 0.00000000D+00 0.00000000D+00 0.00000000D+00 0.00000000D+00 0.00000000D+00
  <mgrwgt>
 -.3666589822D-01    8    2    0
 0.167950031315916D+03 0.000000000000000D+00 0.000000000000000D+00 0.167950031315916D+03
 0.167950031315916D+03 -.000000000000000D+00 -.000000000000000D+00 -.167950031315916D+03
 0.161985878109117D+03 0.654839262068856D+02 -.778464370356312D+02 -.163160153275922D+02
 0.105965620314972D+03 -.651731882489208D+02 0.173408492929176D+02 -.146029864629576D+02
 0.679485642077430D+02 -.310737957964858D+00 0.605055877427137D+02 0.309190017905499D+02
 0.000000000000000D+00 0.000000000000000D+00 0.000000000000000D+00 0.000000000000000D+00
 0.167950031315916D+03 0.000000000000000D+00 0.000000000000000D+00 0.167950031315916D+03
 0.167950031315916D+03 -.000000000000000D+00 -.000000000000000D+00 -.167950031315916D+03
 0.161519210984959D+03 0.654794167228946D+02 -.769683692865828D+02 -.158673133263738D+02
 0.106023032302360D+03 -.651761432547846D+02 0.179162356015187D+02 -.143089579117179D+02
 0.550840538843235D+02 0.197215753278444D+01 0.514715706063206D+02 0.195202716762726D+02
 0.132737654601898D+02 -.227543100089441D+01 0.758056307874342D+01 0.106559995618191D+02
0.119638825924D-05 0.000000000000D+00 0.000000000000D+00 0.341131719455D-06 0.000000000000D+00  6 21 -3 25 24 -4 21 2 0.26625798D-01 0.25074417D-01 0.26670653D+05 0.26670653D+05 0.26670653D+05 0.12202971D+01  1  2  2  3  6  5       -4 0.175099378318D-02 0.100000000000D+01
-.272252380946D-07 0.631351429800D-07 -.241516320066D-08 0.341131719455D-06 0.000000000000D+00  6 21 -3 25 24 -4 21 4 0.26625798D-01 0.25074417D-01 0.26670653D+05 0.26670653D+05 0.26670653D+05 0.12202971D+01  1  2  3  3  6  5       -4 -.593355927926D-04 0.100000000000D+01
0.135502620739D-06 0.000000000000D+00 0.000000000000D+00 0.341131719455D-06 0.000000000000D+00  6 21 -3 25 24 -4 21 4 0.26625798D-01 0.25074417D-01 0.26670653D+05 0.26670653D+05 0.26670653D+05 0.12202971D+01  1  2 15  3  6  5       -4 0.295318935266D-03 0.100000000000D+01
0.450587155753D-05 0.000000000000D+00 0.000000000000D+00 0.341355100861D-06 0.000000000000D+00  6 21 -3 25 24 -4 21 4 0.26625798D-01 0.25074417D-01 0.26441199D+05 0.26441199D+05 0.26441199D+05 0.12206965D+01  1  2 12  3  6  5       -4 0.983148785062D-02 0.100000000000D+01
-.261049322429D-04 0.000000000000D+00 0.000000000000D+00 0.341131719455D-06 0.000000000000D+00  6 21 -3 25 24 -4 21 4 0.26625798D-01 0.25074417D-01 0.26670653D+05 0.26670653D+05 0.26670653D+05 0.12202971D+01  1  2  4  3  6  5       -4 -.568939608191D-01 0.100000000000D+01
-.528466394040D-05 0.000000000000D+00 0.000000000000D+00 0.341131719455D-06 0.000000000000D+00  6 21 -3 25 24 -4 21 4 0.26625798D-01 0.25074417D-01 0.26670653D+05 0.26670653D+05 0.26670653D+05 0.12202971D+01  1  2  5  3  6  5       -4 -.115175730153D-01 0.100000000000D+01
0.668092791235D-05 0.000000000000D+00 -.000000000000D+00 0.341131719455D-06 0.000000000000D+00  6 21 -3 25 24 -4 21 4 0.26625798D-01 0.25074417D-01 0.26670653D+05 0.26670653D+05 0.26670653D+05 0.12202971D+01  1  2  6  3  6  5       -4 0.145606373287D-01 0.100000000000D+01
0.245953716915D-05 0.000000000000D+00 0.000000000000D+00 0.341131719455D-06 0.197767651728D-06  6 21 -3 25 24 -4 21 4 0.26625798D-01 0.25074417D-01 0.26441199D+05 0.26441199D+05 0.26441199D+05 0.12206965D+01  1  2 11  3  6  5       -4 0.536653330834D-02 0.100000000000D+01
  </mgrwgt>
  </event>
  <event>
  5     66 -.50409948E-03 0.25499182E+02 0.75467711E-02 0.11530004E+00
       21 -1    0    0  501  502 0.00000000E+00 0.00000000E+00 0.22912050E+03 0.22912173E+03 0.75000000E+00 0.0000E+00 0.9000E+01
       -1 -1    0    0    0  501 0.00000000E+00 0.00000000E+00 -.20323711E+03 0.20323736E+03 0.32000000E+00 0.0000E+00 0.9000E+01
       25  1    1    2    0    0 0.12497661E+03 -.69204768E+02 0.76634728E+02 0.20471037E+03 0.12500000E+03 0.0000E+00 0.9000E+01
       24  1    1    2    0    0 -.12614551E+03 0.94676097E+02 -.75173942E+02 0.19233978E+03 0.80419002E+02 0.0000E+00 0.9000E+01
       -2  1    1    2    0  502 0.11688934E+01 -.25471329E+02 0.24422608E+02 0.35308938E+02 0.32000000E+00 0.0000E+00 0.9000E+01
#aMCatNLO 1  0  0  5  1 0.48469585D+01 0.00000000D+00  -5  6  0 0.00000000D+00 0.00000000D+00 0.00000000D+00 0.00000000D+00 0.00000000D+00
  <mgrwgt>
 -.4662773481D-01    7    2    0
 0.215791814402293D+03 0.000000000000000D+00 0.000000000000000D+00 0.215791814402293D+03
 0.215791814402293D+03 -.000000000000000D+00 -.000000000000000D+00 -.215791814402293D+03
 0.200481821927275D+03 0.124976589904694D+03 -.692042412366005D+02 0.644948516855392D+02
 0.197194244043841D+03 -.126145531281652D+03 0.946766155122648D+02 -.868446736562708D+02
 0.339075628334696D+02 0.116894137695743D+01 -.254723742756644D+02 0.223498219707316D+02
 0.000000000000000D+00 0.000000000000000D+00 0.000000000000000D+00 0.000000000000000D+00
 0.215791814402293D+03 0.000000000000000D+00 0.000000000000000D+00 0.215791814402293D+03
 0.215791814402293D+03 -.000000000000000D+00 -.000000000000000D+00 -.215791814402293D+03
 0.200808914593156D+03 0.124999411815871D+03 -.697015529706436D+02 0.649312000447276D+02
 0.196757443069517D+03 -.126123126751487D+03 0.941883989181158D+02 -.864163055016457D+02
 0.155829956773812D+02 -.334753776394995D+01 -.131588068325372D+02 0.764653829809164D+01
 0.184342754645316D+02 0.447125269956665D+01 -.113280391149351D+02 0.138385671588264D+02
0.585380821718D-05 0.000000000000D+00 0.000000000000D+00 0.510588735051D-06 0.000000000000D+00  6 21 -1 25 24 -2 21 2 0.35249421D-01 0.31267361D-01 0.38487560D+05 0.38487560D+05 0.38487560D+05 0.12037039D+01  1  2  2  3  6  5       -2 0.572767278854D-02 0.100000000000D+01
0.628299359742D-06 0.308913946552D-06 -.118171522336D-07 0.510588735051D-06 0.000000000000D+00  6 21 -1 25 24 -2 21 4 0.35249421D-01 0.31267361D-01 0.38487560D+05 0.38487560D+05 0.38487560D+05 0.12037039D+01  1  2  3  3  6  5       -2 0.890729115820D-03 0.100000000000D+01
0.542938561974D-06 0.000000000000D+00 0.000000000000D+00 0.510588735051D-06 0.000000000000D+00  6 21 -1 25 24 -2 21 4 0.35249421D-01 0.31267361D-01 0.38487560D+05 0.38487560D+05 0.38487560D+05 0.12037039D+01  1  2 15  3  6  5       -2 0.769714591863D-03 0.100000000000D+01
0.261405518548D-05 0.000000000000D+00 0.000000000000D+00 0.510554731575D-06 0.000000000000D+00  6 21 -1 25 24 -2 21 4 0.35249421D-01 0.31267361D-01 0.38522404D+05 0.38522404D+05 0.38522404D+05 0.12036638D+01  1  2 12  3  6  5       -2 0.370534449843D-02 0.100000000000D+01
-.539050616048D-04 0.000000000000D+00 0.000000000000D+00 0.510588735051D-06 0.000000000000D+00  6 21 -1 25 24 -2 21 4 0.35249421D-01 0.31267361D-01 0.38487560D+05 0.38487560D+05 0.38487560D+05 0.12037039D+01  1  2  4  3  6  5       -2 -.764202718290D-01 0.100000000000D+01
-.777256131161D-05 0.000000000000D+00 0.000000000000D+00 0.510588735051D-06 0.000000000000D+00  6 21 -1 25 24 -2 21 4 0.35249421D-01 0.31267361D-01 0.38487560D+05 0.38487560D+05 0.38487560D+05 0.12037039D+01  1  2  5  3  6  5       -2 -.110190254970D-01 0.100000000000D+01
0.209624495546D-04 0.000000000000D+00 -.000000000000D+00 0.510588735051D-06 0.000000000000D+00  6 21 -1 25 24 -2 21 4 0.35249421D-01 0.31267361D-01 0.38487560D+05 0.38487560D+05 0.38487560D+05 0.12037039D+01  1  2  6  3  6  5       -2 0.297181015190D-01 0.100000000000D+01
  </mgrwgt>
  </event>
  <event>
  6     66 0.50409948E-03 0.36529691E+02 0.75467711E-02 0.12148311E+00
       21 -1    0    0  501  502 0.00000000E+00 0.00000000E+00 0.27328556E+03 0.27328659E+03 0.75000000E+00 0.0000E+00 0.9000E+01
       -3 -1    0    0    0  501 0.00000000E+00 0.00000000E+00 -.79798917E+02 0.79800483E+02 0.50000000E+00 0.0000E+00 0.9000E+01
       25  1    1    2    0    0 -.16732551E+02 0.13525784E+02 0.12786855E+03 0.18010634E+03 0.12500000E+03 0.0000E+00 0.9000E+01
       24  1    1    2    0    0 0.63040366E+02 -.11880797E+02 0.18701034E+02 0.10455709E+03 0.80419002E+02 0.0000E+00 0.9000E+01
       -4  1    1    2    0  503 -.40272810E+02 -.58717941E+01 0.32094994E+02 0.51854299E+02 0.15500000E+01 0.0000E+00 0.9000E+01
       21  1    1    2  503  502 -.60350039E+01 0.42268078E+01 0.14822064E+02 0.16569347E+02 0.75000000E+00 0.0000E+00 0.9000E+01
#aMCatNLO 2  0  0  5  1 0.71145222D+01 0.00000000D+00  -5  6  0 0.00000000D+00 0.00000000D+00 0.00000000D+00 0.00000000D+00 0.00000000D+00
  <mgrwgt>
 0.4219416258D-01    3    2    0
 0.147676505012215D+03 0.000000000000000D+00 0.000000000000000D+00 0.147676505012215D+03
 0.147676505012215D+03 -.000000000000000D+00 -.000000000000000D+00 -.147676505012215D+03
 0.131277988861857D+03 -.152651186671926D+02 0.135779109435605D+02 0.345185000557550D+02
 0.113576303509444D+03 0.643039901658847D+02 -.118359096431431D+02 -.464464084312657D+02
 0.504987176531293D+02 -.490388714986921D+02 -.174200130041740D+01 0.119279083755107D+02
 0.000000000000000D+00 0.000000000000000D+00 0.000000000000000D+00 0.000000000000000D+00
 0.147676505012215D+03 0.000000000000000D+00 0.000000000000000D+00 0.147676505012215D+03
 0.147676505012215D+03 -.000000000000000D+00 -.000000000000000D+00 -.147676505012215D+03
 0.131548551412310D+03 -.167487317743457D+02 0.135252087527679D+02 0.348793648282509D+02
 0.112735182793356D+03 0.630264986042338D+02 -.118812898057295D+02 -.461356793742509D+02
 0.405908250107148D+02 -.399304009705436D+02 -.599855632859427D+01 0.414674274036386D+01
 0.104784508080494D+02 -.634736585934444D+01 0.435463738155594D+01 0.710957180563614D+01
-.530376311343D-05 0.000000000000D+00 0.000000000000D+00 0.387843999805D-06 0.000000000000D+00  6 21 -3 25 24 -4 21 4 0.42044132D-01 0.12276956D-01 0.19290275D+05 0.19290275D+05 0.19290275D+05 0.12355573D+01  1  2 13  3  6  5       -4 -.170613881488D-01 0.100000000000D+01
-.354154104140D-05 0.000000000000D+00 0.000000000000D+00 0.387499189846D-06 0.000000000000D+00  6 21 -3 25 24 -4 21 4 0.42044132D-01 0.12276956D-01 0.19512380D+05 0.19512380D+05 0.19512380D+05 0.12350079D+01  1  2  8  3  6  5       -4 -.113759133943D-01 0.100000000000D+01
0.219567453015D-04 0.000000000000D+00 0.000000000000D+00 0.387499189846D-06 0.177488323627D-06  6 21 -3 25 24 -4 21 4 0.42044132D-01 0.12276956D-01 0.19290275D+05 0.19290275D+05 0.19290275D+05 0.12355573D+01  1  2  1  3  6  5       -4 0.706314641251D-01 0.100000000000D+01
  </mgrwgt>
  </event>
  <event>
  5     66 0.50409948E-03 0.20797459E+02 0.75467711E-02 0.12153852E+00
       21 -1    0    0  501  502 0.00000000E+00 0.00000000E+00 0.54195620E+02 0.54200809E+02 0.75000000E+00 0.0000E+00 0.9000E+01
       -3 -1    0    0    0  501 -.00000000E+00 -.00000000E+00 -.67281486E+03 0.67281504E+03 0.50000000E+00 0.0000E+00 0.9000E+01
       25  1    1    2    0    0 -.51855796E+02 0.36008103E+02 -.50259496E+03 0.52173968E+03 0.12500000E+03 0.0000E+00 0.9000E+01
       24  1    1    2    0    0 0.70396510E+02 -.45423841E+02 -.13430159E+03 0.17754754E+03 0.80419002E+02 0.0000E+00 0.9000E+01
       -4  1    1    2    0  502 -.18540715E+02 0.94157384E+01 0.18277314E+02 0.27728630E+02 0.15500000E+01 0.0000E+00 0.9000E+01
#aMCatNLO 1  0  0  5  1 0.12691861D+02 0.00000000D+00  -5  6  0 0.00000000D+00 0.00000000D+00 0.00000000D+00 0.00000000D+00 0.00000000D+00
  <mgrwgt>
 0.2647672969D-01    4    2    0
 0.190959607813821D+03 0.000000000000000D+00 0.000000000000000D+00 0.190959607813821D+03
 0.190959607813821D+03 -.000000000000000D+00 -.000000000000000D+00 -.190959607813821D+03
 0.179094043017880D+03 -.518542565037003D+02 0.360073214395391D+02 -.111643562867227D+03
 0.120439555993245D+03 0.703975450841019D+02 -.454243670849330D+02 0.319262151615980D+02
 0.823856166165164D+02 -.185432885804016D+02 0.941704564539384D+01 0.797173477056290D+02
 0.000000000000000D+00 0.000000000000000D+00 0.000000000000000D+00 0.000000000000000D+00
 0.190959607813821D+03 0.000000000000000D+00 0.000000000000000D+00 0.190959607813821D+03
 0.190959607813821D+03 -.000000000000000D+00 -.000000000000000D+00 -.190959607813821D+03
 0.174924829927228D+03 -.537407587362723D+02 0.369653649687243D+02 -.103533515193141D+03
 0.121041549828397D+03 0.691107361592933D+02 -.447708725157641D+02 0.374581893874696D+02
 0.131418041424894D+02 -.802276489188555D+01 -.949340148489843D+01 -.426820663225293D+01
 0.728110317295276D+02 -.734721253113536D+01 0.172989090319382D+02 0.703435324379245D+02
0.375579337420D-04 0.000000000000D+00 0.000000000000D+00 0.277088596847D-05 0.000000000000D+00  6 21 -3 25 24 -4 21 2 0.83382011D-02 0.10351039D+00 0.19177478D+05 0.19177478D+05 0.19177478D+05 0.12358390D+01  1  2  2  3  6  5       -4 0.261629199147D-01 0.100000000000D+01
0.701378316610D-05 0.198198661557D-05 -.758186473046D-07 0.277088596847D-05 0.000000000000D+00  6 21 -3 25 24 -4 21 4 0.83382011D-02 0.10351039D+00 0.19177478D+05 0.19177478D+05 0.19177478D+05 0.12358390D+01  1  2  3  3  6  5       -4 0.746209299771D-02 0.100000000000D+01
0.314051095865D-05 0.000000000000D+00 0.000000000000D+00 0.277088596847D-05 0.000000000000D+00  6 21 -3 25 24 -4 21 4 0.83382011D-02 0.10351039D+00 0.19177478D+05 0.19177478D+05 0.19177478D+05 0.12358390D+01  1  2 15  3  6  5       -4 0.334124740939D-02 0.100000000000D+01
-.985933750296D-05 0.000000000000D+00 0.000000000000D+00 0.277088596847D-05 0.000000000000D+00  6 21 -3 25 24 -4 21 4 0.83382011D-02 0.10351039D+00 0.19177478D+05 0.19177478D+05 0.19177478D+05 0.12358390D+01  1  2  4  3  6  5       -4 -.104895306286D-01 0.100000000000D+01
  </mgrwgt>
  </event>
  <event>
  6     66 0.50409948E-03 0.17146601E+02 0.75467711E-02 0.12125431E+00
       21 -1    0    0  501  502 0.00000000E+00 0.00000000E+00 0.84520523E+02 0.84523851E+02 0.75000000E+00 0.0000E+00 0.9000E+01
       -1 -1    0    0    0  501 -.00000000E+00 -.00000000E+00 -.29265470E+03 0.29265488E+03 0.32000000E+00 0.0000E+00 0.9000E+01
       25  1    1    2    0    0 0.51932956E+02 -.47832401E+01 -.17264209E+03 0.21943155E+03 0.12500000E+03 0.0000E+00 0.9000E+01
       24  1    1    2    0    0 -.36313708E+02 -.25283946E+02 -.10911798E+02 0.92435094E+02 0.80419002E+02 0.0000E+00 0.9000E+01
       -2  1    1    2    0  503 -.24987819E+02 0.27167975E+01 -.26248792E+02 0.36343824E+02 0.32000000E+00 0.0000E+00 0.9000E+01
       21  1    1    2  503  502 0.93685703E+01 0.27350389E+02 0.16685042E+01 0.28968264E+02 0.75000000E+00 0.0000E+00 0.9000E+01
#aMCatNLO 2  0  0  5  1 0.23893502D+02 0.00000000D+00  -5  6  0 0.00000000D+00 0.00000000D+00 0.00000000D+00 0.00000000D+00 0.00000000D+00
  <mgrwgt>
 0.4962903437D-01    2    2    0
 0.157276791800125D+03 0.000000000000000D+00 0.000000000000000D+00 0.157276791800125D+03
 0.157276791800125D+03 -.000000000000000D+00 -.000000000000000D+00 -.157276791800125D+03
 0.153591878970172D+03 0.573891435115578D+02 -.152864468443804D+02 -.666203875361863D+02
 0.102906122209127D+03 -.325883449815113D+02 -.324553009472718D+02 0.448007505019429D+02
 0.580555824209508D+02 -.248007985300466D+02 0.477417477916522D+02 0.218196370342434D+02
 0.000000000000000D+00 0.000000000000000D+00 0.000000000000000D+00 0.000000000000000D+00
 0.157276791800125D+03 0.000000000000000D+00 0.000000000000000D+00 0.157276791800125D+03
 0.157276791800125D+03 -.000000000000000D+00 -.000000000000000D+00 -.157276791800125D+03
 0.148923467482158D+03 0.519829635474737D+02 -.487950450141936D+01 -.618640534038315D+02
 0.103608039932459D+03 -.362789105635962D+02 -.253509308595511D+02 0.480476943999228D+02
 0.256566719240356D+02 -.244156810288357D+02 0.214905444509944D+01 -.758425336521326D+01
 0.363654042615968D+02 0.871162804495814D+01 0.280813809158710D+02 0.214006123691219D+02
-.313765972781D-05 0.000000000000D+00 0.000000000000D+00 0.346734864981D-06 0.000000000000D+00  6 21 -1 25 24 -2 21 4 0.13003427D-01 0.45024070D-01 0.19764313D+05 0.19764313D+05 0.19764313D+05 0.12343932D+01  1  2 13  3  6  5       -2 -.169938653310D-01 0.100000000000D+01
0.123009089022D-04 0.000000000000D+00 0.000000000000D+00 0.346040243447D-06 0.765310891294D-08  6 21 -1 25 24 -2 21 4 0.13003427D-01 0.45024070D-01 0.19764313D+05 0.19764313D+05 0.19764313D+05 0.12343932D+01  1  2  1  3  6  5       -2 0.666228996983D-01 0.100000000000D+01
  </mgrwgt>
  </event>
  <event>
  5     66 0.50409948E-03 0.13708031E+03 0.75467711E-02 0.10417424E+00
       21 -1    0    0  501  502 0.00000000E+00 0.00000000E+00 0.38254581E+03 0.38254655E+03 0.75000000E+00 0.0000E+00 0.9000E+01
       -1 -1    0    0    0  501 0.00000000E+00 0.00000000E+00 -.20016664E+03 0.20016690E+03 0.32000000E+00 0.0000E+00 0.9000E+01
       25  1    1    2    0    0 -.55144659E+02 -.42396505E+02 -.48176916E+02 0.15094506E+03 0.12500000E+03 0.0000E+00 0.9000E+01
       24  1    1    2    0    0 0.16137050E+03 -.44246716E+02 0.28829897E+02 0.18787386E+03 0.80419002E+02 0.0000E+00 0.9000E+01
       -2  1    1    2    0  502 -.10622584E+03 0.86643221E+02 0.20172619E+03 0.24389452E+03 0.32000000E+00 0.0000E+00 0.9000E+01
#aMCatNLO 1  0  0  2  1 0.72854417D+00 0.00000000D+00  -5  6  0 0.00000000D+00 0.00000000D+00 0.00000000D+00 0.00000000D+00 0.00000000D+00
  <mgrwgt>
 0.8245499919D-02    5    4    0
 0.276718627897690D+03 0.000000000000000D+00 0.000000000000000D+00 0.276718627897690D+03
 0.276718627897690D+03 0.000000000000000D+00 0.000000000000000D+00 -.276718627897690D+03
 0.174806084384310D+03 -.551446113104053D+02 -.423965432400399D+02 -.100467766485048D+03
 0.188311661726100D+03 0.161370550273092D+03 -.442467581114007D+02 -.315568675388584D+02
 0.190319509684970D+03 -.106225938962687D+03 0.866433013514406D+02 0.132024634023906D+03
 0.000000000000000D+00 0.000000000000000D+00 -.000000000000000D+00 -.000000000000000D+00
 0.381632620409612D+03 0.000000000000000D+00 0.000000000000000D+00 0.381632620409612D+03
 0.536025857204787D+03 0.000000000000000D+00 0.000000000000000D+00 -.536025857204787D+03
 0.218602941896209D+03 -.143721868545196D+03 -.375832223879299D+02 -.100467766485048D+03
 0.130786919248789D+03 0.895245192923105D+02 -.403426182694491D+02 -.315568675388584D+02
 0.263339511221975D+03 -.208368668558079D+03 0.921937749786578D+02 0.132024634023906D+03
 0.304929105247425D+03 0.262566017810965D+03 -.142679343212788D+02 -.154393236795175D+03
 0.276718627897690D+03 0.000000000000000D+00 0.000000000000000D+00 0.276718627897690D+03
 0.276718627897690D+03 0.000000000000000D+00 0.000000000000000D+00 -.276718627897690D+03
 0.174806084384310D+03 -.551446113104053D+02 -.423965432400399D+02 -.100467766485048D+03
 0.188311661726100D+03 0.161370550273092D+03 -.442467581114007D+02 -.315568675388584D+02
 0.000000000000000D+00 0.000000000000000D+00 -.000000000000000D+00 -.000000000000000D+00
 0.190319509684970D+03 -.106225938962687D+03 0.866433013514406D+02 0.132024634023906D+03
 0.381632620409612D+03 0.000000000000000D+00 0.000000000000000D+00 0.381632620409612D+03
 0.536025857204787D+03 0.000000000000000D+00 0.000000000000000D+00 -.536025857204787D+03
 0.218602941896209D+03 -.143721868545196D+03 -.375832223879299D+02 -.100467766485048D+03
 0.130786919248789D+03 0.895245192923105D+02 -.403426182694491D+02 -.315568675388584D+02
 0.304929105247425D+03 0.262566017810965D+03 -.142679343212788D+02 -.154393236795175D+03
 0.263339511221975D+03 -.208368668558079D+03 0.921937749786578D+02 0.132024634023906D+03
0.223783608934D-04 0.000000000000D+00 0.000000000000D+00 0.195394925676D-06 0.000000000000D+00  6 21 -1 25 24 -2 21 2 0.58853278D-01 0.30794944D-01 0.54237601D+05 0.54237601D+05 0.54237601D+05 0.11887985D+01  1  2  2  2  6  2       -1 0.754278852531D-02 0.100000000000D+01
-.814206404576D-06 0.118093854880D-05 -.451754631522D-07 0.195394925676D-06 0.000000000000D+00  6 21 -1 25 24 -2 21 4 0.58853278D-01 0.30794944D-01 0.54237601D+05 0.54237601D+05 0.54237601D+05 0.11887985D+01  1  2  3  2  6  2       -1 -.387841878821D-03 0.100000000000D+01
0.231809901278D-05 0.000000000000D+00 0.000000000000D+00 0.195394925676D-06 0.000000000000D+00  6 21 -1 25 24 -2 21 4 0.58853278D-01 0.30794944D-01 0.54237601D+05 0.54237601D+05 0.54237601D+05 0.11887985D+01  1  2 15  2  6  2       -1 0.110421125572D-02 0.100000000000D+01
-.530000654764D-05 0.000000000000D+00 -.183486235875D-04 0.195394925676D-06 0.000000000000D+00  6 21 -1 25 24 -2 21 4 0.58853278D-01 0.78489969D-01 0.54237601D+05 0.54237601D+05 0.54237601D+05 0.11887985D+01  1  2  5  2  6  2       -1 -.444310358016D-03 0.100000000000D+01
0.573529533972D-06 0.000000000000D+00 -.189567830987D-05 0.195394925676D-06 0.000000000000D+00  6 21 21 25 24 1 -2 4 0.58853278D-01 0.78489969D-01 0.54237601D+05 0.54237601D+05 0.54237601D+05 0.11887985D+01  3  4  5 10  5  2       -1 0.430652374650D-03 0.100000000000D+01
  </mgrwgt>
  </event>
  <event>
  6     66 0.50409948E-03 0.25245876E+02 0.75467711E-02 0.12430708E+00
       21 -1    0    0  501  502 0.00000000E+00 0.00000000E+00 0.11720913E+04 0.11720915E+04 0.75000000E+00 0.0000E+00 0.9000E+01
       -1 -1    0    0    0  501 0.00000000E+00 0.00000000E+00 -.23809684E+02 0.23811834E+02 0.32000000E+00 0.0000E+00 0.9000E+01
       25  1    1    2    0    0 -.31096791E+02 0.17128635E+02 0.23128590E+03 0.26528959E+03 0.12500000E+03 0.0000E+00 0.9000E+01
       24  1    1    2    0    0 0.63892481E+01 -.17625331E+02 0.26059135E+03 0.27336156E+03 0.80419002E+02 0.0000E+00 0.9000E+01
       -2  1    1    2    0  503 0.26013059E+02 0.13298181E+01 0.40250661E+03 0.40334863E+03 0.32000000E+00 0.0000E+00 0.9000E+01
       21  1    1    2  503  502 -.13055157E+01 -.83312216E+00 0.25389773E+03 0.25390356E+03 0.75000000E+00 0.0000E+00 0.9000E+01
#aMCatNLO 2  0  0  5  1 0.10853600D+02 0.00000000D+00  -5  6  0 0.00000000D+00 0.00000000D+00 0.00000000D+00 0.00000000D+00 0.00000000D+00
  <mgrwgt>
 0.5759791575D-02    1    2    0
 0.167058528950647D+03 0.000000000000000D+00 0.000000000000000D+00 0.167058528950647D+03
 0.167058528950647D+03 -.000000000000000D+00 -.000000000000000D+00 -.167058528950647D+03
 0.155385647535038D+03 -.314202384368168D+02 0.171221331238183D+02 -.850840797902113D+02
 0.828921215736565D+02 0.621634929176056D+01 -.176288071279822D+02 -.738038111065762D+01
 0.958392887925984D+02 0.252038891450563D+02 0.506674004163880D+00 0.924644609008689D+02
 0.000000000000000D+00 0.000000000000000D+00 0.000000000000000D+00 0.000000000000000D+00
 0.167058528950647D+03 0.000000000000000D+00 0.000000000000000D+00 0.167058528950647D+03
 0.167058528950647D+03 -.000000000000000D+00 -.000000000000000D+00 -.167058528950647D+03
 0.154674676445469D+03 -.310968957230072D+02 0.171286332852252D+02 -.838978458107427D+02
 0.828504820202124D+02 0.638919199072927D+01 -.176253324696915D+02 -.674628028245555D+01
 0.600931527755931D+02 0.259673269481691D+02 0.133148034926627D+01 0.541766748864969D+02
 0.364987466600191D+02 -.125962321589113D+01 -.834781164799983D+00 0.364674512067013D+02
0.513117188198D-05 0.000000000000D+00 0.000000000000D+00 0.484368500427D-05 0.240244877736D-04  6 21 -1 25 24 -2 21 4 0.18032192D+00 0.36632122D-02 0.14403815D+05 0.14403815D+05 0.14403815D+05 0.12498355D+01  1  2  1  3  6  5       -2 0.575979157485D-02 0.100000000000D+01
  </mgrwgt>
  </event>
  <event>
  5     66 0.50409948E-03 0.26996320E+02 0.75467711E-02 0.12293564E+00
       21 -1    0    0  501  502 0.00000000E+00 0.00000000E+00 0.12099771E+03 0.12100004E+03 0.75000000E+00 0.0000E+00 0.9000E+01
       -1 -1    0    0    0  501 0.00000000E+00 0.00000000E+00 -.13503828E+03 0.13503866E+03 0.32000000E+00 0.0000E+00 0.9000E+01
       25  1    1    2    0    0 0.30909654E+02 0.12710912E+02 -.22404444E+02 0.13131616E+03 0.12500000E+03 0.0000E+00 0.9000E+01
       24  1    1    2    0    0 -.39231623E+02 -.38390765E+02 0.83777847E+01 0.97726016E+02 0.80419002E+02 0.0000E+00 0.9000E+01
       -2  1    1    2    0  502 0.83219686E+01 0.25679853E+02 -.13911048E-01 0.26996529E+02 0.32000000E+00 0.0000E+00 0.9000E+01
#aMCatNLO 1  0  0  1  1 0.36784241D+01 0.00000000D+00  -5  6  0 0.00000000D+00 0.00000000D+00 0.00000000D+00 0.00000000D+00 0.00000000D+00
  <mgrwgt>
 0.5468259676D-02   13    4    0
 0.127826718451877D+03 0.000000000000000D+00 0.000000000000000D+00 0.127826718451877D+03
 0.127826718451877D+03 0.000000000000000D+00 0.000000000000000D+00 -.127826718451877D+03
 0.130283435452670D+03 0.309093569479717D+02 0.127099955400815D+02 -.152263331036735D+02
 0.983337529171348D+02 -.392318469053057D+02 -.383914571197668D+02 0.137575149288432D+02
 0.270362485339496D+02 0.832248995733403D+01 0.256814615796853D+02 0.146881817483028D+01
 0.000000000000000D+00 -.000000000000000D+00 -.000000000000000D+00 -.000000000000000D+00
 0.128929451628403D+03 0.000000000000000D+00 0.000000000000000D+00 0.128929451628403D+03
 0.130944762402021D+03 0.000000000000000D+00 0.000000000000000D+00 -.130944762402021D+03
 0.130772268122409D+03 0.325184101069215D+02 0.136783732297817D+02 -.152263331036735D+02
 0.975754457019244D+02 -.380243332958026D+02 -.376647382833205D+02 0.137575149288432D+02
 0.273321848853570D+02 0.865759736292773D+01 0.258831395251437D+02 0.146881817483028D+01
 0.419431532073375D+01 -.315167417404657D+01 -.189677447160490D+01 -.201531077361722D+01
 0.127826718451877D+03 0.000000000000000D+00 0.000000000000000D+00 0.127826718451877D+03
 0.127826718451877D+03 0.000000000000000D+00 0.000000000000000D+00 -.127826718451877D+03
 0.130283435452670D+03 0.309093569479717D+02 0.127099955400815D+02 -.152263331036735D+02
 0.983337529171348D+02 -.392318469053057D+02 -.383914571197668D+02 0.137575149288432D+02
 0.000000000000000D+00 -.000000000000000D+00 -.000000000000000D+00 -.000000000000000D+00
 0.270362485339496D+02 0.832248995733403D+01 0.256814615796853D+02 0.146881817483028D+01
 0.128929451628403D+03 0.000000000000000D+00 0.000000000000000D+00 0.128929451628403D+03
 0.130944762402021D+03 0.000000000000000D+00 0.000000000000000D+00 -.130944762402021D+03
 0.130772268122409D+03 0.325184101069215D+02 0.136783732297817D+02 -.152263331036735D+02
 0.975754457019244D+02 -.380243332958026D+02 -.376647382833205D+02 0.137575149288432D+02
 0.419431532073375D+01 -.315167417404657D+01 -.189677447160490D+01 -.201531077361722D+01
 0.273321848853570D+02 0.865759736292773D+01 0.258831395251437D+02 0.146881817483028D+01
0.700822840013D-06 0.000000000000D+00 0.000000000000D+00 0.712878594142D-06 0.000000000000D+00  6 21 -1 25 24 -2 21 2 0.18615241D-01 0.20775329D-01 0.16097717D+05 0.16097717D+05 0.16097717D+05 0.12443409D+01  1  2  2  1  6  1       21 0.487058711295D-02 0.100000000000D+01
0.117434756063D-07 0.369834373301D-07 -.141475939798D-08 0.712878594142D-06 0.000000000000D+00  6 21 -1 25 24 -2 21 4 0.18615241D-01 0.20775329D-01 0.16097717D+05 0.16097717D+05 0.16097717D+05 0.12443409D+01  1  2  3  1  6  1       21 0.126371298586D-03 0.100000000000D+01
0.738793145118D-07 0.000000000000D+00 0.000000000000D+00 0.712878594142D-06 0.000000000000D+00  6 21 -1 25 24 -2 21 4 0.18615241D-01 0.20775329D-01 0.16097717D+05 0.16097717D+05 0.16097717D+05 0.12443409D+01  1  2 15  1  6  1       21 0.795013778415D-03 0.100000000000D+01
-.681074204919D-06 0.000000000000D+00 0.000000000000D+00 0.712878594142D-06 0.000000000000D+00  6 21 -1 25 24 -2 21 4 0.18615241D-01 0.20775329D-01 0.16097717D+05 0.16097717D+05 0.16097717D+05 0.12443409D+01  1  2  4  1  6  1       21 -.732902546013D-02 0.100000000000D+01
0.651798638680D-06 0.000000000000D+00 0.000000000000D+00 0.712878594142D-06 0.521351837726D-06  6 21 -1 25 24 -2 21 4 0.18775831D-01 0.21282096D-01 0.16570723D+05 0.16570723D+05 0.16570723D+05 0.12429219D+01  1  2 11  1  6  1       21 0.661409920601D-02 0.100000000000D+01
0.189791800674D-07 0.000000000000D+00 0.000000000000D+00 0.711253686364D-06 0.609274310769D-08  6 -1 -1 25 24 -2 -1 4 0.18775831D-01 0.21282096D-01 0.16570723D+05 0.16570723D+05 0.16570723D+05 0.12429219D+01  1  2 11  4  6  1       21 0.147774296345D-04 0.100000000000D+01
0.244271352525D-07 0.000000000000D+00 0.000000000000D+00 0.711253686364D-06 0.137570584896D-08  6 1 -1 25 24 1 -2 4 0.18775831D-01 0.21282096D-01 0.16570723D+05 0.16570723D+05 0.16570723D+05 0.12429219D+01  3  4 11  5  5  1       21 0.280254959596D-04 0.100000000000D+01
0.234804763399D-07 0.000000000000D+00 0.000000000000D+00 0.711253686364D-06 0.738981438237D-09  6 -2 -1 25 24 -2 -2 4 0.18775831D-01 0.21282096D-01 0.16570723D+05 0.16570723D+05 0.16570723D+05 0.12429219D+01  1  2 11  6  6  1       21 0.168058093592D-04 0.100000000000D+01
0.206088415863D-06 0.000000000000D+00 0.000000000000D+00 0.711253686364D-06 0.108925379493D-06  6 2 -1 25 24 2 -2 4 0.18775831D-01 0.21282096D-01 0.16570723D+05 0.16570723D+05 0.16570723D+05 0.12429219D+01  3  4 11  7  5  1       21 0.289470453754D-03 0.100000000000D+01
0.243483936848D-07 0.000000000000D+00 0.000000000000D+00 0.711253686364D-06 0.137127122189D-08  6 -3 -1 25 24 -2 -3 4 0.18775831D-01 0.21282096D-01 0.16570723D+05 0.16570723D+05 0.16570723D+05 0.12429219D+01  1  2 11  8  6  1       21 0.113716384589D-04 0.100000000000D+01
0.243483936848D-07 0.000000000000D+00 0.000000000000D+00 0.711253686364D-06 0.137127122189D-08  6 -4 -1 25 24 -2 -4 4 0.18775831D-01 0.21282096D-01 0.16570723D+05 0.16570723D+05 0.16570723D+05 0.12429219D+01  1  2 11  8  6  1       21 0.969623777946D-05 0.100000000000D+01
0.243483936848D-07 0.000000000000D+00 0.000000000000D+00 0.711253686364D-06 0.137127122189D-08  6 3 -1 25 24 3 -2 4 0.18775831D-01 0.21282096D-01 0.16570723D+05 0.16570723D+05 0.16570723D+05 0.12429219D+01  3  4 11  9  5  1       21 0.113704374021D-04 0.100000000000D+01
0.243483936848D-07 0.000000000000D+00 0.000000000000D+00 0.711253686364D-06 0.137127122189D-08  6 4 -1 25 24 4 -2 4 0.18775831D-01 0.21282096D-01 0.16570723D+05 0.16570723D+05 0.16570723D+05 0.12429219D+01  3  4 11  9  5  1       21 0.969623777946D-05 0.100000000000D+01
  </mgrwgt>
  </event>
  <event>
  6     66 0.50409948E-03 0.52473920E+02 0.75467711E-02 0.12017636E+00
       21 -1    0    0  501  502 0.00000000E+00 0.00000000E+00 0.24838457E+03 0.24838570E+03 0.75000000E+00 0.0000E+00 0.9000E+01
       -3 -1    0    0    0  501 0.00000000E+00 0.00000000E+00 -.18141321E+03 0.18141389E+03 0.50000000E+00 0.0000E+00 0.9000E+01
       25  1    1    2    0    0 0.21450366E+02 0.39811943E+01 -.10611565E+03 0.16541312E+03 0.12500000E+03 0.0000E+00 0.9000E+01
       24  1    1    2    0    0 -.61347826E+02 0.23566134E+02 0.33788121E+02 0.10921434E+03 0.80419002E+02 0.0000E+00 0.9000E+01
       -4  1    1    2    0  503 -.10113729E+02 0.97597271E+00 0.28664365E+02 0.30451410E+02 0.15500000E+01 0.0000E+00 0.9000E+01
       21  1    1    2  503  502 0.50011189E+02 -.28523301E+02 0.11063454E+03 0.12472073E+03 0.75000000E+00 0.0000E+00 0.9000E+01
#aMCatNLO 2  0  0  5  1 0.17389408D+02 0.00000000D+00  -5  6  0 0.00000000D+00 0.00000000D+00 0.00000000D+00 0.00000000D+00 0.00000000D+00
  <mgrwgt>
 0.1348893884D-02    1    2    0
 0.212274899036575D+03 0.000000000000000D+00 0.000000000000000D+00 0.212274899036575D+03
 0.212274899036575D+03 -.000000000000000D+00 -.000000000000000D+00 -.212274899036575D+03
 0.186723371736054D+03 0.202097689858069D+02 0.483776824726164D+01 -.137145101219135D+03
 0.105445930673614D+03 -.620524763304782D+02 0.240526624205701D+02 0.149193817898582D+02
 0.132380495663481D+03 0.418427073446713D+02 -.288904306678317D+02 0.122225719429277D+03
 0.000000000000000D+00 0.000000000000000D+00 0.000000000000000D+00 0.000000000000000D+00
 0.212274899036575D+03 0.000000000000000D+00 0.000000000000000D+00 0.212274899036575D+03
 0.212274899036575D+03 -.000000000000000D+00 -.000000000000000D+00 -.212274899036575D+03
 0.184328219560601D+03 0.213857787677809D+02 0.402578854453960D+01 -.133709887515738D+03
 0.105244755641918D+03 -.613847139117482D+02 0.235916037299363D+02 0.168699664249488D+02
 0.249805184420151D+02 -.973205822152320D+01 0.974363287140583D+00 0.229861688976091D+02
 0.109996304428615D+03 0.497309933654904D+02 -.285917555616165D+02 0.938537521931805D+02
0.148675729053D-05 0.000000000000D+00 0.000000000000D+00 0.115882411722D-05 0.183809088163D-07  6 21 -3 25 24 -4 21 4 0.38213151D-01 0.27909864D-01 0.22187439D+05 0.22187439D+05 0.22187439D+05 0.12288941D+01  1  2  1  3  6  5       -4 0.134889388416D-02 0.100000000000D+01
  </mgrwgt>
  </event>
  <event>
  5     66 0.50409948E-03 0.36442543E+02 0.75467711E-02 0.11872931E+00
       21 -1    0    0  501  502 0.00000000E+00 0.00000000E+00 0.46726132E+02 0.46732150E+02 0.75000000E+00 0.0000E+00 0.9000E+01
       -1 -1    0    0    0  501 0.00000000E+00 0.00000000E+00 -.60377680E+03 0.60377689E+03 0.32000000E+00 0.0000E+00 0.9000E+01
       25  1    1    2    0    0 -.32319420E+02 0.58455937E+00 -.33038662E+03 0.35471849E+03 0.12500000E+03 0.0000E+00 0.9000E+01
       24  1    1    2    0    0 0.65821807E+02 0.13754650E+02 -.51351165E+02 0.11672985E+03 0.80419002E+02 0.0000E+00 0.9000E+01
       -2  1    1    2    0  502 -.33502387E+02 -.14339209E+02 -.17531288E+03 0.17906070E+03 0.32000000E+00 0.0000E+00 0.9000E+01
#aMCatNLO 1  0  0  1  2 0.48360725D+02 0.00000000D+00  -5  6  0 0.00000000D+00 0.00000000D+00 0.00000000D+00 0.00000000D+00 0.00000000D+00
  <mgrwgt>
 0.1234206677D-01   14    4    0
 0.167970651265073D+03 0.000000000000000D+00 0.000000000000000D+00 0.167970651265073D+03
 0.167970651265073D+03 0.000000000000000D+00 0.000000000000000D+00 -.167970651265073D+03
 0.139028574870860D+03 -.323191942971371D+02 0.584656160628100D+00 -.515661952036424D+02
 0.140883922872545D+03 0.658220361170511D+02 0.137547480497674D+02 0.941240151984596D+02
 0.560288047867393D+02 -.335028418199140D+02 -.143394042103955D+02 -.425578199948171D+02
 0.000000000000000D+00 -.000000000000000D+00 -.000000000000000D+00 0.000000000000000D+00
 0.210059629122683D+03 0.000000000000000D+00 0.000000000000000D+00 0.210059629122683D+03
 0.184189961155636D+03 0.000000000000000D+00 0.000000000000000D+00 -.184189961155636D+03
 0.139053881657537D+03 -.259520939279149D+02 0.194524635202027D+02 -.515661952036424D+02
 0.147242075466227D+03 0.724190979141443D+02 0.333040065675766D+02 0.941240151984596D+02
 0.531084012556863D+02 -.310039875104274D+02 -.693447904870914D+01 -.425578199948171D+02
 0.548452318988698D+02 -.154630164758021D+02 -.458219910390702D+02 0.258696679670468D+02
 0.167970651265073D+03 0.000000000000000D+00 0.000000000000000D+00 0.167970651265073D+03
 0.167970651265073D+03 0.000000000000000D+00 0.000000000000000D+00 -.167970651265073D+03
 0.139028574870860D+03 -.323191942971371D+02 0.584656160628100D+00 -.515661952036424D+02
 0.140883922872545D+03 0.658220361170511D+02 0.137547480497674D+02 0.941240151984596D+02
 0.000000000000000D+00 -.000000000000000D+00 -.000000000000000D+00 0.000000000000000D+00
 0.560288047867393D+02 -.335028418199140D+02 -.143394042103955D+02 -.425578199948171D+02
 0.210059629122683D+03 0.000000000000000D+00 0.000000000000000D+00 0.210059629122683D+03
 0.184189961155636D+03 0.000000000000000D+00 0.000000000000000D+00 -.184189961155636D+03
 0.139053881657537D+03 -.259520939279149D+02 0.194524635202027D+02 -.515661952036424D+02
 0.147242075466227D+03 0.724190979141443D+02 0.333040065675766D+02 0.941240151984596D+02
 0.548452318988698D+02 -.154630164758021D+02 -.458219910390702D+02 0.258696679670468D+02
 0.531084012556863D+02 -.310039875104274D+02 -.693447904870914D+01 -.425578199948171D+02
0.293339622349D-05 0.000000000000D+00 0.000000000000D+00 0.125630977356D-06 0.000000000000D+00  6 21 -1 25 24 -2 21 2 0.71891051D-02 0.92889209D-01 0.18276687D+05 0.18276687D+05 0.18276687D+05 0.12381576D+01  1  2  2  1  6  1       21 0.722915466848D-02 0.100000000000D+01
-.247730260980D-06 0.154799571592D-06 -.592168182632D-08 0.125630977356D-06 0.000000000000D+00  6 21 -1 25 24 -2 21 4 0.71891051D-02 0.92889209D-01 0.18276687D+05 0.18276687D+05 0.18276687D+05 0.12381576D+01  1  2  3  1  6  1       21 -.935939340080D-03 0.100000000000D+01
0.312824148168D-06 0.000000000000D+00 0.000000000000D+00 0.125630977356D-06 0.000000000000D+00  6 21 -1 25 24 -2 21 4 0.71891051D-02 0.92889209D-01 0.18276687D+05 0.18276687D+05 0.18276687D+05 0.12381576D+01  1  2 15  1  6  1       21 0.118186783334D-02 0.100000000000D+01
-.261158268873D-05 0.000000000000D+00 0.000000000000D+00 0.125630977356D-06 0.000000000000D+00  6 21 -1 25 24 -2 21 4 0.71891051D-02 0.92889209D-01 0.18276687D+05 0.18276687D+05 0.18276687D+05 0.12381576D+01  1  2  4  1  6  1       21 -.986671135202D-02 0.100000000000D+01
-.123971446603D-04 0.000000000000D+00 -.427757126817D-05 0.125630977356D-06 0.000000000000D+00  6 21 -1 25 24 -2 21 4 0.98453081D-02 0.92889209D-01 0.18276687D+05 0.18276687D+05 0.18276687D+05 0.12381576D+01  1  2  5  1  6  1       21 -.271704471963D-01 0.100000000000D+01
0.113691034042D-04 0.000000000000D+00 0.353722532823D-05 0.125630977356D-06 0.000000000000D+00  6 21 -1 25 24 -2 21 4 0.71891051D-02 0.92889209D-01 0.18276687D+05 0.18276687D+05 0.18276687D+05 0.12381576D+01  1  2  6  1  6  1       21 0.429531341683D-01 0.100000000000D+01
-.102227641722D-05 0.000000000000D+00 -.426682959585D-06 0.125630977356D-06 0.000000000000D+00  6 -1 -1 25 24 -2 -1 4 0.98453081D-02 0.92889209D-01 0.18276687D+05 0.18276687D+05 0.18276687D+05 0.12381576D+01  1  2  5  4  6  1       21 -.147992126116D-03 0.100000000000D+01
-.102227641722D-05 0.000000000000D+00 -.426682959585D-06 0.125630977356D-06 0.000000000000D+00  6 1 -1 25 24 1 -2 4 0.98453081D-02 0.92889209D-01 0.18276687D+05 0.18276687D+05 0.18276687D+05 0.12381576D+01  3  4  5  5  5  1       21 -.184916479464D-03 0.100000000000D+01
-.102227641722D-05 0.000000000000D+00 -.426682959585D-06 0.125630977356D-06 0.000000000000D+00  6 -2 -1 25 24 -2 -2 4 0.98453081D-02 0.92889209D-01 0.18276687D+05 0.18276687D+05 0.18276687D+05 0.12381576D+01  1  2  5  6  6  1       21 -.141572443458D-03 0.100000000000D+01
-.102227641722D-05 0.000000000000D+00 -.426682959585D-06 0.125630977356D-06 0.000000000000D+00  6 2 -1 25 24 2 -2 4 0.98453081D-02 0.92889209D-01 0.18276687D+05 0.18276687D+05 0.18276687D+05 0.12381576D+01  3  4  5  7  5  1       21 -.209856066688D-03 0.100000000000D+01
-.102227641722D-05 0.000000000000D+00 -.426682959585D-06 0.125630977356D-06 0.000000000000D+00  6 -3 -1 25 24 -2 -3 4 0.98453081D-02 0.92889209D-01 0.18276687D+05 0.18276687D+05 0.18276687D+05 0.12381576D+01  1  2  5  8  6  1       21 -.973428465134D-04 0.100000000000D+01
-.102227641722D-05 0.000000000000D+00 -.426682959585D-06 0.125630977356D-06 0.000000000000D+00  6 -4 -1 25 24 -2 -4 4 0.98453081D-02 0.92889209D-01 0.18276687D+05 0.18276687D+05 0.18276687D+05 0.12381576D+01  1  2  5  8  6  1       21 -.849907980633D-04 0.100000000000D+01
-.102227641722D-05 0.000000000000D+00 -.426682959585D-06 0.125630977356D-06 0.000000000000D+00  6 3 -1 25 24 3 -2 4 0.98453081D-02 0.92889209D-01 0.18276687D+05 0.18276687D+05 0.18276687D+05 0.12381576D+01  3  4  5  9  5  1       21 -.973304496776D-04 0.100000000000D+01
-.102227641722D-05 0.000000000000D+00 -.426682959585D-06 0.125630977356D-06 0.000000000000D+00  6 4 -1 25 24 4 -2 4 0.98453081D-02 0.92889209D-01 0.18276687D+05 0.18276687D+05 0.18276687D+05 0.12381576D+01  3  4  5  9  5  1       21 -.849907980633D-04 0.100000000000D+01
  </mgrwgt>
  </event>
  <event>
  5     66 0.50409948E-03 0.30373931E+02 0.75467711E-02 0.11569479E+00
       21 -1    0    0  501  502 0.00000000E+00 0.00000000E+00 0.72387555E+03 0.72387593E+03 0.75000000E+00 0.0000E+00 0.9000E+01
       -3 -1    0    0    0  501 0.00000000E+00 0.00000000E+00 -.75750817E+02 0.75752467E+02 0.50000000E+00 0.0000E+00 0.9000E+01
       25  1    1    2    0    0 0.18633471E+02 0.54605982E+02 0.52530070E+02 0.14735477E+03 0.12500000E+03 0.0000E+00 0.9000E+01
       24  1    1    2    0    0 -.11632192E+02 -.84161081E+02 0.94848952E+02 0.15060523E+03 0.80419002E+02 0.0000E+00 0.9000E+01
       -4  1    1    2    0  502 -.70012781E+01 0.29555099E+02 0.50074571E+03 0.50166840E+03 0.15500000E+01 0.0000E+00 0.9000E+01
#aMCatNLO 1  0  0  5  1 0.27014301D+02 0.00000000D+00  -5  6  0 0.00000000D+00 0.00000000D+00 0.00000000D+00 0.00000000D+00 0.00000000D+00
  <mgrwgt>
 0.2057011812D-01    4    2    0
 0.234168697178440D+03 0.000000000000000D+00 0.000000000000000D+00 0.234168697178440D+03
 0.234168697178440D+03 -.000000000000000D+00 -.000000000000000D+00 -.234168697178440D+03
 0.178896195273700D+03 0.186335906382214D+02 0.546054749842101D+02 -.114236071733415D+03
 0.125880852867811D+03 -.116321078952463D+02 -.841614374351686D+02 -.464792392269551D+02
 0.163560346215368D+03 -.700148274297509D+01 0.295559624509586D+02 0.160715310960370D+03
 0.000000000000000D+00 0.000000000000000D+00 0.000000000000000D+00 0.000000000000000D+00
 0.234168697178440D+03 0.000000000000000D+00 0.000000000000000D+00 0.234168697178440D+03
 0.234168697178440D+03 -.000000000000000D+00 -.000000000000000D+00 -.234168697178440D+03
 0.164533062612315D+03 0.174524120920550D+02 0.595916857684042D+02 -.871227466970409D+02
 0.117750820310126D+03 -.124700461282780D+02 -.806241765633116D+02 -.272448129445518D+02
 0.758888766644635D+02 -.510317873844887D+02 0.527000619543846D+02 0.194314628307421D+02
 0.110164634769975D+03 0.460494214207117D+02 -.316675711594771D+02 0.949360968108506D+02
0.679155641235D-04 0.000000000000D+00 0.000000000000D+00 0.575453563169D-05 0.000000000000D+00  6 21 -3 25 24 -4 21 2 0.11136563D+00 0.11654129D-01 0.20310968D+05 0.20310968D+05 0.20310968D+05 0.12330890D+01  1  2  2  3  6  5       -4 0.184703278268D-01 0.100000000000D+01
0.141167067898D-04 0.358400278372D-05 -.137101956624D-06 0.575453563169D-05 0.000000000000D+00  6 21 -3 25 24 -4 21 4 0.11136563D+00 0.11654129D-01 0.20310968D+05 0.20310968D+05 0.20310968D+05 0.12330890D+01  1  2  3  3  6  5       -4 0.583750902573D-02 0.100000000000D+01
0.626216411519D-05 0.000000000000D+00 0.000000000000D+00 0.575453563169D-05 0.000000000000D+00  6 21 -3 25 24 -4 21 4 0.11136563D+00 0.11654129D-01 0.20310968D+05 0.20310968D+05 0.20310968D+05 0.12330890D+01  1  2 15  3  6  5       -4 0.258951610226D-02 0.100000000000D+01
-.153009988670D-04 0.000000000000D+00 0.000000000000D+00 0.575453563169D-05 0.000000000000D+00  6 21 -3 25 24 -4 21 4 0.11136563D+00 0.11654129D-01 0.20310968D+05 0.20310968D+05 0.20310968D+05 0.12330890D+01  1  2  4  3  6  5       -4 -.632723483733D-02 0.100000000000D+01
  </mgrwgt>
  </event>
  <event>
  6     66 -.50409948E-03 0.51009701E+02 0.75467711E-02 0.11544807E+00
       21 -1    0    0  503  502 0.00000000E+00 0.00000000E+00 0.11109849E+03 0.11110102E+03 0.75000000E+00 0.0000E+00 0.9000E+01
       -1 -1    0    0    0  501 0.00000000E+00 0.00000000E+00 -.10323886E+04 0.10323886E+04 0.32000000E+00 0.0000E+00 0.9000E+01
       25  1    1    2    0    0 -.39425328E+02 0.11075608E+03 -.25518790E+03 0.30751769E+03 0.12500000E+03 0.0000E+00 0.9000E+01
       24  1    1    2    0    0 -.22656332E+01 -.13487250E+03 -.72635568E+03 0.74313896E+03 0.80419002E+02 0.0000E+00 0.9000E+01
       -2  1    1    2    0  502 0.45874563E+02 0.28700205E+02 0.65293755E+02 0.84803032E+02 0.32000000E+00 0.0000E+00 0.9000E+01
       21  1    1    2  503  501 -.41836018E+01 -.45837826E+01 -.50402441E+01 0.80299531E+01 0.75000000E+00 0.0000E+00 0.9000E+01
#aMCatNLO 2  0  0  1  2 0.62059315D+01 0.00000000D+00  -5  6  0 0.00000000D+00 0.00000000D+00 0.00000000D+00 0.00000000D+00 0.00000000D+00
  <mgrwgt>
 -.1043810459D-01    3    2    0
 0.335304501341894D+03 0.000000000000000D+00 0.000000000000000D+00 0.335304501341894D+03
 0.335304501341894D+03 0.000000000000000D+00 0.000000000000000D+00 -.335304501341894D+03
 0.171508775918507D+03 -.404968468048038D+02 0.109582068435091D+03 -.119178812471012D+02
 0.266785587514038D+03 -.392700360896660D+01 -.136692780047696D+03 -.214492415428442D+03
 0.232314639251242D+03 0.444238504137704D+02 0.271107116126053D+02 0.226410296675544D+03
 0.000000000000000D+00 -.000000000000000D+00 -.000000000000000D+00 0.000000000000000D+00
 0.339870999737070D+03 0.000000000000000D+00 0.000000000000000D+00 0.339870999737070D+03
 0.337433994556765D+03 0.000000000000000D+00 0.000000000000000D+00 -.337433994556765D+03
 0.172012500931321D+03 -.394253390808485D+02 0.110756070811436D+03 -.119178812471012D+02
 0.265838182525912D+03 -.226564950364436D+01 -.134872509764995D+03 -.214492415428442D+03
 0.232787033992959D+03 0.458745903501021D+02 0.287002215103277D+02 0.226410296675544D+03
 0.666727684364283D+01 -.418360176560921D+01 -.458378255676856D+01 0.243700518030465D+01
-.201803236045D-04 0.000000000000D+00 0.000000000000D+00 0.113877591145D-05 0.000000000000D+00  6 21 -1 25 24 -2 21 4 0.17144218D-01 0.15781705D+00 0.37822886D+05 0.37822886D+05 0.37822886D+05 0.12044763D+01  1  2 13  1  6  1       21 -.408004555284D-02 0.100000000000D+01
-.159524353648D-03 0.000000000000D+00 0.000000000000D+00 0.114191302738D-05 0.000000000000D+00  6 21 -1 25 24 -2 21 4 0.16861575D-01 0.15781705D+00 0.36438992D+05 0.36438992D+05 0.36438992D+05 0.12061342D+01  1  2  8  1  6  1       21 -.334850219278D-01 0.100000000000D+01
0.135695620489D-03 0.000000000000D+00 0.000000000000D+00 0.114191302738D-05 0.236415428573D-06  6 21 -1 25 24 -2 21 4 0.17091212D-01 0.15881934D+00 0.37822886D+05 0.37822886D+05 0.37822886D+05 0.12044763D+01  1  2  1  1  6  1       21 0.271269628899D-01 0.100000000000D+01
  </mgrwgt>
  </event>
  <event>
  5     66 0.50409948E-03 0.39280229E+02 0.75467711E-02 0.99764406E-01
       21 -1    0    0  501  502 0.00000000E+00 0.00000000E+00 0.74166843E+03 0.74166881E+03 0.75000000E+00 0.0000E+00 0.9000E+01
       -3 -1    0    0    0  501 0.00000000E+00 0.00000000E+00 -.52453613E+03 0.52453637E+03 0.50000000E+00 0.0000E+00 0.9000E+01
       25  1    1    2    0    0 -.16916521E+03 -.32471839E+02 -.31460811E+03 0.37983490E+03 0.12500000E+03 0.0000E+00 0.9000E+01
       24  1    1    2    0    0 0.13464307E+03 0.13732795E+02 -.14168414E+03 0.21179933E+03 0.80419002E+02 0.0000E+00 0.9000E+01
       -4  1    1    2    0  502 0.34522144E+02 0.18739043E+02 0.67342455E+03 0.67457094E+03 0.15500000E+01 0.0000E+00 0.9000E+01
#aMCatNLO 1  0  0  1  2 0.33193313D+02 0.00000000D+00  -5  6  0 0.00000000D+00 0.00000000D+00 0.00000000D+00 0.00000000D+00 0.00000000D+00
  <mgrwgt>
 0.1348713009D+00    3    2    0
 0.623724521839490D+03 0.000000000000000D+00 0.000000000000000D+00 0.623724521839490D+03
 0.623724521839490D+03 0.000000000000000D+00 0.000000000000000D+00 -.623724521839490D+03
 0.440307633086052D+03 -.169165257129893D+03 -.324718633059881D+02 -.385453636158041D+03
 0.239645845739244D+03 0.134643043412342D+03 0.137327817734465D+02 -.180680870573318D+03
 0.567495564853685D+03 0.345222137175502D+02 0.187390815325415D+02 0.566134506731359D+03
 0.000000000000000D+00 0.000000000000000D+00 -.000000000000000D+00 -.000000000000000D+00
 0.819500746185886D+03 0.000000000000000D+00 0.000000000000000D+00 0.819500746185886D+03
 0.103700872306750D+04 0.000000000000000D+00 0.000000000000000D+00 -.103700872306750D+04
 0.524635318763332D+03 -.330766710106484D+03 0.404486779979393D+02 -.385453636158041D+03
 0.211865435199672D+03 0.590272996057181D+02 0.478533968292830D+02 -.180680870573318D+03
 0.598113178275337D+03 -.160685250237552D+03 0.106823895598136D+03 0.566134506731359D+03
 0.521895537015041D+03 0.432424660738318D+03 -.195125970425358D+03 -.217507976881611D+03
0.128911221472D-01 0.000000000000D+00 0.000000000000D+00 0.161154644067D-04 0.000000000000D+00  6 21 -3 25 24 -4 21 2 0.11410288D+00 0.80697914D-01 0.41930881D+05 0.41930881D+05 0.41930881D+05 0.11999267D+01  1  2  2  1  6  1       21 0.796651893872D-01 0.100000000000D+01
0.496214934356D-02 0.680283205433D-03 -.260234615183D-04 0.161154644067D-04 0.000000000000D+00  6 21 -3 25 24 -4 21 4 0.11410288D+00 0.80697914D-01 0.41930881D+05 0.41930881D+05 0.41930881D+05 0.11999267D+01  1  2  3  1  6  1       21 0.441526845103D-01 0.100000000000D+01
0.124225187993D-02 0.000000000000D+00 0.000000000000D+00 0.161154644067D-04 0.000000000000D+00  6 21 -3 25 24 -4 21 4 0.11410288D+00 0.80697914D-01 0.41930881D+05 0.41930881D+05 0.41930881D+05 0.11999267D+01  1  2 15  1  6  1       21 0.110534269607D-01 0.100000000000D+01
  </mgrwgt>
  </event>
  <event>
  6     66 0.50409948E-03 0.98575216E+02 0.75467711E-02 0.11348488E+00
       21 -1    0    0  501  503 0.00000000E+00 0.00000000E+00 0.63597889E+03 0.63597933E+03 0.75000000E+00 0.0000E+00 0.9000E+01
       -1 -1    0    0    0  501 0.00000000E+00 0.00000000E+00 -.33306124E+03 0.33306139E+03 0.32000000E+00 0.0000E+00 0.9000E+01
       25  1    1    2    0    0 -.34425069E+02 -.61946218E+01 -.64549710E+02 0.14496594E+03 0.12500000E+03 0.0000E+00 0.9000E+01
       24  1    1    2    0    0 -.63676287E+02 0.16311071E+02 -.19737796E+03 0.22303811E+03 0.80419002E+02 0.0000E+00 0.9000E+01
       -2  1    1    2    0  502 -.23210994E+02 -.66164990E+02 0.23204168E+03 0.24240462E+03 0.32000000E+00 0.0000E+00 0.9000E+01
       21  1    1    2  502  503 0.12131235E+03 0.56048540E+02 0.33280364E+03 0.35863206E+03 0.75000000E+00 0.0000E+00 0.9000E+01
#aMCatNLO 2  0  0  1  5 0.12863632D+01 0.00000000D+00  -5  6  0 0.00000000D+00 0.00000000D+00 0.00000000D+00 0.00000000D+00 0.00000000D+00
  <mgrwgt>
 0.2779614875D-03    1    2    0
 0.297425385347747D+03 0.000000000000000D+00 0.000000000000000D+00 0.297425385347747D+03
 0.297425385347747D+03 0.000000000000000D+00 0.000000000000000D+00 -.297425385347747D+03
 0.137910151494582D+03 -.623673850642468D+01 0.682891654156348D+01 -.575211167913967D+02
 0.207505970668860D+03 -.212621040638020D+02 0.359072211412339D+02 -.186681831760752D+03
 0.249434648532052D+03 0.274988425702267D+02 -.427361376827973D+02 0.244202948552148D+03
 0.000000000000000D+00 0.000000000000000D+00 0.000000000000000D+00 0.000000000000000D+00
 0.667917394324892D+03 0.000000000000000D+00 0.000000000000000D+00 0.667917394324892D+03
 0.317134608261483D+03 0.000000000000000D+00 0.000000000000000D+00 -.317134608261483D+03
 0.141975836492855D+03 -.344250781971573D+02 -.619461556804816D+01 -.575211167913967D+02
 0.213630629327867D+03 -.636763085842540D+02 0.163110774684887D+02 -.186681831760752D+03
 0.254070140614441D+03 -.232109629989222D+02 -.661650018283184D+02 0.244202948552148D+03
 0.375375396151213D+03 0.121312349780333D+03 0.560485399278778D+02 0.350782786063409D+03
0.441818816166D-05 0.000000000000D+00 0.000000000000D+00 0.491547182971D-05 0.322300697930D-08  6 21 -1 25 24 -2 21 4 0.97842840D-01 0.51240178D-01 0.47833862D+05 0.47833862D+05 0.47833862D+05 0.11941914D+01  1  2  1  1  6  1       21 0.277961487542D-03 0.100000000000D+01
  </mgrwgt>
  </event>
  <event>
  5     66 -.50409948E-03 0.21592018E+03 0.75467711E-02 0.10981528E+00
       21 -1    0    0  501  502 0.00000000E+00 0.00000000E+00 0.97241743E+03 0.97241772E+03 0.75000000E+00 0.0000E+00 0.9000E+01
       -3 -1    0    0    0  501 0.00000000E+00 0.00000000E+00 -.11878718E+03 0.11878823E+03 0.50000000E+00 0.0000E+00 0.9000E+01
       25  1    1    2    0    0 -.51246659E+02 -.13209787E+03 0.29738753E+02 0.19127326E+03 0.12500000E+03 0.0000E+00 0.9000E+01
       24  1    1    2    0    0 0.67212193E+02 -.83229182E+02 0.20848454E+03 0.24774502E+03 0.80419002E+02 0.0000E+00 0.9000E+01
       -4  1    1    2    0  502 -.15965534E+02 0.21532705E+03 0.61540696E+03 0.65218767E+03 0.15500000E+01 0.0000E+00 0.9000E+01
#aMCatNLO 1  0  0  5  2 0.35381102D+02 0.00000000D+00  -5  6  0 0.00000000D+00 0.00000000D+00 0.00000000D+00 0.00000000D+00 0.00000000D+00
  <mgrwgt>
 -.1093995855D-02    6    2    0
 0.339869764895432D+03 0.000000000000000D+00 0.000000000000000D+00 0.339869764895432D+03
 0.339869764895432D+03 -.000000000000000D+00 -.000000000000000D+00 -.339869764895432D+03
 0.269711519488829D+03 -.512465579473221D+02 -.132099231920361D+03 -.192465287700342D+03
 0.135893775246962D+03 0.672122442351190D+02 -.832298702846879D+02 0.235627908740452D+02
 0.274134235055073D+03 -.159656862877969D+02 0.215329102205049D+03 0.168902496826297D+03
 0.000000000000000D+00 0.000000000000000D+00 0.000000000000000D+00 0.000000000000000D+00
 0.339869764895432D+03 0.000000000000000D+00 0.000000000000000D+00 0.339869764895432D+03
 0.339869764895432D+03 -.000000000000000D+00 -.000000000000000D+00 -.339869764895432D+03
 0.260856284058250D+03 -.518862729931554D+02 -.123471399454955D+03 -.185697682064675D+03
 0.133741479777684D+03 0.668871402081253D+02 -.788451944872371D+02 0.270020969519485D+02
 0.247621800253017D+03 0.166213801441779D+02 0.204510079249344D+03 0.138621474411704D+03
 0.375199657019130D+02 -.316222473591478D+02 -.219348530715128D+01 0.200741107010225D+02
0.146609040709D-04 0.000000000000D+00 0.000000000000D+00 0.164751692513D-06 0.000000000000D+00  6 21 -3 25 24 -4 21 2 0.14960278D+00 0.18275054D-01 0.72550436D+05 0.72550436D+05 0.72550436D+05 0.11765949D+01  1  2  2  3  6  5       -4 0.774264237062D-03 0.100000000000D+01
-.916749627103D-06 0.773677163400D-06 -.295961413254D-07 0.164751692513D-06 0.000000000000D+00  6 21 -3 25 24 -4 21 4 0.14960278D+00 0.18275054D-01 0.72550436D+05 0.72550436D+05 0.72550436D+05 0.11765949D+01  1  2  3  3  6  5       -4 -.670244292404D-04 0.100000000000D+01
0.167407538379D-05 0.000000000000D+00 0.000000000000D+00 0.164751692513D-06 0.000000000000D+00  6 21 -3 25 24 -4 21 4 0.14960278D+00 0.18275054D-01 0.72550436D+05 0.72550436D+05 0.72550436D+05 0.11765949D+01  1  2 15  3  6  5       -4 0.122393229064D-03 0.100000000000D+01
-.296511329151D-04 0.000000000000D+00 0.000000000000D+00 0.164751692513D-06 0.000000000000D+00  6 21 -3 25 24 -4 21 4 0.14960278D+00 0.18275054D-01 0.72550436D+05 0.72550436D+05 0.72550436D+05 0.11765949D+01  1  2  4  3  6  5       -4 -.216782227253D-02 0.100000000000D+01
-.228561743868D-04 0.000000000000D+00 0.000000000000D+00 0.164751692513D-06 0.000000000000D+00  6 21 -3 25 24 -4 21 4 0.14960278D+00 0.18275054D-01 0.72550436D+05 0.72550436D+05 0.72550436D+05 0.11765949D+01  1  2  5  3  6  5       -4 -.167103645053D-02 0.100000000000D+01
0.261962131329D-04 0.000000000000D+00 -.000000000000D+00 0.164751692513D-06 0.000000000000D+00  6 21 -3 25 24 -4 21 4 0.14960278D+00 0.18275054D-01 0.72550436D+05 0.72550436D+05 0.72550436D+05 0.11765949D+01  1  2  6  3  6  5       -4 0.191522983112D-02 0.100000000000D+01
  </mgrwgt>
  </event>
  <event>
  5     66 0.50409948E-03 0.40015583E+02 0.75467711E-02 0.80661518E-01
       21 -1    0    0  501  502 0.00000000E+00 0.00000000E+00 0.21744358E+03 0.21744487E+03 0.75000000E+00 0.0000E+00 0.9000E+01
       -3 -1    0    0    0  501 0.00000000E+00 0.00000000E+00 -.47227031E+03 0.47227058E+03 0.50000000E+00 0.0000E+00 0.9000E+01
       25  1    1    2    0    0 -.23351121E+02 0.36215474E+02 -.34384031E+03 0.36838566E+03 0.12500000E+03 0.0000E+00 0.9000E+01
       24  1    1    2    0    0 -.13612128E+02 -.20887794E+02 -.98504353E+02 0.12958362E+03 0.80419002E+02 0.0000E+00 0.9000E+01
       -4  1    1    2    0  502 0.36963248E+02 -.15327681E+02 0.18751793E+03 0.19174617E+03 0.15500000E+01 0.0000E+00 0.9000E+01
#aMCatNLO 1  0  0  1  2 0.21710800D+02 0.00000000D+00  -5  6  0 0.00000000D+00 0.00000000D+00 0.00000000D+00 0.00000000D+00 0.00000000D+00
  <mgrwgt>
 0.7844555410D-02   12    4    0
 0.320456990676425D+03 0.000000000000000D+00 0.000000000000000D+00 0.320456990676425D+03
 0.320456990676425D+03 0.000000000000000D+00 0.000000000000000D+00 -.320456990676425D+03
 0.259726808875226D+03 -.233513489558022D+02 0.362155688447562D+02 -.223553488730781D+03
 0.100285707303635D+03 -.136122156315407D+02 -.208877570481984D+02 -.544831747066525D+02
 0.280901465173990D+03 0.369635645873429D+02 -.153278117965578D+02 0.278036663437434D+03
 0.000000000000000D+00 0.000000000000000D+00 -.000000000000000D+00 0.000000000000000D+00
 0.438399557430785D+04 0.000000000000000D+00 0.000000000000000D+00 0.438399557430785D+04
 0.324654926227131D+04 0.000000000000000D+00 0.000000000000000D+00 -.324654926227131D+04
 0.176708184978405D+04 -.659365228324727D+03 0.161932535248133D+04 -.223553488730781D+03
 0.505283217962774D+03 -.203640139450819D+03 0.452113029760016D+03 -.544831747066525D+02
 0.148504690936960D+04 -.517192187441902D+03 0.136402792422364D+04 0.278036663437434D+03
 0.387313285946273D+04 0.138019755521745D+04 -.343546630646499D+04 0.113744631203654D+04
 0.320456990676425D+03 0.000000000000000D+00 0.000000000000000D+00 0.320456990676425D+03
 0.320456990676425D+03 0.000000000000000D+00 0.000000000000000D+00 -.320456990676425D+03
 0.259726808875226D+03 -.233513489558022D+02 0.362155688447562D+02 -.223553488730781D+03
 0.100285707303635D+03 -.136122156315407D+02 -.208877570481984D+02 -.544831747066525D+02
 0.000000000000000D+00 0.000000000000000D+00 -.000000000000000D+00 0.000000000000000D+00
 0.280901465173990D+03 0.369635645873429D+02 -.153278117965578D+02 0.278036663437434D+03
 0.438399557430785D+04 0.000000000000000D+00 0.000000000000000D+00 0.438399557430785D+04
 0.324654926227131D+04 0.000000000000000D+00 0.000000000000000D+00 -.324654926227131D+04
 0.176708184978405D+04 -.659365228324727D+03 0.161932535248133D+04 -.223553488730781D+03
 0.505283217962774D+03 -.203640139450819D+03 0.452113029760016D+03 -.544831747066525D+02
 0.387313285946273D+04 0.138019755521745D+04 -.343546630646499D+04 0.113744631203654D+04
 0.148504690936960D+04 -.517192187441902D+03 0.136402792422364D+04 0.278036663437434D+03
0.441552507574D-04 0.000000000000D+00 0.000000000000D+00 0.142588926446D-04 0.000000000000D+00  6 21 -3 25 24 -4 21 2 0.33452978D-01 0.72657091D-01 0.16439034D+05 0.16439034D+05 0.16439034D+05 0.12433123D+01  1  2  2  1  6  1       21 0.535380479479D-02 0.100000000000D+01
0.879562233686D-05 0.233013659936D-05 -.891367295876D-07 0.142588926446D-04 0.000000000000D+00  6 21 -3 25 24 -4 21 4 0.33452978D-01 0.72657091D-01 0.16439034D+05 0.16439034D+05 0.16439034D+05 0.12433123D+01  1  2  3  1  6  1       21 0.164856943976D-02 0.100000000000D+01
0.443755175344D-05 0.000000000000D+00 0.000000000000D+00 0.142588926446D-04 0.000000000000D+00  6 21 -3 25 24 -4 21 4 0.33452978D-01 0.72657091D-01 0.16439034D+05 0.16439034D+05 0.16439034D+05 0.12433123D+01  1  2 15  1  6  1       21 0.831733324590D-03 0.100000000000D+01
0.458443661966D-01 0.000000000000D+00 -.100476922932D-01 0.142588926446D-04 0.000000000000D+00  6 21 -3 25 24 -4 21 4 0.91231102D+00 0.72657091D-01 0.16439034D+05 0.16439034D+05 0.16439034D+05 0.12433123D+01  1  2  5  1  6  1       21 0.571318398774D-07 0.100000000000D+01
0.203356580321D-01 0.000000000000D+00 -.445630900446D-02 0.142588926446D-04 0.000000000000D+00  6 -3 -3 25 24 -4 -3 4 0.91231102D+00 0.72657091D-01 0.16439034D+05 0.16439034D+05 0.16439034D+05 0.12433123D+01  1  2  5  4  6  1       21 0.696518688412D-07 0.100000000000D+01
0.203356580321D-01 0.000000000000D+00 -.445630900446D-02 0.142588926446D-04 0.000000000000D+00  6 3 -3 25 24 3 -4 4 0.91231102D+00 0.72657091D-01 0.16439034D+05 0.16439034D+05 0.16439034D+05 0.12433123D+01  3  4  5  5  5  1       21 0.124666183335D-06 0.100000000000D+01
0.203356580321D-01 0.000000000000D+00 -.445630900446D-02 0.142588926446D-04 0.000000000000D+00  6 -4 -3 25 24 -4 -4 4 0.91231102D+00 0.72657091D-01 0.16439034D+05 0.16439034D+05 0.16439034D+05 0.12433123D+01  1  2  5  6  6  1       21 0.204314821253D-09 0.100000000000D+01
0.203356580321D-01 0.000000000000D+00 -.445630900446D-02 0.142588926446D-04 0.000000000000D+00  6 4 -3 25 24 4 -4 4 0.91231102D+00 0.72657091D-01 0.16439034D+05 0.16439034D+05 0.16439034D+05 0.12433123D+01  3  4  5  7  5  1       21 0.204314821253D-09 0.100000000000D+01
0.203356580321D-01 0.000000000000D+00 -.445630900446D-02 0.142588926446D-04 0.000000000000D+00  6 -1 -3 25 24 -4 -1 4 0.91231102D+00 0.72657091D-01 0.16439034D+05 0.16439034D+05 0.16439034D+05 0.12433123D+01  1  2  5  8  6  1       21 0.477139189221D-06 0.100000000000D+01
0.203356580321D-01 0.000000000000D+00 -.445630900446D-02 0.142588926446D-04 0.000000000000D+00  6 -2 -3 25 24 -4 -2 4 0.91231102D+00 0.72657091D-01 0.16439034D+05 0.16439034D+05 0.16439034D+05 0.12433123D+01  1  2  5  8  6  1       21 0.467377052714D-06 0.100000000000D+01
0.203356580321D-01 0.000000000000D+00 -.445630900446D-02 0.142588926446D-04 0.000000000000D+00  6 1 -3 25 24 1 -4 4 0.91231102D+00 0.72657091D-01 0.16439034D+05 0.16439034D+05 0.16439034D+05 0.12433123D+01  3  4  5  9  5  1       21 0.172650067536D-05 0.100000000000D+01
0.203356580321D-01 0.000000000000D+00 -.445630900446D-02 0.142588926446D-04 0.000000000000D+00  6 2 -3 25 24 2 -4 4 0.91231102D+00 0.72657091D-01 0.16439034D+05 0.16439034D+05 0.16439034D+05 0.12433123D+01  3  4  5  9  5  1       21 0.752497553981D-05 0.100000000000D+01
  </mgrwgt>
  </event>
  <event>
  5     66 -.50409948E-03 0.35863970E+02 0.75467711E-02 0.11517362E+00
       21 -1    0    0  501  502 0.00000000E+00 0.00000000E+00 0.60386428E+03 0.60386475E+03 0.75000000E+00 0.0000E+00 0.9000E+01
       -3 -1    0    0    0  501 0.00000000E+00 0.00000000E+00 -.45773974E+02 0.45776705E+02 0.50000000E+00 0.0000E+00 0.9000E+01
       25  1    1    2    0    0 0.96022987E+02 -.37681887E+01 0.23002409E+03 0.27887398E+03 0.12500000E+03 0.0000E+00 0.9000E+01
       24  1    1    2    0    0 -.10608649E+03 -.30625299E+02 0.25100466E+03 0.28576705E+03 0.80419002E+02 0.0000E+00 0.9000E+01
       -4  1    1    2    0  502 0.10063502E+02 0.34393487E+02 0.77061558E+02 0.85000425E+02 0.15500000E+01 0.0000E+00 0.9000E+01
#aMCatNLO 1  0  0  1  1 0.75175155D+02 0.00000000D+00  -5  6  0 0.00000000D+00 0.00000000D+00 0.00000000D+00 0.00000000D+00 0.00000000D+00
  <mgrwgt>
 -.6067181417D-02   12    4    0
 0.166259756345588D+03 0.000000000000000D+00 0.000000000000000D+00 0.166259756345588D+03
 0.166259756345588D+03 0.000000000000000D+00 0.000000000000000D+00 -.166259756345588D+03
 0.158767423185261D+03 0.960187019486632D+02 -.378283351051426D+01 -.186599494000728D+02
 0.137028560822174D+03 -.106090187646978D+03 -.306379380194031D+02 0.107610113638920D+02
 0.367235286837411D+02 0.100714856983147D+02 0.344207715299174D+02 0.789893803618074D+01
 0.000000000000000D+00 -.000000000000000D+00 -.000000000000000D+00 0.000000000000000D+00
 0.416528427651061D+03 0.000000000000000D+00 0.000000000000000D+00 0.416528427651061D+03
 0.172514048322653D+03 0.000000000000000D+00 0.000000000000000D+00 -.172514048322653D+03
 0.167638561939318D+03 0.107746211213383D+03 0.228089391824849D+02 -.186599494000728D+02
 0.126502314949221D+03 -.966217314053767D+02 -.916849975703401D+01 0.107610113638920D+02
 0.436932044692482D+02 0.129607954109729D+02 0.409721939491530D+02 0.789893803618074D+01
 0.251208394615927D+03 -.240852752189795D+02 -.546126333746039D+02 0.244014379328409D+03
 0.166259756345588D+03 0.000000000000000D+00 0.000000000000000D+00 0.166259756345588D+03
 0.166259756345588D+03 0.000000000000000D+00 0.000000000000000D+00 -.166259756345588D+03
 0.158767423185261D+03 0.960187019486632D+02 -.378283351051426D+01 -.186599494000728D+02
 0.137028560822174D+03 -.106090187646978D+03 -.306379380194031D+02 0.107610113638920D+02
 0.000000000000000D+00 -.000000000000000D+00 -.000000000000000D+00 0.000000000000000D+00
 0.367235286837411D+02 0.100714856983147D+02 0.344207715299174D+02 0.789893803618074D+01
 0.416528427651061D+03 0.000000000000000D+00 0.000000000000000D+00 0.416528427651061D+03
 0.172514048322653D+03 0.000000000000000D+00 0.000000000000000D+00 -.172514048322653D+03
 0.167638561939318D+03 0.107746211213383D+03 0.228089391824849D+02 -.186599494000728D+02
 0.126502314949221D+03 -.966217314053767D+02 -.916849975703401D+01 0.107610113638920D+02
 0.251208394615927D+03 -.240852752189795D+02 -.546126333746039D+02 0.244014379328409D+03
 0.436932044692482D+02 0.129607954109729D+02 0.409721939491530D+02 0.789893803618074D+01
0.170542205951D-05 0.000000000000D+00 0.000000000000D+00 0.379938099418D-06 0.000000000000D+00  6 21 -3 25 24 -4 21 2 0.92902443D-01 0.70423958D-02 0.27247510D+05 0.27247510D+05 0.27247510D+05 0.12193095D+01  1  2  2  1  6  1       21 0.159652206970D-02 0.100000000000D+01
0.380357150562D-07 0.899975946246D-07 -.344275578427D-08 0.379938099418D-06 0.000000000000D+00  6 21 -3 25 24 -4 21 4 0.92902443D-01 0.70423958D-02 0.27247510D+05 0.27247510D+05 0.27247510D+05 0.12193095D+01  1  2  3  1  6  1       21 0.529373929083D-04 0.100000000000D+01
0.156844064156D-06 0.000000000000D+00 0.000000000000D+00 0.379938099418D-06 0.000000000000D+00  6 21 -3 25 24 -4 21 4 0.92902443D-01 0.70423958D-02 0.27247510D+05 0.27247510D+05 0.27247510D+05 0.12193095D+01  1  2 15  1  6  1       21 0.218292618853D-03 0.100000000000D+01
-.345041514262D-04 0.000000000000D+00 -.310774285311D-05 0.379938099418D-06 0.000000000000D+00  6 21 -3 25 24 -4 21 4 0.23507617D+00 0.70423958D-02 0.27247510D+05 0.27247510D+05 0.27247510D+05 0.12193095D+01  1  2  5  1  6  1       21 -.407581772591D-02 0.100000000000D+01
-.962708575906D-05 0.000000000000D+00 -.985087583646D-06 0.379938099418D-06 0.000000000000D+00  6 -3 -3 25 24 -4 -3 4 0.23507617D+00 0.70423958D-02 0.27247510D+05 0.27247510D+05 0.27247510D+05 0.12193095D+01  1  2  5  4  6  1       21 -.676196644810D-04 0.100000000000D+01
-.962708575906D-05 0.000000000000D+00 -.985087583646D-06 0.379938099418D-06 0.000000000000D+00  6 3 -3 25 24 3 -4 4 0.23507617D+00 0.70423958D-02 0.27247510D+05 0.27247510D+05 0.27247510D+05 0.12193095D+01  3  4  5  5  5  1       21 -.682088640392D-04 0.100000000000D+01
-.962708575906D-05 0.000000000000D+00 -.985087583646D-06 0.379938099418D-06 0.000000000000D+00  6 -4 -3 25 24 -4 -4 4 0.23507617D+00 0.70423958D-02 0.27247510D+05 0.27247510D+05 0.27247510D+05 0.12193095D+01  1  2  5  6  6  1       21 -.508866723450D-04 0.100000000000D+01
-.962708575906D-05 0.000000000000D+00 -.985087583646D-06 0.379938099418D-06 0.000000000000D+00  6 4 -3 25 24 4 -4 4 0.23507617D+00 0.70423958D-02 0.27247510D+05 0.27247510D+05 0.27247510D+05 0.12193095D+01  3  4  5  7  5  1       21 -.508866723450D-04 0.100000000000D+01
-.962708575906D-05 0.000000000000D+00 -.985087583646D-06 0.379938099418D-06 0.000000000000D+00  6 -1 -3 25 24 -4 -1 4 0.23507617D+00 0.70423958D-02 0.27247510D+05 0.27247510D+05 0.27247510D+05 0.12193095D+01  1  2  5  8  6  1       21 -.129632956196D-03 0.100000000000D+01
-.962708575906D-05 0.000000000000D+00 -.985087583646D-06 0.379938099418D-06 0.000000000000D+00  6 -2 -3 25 24 -4 -2 4 0.23507617D+00 0.70423958D-02 0.27247510D+05 0.27247510D+05 0.27247510D+05 0.12193095D+01  1  2  5  8  6  1       21 -.100602086723D-03 0.100000000000D+01
-.962708575906D-05 0.000000000000D+00 -.985087583646D-06 0.379938099418D-06 0.000000000000D+00  6 1 -3 25 24 1 -4 4 0.23507617D+00 0.70423958D-02 0.27247510D+05 0.27247510D+05 0.27247510D+05 0.12193095D+01  3  4  5  9  5  1       21 -.106897643468D-02 0.100000000000D+01
-.962708575906D-05 0.000000000000D+00 -.985087583646D-06 0.379938099418D-06 0.000000000000D+00  6 2 -3 25 24 2 -4 4 0.23507617D+00 0.70423958D-02 0.27247510D+05 0.27247510D+05 0.27247510D+05 0.12193095D+01  3  4  5  9  5  1       21 -.232230242167D-02 0.100000000000D+01
  </mgrwgt>
  </event>
  <event>
  5     66 0.50409948E-03 0.55026935E+02 0.75467711E-02 0.11566735E+00
       21 -1    0    0  501  502 0.00000000E+00 0.00000000E+00 0.10149808E+04 0.10149811E+04 0.75000000E+00 0.0000E+00 0.9000E+01
       -3 -1    0    0    0  501 0.00000000E+00 0.00000000E+00 -.46643983E+02 0.46646663E+02 0.50000000E+00 0.0000E+00 0.9000E+01
       25  1    1    2    0    0 0.30732311E+02 -.10907579E+03 0.17793721E+03 0.24521145E+03 0.12500000E+03 0.0000E+00 0.9000E+01
       24  1    1    2    0    0 0.22406326E+02 0.12331867E+03 0.55072980E+03 0.57050861E+03 0.80419002E+02 0.0000E+00 0.9000E+01
       -4  1    1    2    0  502 -.53138637E+02 -.14242877E+02 0.23966984E+03 0.24590772E+03 0.15500000E+01 0.0000E+00 0.9000E+01
#aMCatNLO 1  0  0  1  2 0.11033638D+02 0.00000000D+00  -5  6  0 0.00000000D+00 0.00000000D+00 0.00000000D+00 0.00000000D+00 0.00000000D+00
  <mgrwgt>
 0.1630506353D-01   23    4    0
 0.217587496984684D+03 0.000000000000000D+00 0.000000000000000D+00 0.217587496984684D+03
 0.217587496984684D+03 0.000000000000000D+00 0.000000000000000D+00 -.217587496984684D+03
 0.202266401267997D+03 0.307390028454640D+02 -.109073996936859D+03 -.111555698994676D+03
 0.166314391930333D+03 0.224118292826544D+02 0.123320142843392D+03 0.740480471455971D+02
 0.665942007710385D+02 -.531508321281184D+02 -.142461459065328D+02 0.375076518490793D+02
 0.000000000000000D+00 -.000000000000000D+00 0.000000000000000D+00 0.000000000000000D+00
 0.223187739891385D+03 0.000000000000000D+00 0.000000000000000D+00 0.223187739891385D+03
 0.223160778964864D+03 0.000000000000000D+00 0.000000000000000D+00 -.223160778964864D+03
 0.204822344106623D+03 0.344277261678811D+02 -.112682076383294D+03 -.111555698994676D+03
 0.164587707972577D+03 0.254102081551172D+02 0.120387315348141D+03 0.740480471455971D+02
 0.659047955316974D+02 -.519502287132316D+02 -.154205014019008D+02 0.375076518490793D+02
 0.110336712453520D+02 -.788770560976666D+01 0.771526243705315D+01 0.269609265209237D-01
 0.217587496984684D+03 0.000000000000000D+00 0.000000000000000D+00 0.217587496984684D+03
 0.217587496984684D+03 0.000000000000000D+00 0.000000000000000D+00 -.217587496984684D+03
 0.202266401267997D+03 0.307390028454640D+02 -.109073996936859D+03 -.111555698994676D+03
 0.166314391930333D+03 0.224118292826544D+02 0.123320142843392D+03 0.740480471455971D+02
 0.000000000000000D+00 -.000000000000000D+00 0.000000000000000D+00 0.000000000000000D+00
 0.665942007710385D+02 -.531508321281184D+02 -.142461459065328D+02 0.375076518490793D+02
 0.223187739891385D+03 0.000000000000000D+00 0.000000000000000D+00 0.223187739891385D+03
 0.223160778964864D+03 0.000000000000000D+00 0.000000000000000D+00 -.223160778964864D+03
 0.204822344106623D+03 0.344277261678811D+02 -.112682076383294D+03 -.111555698994676D+03
 0.164587707972577D+03 0.254102081551172D+02 0.120387315348141D+03 0.740480471455971D+02
 0.110336712453520D+02 -.788770560976666D+01 0.771526243705315D+01 0.269609265209237D-01
 0.659047955316974D+02 -.519502287132316D+02 -.154205014019008D+02 0.375076518490793D+02
0.715087370794D-05 0.000000000000D+00 0.000000000000D+00 0.193414786903D-06 0.000000000000D+00  6 21 -3 25 24 -4 21 2 0.15615113D+00 0.71762249D-02 0.34720607D+05 0.34720607D+05 0.34720607D+05 0.12082933D+01  1  2  2  1  6  1       21 0.176125688315D-02 0.100000000000D+01
-.155442072424D-07 0.377361973003D-06 -.144355537583D-07 0.193414786903D-06 0.000000000000D+00  6 21 -3 25 24 -4 21 4 0.15615113D+00 0.71762249D-02 0.34720607D+05 0.34720607D+05 0.34720607D+05 0.12082933D+01  1  2  3  1  6  1       21 -.558955079995D-05 0.100000000000D+01
0.717546599659D-06 0.000000000000D+00 0.000000000000D+00 0.193414786903D-06 0.000000000000D+00  6 21 -3 25 24 -4 21 4 0.15615113D+00 0.71762249D-02 0.34720607D+05 0.34720607D+05 0.34720607D+05 0.12082933D+01  1  2 15  1  6  1       21 0.258023011890D-03 0.100000000000D+01
0.148826418505D-04 0.000000000000D+00 0.000000000000D+00 0.192559780928D-06 0.000000000000D+00  6 21 -3 25 24 -4 21 4 0.16211923D+00 0.71762249D-02 0.36862375D+05 0.36862375D+05 0.36862375D+05 0.12056197D+01  1  2 12  1  6  1       21 0.479025256214D-02 0.100000000000D+01
-.180396130533D-05 0.000000000000D+00 0.000000000000D+00 0.193414786903D-06 0.000000000000D+00  6 21 -3 25 24 -4 21 4 0.15615113D+00 0.71762249D-02 0.34720607D+05 0.34720607D+05 0.34720607D+05 0.12082933D+01  1  2  4  1  6  1       21 -.648687527131D-03 0.100000000000D+01
-.290554362039D-03 0.000000000000D+00 -.464118224922D-04 0.193414786903D-06 0.000000000000D+00  6 21 -3 25 24 -4 21 4 0.16312764D+00 0.71762249D-02 0.34720607D+05 0.34720607D+05 0.34720607D+05 0.12082933D+01  1  2  5  1  6  1       21 -.928856074444D-01 0.100000000000D+01
0.291423463846D-03 0.000000000000D+00 0.462349668302D-04 0.193414786903D-06 0.000000000000D+00  6 21 -3 25 24 -4 21 4 0.15615113D+00 0.71762249D-02 0.34720607D+05 0.34720607D+05 0.34720607D+05 0.12082933D+01  1  2  6  1  6  1       21 0.104793138052D+00 0.100000000000D+01
0.268094632600D-06 0.000000000000D+00 0.000000000000D+00 0.192559780928D-06 0.000000000000D+00  6 -3 -3 25 24 -4 -3 4 0.16211923D+00 0.71762249D-02 0.36862375D+05 0.36862375D+05 0.36862375D+05 0.12056197D+01  1  2 12  4  6  1       21 0.493737387270D-05 0.100000000000D+01
-.258766058085D-05 0.000000000000D+00 -.480426697956D-06 0.193414786903D-06 0.000000000000D+00  6 -3 -3 25 24 -4 -3 4 0.16312764D+00 0.71762249D-02 0.34720607D+05 0.34720607D+05 0.34720607D+05 0.12082933D+01  1  2  5  4  6  1       21 -.471951035954D-04 0.100000000000D+01
0.268094632600D-06 0.000000000000D+00 0.000000000000D+00 0.192559780928D-06 0.000000000000D+00  6 3 -3 25 24 3 -4 4 0.16211923D+00 0.71762249D-02 0.36862375D+05 0.36862375D+05 0.36862375D+05 0.12056197D+01  3  4 12  5  5  1       21 0.495934162248D-05 0.100000000000D+01
-.258766058085D-05 0.000000000000D+00 -.480426697956D-06 0.193414786903D-06 0.000000000000D+00  6 3 -3 25 24 3 -4 4 0.16312764D+00 0.71762249D-02 0.34720607D+05 0.34720607D+05 0.34720607D+05 0.12082933D+01  3  4  5  5  5  1       21 -.474071501699D-04 0.100000000000D+01
0.268094632600D-06 0.000000000000D+00 0.000000000000D+00 0.192559780928D-06 0.000000000000D+00  6 -4 -3 25 24 -4 -4 4 0.16211923D+00 0.71762249D-02 0.36862375D+05 0.36862375D+05 0.36862375D+05 0.12056197D+01  1  2 12  6  6  1       21 0.387193199344D-05 0.100000000000D+01
-.258766058085D-05 0.000000000000D+00 -.480426697956D-06 0.193414786903D-06 0.000000000000D+00  6 -4 -3 25 24 -4 -4 4 0.16312764D+00 0.71762249D-02 0.34720607D+05 0.34720607D+05 0.34720607D+05 0.12082933D+01  1  2  5  6  6  1       21 -.369765979837D-04 0.100000000000D+01
0.268094632600D-06 0.000000000000D+00 0.000000000000D+00 0.192559780928D-06 0.000000000000D+00  6 4 -3 25 24 4 -4 4 0.16211923D+00 0.71762249D-02 0.36862375D+05 0.36862375D+05 0.36862375D+05 0.12056197D+01  3  4 12  7  5  1       21 0.387193199344D-05 0.100000000000D+01
-.258766058085D-05 0.000000000000D+00 -.480426697956D-06 0.193414786903D-06 0.000000000000D+00  6 4 -3 25 24 4 -4 4 0.16312764D+00 0.71762249D-02 0.34720607D+05 0.34720607D+05 0.34720607D+05 0.12082933D+01  3  4  5  7  5  1       21 -.369765979837D-04 0.100000000000D+01
0.268094632600D-06 0.000000000000D+00 0.000000000000D+00 0.192559780928D-06 0.000000000000D+00  6 -1 -3 25 24 -4 -1 4 0.16211923D+00 0.71762249D-02 0.36862375D+05 0.36862375D+05 0.36862375D+05 0.12056197D+01  1  2 12  8  6  1       21 0.103374859631D-04 0.100000000000D+01
0.268094632600D-06 0.000000000000D+00 0.000000000000D+00 0.192559780928D-06 0.000000000000D+00  6 -2 -3 25 24 -4 -2 4 0.16211923D+00 0.71762249D-02 0.36862375D+05 0.36862375D+05 0.36862375D+05 0.12056197D+01  1  2 12  8  6  1       21 0.760412172674D-05 0.100000000000D+01
-.258766058085D-05 0.000000000000D+00 -.480426697956D-06 0.193414786903D-06 0.000000000000D+00  6 -1 -3 25 24 -4 -1 4 0.16312764D+00 0.71762249D-02 0.34720607D+05 0.34720607D+05 0.34720607D+05 0.12082933D+01  1  2  5  8  6  1       21 -.988656190305D-04 0.100000000000D+01
-.258766058085D-05 0.000000000000D+00 -.480426697956D-06 0.193414786903D-06 0.000000000000D+00  6 -2 -3 25 24 -4 -2 4 0.16312764D+00 0.71762249D-02 0.34720607D+05 0.34720607D+05 0.34720607D+05 0.12082933D+01  1  2  5  8  6  1       21 -.727207876658D-04 0.100000000000D+01
0.268094632600D-06 0.000000000000D+00 0.000000000000D+00 0.192559780928D-06 0.000000000000D+00  6 1 -3 25 24 1 -4 4 0.16211923D+00 0.71762249D-02 0.36862375D+05 0.36862375D+05 0.36862375D+05 0.12056197D+01  3  4 12  9  5  1       21 0.582910551699D-04 0.100000000000D+01
0.268094632600D-06 0.000000000000D+00 0.000000000000D+00 0.192559780928D-06 0.000000000000D+00  6 2 -3 25 24 2 -4 4 0.16211923D+00 0.71762249D-02 0.36862375D+05 0.36862375D+05 0.36862375D+05 0.12056197D+01  3  4 12  9  5  1       21 0.110101510657D-03 0.100000000000D+01
-.258766058085D-05 0.000000000000D+00 -.480426697956D-06 0.193414786903D-06 0.000000000000D+00  6 1 -3 25 24 1 -4 4 0.16312764D+00 0.71762249D-02 0.34720607D+05 0.34720607D+05 0.34720607D+05 0.12082933D+01  3  4  5  9  5  1       21 -.560714250057D-03 0.100000000000D+01
-.258766058085D-05 0.000000000000D+00 -.480426697956D-06 0.193414786903D-06 0.000000000000D+00  6 2 -3 25 24 2 -4 4 0.16312764D+00 0.71762249D-02 0.34720607D+05 0.34720607D+05 0.34720607D+05 0.12082933D+01  3  4  5  9  5  1       21 -.106084110696D-02 0.100000000000D+01
  </mgrwgt>
  </event>
  <event>
  5     66 0.50409948E-03 0.20044700E+02 0.75467711E-02 0.12113016E+00
       21 -1    0    0  501  502 0.00000000E+00 0.00000000E+00 0.77780595E+01 0.78141352E+01 0.75000000E+00 0.0000E+00 0.9000E+01
       -1 -1    0    0    0  501 0.00000000E+00 0.00000000E+00 -.27863950E+04 0.27863950E+04 0.32000000E+00 0.0000E+00 0.9000E+01
       25  1    1    2    0    0 0.16036645E+02 0.84362864E+02 -.17589695E+04 0.17654951E+04 0.12500000E+03 0.0000E+00 0.9000E+01
       24  1    1    2    0    0 -.29927795E+02 -.69914777E+02 -.72661764E+03 0.73499943E+03 0.80419002E+02 0.0000E+00 0.9000E+01
       -2  1    1    2    0  502 0.13891150E+02 -.14448087E+02 -.29302974E+03 0.29371456E+03 0.32000000E+00 0.0000E+00 0.9000E+01
#aMCatNLO 1  0  0  2  2 0.65928138D+00 0.00000000D+00  -5  6  0 0.00000000D+00 0.00000000D+00 0.00000000D+00 0.00000000D+00 0.00000000D+00
  <mgrwgt>
 0.2618730023D-01   10    4    0
 0.147387831251391D+03 0.000000000000000D+00 0.000000000000000D+00 0.147387831251391D+03
 0.147387831251391D+03 0.000000000000000D+00 0.000000000000000D+00 -.147387831251391D+03
 0.154898168145812D+03 0.160358717783190D+02 0.843636679792478D+02 -.315287937657750D+02
 0.117886334923101D+03 -.299283830857638D+02 -.699141651414073D+02 0.405742948883005D+02
 0.219911594338691D+02 0.138925113074448D+02 -.144495028378405D+02 -.904550112252548D+01
 0.000000000000000D+00 -.000000000000000D+00 -.000000000000000D+00 -.000000000000000D+00
 0.147635766121874D+03 0.000000000000000D+00 0.000000000000000D+00 0.147635766121874D+03
 0.147827124771589D+03 0.000000000000000D+00 0.000000000000000D+00 -.147827124771589D+03
 0.155090602347452D+03 0.161049120765965D+02 0.847033760081371D+02 -.315287937657750D+02
 0.117720064377814D+03 -.298759091330527D+02 -.696559706739985D+02 0.405742948883005D+02
 0.219657330354618D+02 0.139023013297176D+02 -.144013317080506D+02 -.904550112252548D+01
 0.686491132735190D+00 -.131304273261322D+00 -.646073626088040D+00 -.191358649715166D+00
 0.147387831251391D+03 0.000000000000000D+00 0.000000000000000D+00 0.147387831251391D+03
 0.147387831251391D+03 0.000000000000000D+00 0.000000000000000D+00 -.147387831251391D+03
 0.154898168145812D+03 0.160358717783190D+02 0.843636679792478D+02 -.315287937657750D+02
 0.117886334923101D+03 -.299283830857638D+02 -.699141651414073D+02 0.405742948883005D+02
 0.000000000000000D+00 -.000000000000000D+00 -.000000000000000D+00 -.000000000000000D+00
 0.219911594338691D+02 0.138925113074448D+02 -.144495028378405D+02 -.904550112252548D+01
 0.147635766121874D+03 0.000000000000000D+00 0.000000000000000D+00 0.147635766121874D+03
 0.147827124771589D+03 0.000000000000000D+00 0.000000000000000D+00 -.147827124771589D+03
 0.155090602347452D+03 0.161049120765965D+02 0.847033760081371D+02 -.315287937657750D+02
 0.117720064377814D+03 -.298759091330527D+02 -.696559706739985D+02 0.405742948883005D+02
 0.686491132735190D+00 -.131304273261322D+00 -.646073626088040D+00 -.191358649715166D+00
 0.219657330354618D+02 0.139023013297176D+02 -.144013317080506D+02 -.904550112252548D+01
0.562825907944D-05 0.000000000000D+00 0.000000000000D+00 0.440925227720D-06 0.000000000000D+00  6 21 -1 25 24 -2 21 2 0.11994010D-02 0.42867893D+00 0.19935182D+05 0.19935182D+05 0.19935182D+05 0.12339813D+01  1  2  2  2  6  2       -1 0.134860953469D-02 0.100000000000D+01
0.216662533340D-06 0.297011391549D-06 -.113618335081D-07 0.440925227720D-06 0.000000000000D+00  6 21 -1 25 24 -2 21 4 0.11994010D-02 0.42867893D+00 0.19935182D+05 0.19935182D+05 0.19935182D+05 0.12339813D+01  1  2  3  2  6  2       -1 0.790520444022D-04 0.100000000000D+01
0.595526073851D-06 0.000000000000D+00 0.000000000000D+00 0.440925227720D-06 0.000000000000D+00  6 21 -1 25 24 -2 21 4 0.11994010D-02 0.42867893D+00 0.19935182D+05 0.19935182D+05 0.19935182D+05 0.12339813D+01  1  2 15  2  6  2       -1 0.217285161892D-03 0.100000000000D+01
-.372591706388D-04 0.000000000000D+00 0.000000000000D+00 0.440925227720D-06 0.000000000000D+00  6 21 -1 25 24 -2 21 4 0.11994010D-02 0.42867893D+00 0.19935182D+05 0.19935182D+05 0.19935182D+05 0.12339813D+01  1  2  4  2  6  2       -1 -.135944760099D-01 0.100000000000D+01
-.373986365831D-02 0.000000000000D+00 -.314968809076D-03 0.440925227720D-06 0.000000000000D+00  6 21 -1 25 24 -2 21 4 0.11994010D-02 0.43021428D+00 0.19935182D+05 0.19935182D+05 0.19935182D+05 0.12339813D+01  1  2  5  2  6  2       -1 -.133234149244D+01 0.100000000000D+01
0.374096783565D-02 0.000000000000D+00 0.314966796126D-03 0.440925227720D-06 0.000000000000D+00  6 21 -1 25 24 -2 21 4 0.11994010D-02 0.42867893D+00 0.19935182D+05 0.19935182D+05 0.19935182D+05 0.12339813D+01  1  2  6  2  6  2       -1 0.136493906395D+01 0.100000000000D+01
0.367035348355D-04 0.000000000000D+00 0.000000000000D+00 0.440925227720D-06 0.201201792163D-04  6 21 -1 25 24 -2 21 4 0.12014186D-02 0.42995662D+00 0.20027178D+05 0.20027178D+05 0.20027178D+05 0.12337611D+01  1  2 11  2  6  2       -1 0.130822828812D-01 0.100000000000D+01
0.319642837876D-13 0.000000000000D+00 0.000000000000D+00 0.440767907696D-06 0.000000000000D+00  6 21 21 25 24 1 -2 4 0.11994010D-02 0.43031634D+00 0.20027178D+05 0.20027178D+05 0.20027178D+05 0.12337611D+01  3  4 12 10  5  2       -1 0.125392776813D-09 0.100000000000D+01
-.249211544120D-05 0.000000000000D+00 -.210010871286D-06 0.440925227720D-06 0.000000000000D+00  6 21 21 25 24 1 -2 4 0.11994010D-02 0.43021428D+00 0.19935182D+05 0.19935182D+05 0.19935182D+05 0.12339813D+01  3  4  5 10  5  2       -1 -.980322113486D-02 0.100000000000D+01
0.574646953077D-06 0.000000000000D+00 0.000000000000D+00 0.440925227720D-06 0.993564239005D-08  6 21 21 25 24 1 -2 4 0.12014186D-02 0.42995662D+00 0.20027178D+05 0.20027178D+05 0.20027178D+05 0.12337611D+01  3  4 11 10  5  2       -1 0.226019611026D-02 0.100000000000D+01
  </mgrwgt>
  </event>
  <event>
  5     66 0.50409948E-03 0.18889378E+03 0.75467711E-02 0.10331708E+00
       21 -1    0    0  501  502 0.00000000E+00 0.00000000E+00 0.77149799E+03 0.77149835E+03 0.75000000E+00 0.0000E+00 0.9000E+01
       -1 -1    0    0    0  501 0.00000000E+00 0.00000000E+00 -.32525905E+03 0.32525921E+03 0.32000000E+00 0.0000E+00 0.9000E+01
       25  1    1    2    0    0 0.84676232E+02 0.10483670E+03 -.19067888E+03 0.26484757E+03 0.12500000E+03 0.0000E+00 0.9000E+01
       24  1    1    2    0    0 0.19768001E+02 0.52555343E+02 -.56522389E+02 0.11320263E+03 0.80419002E+02 0.0000E+00 0.9000E+01
       -2  1    1    2    0  502 -.10444423E+03 -.15739204E+03 0.69344021E+03 0.71870737E+03 0.32000000E+00 0.0000E+00 0.9000E+01
#aMCatNLO 1  0  0  5  2 0.84391520D+01 0.00000000D+00  -5  6  0 0.00000000D+00 0.00000000D+00 0.00000000D+00 0.00000000D+00 0.00000000D+00
  <mgrwgt>
 0.1433757161D-01    3    2    0
 0.500936112451233D+03 0.000000000000000D+00 0.000000000000000D+00 0.500936112451233D+03
 0.500936112451233D+03 -.000000000000000D+00 -.000000000000000D+00 -.500936112451233D+03
 0.374860128969672D+03 0.846762406046579D+02 0.104836710716270D+03 -.326702180363729D+03
 0.149099192267733D+03 0.197680048151692D+02 0.525553485781526D+02 -.112296547150730D+03
 0.477912903665061D+03 -.104444245419827D+03 -.157392059294423D+03 0.438998727514459D+03
 0.000000000000000D+00 0.000000000000000D+00 0.000000000000000D+00 -.000000000000000D+00
 0.500936112451233D+03 0.000000000000000D+00 0.000000000000000D+00 0.500936112451233D+03
 0.500936112451233D+03 -.000000000000000D+00 -.000000000000000D+00 -.500936112451233D+03
 0.226620953654541D+03 0.487011290160261D+02 0.506240839361018D+02 -.175492047664527D+03
 0.994126419887632D+02 0.490429384113914D+01 0.301565072675943D+02 -.498215857250122D+02
 0.321521509561028D+03 0.287438126435419D+03 -.574497125037133D+02 0.132117126501217D+03
 0.354317119698134D+03 -.341043549292585D+03 -.233308786999828D+02 0.931965068883223D+02
0.434609460553D-03 0.000000000000D+00 0.000000000000D+00 0.211056381858D-05 0.000000000000D+00  6 21 -1 25 24 -2 21 2 0.11869204D+00 0.50039894D-01 0.55409583D+05 0.55409583D+05 0.55409583D+05 0.11878884D+01  1  2  2  3  6  5       -2 0.123038496511D-01 0.100000000000D+01
0.343401210030D-05 0.229349713361D-04 -.877351284320D-06 0.211056381858D-05 0.000000000000D+00  6 21 -1 25 24 -2 21 4 0.11869204D+00 0.50039894D-01 0.55409583D+05 0.55409583D+05 0.55409583D+05 0.11878884D+01  1  2  3  3  6  5       -2 0.137181308942D-03 0.100000000000D+01
0.474754439169D-04 0.000000000000D+00 0.000000000000D+00 0.211056381858D-05 0.000000000000D+00  6 21 -1 25 24 -2 21 4 0.11869204D+00 0.50039894D-01 0.55409583D+05 0.55409583D+05 0.55409583D+05 0.11878884D+01  1  2 15  3  6  5       -2 0.189654064951D-02 0.100000000000D+01
  </mgrwgt>
  </event>
  <event>
  5     66 0.50409948E-03 0.98507813E+02 0.75467711E-02 0.10306515E+00
       21 -1    0    0  501  502 0.00000000E+00 0.00000000E+00 0.11185471E+04 0.11185473E+04 0.75000000E+00 0.0000E+00 0.9000E+01
       -3 -1    0    0    0  501 0.00000000E+00 0.00000000E+00 -.45268751E+02 0.45271512E+02 0.50000000E+00 0.0000E+00 0.9000E+01
       25  1    1    2    0    0 0.91836257E+02 0.90541093E+02 0.35936198E+03 0.40174323E+03 0.12500000E+03 0.0000E+00 0.9000E+01
       24  1    1    2    0    0 0.62191152E+01 -.99899922E+02 0.58980570E+03 0.60361962E+03 0.80419002E+02 0.0000E+00 0.9000E+01
       -4  1    1    2    0  502 -.98055373E+02 0.93588285E+01 0.12411062E+03 0.15845596E+03 0.15500000E+01 0.0000E+00 0.9000E+01
#aMCatNLO 1  0  0  1  2 0.28477741D+02 0.00000000D+00  -5  6  0 0.00000000D+00 0.00000000D+00 0.00000000D+00 0.00000000D+00 0.00000000D+00
  <mgrwgt>
 0.1068699243D-01    3    2    0
 0.225026623046506D+03 0.000000000000000D+00 0.000000000000000D+00 0.225026623046506D+03
 0.225026623046506D+03 0.000000000000000D+00 0.000000000000000D+00 -.225026623046506D+03
 0.181892958102182D+03 0.918399349739525D+02 0.905407424347771D+02 -.287723567074689D+02
 0.154379096273445D+03 0.622223643320208D+01 -.999002198855944D+02 0.857141718294838D+02
 0.113781191717385D+03 -.980621714071546D+02 0.935947745081730D+01 -.569418151220149D+02
 0.000000000000000D+00 0.000000000000000D+00 -.000000000000000D+00 -.000000000000000D+00
 0.421918973159783D+03 0.000000000000000D+00 0.000000000000000D+00 0.421918973159783D+03
 0.500770416950970D+03 0.000000000000000D+00 0.000000000000000D+00 -.500770416950970D+03
 0.180544436079480D+03 -.267116888791607D+02 0.124217271608977D+03 -.287723567074689D+02
 0.169152020729596D+03 -.996033210381045D+02 -.698387381637239D+02 0.857141718294838D+02
 0.218038523121765D+03 -.206598891547409D+03 0.401911093043296D+02 -.569418151220149D+02
 0.354954410179912D+03 0.332913901464674D+03 -.945696427495829D+02 -.788514437911879D+02
0.553212332232D-04 0.000000000000D+00 0.000000000000D+00 0.846909611909D-07 0.000000000000D+00  6 21 -3 25 24 -4 21 2 0.17208439D+00 0.69646550D-02 0.41312285D+05 0.41312285D+05 0.41312285D+05 0.12005792D+01  1  2  2  1  6  1       21 0.108045127444D-01 0.100000000000D+01
-.574003512511D-05 0.291938168267D-05 -.111677631124D-06 0.846909611909D-07 0.000000000000D+00  6 21 -3 25 24 -4 21 4 0.17208439D+00 0.69646550D-02 0.41312285D+05 0.41312285D+05 0.41312285D+05 0.12005792D+01  1  2  3  1  6  1       21 -.161588155235D-02 0.100000000000D+01
0.532257213630D-05 0.000000000000D+00 0.000000000000D+00 0.846909611909D-07 0.000000000000D+00  6 21 -3 25 24 -4 21 4 0.17208439D+00 0.69646550D-02 0.41312285D+05 0.41312285D+05 0.41312285D+05 0.12005792D+01  1  2 15  1  6  1       21 0.149836123624D-02 0.100000000000D+01
  </mgrwgt>
  </event>
  <event>
  5     66 0.50409948E-03 0.10175910E+03 0.75467711E-02 0.11893720E+00
       21 -1    0    0  501  502 0.00000000E+00 0.00000000E+00 0.88481374E+03 0.88481405E+03 0.75000000E+00 0.0000E+00 0.9000E+01
       -3 -1    0    0    0  501 0.00000000E+00 0.00000000E+00 -.45781233E+02 0.45783963E+02 0.50000000E+00 0.0000E+00 0.9000E+01
       25  1    1    2    0    0 -.25549822E+02 0.88675177E+02 0.18623815E+03 0.24254016E+03 0.12500000E+03 0.0000E+00 0.9000E+01
       24  1    1    2    0    0 -.35874798E+02 -.75568300E+01 0.47541852E+03 0.48356395E+03 0.80419002E+02 0.0000E+00 0.9000E+01
       -4  1    1    2    0  502 0.61424620E+02 -.81118347E+02 0.17737583E+03 0.20449391E+03 0.15500000E+01 0.0000E+00 0.9000E+01
#aMCatNLO 1  0  0  5  1 0.32603954D+02 0.00000000D+00  -5  6  0 0.00000000D+00 0.00000000D+00 0.00000000D+00 0.00000000D+00 0.00000000D+00
  <mgrwgt>
 0.7093223814D-02    7    2    0
 0.201269177916497D+03 0.000000000000000D+00 0.000000000000000D+00 0.201269177916497D+03
 0.201269177916497D+03 -.000000000000000D+00 -.000000000000000D+00 -.201269177916497D+03
 0.172526130095987D+03 -.255528011386945D+02 0.886791116264744D+02 -.749888997185797D+02
 0.126975247318829D+03 -.358769905423003D+02 -.755393440250692D+01 0.911662059207118D+02
 0.103036978418178D+03 0.614297916809949D+02 -.811251772239675D+02 -.161773062021321D+02
 0.000000000000000D+00 0.000000000000000D+00 -.000000000000000D+00 0.000000000000000D+00
 0.201269177916497D+03 0.000000000000000D+00 0.000000000000000D+00 0.201269177916497D+03
 0.201269177916497D+03 -.000000000000000D+00 -.000000000000000D+00 -.201269177916497D+03
 0.167922224919725D+03 -.186281632552518D+02 0.795343227523183D+02 -.768124772420241D+02
 0.125238510344617D+03 -.307470232056653D+02 -.143286523032097D+02 0.898152481827686D+02
 0.377653796715353D+02 0.107426835650590D+02 -.908199314227586D+01 -.350476254847582D+02
 0.716122408971170D+02 0.386325028958582D+02 -.561236773068328D+02 0.220448545440138D+02
0.186047540896D-04 0.000000000000D+00 0.000000000000D+00 0.115904610137D-06 0.000000000000D+00  6 21 -3 25 24 -4 21 2 0.13612542D+00 0.70435011D-02 0.29845700D+05 0.29845700D+05 0.29845700D+05 0.12151335D+01  1  2  2  3  6  5       -4 0.684305403131D-02 0.100000000000D+01
-.174241639051D-05 0.981799846737D-06 -.375576382397D-07 0.115904610137D-06 0.000000000000D+00  6 21 -3 25 24 -4 21 4 0.13612542D+00 0.70435011D-02 0.29845700D+05 0.29845700D+05 0.29845700D+05 0.12151335D+01  1  2  3  3  6  5       -4 -.946293764407D-03 0.100000000000D+01
0.187387774238D-05 0.000000000000D+00 0.000000000000D+00 0.115904610137D-06 0.000000000000D+00  6 21 -3 25 24 -4 21 4 0.13612542D+00 0.70435011D-02 0.29845700D+05 0.29845700D+05 0.29845700D+05 0.12151335D+01  1  2 15  3  6  5       -4 0.101768947568D-02 0.100000000000D+01
0.411474401061D-05 0.000000000000D+00 0.000000000000D+00 0.117322219711D-06 0.000000000000D+00  6 21 -3 25 24 -4 21 4 0.13612542D+00 0.70435011D-02 0.25409440D+05 0.25409440D+05 0.25409440D+05 0.12225420D+01  1  2 12  3  6  5       -4 0.229228883766D-02 0.100000000000D+01
-.642499456077D-05 0.000000000000D+00 0.000000000000D+00 0.115904610137D-06 0.000000000000D+00  6 21 -3 25 24 -4 21 4 0.13612542D+00 0.70435011D-02 0.29845700D+05 0.29845700D+05 0.29845700D+05 0.12151335D+01  1  2  4  3  6  5       -4 -.348936816844D-02 0.100000000000D+01
-.305298673994D-05 0.000000000000D+00 0.000000000000D+00 0.115904610137D-06 0.000000000000D+00  6 21 -3 25 24 -4 21 4 0.13612542D+00 0.70435011D-02 0.29845700D+05 0.29845700D+05 0.29845700D+05 0.12151335D+01  1  2  5  3  6  5       -4 -.165805506110D-02 0.100000000000D+01
0.558635387087D-05 0.000000000000D+00 -.000000000000D+00 0.115904610137D-06 0.000000000000D+00  6 21 -3 25 24 -4 21 4 0.13612542D+00 0.70435011D-02 0.29845700D+05 0.29845700D+05 0.29845700D+05 0.12151335D+01  1  2  6  3  6  5       -4 0.303390846331D-02 0.100000000000D+01
  </mgrwgt>
  </event>
  <event>
  5     66 -.50409948E-03 0.22363766E+02 0.75467711E-02 0.11291903E+00
       21 -1    0    0  501  502 0.00000000E+00 0.00000000E+00 0.13688027E+03 0.13688233E+03 0.75000000E+00 0.0000E+00 0.9000E+01
       -3 -1    0    0    0  501 -.00000000E+00 -.00000000E+00 -.40166995E+03 0.40167026E+03 0.50000000E+00 0.0000E+00 0.9000E+01
       25  1    1    2    0    0 0.47951701E+02 0.18632129E+03 -.12301428E+03 0.26033152E+03 0.12500000E+03 0.0000E+00 0.9000E+01
       24  1    1    2    0    0 -.25953639E+02 -.18240335E+03 -.15350847E+03 0.25293604E+03 0.80419002E+02 0.0000E+00 0.9000E+01
       -4  1    1    2    0  502 -.21998062E+02 -.39179338E+01 0.11733078E+02 0.25285026E+02 0.15500000E+01 0.0000E+00 0.9000E+01
#aMCatNLO 1  0  0  5  1 0.54939187D+01 0.00000000D+00  -5  6  0 0.00000000D+00 0.00000000D+00 0.00000000D+00 0.00000000D+00 0.00000000D+00
  <mgrwgt>
 -.9174575161D-01    7    2    0
 0.234480978958338D+03 0.000000000000000D+00 0.000000000000000D+00 0.234480978958338D+03
 0.234480978958338D+03 -.000000000000000D+00 -.000000000000000D+00 -.234480978958338D+03
 0.229508682220663D+03 0.479618849236938D+02 0.186323099668234D+03 0.570923280773540D+01
 0.203793852385702D+03 -.259445966970421D+02 -.182401741656889D+03 -.334843375116841D+02
 0.356594233103104D+02 -.220172882266517D+02 -.392135801134532D+01 0.277751047039486D+02
 0.000000000000000D+00 0.000000000000000D+00 0.000000000000000D+00 0.000000000000000D+00
 0.234480978958338D+03 0.000000000000000D+00 0.000000000000000D+00 0.234480978958338D+03
 0.234480978958338D+03 -.000000000000000D+00 -.000000000000000D+00 -.234480978958338D+03
 0.229321952114465D+03 0.473764690888754D+02 0.186218835008109D+03 0.644774274320280D+01
 0.203836906397233D+03 -.264646872993106D+02 -.182494371658769D+03 -.328282362341407D+02
 0.233646839432524D+02 -.183359353864988D+02 -.234103129531519D+01 0.142906088654252D+02
 0.124384154617257D+02 -.257584640306589D+01 -.138343205402461D+01 0.120898846255126D+02
0.141557407382D-04 0.000000000000D+00 0.000000000000D+00 0.731854703821D-06 0.000000000000D+00  6 21 -3 25 24 -4 21 2 0.21058686D-01 0.61795558D-01 0.51262764D+05 0.51262764D+05 0.51262764D+05 0.11912105D+01  1  2  2  3  6  5       -4 0.538366802942D-02 0.100000000000D+01
0.232050819405D-05 0.747018961942D-06 -.285763621007D-07 0.731854703821D-06 0.000000000000D+00  6 21 -3 25 24 -4 21 4 0.21058686D-01 0.61795558D-01 0.51262764D+05 0.51262764D+05 0.51262764D+05 0.11912105D+01  1  2  3  3  6  5       -4 0.125229254651D-02 0.100000000000D+01
0.130758827085D-05 0.000000000000D+00 0.000000000000D+00 0.731854703821D-06 0.000000000000D+00  6 21 -3 25 24 -4 21 4 0.21058686D-01 0.61795558D-01 0.51262764D+05 0.51262764D+05 0.51262764D+05 0.11912105D+01  1  2 15  3  6  5       -4 0.705657083945D-03 0.100000000000D+01
0.857619949244D-05 0.000000000000D+00 0.000000000000D+00 0.732090077985D-06 0.000000000000D+00  6 21 -3 25 24 -4 21 4 0.21058686D-01 0.61795558D-01 0.51034409D+05 0.51034409D+05 0.51034409D+05 0.11914020D+01  1  2 12  3  6  5       -4 0.463121458674D-02 0.100000000000D+01
-.216431934710D-03 0.000000000000D+00 0.000000000000D+00 0.731854703821D-06 0.000000000000D+00  6 21 -3 25 24 -4 21 4 0.21058686D-01 0.61795558D-01 0.51262764D+05 0.51262764D+05 0.51262764D+05 0.11912105D+01  1  2  4  3  6  5       -4 -.116800319584D+00 0.100000000000D+01
-.245469155268D-04 0.000000000000D+00 0.000000000000D+00 0.731854703821D-06 0.000000000000D+00  6 21 -3 25 24 -4 21 4 0.21058686D-01 0.61795558D-01 0.51262764D+05 0.51262764D+05 0.51262764D+05 0.11912105D+01  1  2  5  3  6  5       -4 -.132470634806D-01 0.100000000000D+01
0.487874773879D-04 0.000000000000D+00 -.000000000000D+00 0.731854703821D-06 0.000000000000D+00  6 21 -3 25 24 -4 21 4 0.21058686D-01 0.61795558D-01 0.51262764D+05 0.51262764D+05 0.51262764D+05 0.11912105D+01  1  2  6  3  6  5       -4 0.263287992054D-01 0.100000000000D+01
  </mgrwgt>
  </event>
</LesHouchesEvents>
