<event>
 5    0  0.1856407E+000  0.2571119E+03  0.7546771E-02  0.1108891E+00
         21   -1    0    0  502  501  0.00000000000E+00  0.00000000000E+00  0.10395823058E+04  0.10395823058E+04  0.00000000000E+00 0. -1.
         21   -1    0    0  503  502 -0.00000000000E+00 -0.00000000000E+00 -0.85146323858E+02  0.85146323858E+02  0.00000000000E+00 0.  1.
         25    1    1    2    0    0 -0.95397412651E+02  0.20342291490E+03  0.78015547115E+03  0.82143113395E+03  0.12500000000E+03 0.  0.
         21    1    1    2  503  504  0.22349964317E+02 -0.15605722135E+03  0.87187849410E+02  0.18015298589E+03  0.00000000000E+00 0.  1.
         21    1    1    2  504  501  0.73047448334E+02 -0.47365693549E+02  0.87092661394E+02  0.12314450983E+03  0.00000000000E+00 0.  1.
<mgrwt>
<rscale>  4 0.25711194E+03</rscale>
<asrwt>0</asrwt>
<pdfrwt beam="1">  1       21 0.15993573E+00 0.25711194E+03</pdfrwt>
<pdfrwt beam="2">  1       21 0.13099435E-01 0.25711194E+03</pdfrwt>
<totfact> 0.12102587E+04</totfact>
</mgrwt>
</event>
<event>
 5    0  0.1856407E+000  0.2418334E+03  0.7546771E-02  0.1118577E+00
         21   -1    0    0  502  501  0.00000000000E+00  0.00000000000E+00  0.17969517151E+03  0.17969517151E+03  0.00000000000E+00 0. -1.
         21   -1    0    0  503  502 -0.00000000000E+00 -0.00000000000E+00 -0.14174947736E+04  0.14174947736E+04  0.00000000000E+00 0. -1.
         25    1    1    2    0    0  0.19515083271E+03  0.69098255965E+02  0.86113502392E+02  0.25670791140E+03  0.12500000000E+03 0.  0.
         21    1    1    2  503  504 -0.22954492161E+02 -0.12327527139E+02 -0.25190575493E+03  0.25324965154E+03  0.00000000000E+00 0. -1.
         21    1    1    2  504  501 -0.17219634055E+03 -0.56770728825E+02 -0.10720073496E+04  0.10872323822E+04  0.00000000000E+00 0. -1.
<mgrwt>
<rscale>  4 0.24183345E+03</rscale>
<asrwt>0</asrwt>
<pdfrwt beam="1">  1       21 0.27645411E-01 0.24183345E+03</pdfrwt>
<pdfrwt beam="2">  1       21 0.21807612E+00 0.24183345E+03</pdfrwt>
<totfact> 0.12271569E+03</totfact>
</mgrwt>
</event>
<event>
 5    0  0.1856407E+000  0.2408980E+03  0.7546771E-02  0.1119196E+00
         21   -1    0    0  502  501  0.00000000000E+00  0.00000000000E+00  0.95965582036E+03  0.95965582036E+03  0.00000000000E+00 0.  1.
         21   -1    0    0  503  502 -0.00000000000E+00 -0.00000000000E+00 -0.62494043612E+02  0.62494043612E+02  0.00000000000E+00 0.  1.
         25    1    1    2    0    0  0.20405493792E+03  0.27720215179E+02  0.66992689146E+03  0.71192265585E+03  0.12500000000E+03 0.  0.
         21    1    1    2  503  504 -0.15131181191E+03 -0.36504124855E+02  0.14905596150E+03  0.21551216952E+03  0.00000000000E+00 0.  1.
         21    1    1    2  504  501 -0.52743126012E+02  0.87839096763E+01  0.78178923795E+02  0.94715038597E+02  0.00000000000E+00 0.  1.
<mgrwt>
<rscale>  4 0.24089796E+03</rscale>
<asrwt>0</asrwt>
<pdfrwt beam="1">  1       21 0.14763935E+00 0.24089796E+03</pdfrwt>
<pdfrwt beam="2">  1       21 0.96144689E-02 0.24089796E+03</pdfrwt>
<totfact> 0.26339236E+04</totfact>
</mgrwt>
</event>
<event>
 5    0  0.1856407E+000  0.3947563E+03  0.7546771E-02  0.1045611E+00
         21   -1    0    0  502  501  0.00000000000E+00  0.00000000000E+00  0.70234009934E+03  0.70234009934E+03  0.00000000000E+00 0.  1.
         21   -1    0    0  503  502 -0.00000000000E+00 -0.00000000000E+00 -0.30863884764E+03  0.30863884764E+03  0.00000000000E+00 0. -1.
         25    1    1    2    0    0 -0.36347702838E+03  0.10083388375E+03  0.45839829465E+03  0.60666054661E+03  0.12500000000E+03 0.  0.
         21    1    1    2  503  504  0.33242405861E+01 -0.30213025474E+02  0.48379657530E+01  0.30777969335E+02  0.00000000000E+00 0.  1.
         21    1    1    2  504  501  0.36015278780E+03 -0.70620858280E+02 -0.69535008701E+02  0.37354043103E+03  0.00000000000E+00 0. -1.
<mgrwt>
<rscale>  4 0.39475632E+03</rscale>
<asrwt>0</asrwt>
<pdfrwt beam="1">  1       21 0.10805232E+00 0.39475632E+03</pdfrwt>
<pdfrwt beam="2">  1       21 0.47482900E-01 0.39475632E+03</pdfrwt>
<totfact> 0.25591752E+03</totfact>
</mgrwt>
</event>
<event>
 5    0  0.1856407E+000  0.2801723E+03  0.7546771E-02  0.1095595E+00
         21   -1    0    0  502  501  0.00000000000E+00  0.00000000000E+00  0.27080840590E+03  0.27080840590E+03  0.00000000000E+00 0. -1.
         21   -1    0    0  503  502 -0.00000000000E+00 -0.00000000000E+00 -0.44635193799E+03  0.44635193799E+03  0.00000000000E+00 0.  1.
         25    1    1    2    0    0 -0.15360485625E+03 -0.19818442057E+03  0.13645100002E+03  0.31163342540E+03  0.12500000000E+03 0.  0.
         21    1    1    2  503  504  0.63510870326E+02  0.13376740403E+03 -0.17007661752E+03  0.22550699514E+03  0.00000000000E+00 0.  1.
         21    1    1    2  504  501  0.90093985921E+02  0.64417016540E+02 -0.14191791460E+03  0.18001992335E+03  0.00000000000E+00 0.  1.
<mgrwt>
<rscale>  4 0.28017230E+03</rscale>
<asrwt>0</asrwt>
<pdfrwt beam="1">  1       21 0.41662832E-01 0.28017230E+03</pdfrwt>
<pdfrwt beam="2">  1       21 0.68669528E-01 0.28017230E+03</pdfrwt>
<totfact> 0.10185628E+04</totfact>
</mgrwt>
</event>
<event>
 5    0  0.4180496E+000  0.3451165E+03  0.7546771E-02  0.1064637E+00
         21   -1    0    0  502  501  0.00000000000E+00  0.00000000000E+00  0.23892710331E+03  0.23892710331E+03  0.00000000000E+00 0. -1.
         21   -1    0    0  503  502 -0.00000000000E+00 -0.00000000000E+00 -0.63293457738E+03  0.63293457738E+03  0.00000000000E+00 0. -1.
         25    1    1    2    0    0 -0.30076955536E+03 -0.11409675766E+03  0.16853115732E+02  0.34552774571E+03  0.12500000000E+03 0.  0.
         21    1    1    2  503  504  0.26298920179E+03  0.95394049643E+02 -0.31312066315E+03  0.41989033646E+03  0.00000000000E+00 0. -1.
         21    1    1    2  504  501  0.37780353576E+02  0.18702708015E+02 -0.97739926660E+02  0.10644359853E+03  0.00000000000E+00 0. -1.
<mgrwt>
<rscale>  4 0.34511650E+03</rscale>
<asrwt>0</asrwt>
<pdfrwt beam="1">  1       21 0.36758016E-01 0.34511650E+03</pdfrwt>
<pdfrwt beam="2">  1       21 0.97374550E-01 0.34511650E+03</pdfrwt>
<totfact> 0.57119740E+03</totfact>
</mgrwt>
</event>
<event>
 5    0  0.1856407E+000  0.2516493E+03  0.7546771E-02  0.1112267E+00
         21   -1    0    0  502  501  0.00000000000E+00  0.00000000000E+00  0.98363298520E+03  0.98363298520E+03  0.00000000000E+00 0. -1.
         21   -1    0    0  503  502 -0.00000000000E+00 -0.00000000000E+00 -0.85729335896E+03  0.85729335896E+03  0.00000000000E+00 0.  1.
         25    1    1    2    0    0 -0.17648610191E+03  0.12943234430E+03  0.94670844485E+03  0.97968462041E+03  0.12500000000E+03 0.  0.
         21    1    1    2  503  504  0.28400044125E+02  0.40971803600E-01 -0.14839886352E+02  0.32043508109E+02  0.00000000000E+00 0. -1.
         21    1    1    2  504  501  0.14808605779E+03 -0.12947331611E+03 -0.80552893226E+03  0.82919821563E+03  0.00000000000E+00 0.  1.
<mgrwt>
<rscale>  4 0.25164933E+03</rscale>
<asrwt>0</asrwt>
<pdfrwt beam="1">  1       21 0.15132815E+00 0.25164933E+03</pdfrwt>
<pdfrwt beam="2">  1       21 0.13189129E+00 0.25164933E+03</pdfrwt>
<totfact> 0.11333317E+02</totfact>
</mgrwt>
</event>
<event>
 5    0  0.5567281E+000  0.3660887E+03  0.7546771E-02  0.1056199E+00
         21   -1    0    0  502  501  0.00000000000E+00  0.00000000000E+00  0.33615350496E+03  0.33615350496E+03  0.00000000000E+00 0. -1.
         21   -1    0    0  503  502 -0.00000000000E+00 -0.00000000000E+00 -0.41979623545E+03  0.41979623545E+03  0.00000000000E+00 0. -1.
         25    1    1    2    0    0 -0.34140680839E+03 -0.42864288670E+02 -0.15441718359E+03  0.39732307087E+03  0.12500000000E+03 0.  0.
         21    1    1    2  503  504  0.26266035106E+03  0.26966284338E+02  0.22721883443E+02  0.26501683814E+03  0.00000000000E+00 0. -1.
         21    1    1    2  504  501  0.78746457324E+02  0.15898004332E+02  0.48052569653E+02  0.93609831391E+02  0.00000000000E+00 0.  1.
<mgrwt>
<rscale>  4 0.36608873E+03</rscale>
<asrwt>0</asrwt>
<pdfrwt beam="1">  1       21 0.51715924E-01 0.36608873E+03</pdfrwt>
<pdfrwt beam="2">  1       21 0.64584035E-01 0.36608873E+03</pdfrwt>
<totfact> 0.71582765E+03</totfact>
</mgrwt>
</event>
<event>
 5    0  0.1856407E+000  0.2952665E+03  0.7546771E-02  0.1087631E+00
         21   -1    0    0  502  501  0.00000000000E+00  0.00000000000E+00  0.31728865196E+03  0.31728865196E+03  0.00000000000E+00 0.  1.
         21   -1    0    0  503  502 -0.00000000000E+00 -0.00000000000E+00 -0.43733970043E+03  0.43733970043E+03  0.00000000000E+00 0.  1.
         25    1    1    2    0    0 -0.26746108556E+03  0.46758729167E+01  0.18355843088E+03  0.34767225029E+03  0.12500000000E+03 0.  0.
         21    1    1    2  503  504  0.22094331849E+03 -0.15127598095E+02 -0.26670406717E+03  0.34666389148E+03  0.00000000000E+00 0.  1.
         21    1    1    2  504  501  0.46517767073E+02  0.10451725179E+02 -0.36905412182E+02  0.60292210616E+02  0.00000000000E+00 0.  1.
<mgrwt>
<rscale>  4 0.29526648E+03</rscale>
<asrwt>0</asrwt>
<pdfrwt beam="1">  1       21 0.48813639E-01 0.29526648E+03</pdfrwt>
<pdfrwt beam="2">  1       21 0.67283031E-01 0.29526648E+03</pdfrwt>
<totfact> 0.76164865E+03</totfact>
</mgrwt>
</event>
<event>
 5    0  0.3770597E+000  0.2399377E+03  0.7546771E-02  0.1119834E+00
         21   -1    0    0  502  501  0.00000000000E+00  0.00000000000E+00  0.14435573964E+03  0.14435573964E+03  0.00000000000E+00 0. -1.
         21   -1    0    0  503  502 -0.00000000000E+00 -0.00000000000E+00 -0.38737476453E+03  0.38737476453E+03  0.00000000000E+00 0. -1.
         25    1    1    2    0    0  0.16019431881E+03  0.12760445489E+03 -0.43810981155E+02  0.24390473295E+03  0.12500000000E+03 0.  0.
         21    1    1    2  503  504 -0.88280070081E+01 -0.18415980410E+02 -0.13154392988E+02  0.24292387636E+02  0.00000000000E+00 0. -1.
         21    1    1    2  504  501 -0.15136631180E+03 -0.10918847448E+03 -0.18605365075E+03  0.26353338359E+03  0.00000000000E+00 0. -1.
<mgrwt>
<rscale>  4 0.23993774E+03</rscale>
<asrwt>0</asrwt>
<pdfrwt beam="1">  1       21 0.22208576E-01 0.23993774E+03</pdfrwt>
<pdfrwt beam="2">  1       21 0.59596116E-01 0.23993774E+03</pdfrwt>
<totfact> 0.48781488E+04</totfact>
</mgrwt>
</event>
<event>
 5    0  0.4325109E+000  0.2704127E+03  0.7546771E-02  0.1101044E+00
         21   -1    0    0  502  501  0.00000000000E+00  0.00000000000E+00  0.71941506478E+03  0.71941506478E+03  0.00000000000E+00 0.  1.
         21   -1    0    0  503  502 -0.00000000000E+00 -0.00000000000E+00 -0.20767663097E+03  0.20767663097E+03  0.00000000000E+00 0.  1.
         25    1    1    2    0    0  0.14081412064E+02  0.26085495383E+03  0.48938078723E+03  0.56864940694E+03  0.12500000000E+03 0.  0.
         21    1    1    2  503  504  0.45508061476E+02 -0.31495172479E+02  0.95551339201E+02  0.11042186365E+03  0.00000000000E+00 0. -1.
         21    1    1    2  504  501 -0.59589473540E+02 -0.22935978135E+03 -0.73193692619E+02  0.24802042516E+03  0.00000000000E+00 0.  1.
<mgrwt>
<rscale>  4 0.27041273E+03</rscale>
<asrwt>0</asrwt>
<pdfrwt beam="1">  1       21 0.11067924E+00 0.27041273E+03</pdfrwt>
<pdfrwt beam="2">  1       21 0.31950251E-01 0.27041273E+03</pdfrwt>
<totfact> 0.57518558E+03</totfact>
</mgrwt>
</event>
<event>
 5    0  0.1856407E+000  0.2882116E+03  0.7546771E-02  0.1091287E+00
         21   -1    0    0  502  501  0.00000000000E+00  0.00000000000E+00  0.32521523184E+03  0.32521523184E+03  0.00000000000E+00 0.  1.
         21   -1    0    0  503  502 -0.00000000000E+00 -0.00000000000E+00 -0.63056964436E+03  0.63056964436E+03  0.00000000000E+00 0.  1.
         25    1    1    2    0    0  0.71627642904E+02 -0.26451933127E+03 -0.50387927359E+03  0.58704371063E+03  0.12500000000E+03 0.  0.
         21    1    1    2  503  504 -0.92695926290E+02  0.16275930520E+03  0.18617567687E+03  0.26409185682E+03  0.00000000000E+00 0.  1.
         21    1    1    2  504  501  0.21068283386E+02  0.10176002607E+03  0.12349184199E+02  0.10464930875E+03  0.00000000000E+00 0.  1.
<mgrwt>
<rscale>  4 0.28821156E+03</rscale>
<asrwt>0</asrwt>
<pdfrwt beam="1">  1       21 0.50033113E-01 0.28821156E+03</pdfrwt>
<pdfrwt beam="2">  1       21 0.97010714E-01 0.28821156E+03</pdfrwt>
<totfact> 0.31373221E+03</totfact>
</mgrwt>
</event>
<event>
 5    0  0.1925655E+000  0.2202825E+03  0.7546771E-02  0.1133673E+00
         21   -1    0    0  502  501  0.00000000000E+00  0.00000000000E+00  0.45069590275E+02  0.45069590275E+02  0.00000000000E+00 0.  1.
         21   -1    0    0  503  502 -0.00000000000E+00 -0.00000000000E+00 -0.18762001827E+04  0.18762001827E+04  0.00000000000E+00 0.  1.
         25    1    1    2    0    0  0.20566367712E+02  0.24863044534E+03 -0.69523069795E+03  0.74914003844E+03  0.12500000000E+03 0.  0.
         21    1    1    2  503  504 -0.79670287773E+02 -0.11677203542E+03 -0.65027534675E+03  0.66546306404E+03  0.00000000000E+00 0.  1.
         21    1    1    2  504  501  0.59103920061E+02 -0.13185840992E+03 -0.48562454773E+03  0.50666667049E+03  0.00000000000E+00 0.  1.
<mgrwt>
<rscale>  4 0.22028248E+03</rscale>
<asrwt>0</asrwt>
<pdfrwt beam="1">  1       21 0.69337810E-02 0.22028248E+03</pdfrwt>
<pdfrwt beam="2">  1       21 0.28864627E+00 0.22028248E+03</pdfrwt>
<totfact> 0.59265054E+03</totfact>
</mgrwt>
</event>
