<LesHouchesEvents version="3.0">
  <!--
  <scalesfunctionalform>
    muR  H_T/2 := sum_i mT(i)/2, i=final state
    muF1 H_T/2 := sum_i mT(i)/2, i=final state
    muF2 H_T/2 := sum_i mT(i)/2, i=final state
    QES  H_T/2 := sum_i mT(i)/2, i=final state
  </scalesfunctionalform>
HERWIG6   
  -->
  <header>
       61
  </header>
  <init>
   2212   2212 0.65000000D+04 0.65000000D+04 -1 -1   244800   244800 -4   1
 0.37108977D-04 0.47379108D-05 0.16530072D-05     66
  </init>
  <event>
  5     66 0.16530072E-05 0.39089833E+02 0.75467711E-02 0.91775634E-01
        4 -1    0    0  501    0 0.00000000E+00 0.00000000E+00 0.93504570E+03 0.93504699E+03 0.15500000E+01 0.0000E+00 0.9000E+01
        1 -1    0    0  502    0 0.00000000E+00 0.00000000E+00 -.55792292E+03 0.55792301E+03 0.32000000E+00 0.0000E+00 0.9000E+01
       25  1    1    2    0    0 0.83747559E+02 -.59764724E+03 0.96383945E+02 0.62378742E+03 0.12500000E+03 0.0000E+00 0.9000E+01
        3  1    1    2  501    0 -.60039020E+02 0.62872261E+03 0.39736010E+03 0.74618504E+03 0.50000000E+00 0.0000E+00 0.9000E+01
        2  1    1    2  502    0 -.23708539E+02 -.31075374E+02 -.11662127E+03 0.12299755E+03 0.32000000E+00 0.0000E+00 0.9000E+01
#aMCatNLO 1  0  0  5  2 0.15652943D+02 0.00000000D+00  -5  6  0 0.00000000D+00 0.00000000D+00 0.00000000D+00 0.00000000D+00 0.00000000D+00
  <mgrwgt>
 0.5422081811D-03    7    2    0
 0.722277272954841D+03 0.000000000000000D+00 0.000000000000000D+00 0.722277272954841D+03
 0.722277272954841D+03 -.000000000000000D+00 -.000000000000000D+00 -.722277272954841D+03
 0.619519742417963D+03 0.837491820132191D+02 -.597637129752682D+03 -.632111295478305D+02
 0.667448463160175D+03 -.600382509892151D+02 0.628714561667536D+03 0.215872321848433D+03
 0.157586340331543D+03 -.237109310240039D+02 -.310774319148545D+02 -.152661192300602D+03
 0.000000000000000D+00 0.000000000000000D+00 0.000000000000000D+00 -.000000000000000D+00
 0.722277272954841D+03 0.000000000000000D+00 0.000000000000000D+00 0.722277272954841D+03
 0.722277272954841D+03 -.000000000000000D+00 -.000000000000000D+00 -.722277272954841D+03
 0.619915524985216D+03 0.835284964855590D+02 -.597926377756208D+03 -.646319980806593D+02
 0.666683319125493D+03 -.602757975429442D+02 0.628403214262297D+03 0.214342894763412D+03
 0.101049380524344D+03 -.301389032024001D+02 -.225017950157458D+02 -.937885549477087D+02
 0.569063212746281D+02 0.688620425978532D+01 -.797504149034320D+01 -.559223417350437D+02
0.219860511422D-03 0.000000000000D+00 0.000000000000D+00 0.102307232932D-05 0.000000000000D+00  6 4 1 25 3 2 21 0 0.14385329D+00 0.85834402D-01 0.41406074D+06 0.41406074D+06 0.41406074D+06 0.10743477D+01  1  2  2  4  6  5        2 0.106378343588D-03 0.100000000000D+01
0.688829589116D-04 0.000000000000D+00 -.844322254464D-06 0.102307232932D-05 0.000000000000D+00  6 4 1 25 3 2 21 2 0.14385329D+00 0.85834402D-01 0.41406074D+06 0.41406074D+06 0.41406074D+06 0.10743477D+01  1  2  3  4  6  5        2 0.384686964828D-04 0.100000000000D+01
-.133169643536D-03 0.000000000000D+00 0.000000000000D+00 0.102307232932D-05 0.000000000000D+00  6 4 1 25 3 2 21 2 0.14385329D+00 0.85834402D-01 0.41406074D+06 0.41406074D+06 0.41406074D+06 0.10743477D+01  1  2 15  4  6  5        2 -.743705363253D-04 0.100000000000D+01
0.105621902886D-02 0.000000000000D+00 0.000000000000D+00 0.102307232932D-05 0.000000000000D+00  6 4 1 25 3 2 21 2 0.14385329D+00 0.85834402D-01 0.41988677D+06 0.41988677D+06 0.41988677D+06 0.10739118D+01  1  2 12  4  6  5        2 0.589159184584D-03 0.100000000000D+01
-.140953660335D-02 0.000000000000D+00 0.000000000000D+00 0.102307232932D-05 0.000000000000D+00  6 4 1 25 3 2 21 2 0.14385329D+00 0.85834402D-01 0.41406074D+06 0.41406074D+06 0.41406074D+06 0.10743477D+01  1  2  4  4  6  5        2 -.787176344230D-03 0.100000000000D+01
-.141795679716D-02 0.000000000000D+00 0.000000000000D+00 0.102307232932D-05 0.000000000000D+00  6 4 1 25 3 2 21 2 0.14385329D+00 0.85834402D-01 0.41406074D+06 0.41406074D+06 0.41406074D+06 0.10743477D+01  1  2  5  4  6  5        2 -.791878724691D-03 0.100000000000D+01
0.261722492517D-02 0.000000000000D+00 -.000000000000D+00 0.102307232932D-05 0.000000000000D+00  6 4 1 25 3 2 21 2 0.14385329D+00 0.85834402D-01 0.41406074D+06 0.41406074D+06 0.41406074D+06 0.10743477D+01  1  2  6  4  6  5        2 0.146162756166D-02 0.100000000000D+01
  </mgrwgt>
  </event>
  <event>
  5     66 -.16530072E-05 0.56015468E+02 0.75467711E-02 0.94133459E-01
        4 -1    0    0  501    0 0.00000000E+00 0.00000000E+00 0.67983677E+03 0.67983853E+03 0.15500000E+01 0.0000E+00 0.9000E+01
        1 -1    0    0  502    0 -.00000000E+00 -.00000000E+00 -.79261577E+03 0.79261584E+03 0.32000000E+00 0.0000E+00 0.9000E+01
       25  1    1    2    0    0 0.46981295E+03 0.19384684E+03 -.39378617E+03 0.65497584E+03 0.12500000E+03 0.0000E+00 0.9000E+01
        3  1    1    2  501    0 -.44158293E+03 -.14547243E+03 0.44537494E+03 0.64382979E+03 0.50000000E+00 0.0000E+00 0.9000E+01
        2  1    1    2  502    0 -.28230020E+02 -.48374408E+02 -.16436778E+03 0.17364874E+03 0.32000000E+00 0.0000E+00 0.9000E+01
#aMCatNLO 1  0  0  5  2 0.26839397D+01 0.00000000D+00  -5  6  0 0.00000000D+00 0.00000000D+00 0.00000000D+00 0.00000000D+00 0.00000000D+00
  <mgrwgt>
 -.1535366575D-02    8    2    0
 0.734064502176616D+03 0.000000000000000D+00 0.000000000000000D+00 0.734064502176616D+03
 0.734064502176616D+03 -.000000000000000D+00 -.000000000000000D+00 -.734064502176616D+03
 0.626639754771288D+03 0.469811985394849D+03 0.193850089530582D+03 -.344602993933825D+03
 0.679931404493660D+03 -.441577773608992D+03 -.145470735226177D+03 0.496139143652265D+03
 0.161557845088282D+03 -.282342117858579D+02 -.483793543044049D+02 -.151536149718440D+03
 0.000000000000000D+00 0.000000000000000D+00 0.000000000000000D+00 -.000000000000000D+00
 0.734064502176616D+03 0.000000000000000D+00 0.000000000000000D+00 0.734064502176616D+03
 0.734064502176616D+03 -.000000000000000D+00 -.000000000000000D+00 -.734064502176616D+03
 0.626681832648253D+03 0.469786823601678D+03 0.193806974769099D+03 -.344738040071688D+03
 0.679852242679358D+03 -.441605072743733D+03 -.145517512324891D+03 0.495992626164876D+03
 0.149940074289267D+03 -.263285400011442D+02 -.474399561382144D+02 -.139779413437328D+03
 0.116548547363533D+02 -.185321085680090D+01 -.849506305993440D+00 -.114751726558605D+02
0.296885289966D-04 0.000000000000D+00 0.000000000000D+00 0.261722944674D-05 0.000000000000D+00  6 4 1 25 3 2 21 0 0.10459041D+00 0.12194103D+00 0.27264962D+06 0.27264962D+06 0.27264962D+06 0.10876369D+01  1  2  2  4  6  5        2 0.223193727563D-04 0.100000000000D+01
0.551253604447D-05 0.000000000000D+00 -.114011768516D-06 0.261722944674D-05 0.000000000000D+00  6 4 1 25 3 2 21 2 0.10459041D+00 0.12194103D+00 0.27264962D+06 0.27264962D+06 0.27264962D+06 0.10876369D+01  1  2  3  4  6  5        2 0.490244329612D-05 0.100000000000D+01
-.188272323329D-04 0.000000000000D+00 0.000000000000D+00 0.261722944674D-05 0.000000000000D+00  6 4 1 25 3 2 21 2 0.10459041D+00 0.12194103D+00 0.27264962D+06 0.27264962D+06 0.27264962D+06 0.10876369D+01  1  2 15  4  6  5        2 -.167435529111D-04 0.100000000000D+01
0.983856473904D-06 0.000000000000D+00 0.000000000000D+00 0.261722944674D-05 0.000000000000D+00  6 4 1 25 3 2 21 2 0.10459041D+00 0.12194103D+00 0.27279660D+06 0.27279660D+06 0.27279660D+06 0.10876194D+01  1  2 12  4  6  5        2 0.874928848421D-06 0.100000000000D+01
-.140718342435D-01 0.000000000000D+00 0.000000000000D+00 0.261722944674D-05 0.000000000000D+00  6 4 1 25 3 2 21 2 0.10459041D+00 0.12194103D+00 0.27264962D+06 0.27264962D+06 0.27264962D+06 0.10876369D+01  1  2  4  4  6  5        2 -.125144523128D-01 0.100000000000D+01
-.374998830224D-02 0.000000000000D+00 0.000000000000D+00 0.261722944674D-05 0.000000000000D+00  6 4 1 25 3 2 21 2 0.10459041D+00 0.12194103D+00 0.27264962D+06 0.27264962D+06 0.27264962D+06 0.10876369D+01  1  2  5  4  6  5        2 -.333496323009D-02 0.100000000000D+01
0.427034104131D-02 0.000000000000D+00 -.000000000000D+00 0.261722944674D-05 0.000000000000D+00  6 4 1 25 3 2 21 2 0.10459041D+00 0.12194103D+00 0.27264962D+06 0.27264962D+06 0.27264962D+06 0.10876369D+01  1  2  6  4  6  5        2 0.379772660736D-02 0.100000000000D+01
0.118128256292D-01 0.000000000000D+00 0.000000000000D+00 0.261722944674D-05 0.780820616618D-05  6 4 1 25 3 2 21 2 0.10459041D+00 0.12194103D+00 0.27279660D+06 0.27279660D+06 0.27279660D+06 0.10876194D+01  1  2 11  4  6  5        2 0.105049691683D-01 0.100000000000D+01
  </mgrwgt>
  </event>
  <event>
  5     66 0.16530072E-05 0.14916548E+03 0.75467711E-02 0.93982386E-01
        4 -1    0    0  501    0 0.00000000E+00 0.00000000E+00 0.13853636E+04 0.13853644E+04 0.15500000E+01 0.0000E+00 0.9000E+01
        1 -1    0    0  502    0 0.00000000E+00 0.00000000E+00 -.69315546E+03 0.69315553E+03 0.32000000E+00 0.0000E+00 0.9000E+01
       25  1    1    2    0    0 0.47781138E+03 -.85895495E+02 -.14259833E+02 0.50150782E+03 0.12500000E+03 0.0000E+00 0.9000E+01
        3  1    1    2  501    0 -.36487855E+03 0.18329875E+03 0.10908194E+04 0.11647412E+04 0.50000000E+00 0.0000E+00 0.9000E+01
        2  1    1    2  502    0 -.11293283E+03 -.97403258E+02 -.38435145E+03 0.41227098E+03 0.32000000E+00 0.0000E+00 0.9000E+01
#aMCatNLO 1  0  0  5  2 0.26839397D+01 0.00000000D+00  -5  6  0 0.00000000D+00 0.00000000D+00 0.00000000D+00 0.00000000D+00 0.00000000D+00
  <mgrwgt>
 0.3757317305D-03    1    2    0
 0.979935355295515D+03 0.000000000000000D+00 0.000000000000000D+00 0.979935355295515D+03
 0.979935355295515D+03 -.000000000000000D+00 -.000000000000000D+00 -.979935355295515D+03
 0.536861204721151D+03 0.477817690852116D+03 -.858691508056995D+02 -.192124169180521D+03
 0.849939738562388D+03 -.364858521071754D+03 0.183288688613221D+03 0.745440189026108D+03
 0.573069767307491D+03 -.112959169780363D+03 -.974195378075221D+02 -.553316019845587D+03
 0.000000000000000D+00 0.000000000000000D+00 0.000000000000000D+00 0.000000000000000D+00
 0.979935355295515D+03 0.000000000000000D+00 0.000000000000000D+00 0.979935355295515D+03
 0.979935355295515D+03 -.000000000000000D+00 -.000000000000000D+00 -.979935355295515D+03
 0.558978040216531D+03 0.461579864530404D+03 -.998731625059959D+02 -.271663080884131D+03
 0.756936485214752D+03 -.388668744298122D+03 0.162754003856624D+03 0.628808861327210D+03
 0.256449887237050D+03 -.457670272471873D+02 0.229679777456781D+03 -.104494610905322D+03
 0.387506297922697D+03 -.271440929850955D+02 -.292560618807409D+03 -.252651169537756D+03
0.361760506970D-02 0.000000000000D+00 0.000000000000D+00 0.927940015466D-05 0.000000000000D+00  6 4 1 25 3 2 21 2 0.21313293D+00 0.10663937D+00 0.28025448D+06 0.28025448D+06 0.28025448D+06 0.10867463D+01  1  2 14  4  6  5        2 0.375731730526D-03 0.100000000000D+01
  </mgrwgt>
  </event>
  <event>
  5     66 0.16530072E-05 0.24950813E+02 0.75467711E-02 0.88847348E-01
        4 -1    0    0  501    0 0.00000000E+00 0.00000000E+00 0.41844615E+03 0.41844902E+03 0.15500000E+01 0.0000E+00 0.9000E+01
        1 -1    0    0  502    0 0.00000000E+00 0.00000000E+00 -.40309770E+04 0.40309770E+04 0.32000000E+00 0.0000E+00 0.9000E+01
       25  1    1    2    0    0 0.46676951E+03 -.68705187E+03 -.16790891E+04 0.18774662E+04 0.12500000E+03 0.0000E+00 0.9000E+01
        3  1    1    2  501    0 -.44216322E+03 0.68294294E+03 -.19930126E+03 0.83763991E+03 0.50000000E+00 0.0000E+00 0.9000E+01
        2  1    1    2  502    0 -.24606288E+02 0.41089341E+01 -.17341404E+04 0.17343199E+04 0.32000000E+00 0.0000E+00 0.9000E+01
#aMCatNLO 1  0  0  2  5 0.89520600D+01 0.00000000D+00  -5  6  0 0.00000000D+00 0.00000000D+00 0.00000000D+00 0.00000000D+00 0.00000000D+00
  <mgrwgt>
 0.4980166312D-02    7    2    0
 0.129875063530848D+04 0.000000000000000D+00 0.000000000000000D+00 0.129875063530848D+04
 0.129875063530848D+04 0.000000000000000D+00 0.000000000000000D+00 -.129875063530848D+04
 0.880739755550160D+03 0.466758173772148D+03 -.687029401321140D+03 -.264962121715089D+03
 0.115762486790425D+04 -.442148153205469D+03 0.682919661168558D+03 0.823541791165901D+03
 0.559136647162562D+03 -.246100205666787D+02 0.410974015258171D+01 -.558579669450811D+03
 0.000000000000000D+00 0.000000000000000D+00 -.000000000000000D+00 -.000000000000000D+00
 0.129991540416542D+04 0.000000000000000D+00 0.000000000000000D+00 0.129991540416542D+04
 0.155886757619241D+04 0.000000000000000D+00 0.000000000000000D+00 -.155886757619241D+04
 0.870804969065888D+03 0.457750428364230D+03 -.680393939963051D+03 -.264962121715089D+03
 0.116744171335444D+04 -.454105374466277D+03 0.691727823037394D+03 0.823541791165901D+03
 0.559466549799871D+03 -.303627099893990D+02 0.834739859439259D+01 -.558579669450811D+03
 0.261069748137629D+03 0.267176560914460D+02 -.196812816687360D+02 -.258952172026999D+03
0.676127284543D-02 0.000000000000D+00 0.000000000000D+00 0.387095609033D-04 0.000000000000D+00  6 4 1 25 3 2 21 0 0.64376553D-01 0.62015052D+00 0.70429558D+06 0.70429558D+06 0.70429558D+06 0.10581513D+01  1  2  2  2  6  2        1 0.653620318540D-04 0.100000000000D+01
0.507072355437D-02 0.000000000000D+00 -.259650680105D-04 0.387095609033D-04 0.000000000000D+00  6 4 1 25 3 2 21 2 0.64376553D-01 0.62015052D+00 0.70429558D+06 0.70429558D+06 0.70429558D+06 0.10581513D+01  1  2  3  2  6  2        1 0.548861225087D-04 0.100000000000D+01
-.416985325887D-02 0.000000000000D+00 0.000000000000D+00 0.387095609033D-04 0.000000000000D+00  6 4 1 25 3 2 21 2 0.64376553D-01 0.62015052D+00 0.70429558D+06 0.70429558D+06 0.70429558D+06 0.10581513D+01  1  2 15  2  6  2        1 -.451349939225D-04 0.100000000000D+01
-.121772710351D-01 0.000000000000D+00 0.000000000000D+00 0.387095609033D-04 0.000000000000D+00  6 4 1 25 3 2 21 2 0.64376553D-01 0.62015052D+00 0.70429558D+06 0.70429558D+06 0.70429558D+06 0.10581513D+01  1  2  4  2  6  2        1 -.131808248407D-03 0.100000000000D+01
-.478419552866D+00 0.000000000000D+00 -.456922600961D-02 0.387095609033D-04 0.000000000000D+00  6 4 1 25 3 2 21 2 0.64376553D-01 0.74443342D+00 0.70429558D+06 0.70429558D+06 0.70429558D+06 0.10581513D+01  1  2  5  2  6  2        1 -.670484950113D-03 0.100000000000D+01
0.527347981730D+00 0.000000000000D+00 0.503689580471D-02 0.387095609033D-04 0.000000000000D+00  6 4 1 25 3 2 21 2 0.64376553D-01 0.62015052D+00 0.70429558D+06 0.70429558D+06 0.70429558D+06 0.10581513D+01  1  2  6  2  6  2        1 0.570807807201D-02 0.100000000000D+01
-.127183415842D-01 0.000000000000D+00 -.121898108966D-03 0.387095609033D-04 0.000000000000D+00  6 4 21 25 3 2 -1 2 0.64376553D-01 0.74443342D+00 0.70429558D+06 0.70429558D+06 0.70429558D+06 0.10581513D+01  1  2  5  6  6  2        1 -.731721977919D-06 0.100000000000D+01
  </mgrwgt>
  </event>
  <event>
  6     66 0.16530072E-05 0.14396361E+03 0.75467711E-02 0.93150902E-01
       21 -1    0    0  501  503 0.00000000E+00 0.00000000E+00 0.15467004E+03 0.15467186E+03 0.75000000E+00 0.0000E+00 0.9000E+01
        1 -1    0    0  502    0 0.00000000E+00 0.00000000E+00 -.24144047E+04 0.24144047E+04 0.32000000E+00 0.0000E+00 0.9000E+01
       25  1    1    2    0    0 0.38757629E+03 -.30567221E+03 -.71473532E+03 0.87756621E+03 0.12500000E+03 0.0000E+00 0.9000E+01
        3  1    1    2  501    0 -.37134141E+03 0.12608568E+03 -.73890154E+03 0.83652123E+03 0.50000000E+00 0.0000E+00 0.9000E+01
        2  1    1    2  502    0 0.56528176E+02 0.15200404E+03 -.72368310E+03 0.74163199E+03 0.32000000E+00 0.0000E+00 0.9000E+01
       -4  1    1    2    0  503 -.72763053E+02 0.27582486E+02 -.82414657E+02 0.11335711E+03 0.15500000E+01 0.0000E+00 0.9000E+01
#aMCatNLO 2  0  0  1  4 0.77815522D+02 0.00000000D+00  -5  6  0 0.00000000D+00 0.00000000D+00 0.00000000D+00 0.00000000D+00 0.00000000D+00
  <mgrwgt>
 0.2070955259D-01    2    2    0
 0.566520178753020D+03 0.000000000000000D+00 0.000000000000000D+00 0.566520178753020D+03
 0.566520178753020D+03 0.000000000000000D+00 0.000000000000000D+00 -.566520178753020D+03
 0.496188924570903D+03 0.354666209217685D+03 -.293263402287745D+03 0.137065334000258D+03
 0.419952066168134D+03 -.397299358409139D+03 0.135929052140115D+03 0.602083639216448D+01
 0.216899366767003D+03 0.426331491914535D+02 0.157334350147629D+03 -.143086170392423D+03
 0.000000000000000D+00 -.000000000000000D+00 0.000000000000000D+00 0.000000000000000D+00
 0.630961129100152D+03 0.000000000000000D+00 0.000000000000000D+00 0.630961129100152D+03
 0.591842926173762D+03 0.000000000000000D+00 0.000000000000000D+00 -.591842926173762D+03
 0.527273298431394D+03 0.387490560076179D+03 -.305706217316510D+03 0.137065334000258D+03
 0.392117991041413D+03 -.371254750332322D+03 0.126056252455711D+03 0.602083639216448D+01
 0.216318051509620D+03 0.565272433904640D+02 0.152067478462769D+03 -.143086170392423D+03
 0.870947142914869D+02 -.727630531343209D+02 0.275824863980304D+02 0.391182029263896D+02
-.976628786162D-06 0.000000000000D+00 0.000000000000D+00 0.153779652560D-07 0.000000000000D+00  6 21 1 25 3 2 -4 2 0.25046367D-01 0.35555011D+00 0.32562304D+06 0.32562304D+06 0.32562304D+06 0.10819283D+01  1  2 13  5  6  1        4 -.388980816303D-04 0.100000000000D+01
0.555455940919D-03 0.000000000000D+00 0.000000000000D+00 0.153779652560D-07 0.145745410193D-09  6 21 1 25 3 2 -4 2 0.23795260D-01 0.37144276D+00 0.32562304D+06 0.32562304D+06 0.32562304D+06 0.10819283D+01  1  2  1  5  6  1        4 0.207484506707D-01 0.100000000000D+01
  </mgrwgt>
  </event>
  <event>
  6     66 0.16530072E-05 0.11988629E+03 0.75467711E-02 0.90479501E-01
        4 -1    0    0  501    0 0.00000000E+00 0.00000000E+00 0.16963215E+04 0.16963222E+04 0.15500000E+01 0.0000E+00 0.9000E+01
        1 -1    0    0  502    0 0.00000000E+00 0.00000000E+00 -.42405237E+03 0.42405249E+03 0.32000000E+00 0.0000E+00 0.9000E+01
       25  1    1    2    0    0 -.47129208E+03 0.50230500E+03 0.94873201E+03 0.11790437E+04 0.12500000E+03 0.0000E+00 0.9000E+01
        3  1    1    2  501    0 -.52476274E+01 0.27238064E+02 0.18677465E+03 0.18882391E+03 0.50000000E+00 0.0000E+00 0.9000E+01
        2  1    1    2  503    0 0.40465732E+03 -.31796398E+03 0.11987951E+03 0.52841257E+03 0.32000000E+00 0.0000E+00 0.9000E+01
       21  1    1    2  502  503 0.71882382E+02 -.21157909E+03 0.16882990E+02 0.22409459E+03 0.75000000E+00 0.0000E+00 0.9000E+01
#aMCatNLO 2  0  0  5  2 0.92909698D+02 0.00000000D+00  -5  6  0 0.00000000D+00 0.00000000D+00 0.00000000D+00 0.00000000D+00 0.00000000D+00
  <mgrwgt>
 0.3697861594D-03    1    2    0
 0.848133272273123D+03 0.000000000000000D+00 0.000000000000000D+00 0.848133272273123D+03
 0.848133272273123D+03 -.000000000000000D+00 -.000000000000000D+00 -.848133272273123D+03
 0.773462833005242D+03 -.477924715249358D+03 0.509742082784521D+03 0.307198192756423D+03
 0.964608882681281D+02 -.603348228344939D+01 0.280157763207443D+02 0.921054631070145D+02
 0.826342823272877D+03 0.483958197532808D+03 -.537757859105265D+03 -.399303655863437D+03
 0.000000000000000D+00 0.000000000000000D+00 0.000000000000000D+00 -.000000000000000D+00
 0.848133272273123D+03 0.000000000000000D+00 0.000000000000000D+00 0.848133272273123D+03
 0.848133272273123D+03 -.000000000000000D+00 -.000000000000000D+00 -.848133272273123D+03
 0.762594117747399D+03 -.471445513971571D+03 0.502542615091614D+03 0.301852341047567D+03
 0.955162295981928D+02 -.522370867005833D+01 0.271159834731036D+02 0.914373360541054D+02
 0.570495206300922D+03 0.404671744084426D+03 -.317899246673141D+03 -.246263332464762D+03
 0.267660990899733D+03 0.719974785572034D+02 -.211759351891576D+03 -.147026344636910D+03
0.450378173265D-02 0.000000000000D+00 0.000000000000D+00 0.947962205139D-06 0.391193601069D-09  6 4 1 25 3 2 21 2 0.26097261D+00 0.65238890D-01 0.53743206D+06 0.53743206D+06 0.53743206D+06 0.10663015D+01  1  2  1  4  6  5        2 0.369786159429D-03 0.100000000000D+01
  </mgrwgt>
  </event>
  <event>
  6     66 0.16530072E-05 0.24273928E+02 0.75467711E-02 0.94418977E-01
        4 -1    0    0  501    0 0.00000000E+00 0.00000000E+00 0.80759065E+03 0.80759214E+03 0.15500000E+01 0.0000E+00 0.9000E+01
        1 -1    0    0  502    0 0.00000000E+00 0.00000000E+00 -.57785226E+03 0.57785234E+03 0.32000000E+00 0.0000E+00 0.9000E+01
       25  1    1    2    0    0 0.47552402E+03 -.17145217E+02 -.64809179E+02 0.49622806E+03 0.12500000E+03 0.0000E+00 0.9000E+01
        3  1    1    2  503    0 0.20263928E+02 0.20396283E+02 0.38336154E+03 0.38443849E+03 0.50000000E+00 0.0000E+00 0.9000E+01
        2  1    1    2  502    0 -.46293240E+03 -.11052625E+02 -.80768404E+02 0.47005553E+03 0.32000000E+00 0.0000E+00 0.9000E+01
       21  1    1    2  501  503 -.32855550E+02 0.78015592E+01 -.80455595E+01 0.34722399E+02 0.75000000E+00 0.0000E+00 0.9000E+01
#aMCatNLO 2  0  0  4  1 0.34600583D+02 0.00000000D+00  -5  6  0 0.00000000D+00 0.00000000D+00 0.00000000D+00 0.00000000D+00 0.00000000D+00
  <mgrwgt>
 0.2521944713D-03    2    2    0
 0.683131884029483D+03 0.000000000000000D+00 0.000000000000000D+00 0.683131884029483D+03
 0.683131884029483D+03 -.000000000000000D+00 -.000000000000000D+00 -.683131884029483D+03
 0.521071798004887D+03 0.476724862037290D+03 -.188746745933876D+02 -.168130815886220D+03
 0.348946171808412D+03 -.140991095615092D+02 0.315737287195626D+02 0.347228664692392D+03
 0.496245798245668D+03 -.462625752475781D+03 -.126990541261751D+02 -.179097848806172D+03
 0.000000000000000D+00 0.000000000000000D+00 0.000000000000000D+00 -.000000000000000D+00
 0.683131884029483D+03 0.000000000000000D+00 0.000000000000000D+00 0.683131884029483D+03
 0.683131884029483D+03 -.000000000000000D+00 -.000000000000000D+00 -.683131884029483D+03
 0.514369896368886D+03 0.475939717226523D+03 -.171164111262823D+02 -.148794503685560D+03
 0.324741932640114D+03 0.203233898320188D+02 0.203295833378282D+02 0.323467140034166D+03
 0.490562698488312D+03 -.463374020171240D+03 -.110233737491300D+02 -.160669735201329D+03
 0.365892405616544D+02 -.328890868873026D+02 0.781020153758397D+01 -.140029011472767D+02
-.285438998575D-03 0.000000000000D+00 0.000000000000D+00 0.715315526574D-05 0.000000000000D+00  6 4 1 25 3 2 21 2 0.12424484D+00 0.88900468D-01 0.24531235D+06 0.24531235D+06 0.24531235D+06 0.10910781D+01  1  2  8  3  6  4        3 -.249802078565D-03 0.100000000000D+01
0.576273457775D-03 0.000000000000D+00 0.000000000000D+00 0.715315526574D-05 0.587047059418D-06  6 4 1 25 3 2 21 2 0.12424484D+00 0.88900468D-01 0.25930161D+06 0.25930161D+06 0.25930161D+06 0.10892676D+01  1  2  1  3  6  4        3 0.501996549854D-03 0.100000000000D+01
  </mgrwgt>
  </event>
  <event>
  5     66 0.16530072E-05 0.47871569E+02 0.75467711E-02 0.93720564E-01
        4 -1    0    0  501    0 0.00000000E+00 0.00000000E+00 0.16202474E+04 0.16202481E+04 0.15500000E+01 0.0000E+00 0.9000E+01
        1 -1    0    0  502    0 0.00000000E+00 0.00000000E+00 -.11768040E+04 0.11768040E+04 0.32000000E+00 0.0000E+00 0.9000E+01
       25  1    1    2    0    0 0.30993054E+03 0.39695124E+03 0.11212549E+04 0.12355019E+04 0.12500000E+03 0.0000E+00 0.9000E+01
        3  1    1    2  501    0 -.26646015E+03 -.37692182E+03 0.32058837E+03 0.56200375E+03 0.50000000E+00 0.0000E+00 0.9000E+01
        2  1    1    2  502    0 -.43470384E+02 -.20029429E+02 -.99839989E+03 0.99954655E+03 0.32000000E+00 0.0000E+00 0.9000E+01
#aMCatNLO 1  0  0  1  4 0.47571693D+02 0.00000000D+00  -5  6  0 0.00000000D+00 0.00000000D+00 0.00000000D+00 0.00000000D+00 0.00000000D+00
  <mgrwgt>
 0.8280017077D-03    9    2    0
 0.138083840374788D+04 0.000000000000000D+00 0.000000000000000D+00 0.138083840374788D+04
 0.138083840374788D+04 0.000000000000000D+00 0.000000000000000D+00 -.138083840374788D+04
 0.107142899102174D+04 0.309780624164275D+03 0.396731770017873D+03 0.937536639472158D+03
 0.517418854623927D+03 -.266302358546792D+03 -.376698608155427D+03 0.234314923909076D+03
 0.117282896185009D+04 -.434782656174833D+02 -.200331618624460D+02 -.117185156338123D+04
 0.000000000000000D+00 0.000000000000000D+00 0.000000000000000D+00 0.000000000000000D+00
 0.172880095250837D+04 0.000000000000000D+00 0.000000000000000D+00 0.172880095250837D+04
 0.138267015046452D+04 0.000000000000000D+00 0.000000000000000D+00 -.138267015046452D+04
 0.106306745097774D+04 0.301346623341398D+03 0.380398038344445D+03 0.937536639472158D+03
 0.525365864935124D+03 -.270422696725761D+03 -.384678272804797D+03 0.234314923909076D+03
 0.117365318798380D+04 -.527498820948703D+02 -.379890642747142D+02 -.117185156338123D+04
 0.349384599076228D+03 0.218259554792339D+02 0.422692987350665D+02 0.346130802043853D+03
0.296010423920D-02 0.000000000000D+00 0.000000000000D+00 0.316346463883D-04 0.000000000000D+00  6 4 1 25 3 2 21 0 0.24926889D+00 0.18104683D+00 0.26410976D+06 0.26410976D+06 0.26410976D+06 0.10886698D+01  1  2  2  1  6  1        4 0.549693926947D-04 0.100000000000D+01
0.146785698494D-02 0.000000000000D+00 -.113675796919D-04 0.316346463883D-04 0.000000000000D+00  6 4 1 25 3 2 21 2 0.24926889D+00 0.18104683D+00 0.26410976D+06 0.26410976D+06 0.26410976D+06 0.10886698D+01  1  2  3  1  6  1        4 0.323065100915D-04 0.100000000000D+01
-.192791262225D-02 0.000000000000D+00 0.000000000000D+00 0.316346463883D-04 0.000000000000D+00  6 4 1 25 3 2 21 2 0.24926889D+00 0.18104683D+00 0.26410976D+06 0.26410976D+06 0.26410976D+06 0.10886698D+01  1  2 15  1  6  1        4 -.424320143076D-04 0.100000000000D+01
0.202423968649D+00 0.000000000000D+00 0.000000000000D+00 0.316346463883D-04 0.000000000000D+00  6 4 1 25 3 2 21 2 0.31382003D+00 0.18104683D+00 0.29372730D+06 0.29372730D+06 0.29372730D+06 0.10852315D+01  1  2 12  1  6  1        4 0.137569531882D-02 0.100000000000D+01
-.159841527589D+00 0.000000000000D+00 0.000000000000D+00 0.316346463883D-04 0.000000000000D+00  6 4 1 25 3 2 21 2 0.24926889D+00 0.18104683D+00 0.26410976D+06 0.26410976D+06 0.26410976D+06 0.10886698D+01  1  2  4  1  6  1        4 -.351800071607D-02 0.100000000000D+01
-.208585257712D+00 0.000000000000D+00 -.241803919001D-02 0.316346463883D-04 0.000000000000D+00  6 4 1 25 3 2 21 2 0.31221035D+00 0.18104683D+00 0.26410976D+06 0.26410976D+06 0.26410976D+06 0.10886698D+01  1  2  5  1  6  1        4 -.148045287884D-02 0.100000000000D+01
0.203997465115D+00 0.000000000000D+00 0.235802194042D-02 0.316346463883D-04 0.000000000000D+00  6 4 1 25 3 2 21 2 0.24926889D+00 0.18104683D+00 0.26410976D+06 0.26410976D+06 0.26410976D+06 0.10886698D+01  1  2  6  1  6  1        4 0.448984215289D-02 0.100000000000D+01
0.644536854441D-02 0.000000000000D+00 0.000000000000D+00 0.316346463883D-04 0.000000000000D+00  6 21 1 25 3 2 -4 2 0.31382003D+00 0.18104683D+00 0.29372730D+06 0.29372730D+06 0.29372730D+06 0.10852315D+01  1  2 12  5  6  1        4 0.154695425294D-02 0.100000000000D+01
-.649608360678D-02 0.000000000000D+00 -.757011395776D-04 0.316346463883D-04 0.000000000000D+00  6 21 1 25 3 2 -4 2 0.31221035D+00 0.18104683D+00 0.26410976D+06 0.26410976D+06 0.26410976D+06 0.10886698D+01  1  2  5  5  6  1        4 -.163088031056D-02 0.100000000000D+01
  </mgrwgt>
  </event>
  <event>
  5     66 0.16530072E-05 0.42894011E+02 0.75467711E-02 0.92058306E-01
        4 -1    0    0  501    0 0.00000000E+00 0.00000000E+00 0.53161395E+03 0.53161621E+03 0.15500000E+01 0.0000E+00 0.9000E+01
        1 -1    0    0  502    0 -.00000000E+00 -.00000000E+00 -.20675578E+04 0.20675579E+04 0.32000000E+00 0.0000E+00 0.9000E+01
       25  1    1    2    0    0 -.35473495E+03 -.31498447E+03 -.10825477E+03 0.50239048E+03 0.12500000E+03 0.0000E+00 0.9000E+01
        3  1    1    2  501    0 0.21657954E+02 -.37041792E+02 0.29967105E+03 0.30272784E+03 0.50000000E+00 0.0000E+00 0.9000E+01
        2  1    1    2  502    0 0.33307700E+03 0.35202626E+03 -.17273602E+04 0.17940557E+04 0.32000000E+00 0.0000E+00 0.9000E+01
#aMCatNLO 1  0  0  4  1 0.30273489D+02 0.00000000D+00  -5  6  0 0.00000000D+00 0.00000000D+00 0.00000000D+00 0.00000000D+00 0.00000000D+00
  <mgrwgt>
 0.4125736261D-02    6    2    0
 0.104840142835472D+04 0.000000000000000D+00 0.000000000000000D+00 0.104840142835472D+04
 0.104840142835472D+04 -.000000000000000D+00 -.000000000000000D+00 -.104840142835472D+04
 0.543633156957171D+03 -.354805639233473D+03 -.315074826716586D+03 0.233993207766507D+03
 0.594567717734612D+03 0.216505119580759D+02 -.370290629399523D+02 0.593018443896889D+03
 0.958601982017650D+03 0.333155127275397D+03 0.352103889656539D+03 -.827011651663395D+03
 0.000000000000000D+00 0.000000000000000D+00 0.000000000000000D+00 0.000000000000000D+00
 0.104840142835472D+04 0.000000000000000D+00 0.000000000000000D+00 0.104840142835472D+04
 0.104840142835472D+04 -.000000000000000D+00 -.000000000000000D+00 -.104840142835472D+04
 0.556325227790363D+03 -.353804274117851D+03 -.316787470369726D+03 0.261421103411125D+03
 0.157743616797460D+03 -.131952329901961D+03 -.344229728659535D+02 0.792886512235989D+02
 0.918041341460608D+03 0.334863560234910D+03 0.349181941588567D+03 -.780216811101909D+03
 0.464692670661002D+03 0.150893043784902D+03 0.202850164711340D+01 0.439507056467185D+03
0.225296656483D-01 0.000000000000D+00 0.000000000000D+00 0.156419609890D-03 0.000000000000D+00  6 4 1 25 3 2 21 0 0.81786937D-01 0.31808600D+00 0.25924807D+06 0.25924807D+06 0.25924807D+06 0.10892743D+01  1  2  2  3  6  4        3 0.416995126354D-02 0.100000000000D+01
0.961186471368D-02 0.000000000000D+00 -.865198482867D-04 0.156419609890D-03 0.000000000000D+00  6 4 1 25 3 2 21 2 0.81786937D-01 0.31808600D+00 0.25924807D+06 0.25924807D+06 0.25924807D+06 0.10892743D+01  1  2  3  3  6  4        3 0.211085498302D-02 0.100000000000D+01
-.141943120572D-01 0.000000000000D+00 0.000000000000D+00 0.156419609890D-03 0.000000000000D+00  6 4 1 25 3 2 21 2 0.81786937D-01 0.31808600D+00 0.25924807D+06 0.25924807D+06 0.25924807D+06 0.10892743D+01  1  2 15  3  6  4        3 -.311720308483D-02 0.100000000000D+01
-.609874287698D-03 0.000000000000D+00 0.000000000000D+00 0.156419609890D-03 0.000000000000D+00  6 4 1 25 3 2 21 2 0.81786937D-01 0.31808600D+00 0.25924807D+06 0.25924807D+06 0.25924807D+06 0.10892743D+01  1  2  4  3  6  4        3 -.133934071853D-03 0.100000000000D+01
-.549113412833D-02 0.000000000000D+00 0.000000000000D+00 0.156419609890D-03 0.000000000000D+00  6 4 1 25 3 2 21 2 0.81786937D-01 0.31808600D+00 0.25924807D+06 0.25924807D+06 0.25924807D+06 0.10892743D+01  1  2  5  3  6  4        3 -.120590418014D-02 0.100000000000D+01
0.104821209308D-01 0.000000000000D+00 -.000000000000D+00 0.156419609890D-03 0.000000000000D+00  6 4 1 25 3 2 21 2 0.81786937D-01 0.31808600D+00 0.25924807D+06 0.25924807D+06 0.25924807D+06 0.10892743D+01  1  2  6  3  6  4        3 0.230197135088D-02 0.100000000000D+01
  </mgrwgt>
  </event>
  <event>
  5     66 0.16530072E-05 0.18589761E+02 0.75467711E-02 0.83413903E-01
        4 -1    0    0  501    0 0.00000000E+00 0.00000000E+00 0.11620198E+04 0.11620209E+04 0.15500000E+01 0.0000E+00 0.9000E+01
        1 -1    0    0  502    0 0.00000000E+00 0.00000000E+00 -.14124612E+04 0.14124612E+04 0.32000000E+00 0.0000E+00 0.9000E+01
       25  1    1    2    0    0 -.45445207E+03 -.49625136E+03 -.27664633E+02 0.68496893E+03 0.12500000E+03 0.0000E+00 0.9000E+01
        3  1    1    2  501    0 0.46224772E+03 0.47937868E+03 0.70022213E+03 0.96632714E+03 0.50000000E+00 0.0000E+00 0.9000E+01
        2  1    1    2  502    0 -.77956474E+01 0.16872682E+02 -.92299885E+03 0.92318602E+03 0.32000000E+00 0.0000E+00 0.9000E+01
#aMCatNLO 1  0  0  1  1 0.35241431D+02 0.00000000D+00  -5  6  0 0.00000000D+00 0.00000000D+00 0.00000000D+00 0.00000000D+00 0.00000000D+00
  <mgrwgt>
 0.1564417180D-01    5    2    0
 0.128113593950017D+04 0.000000000000000D+00 0.000000000000000D+00 0.128113593950017D+04
 0.128113593950017D+04 0.000000000000000D+00 0.000000000000000D+00 -.128113593950017D+04
 0.685490090060373D+03 -.454414950859474D+03 -.496217135236094D+03 0.393353620098276D+02
 0.103929236797048D+04 0.462211862284935D+03 0.479341490620522D+03 0.797947714987942D+03
 0.837489420969495D+03 -.779691142546125D+01 0.168756446155718D+02 -.837283076997770D+03
 0.000000000000000D+00 0.000000000000000D+00 0.000000000000000D+00 0.000000000000000D+00
 0.408067519360102D+04 0.000000000000000D+00 0.000000000000000D+00 0.408067519360102D+04
 0.157666195468398D+04 0.000000000000000D+00 0.000000000000000D+00 -.157666195468398D+04
 0.104575746049115D+04 -.531481471016496D+03 -.891046486685508D+03 0.393353620098276D+02
 0.883311387029729D+03 0.376627116769201D+03 0.408713287773367D+02 0.797947714987942D+03
 0.925685752034977D+03 -.862846903496381D+02 -.385235139499209D+03 -.837283076997770D+03
 0.280258254872914D+04 0.241139044596933D+03 0.123541029740738D+04 0.250401323891704D+04
0.236090732400D+00 0.000000000000D+00 0.000000000000D+00 0.132337719087D-03 0.000000000000D+00  6 4 1 25 3 2 21 0 0.17877236D+00 0.21730180D+00 0.46843023D+06 0.46843023D+06 0.46843023D+06 0.10705180D+01  1  2  2  1  6  1        4 0.109395006884D-01 0.100000000000D+01
0.228937287025D+00 0.000000000000D+00 -.906650576533D-03 0.132337719087D-03 0.000000000000D+00  6 4 1 25 3 2 21 2 0.17877236D+00 0.21730180D+00 0.46843023D+06 0.46843023D+06 0.46843023D+06 0.10705180D+01  1  2  3  1  6  1        4 0.121569063047D-01 0.100000000000D+01
-.140025457069D+00 0.000000000000D+00 0.000000000000D+00 0.132337719087D-03 0.000000000000D+00  6 4 1 25 3 2 21 2 0.17877236D+00 0.21730180D+00 0.46843023D+06 0.46843023D+06 0.46843023D+06 0.10705180D+01  1  2 15  1  6  1        4 -.743555750127D-02 0.100000000000D+01
-.115015937748D+00 0.000000000000D+00 -.107135306793D+00 0.132337719087D-03 0.000000000000D+00  6 4 1 25 3 2 21 2 0.58899025D+00 0.21730180D+00 0.46843023D+06 0.46843023D+06 0.46843023D+06 0.10705180D+01  1  2  5  1  6  1        4 -.146671234730D-05 0.100000000000D+01
-.116125563444D-01 0.000000000000D+00 -.147886423802D-01 0.132337719087D-03 0.000000000000D+00  6 21 1 25 3 2 -4 2 0.58899025D+00 0.21730180D+00 0.46843023D+06 0.46843023D+06 0.46843023D+06 0.10705180D+01  1  2  5  5  6  1        4 -.152109765921D-04 0.100000000000D+01
  </mgrwgt>
  </event>
  <event>
  6     66 0.16530072E-05 0.23515101E+02 0.75467711E-02 0.93916600E-01
        4 -1    0    0  501    0 0.00000000E+00 0.00000000E+00 0.37098894E+03 0.37099217E+03 0.15500000E+01 0.0000E+00 0.9000E+01
        1 -1    0    0  502    0 -.00000000E+00 -.00000000E+00 -.20069499E+04 0.20069499E+04 0.32000000E+00 0.0000E+00 0.9000E+01
       25  1    1    2    0    0 -.47183504E+03 0.13921335E+03 -.52945927E+03 0.73345810E+03 0.12500000E+03 0.0000E+00 0.9000E+01
        3  1    1    2  503    0 -.20798779E+02 -.23521189E+01 0.82475563E+02 0.85091657E+02 0.50000000E+00 0.0000E+00 0.9000E+01
        2  1    1    2  502    0 0.49125945E+03 -.10290403E+03 -.13262101E+04 0.14180121E+04 0.32000000E+00 0.0000E+00 0.9000E+01
       21  1    1    2  501  503 0.13743688E+01 -.33957195E+02 0.13723278E+03 0.14138026E+03 0.75000000E+00 0.0000E+00 0.9000E+01
#aMCatNLO 2  0  0  4  4 0.17546613D+02 0.00000000D+00  -5  6  0 0.00000000D+00 0.00000000D+00 0.00000000D+00 0.00000000D+00 0.00000000D+00
  <mgrwgt>
 0.2600360083D-02    1    2    0
 0.862878956647895D+03 0.000000000000000D+00 0.000000000000000D+00 0.862878956647895D+03
 0.862878956647895D+03 -.000000000000000D+00 -.000000000000000D+00 -.862878956647895D+03
 0.509078495757275D+03 -.472181552522630D+03 0.139298165064835D+03 -.343004010090007D+02
 0.519472185592005D+03 -.194397401950050D+02 -.363379698359022D+02 0.517834915830412D+03
 0.697207231946511D+03 0.491621292717635D+03 -.102960195228933D+03 -.483534514821411D+03
 0.000000000000000D+00 0.000000000000000D+00 -.000000000000000D+00 0.000000000000000D+00
 0.862878956647895D+03 0.000000000000000D+00 0.000000000000000D+00 0.862878956647895D+03
 0.862878956647895D+03 -.000000000000000D+00 -.000000000000000D+00 -.862878956647895D+03
 0.509059365661029D+03 -.472195526473537D+03 0.139272044087834D+03 -.339281635398180D+02
 0.194945025799201D+03 -.207432430228900D+02 -.234936940512117D+01 0.193824047569291D+03
 0.696845641082999D+03 0.491602159329959D+03 -.102995960545611D+03 -.483024840510075D+03
 0.324907880752561D+03 0.133661016646743D+01 -.339267141371019D+02 0.323128956480602D+03
0.449438075790D-02 0.000000000000D+00 0.000000000000D+00 0.380479593190D-04 0.807423014120D-07  6 4 1 25 3 2 21 2 0.57075472D-01 0.30876178D+00 0.28357331D+06 0.28357331D+06 0.28357331D+06 0.10863659D+01  1  2  1  3  6  4        3 0.260036008317D-02 0.100000000000D+01
  </mgrwgt>
  </event>
  <event>
  6     66 0.16530072E-05 0.59039809E+02 0.75467711E-02 0.93890900E-01
       21 -1    0    0  501  503 0.00000000E+00 0.00000000E+00 0.50653257E+03 0.50653313E+03 0.75000000E+00 0.0000E+00 0.9000E+01
        1 -1    0    0  502    0 0.00000000E+00 0.00000000E+00 -.18721684E+04 0.18721685E+04 0.32000000E+00 0.0000E+00 0.9000E+01
       25  1    1    2    0    0 0.43308500E+03 0.14675303E+03 -.58461747E+03 0.75266305E+03 0.12500000E+03 0.0000E+00 0.9000E+01
        3  1    1    2  501    0 -.40050195E+03 -.16166547E+03 0.95225687E+02 0.44227335E+03 0.50000000E+00 0.0000E+00 0.9000E+01
        2  1    1    2  502    0 0.60546937E+02 0.29426615E+02 -.10143351E+04 0.10165666E+04 0.32000000E+00 0.0000E+00 0.9000E+01
       -4  1    1    2    0  503 -.93129996E+02 -.14514180E+02 0.13809099E+03 0.16719863E+03 0.15500000E+01 0.0000E+00 0.9000E+01
#aMCatNLO 2  0  0  1  4 0.39859452D+01 0.00000000D+00  -5  6  0 0.00000000D+00 0.00000000D+00 0.00000000D+00 0.00000000D+00 0.00000000D+00
  <mgrwgt>
 0.1472895635D-02    1    2    0
 0.809423719846723D+03 0.000000000000000D+00 0.000000000000000D+00 0.809423719846723D+03
 0.809423719846723D+03 0.000000000000000D+00 0.000000000000000D+00 -.809423719846723D+03
 0.458886954401969D+03 0.405949177061136D+03 0.142515763423071D+03 -.992308406678144D+02
 0.717099680029196D+03 -.440965330544495D+03 -.167967170782014D+03 0.539970886155213D+03
 0.442860805262280D+03 0.350161534833597D+02 0.254514073589436D+02 -.440740045487398D+03
 0.000000000000000D+00 -.000000000000000D+00 -.000000000000000D+00 0.000000000000000D+00
 0.116051732981850D+04 0.000000000000000D+00 0.000000000000000D+00 0.116051732981850D+04
 0.817145142536284D+03 0.000000000000000D+00 0.000000000000000D+00 -.817145142536284D+03
 0.484295532442258D+03 0.433056198741416D+03 0.146740354829625D+03 -.992308406678144D+02
 0.691440046696392D+03 -.400483963001680D+03 -.161658206283295D+03 0.539970886155213D+03
 0.445853422579753D+03 0.605577598826597D+02 0.294320309839490D+02 -.440740045487398D+03
 0.356073470636384D+03 -.931299956223962D+02 -.145141795302788D+02 0.343372187282219D+03
0.207889815831D-03 0.000000000000D+00 0.000000000000D+00 0.449362522937D-04 0.683660560485D-09  6 21 1 25 3 2 -4 2 0.77927974D-01 0.28802537D+00 0.28488179D+06 0.28488179D+06 0.28488179D+06 0.10862172D+01  1  2  1  5  6  1        4 0.147289563472D-02 0.100000000000D+01
  </mgrwgt>
  </event>
  <event>
  5     66 0.16530072E-05 0.72214523E+02 0.75467711E-02 0.94038819E-01
        4 -1    0    0  501    0 0.00000000E+00 0.00000000E+00 0.56467548E+03 0.56467761E+03 0.15500000E+01 0.0000E+00 0.9000E+01
        1 -1    0    0  502    0 0.00000000E+00 0.00000000E+00 -.98022106E+03 0.98022111E+03 0.32000000E+00 0.0000E+00 0.9000E+01
       25  1    1    2    0    0 -.50889358E+03 0.25959010E+02 0.63160539E+02 0.52845132E+03 0.12500000E+03 0.0000E+00 0.9000E+01
        3  1    1    2  501    0 0.43783006E+03 -.38663149E+02 0.85389026E+02 0.44775165E+03 0.50000000E+00 0.0000E+00 0.9000E+01
        2  1    1    2  502    0 0.71063513E+02 0.12704139E+02 -.56409515E+03 0.56869575E+03 0.32000000E+00 0.0000E+00 0.9000E+01
#aMCatNLO 1  0  0  2  2 0.15089021D+02 0.00000000D+00  -5  6  0 0.00000000D+00 0.00000000D+00 0.00000000D+00 0.00000000D+00 0.00000000D+00
  <mgrwgt>
 0.4335182570D-03    7    2    0
 0.743981506329239D+03 0.000000000000000D+00 0.000000000000000D+00 0.743981506329239D+03
 0.743981506329239D+03 0.000000000000000D+00 0.000000000000000D+00 -.743981506329239D+03
 0.566296858073127D+03 -.508782115343012D+03 0.259432968738095D+02 0.213388931104457D+03
 0.488579659146450D+03 0.437694514280124D+03 -.386511793011121D+02 0.213634458455046D+03
 0.433086495438901D+03 0.710876010628880D+02 0.127078824273025D+02 -.427023389559503D+03
 0.000000000000000D+00 -.000000000000000D+00 -.000000000000000D+00 -.000000000000000D+00
 0.748461124348827D+03 0.000000000000000D+00 0.000000000000000D+00 0.748461124348827D+03
 0.756835556298629D+03 0.000000000000000D+00 0.000000000000000D+00 -.756835556298629D+03
 0.564493013953391D+03 -.506477558202995D+03 0.311931069470743D+02 0.213388931104457D+03
 0.490029980786947D+03 0.439688927113833D+03 -.341078818480589D+02 0.213634458455046D+03
 0.433516522748860D+03 0.728537436703962D+02 0.167311774416543D+02 -.427023389559503D+03
 0.172571631582581D+02 -.606511258123412D+01 -.138164025406697D+02 -.837443194980252D+01
0.110836805686D-03 0.000000000000D+00 0.000000000000D+00 0.365409190044D-05 0.000000000000D+00  6 4 1 25 3 2 21 0 0.86873318D-01 0.15080341D+00 0.26841034D+06 0.26841034D+06 0.26841034D+06 0.10881451D+01  1  2  2  2  6  2        1 0.974072262690D-04 0.100000000000D+01
0.288676494311D-04 0.000000000000D+00 -.425642517837D-06 0.365409190044D-05 0.000000000000D+00  6 4 1 25 3 2 21 2 0.86873318D-01 0.15080341D+00 0.26841034D+06 0.26841034D+06 0.26841034D+06 0.10881451D+01  1  2  3  2  6  2        1 0.300394693444D-04 0.100000000000D+01
-.634485089659D-04 0.000000000000D+00 0.000000000000D+00 0.365409190044D-05 0.000000000000D+00  6 4 1 25 3 2 21 2 0.86873318D-01 0.15080341D+00 0.26841034D+06 0.26841034D+06 0.26841034D+06 0.10881451D+01  1  2 15  2  6  2        1 -.660240642239D-04 0.100000000000D+01
-.969884885381D-05 0.000000000000D+00 0.000000000000D+00 0.365409190044D-05 0.000000000000D+00  6 4 1 25 3 2 21 2 0.86873318D-01 0.15080341D+00 0.26841034D+06 0.26841034D+06 0.26841034D+06 0.10881451D+01  1  2  4  2  6  2        1 -.100925526865D-04 0.100000000000D+01
-.110250983608D-01 0.000000000000D+00 -.133562301546D-02 0.365409190044D-05 0.000000000000D+00  6 4 1 25 3 2 21 2 0.86873318D-01 0.15397394D+00 0.26841034D+06 0.26841034D+06 0.26841034D+06 0.10881451D+01  1  2  5  2  6  2        1 -.110617615172D-01 0.100000000000D+01
0.110507847739D-01 0.000000000000D+00 0.133533396971D-02 0.365409190044D-05 0.000000000000D+00  6 4 1 25 3 2 21 2 0.86873318D-01 0.15080341D+00 0.26841034D+06 0.26841034D+06 0.26841034D+06 0.10881451D+01  1  2  6  2  6  2        1 0.114993675269D-01 0.100000000000D+01
-.414882780654D-04 0.000000000000D+00 -.505163918944D-05 0.365409190044D-05 0.000000000000D+00  6 4 21 25 3 2 -1 2 0.86873318D-01 0.15397394D+00 0.26841034D+06 0.26841034D+06 0.26841034D+06 0.10881451D+01  1  2  5  6  6  2        1 -.554178314442D-04 0.100000000000D+01
  </mgrwgt>
  </event>
  <event>
  6     66 -.16530072E-05 0.85357140E+01 0.75467711E-02 0.94462157E-01
        4 -1    0    0  501    0 0.00000000E+00 0.00000000E+00 0.18222891E+03 0.18223550E+03 0.15500000E+01 0.0000E+00 0.9000E+01
        1 -1    0    0  502    0 -.00000000E+00 -.00000000E+00 -.14592331E+04 0.14592332E+04 0.32000000E+00 0.0000E+00 0.9000E+01
       25  1    1    2    0    0 0.46906052E+03 -.11458972E+03 -.70823509E+03 0.86623929E+03 0.12500000E+03 0.0000E+00 0.9000E+01
        3  1    1    2  501    0 -.47766394E+03 0.10588797E+03 -.49501926E+03 0.69600246E+03 0.50000000E+00 0.0000E+00 0.9000E+01
        2  1    1    2  503    0 0.11109706E+02 -.56239263E+01 -.20195731E+02 0.23728128E+02 0.32000000E+00 0.0000E+00 0.9000E+01
       21  1    1    2  502  503 -.25062808E+01 0.14325672E+02 -.53554156E+02 0.55498797E+02 0.75000000E+00 0.0000E+00 0.9000E+01
#aMCatNLO 2  0  0  5  2 0.11415867D+02 0.00000000D+00  -5  6  0 0.00000000D+00 0.00000000D+00 0.00000000D+00 0.00000000D+00 0.00000000D+00
  <mgrwgt>
 -.1819327795D-01    3    2    0
 0.515674217615919D+03 0.000000000000000D+00 0.000000000000000D+00 0.515674217615919D+03
 0.515674217615919D+03 -.000000000000000D+00 -.000000000000000D+00 -.515674217615919D+03
 0.499919611663960D+03 0.467080939687061D+03 -.116736815323240D+03 -.500252921579137D+02
 0.497313096285330D+03 -.479950453506093D+03 0.103713926887702D+03 0.788117966152888D+02
 0.341157272825481D+02 0.128695138190322D+02 0.130228884355375D+02 -.287865044573752D+02
 0.000000000000000D+00 -.000000000000000D+00 0.000000000000000D+00 0.000000000000000D+00
 0.515674217615919D+03 0.000000000000000D+00 0.000000000000000D+00 0.515674217615919D+03
 0.515674217615919D+03 -.000000000000000D+00 -.000000000000000D+00 -.515674217615919D+03
 0.501892060155249D+03 0.469190888785478D+03 -.114601720548120D+03 -.547448223577715D+02
 0.495021862556243D+03 -.477860463630118D+03 0.105828824572957D+03 0.741369111668863D+02
 0.119861629091019D+02 0.103941652916574D+02 -.555119984691800D+01 -.219399394548201D+01
 0.224483496112440D+02 -.172459044701648D+01 0.143240958220817D+02 -.171980948636329D+02
-.164364014115D-03 0.000000000000D+00 0.000000000000D+00 0.234044615251D-06 0.000000000000D+00  6 4 1 25 3 2 21 2 0.28035726D-01 0.22449792D+00 0.25732663D+06 0.25732663D+06 0.25732663D+06 0.10895166D+01  1  2 13  4  6  5        2 -.101765515130D-02 0.100000000000D+01
-.292908870356D-02 0.000000000000D+00 0.000000000000D+00 0.234044615251D-06 0.000000000000D+00  6 4 1 25 3 2 21 2 0.28035726D-01 0.22449792D+00 0.25338535D+06 0.25338535D+06 0.25338535D+06 0.10900199D+01  1  2  8  4  6  5        2 -.181575908312D-01 0.100000000000D+01
0.158600098552D-03 0.000000000000D+00 0.000000000000D+00 0.234044615251D-06 0.860634101835D-09  6 4 1 25 3 2 21 2 0.28035726D-01 0.22449792D+00 0.25732663D+06 0.25732663D+06 0.25732663D+06 0.10895166D+01  1  2  1  4  6  5        2 0.981968030880D-03 0.100000000000D+01
  </mgrwgt>
  </event>
  <event>
  6     66 0.16530072E-05 0.58320566E+02 0.75467711E-02 0.93253378E-01
        4 -1    0    0  501    0 0.00000000E+00 0.00000000E+00 0.43675709E+03 0.43675984E+03 0.15500000E+01 0.0000E+00 0.9000E+01
        1 -1    0    0  502    0 -.00000000E+00 -.00000000E+00 -.24740606E+04 0.24740607E+04 0.32000000E+00 0.0000E+00 0.9000E+01
       25  1    1    2    0    0 -.18129349E+03 -.46210743E+03 -.45260141E+03 0.68328885E+03 0.12500000E+03 0.0000E+00 0.9000E+01
        3  1    1    2  503    0 0.55644001E+01 -.99899891E+01 -.53946412E+01 0.12653639E+02 0.50000000E+00 0.0000E+00 0.9000E+01
        2  1    1    2  502    0 0.14209031E+03 0.52507673E+03 -.18544937E+04 0.19326257E+04 0.32000000E+00 0.0000E+00 0.9000E+01
       21  1    1    2  501  503 0.33638782E+02 -.52979305E+02 0.27518617E+03 0.28225231E+03 0.75000000E+00 0.0000E+00 0.9000E+01
#aMCatNLO 2  0  0  4  1 0.10007870D+02 0.00000000D+00  -5  6  0 0.00000000D+00 0.00000000D+00 0.00000000D+00 0.00000000D+00 0.00000000D+00
  <mgrwgt>
 0.8798294388D-03    1    2    0
 0.103950351500253D+04 0.000000000000000D+00 0.000000000000000D+00 0.103950351500253D+04
 0.103950351500253D+04 -.000000000000000D+00 -.000000000000000D+00 -.103950351500253D+04
 0.513284216911703D+03 -.181457941103467D+03 -.462289625965697D+03 0.345977552110930D+02
 0.674767398868024D+03 0.394327371273861D+02 -.633380121789884D+02 0.670629851729682D+03
 0.890955414225325D+03 0.142025203976081D+03 0.525627638144686D+03 -.705227606940775D+03
 0.000000000000000D+00 0.000000000000000D+00 0.000000000000000D+00 0.000000000000000D+00
 0.103950351500253D+04 0.000000000000000D+00 0.000000000000000D+00 0.103950351500253D+04
 0.103950351500253D+04 -.000000000000000D+00 -.000000000000000D+00 -.103950351500253D+04
 0.513477034204817D+03 -.181372749951712D+03 -.462426462477704D+03 0.360465952772953D+02
 0.115147695316512D+02 0.514648951391518D+01 -.923885202856865D+01 0.455490683157995D+01
 0.888852206859027D+03 0.142172875950435D+03 0.525390443113564D+03 -.702716159816378D+03
 0.665163019409556D+03 0.340533844873618D+02 -.537251286072913D+02 0.662114657707503D+03
0.471242278282D-02 0.000000000000D+00 0.000000000000D+00 0.341818041511D-04 0.113439092960D-07  6 4 1 25 3 2 21 2 0.67193612D-01 0.38062493D+00 0.31960991D+06 0.31960991D+06 0.31960991D+06 0.10825232D+01  1  2  1  3  6  4        3 0.879829438793D-03 0.100000000000D+01
  </mgrwgt>
  </event>
  <event>
  5     66 0.16530072E-05 0.15709058E+03 0.75467711E-02 0.94715113E-01
        4 -1    0    0  501    0 0.00000000E+00 0.00000000E+00 0.41507035E+03 0.41507324E+03 0.15500000E+01 0.0000E+00 0.9000E+01
        1 -1    0    0  502    0 0.00000000E+00 0.00000000E+00 -.18722563E+04 0.18722563E+04 0.32000000E+00 0.0000E+00 0.9000E+01
       25  1    1    2    0    0 0.34313209E+03 -.31290149E+03 0.27785136E+02 0.48170944E+03 0.12500000E+03 0.0000E+00 0.9000E+01
        3  1    1    2  501    0 -.18650321E+03 0.30148526E+03 -.45280742E+02 0.35738971E+03 0.50000000E+00 0.0000E+00 0.9000E+01
        2  1    1    2  502    0 -.15662888E+03 0.11416234E+02 -.14396903E+04 0.14482304E+04 0.32000000E+00 0.0000E+00 0.9000E+01
#aMCatNLO 1  0  0  2  1 0.18291545D+03 0.00000000D+00  -5  6  0 0.00000000D+00 0.00000000D+00 0.00000000D+00 0.00000000D+00 0.00000000D+00
  <mgrwgt>
 0.8715292642D-03    7    2    0
 0.881544896382829D+03 0.000000000000000D+00 0.000000000000000D+00 0.881544896382829D+03
 0.881544896382829D+03 0.000000000000000D+00 0.000000000000000D+00 -.881544896382829D+03
 0.647989241527524D+03 0.343070283670185D+03 -.312734955721145D+03 0.434470580209947D+03
 0.425985996491464D+03 -.186395619576220D+03 0.301311345896412D+03 0.236499926096639D+03
 0.689114554746670D+03 -.156674664093965D+03 0.114236098247329D+02 -.670970506306587D+03
 0.000000000000000D+00 0.000000000000000D+00 0.000000000000000D+00 -.000000000000000D+00
 0.906633559669869D+03 0.000000000000000D+00 0.000000000000000D+00 0.906633559669869D+03
 0.121527605324477D+04 0.000000000000000D+00 0.000000000000000D+00 -.121527605324477D+04
 0.635916777604364D+03 0.289372079377456D+03 -.340975457544261D+03 0.434470580209947D+03
 0.430234500674065D+03 -.222206264974942D+03 0.282478116554951D+03 0.236499926096639D+03
 0.704830338504560D+03 -.214975144452506D+03 -.192372817923982D+02 -.670970506306587D+03
 0.350927996131654D+03 0.147809330049992D+03 0.777346227817081D+02 -.308642493574906D+03
0.449526206101D-03 0.000000000000D+00 0.000000000000D+00 0.191055887882D-05 0.000000000000D+00  6 4 1 25 3 2 21 0 0.63857201D-01 0.28803965D+00 0.24609057D+06 0.24609057D+06 0.24609057D+06 0.10909744D+01  1  2  2  2  6  2        1 0.208772440283D-03 0.100000000000D+01
0.522283156190D-04 0.000000000000D+00 -.172629899440D-05 0.191055887882D-05 0.000000000000D+00  6 4 1 25 3 2 21 2 0.63857201D-01 0.28803965D+00 0.24609057D+06 0.24609057D+06 0.24609057D+06 0.10909744D+01  1  2  3  2  6  2        1 0.288704343039D-04 0.100000000000D+01
-.291579883873D-03 0.000000000000D+00 0.000000000000D+00 0.191055887882D-05 0.000000000000D+00  6 4 1 25 3 2 21 2 0.63857201D-01 0.28803965D+00 0.24609057D+06 0.24609057D+06 0.24609057D+06 0.10909744D+01  1  2 15  2  6  2        1 -.161177663532D-03 0.100000000000D+01
-.143985320235D-03 0.000000000000D+00 0.000000000000D+00 0.191055887882D-05 0.000000000000D+00  6 4 1 25 3 2 21 2 0.63857201D-01 0.28803965D+00 0.24609057D+06 0.24609057D+06 0.24609057D+06 0.10909744D+01  1  2  4  2  6  2        1 -.795912845224D-04 0.100000000000D+01
-.233584084405D-02 0.000000000000D+00 -.351837850003D-03 0.191055887882D-05 0.000000000000D+00  6 4 1 25 3 2 21 2 0.63857201D-01 0.40018468D+00 0.24609057D+06 0.24609057D+06 0.24609057D+06 0.10909744D+01  1  2  5  2  6  2        1 -.415022629562D-03 0.100000000000D+01
0.234197447684D-02 0.000000000000D+00 0.333637005957D-03 0.191055887882D-05 0.000000000000D+00  6 4 1 25 3 2 21 2 0.63857201D-01 0.28803965D+00 0.24609057D+06 0.24609057D+06 0.24609057D+06 0.10909744D+01  1  2  6  2  6  2        1 0.129458167420D-02 0.100000000000D+01
-.873944468904D-04 0.000000000000D+00 -.145305740652D-04 0.191055887882D-05 0.000000000000D+00  6 4 21 25 3 2 -1 2 0.63857201D-01 0.40018468D+00 0.24609057D+06 0.24609057D+06 0.24609057D+06 0.10909744D+01  1  2  5  6  6  2        1 -.490370696010D-05 0.100000000000D+01
  </mgrwgt>
  </event>
  <event>
  5     66 0.16530072E-05 0.16179817E+03 0.75467711E-02 0.94775672E-01
        4 -1    0    0  501    0 0.00000000E+00 0.00000000E+00 0.96598016E+03 0.96598140E+03 0.15500000E+01 0.0000E+00 0.9000E+01
        1 -1    0    0  502    0 0.00000000E+00 0.00000000E+00 -.69430029E+03 0.69430037E+03 0.32000000E+00 0.0000E+00 0.9000E+01
       25  1    1    2    0    0 -.38899069E+03 0.26763012E+03 -.86407542E+02 0.49601502E+03 0.12500000E+03 0.0000E+00 0.9000E+01
        3  1    1    2  501    0 0.31258168E+03 -.12506279E+03 0.70512920E+03 0.78138048E+03 0.50000000E+00 0.0000E+00 0.9000E+01
        2  1    1    2  502    0 0.76409018E+02 -.14256733E+03 -.34704180E+03 0.38288627E+03 0.32000000E+00 0.0000E+00 0.9000E+01
#aMCatNLO 1  0  0  1  4 0.24094507D+02 0.00000000D+00  -5  6  0 0.00000000D+00 0.00000000D+00 0.00000000D+00 0.00000000D+00 0.00000000D+00
  <mgrwgt>
 0.1314470395D-03    1    2    0
 0.818951403830062D+03 0.000000000000000D+00 0.000000000000000D+00 0.818951403830062D+03
 0.818951403830062D+03 0.000000000000000D+00 0.000000000000000D+00 -.818951403830062D+03
 0.517086170443735D+03 -.388987271473012D+03 0.267655882491092D+03 -.169712518289203D+03
 0.675031195799937D+03 0.312551552144463D+03 -.125050733591339D+03 0.585099099797161D+03
 0.445785441416453D+03 0.764357193285493D+02 -.142605148899753D+03 -.415386581507959D+03
 0.000000000000000D+00 0.000000000000000D+00 0.000000000000000D+00 -.000000000000000D+00
 0.906637925901326D+03 0.000000000000000D+00 0.000000000000000D+00 0.906637925901326D+03
 0.111601678726805D+04 0.000000000000000D+00 0.000000000000000D+00 -.111601678726805D+04
 0.553275720288544D+03 -.465499644111585D+03 0.212124409554232D+03 -.169712518289203D+03
 0.653688549970628D+03 0.217571058910464D+03 -.193986077087592D+03 0.585099099797161D+03
 0.456695410417234D+03 0.119239389367461D+02 -.189426781315449D+03 -.415386581507959D+03
 0.358995032492974D+03 0.236004646264375D+03 0.171288448848809D+03 -.209378861366728D+03
0.344486798452D-03 0.000000000000D+00 0.000000000000D+00 0.452363707837D-05 0.000000000000D+00  6 4 1 25 3 2 21 2 0.14861243D+00 0.10681553D+00 0.24348297D+06 0.24348297D+06 0.24348297D+06 0.10913231D+01  1  2 14  1  6  1        4 0.131447039494D-03 0.100000000000D+01
  </mgrwgt>
  </event>
  <event>
  5     66 0.16530072E-05 0.67170807E+02 0.75467711E-02 0.80256979E-01
        4 -1    0    0  501    0 0.00000000E+00 0.00000000E+00 0.45426803E+03 0.45427068E+03 0.15500000E+01 0.0000E+00 0.9000E+01
        1 -1    0    0  502    0 0.00000000E+00 0.00000000E+00 -.19400597E+04 0.19400598E+04 0.32000000E+00 0.0000E+00 0.9000E+01
       25  1    1    2    0    0 0.46264096E+03 0.73361393E+01 -.17021835E+03 0.50861553E+03 0.12500000E+03 0.0000E+00 0.9000E+01
        3  1    1    2  501    0 -.67526713E+01 0.66857502E+02 0.24717028E+03 0.25614239E+03 0.50000000E+00 0.0000E+00 0.9000E+01
        2  1    1    2  502    0 -.45588829E+03 -.74193641E+02 -.15627436E+04 0.16295725E+04 0.32000000E+00 0.0000E+00 0.9000E+01
#aMCatNLO 1  0  0  2  5 0.39624092D+02 0.00000000D+00  -5  6  0 0.00000000D+00 0.00000000D+00 0.00000000D+00 0.00000000D+00 0.00000000D+00
  <mgrwgt>
 0.8393419847D-02    5    2    0
 0.938781297307020D+03 0.000000000000000D+00 0.000000000000000D+00 0.938781297307020D+03
 0.938781297307020D+03 0.000000000000000D+00 0.000000000000000D+00 -.938781297307020D+03
 0.514070894672996D+03 0.462755558810559D+03 0.737464586618232D+01 0.185598470193508D+03
 0.522028369768332D+03 -.674997391796716D+01 0.668307954826443D+02 0.517688807557442D+03
 0.841463330172712D+03 -.456005584892591D+03 -.742054413488266D+02 -.703287277750950D+03
 0.000000000000000D+00 0.000000000000000D+00 0.000000000000000D+00 -.000000000000000D+00
 0.214421423440355D+04 0.000000000000000D+00 0.000000000000000D+00 0.214421423440355D+04
 0.288144252119723D+04 0.000000000000000D+00 0.000000000000000D+00 -.288144252119723D+04
 0.577641788885619D+03 0.288945475850742D+03 -.447335172006624D+03 0.185598470193508D+03
 0.714329223932367D+03 -.203588775156993D+03 -.448125149175593D+03 0.517688807557442D+03
 0.151750871771577D+04 -.831574297721758D+03 -.105674211644354D+04 -.703287277750950D+03
 0.221617702506703D+04 0.746217597028008D+03 0.195220243762576D+04 -.737228286793681D+03
0.445331409891D-01 0.000000000000D+00 0.000000000000D+00 0.472183717539D-04 0.000000000000D+00  6 4 1 25 3 2 21 0 0.69887595D-01 0.29847094D+00 0.25430451D+06 0.25430451D+06 0.25430451D+06 0.10899018D+01  1  2  2  2  6  2        1 0.149417614226D-01 0.100000000000D+01
0.124032861385D-01 0.000000000000D+00 -.171018987244D-03 0.472183717539D-04 0.000000000000D+00  6 4 1 25 3 2 21 2 0.69887595D-01 0.29847094D+00 0.25430451D+06 0.25430451D+06 0.25430451D+06 0.10899018D+01  1  2  3  2  6  2        1 0.494344792998D-02 0.100000000000D+01
-.288335285540D-01 0.000000000000D+00 0.000000000000D+00 0.472183717539D-04 0.000000000000D+00  6 4 1 25 3 2 21 2 0.69887595D-01 0.29847094D+00 0.25430451D+06 0.25430451D+06 0.25430451D+06 0.10899018D+01  1  2 15  2  6  2        1 -.114918776728D-01 0.100000000000D+01
0.351906918832D-01 0.000000000000D+00 -.232339083209D-01 0.472183717539D-04 0.000000000000D+00  6 4 1 25 3 2 21 2 0.69887595D-01 0.94603730D+00 0.25430451D+06 0.25430451D+06 0.25430451D+06 0.10899018D+01  1  2  5  2  6  2        1 0.880359478983D-07 0.100000000000D+01
0.569668015017D-02 0.000000000000D+00 -.308128314445D-02 0.472183717539D-04 0.000000000000D+00  6 4 21 25 3 2 -1 2 0.69887595D-01 0.94603730D+00 0.25430451D+06 0.25430451D+06 0.25430451D+06 0.10899018D+01  1  2  5  6  6  2        1 0.130972412316D-09 0.100000000000D+01
  </mgrwgt>
  </event>
  <event>
  5     66 0.16530072E-05 0.90223728E+02 0.75467711E-02 0.94912914E-01
        4 -1    0    0  501    0 0.00000000E+00 0.00000000E+00 0.38491290E+03 0.38491602E+03 0.15500000E+01 0.0000E+00 0.9000E+01
        1 -1    0    0  502    0 -.00000000E+00 -.00000000E+00 -.12430897E+04 0.12430897E+04 0.32000000E+00 0.0000E+00 0.9000E+01
       25  1    1    2    0    0 0.75749020E+02 -.47240008E+03 -.25375891E+03 0.55580422E+03 0.12500000E+03 0.0000E+00 0.9000E+01
        3  1    1    2  501    0 -.57996269E+02 0.38397315E+03 0.67591065E+02 0.39416716E+03 0.50000000E+00 0.0000E+00 0.9000E+01
        2  1    1    2  502    0 -.17752750E+02 0.88426925E+02 -.67200892E+03 0.67803434E+03 0.32000000E+00 0.0000E+00 0.9000E+01
#aMCatNLO 1  0  0  5  2 0.19521264D+02 0.00000000D+00  -5  6  0 0.00000000D+00 0.00000000D+00 0.00000000D+00 0.00000000D+00 0.00000000D+00
  <mgrwgt>
 0.1064544392D-02    7    2    0
 0.691725247678049D+03 0.000000000000000D+00 0.000000000000000D+00 0.691725247678049D+03
 0.691725247678049D+03 -.000000000000000D+00 -.000000000000000D+00 -.691725247678049D+03
 0.496613240658524D+03 0.757425935762480D+02 -.472348365461515D+03 0.463658490867979D+02
 0.505662472797204D+03 -.579836598240181D+02 0.383889666616670D+03 0.323977090939680D+03
 0.381174781900370D+03 -.177589337522299D+02 0.884586988448450D+02 -.370342940026478D+03
 0.000000000000000D+00 -.000000000000000D+00 0.000000000000000D+00 0.000000000000000D+00
 0.691725247678049D+03 0.000000000000000D+00 0.000000000000000D+00 0.691725247678049D+03
 0.691725247678049D+03 -.000000000000000D+00 -.000000000000000D+00 -.691725247678049D+03
 0.496303968571396D+03 0.756972345212055D+02 -.472122428305271D+03 0.454199361150150D+02
 0.505226169344827D+03 -.580298398611194D+02 0.384119693151572D+03 0.323014057294234D+03
 0.940774778272983D+02 0.402477555821923D+01 0.427168090231745D+01 -.938942264376279D+02
 0.287842879612576D+03 -.216921702183054D+02 0.837310542513818D+02 -.274539766971622D+03
0.726470009122D-04 0.000000000000D+00 0.000000000000D+00 0.436562057003D-05 0.000000000000D+00  6 4 1 25 3 2 21 0 0.59217612D-01 0.19124481D+00 0.23663932D+06 0.23663932D+06 0.23663932D+06 0.10922581D+01  1  2  2  4  6  5        2 0.107101027757D-03 0.100000000000D+01
0.136346280884D-04 0.000000000000D+00 -.278983611898D-06 0.436562057003D-05 0.000000000000D+00  6 4 1 25 3 2 21 2 0.59217612D-01 0.19124481D+00 0.23663932D+06 0.23663932D+06 0.23663932D+06 0.10922581D+01  1  2  3  4  6  5        2 0.239811390076D-04 0.100000000000D+01
-.487284515602D-04 0.000000000000D+00 0.000000000000D+00 0.436562057003D-05 0.000000000000D+00  6 4 1 25 3 2 21 2 0.59217612D-01 0.19124481D+00 0.23663932D+06 0.23663932D+06 0.23663932D+06 0.10922581D+01  1  2 15  4  6  5        2 -.857055845540D-04 0.100000000000D+01
0.380080298119D-03 0.000000000000D+00 0.000000000000D+00 0.436562057003D-05 0.000000000000D+00  6 4 1 25 3 2 21 2 0.59217612D-01 0.19124481D+00 0.23768744D+06 0.23768744D+06 0.23768744D+06 0.10921130D+01  1  2 12  4  6  5        2 0.668242771485D-03 0.100000000000D+01
-.164972710500D-03 0.000000000000D+00 0.000000000000D+00 0.436562057003D-05 0.000000000000D+00  6 4 1 25 3 2 21 2 0.59217612D-01 0.19124481D+00 0.23663932D+06 0.23663932D+06 0.23663932D+06 0.10922581D+01  1  2  4  4  6  5        2 -.290160719994D-03 0.100000000000D+01
-.410985764335D-03 0.000000000000D+00 0.000000000000D+00 0.436562057003D-05 0.000000000000D+00  6 4 1 25 3 2 21 2 0.59217612D-01 0.19124481D+00 0.23663932D+06 0.23663932D+06 0.23663932D+06 0.10922581D+01  1  2  5  4  6  5        2 -.722858495355D-03 0.100000000000D+01
0.775479122362D-03 0.000000000000D+00 -.000000000000D+00 0.436562057003D-05 0.000000000000D+00  6 4 1 25 3 2 21 2 0.59217612D-01 0.19124481D+00 0.23663932D+06 0.23663932D+06 0.23663932D+06 0.10922581D+01  1  2  6  4  6  5        2 0.136394425358D-02 0.100000000000D+01
  </mgrwgt>
  </event>
  <event>
  5     66 -.16530072E-05 0.21389907E+03 0.75467711E-02 0.94504895E-01
        4 -1    0    0  501    0 0.00000000E+00 0.00000000E+00 0.82274783E+03 0.82274929E+03 0.15500000E+01 0.0000E+00 0.9000E+01
        1 -1    0    0  502    0 0.00000000E+00 0.00000000E+00 -.72147260E+03 0.72147267E+03 0.32000000E+00 0.0000E+00 0.9000E+01
       25  1    1    2    0    0 0.35561817E+03 0.29087005E+03 0.25971225E+02 0.47683244E+03 0.12500000E+03 0.0000E+00 0.9000E+01
        3  1    1    2  501    0 -.25828464E+03 -.48336616E+02 0.50223557E+03 0.56682290E+03 0.50000000E+00 0.0000E+00 0.9000E+01
        2  1    1    2  502    0 -.97333528E+02 -.24253344E+03 -.42693156E+03 0.50056662E+03 0.32000000E+00 0.0000E+00 0.9000E+01
#aMCatNLO 1  0  0  2  5 0.12671139D+02 0.00000000D+00  -5  6  0 0.00000000D+00 0.00000000D+00 0.00000000D+00 0.00000000D+00 0.00000000D+00
  <mgrwgt>
 -.1000440600D-02    9    2    0
 0.770448698259849D+03 0.000000000000000D+00 0.000000000000000D+00 0.770448698259849D+03
 0.770448698259849D+03 0.000000000000000D+00 0.000000000000000D+00 -.770448698259849D+03
 0.476177091925881D+03 0.355600386386422D+03 0.290932591539461D+03 -.512008368577838D+01
 0.534904042833105D+03 -.258220811945947D+03 -.483246706143385D+02 0.465949646986873D+03
 0.529816261760713D+03 -.973795744404757D+02 -.242607920925122D+03 -.460829563301095D+03
 0.000000000000000D+00 0.000000000000000D+00 -.000000000000000D+00 -.000000000000000D+00
 0.770790490160541D+03 0.000000000000000D+00 0.000000000000000D+00 0.770790490160541D+03
 0.897601698184665D+03 0.000000000000000D+00 0.000000000000000D+00 -.897601698184665D+03
 0.478424163949783D+03 0.355388399146482D+03 0.294851744349936D+03 -.512008368577838D+01
 0.534640011190265D+03 -.258458324405323D+03 -.439336156482443D+02 0.465949646986873D+03
 0.527885319280644D+03 -.976144570550390D+02 -.238265485695263D+03 -.460829563301095D+03
 0.127442693924514D+03 0.684382313880126D+00 -.126526430064282D+02 -.126811208024124D+03
0.111039249228D-04 0.000000000000D+00 0.000000000000D+00 0.170299128406D-05 0.000000000000D+00  6 4 1 25 3 2 21 0 0.12657671D+00 0.11099590D+00 0.25013760D+06 0.25013760D+06 0.25013760D+06 0.10904411D+01  1  2  2  2  6  2        1 0.554549040663D-05 0.100000000000D+01
0.758139484329D-06 0.000000000000D+00 -.426419954342D-07 0.170299128406D-05 0.000000000000D+00  6 4 1 25 3 2 21 2 0.12657671D+00 0.11099590D+00 0.25013760D+06 0.25013760D+06 0.25013760D+06 0.10904411D+01  1  2  3  2  6  2        1 0.450211936553D-06 0.100000000000D+01
-.737977617555D-05 0.000000000000D+00 0.000000000000D+00 0.170299128406D-05 0.000000000000D+00  6 4 1 25 3 2 21 2 0.12657671D+00 0.11099590D+00 0.25013760D+06 0.25013760D+06 0.25013760D+06 0.10904411D+01  1  2 15  2  6  2        1 -.438239056532D-05 0.100000000000D+01
0.345235029449D-02 0.000000000000D+00 0.000000000000D+00 0.170299128406D-05 0.000000000000D+00  6 4 1 25 3 2 21 2 0.12657671D+00 0.12989920D+00 0.25538853D+06 0.25538853D+06 0.25538853D+06 0.10897631D+01  1  2 12  2  6  2        1 0.159607023095D-02 0.100000000000D+01
-.510750711482D-02 0.000000000000D+00 0.000000000000D+00 0.170299128406D-05 0.000000000000D+00  6 4 1 25 3 2 21 2 0.12657671D+00 0.11099590D+00 0.25013760D+06 0.25013760D+06 0.25013760D+06 0.10904411D+01  1  2  4  2  6  2        1 -.303303114619D-02 0.100000000000D+01
-.361181949874D-02 0.000000000000D+00 -.205734335352D-04 0.170299128406D-05 0.000000000000D+00  6 4 1 25 3 2 21 2 0.12657671D+00 0.12933764D+00 0.25013760D+06 0.25013760D+06 0.25013760D+06 0.10904411D+01  1  2  5  2  6  2        1 -.168481156456D-02 0.100000000000D+01
0.357333510403D-02 0.000000000000D+00 0.203351649616D-04 0.170299128406D-05 0.000000000000D+00  6 4 1 25 3 2 21 2 0.12657671D+00 0.11099590D+00 0.25013760D+06 0.25013760D+06 0.25013760D+06 0.10904411D+01  1  2  6  2  6  2        1 0.212198170705D-02 0.100000000000D+01
0.818118516365D-04 0.000000000000D+00 0.000000000000D+00 0.170299128406D-05 0.000000000000D+00  6 4 21 25 3 2 -1 2 0.12657671D+00 0.12989920D+00 0.25538853D+06 0.25538853D+06 0.25538853D+06 0.10897631D+01  1  2 12  6  6  2        1 0.620911528996D-04 0.100000000000D+01
-.835406739772D-04 0.000000000000D+00 -.476701576029D-06 0.170299128406D-05 0.000000000000D+00  6 4 21 25 3 2 -1 2 0.12657671D+00 0.12933764D+00 0.25013760D+06 0.25013760D+06 0.25013760D+06 0.10904411D+01  1  2  5  6  6  2        1 -.643542924099D-04 0.100000000000D+01
  </mgrwgt>
  </event>
  <event>
  6     66 0.16530072E-05 0.13936470E+03 0.75467711E-02 0.91706973E-01
       21 -1    0    0  501  503 0.00000000E+00 0.00000000E+00 0.12273876E+04 0.12273878E+04 0.75000000E+00 0.0000E+00 0.9000E+01
        1 -1    0    0  502    0 0.00000000E+00 0.00000000E+00 -.15310281E+04 0.15310282E+04 0.32000000E+00 0.0000E+00 0.9000E+01
       25  1    1    2    0    0 0.57667872E+03 0.18460675E+03 -.21859899E+03 0.65578085E+03 0.12500000E+03 0.0000E+00 0.9000E+01
        3  1    1    2  501    0 0.75143161E+01 -.22071630E+01 0.31824091E+02 0.32777420E+02 0.50000000E+00 0.0000E+00 0.9000E+01
        2  1    1    2  502    0 -.53238108E+03 -.48841073E+02 -.10220371E+04 0.11534189E+04 0.32000000E+00 0.0000E+00 0.9000E+01
       -4  1    1    2    0  503 -.51811958E+02 -.13355852E+03 0.90517146E+03 0.91643883E+03 0.15500000E+01 0.0000E+00 0.9000E+01
#aMCatNLO 2  0  0  1  1 0.14325626D+03 0.00000000D+00  -5  6  0 0.00000000D+00 0.00000000D+00 0.00000000D+00 0.00000000D+00 0.00000000D+00
  <mgrwgt>
 0.2327595276D-03    1    2    0
 0.691218278278887D+03 0.000000000000000D+00 0.000000000000000D+00 0.691218278278887D+03
 0.691218278278887D+03 0.000000000000000D+00 0.000000000000000D+00 -.691218278278887D+03
 0.643512794671757D+03 0.552193889391170D+03 0.120909034693648D+03 0.280974430784649D+03
 0.709866522904343D+02 0.482001517130876D+01 -.901844344749109D+01 0.702462805772361D+02
 0.667937109595582D+03 -.557013904562478D+03 -.111890591246157D+03 -.351220711361885D+03
 0.000000000000000D+00 -.000000000000000D+00 -.000000000000000D+00 0.000000000000000D+00
 0.269419603477302D+04 0.000000000000000D+00 0.000000000000000D+00 0.269419603477302D+04
 0.697485856699034D+03 0.000000000000000D+00 0.000000000000000D+00 -.697485856699034D+03
 0.679335355042627D+03 0.576917025547240D+03 0.184639214388112D+03 0.280974430784649D+03
 0.706761412280255D+02 0.746759685569360D+01 -.219362739517216D+01 0.702462805772361D+02
 0.639827771133443D+03 -.532572664490160D+03 -.488870704981682D+02 -.351220711361885D+03
 0.200184262406796D+04 -.518119579127733D+02 -.133558516494772D+03 0.199671017807399D+04
0.246982482289D-03 0.000000000000D+00 0.000000000000D+00 0.319591201736D-05 0.916732436162D-08  6 21 1 25 3 2 -4 2 0.18882879D+00 0.23554271D+00 0.42533699D+06 0.42533699D+06 0.42533699D+06 0.10735100D+01  1  2  1  5  6  1        4 0.232759527645D-03 0.100000000000D+01
  </mgrwgt>
  </event>
  <event>
  5     66 -.16530072E-05 0.29634280E+02 0.75467711E-02 0.93131072E-01
        4 -1    0    0  501    0 0.00000000E+00 0.00000000E+00 0.12770620E+03 0.12771561E+03 0.15500000E+01 0.0000E+00 0.9000E+01
        1 -1    0    0  502    0 0.00000000E+00 0.00000000E+00 -.38133338E+04 0.38133338E+04 0.32000000E+00 0.0000E+00 0.9000E+01
       25  1    1    2    0    0 -.50133549E+03 -.13160211E+03 -.93025157E+03 0.10722170E+04 0.12500000E+03 0.0000E+00 0.9000E+01
        3  1    1    2  501    0 0.52516417E+03 0.11399849E+03 -.12193343E+04 0.13325049E+04 0.50000000E+00 0.0000E+00 0.9000E+01
        2  1    1    2  502    0 -.23828675E+02 0.17603621E+02 -.15360417E+04 0.15363274E+04 0.32000000E+00 0.0000E+00 0.9000E+01
#aMCatNLO 1  0  0  1  1 0.14325626D+03 0.00000000D+00  -5  6  0 0.00000000D+00 0.00000000D+00 0.00000000D+00 0.00000000D+00 0.00000000D+00
  <mgrwgt>
 -.7206458712D-02    5    2    0
 0.697857393128645D+03 0.000000000000000D+00 0.000000000000000D+00 0.697857393128645D+03
 0.697857393128645D+03 0.000000000000000D+00 0.000000000000000D+00 -.697857393128645D+03
 0.571070837989315D+03 -.501246338098781D+03 -.131589517950524D+03 0.204775997885325D+03
 0.542615274758925D+03 0.525081495895403D+03 0.113980548382358D+03 0.756914371670031D+02
 0.282028673509050D+03 -.238351577966221D+02 0.176089695681664D+02 -.280467435052328D+03
 0.000000000000000D+00 0.000000000000000D+00 -.000000000000000D+00 0.000000000000000D+00
 0.170247040326009D+04 0.000000000000000D+00 0.000000000000000D+00 0.170247040326009D+04
 0.698410480761297D+03 0.000000000000000D+00 0.000000000000000D+00 -.698410480761297D+03
 0.579010119458021D+03 -.512623959623019D+03 -.122111363702476D+03 0.204775997885325D+03
 0.534283361655818D+03 0.514427858839894D+03 0.122855585673738D+03 0.756914371670031D+02
 0.282884167782912D+03 -.294237769810210D+02 0.222645818638021D+02 -.280467435052328D+03
 0.100470323512463D+04 0.276198777641455D+02 -.230088038350641D+02 0.100405992249879D+04
0.197112285857D-03 0.000000000000D+00 0.000000000000D+00 0.279154619685D-05 0.000000000000D+00  6 4 1 25 3 2 21 0 0.19647833D-01 0.58666746D+00 0.30252084D+06 0.30252084D+06 0.30252084D+06 0.10842831D+01  1  2  2  1  6  1        4 0.390023791003D-04 0.100000000000D+01
0.920840231226D-04 0.000000000000D+00 -.756963078547D-06 0.279154619685D-05 0.000000000000D+00  6 4 1 25 3 2 21 2 0.19647833D-01 0.58666746D+00 0.30252084D+06 0.30252084D+06 0.30252084D+06 0.10842831D+01  1  2  3  1  6  1        4 0.214213616101D-04 0.100000000000D+01
-.119874972156D-03 0.000000000000D+00 0.000000000000D+00 0.279154619685D-05 0.000000000000D+00  6 4 1 25 3 2 21 2 0.19647833D-01 0.58666746D+00 0.30252084D+06 0.30252084D+06 0.30252084D+06 0.10842831D+01  1  2 15  1  6  1        4 -.278863264166D-04 0.100000000000D+01
-.638441411057D-01 0.000000000000D+00 -.998066165130D-04 0.279154619685D-05 0.000000000000D+00  6 4 1 25 3 2 21 2 0.47942986D-01 0.58666746D+00 0.30252084D+06 0.30252084D+06 0.30252084D+06 0.10842831D+01  1  2  5  1  6  1        4 -.243948405532D-02 0.100000000000D+01
-.623957303637D-02 0.000000000000D+00 -.976398362239D-05 0.279154619685D-05 0.000000000000D+00  6 21 1 25 3 2 -4 2 0.47942986D-01 0.58666746D+00 0.30252084D+06 0.30252084D+06 0.30252084D+06 0.10842831D+01  1  2  5  5  6  1        4 -.479951207087D-02 0.100000000000D+01
  </mgrwgt>
  </event>
  <event>
  5     66 0.16530072E-05 0.71514690E+02 0.75467711E-02 0.82903435E-01
        4 -1    0    0  501    0 0.00000000E+00 0.00000000E+00 0.12616955E+04 0.12616964E+04 0.15500000E+01 0.0000E+00 0.9000E+01
        1 -1    0    0  502    0 0.00000000E+00 0.00000000E+00 -.31100534E+04 0.31100534E+04 0.32000000E+00 0.0000E+00 0.9000E+01
       25  1    1    2    0    0 0.46055075E+03 -.23308353E+03 0.23873169E+03 0.58228236E+03 0.12500000E+03 0.0000E+00 0.9000E+01
        3  1    1    2  501    0 0.65847895E+02 -.27923642E+02 0.82024437E+03 0.82335700E+03 0.50000000E+00 0.0000E+00 0.9000E+01
        2  1    1    2  502    0 -.52639865E+03 0.26100717E+03 -.29073340E+04 0.29661105E+04 0.32000000E+00 0.0000E+00 0.9000E+01
#aMCatNLO 1  0  0  1  4 0.29365621D+02 0.00000000D+00  -5  6  0 0.00000000D+00 0.00000000D+00 0.00000000D+00 0.00000000D+00 0.00000000D+00
  <mgrwgt>
 0.4107308760D-02    6    2    0
 0.198089433891456D+04 0.000000000000000D+00 0.000000000000000D+00 0.198089433891456D+04
 0.198089433891456D+04 0.000000000000000D+00 0.000000000000000D+00 -.198089433891456D+04
 0.754076947036172D+03 0.460622350399283D+03 -.233118496333772D+03 0.535247474567715D+03
 0.129107176564521D+04 0.658393719662034D+02 -.279200276066101D+02 0.128908958307939D+04
 0.191663996514773D+04 -.526461722365486D+03 0.261038523940382D+03 -.182433705764710D+04
 0.000000000000000D+00 -.000000000000000D+00 -.000000000000000D+00 0.000000000000000D+00
 0.339926308153158D+04 0.000000000000000D+00 0.000000000000000D+00 0.339926308153158D+04
 0.247018559671361D+04 0.000000000000000D+00 0.000000000000000D+00 -.247018559671361D+04
 0.862453919009545D+03 0.662977028611010D+03 -.466193405993997D+02 0.535247474567715D+03
 0.137847593715626D+04 0.400008967931080D+03 0.280065673886965D+03 0.128908958307939D+04
 0.195733603243447D+04 -.415237710671703D+02 0.707979110142507D+03 -.182433705764710D+04
 0.167118278964491D+04 -.102146222547492D+04 -.941425443430072D+03 0.929077484817964D+03
0.224666448367D+01 0.000000000000D+00 0.000000000000D+00 0.675850891089D-03 0.000000000000D+00  6 4 1 25 3 2 21 0 0.19410707D+00 0.47846983D+00 0.35420959D+06 0.35420959D+06 0.35420959D+06 0.10792547D+01  1  2  2  1  6  1        4 0.523063301012D-02 0.100000000000D+01
0.771646896525D+00 0.000000000000D+00 -.862778317765D-02 0.675850891089D-03 0.000000000000D+00  6 4 1 25 3 2 21 2 0.19410707D+00 0.47846983D+00 0.35420959D+06 0.35420959D+06 0.35420959D+06 0.10792547D+01  1  2  3  1  6  1        4 0.209258231760D-02 0.100000000000D+01
-.148042589640D+01 0.000000000000D+00 0.000000000000D+00 0.675850891089D-03 0.000000000000D+00  6 4 1 25 3 2 21 2 0.19410707D+00 0.47846983D+00 0.35420959D+06 0.35420959D+06 0.35420959D+06 0.10792547D+01  1  2 15  1  6  1        4 -.401467700743D-02 0.100000000000D+01
0.698344314701D+00 0.000000000000D+00 -.983220240661D+00 0.675850891089D-03 0.000000000000D+00  6 4 1 25 3 2 21 2 0.37513136D+00 0.47846983D+00 0.35420959D+06 0.35420959D+06 0.35420959D+06 0.10792547D+01  1  2  5  1  6  1        4 0.662083547464D-04 0.100000000000D+01
0.106178165469D+00 0.000000000000D+00 0.802616390217D+00 0.675850891089D-03 0.000000000000D+00  6 4 1 25 3 2 21 2 0.19410707D+00 0.47846983D+00 0.35420959D+06 0.35420959D+06 0.35420959D+06 0.10792547D+01  1  2  6  1  6  1        4 0.287938113374D-03 0.100000000000D+01
0.107085203195D+00 0.000000000000D+00 -.702591189831D-01 0.675850891089D-03 0.000000000000D+00  6 21 1 25 3 2 -4 2 0.37513136D+00 0.47846983D+00 0.35420959D+06 0.35420959D+06 0.35420959D+06 0.10792547D+01  1  2  5  5  6  1        4 0.444623971876D-03 0.100000000000D+01
  </mgrwgt>
  </event>
  <event>
  6     66 -.16530072E-05 0.12469858E+03 0.75467711E-02 0.91904515E-01
        4 -1    0    0  501    0 0.00000000E+00 0.00000000E+00 0.19576779E+04 0.19576785E+04 0.15500000E+01 0.0000E+00 0.9000E+01
        1 -1    0    0  503    0 0.00000000E+00 0.00000000E+00 -.86088281E+03 0.86088287E+03 0.32000000E+00 0.0000E+00 0.9000E+01
       25  1    1    2    0    0 0.51078510E+03 -.30916947E+03 0.10994353E+04 0.12573266E+04 0.12500000E+03 0.0000E+00 0.9000E+01
        3  1    1    2  501    0 -.47811945E+03 0.19865996E+03 0.68374172E+03 0.85765202E+03 0.50000000E+00 0.0000E+00 0.9000E+01
        2  1    1    2  502    0 -.37419330E+02 0.12878755E+03 -.56249524E+03 0.57826243E+03 0.32000000E+00 0.0000E+00 0.9000E+01
       21  1    1    2  503  502 0.47536802E+01 -.18278042E+02 -.12388675E+03 0.12532029E+03 0.75000000E+00 0.0000E+00 0.9000E+01
#aMCatNLO 2  0  0  2  5 0.18886087D+02 0.00000000D+00  -5  6  0 0.00000000D+00 0.00000000D+00 0.00000000D+00 0.00000000D+00 0.00000000D+00
  <mgrwgt>
 -.8004291964D-03    2    2    0
 0.120032564674048D+04 0.000000000000000D+00 0.000000000000000D+00 0.120032564674048D+04
 0.120032564674048D+04 0.000000000000000D+00 0.000000000000000D+00 -.120032564674048D+04
 0.854969468676311D+03 0.512299740029835D+03 -.315616065498381D+03 0.594376368922368D+03
 0.611818203406467D+03 -.476721395547379D+03 0.193915972739579D+03 0.330839569222514D+03
 0.933863621398183D+03 -.355783444824563D+02 0.121700092758802D+03 -.925215938144882D+03
 0.000000000000000D+00 0.000000000000000D+00 -.000000000000000D+00 -.000000000000000D+00
 0.120080175141504D+04 0.000000000000000D+00 0.000000000000000D+00 0.120080175141504D+04
 0.140350413903276D+04 0.000000000000000D+00 0.000000000000000D+00 -.140350413903276D+04
 0.851578456035348D+03 0.510610144863368D+03 -.309119521888895D+03 0.594376368922368D+03
 0.614257556446649D+03 -.477935291534461D+03 0.198583438872279D+03 0.330839569222514D+03
 0.934889568915990D+03 -.374285335758613D+02 0.128814124788283D+03 -.925215938144882D+03
 0.203580309049822D+03 0.475368024695376D+01 -.182780417716664D+02 -.202702387617719D+03
-.104587595086D+00 0.000000000000D+00 0.000000000000D+00 0.352456846932D-05 0.000000000000D+00  6 4 1 25 3 2 21 2 0.30106167D+00 0.13885181D+00 0.40986591D+06 0.40986591D+06 0.40986591D+06 0.10746656D+01  1  2 13  2  6  2        1 -.138611393059D-02 0.100000000000D+01
0.409297922310D-01 0.000000000000D+00 0.000000000000D+00 0.352456846932D-05 0.193708166527D-07  6 4 1 25 3 2 21 2 0.30118109D+00 0.13244348D+00 0.40986591D+06 0.40986591D+06 0.40986591D+06 0.10746656D+01  1  2  1  2  6  2        1 0.585684734143D-03 0.100000000000D+01
  </mgrwgt>
  </event>
  <event>
  5     66 0.16530072E-05 0.40014526E+02 0.75467711E-02 0.93896668E-01
        4 -1    0    0  501    0 0.00000000E+00 0.00000000E+00 0.24453516E+03 0.24454007E+03 0.15500000E+01 0.0000E+00 0.9000E+01
        1 -1    0    0  502    0 -.00000000E+00 -.00000000E+00 -.30629740E+04 0.30629740E+04 0.32000000E+00 0.0000E+00 0.9000E+01
       25  1    1    2    0    0 0.26509733E+03 0.40049783E+03 -.14705242E+04 0.15520121E+04 0.12500000E+03 0.0000E+00 0.9000E+01
        3  1    1    2  501    0 -.29242856E+03 -.37127894E+03 -.70947573E+02 0.47790828E+03 0.50000000E+00 0.0000E+00 0.9000E+01
        2  1    1    2  502    0 0.27331224E+02 -.29218887E+02 -.12769670E+04 0.12775937E+04 0.32000000E+00 0.0000E+00 0.9000E+01
#aMCatNLO 1  0  0  5  2 0.65122487D+02 0.00000000D+00  -5  6  0 0.00000000D+00 0.00000000D+00 0.00000000D+00 0.00000000D+00 0.00000000D+00
  <mgrwgt>
 0.1557512010D-02    6    2    0
 0.865455370566136D+03 0.000000000000000D+00 0.000000000000000D+00 0.865455370566136D+03
 0.865455370566136D+03 -.000000000000000D+00 -.000000000000000D+00 -.865455370566136D+03
 0.571174584891700D+03 0.265088644632688D+03 0.400495080667320D+03 -.282749195002013D+03
 0.797672768855683D+03 -.292422977601667D+03 -.371271861357774D+03 0.642594625956677D+03
 0.362063387384889D+03 0.273343329689793D+02 -.292232193095471D+02 -.359845430954664D+03
 0.000000000000000D+00 0.000000000000000D+00 0.000000000000000D+00 0.000000000000000D+00
 0.865455370566136D+03 0.000000000000000D+00 0.000000000000000D+00 0.865455370566136D+03
 0.865455370566136D+03 -.000000000000000D+00 -.000000000000000D+00 -.865455370566136D+03
 0.580702728297650D+03 0.266575939415031D+03 0.398905009248651D+03 -.302328828882826D+03
 0.776557438619732D+03 -.290390344137169D+03 -.373444956036044D+03 0.615835829031385D+03
 0.306640184342988D+03 -.218726310103263D+02 0.228186416990891D+02 -.305006721659697D+03
 0.670103898719027D+02 0.456870357324644D+02 -.482786949116970D+02 -.850027848886168D+01
0.809191668812D-02 0.000000000000D+00 0.000000000000D+00 0.484893239574D-04 0.000000000000D+00  6 4 1 25 3 2 21 0 0.37621173D-01 0.47122715D+00 0.25446849D+06 0.25446849D+06 0.25446849D+06 0.10898808D+01  1  2  2  4  6  5        2 0.183127044167D-02 0.100000000000D+01
0.294458057334D-02 0.000000000000D+00 -.310750907330D-04 0.484893239574D-04 0.000000000000D+00  6 4 1 25 3 2 21 2 0.37621173D-01 0.47122715D+00 0.25446849D+06 0.25446849D+06 0.25446849D+06 0.10898808D+01  1  2  3  4  6  5        2 0.791557555698D-03 0.100000000000D+01
-.499593823447D-02 0.000000000000D+00 0.000000000000D+00 0.484893239574D-04 0.000000000000D+00  6 4 1 25 3 2 21 2 0.37621173D-01 0.47122715D+00 0.25446849D+06 0.25446849D+06 0.25446849D+06 0.10898808D+01  1  2 15  4  6  5        2 -.134300032171D-02 0.100000000000D+01
-.173076127058D-02 0.000000000000D+00 0.000000000000D+00 0.484893239574D-04 0.000000000000D+00  6 4 1 25 3 2 21 2 0.37621173D-01 0.47122715D+00 0.25446849D+06 0.25446849D+06 0.25446849D+06 0.10898808D+01  1  2  4  4  6  5        2 -.465260544487D-03 0.100000000000D+01
-.114434937950D-01 0.000000000000D+00 0.000000000000D+00 0.484893239574D-04 0.000000000000D+00  6 4 1 25 3 2 21 2 0.37621173D-01 0.47122715D+00 0.25446849D+06 0.25446849D+06 0.25446849D+06 0.10898808D+01  1  2  5  4  6  5        2 -.307622214826D-02 0.100000000000D+01
0.142072360400D-01 0.000000000000D+00 -.000000000000D+00 0.484893239574D-04 0.000000000000D+00  6 4 1 25 3 2 21 2 0.37621173D-01 0.47122715D+00 0.25446849D+06 0.25446849D+06 0.25446849D+06 0.10898808D+01  1  2  6  4  6  5        2 0.381916702665D-02 0.100000000000D+01
  </mgrwgt>
  </event>
  <event>
  6     66 -.16530072E-05 0.34644121E+02 0.75467711E-02 0.91817353E-01
        4 -1    0    0  501    0 0.00000000E+00 0.00000000E+00 0.41870652E+03 0.41870939E+03 0.15500000E+01 0.0000E+00 0.9000E+01
        1 -1    0    0  502    0 -.00000000E+00 -.00000000E+00 -.14136098E+04 0.14136099E+04 0.32000000E+00 0.0000E+00 0.9000E+01
       25  1    1    2    0    0 -.59724781E+03 0.31876147E+01 -.80072444E+02 0.61542806E+03 0.12500000E+03 0.0000E+00 0.9000E+01
        3  1    1    2  503    0 -.39155828E+01 -.43457058E+02 0.38299015E+02 0.58059557E+02 0.50000000E+00 0.0000E+00 0.9000E+01
        2  1    1    2  502    0 0.61813209E+03 0.37832745E+02 -.95822967E+03 0.11409307E+04 0.32000000E+00 0.0000E+00 0.9000E+01
       21  1    1    2  501  503 -.16968704E+02 0.24366982E+01 0.50997807E+01 0.17900969E+02 0.75000000E+00 0.0000E+00 0.9000E+01
#aMCatNLO 2  0  0  4  1 0.16372236D+02 0.00000000D+00  -5  6  0 0.00000000D+00 0.00000000D+00 0.00000000D+00 0.00000000D+00 0.00000000D+00
  <mgrwgt>
 -.3110198409D-03    3    2    0
 0.769344082476877D+03 0.000000000000000D+00 0.000000000000000D+00 0.769344082476877D+03
 0.769344082476877D+03 -.000000000000000D+00 -.000000000000000D+00 -.769344082476877D+03
 0.680018128521014D+03 -.597255742624779D+03 0.413866350795542D+01 0.300113486007066D+03
 0.116888707166519D+03 -.220300903457007D+02 -.432709156225576D+02 0.106326256604876D+03
 0.741781329266222D+03 0.619285832970480D+03 0.391322521146022D+02 -.406439742611941D+03
 0.000000000000000D+00 0.000000000000000D+00 0.000000000000000D+00 0.000000000000000D+00
 0.769344082476877D+03 0.000000000000000D+00 0.000000000000000D+00 0.769344082476877D+03
 0.769344082476877D+03 -.000000000000000D+00 -.000000000000000D+00 -.769344082476877D+03
 0.681950431622308D+03 -.597898680879555D+03 0.287582134360859D+01 0.303216569870348D+03
 0.928394004393728D+02 -.372734068361975D+01 -.430488528121230D+02 0.821709040776029D+02
 0.739281316217713D+03 0.618586674516778D+03 0.377589837356615D+02 -.403065316997280D+03
 0.246170166743610D+02 -.169606529536026D+02 0.241404773285289D+01 0.176778430493295D+02
-.198285783203D-03 0.000000000000D+00 0.000000000000D+00 0.613222716884D-06 0.000000000000D+00  6 4 1 25 3 2 21 2 0.64416611D-01 0.21747866D+00 0.41661334D+06 0.41661334D+06 0.41661334D+06 0.10741559D+01  1  2 13  3  6  4        3 -.206709440216D-03 0.100000000000D+01
-.335396822078D-03 0.000000000000D+00 0.000000000000D+00 0.613222716884D-06 0.000000000000D+00  6 4 1 25 3 2 21 2 0.64416611D-01 0.21747866D+00 0.40914403D+06 0.40914403D+06 0.40914403D+06 0.10747207D+01  1  2  8  3  6  4        3 -.350225489871D-03 0.100000000000D+01
0.235893755046D-03 0.000000000000D+00 0.000000000000D+00 0.613222716884D-06 0.168250583645D-08  6 4 1 25 3 2 21 2 0.64416611D-01 0.21747866D+00 0.41661334D+06 0.41661334D+06 0.41661334D+06 0.10741559D+01  1  2  1  3  6  4        3 0.245915089161D-03 0.100000000000D+01
  </mgrwgt>
  </event>
  <event>
  5     66 0.16530072E-05 0.67559745E+02 0.75467711E-02 0.89155626E-01
        4 -1    0    0  501    0 0.00000000E+00 0.00000000E+00 0.46924046E+03 0.46924302E+03 0.15500000E+01 0.0000E+00 0.9000E+01
        1 -1    0    0  502    0 -.00000000E+00 -.00000000E+00 -.23495516E+04 0.23495517E+04 0.32000000E+00 0.0000E+00 0.9000E+01
       25  1    1    2    0    0 -.25183129E+03 0.37600592E+03 -.70959118E+03 0.85084904E+03 0.12500000E+03 0.0000E+00 0.9000E+01
        3  1    1    2  501    0 -.64050626E+02 -.21515631E+02 0.35947889E+03 0.36577415E+03 0.50000000E+00 0.0000E+00 0.9000E+01
        2  1    1    2  502    0 0.31588191E+03 -.35449029E+03 -.15301989E+04 0.16021715E+04 0.32000000E+00 0.0000E+00 0.9000E+01
#aMCatNLO 1  0  0  4  1 0.16855487D+02 0.00000000D+00  -5  6  0 0.00000000D+00 0.00000000D+00 0.00000000D+00 0.00000000D+00 0.00000000D+00
  <mgrwgt>
 0.7612182551D-02    4    2    0
 0.105000397038599D+04 0.000000000000000D+00 0.000000000000000D+00 0.105000397038599D+04
 0.105000397038599D+04 -.000000000000000D+00 -.000000000000000D+00 -.105000397038599D+04
 0.506785754745885D+03 -.251898446577908D+03 0.376080369003712D+03 -.190571587271094D+03
 0.812745049388688D+03 -.640430078569038D+02 -.215130714836704D+02 0.809932217043994D+03
 0.780477136637412D+03 0.315941454434813D+03 -.354567297520042D+03 -.619360629772899D+03
 0.000000000000000D+00 0.000000000000000D+00 0.000000000000000D+00 0.000000000000000D+00
 0.105000397038599D+04 0.000000000000000D+00 0.000000000000000D+00 0.105000397038599D+04
 0.105000397038599D+04 -.000000000000000D+00 -.000000000000000D+00 -.105000397038599D+04
 0.482570674838306D+03 -.258840526092474D+03 0.373748413372024D+03 -.102777243434354D+03
 0.480937615520455D+03 -.669272242243246D+02 -.368157050514131D+03 0.302129314759199D+03
 0.679367789199544D+03 0.305698068683173D+03 -.358008214761190D+03 -.489815681628058D+03
 0.457131861213679D+03 0.200696816336263D+02 0.352416851903298D+03 0.290463610303213D+03
0.685602738046D-01 0.000000000000D+00 0.000000000000D+00 0.698906514550D-04 0.000000000000D+00  6 4 1 25 3 2 21 0 0.72191039D-01 0.36146968D+00 0.25606461D+06 0.25606461D+06 0.25606461D+06 0.10896769D+01  1  2  2  3  6  4        3 0.112739845171D-01 0.100000000000D+01
0.242487946338D-01 0.000000000000D+00 -.263289503745D-03 0.698906514550D-04 0.000000000000D+00  6 4 1 25 3 2 21 2 0.72191039D-01 0.36146968D+00 0.25606461D+06 0.25606461D+06 0.25606461D+06 0.10896769D+01  1  2  3  3  6  4        3 0.473467862920D-02 0.100000000000D+01
-.411939263588D-01 0.000000000000D+00 0.000000000000D+00 0.698906514550D-04 0.000000000000D+00  6 4 1 25 3 2 21 2 0.72191039D-01 0.36146968D+00 0.25606461D+06 0.25606461D+06 0.25606461D+06 0.10896769D+01  1  2 15  3  6  4        3 -.804328651090D-02 0.100000000000D+01
-.180889379946D-02 0.000000000000D+00 0.000000000000D+00 0.698906514550D-04 0.000000000000D+00  6 4 1 25 3 2 21 2 0.72191039D-01 0.36146968D+00 0.25606461D+06 0.25606461D+06 0.25606461D+06 0.10896769D+01  1  2  4  3  6  4        3 -.353194084247D-03 0.100000000000D+01
  </mgrwgt>
  </event>
  <event>
  5     66 0.16530072E-05 0.18128510E+03 0.75467711E-02 0.94122393E-01
        4 -1    0    0  501    0 0.00000000E+00 0.00000000E+00 0.59064281E+03 0.59064485E+03 0.15500000E+01 0.0000E+00 0.9000E+01
        1 -1    0    0  502    0 -.00000000E+00 -.00000000E+00 -.19743490E+04 0.19743490E+04 0.32000000E+00 0.0000E+00 0.9000E+01
       25  1    1    2    0    0 0.42157877E+03 0.21115400E+03 -.81787708E+02 0.49459974E+03 0.12500000E+03 0.0000E+00 0.9000E+01
        3  1    1    2  501    0 -.22121010E+03 -.27000810E+03 0.29674753E+03 0.45814586E+03 0.50000000E+00 0.0000E+00 0.9000E+01
        2  1    1    2  502    0 -.20036867E+03 0.58854093E+02 -.15986660E+04 0.16122483E+04 0.32000000E+00 0.0000E+00 0.9000E+01
#aMCatNLO 1  0  0  5  2 0.35350050D+02 0.00000000D+00  -5  6  0 0.00000000D+00 0.00000000D+00 0.00000000D+00 0.00000000D+00 0.00000000D+00
  <mgrwgt>
 0.1450865428D-02    1    2    0
 0.107987855102808D+04 0.000000000000000D+00 0.000000000000000D+00 0.107987855102808D+04
 0.107987855102808D+04 -.000000000000000D+00 -.000000000000000D+00 -.107987855102808D+04
 0.535063486710562D+03 0.421580948437445D+03 0.211091073021224D+03 0.219949988897924D+03
 0.734080974541604D+03 -.221166060740703D+03 -.269954336451575D+03 0.645821265514987D+03
 0.890612640804000D+03 -.200414887696742D+03 0.588632634303514D+02 -.865771254412911D+03
 0.000000000000000D+00 0.000000000000000D+00 0.000000000000000D+00 -.000000000000000D+00
 0.107987855102808D+04 0.000000000000000D+00 0.000000000000000D+00 0.107987855102808D+04
 0.107987855102808D+04 -.000000000000000D+00 -.000000000000000D+00 -.107987855102808D+04
 0.502833809826409D+03 0.407266020750264D+03 0.215295468059540D+03 0.158111005561948D+03
 0.666297807056185D+03 -.240480419743391D+03 -.264281573240072D+03 0.562385264257231D+03
 0.332806480227893D+03 -.179458245970701D+03 -.246701875950390D+03 -.133015321062487D+03
 0.657819004945679D+03 0.126726449638271D+02 0.295687981130922D+03 -.587480948756692D+03
0.761115576589D-02 0.000000000000D+00 0.000000000000D+00 0.988775747487D-05 0.000000000000D+00  6 4 1 25 3 2 21 2 0.90868284D-01 0.30374616D+00 0.27333528D+06 0.27333528D+06 0.27333528D+06 0.10875555D+01  1  2 14  4  6  5        2 0.145086542781D-02 0.100000000000D+01
  </mgrwgt>
  </event>
  <event>
  5     66 0.16530072E-05 0.23972293E+03 0.75467711E-02 0.91609586E-01
        4 -1    0    0  501    0 0.00000000E+00 0.00000000E+00 0.17391815E+04 0.17391822E+04 0.15500000E+01 0.0000E+00 0.9000E+01
        1 -1    0    0  502    0 0.00000000E+00 0.00000000E+00 -.54858710E+03 0.54858719E+03 0.32000000E+00 0.0000E+00 0.9000E+01
       25  1    1    2    0    0 0.43731916E+03 -.13552412E+03 0.46259166E+03 0.66274496E+03 0.12500000E+03 0.0000E+00 0.9000E+01
        3  1    1    2  501    0 0.14936165E+03 0.18760779E+03 0.96186420E+03 0.99130649E+03 0.50000000E+00 0.0000E+00 0.9000E+01
        2  1    1    2  502    0 -.58668081E+03 -.52083666E+02 -.23386149E+03 0.63371790E+03 0.32000000E+00 0.0000E+00 0.9000E+01
#aMCatNLO 1  0  0  4  1 0.43469236D+02 0.00000000D+00  -5  6  0 0.00000000D+00 0.00000000D+00 0.00000000D+00 0.00000000D+00 0.00000000D+00
  <mgrwgt>
 0.1000658905D-03    7    2    0
 0.976777056307656D+03 0.000000000000000D+00 0.000000000000000D+00 0.976777056307656D+03
 0.976777056307656D+03 -.000000000000000D+00 -.000000000000000D+00 -.976777056307656D+03
 0.494368089053484D+03 0.437490013248404D+03 -.135476835516990D+03 0.137925062336788D+03
 0.574498643577970D+03 0.149311643417131D+03 0.187544969044320D+03 0.522093487030022D+03
 0.884687379983859D+03 -.586801656665535D+03 -.520681335273306D+02 -.660018549366810D+03
 0.000000000000000D+00 0.000000000000000D+00 0.000000000000000D+00 0.000000000000000D+00
 0.976777056307656D+03 0.000000000000000D+00 0.000000000000000D+00 0.976777056307656D+03
 0.976777056307656D+03 -.000000000000000D+00 -.000000000000000D+00 -.976777056307656D+03
 0.495051807210750D+03 0.437939250094113D+03 -.134912565320816D+03 0.139495895166103D+03
 0.237131529276712D+03 0.973444917250993D+02 0.530027577252291D+02 0.209633298360292D+03
 0.882004788275312D+03 -.585999506617811D+03 -.510605817890578D+02 -.657213695666503D+03
 0.339365987852538D+03 0.507157647985984D+02 0.132970389384644D+03 0.308084502140109D+03
0.591928860771D-03 0.000000000000D+00 0.000000000000D+00 0.387725952075D-06 0.000000000000D+00  6 4 1 25 3 2 21 0 0.26756644D+00 0.84398076D-01 0.42482267D+06 0.42482267D+06 0.42482267D+06 0.10735477D+01  1  2  2  3  6  4        3 0.267273942349D-04 0.100000000000D+01
0.371816982239D-04 0.000000000000D+00 -.227316268381D-05 0.387725952075D-06 0.000000000000D+00  6 4 1 25 3 2 21 2 0.26756644D+00 0.84398076D-01 0.42482267D+06 0.42482267D+06 0.42482267D+06 0.10735477D+01  1  2  3  3  6  4        3 0.193490226780D-05 0.100000000000D+01
-.356226022841D-03 0.000000000000D+00 0.000000000000D+00 0.387725952075D-06 0.000000000000D+00  6 4 1 25 3 2 21 2 0.26756644D+00 0.84398076D-01 0.42482267D+06 0.42482267D+06 0.42482267D+06 0.10735477D+01  1  2 15  3  6  4        3 -.185376831175D-04 0.100000000000D+01
0.333627763708D-02 0.000000000000D+00 0.000000000000D+00 0.387725952075D-06 0.000000000000D+00  6 4 1 25 3 2 21 2 0.26756644D+00 0.84398076D-01 0.43320370D+06 0.43320370D+06 0.43320370D+06 0.10729399D+01  1  2 12  3  6  4        3 0.173258705896D-03 0.100000000000D+01
-.409276846192D-02 0.000000000000D+00 0.000000000000D+00 0.387725952075D-06 0.000000000000D+00  6 4 1 25 3 2 21 2 0.26756644D+00 0.84398076D-01 0.42482267D+06 0.42482267D+06 0.42482267D+06 0.10735477D+01  1  2  4  3  6  4        3 -.212984004412D-03 0.100000000000D+01
-.349447772261D-02 0.000000000000D+00 0.000000000000D+00 0.387725952075D-06 0.000000000000D+00  6 4 1 25 3 2 21 2 0.26756644D+00 0.84398076D-01 0.42482267D+06 0.42482267D+06 0.42482267D+06 0.10735477D+01  1  2  5  3  6  4        3 -.181849490294D-03 0.100000000000D+01
0.598619193816D-02 0.000000000000D+00 -.000000000000D+00 0.387725952075D-06 0.000000000000D+00  6 4 1 25 3 2 21 2 0.26756644D+00 0.84398076D-01 0.42482267D+06 0.42482267D+06 0.42482267D+06 0.10735477D+01  1  2  6  3  6  4        3 0.311516065966D-03 0.100000000000D+01
  </mgrwgt>
  </event>
  <event>
  5     66 0.16530072E-05 0.10265033E+02 0.75467711E-02 0.88791389E-01
        4 -1    0    0  501    0 0.00000000E+00 0.00000000E+00 0.14072847E+03 0.14073701E+03 0.15500000E+01 0.0000E+00 0.9000E+01
        1 -1    0    0  502    0 0.00000000E+00 0.00000000E+00 -.36283314E+04 0.36283314E+04 0.32000000E+00 0.0000E+00 0.9000E+01
       25  1    1    2    0    0 0.79145255E+02 -.57582079E+03 -.74220125E+03 0.95095807E+03 0.12500000E+03 0.0000E+00 0.9000E+01
        3  1    1    2  501    0 -.97473320E+01 -.37139704E+01 0.88820480E+00 0.10480599E+02 0.50000000E+00 0.0000E+00 0.9000E+01
        2  1    1    2  502    0 -.69397923E+02 0.57953476E+03 -.27462899E+04 0.28076297E+04 0.32000000E+00 0.0000E+00 0.9000E+01
#aMCatNLO 1  0  0  2  4 0.46630438D+03 0.00000000D+00  -5  6  0 0.00000000D+00 0.00000000D+00 0.00000000D+00 0.00000000D+00 0.00000000D+00
  <mgrwgt>
 0.9961216999D-03    7    2    0
 0.714580751421642D+03 0.000000000000000D+00 0.000000000000000D+00 0.714580751421642D+03
 0.714580751421642D+03 0.000000000000000D+00 0.000000000000000D+00 -.714580751421642D+03
 0.697091119068346D+03 0.790508324731859D+02 -.576071702599228D+03 0.363597837773663D+03
 0.293293851631075D+02 -.959231770741862D+01 -.365490619318263D+01 0.274743869042585D+02
 0.702740998611830D+03 -.694585147657673D+02 0.579726608792410D+03 -.391072224677921D+03
 0.000000000000000D+00 -.000000000000000D+00 -.000000000000000D+00 -.000000000000000D+00
 0.979116224247499D+03 0.000000000000000D+00 0.000000000000000D+00 0.979116224247499D+03
 0.990641029227428D+03 0.000000000000000D+00 0.000000000000000D+00 -.990641029227428D+03
 0.592140311343476D+03 0.194070547622575D+03 -.406372222512489D+03 0.363597837773663D+03
 0.281079662400593D+02 -.446800283152602D+01 0.390548090315365D+01 0.274743869042585D+02
 0.883062195635626D+03 0.720200649389406D+02 0.788463357862916D+03 -.391072224677921D+03
 0.466446780255765D+03 -.261622609729989D+03 -.385996616253581D+03 -.115248049799298D+02
0.205870268212D-02 0.000000000000D+00 0.000000000000D+00 0.991284578868D-06 0.000000000000D+00  6 4 1 25 3 2 21 0 0.21651192D-01 0.55820549D+00 0.35336610D+06 0.35336610D+06 0.35336610D+06 0.10793302D+01  1  2  2  2  6  2        1 0.486536732941D-03 0.100000000000D+01
0.104959911302D-02 0.000000000000D+00 -.790596036821D-05 0.991284578868D-06 0.000000000000D+00  6 4 1 25 3 2 21 2 0.21651192D-01 0.55820549D+00 0.35336610D+06 0.35336610D+06 0.35336610D+06 0.10793302D+01  1  2  3  2  6  2        1 0.288970895006D-03 0.100000000000D+01
-.129164022867D-02 0.000000000000D+00 0.000000000000D+00 0.991284578868D-06 0.000000000000D+00  6 4 1 25 3 2 21 2 0.21651192D-01 0.55820549D+00 0.35336610D+06 0.35336610D+06 0.35336610D+06 0.10793302D+01  1  2 15  2  6  2        1 -.355608563572D-03 0.100000000000D+01
-.166745398541D-05 0.000000000000D+00 0.000000000000D+00 0.991284578868D-06 0.000000000000D+00  6 4 1 25 3 2 21 2 0.21651192D-01 0.55820549D+00 0.35336610D+06 0.35336610D+06 0.35336610D+06 0.10793302D+01  1  2  4  2  6  2        1 -.459075912479D-06 0.100000000000D+01
-.175083896539D-02 0.000000000000D+00 -.925231190954D-03 0.991284578868D-06 0.000000000000D+00  6 4 1 25 3 2 21 2 0.21651192D-01 0.80508304D+00 0.35336610D+06 0.35336610D+06 0.35336610D+06 0.10793302D+01  1  2  5  2  6  2        1 -.732908850171D-05 0.100000000000D+01
0.212126519600D-02 0.000000000000D+00 0.940908355595D-03 0.991284578868D-06 0.000000000000D+00  6 4 1 25 3 2 21 2 0.21651192D-01 0.55820549D+00 0.35336610D+06 0.35336610D+06 0.35336610D+06 0.10793302D+01  1  2  6  2  6  2        1 0.584017168682D-03 0.100000000000D+01
-.502195766373D-04 0.000000000000D+00 -.412989029556D-04 0.991284578868D-06 0.000000000000D+00  6 4 21 25 3 2 -1 2 0.21651192D-01 0.80508304D+00 0.35336610D+06 0.35336610D+06 0.35336610D+06 0.10793302D+01  1  2  5  6  6  2        1 -.636870102811D-08 0.100000000000D+01
  </mgrwgt>
  </event>
  <event>
  5     66 0.16530072E-05 0.29873055E+02 0.75467711E-02 0.91647103E-01
        4 -1    0    0  501    0 0.00000000E+00 0.00000000E+00 0.90388471E+03 0.90388604E+03 0.15500000E+01 0.0000E+00 0.9000E+01
        1 -1    0    0  502    0 0.00000000E+00 0.00000000E+00 -.48620439E+03 0.48620450E+03 0.32000000E+00 0.0000E+00 0.9000E+01
       25  1    1    2    0    0 0.29795663E+03 -.44171957E+03 0.21193013E+03 0.58688476E+03 0.12500000E+03 0.0000E+00 0.9000E+01
        3  1    1    2  501    0 -.27520736E+03 0.46106956E+03 0.35975313E+03 0.64633335E+03 0.50000000E+00 0.0000E+00 0.9000E+01
        2  1    1    2  502    0 -.22749273E+02 -.19349990E+02 -.15400294E+03 0.15687243E+03 0.32000000E+00 0.0000E+00 0.9000E+01
#aMCatNLO 1  0  0  1  5 0.19539762D+03 0.00000000D+00  -5  6  0 0.00000000D+00 0.00000000D+00 0.00000000D+00 0.00000000D+00 0.00000000D+00
  <mgrwgt>
 0.6464706440D-02    7    2    0
 0.662928134083915D+03 0.000000000000000D+00 0.000000000000000D+00 0.662928134083915D+03
 0.662928134083915D+03 0.000000000000000D+00 0.000000000000000D+00 -.662928134083915D+03
 0.548519336830608D+03 0.297941153536187D+03 -.441678956332244D+03 0.374063021411590D+02
 0.564269879900455D+03 -.275185651763485D+03 0.461033194795954D+03 0.173556180306598D+03
 0.213067051436767D+03 -.227555017727023D+02 -.193542384637098D+02 -.210962482447757D+03
 0.000000000000000D+00 -.000000000000000D+00 -.000000000000000D+00 0.000000000000000D+00
 0.772780008322018D+03 0.000000000000000D+00 0.000000000000000D+00 0.772780008322018D+03
 0.763037590641665D+03 0.000000000000000D+00 0.000000000000000D+00 -.763037590641665D+03
 0.512188279986013D+03 0.328863865421188D+03 -.370352751758901D+03 0.374063021411590D+02
 0.616571432698937D+03 -.240760693261721D+03 0.540437667523221D+03 0.173556180306598D+03
 0.211417541828194D+03 -.103805413509526D+02 0.918979615755147D+01 -.210962482447757D+03
 0.195640344450538D+03 -.777226308085146D+02 -.179274711921872D+03 0.974241768035351D+01
0.595654597814D-02 0.000000000000D+00 0.000000000000D+00 0.298701090355D-05 0.000000000000D+00  6 4 1 25 3 2 21 0 0.13905930D+00 0.74800786D-01 0.31026649D+06 0.31026649D+06 0.31026649D+06 0.10834723D+01  1  2  2  1  6  1        4 0.393142665292D-02 0.100000000000D+01
0.250522034072D-02 0.000000000000D+00 -.228747049506D-04 0.298701090355D-05 0.000000000000D+00  6 4 1 25 3 2 21 2 0.13905930D+00 0.74800786D-01 0.31026649D+06 0.31026649D+06 0.31026649D+06 0.10834723D+01  1  2  3  1  6  1        4 0.194105242641D-02 0.100000000000D+01
-.357536813057D-02 0.000000000000D+00 0.000000000000D+00 0.298701090355D-05 0.000000000000D+00  6 4 1 25 3 2 21 2 0.13905930D+00 0.74800786D-01 0.31026649D+06 0.31026649D+06 0.31026649D+06 0.10834723D+01  1  2 15  1  6  1        4 -.277020622592D-02 0.100000000000D+01
-.281664723149D-03 0.000000000000D+00 0.000000000000D+00 0.298701090355D-05 0.000000000000D+00  6 4 1 25 3 2 21 2 0.13905930D+00 0.74800786D-01 0.31026649D+06 0.31026649D+06 0.31026649D+06 0.10834723D+01  1  2  4  1  6  1        4 -.218234693938D-03 0.100000000000D+01
-.137094807398D-01 0.000000000000D+00 -.505594719058D-02 0.298701090355D-05 0.000000000000D+00  6 4 1 25 3 2 21 2 0.17919777D+00 0.74800786D-01 0.31026649D+06 0.31026649D+06 0.31026649D+06 0.10834723D+01  1  2  5  1  6  1        4 -.453487834037D-02 0.100000000000D+01
0.146755306581D-01 0.000000000000D+00 0.489762401727D-02 0.298701090355D-05 0.000000000000D+00  6 4 1 25 3 2 21 2 0.13905930D+00 0.74800786D-01 0.31026649D+06 0.31026649D+06 0.31026649D+06 0.10834723D+01  1  2  6  1  6  1        4 0.113706462979D-01 0.100000000000D+01
-.382142747388D-03 0.000000000000D+00 -.172916730565D-03 0.298701090355D-05 0.000000000000D+00  6 21 1 25 3 2 -4 2 0.17919777D+00 0.74800786D-01 0.31026649D+06 0.31026649D+06 0.31026649D+06 0.10834723D+01  1  2  5  5  6  1        4 -.325509967707D-02 0.100000000000D+01
  </mgrwgt>
  </event>
  <event>
  5     66 -.16530072E-05 0.28078657E+02 0.75467711E-02 0.91336189E-01
        4 -1    0    0  501    0 0.00000000E+00 0.00000000E+00 0.13775071E+04 0.13775080E+04 0.15500000E+01 0.0000E+00 0.9000E+01
        1 -1    0    0  502    0 0.00000000E+00 0.00000000E+00 -.87059583E+03 0.87059589E+03 0.32000000E+00 0.0000E+00 0.9000E+01
       25  1    1    2    0    0 0.63931431E+03 0.85200813E+02 -.26664219E+03 0.70901694E+03 0.12500000E+03 0.0000E+00 0.9000E+01
        3  1    1    2  501    0 0.17479573E+02 0.21983410E+02 0.86666688E+03 0.86712198E+03 0.50000000E+00 0.0000E+00 0.9000E+01
        2  1    1    2  502    0 -.65679388E+03 -.10718422E+03 -.93113419E+02 0.67196493E+03 0.32000000E+00 0.0000E+00 0.9000E+01
#aMCatNLO 1  0  0  2  5 0.23617115D+02 0.00000000D+00  -5  6  0 0.00000000D+00 0.00000000D+00 0.00000000D+00 0.00000000D+00 0.00000000D+00
  <mgrwgt>
 -.5017611529D-02    1    2    0
 0.109510409252729D+04 0.000000000000000D+00 0.000000000000000D+00 0.109510409252729D+04
 0.109510409252729D+04 0.000000000000000D+00 0.000000000000000D+00 -.109510409252729D+04
 0.789551724364747D+03 0.639456400553879D+03 0.852237670391806D+02 -.437720626392765D+03
 0.689285483592072D+03 0.174751977988888D+02 0.219779075917445D+02 0.688713341623737D+03
 0.711370977097754D+03 -.656931598352768D+03 -.107201674630925D+03 -.250992715230973D+03
 0.000000000000000D+00 -.000000000000000D+00 -.000000000000000D+00 0.000000000000000D+00
 0.227528440586634D+04 0.000000000000000D+00 0.000000000000000D+00 0.227528440586634D+04
 0.168074801328436D+04 0.000000000000000D+00 0.000000000000000D+00 -.168074801328436D+04
 0.127200612917900D+04 0.113740717641802D+04 0.342169783779996D+03 -.437720626392765D+03
 0.814284269512210D+03 0.380648961677083D+03 0.209378061455007D+03 0.688713341623737D+03
 0.453341326250621D+03 -.375605806736545D+03 0.379643639936778D+02 -.250992715230973D+03
 0.141640069420886D+04 -.114245033135856D+04 -.589512209228681D+03 0.594536392581980D+03
-.713149310357D-01 0.000000000000D+00 0.000000000000D+00 0.132878831643D-04 0.000000000000D+00  6 4 1 25 3 2 21 2 0.21192424D+00 0.13393789D+00 0.45617119D+06 0.45617119D+06 0.45617119D+06 0.10713377D+01  1  2 14  2  6  2        1 -.501761152918D-02 0.100000000000D+01
  </mgrwgt>
  </event>
  <event>
  5     66 0.16530072E-05 0.86627486E+02 0.75467711E-02 0.92268011E-01
        4 -1    0    0  501    0 0.00000000E+00 0.00000000E+00 0.27440951E+03 0.27441389E+03 0.15500000E+01 0.0000E+00 0.9000E+01
        1 -1    0    0  502    0 0.00000000E+00 0.00000000E+00 -.34598458E+04 0.34598458E+04 0.32000000E+00 0.0000E+00 0.9000E+01
       25  1    1    2    0    0 0.34529608E+03 0.30605154E+03 -.43781996E+03 0.64823471E+03 0.12500000E+03 0.0000E+00 0.9000E+01
        3  1    1    2  501    0 -.68447479E+02 -.53146826E+02 0.14515288E+03 0.16905399E+03 0.50000000E+00 0.0000E+00 0.9000E+01
        2  1    1    2  502    0 -.27684860E+03 -.25290471E+03 -.28927692E+04 0.29169709E+04 0.32000000E+00 0.0000E+00 0.9000E+01
#aMCatNLO 1  0  0  2  1 0.39483832D+03 0.00000000D+00  -5  6  0 0.00000000D+00 0.00000000D+00 0.00000000D+00 0.00000000D+00 0.00000000D+00
  <mgrwgt>
 0.2729508315D-02    7    2    0
 0.974383278614571D+03 0.000000000000000D+00 0.000000000000000D+00 0.974383278614571D+03
 0.974383278614571D+03 0.000000000000000D+00 0.000000000000000D+00 -.974383278614571D+03
 0.526647743882722D+03 0.345344029541281D+03 0.306098087022236D+03 0.220849062751646D+03
 0.561010642374292D+03 -.684232252374972D+02 -.531279930613389D+02 0.554282075714693D+03
 0.861108170972127D+03 -.276920804303783D+03 -.252970093960897D+03 -.775131138466340D+03
 0.000000000000000D+00 -.000000000000000D+00 -.000000000000000D+00 -.000000000000000D+00
 0.117298884137138D+04 0.000000000000000D+00 0.000000000000000D+00 0.117298884137138D+04
 0.121215003374144D+04 0.000000000000000D+00 0.000000000000000D+00 -.121215003374144D+04
 0.626675053276335D+03 0.450699833176159D+03 0.353824779029959D+03 0.220849062751646D+03
 0.555340087379001D+03 0.335551875375346D+02 -.693127555711981D+01 0.554282075714693D+03
 0.806348104799851D+03 -.124599011660202D+03 -.183967580262089D+03 -.775131138466340D+03
 0.396775629657625D+03 -.359656009053491D+03 -.162925923210750D+03 -.391611923700605D+02
0.182064678960D-01 0.000000000000D+00 0.000000000000D+00 0.723515990206D-04 0.000000000000D+00  6 4 1 25 3 2 21 0 0.42217185D-01 0.53228430D+00 0.22080770D+06 0.22080770D+06 0.22080770D+06 0.10945393D+01  1  2  2  2  6  2        1 0.159433639491D-02 0.100000000000D+01
0.382945472789D-02 0.000000000000D+00 -.699176305939D-04 0.723515990206D-04 0.000000000000D+00  6 4 1 25 3 2 21 2 0.42217185D-01 0.53228430D+00 0.22080770D+06 0.22080770D+06 0.22080770D+06 0.10945393D+01  1  2  3  2  6  2        1 0.401748156056D-03 0.100000000000D+01
-.118507782756D-01 0.000000000000D+00 0.000000000000D+00 0.723515990206D-04 0.000000000000D+00  6 4 1 25 3 2 21 2 0.42217185D-01 0.53228430D+00 0.22080770D+06 0.22080770D+06 0.22080770D+06 0.10945393D+01  1  2 15  2  6  2        1 -.124326533629D-02 0.100000000000D+01
-.359198795771D-03 0.000000000000D+00 0.000000000000D+00 0.723515990206D-04 0.000000000000D+00  6 4 1 25 3 2 21 2 0.42217185D-01 0.53228430D+00 0.22080770D+06 0.22080770D+06 0.22080770D+06 0.10945393D+01  1  2  4  2  6  2        1 -.376835513441D-04 0.100000000000D+01
-.186810147315D-01 0.000000000000D+00 -.114209117154D-01 0.723515990206D-04 0.000000000000D+00  6 4 1 25 3 2 21 2 0.42217185D-01 0.68675175D+00 0.22080770D+06 0.22080770D+06 0.22080770D+06 0.10945393D+01  1  2  5  2  6  2        1 -.230082507762D-03 0.100000000000D+01
0.213970378970D-01 0.000000000000D+00 0.114149683209D-01 0.723515990206D-04 0.000000000000D+00  6 4 1 25 3 2 21 2 0.42217185D-01 0.53228430D+00 0.22080770D+06 0.22080770D+06 0.22080770D+06 0.10945393D+01  1  2  6  2  6  2        1 0.224476358411D-02 0.100000000000D+01
-.443698894941D-03 0.000000000000D+00 -.391968306464D-03 0.723515990206D-04 0.000000000000D+00  6 4 21 25 3 2 -1 2 0.42217185D-01 0.68675175D+00 0.22080770D+06 0.22080770D+06 0.22080770D+06 0.10945393D+01  1  2  5  6  6  2        1 -.308425055180D-06 0.100000000000D+01
  </mgrwgt>
  </event>
  <event>
  6     66 0.16530072E-05 0.34461494E+02 0.75467711E-02 0.90804787E-01
        4 -1    0    0  501    0 0.00000000E+00 0.00000000E+00 0.65340006E+03 0.65340190E+03 0.15500000E+01 0.0000E+00 0.9000E+01
        1 -1    0    0  502    0 -.00000000E+00 -.00000000E+00 -.11474868E+04 0.11474869E+04 0.32000000E+00 0.0000E+00 0.9000E+01
       25  1    1    2    0    0 -.68789882E+03 0.39642874E+02 -.27527313E+03 0.75244710E+03 0.12500000E+03 0.0000E+00 0.9000E+01
        3  1    1    2  503    0 0.41683648E+03 -.25324746E+02 0.10553752E+03 0.43073473E+03 0.50000000E+00 0.0000E+00 0.9000E+01
        2  1    1    2  502    0 0.11973637E+02 0.37251770E+02 -.35010260E+03 0.35228255E+03 0.32000000E+00 0.0000E+00 0.9000E+01
       21  1    1    2  501  503 0.25908871E+03 -.51569898E+02 0.25751419E+02 0.26542440E+03 0.75000000E+00 0.0000E+00 0.9000E+01
#aMCatNLO 2  0  0  4  1 0.28376687D+02 0.00000000D+00  -5  6  0 0.00000000D+00 0.00000000D+00 0.00000000D+00 0.00000000D+00 0.00000000D+00
  <mgrwgt>
 0.1254878738D-02    1    2    0
 0.865892411937858D+03 0.000000000000000D+00 0.000000000000000D+00 0.865892411937858D+03
 0.865892411937858D+03 -.000000000000000D+00 -.000000000000000D+00 -.865892411937858D+03
 0.704939860154141D+03 -.688897642179910D+03 0.397313132789612D+02 -.718099420569944D+02
 0.759936930300703D+03 0.677330566953478D+03 -.770545223390427D+02 0.335842286933075D+03
 0.266908033420873D+03 0.115670752264322D+02 0.373232090600815D+02 -.264032344876080D+03
 0.000000000000000D+00 0.000000000000000D+00 -.000000000000000D+00 0.000000000000000D+00
 0.865892411937858D+03 0.000000000000000D+00 0.000000000000000D+00 0.865892411937858D+03
 0.865892411937858D+03 -.000000000000000D+00 -.000000000000000D+00 -.865892411937858D+03
 0.703801406208213D+03 -.687796639574456D+03 0.396060609516686D+02 -.712640295425211D+02
 0.477670003014635D+03 0.416510849915501D+03 -.252840679936460D+02 0.232482385544284D+03
 0.266715252816962D+03 0.119841288348611D+02 0.372757641813839D+02 -.263825556279105D+03
 0.283598161835906D+03 0.259301660824093D+03 -.515977571394065D+02 0.102607200277342D+03
0.253521103403D-02 0.000000000000D+00 0.000000000000D+00 0.300093711667D-05 0.645380607805D-08  6 4 1 25 3 2 21 2 0.10052323D+00 0.17653658D+00 0.50481171D+06 0.50481171D+06 0.50481171D+06 0.10682166D+01  1  2  1  3  6  4        3 0.125487873769D-02 0.100000000000D+01
  </mgrwgt>
  </event>
  <event>
  5     66 0.16530072E-05 0.37967172E+02 0.75467711E-02 0.83272242E-01
        4 -1    0    0  501    0 0.00000000E+00 0.00000000E+00 0.58202082E+03 0.58202288E+03 0.15500000E+01 0.0000E+00 0.9000E+01
        1 -1    0    0  502    0 0.00000000E+00 0.00000000E+00 -.11455305E+04 0.11455306E+04 0.32000000E+00 0.0000E+00 0.9000E+01
       25  1    1    2    0    0 0.10571217E+03 -.65598692E+03 -.10306021E+02 0.67618424E+03 0.12500000E+03 0.0000E+00 0.9000E+01
        3  1    1    2  501    0 0.38006333E+02 -.21508097E+01 0.10369136E+03 0.11045929E+03 0.50000000E+00 0.0000E+00 0.9000E+01
        2  1    1    2  502    0 -.14371851E+03 0.65813773E+03 -.65689505E+03 0.94090993E+03 0.32000000E+00 0.0000E+00 0.9000E+01
#aMCatNLO 1  0  0  1  4 0.97377178D+02 0.00000000D+00  -5  6  0 0.00000000D+00 0.00000000D+00 0.00000000D+00 0.00000000D+00 0.00000000D+00
  <mgrwgt>
 0.5105226788D-03    3    2    0
 0.816531956693143D+03 0.000000000000000D+00 0.000000000000000D+00 0.816531956693143D+03
 0.816531956693143D+03 0.000000000000000D+00 0.000000000000000D+00 -.816531956693143D+03
 0.712040625680224D+03 0.105822800151398D+03 -.656192622113404D+03 0.222687292567711D+03
 0.152228884464121D+03 0.379065219803628D+02 -.214516136213293D+01 0.147418204911311D+03
 0.768794403241941D+03 -.143729322131760D+03 0.658337783475537D+03 -.370105497479022D+03
 0.000000000000000D+00 -.000000000000000D+00 0.000000000000000D+00 -.000000000000000D+00
 0.162257602654648D+04 0.000000000000000D+00 0.000000000000000D+00 0.162257602654648D+04
 0.170342009214776D+04 0.000000000000000D+00 0.000000000000000D+00 -.170342009214776D+04
 0.120483323341289D+04 0.686381594643137D+03 -.956707267977079D+03 0.222687292567711D+03
 0.219044320586313D+03 0.150353109599404D+03 -.603508879440525D+02 0.147418204911311D+03
 0.639055124529919D+03 0.282662545435198D+03 0.437624563218120D+03 -.370105497479022D+03
 0.126306344016512D+04 -.111939724967774D+04 0.579433592703012D+03 -.808440656012804D+02
0.130468150400D-02 0.000000000000D+00 0.000000000000D+00 0.134778327867D-05 0.000000000000D+00  6 4 1 25 3 2 21 0 0.89541826D-01 0.17623563D+00 0.48172935D+06 0.48172935D+06 0.48172935D+06 0.10696549D+01  1  2  2  1  6  1        4 0.781305615024D-03 0.100000000000D+01
0.421829316747D-03 0.000000000000D+00 -.501032050589D-05 0.134778327867D-05 0.000000000000D+00  6 4 1 25 3 2 21 2 0.89541826D-01 0.17623563D+00 0.48172935D+06 0.48172935D+06 0.48172935D+06 0.10696549D+01  1  2  3  1  6  1        4 0.289028414108D-03 0.100000000000D+01
-.817029841626D-03 0.000000000000D+00 0.000000000000D+00 0.134778327867D-05 0.000000000000D+00  6 4 1 25 3 2 21 2 0.89541826D-01 0.17623563D+00 0.48172935D+06 0.48172935D+06 0.48172935D+06 0.10696549D+01  1  2 15  1  6  1        4 -.559811350299D-03 0.100000000000D+01
  </mgrwgt>
  </event>
  <event>
  5     66 0.16530072E-05 0.11670056E+03 0.75467711E-02 0.94041915E-01
        4 -1    0    0  501    0 0.00000000E+00 0.00000000E+00 0.54084166E+03 0.54084388E+03 0.15500000E+01 0.0000E+00 0.9000E+01
        1 -1    0    0  502    0 -.00000000E+00 -.00000000E+00 -.24047479E+04 0.24047480E+04 0.32000000E+00 0.0000E+00 0.9000E+01
       25  1    1    2    0    0 0.90971227E+02 0.50308544E+03 -.14994162E+03 0.54724602E+03 0.12500000E+03 0.0000E+00 0.9000E+01
        3  1    1    2  501    0 -.20953577E+02 -.40975440E+03 0.21680777E+03 0.46405126E+03 0.50000000E+00 0.0000E+00 0.9000E+01
        2  1    1    2  502    0 -.70017649E+02 -.93331042E+02 -.19307724E+04 0.19342946E+04 0.32000000E+00 0.0000E+00 0.9000E+01
#aMCatNLO 1  0  0  5  2 0.94330401D+02 0.00000000D+00  -5  6  0 0.00000000D+00 0.00000000D+00 0.00000000D+00 0.00000000D+00 0.00000000D+00
  <mgrwgt>
 0.6325711350D-04    1    2    0
 0.114043464307374D+04 0.000000000000000D+00 0.000000000000000D+00 0.114043464307374D+04
 0.114043464307374D+04 -.000000000000000D+00 -.000000000000000D+00 -.114043464307374D+04
 0.584249506317473D+03 0.909817187172603D+02 0.503028714157845D+03 0.253785195045275D+03
 0.776318257676526D+03 -.209496237675606D+02 -.409677084587914D+03 0.659087123853487D+03
 0.920301522153478D+03 -.700320949496997D+02 -.933516295699316D+02 -.912872318898762D+03
 0.000000000000000D+00 0.000000000000000D+00 0.000000000000000D+00 -.000000000000000D+00
 0.114043464307374D+04 0.000000000000000D+00 0.000000000000000D+00 0.114043464307374D+04
 0.114043464307374D+04 -.000000000000000D+00 -.000000000000000D+00 -.114043464307374D+04
 0.570568220617729D+03 0.889532794935960D+02 0.500324838068623D+03 0.227344375030087D+03
 0.748941889278438D+03 -.236287457070777D+02 -.413248310024624D+03 0.624164617832553D+03
 0.355040727770306D+03 -.189140801142294D+03 -.148573682033602D+03 -.261161897538477D+03
 0.606318448481005D+03 0.123816267355775D+03 0.614971539896032D+02 -.590347095324162D+03
0.512756983195D-03 0.000000000000D+00 0.000000000000D+00 0.405816443982D-04 0.000000000000D+00  6 4 1 25 3 2 21 2 0.83206582D-01 0.36996140D+00 0.27728880D+06 0.27728880D+06 0.27728880D+06 0.10870904D+01  1  2 14  4  6  5        2 0.632571134997D-04 0.100000000000D+01
  </mgrwgt>
  </event>
  <event>
  6     66 0.16530072E-05 0.28775472E+02 0.75467711E-02 0.95323301E-01
       21 -1    0    0  501  503 0.00000000E+00 0.00000000E+00 0.87647964E+03 0.87647996E+03 0.75000000E+00 0.0000E+00 0.9000E+01
        1 -1    0    0  502    0 0.00000000E+00 0.00000000E+00 -.51478930E+03 0.51478940E+03 0.32000000E+00 0.0000E+00 0.9000E+01
       25  1    1    2    0    0 -.22005428E+03 -.39494661E+03 0.30610957E+03 0.56012033E+03 0.12500000E+03 0.0000E+00 0.9000E+01
        3  1    1    2  501    0 0.31828595E+02 -.16675205E+01 0.12264161E+03 0.12671643E+03 0.50000000E+00 0.0000E+00 0.9000E+01
        2  1    1    2  502    0 0.18360588E+03 0.39284082E+03 -.26381885E+03 0.50757810E+03 0.32000000E+00 0.0000E+00 0.9000E+01
       -4  1    1    2    0  503 0.46198030E+01 0.37733076E+01 0.19675801E+03 0.19685451E+03 0.15500000E+01 0.0000E+00 0.9000E+01
#aMCatNLO 2  0  0  1  4 0.97377178D+02 0.00000000D+00  -5  6  0 0.00000000D+00 0.00000000D+00 0.00000000D+00 0.00000000D+00 0.00000000D+00
  <mgrwgt>
 0.5513079915D-02    1    2    0
 0.591478781072695D+03 0.000000000000000D+00 0.000000000000000D+00 0.591478781072695D+03
 0.591478781072695D+03 0.000000000000000D+00 0.000000000000000D+00 -.591478781072695D+03
 0.521020669402093D+03 -.218008678958886D+03 -.393454152315113D+03 0.231308417202666D+03
 0.110564452607574D+03 0.321459945256246D+02 -.130905980179984D+01 0.105780052839873D+03
 0.551372440135722D+03 0.185862684433261D+03 0.394763212116913D+03 -.337088470042539D+03
 0.000000000000000D+00 0.000000000000000D+00 0.000000000000000D+00 0.000000000000000D+00
 0.762752530399306D+03 0.000000000000000D+00 0.000000000000000D+00 0.762752530399306D+03
 0.591538237716593D+03 0.000000000000000D+00 0.000000000000000D+00 -.591538237716593D+03
 0.523133692075652D+03 -.220047533510426D+03 -.395119423607443D+03 0.231308417202666D+03
 0.110444494005174D+03 0.317144442555143D+02 -.166153628202204D+01 0.105780052839873D+03
 0.549394414729173D+03 0.183713286226420D+03 0.393007652296849D+03 -.337088470042539D+03
 0.171318167305900D+03 0.461980302849253D+01 0.377330759261644D+01 0.171214292682713D+03
0.282150800840D-03 0.000000000000D+00 0.000000000000D+00 0.322449350483D-05 0.233116698098D-07  6 21 1 25 3 2 -4 2 0.13484225D+00 0.79197917D-01 0.22126077D+06 0.22126077D+06 0.22126077D+06 0.10944715D+01  1  2  1  5  6  1        4 0.551307991505D-02 0.100000000000D+01
  </mgrwgt>
  </event>
  <event>
  5     66 0.16530072E-05 0.35068053E+02 0.75467711E-02 0.94726765E-01
        4 -1    0    0  501    0 0.00000000E+00 0.00000000E+00 0.12725343E+04 0.12725353E+04 0.15500000E+01 0.0000E+00 0.9000E+01
        1 -1    0    0  502    0 0.00000000E+00 0.00000000E+00 -.52027210E+03 0.52027220E+03 0.32000000E+00 0.0000E+00 0.9000E+01
       25  1    1    2    0    0 -.15307717E+03 -.42373802E+03 0.71555729E+02 0.47300291E+03 0.12500000E+03 0.0000E+00 0.9000E+01
        3  1    1    2  501    0 0.15513985E+03 0.38873866E+03 0.95530663E+03 0.10429751E+04 0.50000000E+00 0.0000E+00 0.9000E+01
        2  1    1    2  502    0 -.20626807E+01 0.34999364E+02 -.27460012E+03 0.27682944E+03 0.32000000E+00 0.0000E+00 0.9000E+01
#aMCatNLO 1  0  0  2  4 0.87869840D+02 0.00000000D+00  -5  6  0 0.00000000D+00 0.00000000D+00 0.00000000D+00 0.00000000D+00 0.00000000D+00
  <mgrwgt>
 0.4794560363D-03    7    2    0
 0.813673795729797D+03 0.000000000000000D+00 0.000000000000000D+00 0.813673795729797D+03
 0.813673795729797D+03 0.000000000000000D+00 0.000000000000000D+00 -.813673795729797D+03
 0.487966090663639D+03 -.153067925789545D+03 -.423723394213902D+03 -.139694670363226D+03
 0.707375200077828D+03 0.155130837413075D+03 0.388716070256203D+03 0.570275296408007D+03
 0.432006300718127D+03 -.206291162353000D+01 0.350073239576995D+02 -.430580626044781D+03
 0.000000000000000D+00 -.000000000000000D+00 0.000000000000000D+00 -.000000000000000D+00
 0.822187560062691D+03 0.000000000000000D+00 0.000000000000000D+00 0.822187560062691D+03
 0.107825307806643D+04 0.000000000000000D+00 0.000000000000000D+00 -.107825307806643D+04
 0.501608341084237D+03 -.136622219668838D+03 -.444753522763058D+03 -.139694670363226D+03
 0.697031844304599D+03 0.178470633576735D+03 0.358870047833681D+03 0.570275296408007D+03
 0.431077978044423D+03 0.122806586533021D+02 0.166653248631274D+02 -.430580626044781D+03
 0.270722474695863D+03 -.541290725611996D+02 0.692181500662492D+02 -.256065518003738D+03
0.431249410330D-03 0.000000000000D+00 0.000000000000D+00 0.879028112723D-04 0.000000000000D+00  6 4 1 25 3 2 21 0 0.19577459D+00 0.80041942D-01 0.21212425D+06 0.21212425D+06 0.21212425D+06 0.10958677D+01  1  2  2  2  6  2        1 0.808832954534D-04 0.100000000000D+01
0.191684934539D-03 0.000000000000D+00 -.165611128625D-05 0.879028112723D-04 0.000000000000D+00  6 4 1 25 3 2 21 2 0.19577459D+00 0.80041942D-01 0.21212425D+06 0.21212425D+06 0.21212425D+06 0.10958677D+01  1  2  3  2  6  2        1 0.431752168873D-04 0.100000000000D+01
-.296382520009D-03 0.000000000000D+00 0.000000000000D+00 0.879028112723D-04 0.000000000000D+00  6 4 1 25 3 2 21 2 0.19577459D+00 0.80041942D-01 0.21212425D+06 0.21212425D+06 0.21212425D+06 0.10958677D+01  1  2 15  2  6  2        1 -.667573568772D-04 0.100000000000D+01
-.865940935949D-04 0.000000000000D+00 0.000000000000D+00 0.879028112723D-04 0.000000000000D+00  6 4 1 25 3 2 21 2 0.19577459D+00 0.80041942D-01 0.21212425D+06 0.21212425D+06 0.21212425D+06 0.10958677D+01  1  2  4  2  6  2        1 -.195044998247D-04 0.100000000000D+01
-.719086063321D-02 0.000000000000D+00 -.484959581327D-03 0.879028112723D-04 0.000000000000D+00  6 4 1 25 3 2 21 2 0.19577459D+00 0.10655734D+00 0.21212425D+06 0.21212425D+06 0.21212425D+06 0.10958677D+01  1  2  5  2  6  2        1 -.106826783925D-02 0.100000000000D+01
0.705792125220D-02 0.000000000000D+00 0.465762729091D-03 0.879028112723D-04 0.000000000000D+00  6 4 1 25 3 2 21 2 0.19577459D+00 0.80041942D-01 0.21212425D+06 0.21212425D+06 0.21212425D+06 0.10958677D+01  1  2  6  2  6  2        1 0.158972994706D-02 0.100000000000D+01
-.258505305428D-03 0.000000000000D+00 -.181148972662D-04 0.879028112723D-04 0.000000000000D+00  6 4 21 25 3 2 -1 2 0.19577459D+00 0.10655734D+00 0.21212425D+06 0.21212425D+06 0.21212425D+06 0.10958677D+01  1  2  5  6  6  2        1 -.798027271788D-04 0.100000000000D+01
  </mgrwgt>
  </event>
  <event>
  6     66 0.16530072E-05 0.24342047E+03 0.75467711E-02 0.89878870E-01
       21 -1    0    0  501  503 0.00000000E+00 0.00000000E+00 0.13106205E+04 0.13106207E+04 0.75000000E+00 0.0000E+00 0.9000E+01
        1 -1    0    0  502    0 0.00000000E+00 0.00000000E+00 -.13662995E+04 0.13662995E+04 0.32000000E+00 0.0000E+00 0.9000E+01
       25  1    1    2    0    0 0.21154524E+03 0.72878667E+03 -.16977364E+02 0.76928189E+03 0.12500000E+03 0.0000E+00 0.9000E+01
        3  1    1    2  501    0 0.27568269E+02 -.20844312E+03 0.72794807E+03 0.75770521E+03 0.50000000E+00 0.0000E+00 0.9000E+01
        2  1    1    2  502    0 -.23473297E+03 -.48001844E+03 -.88000610E+03 0.10295281E+04 0.32000000E+00 0.0000E+00 0.9000E+01
       -4  1    1    2    0  503 -.43805357E+01 -.40325113E+02 0.11335636E+03 0.12040503E+03 0.15500000E+01 0.0000E+00 0.9000E+01
#aMCatNLO 2  0  0  1  1 0.40562345D+02 0.00000000D+00  -5  6  0 0.00000000D+00 0.00000000D+00 0.00000000D+00 0.00000000D+00 0.00000000D+00
  <mgrwgt>
 0.1610124697D-03    1    2    0
 0.127529915565793D+04 0.000000000000000D+00 0.000000000000000D+00 0.127529915565793D+04
 0.127529915565793D+04 0.000000000000000D+00 0.000000000000000D+00 -.127529915565793D+04
 0.758135892827214D+03 0.210281187208112D+03 0.716770580468696D+03 0.341582972911838D+02
 0.810782901530318D+03 0.261729301235210D+02 -.221190352000153D+03 0.779588814263468D+03
 0.981679516958337D+03 -.236454117331633D+03 -.495580228468543D+03 -.813747111554651D+03
 0.000000000000000D+00 -.000000000000000D+00 -.000000000000000D+00 0.000000000000000D+00
 0.140033735587803D+04 0.000000000000000D+00 0.000000000000000D+00 0.140033735587803D+04
 0.127875426219468D+04 0.000000000000000D+00 0.000000000000000D+00 -.127875426219468D+04
 0.769925090298690D+03 0.211593291618986D+03 0.728849184906902D+03 0.341582972911838D+02
 0.807433339671920D+03 0.275624484027495D+02 -.208399112587064D+03 0.779588814263468D+03
 0.973562393871527D+03 -.234775204275247D+03 -.480124959416646D+03 -.813747111554651D+03
 0.128170794230575D+03 -.438053574648926D+01 -.403251129031916D+02 0.121583093683353D+03
0.174882994223D-03 0.000000000000D+00 0.000000000000D+00 0.155001156255D-05 0.869762345273D-10  6 21 1 25 3 2 -4 2 0.20163320D+00 0.21019918D+00 0.60403644D+06 0.60403644D+06 0.60403644D+06 0.10627564D+01  1  2  1  5  6  1        4 0.161012469712D-03 0.100000000000D+01
  </mgrwgt>
  </event>
  <event>
  5     66 0.16530072E-05 0.72709317E+02 0.75467711E-02 0.95391050E-01
        4 -1    0    0  501    0 0.00000000E+00 0.00000000E+00 0.66178593E+03 0.66178774E+03 0.15500000E+01 0.0000E+00 0.9000E+01
        1 -1    0    0  502    0 -.00000000E+00 -.00000000E+00 -.26241651E+04 0.26241651E+04 0.32000000E+00 0.0000E+00 0.9000E+01
       25  1    1    2    0    0 0.40384400E+03 -.20362212E+03 0.24197413E+03 0.52794736E+03 0.12500000E+03 0.0000E+00 0.9000E+01
        3  1    1    2  501    0 -.33124175E+03 0.20730331E+03 0.13808188E+03 0.41444254E+03 0.50000000E+00 0.0000E+00 0.9000E+01
        2  1    1    2  502    0 -.72602252E+02 -.36811972E+01 -.23424352E+04 0.23435630E+04 0.32000000E+00 0.0000E+00 0.9000E+01
#aMCatNLO 1  0  0  5  4 0.42243755D+02 0.00000000D+00  -5  6  0 0.00000000D+00 0.00000000D+00 0.00000000D+00 0.00000000D+00 0.00000000D+00
  <mgrwgt>
 0.9269488331D-04    6    2    0
 0.131781582845511D+04 0.000000000000000D+00 0.000000000000000D+00 0.131781582845511D+04
 0.131781582845511D+04 -.000000000000000D+00 -.000000000000000D+00 -.131781582845511D+04
 0.838540563497848D+03 0.403720282218525D+03 -.203535561789484D+03 0.695060058875290D+03
 0.619255463020189D+03 -.331104238054151D+03 0.207217255601305D+03 0.480529209314057D+03
 0.117783563039219D+04 -.726160441643729D+02 -.368169381182101D+01 -.117558926818935D+04
 0.000000000000000D+00 0.000000000000000D+00 -.000000000000000D+00 0.000000000000000D+00
 0.131781582845511D+04 0.000000000000000D+00 0.000000000000000D+00 0.131781582845511D+04
 0.131781582845511D+04 -.000000000000000D+00 -.000000000000000D+00 -.131781582845511D+04
 0.835858863382262D+03 0.403527077135737D+03 -.203545357447812D+03 0.691932240161143D+03
 0.617538501080033D+03 -.331246948853252D+03 0.207210020045142D+03 0.478218848211232D+03
 0.107880145481855D+04 -.262072191664693D+02 0.919708270711852D+01 -.107844386699163D+04
 0.103432837629378D+03 -.460729091160146D+02 -.128617453044486D+02 -.917072213807410D+02
0.628794701174D-03 0.000000000000D+00 0.000000000000D+00 0.104383449246D-03 0.000000000000D+00  6 4 1 25 3 2 21 0 0.10181336D+00 0.40371785D+00 0.21734070D+06 0.21734070D+06 0.21734070D+06 0.10950627D+01  1  2  2  4  6  5        2 0.272109222662D-04 0.100000000000D+01
0.204725158379D-03 0.000000000000D+00 -.241473721795D-05 0.104383449246D-03 0.000000000000D+00  6 4 1 25 3 2 21 2 0.10181336D+00 0.40371785D+00 0.21734070D+06 0.21734070D+06 0.21734070D+06 0.10950627D+01  1  2  3  4  6  5        2 0.106238899459D-04 0.100000000000D+01
-.445680945789D-03 0.000000000000D+00 0.000000000000D+00 0.104383449246D-03 0.000000000000D+00  6 4 1 25 3 2 21 2 0.10181336D+00 0.40371785D+00 0.21734070D+06 0.21734070D+06 0.21734070D+06 0.10950627D+01  1  2 15  4  6  5        2 -.231279113742D-04 0.100000000000D+01
-.273797725007D-03 0.000000000000D+00 0.000000000000D+00 0.104383449246D-03 0.000000000000D+00  6 4 1 25 3 2 21 2 0.10181336D+00 0.40371785D+00 0.21734070D+06 0.21734070D+06 0.21734070D+06 0.10950627D+01  1  2  4  4  6  5        2 -.142083021010D-04 0.100000000000D+01
-.193839368991D-01 0.000000000000D+00 0.000000000000D+00 0.104383449246D-03 0.000000000000D+00  6 4 1 25 3 2 21 2 0.10181336D+00 0.40371785D+00 0.21734070D+06 0.21734070D+06 0.21734070D+06 0.10950627D+01  1  2  5  4  6  5        2 -.100589890352D-02 0.100000000000D+01
0.211605835942D-01 0.000000000000D+00 -.000000000000D+00 0.104383449246D-03 0.000000000000D+00  6 4 1 25 3 2 21 2 0.10181336D+00 0.40371785D+00 0.21734070D+06 0.21734070D+06 0.21734070D+06 0.10950627D+01  1  2  6  4  6  5        2 0.109809518809D-02 0.100000000000D+01
  </mgrwgt>
  </event>
  <event>
  5     66 -.16530072E-05 0.13456589E+02 0.75467711E-02 0.93951478E-01
        4 -1    0    0  501    0 0.00000000E+00 0.00000000E+00 0.28108904E+03 0.28109331E+03 0.15500000E+01 0.0000E+00 0.9000E+01
        1 -1    0    0  502    0 -.00000000E+00 -.00000000E+00 -.11833109E+04 0.11833109E+04 0.32000000E+00 0.0000E+00 0.9000E+01
       25  1    1    2    0    0 0.23193270E+03 -.46331773E+03 -.59515522E+03 0.79893105E+03 0.12500000E+03 0.0000E+00 0.9000E+01
        3  1    1    2  501    0 -.21906115E+03 0.46726111E+03 -.19355637E+03 0.55116699E+03 0.50000000E+00 0.0000E+00 0.9000E+01
        2  1    1    2  502    0 -.12871547E+02 -.39433842E+01 -.11351025E+03 0.11430619E+03 0.32000000E+00 0.0000E+00 0.9000E+01
#aMCatNLO 1  0  0  4  1 0.37923430D+02 0.00000000D+00  -5  6  0 0.00000000D+00 0.00000000D+00 0.00000000D+00 0.00000000D+00 0.00000000D+00
  <mgrwgt>
 -.3822536662D-02    6    2    0
 0.576731202779434D+03 0.000000000000000D+00 0.000000000000000D+00 0.576731202779434D+03
 0.576731202779434D+03 -.000000000000000D+00 -.000000000000000D+00 -.576731202779434D+03
 0.548801169503571D+03 0.231933440500890D+03 -.463332225738408D+03 -.130720508789555D+03
 0.548363822332974D+03 -.219066979003413D+03 0.467273539727390D+03 0.185386028126671D+03
 0.562974137223228D+02 -.128664614974776D+02 -.394131398898133D+01 -.546655193371156D+02
 0.000000000000000D+00 0.000000000000000D+00 0.000000000000000D+00 0.000000000000000D+00
 0.576731202779434D+03 0.000000000000000D+00 0.000000000000000D+00 0.576731202779434D+03
 0.576731202779434D+03 -.000000000000000D+00 -.000000000000000D+00 -.576731202779434D+03
 0.548370943333744D+03 0.231756024234713D+03 -.462953793867576D+03 -.130570369790692D+03
 0.357948323022737D+03 -.147580106161646D+03 0.308119866819715D+03 0.106814146493372D+03
 0.562839133669043D+02 -.128846662608505D+02 -.390248292343319D+01 -.546501135064878D+02
 0.190859225835482D+03 -.712912518122167D+02 0.158736409971294D+03 0.784063368038080D+02
0.992936930631D-05 0.000000000000D+00 0.000000000000D+00 0.106144837858D-05 0.000000000000D+00  6 4 1 25 3 2 21 0 0.43244800D-01 0.18204816D+00 0.28224704D+06 0.28224704D+06 0.28224704D+06 0.10865173D+01  1  2  2  3  6  4        3 0.327080041968D-04 0.100000000000D+01
0.457643083592D-05 0.000000000000D+00 -.381313925992D-07 0.106144837858D-05 0.000000000000D+00  6 4 1 25 3 2 21 2 0.43244800D-01 0.18204816D+00 0.28224704D+06 0.28224704D+06 0.28224704D+06 0.10865173D+01  1  2  3  3  6  4        3 0.177964173242D-04 0.100000000000D+01
-.602508783845D-05 0.000000000000D+00 0.000000000000D+00 0.106144837858D-05 0.000000000000D+00  6 4 1 25 3 2 21 2 0.43244800D-01 0.18204816D+00 0.28224704D+06 0.28224704D+06 0.28224704D+06 0.10865173D+01  1  2 15  3  6  4        3 -.234298258692D-04 0.100000000000D+01
-.130727902177D-02 0.000000000000D+00 0.000000000000D+00 0.106144837858D-05 0.000000000000D+00  6 4 1 25 3 2 21 2 0.43244800D-01 0.18204816D+00 0.28224704D+06 0.28224704D+06 0.28224704D+06 0.10865173D+01  1  2  4  3  6  4        3 -.508363042398D-02 0.100000000000D+01
-.786504771761D-03 0.000000000000D+00 0.000000000000D+00 0.106144837858D-05 0.000000000000D+00  6 4 1 25 3 2 21 2 0.43244800D-01 0.18204816D+00 0.28224704D+06 0.28224704D+06 0.28224704D+06 0.10865173D+01  1  2  5  3  6  4        3 -.305848982484D-02 0.100000000000D+01
0.110383849462D-02 0.000000000000D+00 -.000000000000D+00 0.106144837858D-05 0.000000000000D+00  6 4 1 25 3 2 21 2 0.43244800D-01 0.18204816D+00 0.28224704D+06 0.28224704D+06 0.28224704D+06 0.10865173D+01  1  2  6  3  6  4        3 0.429250899078D-02 0.100000000000D+01
  </mgrwgt>
  </event>
  <event>
  5     66 0.16530072E-05 0.36256321E+02 0.75467711E-02 0.88798854E-01
        4 -1    0    0  501    0 0.00000000E+00 0.00000000E+00 0.29204621E+03 0.29205033E+03 0.15500000E+01 0.0000E+00 0.9000E+01
        1 -1    0    0  502    0 0.00000000E+00 0.00000000E+00 -.22092544E+04 0.22092544E+04 0.32000000E+00 0.0000E+00 0.9000E+01
       25  1    1    2    0    0 -.28386847E+03 0.36497827E+03 -.72269670E+03 0.86700978E+03 0.12500000E+03 0.0000E+00 0.9000E+01
        3  1    1    2  501    0 0.67641474E+01 0.35633152E+02 0.17604853E+03 0.17974652E+03 0.50000000E+00 0.0000E+00 0.9000E+01
        2  1    1    2  502    0 0.27710432E+03 -.40061142E+03 -.13705600E+04 0.14545484E+04 0.32000000E+00 0.0000E+00 0.9000E+01
#aMCatNLO 1  0  0  2  5 0.43964797D+02 0.00000000D+00  -5  6  0 0.00000000D+00 0.00000000D+00 0.00000000D+00 0.00000000D+00 0.00000000D+00
  <mgrwgt>
 0.4318811171D-02    5    2    0
 0.803249368921745D+03 0.000000000000000D+00 0.000000000000000D+00 0.803249368921745D+03
 0.803249368921745D+03 0.000000000000000D+00 0.000000000000000D+00 -.803249368921745D+03
 0.487573628531178D+03 -.283948816678074D+03 0.365100095376531D+03 -.904324781382676D+02
 0.489783465001922D+03 0.676169329705087D+01 0.356202233838617D+02 0.488439680799103D+03
 0.629141644310390D+03 0.277187123381023D+03 -.400720318760393D+03 -.398007202660836D+03
 0.000000000000000D+00 0.000000000000000D+00 -.000000000000000D+00 -.000000000000000D+00
 0.929940400512524D+03 0.000000000000000D+00 0.000000000000000D+00 0.929940400512524D+03
 0.185371511139312D+04 0.000000000000000D+00 0.000000000000000D+00 -.185371511139312D+04
 0.675447902051871D+03 -.433324247561282D+03 0.494628074172397D+03 -.904324781382676D+02
 0.525317017169144D+03 -.123615146620985D+03 0.148673946185030D+03 0.488439680799103D+03
 0.501352394983861D+03 0.131989438050279D+03 -.274814990183072D+03 -.398007202660836D+03
 0.108153819770077D+04 0.424949956131989D+03 -.368487030174355D+03 -.923774710880594D+03
0.798127586238D-02 0.000000000000D+00 0.000000000000D+00 0.314305460959D-04 0.000000000000D+00  6 4 1 25 3 2 21 0 0.44930505D-01 0.33988561D+00 0.25131018D+06 0.25131018D+06 0.25131018D+06 0.10902884D+01  1  2  2  2  6  2        1 0.494886049478D-02 0.100000000000D+01
0.395347551049D-02 0.000000000000D+00 -.306502008297D-04 0.314305460959D-04 0.000000000000D+00  6 4 1 25 3 2 21 2 0.44930505D-01 0.33988561D+00 0.25131018D+06 0.25131018D+06 0.25131018D+06 0.10902884D+01  1  2  3  2  6  2        1 0.291403459614D-02 0.100000000000D+01
-.479447477528D-02 0.000000000000D+00 0.000000000000D+00 0.314305460959D-04 0.000000000000D+00  6 4 1 25 3 2 21 2 0.44930505D-01 0.33988561D+00 0.25131018D+06 0.25131018D+06 0.25131018D+06 0.10902884D+01  1  2 15  2  6  2        1 -.353391979497D-02 0.100000000000D+01
-.761112338032D-02 0.000000000000D+00 -.371940887491D-02 0.314305460959D-04 0.000000000000D+00  6 4 1 25 3 2 21 2 0.44930505D-01 0.79359581D+00 0.25131018D+06 0.25131018D+06 0.25131018D+06 0.10902884D+01  1  2  5  2  6  2        1 -.101439153432D-04 0.100000000000D+01
-.468596956789D-03 0.000000000000D+00 -.343839634504D-03 0.314305460959D-04 0.000000000000D+00  6 4 21 25 3 2 -1 2 0.44930505D-01 0.79359581D+00 0.25131018D+06 0.25131018D+06 0.25131018D+06 0.10902884D+01  1  2  5  6  6  2        1 -.202094551763D-07 0.100000000000D+01
  </mgrwgt>
  </event>
  <event>
  5     66 0.16530072E-05 0.23486027E+02 0.75467711E-02 0.91153459E-01
        4 -1    0    0  501    0 0.00000000E+00 0.00000000E+00 0.49828706E+03 0.49828947E+03 0.15500000E+01 0.0000E+00 0.9000E+01
        1 -1    0    0  502    0 -.00000000E+00 -.00000000E+00 -.29334566E+04 0.29334567E+04 0.32000000E+00 0.0000E+00 0.9000E+01
       25  1    1    2    0    0 -.38969296E+03 -.35397186E+03 -.22912385E+03 0.58760482E+03 0.12500000E+03 0.0000E+00 0.9000E+01
        3  1    1    2  501    0 0.17536602E+02 -.15632252E+02 0.29133227E+03 0.29227836E+03 0.50000000E+00 0.0000E+00 0.9000E+01
        2  1    1    2  502    0 0.37215636E+03 0.36960411E+03 -.24973780E+04 0.25518630E+04 0.32000000E+00 0.0000E+00 0.9000E+01
#aMCatNLO 1  0  0  4  1 0.54323976D+02 0.00000000D+00  -5  6  0 0.00000000D+00 0.00000000D+00 0.00000000D+00 0.00000000D+00 0.00000000D+00
  <mgrwgt>
 0.3921941299D-02    6    2    0
 0.120901102224784D+04 0.000000000000000D+00 0.000000000000000D+00 0.120901102224784D+04
 0.120901102224784D+04 -.000000000000000D+00 -.000000000000000D+00 -.120901102224784D+04
 0.603369028706816D+03 -.389763218301371D+03 -.354048744193750D+03 0.266764512626388D+03
 0.708013791945370D+03 0.175317358625945D+02 -.156279138251421D+02 0.707624148918039D+03
 0.110663922384349D+04 0.372231482438777D+03 0.369676658018891D+03 -.974388661544427D+03
 0.000000000000000D+00 0.000000000000000D+00 0.000000000000000D+00 0.000000000000000D+00
 0.120901102224784D+04 0.000000000000000D+00 0.000000000000000D+00 0.120901102224784D+04
 0.120901102224784D+04 -.000000000000000D+00 -.000000000000000D+00 -.120901102224784D+04
 0.611213987851519D+03 -.389331870428365D+03 -.354433250750364D+03 0.284174777868546D+03
 0.360326238613960D+03 -.133939425809962D+03 -.666457241367247D+02 0.327801122483853D+03
 0.107918470868072D+04 0.373007757498781D+03 0.368984680918766D+03 -.943056283338005D+03
 0.367297109349482D+03 0.150263538739547D+03 0.520942939683215D+02 0.331080382985607D+03
0.411270779195D-01 0.000000000000D+00 0.000000000000D+00 0.369929043329D-03 0.000000000000D+00  6 4 1 25 3 2 21 0 0.76659734D-01 0.45130121D+00 0.29663891D+06 0.29663891D+06 0.29663891D+06 0.10849141D+01  1  2  2  3  6  4        3 0.222919456156D-02 0.100000000000D+01
0.289114928424D-01 0.000000000000D+00 -.157938808219D-03 0.369929043329D-03 0.000000000000D+00  6 4 1 25 3 2 21 2 0.76659734D-01 0.45130121D+00 0.29663891D+06 0.29663891D+06 0.29663891D+06 0.10849141D+01  1  2  3  3  6  4        3 0.184451129308D-02 0.100000000000D+01
-.260724664542D-01 0.000000000000D+00 0.000000000000D+00 0.369929043329D-03 0.000000000000D+00  6 4 1 25 3 2 21 2 0.76659734D-01 0.45130121D+00 0.29663891D+06 0.29663891D+06 0.29663891D+06 0.10849141D+01  1  2 15  3  6  4        3 -.166338552891D-02 0.100000000000D+01
-.950784479434D-03 0.000000000000D+00 0.000000000000D+00 0.369929043329D-03 0.000000000000D+00  6 4 1 25 3 2 21 2 0.76659734D-01 0.45130121D+00 0.29663891D+06 0.29663891D+06 0.29663891D+06 0.10849141D+01  1  2  4  3  6  4        3 -.606586702098D-04 0.100000000000D+01
-.394988170735D-01 0.000000000000D+00 0.000000000000D+00 0.369929043329D-03 0.000000000000D+00  6 4 1 25 3 2 21 2 0.76659734D-01 0.45130121D+00 0.29663891D+06 0.29663891D+06 0.29663891D+06 0.10849141D+01  1  2  5  3  6  4        3 -.251996721693D-02 0.100000000000D+01
0.641432591198D-01 0.000000000000D+00 -.000000000000D+00 0.369929043329D-03 0.000000000000D+00  6 4 1 25 3 2 21 2 0.76659734D-01 0.45130121D+00 0.29663891D+06 0.29663891D+06 0.29663891D+06 0.10849141D+01  1  2  6  3  6  4        3 0.409224686066D-02 0.100000000000D+01
  </mgrwgt>
  </event>
  <event>
  5     66 0.16530072E-05 0.11174091E+03 0.75467711E-02 0.93768245E-01
        4 -1    0    0  501    0 0.00000000E+00 0.00000000E+00 0.17246562E+03 0.17247258E+03 0.15500000E+01 0.0000E+00 0.9000E+01
        1 -1    0    0  502    0 -.00000000E+00 -.00000000E+00 -.26736026E+04 0.26736026E+04 0.32000000E+00 0.0000E+00 0.9000E+01
       25  1    1    2    0    0 0.49674931E+03 -.19089293E+03 -.12662577E+04 0.13792149E+04 0.12500000E+03 0.0000E+00 0.9000E+01
        3  1    1    2  501    0 -.38945655E+03 0.15982940E+03 -.28027484E+03 0.50574310E+03 0.50000000E+00 0.0000E+00 0.9000E+01
        2  1    1    2  502    0 -.10729276E+03 0.31063537E+02 -.95460439E+03 0.96111723E+03 0.32000000E+00 0.0000E+00 0.9000E+01
#aMCatNLO 1  0  0  4  1 0.54323976D+02 0.00000000D+00  -5  6  0 0.00000000D+00 0.00000000D+00 0.00000000D+00 0.00000000D+00 0.00000000D+00
  <mgrwgt>
 0.2756942424D-03    1    2    0
 0.679054092467892D+03 0.000000000000000D+00 0.000000000000000D+00 0.679054092467892D+03
 0.679054092467892D+03 -.000000000000000D+00 -.000000000000000D+00 -.679054092467892D+03
 0.558279129269259D+03 0.496737409927585D+03 -.190884266889709D+03 -.113427194314481D+03
 0.543608052638671D+03 -.389404728582569D+03 0.159808128222042D+03 0.343998596516484D+03
 0.256221003027855D+03 -.107332681345015D+03 0.310761386676673D+02 -.230571402202002D+03
 0.000000000000000D+00 0.000000000000000D+00 0.000000000000000D+00 -.000000000000000D+00
 0.679054092467892D+03 0.000000000000000D+00 0.000000000000000D+00 0.679054092467892D+03
 0.679054092467892D+03 -.000000000000000D+00 -.000000000000000D+00 -.679054092467892D+03
 0.487727554841041D+03 0.436934309375163D+03 -.166341623054991D+03 -.605973719025921D+02
 0.241847463048349D+03 -.784387213030836D+01 -.111194145013375D+03 0.214626492231668D+03
 0.249885698038946D+03 -.136268203836342D+03 0.429510116444223D+02 -.205009876119052D+03
 0.378647469007450D+03 -.292822233408513D+03 0.234584756423943D+03 0.509807557899757D+02
0.266928138704D-03 0.000000000000D+00 0.000000000000D+00 0.605929896543D-06 0.000000000000D+00  6 4 1 25 3 2 21 2 0.26533709D-01 0.41132401D+00 0.29122060D+06 0.29122060D+06 0.29122060D+06 0.10855075D+01  1  2 14  3  6  4        3 0.275694242370D-03 0.100000000000D+01
  </mgrwgt>
  </event>
  <event>
  5     66 0.16530072E-05 0.49948150E+02 0.75467711E-02 0.92576572E-01
        4 -1    0    0  501    0 0.00000000E+00 0.00000000E+00 0.22130057E+03 0.22130600E+03 0.15500000E+01 0.0000E+00 0.9000E+01
        1 -1    0    0  502    0 -.00000000E+00 -.00000000E+00 -.20983060E+04 0.20983061E+04 0.32000000E+00 0.0000E+00 0.9000E+01
       25  1    1    2    0    0 -.44984723E+03 -.40323187E+03 -.67225860E+03 0.91242265E+03 0.12500000E+03 0.0000E+00 0.9000E+01
        3  1    1    2  501    0 0.41080242E+03 0.37210775E+03 -.66750648E+03 0.86763354E+03 0.50000000E+00 0.0000E+00 0.9000E+01
        2  1    1    2  502    0 0.39044805E+02 0.31124117E+02 -.53724039E+03 0.53955588E+03 0.32000000E+00 0.0000E+00 0.9000E+01
#aMCatNLO 1  0  0  4  2 0.12304734D+03 0.00000000D+00  -5  6  0 0.00000000D+00 0.00000000D+00 0.00000000D+00 0.00000000D+00 0.00000000D+00
  <mgrwgt>
 0.1360676789D-03    4    2    0
 0.681441601483506D+03 0.000000000000000D+00 0.000000000000000D+00 0.681441601483506D+03
 0.681441601483506D+03 -.000000000000000D+00 -.000000000000000D+00 -.681441601483506D+03
 0.627049979673280D+03 -.449813163366688D+03 -.403199827292634D+03 0.112537524148630D+03
 0.557328364480759D+03 0.410755835214119D+03 0.372065555974468D+03 0.588368230767029D+02
 0.178504858812974D+03 0.390573281525690D+02 0.311342713181665D+02 -.171374347225333D+03
 0.000000000000000D+00 0.000000000000000D+00 -.000000000000000D+00 0.000000000000000D+00
 0.681441601483506D+03 0.000000000000000D+00 0.000000000000000D+00 0.681441601483506D+03
 0.681441601483506D+03 -.000000000000000D+00 -.000000000000000D+00 -.681441601483506D+03
 0.562921475289633D+03 -.399089464962145D+03 -.357253940636808D+03 0.119803206125536D+03
 0.520395679945171D+03 0.363626051834014D+03 0.371503965430597D+03 -.239282636759469D+02
 0.183356523133042D+03 0.544820238673521D+02 0.451060703648341D+02 -.169164907906450D+03
 0.962095245991658D+02 -.190186107392203D+02 -.593560951586238D+02 0.732899654568611D+02
0.276885635361D-03 0.000000000000D+00 0.000000000000D+00 0.310293234785D-06 0.000000000000D+00  6 4 1 25 3 2 21 0 0.34046662D-01 0.32281673D+00 0.37272907D+06 0.37272907D+06 0.37272907D+06 0.10776454D+01  1  2  2  3  6  4        3 0.361718694117D-03 0.100000000000D+01
0.701399106396D-04 0.000000000000D+00 -.106331374545D-05 0.310293234785D-06 0.000000000000D+00  6 4 1 25 3 2 21 2 0.34046662D-01 0.32281673D+00 0.37272907D+06 0.37272907D+06 0.37272907D+06 0.10776454D+01  1  2  3  3  6  4        3 0.106411230017D-03 0.100000000000D+01
-.163920242454D-03 0.000000000000D+00 0.000000000000D+00 0.310293234785D-06 0.000000000000D+00  6 4 1 25 3 2 21 2 0.34046662D-01 0.32281673D+00 0.37272907D+06 0.37272907D+06 0.37272907D+06 0.10776454D+01  1  2 15  3  6  4        3 -.248688007516D-03 0.100000000000D+01
-.549553048504D-04 0.000000000000D+00 0.000000000000D+00 0.310293234785D-06 0.000000000000D+00  6 4 1 25 3 2 21 2 0.34046662D-01 0.32281673D+00 0.37272907D+06 0.37272907D+06 0.37272907D+06 0.10776454D+01  1  2  4  3  6  4        3 -.833742377454D-04 0.100000000000D+01
  </mgrwgt>
  </event>
  <event>
  6     66 0.16530072E-05 0.17739578E+03 0.75467711E-02 0.94465840E-01
        4 -1    0    0  501    0 0.00000000E+00 0.00000000E+00 0.41569217E+03 0.41569506E+03 0.15500000E+01 0.0000E+00 0.9000E+01
        1 -1    0    0  502    0 -.00000000E+00 -.00000000E+00 -.29973713E+04 0.29973713E+04 0.32000000E+00 0.0000E+00 0.9000E+01
       25  1    1    2    0    0 -.45918690E+03 -.16985843E+03 -.24622751E+03 0.56210096E+03 0.12500000E+03 0.0000E+00 0.9000E+01
        3  1    1    2  501    0 0.18002161E+01 -.11111989E+02 0.22698849E+03 0.22726799E+03 0.50000000E+00 0.0000E+00 0.9000E+01
        2  1    1    2  503    0 0.30391425E+03 0.81724204E+02 -.94638706E+03 0.99734212E+03 0.32000000E+00 0.0000E+00 0.9000E+01
       21  1    1    2  502  503 0.15347243E+03 0.99246213E+02 -.16160530E+04 0.16263553E+04 0.75000000E+00 0.0000E+00 0.9000E+01
#aMCatNLO 2  0  0  5  2 0.13518758D+03 0.00000000D+00  -5  6  0 0.00000000D+00 0.00000000D+00 0.00000000D+00 0.00000000D+00 0.00000000D+00
  <mgrwgt>
 0.6047125651D-02    1    2    0
 0.111623865930701D+04 0.000000000000000D+00 0.000000000000000D+00 0.111623865930701D+04
 0.111623865930701D+04 -.000000000000000D+00 -.000000000000000D+00 -.111623865930701D+04
 0.582781089348845D+03 -.463625515537866D+03 -.171617446135479D+03 0.282148244061186D+03
 0.618713845861700D+03 -.281609040362755D+01 -.129348857813036D+02 0.618572211973378D+03
 0.103098238340348D+04 0.466441605941494D+03 0.184552331916783D+03 -.900720456034564D+03
 0.000000000000000D+00 0.000000000000000D+00 0.000000000000000D+00 -.000000000000000D+00
 0.111623865930701D+04 0.000000000000000D+00 0.000000000000000D+00 0.111623865930701D+04
 0.111623865930701D+04 -.000000000000000D+00 -.000000000000000D+00 -.111623865930701D+04
 0.574773091189931D+03 -.459276592978814D+03 -.169896751005853D+03 0.273750272137687D+03
 0.609763551318573D+03 0.179929015972215D+01 -.111087638513563D+02 0.609659697238758D+03
 0.430008133612113D+03 0.303757182332392D+03 0.816708456092560D+02 -.293203755316209D+03
 0.617932542493405D+03 0.153720120486700D+03 0.993346692479535D+02 -.590206214060236D+03
0.662462716007D-01 0.000000000000D+00 0.000000000000D+00 0.368918508944D-03 0.816787127707D-07  6 4 1 25 3 2 21 2 0.63952865D-01 0.46113427D+00 0.25715896D+06 0.25715896D+06 0.25715896D+06 0.10895379D+01  1  2  1  4  6  5        2 0.604712565056D-02 0.100000000000D+01
  </mgrwgt>
  </event>
  <event>
  6     66 0.16530072E-05 0.47995728E+02 0.75467711E-02 0.94347082E-01
        4 -1    0    0  501    0 0.00000000E+00 0.00000000E+00 0.38441170E+03 0.38441483E+03 0.15500000E+01 0.0000E+00 0.9000E+01
        1 -1    0    0  503    0 0.00000000E+00 0.00000000E+00 -.23056085E+04 0.23056086E+04 0.32000000E+00 0.0000E+00 0.9000E+01
       25  1    1    2    0    0 -.61136739E+02 0.49405251E+03 -.11592720E+03 0.52620310E+03 0.12500000E+03 0.0000E+00 0.9000E+01
        3  1    1    2  501    0 0.38267676E+02 -.35084410E+02 0.14688005E+03 0.15578616E+03 0.50000000E+00 0.0000E+00 0.9000E+01
        2  1    1    2  502    0 0.21730571E+02 -.45129450E+03 -.18053836E+04 0.18610613E+04 0.32000000E+00 0.0000E+00 0.9000E+01
       21  1    1    2  503  502 0.11384916E+01 -.76736069E+01 -.14676604E+03 0.14697284E+03 0.75000000E+00 0.0000E+00 0.9000E+01
#aMCatNLO 2  0  0  2  5 0.77576031D+01 0.00000000D+00  -5  6  0 0.00000000D+00 0.00000000D+00 0.00000000D+00 0.00000000D+00 0.00000000D+00
  <mgrwgt>
 0.6051297048D-02    5    2    0
 0.910829471890752D+03 0.000000000000000D+00 0.000000000000000D+00 0.910829471890752D+03
 0.910829471890752D+03 0.000000000000000D+00 0.000000000000000D+00 -.910829471890752D+03
 0.619775576754341D+03 -.607287369294309D+02 0.491536222426887D+03 0.350999897570410D+03
 0.360430005354320D+03 0.384618873950618D+02 -.365739070309012D+02 0.356500801264485D+03
 0.841453361672842D+03 0.222668495343691D+02 -.454962315395986D+03 -.707500698834895D+03
 0.000000000000000D+00 0.000000000000000D+00 -.000000000000000D+00 -.000000000000000D+00
 0.911080526039292D+03 0.000000000000000D+00 0.000000000000000D+00 0.911080526039292D+03
 0.972803959706979D+03 0.000000000000000D+00 0.000000000000000D+00 -.972803959706979D+03
 0.621889711413277D+03 -.611167401410266D+02 0.494151423292279D+03 0.350999897570410D+03
 0.360255170895967D+03 0.382366832554283D+02 -.350559967578464D+02 0.356500801264485D+03
 0.839530579419499D+03 0.217415653261367D+02 -.451421819660664D+03 -.707500698834895D+03
 0.622090240175285D+02 0.113849155946166D+01 -.767360687376918D+01 -.617234336676866D+02
-.266303039861D-01 0.000000000000D+00 0.000000000000D+00 0.385066910320D-04 0.000000000000D+00  6 4 1 25 3 2 21 2 0.59124061D-01 0.35534692D+00 0.26262776D+06 0.26262776D+06 0.26262776D+06 0.10888528D+01  1  2 13  2  6  2        1 -.895614560052D-02 0.100000000000D+01
-.138157509190D-01 0.000000000000D+00 0.000000000000D+00 0.385066910320D-04 0.000000000000D+00  6 4 1 25 3 2 21 2 0.59124061D-01 0.33211094D+00 0.25978701D+06 0.25978701D+06 0.25978701D+06 0.10892067D+01  1  2  8  2  6  2        1 -.588128651095D-02 0.100000000000D+01
-.867006560378D-02 0.000000000000D+00 0.000000000000D+00 0.385066910320D-04 0.000000000000D+00  6 4 1 25 3 2 21 2 0.59124061D-01 0.35473896D+00 0.25978701D+06 0.25978701D+06 0.25978701D+06 0.10892067D+01  1  2  9  2  6  2        1 -.293743975025D-02 0.100000000000D+01
0.865126590428D-02 0.000000000000D+00 0.000000000000D+00 0.385066910320D-04 0.000000000000D+00  6 4 1 25 3 2 21 2 0.59124061D-01 0.33211094D+00 0.25978701D+06 0.25978701D+06 0.25978701D+06 0.10892067D+01  1  2 10  2  6  2        1 0.368279464243D-02 0.100000000000D+01
0.595461073186D-01 0.000000000000D+00 0.000000000000D+00 0.385066910320D-04 0.688019782858D-05  6 4 1 25 3 2 21 2 0.59140357D-01 0.35470837D+00 0.26262776D+06 0.26262776D+06 0.26262776D+06 0.10888528D+01  1  2  1  2  6  2        1 0.201433742668D-01 0.100000000000D+01
  </mgrwgt>
  </event>
  <event>
  5     66 0.16530072E-05 0.25772135E+02 0.75467711E-02 0.92375203E-01
        4 -1    0    0  501    0 0.00000000E+00 0.00000000E+00 0.74623550E+03 0.74623711E+03 0.15500000E+01 0.0000E+00 0.9000E+01
        1 -1    0    0  502    0 -.00000000E+00 -.00000000E+00 -.11325739E+04 0.11325739E+04 0.32000000E+00 0.0000E+00 0.9000E+01
       25  1    1    2    0    0 0.41684371E+03 0.41982697E+03 -.15717421E+03 0.62477363E+03 0.12500000E+03 0.0000E+00 0.9000E+01
        3  1    1    2  501    0 -.88457292E+01 -.24218464E+02 0.40308857E+03 0.40391265E+03 0.50000000E+00 0.0000E+00 0.9000E+01
        2  1    1    2  502    0 -.40799798E+03 -.39560850E+03 -.63225272E+03 0.85012472E+03 0.32000000E+00 0.0000E+00 0.9000E+01
#aMCatNLO 1  0  0  4  4 0.22792678D+02 0.00000000D+00  -5  6  0 0.00000000D+00 0.00000000D+00 0.00000000D+00 0.00000000D+00 0.00000000D+00
  <mgrwgt>
 0.2850275247D-02    6    2    0
 0.919330388472387D+03 0.000000000000000D+00 0.000000000000000D+00 0.919330388472387D+03
 0.919330388472387D+03 -.000000000000000D+00 -.000000000000000D+00 -.919330388472387D+03
 0.605523915624800D+03 0.416948616890737D+03 0.419925320718135D+03 -.291682753391717D+02
 0.497212967353034D+03 -.884188322708026D+01 -.242079339560762D+02 0.496544592094795D+03
 0.735923893966940D+03 -.408106733663657D+03 -.395717386762059D+03 -.467376316755623D+03
 0.000000000000000D+00 -.000000000000000D+00 0.000000000000000D+00 0.000000000000000D+00
 0.919330388472387D+03 0.000000000000000D+00 0.000000000000000D+00 0.919330388472387D+03
 0.919330388472387D+03 -.000000000000000D+00 -.000000000000000D+00 -.919330388472387D+03
 0.605454782124335D+03 0.416935469625056D+03 0.419889325203249D+03 -.284299480499100D+02
 0.184447454267004D+03 0.461331327764555D+01 0.124474777599403D+02 0.183969130626843D+03
 0.735386914909633D+03 -.408122707284118D+03 -.395761120471183D+03 -.466479266358949D+03
 0.313371625643802D+03 -.134260756185830D+02 -.365756824920059D+02 0.310940083782016D+03
0.774516028803D-03 0.000000000000D+00 0.000000000000D+00 0.334974245007D-04 0.000000000000D+00  6 4 1 25 3 2 21 0 0.11480559D+00 0.17424226D+00 0.35943030D+06 0.35943030D+06 0.35943030D+06 0.10787919D+01  1  2  2  3  6  4        3 0.238333023986D-03 0.100000000000D+01
0.517675580600D-03 0.000000000000D+00 -.297434548536D-05 0.334974245007D-04 0.000000000000D+00  6 4 1 25 3 2 21 2 0.11480559D+00 0.17424226D+00 0.35943030D+06 0.35943030D+06 0.35943030D+06 0.10787919D+01  1  2  3  3  6  4        3 0.185390235467D-03 0.100000000000D+01
-.486944985624D-03 0.000000000000D+00 0.000000000000D+00 0.334974245007D-04 0.000000000000D+00  6 4 1 25 3 2 21 2 0.11480559D+00 0.17424226D+00 0.35943030D+06 0.35943030D+06 0.35943030D+06 0.10787919D+01  1  2 15  3  6  4        3 -.174384979565D-03 0.100000000000D+01
-.712258224667D-03 0.000000000000D+00 0.000000000000D+00 0.334974245007D-04 0.000000000000D+00  6 4 1 25 3 2 21 2 0.11480559D+00 0.17424226D+00 0.35943030D+06 0.35943030D+06 0.35943030D+06 0.10787919D+01  1  2  4  3  6  4        3 -.255074268389D-03 0.100000000000D+01
-.105008398609D-01 0.000000000000D+00 0.000000000000D+00 0.334974245007D-04 0.000000000000D+00  6 4 1 25 3 2 21 2 0.11480559D+00 0.17424226D+00 0.35943030D+06 0.35943030D+06 0.35943030D+06 0.10787919D+01  1  2  5  3  6  4        3 -.376056597487D-02 0.100000000000D+01
0.184758406519D-01 0.000000000000D+00 -.000000000000D+00 0.334974245007D-04 0.000000000000D+00  6 4 1 25 3 2 21 2 0.11480559D+00 0.17424226D+00 0.35943030D+06 0.35943030D+06 0.35943030D+06 0.10787919D+01  1  2  6  3  6  4        3 0.661657721028D-02 0.100000000000D+01
  </mgrwgt>
  </event>
  <event>
  5     66 -.16530072E-05 0.40780862E+02 0.75467711E-02 0.95243483E-01
        4 -1    0    0  501    0 0.00000000E+00 0.00000000E+00 0.89723029E+03 0.89723163E+03 0.15500000E+01 0.0000E+00 0.9000E+01
        1 -1    0    0  502    0 0.00000000E+00 0.00000000E+00 -.37018990E+03 0.37019004E+03 0.32000000E+00 0.0000E+00 0.9000E+01
       25  1    1    2    0    0 0.45220785E+03 0.24239774E+02 0.14719310E+03 0.49231120E+03 0.12500000E+03 0.0000E+00 0.9000E+01
        3  1    1    2  501    0 -.39572268E+02 0.10057088E+02 0.35816443E+03 0.36048457E+03 0.50000000E+00 0.0000E+00 0.9000E+01
        2  1    1    2  502    0 -.41263558E+03 -.34296862E+02 0.21682854E+02 0.41462591E+03 0.32000000E+00 0.0000E+00 0.9000E+01
#aMCatNLO 1  0  0  2  5 0.23281897D+02 0.00000000D+00  -5  6  0 0.00000000D+00 0.00000000D+00 0.00000000D+00 0.00000000D+00 0.00000000D+00
  <mgrwgt>
 -.3249378744D-03    9    2    0
 0.576321551761837D+03 0.000000000000000D+00 0.000000000000000D+00 0.576321551761837D+03
 0.576321551761837D+03 0.000000000000000D+00 0.000000000000000D+00 -.576321551761837D+03
 0.474151977612422D+03 0.452361958545414D+03 0.242599591777658D+02 -.630492721244335D+02
 0.232330273302703D+03 -.395244006284536D+02 0.100449229676515D+02 0.228723145244298D+03
 0.446160852608549D+03 -.412837557916961D+03 -.343048821454173D+02 -.165673873119865D+03
 0.000000000000000D+00 -.000000000000000D+00 -.000000000000000D+00 -.000000000000000D+00
 0.576765859479640D+03 0.000000000000000D+00 0.000000000000000D+00 0.576765859479640D+03
 0.991160346341022D+03 0.000000000000000D+00 0.000000000000000D+00 -.991160346341022D+03
 0.479281297243149D+03 0.457219145648728D+03 0.325730567172032D+02 -.630492721244335D+02
 0.232150097357797D+03 -.371581437276164D+02 0.140947822795574D+02 0.228723145244298D+03
 0.441446817025892D+03 -.408315713924884D+03 -.265657258467852D+02 -.165673873119865D+03
 0.415047994193824D+03 -.117452879962278D+02 -.201021131499755D+02 -.414394486861382D+03
0.173541070293D-04 0.000000000000D+00 0.000000000000D+00 0.341366542396D-05 0.000000000000D+00  6 4 1 25 3 2 21 0 0.13803554D+00 0.56952406D-01 0.21389821D+06 0.21389821D+06 0.21389821D+06 0.10955915D+01  1  2  2  2  6  2        1 0.171457999471D-04 0.100000000000D+01
0.547481195707D-05 0.000000000000D+00 -.666443404339D-07 0.341366542396D-05 0.000000000000D+00  6 4 1 25 3 2 21 2 0.13803554D+00 0.56952406D-01 0.21389821D+06 0.21389821D+06 0.21389821D+06 0.10955915D+01  1  2  3  2  6  2        1 0.649265015777D-05 0.100000000000D+01
-.123236113673D-04 0.000000000000D+00 0.000000000000D+00 0.341366542396D-05 0.000000000000D+00  6 4 1 25 3 2 21 2 0.13803554D+00 0.56952406D-01 0.21389821D+06 0.21389821D+06 0.21389821D+06 0.10955915D+01  1  2 15  2  6  2        1 -.146147297689D-04 0.100000000000D+01
0.484837818316D-02 0.000000000000D+00 0.000000000000D+00 0.341366542396D-05 0.000000000000D+00  6 4 1 25 3 2 21 2 0.13803554D+00 0.98040996D-01 0.22435313D+06 0.22435313D+06 0.22435313D+06 0.10940132D+01  1  2 12  2  6  2        1 0.268323271813D-02 0.100000000000D+01
-.449249536010D-02 0.000000000000D+00 0.000000000000D+00 0.341366542396D-05 0.000000000000D+00  6 4 1 25 3 2 21 2 0.13803554D+00 0.56952406D-01 0.21389821D+06 0.21389821D+06 0.21389821D+06 0.10955915D+01  1  2  4  2  6  2        1 -.532770822766D-02 0.100000000000D+01
-.485838715658D-02 0.000000000000D+00 -.131407436502D-04 0.341366542396D-05 0.000000000000D+00  6 4 1 25 3 2 21 2 0.13803554D+00 0.97972292D-01 0.21389821D+06 0.21389821D+06 0.21389821D+06 0.10955915D+01  1  2  5  2  6  2        1 -.270292710848D-02 0.100000000000D+01
0.422951183230D-02 0.000000000000D+00 0.114189891948D-04 0.341366542396D-05 0.000000000000D+00  6 4 1 25 3 2 21 2 0.13803554D+00 0.56952406D-01 0.21389821D+06 0.21389821D+06 0.21389821D+06 0.10955915D+01  1  2  6  2  6  2        1 0.501583266797D-02 0.100000000000D+01
0.292319792551D-03 0.000000000000D+00 0.000000000000D+00 0.341366542396D-05 0.000000000000D+00  6 4 21 25 3 2 -1 2 0.13803554D+00 0.98040996D-01 0.22435313D+06 0.22435313D+06 0.22435313D+06 0.10940132D+01  1  2 12  6  6  2        1 0.368091147365D-03 0.100000000000D+01
-.291963371556D-03 0.000000000000D+00 -.791439055541D-06 0.341366542396D-05 0.000000000000D+00  6 4 21 25 3 2 -1 2 0.13803554D+00 0.97972292D-01 0.21389821D+06 0.21389821D+06 0.21389821D+06 0.10955915D+01  1  2  5  6  6  2        1 -.370482792022D-03 0.100000000000D+01
  </mgrwgt>
  </event>
  <event>
  5     66 0.16530072E-05 0.10678895E+03 0.75467711E-02 0.92832248E-01
        4 -1    0    0  501    0 0.00000000E+00 0.00000000E+00 0.65958491E+03 0.65958674E+03 0.15500000E+01 0.0000E+00 0.9000E+01
        1 -1    0    0  502    0 -.00000000E+00 -.00000000E+00 -.25867287E+04 0.25867287E+04 0.32000000E+00 0.0000E+00 0.9000E+01
       25  1    1    2    0    0 0.28154122E+03 0.49684274E+03 -.79836468E+03 0.98950964E+03 0.12500000E+03 0.0000E+00 0.9000E+01
        3  1    1    2  501    0 -.91801920E+02 -.54572062E+02 0.52431652E+03 0.53508295E+03 0.50000000E+00 0.0000E+00 0.9000E+01
        2  1    1    2  502    0 -.18973930E+03 -.44227068E+03 -.16530956E+04 0.17217229E+04 0.32000000E+00 0.0000E+00 0.9000E+01
#aMCatNLO 1  0  0  4  1 0.10511696D+02 0.00000000D+00  -5  6  0 0.00000000D+00 0.00000000D+00 0.00000000D+00 0.00000000D+00 0.00000000D+00
  <mgrwgt>
 0.2579392291D-02    7    2    0
 0.130620450579234D+04 0.000000000000000D+00 0.000000000000000D+00 0.130620450579234D+04
 0.130620450579234D+04 -.000000000000000D+00 -.000000000000000D+00 -.130620450579234D+04
 0.640706762805703D+03 0.281571962648585D+03 0.496916798883877D+03 -.262051675709558D+03
 0.105161994857973D+04 -.917945811303218D+02 -.545676993516912D+02 0.104618384489219D+04
 0.920082300199244D+03 -.189777381518263D+03 -.442349099532186D+03 -.784132169182637D+03
 0.000000000000000D+00 -.000000000000000D+00 0.000000000000000D+00 0.000000000000000D+00
 0.130620450579234D+04 0.000000000000000D+00 0.000000000000000D+00 0.130620450579234D+04
 0.130620450579234D+04 -.000000000000000D+00 -.000000000000000D+00 -.130620450579234D+04
 0.640665272529993D+03 0.281564502187409D+03 0.496912363979360D+03 -.261966648751955D+03
 0.857093881658099D+03 -.658342748912216D+02 -.499200046258479D+02 0.853102434273546D+03
 0.919983516203367D+03 -.189788094831185D+03 -.442355468108973D+03 -.784010069438111D+03
 0.194666341193221D+03 -.259421324650015D+02 -.463689124453872D+01 0.192874283916520D+03
0.163807790381D-03 0.000000000000D+00 0.000000000000D+00 0.535981637385D-04 0.000000000000D+00  6 4 1 25 3 2 21 0 0.10147474D+00 0.39795840D+00 0.34386186D+06 0.34386186D+06 0.34386186D+06 0.10801944D+01  1  2  2  3  6  4        3 0.737309762164D-05 0.100000000000D+01
0.449051557886D-04 0.000000000000D+00 -.629065046646D-06 0.535981637385D-04 0.000000000000D+00  6 4 1 25 3 2 21 2 0.10147474D+00 0.39795840D+00 0.34386186D+06 0.34386186D+06 0.34386186D+06 0.10801944D+01  1  2  3  3  6  4        3 0.235838918612D-05 0.100000000000D+01
-.116755386613D-03 0.000000000000D+00 0.000000000000D+00 0.535981637385D-04 0.000000000000D+00  6 4 1 25 3 2 21 2 0.10147474D+00 0.39795840D+00 0.34386186D+06 0.34386186D+06 0.34386186D+06 0.10801944D+01  1  2 15  3  6  4        3 -.613191595427D-05 0.100000000000D+01
0.831348155858D-01 0.000000000000D+00 0.000000000000D+00 0.535981637385D-04 0.000000000000D+00  6 4 1 25 3 2 21 2 0.10147474D+00 0.39795840D+00 0.34514586D+06 0.34514586D+06 0.34514586D+06 0.10800761D+01  1  2 12  3  6  4        3 0.436416033282D-02 0.100000000000D+01
-.536702128957D-01 0.000000000000D+00 0.000000000000D+00 0.535981637385D-04 0.000000000000D+00  6 4 1 25 3 2 21 2 0.10147474D+00 0.39795840D+00 0.34386186D+06 0.34386186D+06 0.34386186D+06 0.10801944D+01  1  2  4  3  6  4        3 -.281872420855D-02 0.100000000000D+01
-.971742081555D-01 0.000000000000D+00 0.000000000000D+00 0.535981637385D-04 0.000000000000D+00  6 4 1 25 3 2 21 2 0.10147474D+00 0.39795840D+00 0.34386186D+06 0.34386186D+06 0.34386186D+06 0.10801944D+01  1  2  5  3  6  4        3 -.510352536717D-02 0.100000000000D+01
0.116792820609D+00 0.000000000000D+00 -.000000000000D+00 0.535981637385D-04 0.000000000000D+00  6 4 1 25 3 2 21 2 0.10147474D+00 0.39795840D+00 0.34386186D+06 0.34386186D+06 0.34386186D+06 0.10801944D+01  1  2  6  3  6  4        3 0.613388196308D-02 0.100000000000D+01
  </mgrwgt>
  </event>
  <event>
  5     66 0.16530072E-05 0.76651188E+02 0.75467711E-02 0.90066645E-01
        4 -1    0    0  501    0 0.00000000E+00 0.00000000E+00 0.30771089E+03 0.30771480E+03 0.15500000E+01 0.0000E+00 0.9000E+01
        1 -1    0    0  502    0 -.00000000E+00 -.00000000E+00 -.30245771E+04 0.30245771E+04 0.32000000E+00 0.0000E+00 0.9000E+01
       25  1    1    2    0    0 0.24298555E+03 -.45566413E+03 -.21527904E+04 0.22173866E+04 0.12500000E+03 0.0000E+00 0.9000E+01
        3  1    1    2  501    0 0.75121593E+02 -.15370289E+02 0.17000503E+03 0.18649788E+03 0.50000000E+00 0.0000E+00 0.9000E+01
        2  1    1    2  502    0 -.31810714E+03 0.47103442E+03 -.73408078E+03 0.92840739E+03 0.32000000E+00 0.0000E+00 0.9000E+01
#aMCatNLO 1  0  0  4  5 0.21058453D+01 0.00000000D+00  -5  6  0 0.00000000D+00 0.00000000D+00 0.00000000D+00 0.00000000D+00 0.00000000D+00
  <mgrwgt>
 0.5948810922D-03    4    2    0
 0.964728894796328D+03 0.000000000000000D+00 0.000000000000000D+00 0.964728894796328D+03
 0.964728894796328D+03 -.000000000000000D+00 -.000000000000000D+00 -.964728894796328D+03
 0.798290195406237D+03 0.243057165327460D+03 -.455779308717115D+03 -.595676650717531D+03
 0.561281284553269D+03 0.750954287325312D+02 -.153649360019053D+02 0.556022729494849D+03
 0.569886309633152D+03 -.318152594059992D+03 0.471144244719020D+03 0.396539212226826D+02
 0.000000000000000D+00 0.000000000000000D+00 0.000000000000000D+00 -.000000000000000D+00
 0.964728894796328D+03 0.000000000000000D+00 0.000000000000000D+00 0.964728894796328D+03
 0.964728894796328D+03 -.000000000000000D+00 -.000000000000000D+00 -.964728894796328D+03
 0.739379014848835D+03 0.255182066782054D+03 -.458260129960479D+03 -.505901268707915D+03
 0.218650363860018D+03 -.391061373184893D+02 -.205595285323976D+03 0.633187988886286D+02
 0.571945073174130D+03 -.309148971628088D+03 0.469302054258343D+03 0.106318681041271D+03
 0.399483337709674D+03 0.930730421645238D+02 0.194553361026112D+03 0.336263788778015D+03
0.992927158642D-02 0.000000000000D+00 0.000000000000D+00 0.797072515054D-06 0.000000000000D+00  6 4 1 25 3 2 21 0 0.47340439D-01 0.46531985D+00 0.34609914D+06 0.34609914D+06 0.34609914D+06 0.10799886D+01  1  2  2  3  6  4        3 0.143463607262D-02 0.100000000000D+01
0.256103605257D-02 0.000000000000D+00 -.381310173291D-04 0.797072515054D-06 0.000000000000D+00  6 4 1 25 3 2 21 2 0.47340439D-01 0.46531985D+00 0.34609914D+06 0.34609914D+06 0.34609914D+06 0.10799886D+01  1  2  3  3  6  4        3 0.431597001472D-03 0.100000000000D+01
-.571309238294D-02 0.000000000000D+00 0.000000000000D+00 0.797072515054D-06 0.000000000000D+00  6 4 1 25 3 2 21 2 0.47340439D-01 0.46531985D+00 0.34609914D+06 0.34609914D+06 0.34609914D+06 0.10799886D+01  1  2 15  3  6  4        3 -.962795326190D-03 0.100000000000D+01
-.183093190364D-02 0.000000000000D+00 0.000000000000D+00 0.797072515054D-06 0.000000000000D+00  6 4 1 25 3 2 21 2 0.47340439D-01 0.46531985D+00 0.34609914D+06 0.34609914D+06 0.34609914D+06 0.10799886D+01  1  2  4  3  6  4        3 -.308556655701D-03 0.100000000000D+01
  </mgrwgt>
  </event>
  <event>
  5     66 0.16530072E-05 0.20348709E+03 0.75467711E-02 0.94056886E-01
        4 -1    0    0  501    0 0.00000000E+00 0.00000000E+00 0.23049741E+03 0.23050262E+03 0.15500000E+01 0.0000E+00 0.9000E+01
        1 -1    0    0  502    0 -.00000000E+00 -.00000000E+00 -.27936949E+04 0.27936949E+04 0.32000000E+00 0.0000E+00 0.9000E+01
       25  1    1    2    0    0 0.50184550E+03 0.12263683E+03 -.72535644E+03 0.89925284E+03 0.12500000E+03 0.0000E+00 0.9000E+01
        3  1    1    2  501    0 -.20267726E+03 -.19007442E+02 0.50913699E+02 0.20983758E+03 0.50000000E+00 0.0000E+00 0.9000E+01
        2  1    1    2  502    0 -.29916824E+03 -.10362939E+03 -.18887547E+04 0.19151071E+04 0.32000000E+00 0.0000E+00 0.9000E+01
#aMCatNLO 1  0  0  4  5 0.21058453D+01 0.00000000D+00  -5  6  0 0.00000000D+00 0.00000000D+00 0.00000000D+00 0.00000000D+00 0.00000000D+00
  <mgrwgt>
 0.2926075133D-04    1    2    0
 0.802463293238299D+03 0.000000000000000D+00 0.000000000000000D+00 0.802463293238299D+03
 0.802463293238299D+03 -.000000000000000D+00 -.000000000000000D+00 -.802463293238299D+03
 0.536091260777603D+03 0.501872599226898D+03 0.122661646801987D+03 0.696193538549598D+02
 0.476528319707164D+03 -.202598116564459D+03 -.190000201729151D+02 0.430897020041791D+03
 0.592307005991831D+03 -.299274482662439D+03 -.103661626629072D+03 -.500516373896751D+03
 0.000000000000000D+00 -.000000000000000D+00 0.000000000000000D+00 0.000000000000000D+00
 0.802463293238299D+03 0.000000000000000D+00 0.000000000000000D+00 0.802463293238299D+03
 0.802463293238299D+03 -.000000000000000D+00 -.000000000000000D+00 -.802463293238299D+03
 0.534414833117603D+03 0.499368794407968D+03 0.122426835428242D+03 0.749445861598705D+02
 0.127721775188948D+03 -.131475802395787D+02 -.455034021826247D+02 0.118614642355260D+03
 0.588808535029559D+03 -.302036991722580D+03 -.103920699757493D+03 -.494640914923890D+03
 0.353981443140488D+03 -.184184222445809D+03 0.269972665118759D+02 0.301081686408759D+03
0.615716660854D-04 0.000000000000D+00 0.000000000000D+00 0.187520220268D-05 0.000000000000D+00  6 4 1 25 3 2 21 2 0.35461542D-01 0.42979961D+00 0.27654852D+06 0.27654852D+06 0.27654852D+06 0.10871769D+01  1  2 14  3  6  4        3 0.292607513290D-04 0.100000000000D+01
  </mgrwgt>
  </event>
  <event>
  5     66 0.16530072E-05 0.28744552E+02 0.75467711E-02 0.92804988E-01
        4 -1    0    0  501    0 0.00000000E+00 0.00000000E+00 0.12906971E+04 0.12906980E+04 0.15500000E+01 0.0000E+00 0.9000E+01
        1 -1    0    0  502    0 0.00000000E+00 0.00000000E+00 -.13076804E+04 0.13076805E+04 0.32000000E+00 0.0000E+00 0.9000E+01
       25  1    1    2    0    0 -.42719991E+03 -.28260707E+03 -.34860857E+03 0.63207551E+03 0.12500000E+03 0.0000E+00 0.9000E+01
        3  1    1    2  501    0 0.41592300E+03 0.25617075E+03 0.10967623E+04 0.12006262E+04 0.50000000E+00 0.0000E+00 0.9000E+01
        2  1    1    2  502    0 0.11276904E+02 0.26436326E+02 -.76513709E+03 0.76567677E+03 0.32000000E+00 0.0000E+00 0.9000E+01
#aMCatNLO 1  0  0  2  5 0.26961553D+02 0.00000000D+00  -5  6  0 0.00000000D+00 0.00000000D+00 0.00000000D+00 0.00000000D+00 0.00000000D+00
  <mgrwgt>
 0.3575197212D-02    7    2    0
 0.129916147524438D+04 0.000000000000000D+00 0.000000000000000D+00 0.129916147524438D+04
 0.129916147524438D+04 0.000000000000000D+00 0.000000000000000D+00 -.129916147524438D+04
 0.629755974310563D+03 -.427194629040546D+03 -.282606073550560D+03 -.344392426297519D+03
 0.120780079387177D+04 0.415916231325210D+03 0.256166576536358D+03 0.110461537707165D+04
 0.760766182306441D+03 0.112783977153358D+02 0.264394970142020D+02 -.760222950774132D+03
 0.000000000000000D+00 -.000000000000000D+00 -.000000000000000D+00 -.000000000000000D+00
 0.130539681731000D+04 0.000000000000000D+00 0.000000000000000D+00 0.130539681731000D+04
 0.170882049844044D+04 0.000000000000000D+00 0.000000000000000D+00 -.170882049844044D+04
 0.614095023566120D+03 -.404783704018561D+03 -.281125786150250D+03 -.344392426297519D+03
 0.122419087896298D+04 0.459734327807050D+03 0.259060851362766D+03 0.110461537707165D+04
 0.761731925184713D+03 0.387098111172182D+02 0.282513979326902D+02 -.760222950774132D+03
 0.414199488036628D+03 -.936604349057077D+02 -.618646314520593D+01 -.403423681130436D+03
0.583299444408D-02 0.000000000000D+00 0.000000000000D+00 0.632972923805D-03 0.000000000000D+00  6 4 1 25 3 2 21 0 0.19856885D+00 0.20118168D+00 0.27272602D+06 0.27272602D+06 0.27272602D+06 0.10876278D+01  1  2  2  2  6  2        1 0.223219425195D-03 0.100000000000D+01
0.349574219754D-02 0.000000000000D+00 -.224002345280D-04 0.632972923805D-03 0.000000000000D+00  6 4 1 25 3 2 21 2 0.19856885D+00 0.20118168D+00 0.27272602D+06 0.27272602D+06 0.27272602D+06 0.10876278D+01  1  2  3  2  6  2        1 0.158248790231D-03 0.100000000000D+01
-.380443017255D-02 0.000000000000D+00 0.000000000000D+00 0.632972923805D-03 0.000000000000D+00  6 4 1 25 3 2 21 2 0.19856885D+00 0.20118168D+00 0.27272602D+06 0.27272602D+06 0.27272602D+06 0.10876278D+01  1  2 15  2  6  2        1 -.172222789412D-03 0.100000000000D+01
-.112760498135D-02 0.000000000000D+00 0.000000000000D+00 0.632972923805D-03 0.000000000000D+00  6 4 1 25 3 2 21 2 0.19856885D+00 0.20118168D+00 0.27272602D+06 0.27272602D+06 0.27272602D+06 0.10876278D+01  1  2  4  2  6  2        1 -.510455617357D-04 0.100000000000D+01
-.173046787356D+00 0.000000000000D+00 -.586606055734D-02 0.632972923805D-03 0.000000000000D+00  6 4 1 25 3 2 21 2 0.19856885D+00 0.26503306D+00 0.27272602D+06 0.27272602D+06 0.27272602D+06 0.10876278D+01  1  2  5  2  6  2        1 -.411449174031D-02 0.100000000000D+01
0.168440029002D+00 0.000000000000D+00 0.565005029550D-02 0.632972923805D-03 0.000000000000D+00  6 4 1 25 3 2 21 2 0.19856885D+00 0.20118168D+00 0.27272602D+06 0.27272602D+06 0.27272602D+06 0.10876278D+01  1  2  6  2  6  2        1 0.762511344077D-02 0.100000000000D+01
-.617574177776D-02 0.000000000000D+00 -.213252160984D-03 0.632972923805D-03 0.000000000000D+00  6 4 21 25 3 2 -1 2 0.19856885D+00 0.26503306D+00 0.27272602D+06 0.27272602D+06 0.27272602D+06 0.10876278D+01  1  2  5  6  6  2        1 -.936243526096D-04 0.100000000000D+01
  </mgrwgt>
  </event>
  <event>
  5     66 0.16530072E-05 0.23458192E+03 0.75467711E-02 0.90826481E-01
        4 -1    0    0  501    0 0.00000000E+00 0.00000000E+00 0.11246553E+04 0.11246564E+04 0.15500000E+01 0.0000E+00 0.9000E+01
        1 -1    0    0  502    0 0.00000000E+00 0.00000000E+00 -.10712625E+04 0.10712625E+04 0.32000000E+00 0.0000E+00 0.9000E+01
       25  1    1    2    0    0 0.41562125E+03 0.29269062E+03 -.15414987E+03 0.54570689E+03 0.12500000E+03 0.0000E+00 0.9000E+01
        3  1    1    2  501    0 -.22738869E+03 -.57729441E+02 0.88143786E+03 0.91212458E+03 0.50000000E+00 0.0000E+00 0.9000E+01
        2  1    1    2  502    0 -.18823256E+03 -.23496118E+03 -.67389517E+03 0.73808743E+03 0.32000000E+00 0.0000E+00 0.9000E+01
#aMCatNLO 1  0  0  5  2 0.24465453D+03 0.00000000D+00  -5  6  0 0.00000000D+00 0.00000000D+00 0.00000000D+00 0.00000000D+00 0.00000000D+00
  <mgrwgt>
 0.2094133688D-03    4    2    0
 0.109763484517204D+04 0.000000000000000D+00 0.000000000000000D+00 0.109763484517204D+04
 0.109763484517204D+04 -.000000000000000D+00 -.000000000000000D+00 -.109763484517204D+04
 0.549621009001058D+03 0.415647015561118D+03 0.292733737120014D+03 -.167340285473126D+03
 0.890878151126154D+03 -.227368802308096D+03 -.577243927435532D+02 0.859438888096952D+03
 0.754770530216870D+03 -.188278213253022D+03 -.235009344376461D+03 -.692098602623825D+03
 0.000000000000000D+00 0.000000000000000D+00 0.000000000000000D+00 0.000000000000000D+00
 0.109763484517204D+04 0.000000000000000D+00 0.000000000000000D+00 0.109763484517204D+04
 0.109763484517204D+04 -.000000000000000D+00 -.000000000000000D+00 -.109763484517204D+04
 0.548853539400680D+03 0.397966902298091D+03 0.270665374803118D+03 -.232331244714530D+03
 0.805883471225156D+03 -.254678436115429D+03 -.918123470816245D+02 0.759050430666546D+03
 0.593581977120028D+03 -.318489660104949D+03 -.299626274331568D+03 -.401407518238186D+03
 0.246950702598218D+03 0.175201193922287D+03 0.120773246610074D+03 -.125311667713830D+03
0.639894548288D-02 0.000000000000D+00 0.000000000000D+00 0.123999263356D-04 0.000000000000D+00  6 4 1 25 3 2 21 0 0.17302398D+00 0.16480970D+00 0.28049570D+06 0.28049570D+06 0.28049570D+06 0.10867185D+01  1  2  2  4  6  5        2 0.596200500459D-03 0.100000000000D+01
0.662753690946D-03 0.000000000000D+00 -.245736355353D-04 0.123999263356D-04 0.000000000000D+00  6 4 1 25 3 2 21 2 0.17302398D+00 0.16480970D+00 0.28049570D+06 0.28049570D+06 0.28049570D+06 0.10867185D+01  1  2  3  4  6  5        2 0.729239494168D-04 0.100000000000D+01
-.400924857339D-02 0.000000000000D+00 0.000000000000D+00 0.123999263356D-04 0.000000000000D+00  6 4 1 25 3 2 21 2 0.17302398D+00 0.16480970D+00 0.28049570D+06 0.28049570D+06 0.28049570D+06 0.10867185D+01  1  2 15  4  6  5        2 -.441144642662D-03 0.100000000000D+01
-.168737097738D-03 0.000000000000D+00 0.000000000000D+00 0.123999263356D-04 0.000000000000D+00  6 4 1 25 3 2 21 2 0.17302398D+00 0.16480970D+00 0.28049570D+06 0.28049570D+06 0.28049570D+06 0.10867185D+01  1  2  4  4  6  5        2 -.185664384043D-04 0.100000000000D+01
  </mgrwgt>
  </event>
  <event>
  6     66 0.16530072E-05 0.42939393E+02 0.75467711E-02 0.94253754E-01
        4 -1    0    0  501    0 0.00000000E+00 0.00000000E+00 0.34078081E+03 0.34078433E+03 0.15500000E+01 0.0000E+00 0.9000E+01
        1 -1    0    0  503    0 0.00000000E+00 0.00000000E+00 -.22832866E+04 0.22832866E+04 0.32000000E+00 0.0000E+00 0.9000E+01
       25  1    1    2    0    0 0.46533783E+03 -.17863208E+03 -.74665860E+03 0.90640652E+03 0.12500000E+03 0.0000E+00 0.9000E+01
        3  1    1    2  501    0 -.34843368E+03 0.18209083E+03 0.10646025E+03 0.40730472E+03 0.50000000E+00 0.0000E+00 0.9000E+01
        2  1    1    2  502    0 -.67304204E+02 0.21854002E+02 -.39098015E+03 0.39733240E+03 0.32000000E+00 0.0000E+00 0.9000E+01
       21  1    1    2  503  502 -.49599949E+02 -.25312753E+02 -.91132727E+03 0.91302730E+03 0.75000000E+00 0.0000E+00 0.9000E+01
#aMCatNLO 2  0  0  2  5 0.55685639D+02 0.00000000D+00  -5  6  0 0.00000000D+00 0.00000000D+00 0.00000000D+00 0.00000000D+00 0.00000000D+00
  <mgrwgt>
 0.3954213239D-03    2    2    0
 0.682136411607433D+03 0.000000000000000D+00 0.000000000000000D+00 0.682136411607433D+03
 0.682136411607433D+03 0.000000000000000D+00 0.000000000000000D+00 -.682136411607433D+03
 0.558795682021957D+03 0.444792195985711D+03 -.189115405550477D+03 -.251043581913720D+03
 0.600560007182436D+03 -.370063701135807D+03 0.171034297014649D+03 0.440990304398341D+03
 0.204917134010473D+03 -.747284948499046D+02 0.180811085358277D+02 -.189946722484621D+03
 0.000000000000000D+00 -.000000000000000D+00 -.000000000000000D+00 -.000000000000000D+00
 0.684411225945274D+03 0.000000000000000D+00 0.000000000000000D+00 0.684411225945274D+03
 0.113689572942818D+04 0.000000000000000D+00 0.000000000000000D+00 -.113689572942818D+04
 0.571923133135085D+03 0.465338033455390D+03 -.178630078135940D+03 -.251043581913720D+03
 0.590779293602796D+03 -.348416353168245D+03 0.182081767405247D+03 0.440990304398341D+03
 0.202706386226976D+03 -.673217315738785D+02 0.218610633877883D+02 -.189946722484621D+03
 0.455898142408598D+03 -.495999487132673D+02 -.253127526570955D+02 -.452484503482906D+03
-.100595515183D-02 0.000000000000D+00 0.000000000000D+00 0.226597881849D-05 0.000000000000D+00  6 4 1 25 3 2 21 2 0.52253808D-01 0.38727906D+00 0.26701711D+06 0.26701711D+06 0.26701711D+06 0.10883141D+01  1  2 13  2  6  2        1 -.323991302974D-03 0.100000000000D+01
0.155611212219D-02 0.000000000000D+00 0.000000000000D+00 0.226597881849D-05 0.128707533100D-07  6 4 1 25 3 2 21 2 0.52428066D-01 0.35127497D+00 0.26701711D+06 0.26701711D+06 0.26701711D+06 0.10883141D+01  1  2  1  2  6  2        1 0.719412626914D-03 0.100000000000D+01
  </mgrwgt>
  </event>
  <event>
  6     66 0.16530072E-05 0.35533263E+02 0.75467711E-02 0.92635507E-01
       21 -1    0    0  501  503 0.00000000E+00 0.00000000E+00 0.91875266E+03 0.91875296E+03 0.75000000E+00 0.0000E+00 0.9000E+01
        1 -1    0    0  502    0 0.00000000E+00 0.00000000E+00 -.91438924E+03 0.91438930E+03 0.32000000E+00 0.0000E+00 0.9000E+01
       25  1    1    2    0    0 0.52801348E+03 -.22978773E+03 -.17749423E+03 0.61541030E+03 0.12500000E+03 0.0000E+00 0.9000E+01
        3  1    1    2  501    0 -.50945249E+03 0.19422921E+03 0.47294386E+03 0.72176379E+03 0.50000000E+00 0.0000E+00 0.9000E+01
        2  1    1    2  502    0 0.11668230E+02 -.38765381E+01 -.38739273E+03 0.38758793E+03 0.32000000E+00 0.0000E+00 0.9000E+01
       -4  1    1    2    0  503 -.30229225E+02 0.39435064E+02 0.96306514E+02 0.10838025E+03 0.15500000E+01 0.0000E+00 0.9000E+01
#aMCatNLO 2  0  0  1  4 0.60481103D+00 0.00000000D+00  -5  6  0 0.00000000D+00 0.00000000D+00 0.00000000D+00 0.00000000D+00 0.00000000D+00
  <mgrwgt>
 0.1633046429D-02    1    2    0
 0.860796369231349D+03 0.000000000000000D+00 0.000000000000000D+00 0.860796369231349D+03
 0.860796369231349D+03 0.000000000000000D+00 0.000000000000000D+00 -.860796369231349D+03
 0.592477992406596D+03 0.517461708690032D+03 -.216045840240224D+03 -.144785173414404D+03
 0.761710318053816D+03 -.522681160691369D+03 0.211507719632470D+03 0.512124494067450D+03
 0.367404428002285D+03 0.521945200133734D+01 0.453812060775459D+01 -.367339320653046D+03
 0.000000000000000D+00 -.000000000000000D+00 0.000000000000000D+00 0.000000000000000D+00
 0.969101511009742D+03 0.000000000000000D+00 0.000000000000000D+00 0.969101511009742D+03
 0.866872757582859D+03 0.000000000000000D+00 0.000000000000000D+00 -.866872757582859D+03
 0.606759532065175D+03 0.527988145624678D+03 -.229777939304723D+03 -.144785173414404D+03
 0.748004987491805D+03 -.509429471489851D+03 0.194220435243937D+03 0.512124494067450D+03
 0.367545117952908D+03 0.116705510436662D+02 -.387755999472715D+01 -.367339320653046D+03
 0.113664631082712D+03 -.302292251784932D+02 0.394350640555130D+02 0.102228753426883D+03
0.246303271164D-03 0.000000000000D+00 0.000000000000D+00 0.424534186559D-04 0.185223455686D-08  6 21 1 25 3 2 -4 2 0.14134573D+00 0.14067444D+00 0.35785245D+06 0.35785245D+06 0.35785245D+06 0.10789310D+01  1  2  1  5  6  1        4 0.163304642919D-02 0.100000000000D+01
  </mgrwgt>
  </event>
  <event>
  6     66 0.16530072E-05 0.86747791E+02 0.75467711E-02 0.94598031E-01
        4 -1    0    0  501    0 0.00000000E+00 0.00000000E+00 0.21030956E+03 0.21031527E+03 0.15500000E+01 0.0000E+00 0.9000E+01
        1 -1    0    0  502    0 -.00000000E+00 -.00000000E+00 -.21619327E+04 0.21619327E+04 0.32000000E+00 0.0000E+00 0.9000E+01
       25  1    1    2    0    0 -.46809964E+03 -.76989527E+02 -.12616087E+04 0.13536344E+04 0.12500000E+03 0.0000E+00 0.9000E+01
        3  1    1    2  503    0 0.22664100E+03 -.26184800E+02 -.11582949E+03 0.25586814E+03 0.50000000E+00 0.0000E+00 0.9000E+01
        2  1    1    2  502    0 -.11485908E+01 0.30452971E+02 -.49705506E+03 0.49798849E+03 0.32000000E+00 0.0000E+00 0.9000E+01
       21  1    1    2  501  503 0.24260723E+03 0.72721356E+02 -.77129926E+02 0.26475697E+03 0.75000000E+00 0.0000E+00 0.9000E+01
#aMCatNLO 2  0  0  4  5 0.39837944D+03 0.00000000D+00  -5  6  0 0.00000000D+00 0.00000000D+00 0.00000000D+00 0.00000000D+00 0.00000000D+00
  <mgrwgt>
 0.1403369004D-02    1    2    0
 0.674301061683909D+03 0.000000000000000D+00 0.000000000000000D+00 0.674301061683909D+03
 0.674301061683909D+03 -.000000000000000D+00 -.000000000000000D+00 -.674301061683909D+03
 0.558841593234046D+03 -.470881675853494D+03 -.772845095189161D+02 -.262633734052183D+03
 0.632273628151734D+03 0.472820186224338D+03 0.468907958164455D+02 0.417147774323009D+03
 0.157486901982038D+03 -.193851037084385D+01 0.303937137024706D+02 -.154514040270826D+03
 0.000000000000000D+00 0.000000000000000D+00 0.000000000000000D+00 0.000000000000000D+00
 0.674301061683909D+03 0.000000000000000D+00 0.000000000000000D+00 0.674301061683909D+03
 0.674301061683909D+03 -.000000000000000D+00 -.000000000000000D+00 -.674301061683909D+03
 0.555274653194487D+03 -.468074180674991D+03 -.770060829901715D+02 -.260156808575529D+03
 0.282095674684901D+03 0.226358613018591D+03 -.261928740252173D+02 0.166293960619527D+03
 0.156808854920177D+03 -.114650700049939D+01 0.304722587168477D+02 -.153815291670784D+03
 0.354422940568252D+03 0.242862074656900D+03 0.727266982985411D+02 0.247678139626787D+03
0.885158630776D-03 0.000000000000D+00 0.000000000000D+00 0.773752468878D-05 0.507084665469D-08  6 4 1 25 3 2 21 2 0.32355758D-01 0.33260547D+00 0.25122132D+06 0.25122132D+06 0.25122132D+06 0.10902999D+01  1  2  1  3  6  4        3 0.140336900371D-02 0.100000000000D+01
  </mgrwgt>
  </event>
  <event>
  5     66 0.16530072E-05 0.10253667E+03 0.75467711E-02 0.93955803E-01
        4 -1    0    0  501    0 0.00000000E+00 0.00000000E+00 0.42531170E+03 0.42531452E+03 0.15500000E+01 0.0000E+00 0.9000E+01
        1 -1    0    0  502    0 -.00000000E+00 -.00000000E+00 -.10420121E+04 0.10420122E+04 0.32000000E+00 0.0000E+00 0.9000E+01
       25  1    1    2    0    0 0.46549919E+03 0.17741093E+03 -.50211348E+03 0.71826672E+03 0.12500000E+03 0.0000E+00 0.9000E+01
        3  1    1    2  501    0 -.31028517E+02 -.97809542E+02 0.18763394E+03 0.21386028E+03 0.50000000E+00 0.0000E+00 0.9000E+01
        2  1    1    2  502    0 -.43447067E+03 -.79601387E+02 -.30222089E+03 0.53519970E+03 0.32000000E+00 0.0000E+00 0.9000E+01
#aMCatNLO 1  0  0  4  1 0.12486814D+02 0.00000000D+00  -5  6  0 0.00000000D+00 0.00000000D+00 0.00000000D+00 0.00000000D+00 0.00000000D+00
  <mgrwgt>
 0.2365441846D-02    7    2    0
 0.665719202706618D+03 0.000000000000000D+00 0.000000000000000D+00 0.665719202706618D+03
 0.665719202706618D+03 -.000000000000000D+00 -.000000000000000D+00 -.665719202706618D+03
 0.559074651699556D+03 0.465651610759796D+03 0.177422563245885D+03 -.220520469845879D+03
 0.322355012769097D+03 -.310053653823441D+02 -.977365626989881D+02 0.305612476654110D+03
 0.450008740944582D+03 -.434646245377452D+03 -.796860005468973D+02 -.850920068082303D+02
 0.000000000000000D+00 0.000000000000000D+00 -.000000000000000D+00 0.000000000000000D+00
 0.665719202706618D+03 0.000000000000000D+00 0.000000000000000D+00 0.665719202706618D+03
 0.665719202706618D+03 -.000000000000000D+00 -.000000000000000D+00 -.665719202706618D+03
 0.558768861707985D+03 0.465598127983771D+03 0.177253972338220D+03 -.219993302904355D+03
 0.244600205586798D+03 -.340586082279416D+02 -.674858722214934D+02 0.232626156803537D+03
 0.449994333198930D+03 -.434689305664746D+03 -.798217371981834D+02 -.846675718472827D+02
 0.780750049195230D+02 0.314978590891642D+01 -.299463629185427D+02 0.720347179481010D+02
0.591289167729D-04 0.000000000000D+00 0.000000000000D+00 0.332801986020D-06 0.000000000000D+00  6 4 1 25 3 2 21 0 0.65432790D-01 0.16030978D+00 0.27993274D+06 0.27993274D+06 0.27993274D+06 0.10867834D+01  1  2  2  3  6  4        3 0.955714017803D-04 0.100000000000D+01
0.806504802271D-05 0.000000000000D+00 -.227070609409D-06 0.332801986020D-06 0.000000000000D+00  6 4 1 25 3 2 21 2 0.65432790D-01 0.16030978D+00 0.27993274D+06 0.27993274D+06 0.27993274D+06 0.10867834D+01  1  2  3  3  6  4        3 0.153964645626D-04 0.100000000000D+01
-.394128964464D-04 0.000000000000D+00 0.000000000000D+00 0.332801986020D-06 0.000000000000D+00  6 4 1 25 3 2 21 2 0.65432790D-01 0.16030978D+00 0.27993274D+06 0.27993274D+06 0.27993274D+06 0.10867834D+01  1  2 15  3  6  4        3 -.752406261857D-04 0.100000000000D+01
0.230447033833D-02 0.000000000000D+00 0.000000000000D+00 0.332801986020D-06 0.000000000000D+00  6 4 1 25 3 2 21 2 0.65432790D-01 0.16030978D+00 0.28159030D+06 0.28159030D+06 0.28159030D+06 0.10865926D+01  1  2 12  3  6  4        3 0.439714338838D-02 0.100000000000D+01
-.178240195374D-02 0.000000000000D+00 0.000000000000D+00 0.332801986020D-06 0.000000000000D+00  6 4 1 25 3 2 21 2 0.65432790D-01 0.16030978D+00 0.27993274D+06 0.27993274D+06 0.27993274D+06 0.10867834D+01  1  2  4  3  6  4        3 -.340266895371D-02 0.100000000000D+01
-.249523412497D-02 0.000000000000D+00 0.000000000000D+00 0.332801986020D-06 0.000000000000D+00  6 4 1 25 3 2 21 2 0.65432790D-01 0.16030978D+00 0.27993274D+06 0.27993274D+06 0.27993274D+06 0.10867834D+01  1  2  5  3  6  4        3 -.476349101360D-02 0.100000000000D+01
0.319466587171D-02 0.000000000000D+00 -.000000000000D+00 0.332801986020D-06 0.000000000000D+00  6 4 1 25 3 2 21 2 0.65432790D-01 0.16030978D+00 0.27993274D+06 0.27993274D+06 0.27993274D+06 0.10867834D+01  1  2  6  3  6  4        3 0.609873118482D-02 0.100000000000D+01
  </mgrwgt>
  </event>
  <event>
  5     66 0.16530072E-05 0.64996908E+02 0.75467711E-02 0.88823342E-01
        4 -1    0    0  501    0 0.00000000E+00 0.00000000E+00 0.39088403E+03 0.39088710E+03 0.15500000E+01 0.0000E+00 0.9000E+01
        1 -1    0    0  502    0 0.00000000E+00 0.00000000E+00 -.29499190E+04 0.29499190E+04 0.32000000E+00 0.0000E+00 0.9000E+01
       25  1    1    2    0    0 -.46315350E+03 0.98786525E+02 -.38435353E+03 0.62259343E+03 0.12500000E+03 0.0000E+00 0.9000E+01
        3  1    1    2  501    0 0.51171742E+02 -.40099830E+02 0.24987950E+03 0.25819868E+03 0.50000000E+00 0.0000E+00 0.9000E+01
        2  1    1    2  502    0 0.41198176E+03 -.58686695E+02 -.24245609E+04 0.24600140E+04 0.32000000E+00 0.0000E+00 0.9000E+01
#aMCatNLO 1  0  0  1  1 0.51995584D+02 0.00000000D+00  -5  6  0 0.00000000D+00 0.00000000D+00 0.00000000D+00 0.00000000D+00 0.00000000D+00
  <mgrwgt>
 0.3454944464D-02    4    2    0
 0.107381627028944D+04 0.000000000000000D+00 0.000000000000000D+00 0.107381627028944D+04
 0.107381627028944D+04 0.000000000000000D+00 0.000000000000000D+00 -.107381627028944D+04
 0.510630996019984D+03 -.463235063701287D+03 0.987924864810156D+02 0.144126106132525D+03
 0.699233203298435D+03 0.511599638534761D+02 -.400905996814459D+02 0.696205770236562D+03
 0.937768341260464D+03 0.412075099847811D+03 -.587018867995698D+02 -.840331876369087D+03
 0.000000000000000D+00 0.000000000000000D+00 -.000000000000000D+00 -.000000000000000D+00
 0.127185927195676D+04 0.000000000000000D+00 0.000000000000000D+00 0.127185927195676D+04
 0.176487018654138D+04 0.000000000000000D+00 0.000000000000000D+00 -.176487018654138D+04
 0.615209749361468D+03 -.530952482732548D+03 0.245306262293931D+03 0.144126106132525D+03
 0.711642731971778D+03 -.337018403597348D+02 0.143516861078895D+03 0.696205770236562D+03
 0.910915445857373D+03 0.300879892903917D+03 0.181880667212529D+03 -.840331876369087D+03
 0.798961531307517D+03 0.263774430188366D+03 -.570703790585356D+03 -.493010914584618D+03
0.543836454126D-01 0.000000000000D+00 0.000000000000D+00 0.180192719951D-03 0.000000000000D+00  6 4 1 25 3 2 21 0 0.60136242D-01 0.45383393D+00 0.23575940D+06 0.23575940D+06 0.23575940D+06 0.10923805D+01  1  2  2  1  6  1        4 0.528056968223D-02 0.100000000000D+01
0.174799239805D-01 0.000000000000D+00 -.208847517927D-03 0.180192719951D-03 0.000000000000D+00  6 4 1 25 3 2 21 2 0.60136242D-01 0.45383393D+00 0.23575940D+06 0.23575940D+06 0.23575940D+06 0.10923805D+01  1  2  3  1  6  1        4 0.202534893636D-02 0.100000000000D+01
-.327424036168D-01 0.000000000000D+00 0.000000000000D+00 0.180192719951D-03 0.000000000000D+00  6 4 1 25 3 2 21 2 0.60136242D-01 0.45383393D+00 0.23575940D+06 0.23575940D+06 0.23575940D+06 0.10923805D+01  1  2 15  1  6  1        4 -.379376892102D-02 0.100000000000D+01
-.493714008692D-03 0.000000000000D+00 0.000000000000D+00 0.180192719951D-03 0.000000000000D+00  6 4 1 25 3 2 21 2 0.60136242D-01 0.45383393D+00 0.23575940D+06 0.23575940D+06 0.23575940D+06 0.10923805D+01  1  2  4  1  6  1        4 -.572052340436D-04 0.100000000000D+01
  </mgrwgt>
  </event>
  <event>
  5     66 -.16530072E-05 0.43570470E+02 0.75467711E-02 0.91591608E-01
        4 -1    0    0  501    0 0.00000000E+00 0.00000000E+00 0.24946003E+04 0.24946007E+04 0.15500000E+01 0.0000E+00 0.9000E+01
        1 -1    0    0  502    0 0.00000000E+00 0.00000000E+00 -.11869205E+04 0.11869206E+04 0.32000000E+00 0.0000E+00 0.9000E+01
       25  1    1    2    0    0 -.59042715E+03 0.27865450E+03 -.75124994E+02 0.66897033E+03 0.12500000E+03 0.0000E+00 0.9000E+01
        3  1    1    2  501    0 0.54805431E+03 -.26853056E+03 0.21546806E+04 0.22394466E+04 0.50000000E+00 0.0000E+00 0.9000E+01
        2  1    1    2  502    0 0.42372833E+02 -.10123935E+02 -.77187590E+03 0.77310443E+03 0.32000000E+00 0.0000E+00 0.9000E+01
#aMCatNLO 1  0  0  5  2 0.54198672D+01 0.00000000D+00  -5  6  0 0.00000000D+00 0.00000000D+00 0.00000000D+00 0.00000000D+00 0.00000000D+00
  <mgrwgt>
 -.1490548701D-04    1    2    0
 0.172072463501864D+04 0.000000000000000D+00 0.000000000000000D+00 0.172072463501864D+04
 0.172072463501864D+04 -.000000000000000D+00 -.000000000000000D+00 -.172072463501864D+04
 0.744124192304848D+03 -.590421402051361D+03 0.278650518580330D+03 -.334443223982726D+03
 0.157690341477788D+04 0.548043726561250D+03 -.268525376914786D+03 0.145401739166620D+04
 0.112042166295455D+04 0.423776754901111D+02 -.101251416655440D+02 -.111957416768347D+04
 0.000000000000000D+00 0.000000000000000D+00 -.000000000000000D+00 0.000000000000000D+00
 0.172072463501864D+04 0.000000000000000D+00 0.000000000000000D+00 0.172072463501864D+04
 0.172072463501864D+04 -.000000000000000D+00 -.000000000000000D+00 -.172072463501864D+04
 0.744725983656933D+03 -.590366754263873D+03 0.278637461786071D+03 -.335886961764136D+03
 0.157413140270316D+04 0.548159384324439D+03 -.268553010597461D+03 0.145096183369940D+04
 0.678606305804702D+03 -.180362113497080D+02 0.346827037957452D+02 -.677479389661021D+03
 0.443985577872479D+03 0.602435812891415D+02 -.447671549843554D+02 -.437595482274240D+03
-.896131788667D-02 0.000000000000D+00 0.000000000000D+00 0.617278849293D-03 0.000000000000D+00  6 4 1 25 3 2 21 2 0.38378469D+00 0.18260320D+00 0.43467360D+06 0.43467360D+06 0.43467360D+06 0.10728346D+01  1  2 14  4  6  5        2 -.149054870113D-04 0.100000000000D+01
  </mgrwgt>
  </event>
  <event>
  6     66 -.16530072E-05 0.78214713E+02 0.75467711E-02 0.94285943E-01
        4 -1    0    0  501    0 0.00000000E+00 0.00000000E+00 0.42571180E+03 0.42571462E+03 0.15500000E+01 0.0000E+00 0.9000E+01
        1 -1    0    0  502    0 -.00000000E+00 -.00000000E+00 -.20392772E+04 0.20392772E+04 0.32000000E+00 0.0000E+00 0.9000E+01
       25  1    1    2    0    0 0.32354730E+02 -.49177194E+03 -.15734694E+03 0.53223071E+03 0.12500000E+03 0.0000E+00 0.9000E+01
        3  1    1    2  503    0 -.25832651E+02 0.11954962E+03 0.13892304E+03 0.18509267E+03 0.50000000E+00 0.0000E+00 0.9000E+01
        2  1    1    2  502    0 -.63432555E+02 0.30551136E+03 -.16252661E+04 0.16549474E+04 0.32000000E+00 0.0000E+00 0.9000E+01
       21  1    1    2  501  503 0.56910475E+02 0.66710968E+02 0.30124545E+02 0.92721120E+02 0.75000000E+00 0.0000E+00 0.9000E+01
#aMCatNLO 2  0  0  4  1 0.51305217D+02 0.00000000D+00  -5  6  0 0.00000000D+00 0.00000000D+00 0.00000000D+00 0.00000000D+00 0.00000000D+00
  <mgrwgt>
 -.4777393548D-04    2    2    0
 0.931744532844903D+03 0.000000000000000D+00 0.000000000000000D+00 0.931744532844903D+03
 0.931744532844903D+03 -.000000000000000D+00 -.000000000000000D+00 -.931744532844903D+03
 0.567745099292697D+03 0.321856531998970D+02 -.493242451019079D+03 0.249770826982780D+03
 0.509838860315103D+03 0.316192111946127D+02 0.189505309401015D+03 0.472253773600232D+03
 0.785905106082007D+03 -.638048643945097D+02 0.303737141618064D+03 -.722024600583012D+03
 0.000000000000000D+00 0.000000000000000D+00 0.000000000000000D+00 0.000000000000000D+00
 0.931744532844903D+03 0.000000000000000D+00 0.000000000000000D+00 0.931744532844903D+03
 0.931744532844903D+03 -.000000000000000D+00 -.000000000000000D+00 -.931744532844903D+03
 0.568101917361572D+03 0.324274917656894D+02 -.491793025479854D+03 0.253382845467195D+03
 0.364471755411986D+03 -.258740071753824D+02 0.119303030664906D+03 0.343419543881753D+03
 0.782079491033933D+03 -.634710173705785D+02 0.305738006951904D+03 -.717038375092239D+03
 0.148835901882315D+03 0.569175327802714D+02 0.667519878630436D+02 0.120235985743291D+03
-.182107341072D-03 0.000000000000D+00 0.000000000000D+00 0.649244172852D-05 0.000000000000D+00  6 4 1 25 3 2 21 2 0.65494341D-01 0.31373518D+00 0.26549399D+06 0.26549399D+06 0.26549399D+06 0.10884999D+01  1  2 13  3  6  4        3 -.727744165395D-04 0.100000000000D+01
0.625600499110D-04 0.000000000000D+00 0.000000000000D+00 0.649244172852D-05 0.219735289252D-08  6 4 1 25 3 2 21 2 0.65494341D-01 0.31373518D+00 0.26549399D+06 0.26549399D+06 0.26549399D+06 0.10884999D+01  1  2  1  3  6  4        3 0.250004810578D-04 0.100000000000D+01
  </mgrwgt>
  </event>
</LesHouchesEvents>
