<event>
 5    0  0.2159162E+000  0.2895025E+03  0.7546771E-02  0.1090609E+00
         21   -1    0    0  502  501  0.00000000000E+00  0.00000000000E+00  0.24091022996E+03  0.24091022996E+03  0.00000000000E+00 0. -1.
         21   -1    0    0  503  502 -0.00000000000E+00 -0.00000000000E+00 -0.36697262093E+03  0.36697262093E+03  0.00000000000E+00 0. -1.
         25    1    1    2    0    0 -0.26109969789E+03  0.36910521436E+01 -0.15411804472E+03  0.32796958367E+03  0.12500000000E+03 0.  0.
         21    1    1    2  503  504  0.10414284777E+03  0.42044696650E+02  0.30618158885E+02  0.11640859466E+03  0.00000000000E+00 0. -1.
         21    1    1    2  504  501  0.15695685012E+03 -0.45735748794E+02 -0.25625051282E+01  0.16350467256E+03  0.00000000000E+00 0. -1.
<mgrwt>
<rscale>  4 0.28950246E+03</rscale>
<asrwt>0</asrwt>
<pdfrwt beam="1">  1       21 0.37063112E-01 0.28950246E+03</pdfrwt>
<pdfrwt beam="2">  1       21 0.56457327E-01 0.28950246E+03</pdfrwt>
<totfact> 0.19729958E+04</totfact>
</mgrwt>
</event>
<event>
 5    0  0.2159162E+000  0.3702855E+03  0.7546771E-02  0.1054584E+00
         21   -1    0    0  502  501  0.00000000000E+00  0.00000000000E+00  0.10083754698E+03  0.10083754698E+03  0.00000000000E+00 0.  1.
         21   -1    0    0  503  502 -0.00000000000E+00 -0.00000000000E+00 -0.13352772546E+04  0.13352772546E+04  0.00000000000E+00 0.  1.
         25    1    1    2    0    0  0.31329559775E+03 -0.15274896818E+03 -0.62935346923E+03  0.73020351141E+03  0.12500000000E+03 0.  0.
         21    1    1    2  503  504 -0.86390791434E+02 -0.54748288218E+01 -0.15830344837E+03  0.18042539832E+03  0.00000000000E+00 0.  1.
         21    1    1    2  504  501 -0.22690480631E+03  0.15822379700E+03 -0.44678279000E+03  0.52548589182E+03  0.00000000000E+00 0.  1.
<mgrwt>
<rscale>  4 0.37028554E+03</rscale>
<asrwt>0</asrwt>
<pdfrwt beam="1">  1       21 0.15513470E-01 0.37028554E+03</pdfrwt>
<pdfrwt beam="2">  1       21 0.20542725E+00 0.37028554E+03</pdfrwt>
<totfact> 0.40511410E+03</totfact>
</mgrwt>
</event>
<event>
 5    0  0.2159162E+000  0.2053908E+03  0.7546771E-02  0.1145269E+00
         21   -1    0    0  502  501  0.00000000000E+00  0.00000000000E+00  0.55330379166E+03  0.55330379166E+03  0.00000000000E+00 0.  1.
         21   -1    0    0  503  502 -0.00000000000E+00 -0.00000000000E+00 -0.31205918898E+03  0.31205918898E+03  0.00000000000E+00 0. -1.
         25    1    1    2    0    0  0.19919216262E+03  0.90823531945E+02  0.43108605469E+03  0.49938624145E+03  0.12500000000E+03 0.  0.
         21    1    1    2  503  504 -0.60513088786E+02 -0.10836363441E+02  0.48882604285E+02  0.78541515702E+02  0.00000000000E+00 0. -1.
         21    1    1    2  504  501 -0.13867907383E+03 -0.79987168504E+02 -0.23872405629E+03  0.28743522348E+03  0.00000000000E+00 0. -1.
<mgrwt>
<rscale>  4 0.20539075E+03</rscale>
<asrwt>0</asrwt>
<pdfrwt beam="1">  1       21 0.85123660E-01 0.20539075E+03</pdfrwt>
<pdfrwt beam="2">  1       21 0.48009106E-01 0.20539075E+03</pdfrwt>
<totfact> 0.49027524E+03</totfact>
</mgrwt>
</event>
<event>
 5    0  0.2159162E+000  0.3349884E+03  0.7546771E-02  0.1068951E+00
         21   -1    0    0  502  501  0.00000000000E+00  0.00000000000E+00  0.99070837377E+03  0.99070837377E+03  0.00000000000E+00 0.  1.
         21   -1    0    0  503  502 -0.00000000000E+00 -0.00000000000E+00 -0.12217943298E+03  0.12217943298E+03  0.00000000000E+00 0. -1.
         25    1    1    2    0    0  0.17483712438E+03  0.25695177796E+03  0.64047348930E+03  0.72278871516E+03  0.12500000000E+03 0.  0.
         21    1    1    2  503  504 -0.14248547961E+03 -0.18743649752E+03  0.14248739983E+03  0.27520394549E+03  0.00000000000E+00 0. -1.
         21    1    1    2  504  501 -0.32351644773E+02 -0.69515280446E+02  0.85568051659E+02  0.11489514611E+03  0.00000000000E+00 0. -1.
<mgrwt>
<rscale>  4 0.33498841E+03</rscale>
<asrwt>0</asrwt>
<pdfrwt beam="1">  1       21 0.15241667E+00 0.33498841E+03</pdfrwt>
<pdfrwt beam="2">  1       21 0.18796837E-01 0.33498841E+03</pdfrwt>
<totfact> 0.68018946E+03</totfact>
</mgrwt>
</event>
<event>
 5    0  0.2548005E+000  0.3917495E+03  0.7546771E-02  0.1046675E+00
         21   -1    0    0  502  501  0.00000000000E+00  0.00000000000E+00  0.37027987654E+03  0.37027987654E+03  0.00000000000E+00 0.  1.
         21   -1    0    0  503  502 -0.00000000000E+00 -0.00000000000E+00 -0.40352265010E+03  0.40352265010E+03  0.00000000000E+00 0.  1.
         25    1    1    2    0    0 -0.15527573970E+03  0.33724193991E+03  0.19784232665E+02  0.39224876958E+03  0.12500000000E+03 0.  0.
         21    1    1    2  503  504  0.11529847026E+03 -0.28535140190E+03 -0.66037427773E+02  0.31476991863E+03  0.00000000000E+00 0.  1.
         21    1    1    2  504  501  0.39977269439E+02 -0.51890538016E+02  0.13010421542E+02  0.66783838435E+02  0.00000000000E+00 0.  1.
<mgrwt>
<rscale>  4 0.39174951E+03</rscale>
<asrwt>0</asrwt>
<pdfrwt beam="1">  1       21 0.56966135E-01 0.39174951E+03</pdfrwt>
<pdfrwt beam="2">  1       21 0.62080408E-01 0.39174951E+03</pdfrwt>
<totfact> 0.62852306E+03</totfact>
</mgrwt>
</event>
<event>
 5    0  0.2159162E+000  0.2728599E+03  0.7546771E-02  0.1099654E+00
         21   -1    0    0  502  501  0.00000000000E+00  0.00000000000E+00  0.15146353677E+04  0.15146353677E+04  0.00000000000E+00 0. -1.
         21   -1    0    0  503  502 -0.00000000000E+00 -0.00000000000E+00 -0.12321328496E+03  0.12321328496E+03  0.00000000000E+00 0.  1.
         25    1    1    2    0    0 -0.22105188133E+03 -0.99817672916E+02  0.13507942149E+04  0.13780774699E+04  0.12500000000E+03 0.  0.
         21    1    1    2  503  504  0.16439145856E+03  0.90155860096E+02  0.63438573435E+02  0.19793201701E+03  0.00000000000E+00 0.  1.
         21    1    1    2  504  501  0.56660422767E+02  0.96618128208E+01 -0.22810705560E+02  0.61839165771E+02  0.00000000000E+00 0.  1.
<mgrwt>
<rscale>  4 0.27285986E+03</rscale>
<asrwt>0</asrwt>
<pdfrwt beam="1">  1       21 0.23302081E+00 0.27285986E+03</pdfrwt>
<pdfrwt beam="2">  1       21 0.18955891E-01 0.27285986E+03</pdfrwt>
<totfact> 0.19842472E+03</totfact>
</mgrwt>
</event>
<event>
 5    0  0.2159162E+000  0.5526909E+03  0.7546771E-02  0.1000873E+00
         21   -1    0    0  502  501  0.00000000000E+00  0.00000000000E+00  0.14202272834E+04  0.14202272834E+04  0.00000000000E+00 0. -1.
         21   -1    0    0  503  502 -0.00000000000E+00 -0.00000000000E+00 -0.27775217877E+03  0.27775217877E+03  0.00000000000E+00 0. -1.
         25    1    1    2    0    0  0.25891269804E+03 -0.47202382643E+03  0.98076933563E+03  0.11257778500E+04  0.12500000000E+03 0.  0.
         21    1    1    2  503  504 -0.25894724663E+03  0.44636382767E+03  0.13142342983E+03  0.53250958780E+03  0.00000000000E+00 0. -1.
         21    1    1    2  504  501  0.34548587317E-01  0.25659998759E+02  0.30282339182E+02  0.39692024341E+02  0.00000000000E+00 0.  1.
<mgrwt>
<rscale>  4 0.55269094E+03</rscale>
<asrwt>0</asrwt>
<pdfrwt beam="1">  1       21 0.21849650E+00 0.55269094E+03</pdfrwt>
<pdfrwt beam="2">  1       21 0.42731105E-01 0.55269094E+03</pdfrwt>
<totfact> 0.42196082E+02</totfact>
</mgrwt>
</event>
