<event>
 5    0  0.2159162E+000  0.2452573E+03  0.7546771E-02  0.1116339E+00
         21   -1    0    0  502  501  0.00000000000E+00  0.00000000000E+00  0.66535523556E+03  0.66535523556E+03  0.00000000000E+00 0. -1.
         21   -1    0    0  503  502 -0.00000000000E+00 -0.00000000000E+00 -0.91777892264E+02  0.91777892264E+02  0.00000000000E+00 0.  1.
         25    1    1    2    0    0 -0.29704050709E+02 -0.20891097068E+03  0.16795825045E+03  0.29725594728E+03  0.12500000000E+03 0.  0.
         21    1    1    2  503  504  0.17033931114E+02  0.18542567925E+03  0.37853872919E+03  0.42185827813E+03  0.00000000000E+00 0.  1.
         21    1    1    2  504  501  0.12670119595E+02  0.23485291438E+02  0.27080363661E+02  0.38018902410E+02  0.00000000000E+00 0.  1.
<mgrwt>
<rscale>  4 0.24525726E+03</rscale>
<asrwt>0</asrwt>
<pdfrwt beam="1">  1       21 0.10236234E+00 0.24525726E+03</pdfrwt>
<pdfrwt beam="2">  1       21 0.14119676E-01 0.24525726E+03</pdfrwt>
<totfact> 0.33085447E+04</totfact>
</mgrwt>
</event>
<event>
 5    0  0.2306712E+000  0.2764730E+03  0.7546771E-02  0.1097631E+00
         21   -1    0    0  502  501  0.00000000000E+00  0.00000000000E+00  0.74490085591E+03  0.74490085591E+03  0.00000000000E+00 0. -1.
         21   -1    0    0  503  502 -0.00000000000E+00 -0.00000000000E+00 -0.93124687556E+02  0.93124687556E+02  0.00000000000E+00 0. -1.
         25    1    1    2    0    0 -0.73331544273E+02 -0.23544602259E+03  0.37359093015E+03  0.46476610034E+03  0.12500000000E+03 0.  0.
         21    1    1    2  503  504  0.56818747985E+02  0.21025680180E+03  0.23288358690E+03  0.31885899371E+03  0.00000000000E+00 0. -1.
         21    1    1    2  504  501  0.16512796289E+02  0.25189220790E+02  0.45301651295E+02  0.54400449404E+02  0.00000000000E+00 0. -1.
<mgrwt>
<rscale>  4 0.27647305E+03</rscale>
<asrwt>0</asrwt>
<pdfrwt beam="1">  1       21 0.11460013E+00 0.27647305E+03</pdfrwt>
<pdfrwt beam="2">  1       21 0.14326875E-01 0.27647305E+03</pdfrwt>
<totfact> 0.24125212E+04</totfact>
</mgrwt>
</event>
<event>
 5    0  0.2159162E+000  0.3204833E+03  0.7546771E-02  0.1075671E+00
         21   -1    0    0  502  501  0.00000000000E+00  0.00000000000E+00  0.22219041034E+04  0.22219041034E+04  0.00000000000E+00 0.  1.
         21   -1    0    0  503  502 -0.00000000000E+00 -0.00000000000E+00 -0.33347755012E+03  0.33347755012E+03  0.00000000000E+00 0. -1.
         25    1    1    2    0    0  0.10104214943E+03 -0.27481474478E+03  0.21302440306E+04  0.21539028042E+04  0.12500000000E+03 0.  0.
         21    1    1    2  503  504  0.18205547633E+02  0.13695340298E+03 -0.10090301046E+03  0.17108212669E+03  0.00000000000E+00 0. -1.
         21    1    1    2  504  501 -0.11924769707E+03  0.13786134180E+03 -0.14091446690E+03  0.23039672263E+03  0.00000000000E+00 0. -1.
<mgrwt>
<rscale>  4 0.31995299E+03</rscale>
<asrwt>0</asrwt>
<pdfrwt beam="1">  1       21 0.34183139E+00 0.32048334E+03</pdfrwt>
<pdfrwt beam="2">  1       21 0.51304240E-01 0.32048334E+03</pdfrwt>
<totfact> 0.59339401E+01</totfact>
</mgrwt>
</event>
<event>
 5    0  0.7265851E+000  0.2727869E+03  0.7546771E-02  0.1099695E+00
         21   -1    0    0  502  501  0.00000000000E+00  0.00000000000E+00  0.24873991907E+03  0.24873991907E+03  0.00000000000E+00 0. -1.
         21   -1    0    0  503  502 -0.00000000000E+00 -0.00000000000E+00 -0.32845230165E+03  0.32845230165E+03  0.00000000000E+00 0. -1.
         25    1    1    2    0    0 -0.21598894393E+03  0.11016567674E+03  0.68277812805E+02  0.28120199138E+03  0.12500000000E+03 0.  0.
         21    1    1    2  503  504  0.70422622998E+01 -0.32703863919E+02 -0.21124539276E+02  0.39564912905E+02  0.00000000000E+00 0.  1.
         21    1    1    2  504  501  0.20894668163E+03 -0.77461812823E+02 -0.12686565610E+03  0.25642531644E+03  0.00000000000E+00 0. -1.
<mgrwt>
<rscale>  4 0.27278691E+03</rscale>
<asrwt>0</asrwt>
<pdfrwt beam="1">  1       21 0.38267680E-01 0.27278691E+03</pdfrwt>
<pdfrwt beam="2">  1       21 0.50531123E-01 0.27278691E+03</pdfrwt>
<totfact> 0.23576379E+04</totfact>
</mgrwt>
</event>
<event>
 5    0  0.2159162E+000  0.2404760E+03  0.7546771E-02  0.1119476E+00
         21   -1    0    0  502  501  0.00000000000E+00  0.00000000000E+00  0.14106503823E+04  0.14106503823E+04  0.00000000000E+00 0. -1.
         21   -1    0    0  503  502 -0.00000000000E+00 -0.00000000000E+00 -0.16444449637E+03  0.16444449637E+03  0.00000000000E+00 0.  1.
         25    1    1    2    0    0 -0.11191772009E+03  0.17227343943E+03  0.13267265708E+04  0.13483442096E+04  0.12500000000E+03 0.  0.
         21    1    1    2  503  504  0.88344707454E+02 -0.14023387479E+03 -0.85785582452E+02  0.18662661421E+03  0.00000000000E+00 0.  1.
         21    1    1    2  504  501  0.23573012640E+02 -0.32039564635E+02  0.52648975583E+01  0.40124054795E+02  0.00000000000E+00 0.  1.
<mgrwt>
<rscale>  4 0.24047602E+03</rscale>
<asrwt>0</asrwt>
<pdfrwt beam="1">  1       21 0.21702313E+00 0.24047602E+03</pdfrwt>
<pdfrwt beam="2">  1       21 0.25299154E-01 0.24047602E+03</pdfrwt>
<totfact> 0.14803963E+03</totfact>
</mgrwt>
</event>
<event>
 5    0  0.2945844E+000  0.2408290E+03  0.7546771E-02  0.1119242E+00
         21   -1    0    0  502  501  0.00000000000E+00  0.00000000000E+00  0.93223969056E+02  0.93223969056E+02  0.00000000000E+00 0. -1.
         21   -1    0    0  503  502 -0.00000000000E+00 -0.00000000000E+00 -0.78793272501E+03  0.78793272501E+03  0.00000000000E+00 0. -1.
         25    1    1    2    0    0 -0.33860303154E+02  0.21534121340E+03 -0.17321680837E+03  0.30520062422E+03  0.12500000000E+03 0.  0.
         21    1    1    2  503  504  0.42308546732E+02 -0.26472963585E+02 -0.16570719180E+03  0.17305982879E+03  0.00000000000E+00 0. -1.
         21    1    1    2  504  501 -0.84482435778E+01 -0.18886824982E+03 -0.35578475579E+03  0.40289624106E+03  0.00000000000E+00 0. -1.
<mgrwt>
<rscale>  4 0.24082903E+03</rscale>
<asrwt>0</asrwt>
<pdfrwt beam="1">  1       21 0.14342149E-01 0.24082903E+03</pdfrwt>
<pdfrwt beam="2">  1       21 0.12122042E+00 0.24082903E+03</pdfrwt>
<totfact> 0.21308491E+04</totfact>
</mgrwt>
</event>
<event>
 5    0  0.2159162E+000  0.2368643E+03  0.7546771E-02  0.1121900E+00
         21   -1    0    0  502  501  0.00000000000E+00  0.00000000000E+00  0.72970159445E+03  0.72970159445E+03  0.00000000000E+00 0.  1.
         21   -1    0    0  503  502 -0.00000000000E+00 -0.00000000000E+00 -0.39862899662E+03  0.39862899662E+03  0.00000000000E+00 0.  1.
         25    1    1    2    0    0  0.11840244150E+02  0.20294727895E+03  0.67424862820E+03  0.71523702508E+03  0.12500000000E+03 0.  0.
         21    1    1    2  503  504  0.10950430348E+02 -0.38815927397E+02 -0.10880038091E+02  0.41772758747E+02  0.00000000000E+00 0. -1.
         21    1    1    2  504  501 -0.22790674498E+02 -0.16413135155E+03 -0.33229599228E+03  0.37132080724E+03  0.00000000000E+00 0.  1.
<mgrwt>
<rscale>  4 0.23686434E+03</rscale>
<asrwt>0</asrwt>
<pdfrwt beam="1">  1       21 0.11226178E+00 0.23686434E+03</pdfrwt>
<pdfrwt beam="2">  1       21 0.61327538E-01 0.23686434E+03</pdfrwt>
<totfact> 0.14777867E+03</totfact>
</mgrwt>
</event>
<event>
 5    0  0.2159162E+000  0.2290857E+03  0.7546771E-02  0.1127285E+00
         21   -1    0    0  502  501  0.00000000000E+00  0.00000000000E+00  0.50153688035E+02  0.50153688035E+02  0.00000000000E+00 0.  1.
         21   -1    0    0  503  502 -0.00000000000E+00 -0.00000000000E+00 -0.22644695068E+04  0.22644695068E+04  0.00000000000E+00 0.  1.
         25    1    1    2    0    0  0.24379417822E+03  0.15466959487E+03 -0.93478152374E+03  0.98630612998E+03  0.12500000000E+03 0.  0.
         21    1    1    2  503  504 -0.81775109697E+02 -0.14843082020E+03 -0.89654027873E+03  0.91241621442E+03  0.00000000000E+00 0.  1.
         21    1    1    2  504  501 -0.16201906852E+03 -0.62387746764E+01 -0.38299401626E+03  0.41590085040E+03  0.00000000000E+00 0.  1.
<mgrwt>
<rscale>  4 0.22908569E+03</rscale>
<asrwt>0</asrwt>
<pdfrwt beam="1">  1       21 0.77159536E-02 0.22908569E+03</pdfrwt>
<pdfrwt beam="2">  1       21 0.34837985E+00 0.22908569E+03</pdfrwt>
<totfact> 0.21814824E+03</totfact>
</mgrwt>
</event>
<event>
 5    0  0.2159162E+000  0.2947172E+03  0.7546771E-02  0.1087912E+00
         21   -1    0    0  502  501  0.00000000000E+00  0.00000000000E+00  0.99872723036E+02  0.99872723036E+02  0.00000000000E+00 0. -1.
         21   -1    0    0  503  502 -0.00000000000E+00 -0.00000000000E+00 -0.11611979793E+04  0.11611979793E+04  0.00000000000E+00 0. -1.
         25    1    1    2    0    0 -0.24701753985E+03  0.10107203091E+03 -0.19690044500E+03  0.35444041201E+03  0.12500000000E+03 0.  0.
         21    1    1    2  503  504  0.16198035001E+03 -0.40635905686E+02 -0.58480987373E+03  0.60818705924E+03  0.00000000000E+00 0. -1.
         21    1    1    2  504  501  0.85037189838E+02 -0.60436125226E+02 -0.27961493759E+03  0.29844323114E+03  0.00000000000E+00 0.  1.
<mgrwt>
<rscale>  4 0.29471719E+03</rscale>
<asrwt>0</asrwt>
<pdfrwt beam="1">  1       21 0.15365033E-01 0.29471719E+03</pdfrwt>
<pdfrwt beam="2">  1       21 0.17864585E+00 0.29471719E+03</pdfrwt>
<totfact> 0.64977959E+03</totfact>
</mgrwt>
</event>
<event>
 5    0  0.2726644E+000  0.2785777E+03  0.7546771E-02  0.1096468E+00
         21   -1    0    0  502  501  0.00000000000E+00  0.00000000000E+00  0.51493598127E+02  0.51493598127E+02  0.00000000000E+00 0. -1.
         21   -1    0    0  503  502 -0.00000000000E+00 -0.00000000000E+00 -0.14386188955E+04  0.14386188955E+04  0.00000000000E+00 0. -1.
         25    1    1    2    0    0  0.24560391269E+03 -0.40734223080E+02 -0.56067961397E+03  0.62607282993E+03  0.12500000000E+03 0.  0.
         21    1    1    2  503  504 -0.24410077128E+02  0.79672366715E+01 -0.52562260657E+02  0.58498888630E+02  0.00000000000E+00 0. -1.
         21    1    1    2  504  501 -0.22119383556E+03  0.32766986409E+02 -0.77388342271E+03  0.80554077503E+03  0.00000000000E+00 0. -1.
<mgrwt>
<rscale>  4 0.27857774E+03</rscale>
<asrwt>0</asrwt>
<pdfrwt beam="1">  1       21 0.79220931E-02 0.27857774E+03</pdfrwt>
<pdfrwt beam="2">  1       21 0.22132595E+00 0.27857774E+03</pdfrwt>
<totfact> 0.11311112E+04</totfact>
</mgrwt>
</event>
<event>
 5    0  0.2159162E+000  0.2474715E+03  0.7546771E-02  0.1114913E+00
         21   -1    0    0  502  501  0.00000000000E+00  0.00000000000E+00  0.10401552367E+03  0.10401552367E+03  0.00000000000E+00 0.  1.
         21   -1    0    0  503  502 -0.00000000000E+00 -0.00000000000E+00 -0.53411376156E+03  0.53411376156E+03  0.00000000000E+00 0.  1.
         25    1    1    2    0    0  0.59678293858E+02 -0.20507475876E+03 -0.27288809517E+03  0.36838847420E+03  0.12500000000E+03 0.  0.
         21    1    1    2  503  504 -0.65023364379E+02  0.15496576080E+03 -0.11129062084E+03  0.20156395318E+03  0.00000000000E+00 0.  1.
         21    1    1    2  504  501  0.53450705210E+01  0.50108997968E+02 -0.45919521883E+02  0.68176857850E+02  0.00000000000E+00 0.  1.
<mgrwt>
<rscale>  4 0.24747152E+03</rscale>
<asrwt>0</asrwt>
<pdfrwt beam="1">  1       21 0.16002388E-01 0.24747152E+03</pdfrwt>
<pdfrwt beam="2">  1       21 0.82171348E-01 0.24747152E+03</pdfrwt>
<totfact> 0.43966630E+04</totfact>
</mgrwt>
</event>
