<event>
 5    0  0.1856407E+000  0.3230229E+03  0.7546771E-02  0.1074266E+00
         21   -1    0    0  502  501  0.00000000000E+00  0.00000000000E+00  0.10330988773E+04  0.10330988773E+04  0.00000000000E+00 0.  1.
         21   -1    0    0  503  502 -0.00000000000E+00 -0.00000000000E+00 -0.11986061364E+03  0.11986061364E+03  0.00000000000E+00 0.  1.
         25    1    1    2    0    0  0.26952934793E+03 -0.13660003175E+03  0.32325712501E+03  0.45981062073E+03  0.12500000000E+03 0.  0.
         21    1    1    2  503  504 -0.28510284292E+03  0.79093143306E+02  0.42588966738E+03  0.51857628671E+03  0.00000000000E+00 0.  1.
         21    1    1    2  504  501  0.15573494988E+02  0.57506888443E+02  0.16409147130E+03  0.17457258352E+03  0.00000000000E+00 0.  1.
<mgrwt>
<rscale>  4 0.32302289E+03</rscale>
<asrwt>0</asrwt>
<pdfrwt beam="1">  1       21 0.15893828E+00 0.32302289E+03</pdfrwt>
<pdfrwt beam="2">  1       21 0.18440095E-01 0.32302289E+03</pdfrwt>
<totfact> 0.63272756E+03</totfact>
</mgrwt>
</event>
<event>
 5    0  0.1856407E+000  0.2461543E+03  0.7546771E-02  0.1115760E+00
         21   -1    0    0  502  501  0.00000000000E+00  0.00000000000E+00  0.98383042085E+03  0.98383042085E+03  0.00000000000E+00 0. -1.
         21   -1    0    0  503  502 -0.00000000000E+00 -0.00000000000E+00 -0.15292008538E+03  0.15292008538E+03  0.00000000000E+00 0.  1.
         25    1    1    2    0    0  0.10928447889E+03 -0.18172456761E+03  0.87637238136E+03  0.91028592574E+03  0.12500000000E+03 0.  0.
         21    1    1    2  503  504 -0.54593625880E+02  0.78331942203E+02  0.11849305759E+02  0.96212074102E+02  0.00000000000E+00 0.  1.
         21    1    1    2  504  501 -0.54690853014E+02  0.10339262540E+03 -0.57311351642E+02  0.13025250638E+03  0.00000000000E+00 0.  1.
<mgrwt>
<rscale>  4 0.24615425E+03</rscale>
<asrwt>0</asrwt>
<pdfrwt beam="1">  1       21 0.15135852E+00 0.24615425E+03</pdfrwt>
<pdfrwt beam="2">  1       21 0.23526168E-01 0.24615425E+03</pdfrwt>
<totfact> 0.47626298E+03</totfact>
</mgrwt>
</event>
<event>
 5    0  0.1856407E+000  0.3483496E+03  0.7546771E-02  0.1063294E+00
         21   -1    0    0  502  501  0.00000000000E+00  0.00000000000E+00  0.19316751894E+03  0.19316751894E+03  0.00000000000E+00 0. -1.
         21   -1    0    0  503  502 -0.00000000000E+00 -0.00000000000E+00 -0.15169609567E+04  0.15169609567E+04  0.00000000000E+00 0. -1.
         25    1    1    2    0    0 -0.32102236682E+03 -0.11751843815E+03 -0.38920066271E+02  0.36606791017E+03  0.12500000000E+03 0.  0.
         21    1    1    2  503  504  0.58430412406E+02  0.51363736532E+02 -0.63895735710E+03  0.64367604485E+03  0.00000000000E+00 0. -1.
         21    1    1    2  504  501  0.26259195441E+03  0.66154701619E+02 -0.64591601435E+03  0.70038452058E+03  0.00000000000E+00 0. -1.
<mgrwt>
<rscale>  4 0.34834964E+03</rscale>
<asrwt>0</asrwt>
<pdfrwt beam="1">  1       21 0.29718081E-01 0.34834964E+03</pdfrwt>
<pdfrwt beam="2">  1       21 0.23337860E+00 0.34834964E+03</pdfrwt>
<totfact> 0.78832483E+02</totfact>
</mgrwt>
</event>
<event>
 5    0  0.1856407E+000  0.2584464E+03  0.7546771E-02  0.1108080E+00
         21   -1    0    0  502  501  0.00000000000E+00  0.00000000000E+00  0.60626618629E+03  0.60626618629E+03  0.00000000000E+00 0. -1.
         21   -1    0    0  503  502 -0.00000000000E+00 -0.00000000000E+00 -0.14096196890E+03  0.14096196890E+03  0.00000000000E+00 0.  1.
         25    1    1    2    0    0  0.22404669393E+03  0.31187026740E+02  0.43145713611E+03  0.50294116156E+03  0.12500000000E+03 0.  0.
         21    1    1    2  503  504 -0.13021546007E+03 -0.36616775524E+02  0.58106777181E+02  0.14721838148E+03  0.00000000000E+00 0.  1.
         21    1    1    2  504  501 -0.93831233856E+02  0.54297487843E+01 -0.24259695891E+02  0.97068612144E+02  0.00000000000E+00 0.  1.
<mgrwt>
<rscale>  4 0.25844642E+03</rscale>
<asrwt>0</asrwt>
<pdfrwt beam="1">  1       21 0.93271719E-01 0.25844642E+03</pdfrwt>
<pdfrwt beam="2">  1       21 0.21686457E-01 0.25844642E+03</pdfrwt>
<totfact> 0.18485736E+04</totfact>
</mgrwt>
</event>
<event>
 5    0  0.1856407E+000  0.2481601E+03  0.7546771E-02  0.1114473E+00
         21   -1    0    0  502  501  0.00000000000E+00  0.00000000000E+00  0.58660502538E+03  0.58660502538E+03  0.00000000000E+00 0.  1.
         21   -1    0    0  503  502 -0.00000000000E+00 -0.00000000000E+00 -0.11686554890E+04  0.11686554890E+04  0.00000000000E+00 0.  1.
         25    1    1    2    0    0  0.45197136976E+02 -0.20956064497E+03  0.54938481679E+03  0.60283258209E+03  0.12500000000E+03 0.  0.
         21    1    1    2  503  504 -0.48947879815E+01  0.39861877758E+02 -0.31639395353E+03  0.31893269208E+03  0.00000000000E+00 0.  1.
         21    1    1    2  504  501 -0.40302348994E+02  0.16969876721E+03 -0.81504132684E+03  0.83349524017E+03  0.00000000000E+00 0.  1.
<mgrwt>
<rscale>  4 0.24816012E+03</rscale>
<asrwt>0</asrwt>
<pdfrwt beam="1">  1       21 0.90246928E-01 0.24816012E+03</pdfrwt>
<pdfrwt beam="2">  1       21 0.17979315E+00 0.24816012E+03</pdfrwt>
<totfact> 0.17852609E+02</totfact>
</mgrwt>
</event>
<event>
 5    0  0.1856407E+000  0.2892739E+03  0.7546771E-02  0.1090729E+00
         21   -1    0    0  502  501  0.00000000000E+00  0.00000000000E+00  0.12125982537E+04  0.12125982537E+04  0.00000000000E+00 0. -1.
         21   -1    0    0  503  502 -0.00000000000E+00 -0.00000000000E+00 -0.64711880469E+03  0.64711880469E+03  0.00000000000E+00 0.  1.
         25    1    1    2    0    0  0.26981826126E+03 -0.14299803684E+02  0.11360446521E+04  0.11744057349E+04  0.12500000000E+03 0.  0.
         21    1    1    2  503  504 -0.91535995086E+02  0.70697569973E+02 -0.44570278510E+03  0.46046493617E+03  0.00000000000E+00 0.  1.
         21    1    1    2  504  501 -0.17828226617E+03 -0.56397766290E+02 -0.12486241801E+03  0.22484638735E+03  0.00000000000E+00 0. -1.
<mgrwt>
<rscale>  4 0.28927386E+03</rscale>
<asrwt>0</asrwt>
<pdfrwt beam="1">  1       21 0.18655358E+00 0.28927386E+03</pdfrwt>
<pdfrwt beam="2">  1       21 0.99556740E-01 0.28927386E+03</pdfrwt>
<totfact> 0.12229706E+02</totfact>
</mgrwt>
</event>
<event>
 5    0  0.2867197E+000  0.2755718E+03  0.7546771E-02  0.1098132E+00
         21   -1    0    0  502  501  0.00000000000E+00  0.00000000000E+00  0.76477380846E+03  0.76477380846E+03  0.00000000000E+00 0.  1.
         21   -1    0    0  503  502 -0.00000000000E+00 -0.00000000000E+00 -0.12420266994E+03  0.12420266994E+03  0.00000000000E+00 0.  1.
         25    1    1    2    0    0 -0.26589482111E+03 -0.10474520048E+02  0.22583916865E+03  0.37072645112E+03  0.12500000000E+03 0.  0.
         21    1    1    2  503  504  0.41884280349E+02  0.57995356984E+02  0.16263909435E+03  0.17767731815E+03  0.00000000000E+00 0. -1.
         21    1    1    2  504  501  0.22401054076E+03 -0.47520836935E+02  0.25209287553E+03  0.34057270913E+03  0.00000000000E+00 0.  1.
<mgrwt>
<rscale>  4 0.27557179E+03</rscale>
<asrwt>0</asrwt>
<pdfrwt beam="1">  1       21 0.11765751E+00 0.27557179E+03</pdfrwt>
<pdfrwt beam="2">  1       21 0.19108104E-01 0.27557179E+03</pdfrwt>
<totfact> 0.13270328E+04</totfact>
</mgrwt>
</event>
<event>
 5    0  0.1856407E+000  0.5542867E+03  0.7546771E-02  0.1000507E+00
         21   -1    0    0  502  501  0.00000000000E+00  0.00000000000E+00  0.14607026335E+04  0.14607026335E+04  0.00000000000E+00 0. -1.
         21   -1    0    0  503  502 -0.00000000000E+00 -0.00000000000E+00 -0.27162261023E+03  0.27162261023E+03  0.00000000000E+00 0. -1.
         25    1    1    2    0    0  0.49481429689E+03 -0.21625814118E+03  0.17521959148E+03  0.58132235229E+03  0.12500000000E+03 0.  0.
         21    1    1    2  503  504 -0.18430035346E+02  0.14412035492E+02  0.80557460146E+02  0.83886097508E+02  0.00000000000E+00 0.  1.
         21    1    1    2  504  501 -0.47638426154E+03  0.20184610569E+03  0.93330297160E+03  0.10671167939E+04  0.00000000000E+00 0. -1.
<mgrwt>
<rscale>  4 0.55428672E+03</rscale>
<asrwt>0</asrwt>
<pdfrwt beam="1">  1       21 0.22472348E+00 0.55428672E+03</pdfrwt>
<pdfrwt beam="2">  1       21 0.41788095E-01 0.55428672E+03</pdfrwt>
<totfact> 0.40284308E+02</totfact>
</mgrwt>
</event>
<event>
 5    0  0.1856407E+000  0.2074786E+03  0.7546771E-02  0.1143578E+00
         21   -1    0    0  502  501  0.00000000000E+00  0.00000000000E+00  0.73083491828E+02  0.73083491828E+02  0.00000000000E+00 0.  1.
         21   -1    0    0  503  502 -0.00000000000E+00 -0.00000000000E+00 -0.88859548628E+03  0.88859548628E+03  0.00000000000E+00 0.  1.
         25    1    1    2    0    0 -0.12709179144E+03  0.15778263777E+03 -0.30689318650E+03  0.38840199813E+03  0.12500000000E+03 0.  0.
         21    1    1    2  503  504  0.17195804695E+02 -0.48308835227E+02 -0.11544411348E+02  0.52561513424E+02  0.00000000000E+00 0.  1.
         21    1    1    2  504  501  0.10989598675E+03 -0.10947380254E+03 -0.49707439660E+03  0.52071546655E+03  0.00000000000E+00 0.  1.
<mgrwt>
<rscale>  4 0.20747863E+03</rscale>
<asrwt>0</asrwt>
<pdfrwt beam="1">  1       21 0.11243615E-01 0.20747863E+03</pdfrwt>
<pdfrwt beam="2">  1       21 0.13670699E+00 0.20747863E+03</pdfrwt>
<totfact> 0.24845316E+04</totfact>
</mgrwt>
</event>
<event>
 5    0  0.1856407E+000  0.3040729E+03  0.7546771E-02  0.1083222E+00
         21   -1    0    0  502  501  0.00000000000E+00  0.00000000000E+00  0.26058489101E+04  0.26058489101E+04  0.00000000000E+00 0. -1.
         21   -1    0    0  503  502 -0.00000000000E+00 -0.00000000000E+00 -0.43154997916E+02  0.43154997916E+02  0.00000000000E+00 0. -1.
         25    1    1    2    0    0  0.25278776166E+03  0.11372631559E+03  0.19740304174E+04  0.19973122981E+04  0.12500000000E+03 0.  0.
         21    1    1    2  503  504 -0.29175806929E+02 -0.59169964944E+01  0.44012137576E+02  0.53134798499E+02  0.00000000000E+00 0. -1.
         21    1    1    2  504  501 -0.22361195474E+03 -0.10780931909E+03  0.54465135713E+03  0.59855681134E+03  0.00000000000E+00 0. -1.
<mgrwt>
<rscale>  4 0.30407290E+03</rscale>
<asrwt>0</asrwt>
<pdfrwt beam="1">  1       21 0.40089971E+00 0.30407290E+03</pdfrwt>
<pdfrwt beam="2">  1       21 0.66392325E-02 0.30407290E+03</pdfrwt>
<totfact> 0.12495035E+03</totfact>
</mgrwt>
</event>
<event>
 5    0  0.1856407E+000  0.2338997E+03  0.7546771E-02  0.1123925E+00
         21   -1    0    0  502  501  0.00000000000E+00  0.00000000000E+00  0.42269363754E+03  0.42269363754E+03  0.00000000000E+00 0. -1.
         21   -1    0    0  503  502 -0.00000000000E+00 -0.00000000000E+00 -0.39231393873E+03  0.39231393873E+03  0.00000000000E+00 0.  1.
         25    1    1    2    0    0  0.11214352560E+03 -0.16627169941E+03  0.34690724279E+03  0.41975240733E+03  0.12500000000E+03 0.  0.
         21    1    1    2  503  504 -0.36847908711E+02  0.10421363115E+02 -0.46598457718E+01  0.38575735225E+02  0.00000000000E+00 0.  1.
         21    1    1    2  504  501 -0.75295616892E+02  0.15585033630E+03 -0.31186769821E+03  0.35667943371E+03  0.00000000000E+00 0.  1.
<mgrwt>
<rscale>  4 0.23389971E+03</rscale>
<asrwt>0</asrwt>
<pdfrwt beam="1">  1       21 0.65029790E-01 0.23389971E+03</pdfrwt>
<pdfrwt beam="2">  1       21 0.60355991E-01 0.23389971E+03</pdfrwt>
<totfact> 0.54075710E+03</totfact>
</mgrwt>
</event>
<event>
 5    0  0.1856407E+000  0.3194976E+03  0.7546771E-02  0.1075881E+00
         21   -1    0    0  502  501  0.00000000000E+00  0.00000000000E+00  0.50683113336E+03  0.50683113336E+03  0.00000000000E+00 0.  1.
         21   -1    0    0  503  502 -0.00000000000E+00 -0.00000000000E+00 -0.20969218039E+03  0.20969218039E+03  0.00000000000E+00 0.  1.
         25    1    1    2    0    0 -0.58136337994E+02 -0.28822536630E+03  0.41031713000E+02  0.32212155632E+03  0.12500000000E+03 0.  0.
         21    1    1    2  503  504  0.24909807110E+02  0.58114210824E+02  0.29617540840E+02  0.69820904573E+02  0.00000000000E+00 0.  1.
         21    1    1    2  504  501  0.33226530885E+02  0.23011115547E+03  0.22648969913E+03  0.32458085285E+03  0.00000000000E+00 0.  1.
<mgrwt>
<rscale>  4 0.31949757E+03</rscale>
<asrwt>0</asrwt>
<pdfrwt beam="1">  1       21 0.77974020E-01 0.31949757E+03</pdfrwt>
<pdfrwt beam="2">  1       21 0.32260335E-01 0.31949757E+03</pdfrwt>
<totfact> 0.12604054E+04</totfact>
</mgrwt>
</event>
<event>
 5    0  0.1985620E+000  0.2463796E+03  0.7546771E-02  0.1115614E+00
         21   -1    0    0  502  501  0.00000000000E+00  0.00000000000E+00  0.41889682411E+03  0.41889682411E+03  0.00000000000E+00 0. -1.
         21   -1    0    0  503  502 -0.00000000000E+00 -0.00000000000E+00 -0.14478976401E+03  0.14478976401E+03  0.00000000000E+00 0. -1.
         25    1    1    2    0    0 -0.46261753406E+02  0.20721432498E+03  0.22584660447E+03  0.33422988354E+03  0.12500000000E+03 0.  0.
         21    1    1    2  503  504  0.12423994064E+02 -0.17971141150E+03  0.32245022388E+02  0.18300352051E+03  0.00000000000E+00 0. -1.
         21    1    1    2  504  501  0.33837759342E+02 -0.27502913478E+02  0.16015433248E+02  0.46453184059E+02  0.00000000000E+00 0. -1.
<mgrwt>
<rscale>  4 0.24637964E+03</rscale>
<asrwt>0</asrwt>
<pdfrwt beam="1">  1       21 0.64445665E-01 0.24637964E+03</pdfrwt>
<pdfrwt beam="2">  1       21 0.22275348E-01 0.24637964E+03</pdfrwt>
<totfact> 0.40815220E+04</totfact>
</mgrwt>
</event>
<event>
 5    0  0.1856407E+000  0.3347599E+03  0.7546771E-02  0.1069050E+00
         21   -1    0    0  502  501  0.00000000000E+00  0.00000000000E+00  0.13342579463E+04  0.13342579463E+04  0.00000000000E+00 0.  1.
         21   -1    0    0  503  502 -0.00000000000E+00 -0.00000000000E+00 -0.21932504736E+03  0.21932504736E+03  0.00000000000E+00 0.  1.
         25    1    1    2    0    0 -0.34078975816E+03  0.13167647575E+03  0.31121651098E+03  0.49594059144E+03  0.12500000000E+03 0.  0.
         21    1    1    2  503  504  0.61878831789E+02 -0.32189459605E+03  0.26330201379E+03  0.42044389787E+03  0.00000000000E+00 0.  1.
         21    1    1    2  504  501  0.27891092637E+03  0.19021812030E+03  0.54041437417E+03  0.63719850435E+03  0.00000000000E+00 0.  1.
<mgrwt>
<rscale>  4 0.33475991E+03</rscale>
<asrwt>0</asrwt>
<pdfrwt beam="1">  1       21 0.20527045E+00 0.33475991E+03</pdfrwt>
<pdfrwt beam="2">  1       21 0.33742316E-01 0.33475991E+03</pdfrwt>
<totfact> 0.93077602E+02</totfact>
</mgrwt>
</event>
<event>
 5    0  0.1856407E+000  0.3148318E+03  0.7546771E-02  0.1078053E+00
         21   -1    0    0  502  501  0.00000000000E+00  0.00000000000E+00  0.12375762127E+04  0.12375762127E+04  0.00000000000E+00 0. -1.
         21   -1    0    0  503  502 -0.00000000000E+00 -0.00000000000E+00 -0.10509763654E+03  0.10509763654E+03  0.00000000000E+00 0.  1.
         25    1    1    2    0    0  0.28027298021E+03  0.70293248154E+02  0.94088071805E+03  0.99215704894E+03  0.12500000000E+03 0.  0.
         21    1    1    2  503  504 -0.55311423215E+02 -0.34592027661E+02  0.34303795699E+02  0.73706935326E+02  0.00000000000E+00 0.  1.
         21    1    1    2  504  501 -0.22496155699E+03 -0.35701220493E+02  0.15729406236E+03  0.27680986493E+03  0.00000000000E+00 0.  1.
<mgrwt>
<rscale>  4 0.31483183E+03</rscale>
<asrwt>0</asrwt>
<pdfrwt beam="1">  1       21 0.19039633E+00 0.31483183E+03</pdfrwt>
<pdfrwt beam="2">  1       21 0.16168868E-01 0.31483183E+03</pdfrwt>
<totfact> 0.48591680E+03</totfact>
</mgrwt>
</event>
<event>
 5    0  0.2734202E+000  0.2692789E+03  0.7546771E-02  0.1101693E+00
         21   -1    0    0  502  501  0.00000000000E+00  0.00000000000E+00  0.37085996881E+03  0.37085996881E+03  0.00000000000E+00 0. -1.
         21   -1    0    0  503  502 -0.00000000000E+00 -0.00000000000E+00 -0.17857102170E+03  0.17857102170E+03  0.00000000000E+00 0. -1.
         25    1    1    2    0    0 -0.18864223853E+03  0.14594606638E+03  0.13580344672E+03  0.30158535208E+03  0.12500000000E+03 0.  0.
         21    1    1    2  503  504  0.17362086737E+03 -0.12120003013E+03  0.43712741222E+02  0.21620466377E+03  0.00000000000E+00 0. -1.
         21    1    1    2  504  501  0.15021371159E+02 -0.24746036245E+02  0.12772759164E+02  0.31640974669E+02  0.00000000000E+00 0. -1.
<mgrwt>
<rscale>  4 0.26927894E+03</rscale>
<asrwt>0</asrwt>
<pdfrwt beam="1">  1       21 0.57055379E-01 0.26927894E+03</pdfrwt>
<pdfrwt beam="2">  1       21 0.27472465E-01 0.26927894E+03</pdfrwt>
<totfact> 0.35194588E+04</totfact>
</mgrwt>
</event>
