<event>
 5    0  0.1531977E+001  0.3241307E+03  0.7546771E-02  0.1073764E+00
         21   -1    0    0  502  501  0.00000000000E+00  0.00000000000E+00  0.44487550575E+03  0.44487550575E+03  0.00000000000E+00 0. -1.
         21   -1    0    0  504  502 -0.00000000000E+00 -0.00000000000E+00 -0.43649038774E+03  0.43649038774E+03  0.00000000000E+00 0. -1.
         25    1    1    2    0    0 -0.18163935745E+03 -0.23994340511E+03  0.22061850917E+03  0.39352664512E+03  0.12500000000E+03 0.  0.
         21    1    1    2  503  501  0.18093859231E+02 -0.10110744845E+02  0.72320154936E+02  0.75231773295E+02  0.00000000000E+00 0.  1.
         21    1    1    2  504  503  0.16354549822E+03  0.25005414995E+03 -0.28455354610E+03  0.41260747508E+03  0.00000000000E+00 0. -1.
<mgrwt>
<rscale>  4 0.32413068E+03</rscale>
<asrwt>0</asrwt>
<pdfrwt beam="1">  1       21 0.68442386E-01 0.32413068E+03</pdfrwt>
<pdfrwt beam="2">  1       21 0.67152367E-01 0.32413068E+03</pdfrwt>
<totfact> 0.36349159E+03</totfact>
</mgrwt>
</event>
<event>
 5    0  0.1531977E+001  0.2979889E+03  0.7546771E-02  0.1086250E+00
         21   -1    0    0  503  501  0.00000000000E+00  0.00000000000E+00  0.62743291837E+03  0.62743291837E+03  0.00000000000E+00 0.  1.
         21   -1    0    0  504  502 -0.00000000000E+00 -0.00000000000E+00 -0.27095460427E+03  0.27095460427E+03  0.00000000000E+00 0.  1.
         25    1    1    2    0    0 -0.22093354791E+03  0.18488313494E+03 -0.52243760217E+02  0.31835171848E+03  0.12500000000E+03 0.  0.
         21    1    1    2  503  502  0.19529217987E+01 -0.31741620101E+02 -0.44026803907E+02  0.54311175760E+02  0.00000000000E+00 0. -1.
         21    1    1    2  504  501  0.21898062611E+03 -0.15314151483E+03  0.45274887823E+03  0.52572462841E+03  0.00000000000E+00 0.  1.
<mgrwt>
<rscale>  4 0.29798886E+03</rscale>
<asrwt>0</asrwt>
<pdfrwt beam="1">  1       21 0.96528141E-01 0.29798886E+03</pdfrwt>
<pdfrwt beam="2">  1       21 0.41685324E-01 0.29798886E+03</pdfrwt>
<totfact> 0.46156235E+03</totfact>
</mgrwt>
</event>
<event>
 5    0  0.1531977E+001  0.2822312E+03  0.7546771E-02  0.1094477E+00
         21   -1    0    0  502  501  0.00000000000E+00  0.00000000000E+00  0.13766880644E+04  0.13766880644E+04  0.00000000000E+00 0. -1.
         21   -1    0    0  504  502 -0.00000000000E+00 -0.00000000000E+00 -0.30805185986E+03  0.30805185986E+03  0.00000000000E+00 0. -1.
         25    1    1    2    0    0 -0.38938395123E+03 -0.27012658682E+01  0.10330924052E+04  0.11110949897E+04  0.12500000000E+03 0.  0.
         21    1    1    2  503  501  0.14407607270E+03  0.52004493887E+00  0.22259242640E+03  0.26515198182E+03  0.00000000000E+00 0. -1.
         21    1    1    2  504  503  0.24530787853E+03  0.21812209293E+01 -0.18704862711E+03  0.30849295275E+03  0.00000000000E+00 0. -1.
<mgrwt>
<rscale>  4 0.28223120E+03</rscale>
<asrwt>0</asrwt>
<pdfrwt beam="1">  1       21 0.21179816E+00 0.28223120E+03</pdfrwt>
<pdfrwt beam="2">  1       21 0.47392595E-01 0.28223120E+03</pdfrwt>
<totfact> 0.43880490E+02</totfact>
</mgrwt>
</event>
<event>
 5    0  0.1531977E+001  0.2724145E+03  0.7546771E-02  0.1099906E+00
         21   -1    0    0  502  501  0.00000000000E+00  0.00000000000E+00  0.25551440416E+03  0.25551440416E+03  0.00000000000E+00 0. -1.
         21   -1    0    0  504  502 -0.00000000000E+00 -0.00000000000E+00 -0.17884699455E+04  0.17884699455E+04  0.00000000000E+00 0. -1.
         25    1    1    2    0    0 -0.18643484529E+03 -0.20134755183E+03  0.24840924318E+02  0.30255720068E+03  0.12500000000E+03 0.  0.
         21    1    1    2  503  501 -0.14802516056E+02  0.69282576491E+02  0.67827086144E+02  0.98080087182E+02  0.00000000000E+00 0. -1.
         21    1    1    2  504  503  0.20123736134E+03  0.13206497533E+03 -0.16256235518E+04  0.16433470618E+04  0.00000000000E+00 0. -1.
<mgrwt>
<rscale>  4 0.27241455E+03</rscale>
<asrwt>0</asrwt>
<pdfrwt beam="1">  1       21 0.39309907E-01 0.27241455E+03</pdfrwt>
<pdfrwt beam="2">  1       21 0.27514923E+00 0.27241455E+03</pdfrwt>
<totfact> 0.26865384E+02</totfact>
</mgrwt>
</event>
<event>
 5    0  0.1531977E+001  0.2845179E+03  0.7546771E-02  0.1093247E+00
         21   -1    0    0  504  501  0.00000000000E+00  0.00000000000E+00  0.20396868174E+03  0.20396868174E+03  0.00000000000E+00 0.  1.
         21   -1    0    0  501  502 -0.00000000000E+00 -0.00000000000E+00 -0.43522232287E+03  0.43522232287E+03  0.00000000000E+00 0.  1.
         25    1    1    2    0    0  0.11217742462E+03 -0.22965557701E+03  0.53062032350E+01  0.28456741634E+03  0.12500000000E+03 0.  0.
         21    1    1    2  503  502 -0.97617232698E+02  0.16714155704E+03 -0.14084905730E+03  0.23938229081E+03  0.00000000000E+00 0.  1.
         21    1    1    2  504  503 -0.14560191922E+02  0.62514019969E+02 -0.95710787059E+02  0.11524129746E+03  0.00000000000E+00 0.  1.
<mgrwt>
<rscale>  4 0.28451794E+03</rscale>
<asrwt>0</asrwt>
<pdfrwt beam="1">  1       21 0.31379797E-01 0.28451794E+03</pdfrwt>
<pdfrwt beam="2">  1       21 0.66957280E-01 0.28451794E+03</pdfrwt>
<totfact> 0.19015308E+04</totfact>
</mgrwt>
</event>
<event>
 5    0  0.1531977E+001  0.2439567E+03  0.7546771E-02  0.1117185E+00
         21   -1    0    0  502  501  0.00000000000E+00  0.00000000000E+00  0.63804412578E+02  0.63804412578E+02  0.00000000000E+00 0. -1.
         21   -1    0    0  504  502 -0.00000000000E+00 -0.00000000000E+00 -0.11536545161E+04  0.11536545161E+04  0.00000000000E+00 0. -1.
         25    1    1    2    0    0  0.72621196643E+02  0.21014723368E+03 -0.46878661073E+03  0.53368678495E+03  0.12500000000E+03 0.  0.
         21    1    1    2  503  501 -0.61761677139E+02 -0.19143894545E+03 -0.29536891951E+03  0.35736000505E+03  0.00000000000E+00 0. -1.
         21    1    1    2  504  503 -0.10859519504E+02 -0.18708288228E+02 -0.32569457331E+03  0.32641213871E+03  0.00000000000E+00 0. -1.
<mgrwt>
<rscale>  4 0.24395666E+03</rscale>
<asrwt>0</asrwt>
<pdfrwt beam="1">  1       21 0.98160636E-02 0.24395666E+03</pdfrwt>
<pdfrwt beam="2">  1       21 0.17748531E+00 0.24395666E+03</pdfrwt>
<totfact> 0.15324068E+04</totfact>
</mgrwt>
</event>
<event>
 5    0  0.1531977E+001  0.2128643E+03  0.7546771E-02  0.1139318E+00
         21   -1    0    0  502  501  0.00000000000E+00  0.00000000000E+00  0.28570379470E+03  0.28570379470E+03  0.00000000000E+00 0.  1.
         21   -1    0    0  504  502 -0.00000000000E+00 -0.00000000000E+00 -0.11376313718E+04  0.11376313718E+04  0.00000000000E+00 0.  1.
         25    1    1    2    0    0 -0.21143393152E+03  0.10746395291E+03 -0.37103011969E+02  0.27065557831E+03  0.12500000000E+03 0.  0.
         21    1    1    2  503  501  0.47597378752E+02 -0.67650719815E+02  0.15104132815E+03  0.17220805197E+03  0.00000000000E+00 0.  1.
         21    1    1    2  504  503  0.16383655277E+03 -0.39813233099E+02 -0.96586589329E+03  0.98047153623E+03  0.00000000000E+00 0.  1.
<mgrwt>
<rscale>  4 0.21286428E+03</rscale>
<asrwt>0</asrwt>
<pdfrwt beam="1">  1       21 0.43954430E-01 0.21286428E+03</pdfrwt>
<pdfrwt beam="2">  1       21 0.17502021E+00 0.21286428E+03</pdfrwt>
<totfact> 0.95827985E+02</totfact>
</mgrwt>
</event>
<event>
 5    0  0.1531977E+001  0.2355126E+03  0.7546771E-02  0.1122819E+00
         21   -1    0    0  502  501  0.00000000000E+00  0.00000000000E+00  0.93758119828E+02  0.93758119828E+02  0.00000000000E+00 0. -1.
         21   -1    0    0  504  502 -0.00000000000E+00 -0.00000000000E+00 -0.70630456455E+03  0.70630456455E+03  0.00000000000E+00 0. -1.
         25    1    1    2    0    0  0.19847432926E+03 -0.93078878591E+02 -0.21628740515E+03  0.33235670392E+03  0.12500000000E+03 0.  0.
         21    1    1    2  503  501 -0.19979119882E+02  0.21811426236E+02 -0.26725888312E+01  0.29699263909E+02  0.00000000000E+00 0. -1.
         21    1    1    2  504  503 -0.17849520937E+03  0.71267452355E+02 -0.39358645074E+03  0.43800671655E+03  0.00000000000E+00 0. -1.
<mgrwt>
<rscale>  4 0.23551260E+03</rscale>
<asrwt>0</asrwt>
<pdfrwt beam="1">  1       21 0.14424327E-01 0.23551260E+03</pdfrwt>
<pdfrwt beam="2">  1       21 0.10866224E+00 0.23551260E+03</pdfrwt>
<totfact> 0.27670527E+04</totfact>
</mgrwt>
</event>
<event>
 5    0  0.1531977E+001  0.2592307E+03  0.7546771E-02  0.1107606E+00
         21   -1    0    0  504  501  0.00000000000E+00  0.00000000000E+00  0.73306002235E+03  0.73306002235E+03  0.00000000000E+00 0.  1.
         21   -1    0    0  503  502 -0.00000000000E+00 -0.00000000000E+00 -0.10706503197E+03  0.10706503197E+03  0.00000000000E+00 0. -1.
         25    1    1    2    0    0 -0.10208742048E+03  0.20895497710E+03  0.16356068637E+03  0.31058190868E+03  0.12500000000E+03 0.  0.
         21    1    1    2  503  501  0.20145292603E+02  0.97191118293E+00  0.69014647662E+01  0.21316839384E+02  0.00000000000E+00 0.  1.
         21    1    1    2  504  502  0.81942127876E+02 -0.20992688828E+03  0.45553283924E+03  0.50822630626E+03  0.00000000000E+00 0.  1.
<mgrwt>
<rscale>  4 0.25923067E+03</rscale>
<asrwt>0</asrwt>
<pdfrwt beam="1">  1       21 0.11277846E+00 0.25923067E+03</pdfrwt>
<pdfrwt beam="2">  1       21 0.16471544E-01 0.25923067E+03</pdfrwt>
<totfact> 0.19575157E+04</totfact>
</mgrwt>
</event>
<event>
 5    0  0.1531977E+001  0.2777284E+03  0.7546771E-02  0.1096936E+00
         21   -1    0    0  504  501  0.00000000000E+00  0.00000000000E+00  0.12879856744E+03  0.12879856744E+03  0.00000000000E+00 0. -1.
         21   -1    0    0  501  502 -0.00000000000E+00 -0.00000000000E+00 -0.59304435999E+03  0.59304435999E+03  0.00000000000E+00 0. -1.
         25    1    1    2    0    0 -0.44289510217E+02  0.24402148253E+03 -0.33162003338E+03  0.43255622893E+03  0.12500000000E+03 0.  0.
         21    1    1    2  503  502  0.51457448336E+02 -0.22416357118E+03 -0.10084172228E+03  0.25112990381E+03  0.00000000000E+00 0. -1.
         21    1    1    2  504  503 -0.71679381199E+01 -0.19857911348E+02 -0.31784036883E+02  0.38156794684E+02  0.00000000000E+00 0. -1.
<mgrwt>
<rscale>  4 0.27772836E+03</rscale>
<asrwt>0</asrwt>
<pdfrwt beam="1">  1       21 0.19815164E-01 0.27772836E+03</pdfrwt>
<pdfrwt beam="2">  1       21 0.91237593E-01 0.27772836E+03</pdfrwt>
<totfact> 0.22882752E+04</totfact>
</mgrwt>
</event>
<event>
 5    0  0.1531977E+001  0.3049751E+03  0.7546771E-02  0.1082780E+00
         21   -1    0    0  502  501  0.00000000000E+00  0.00000000000E+00  0.32373498583E+03  0.32373498583E+03  0.00000000000E+00 0. -1.
         21   -1    0    0  504  502 -0.00000000000E+00 -0.00000000000E+00 -0.20495205128E+04  0.20495205128E+04  0.00000000000E+00 0.  1.
         25    1    1    2    0    0  0.62392419372E+01  0.24907448012E+03 -0.35477395287E+02  0.28099941346E+03  0.12500000000E+03 0.  0.
         21    1    1    2  503  501  0.31066834176E+02  0.29199518993E+02  0.18815588298E+03  0.19292588316E+03  0.00000000000E+00 0. -1.
         21    1    1    2  504  503 -0.37306076114E+02 -0.27827399912E+03 -0.18784640147E+04  0.18993302020E+04  0.00000000000E+00 0.  1.
<mgrwt>
<rscale>  4 0.30497510E+03</rscale>
<asrwt>0</asrwt>
<pdfrwt beam="1">  1       21 0.49805384E-01 0.30497510E+03</pdfrwt>
<pdfrwt beam="2">  1       21 0.31531084E+00 0.30497510E+03</pdfrwt>
<totfact> 0.92379980E+01</totfact>
</mgrwt>
</event>
<event>
 5    0  0.1531977E+001  0.2876100E+03  0.7546771E-02  0.1091604E+00
         21   -1    0    0  502  501  0.00000000000E+00  0.00000000000E+00  0.34532487582E+03  0.34532487582E+03  0.00000000000E+00 0.  1.
         21   -1    0    0  504  502 -0.00000000000E+00 -0.00000000000E+00 -0.76454820921E+03  0.76454820921E+03  0.00000000000E+00 0.  1.
         25    1    1    2    0    0  0.79113037764E+02  0.27163172885E+03  0.21214871370E+03  0.37506632159E+03  0.12500000000E+03 0.  0.
         21    1    1    2  503  501  0.21081273935E+01 -0.27747591669E+02  0.20184211589E+02  0.34376960919E+02  0.00000000000E+00 0. -1.
         21    1    1    2  504  503 -0.81221165158E+02 -0.24388413718E+03 -0.65155625868E+03  0.70042980253E+03  0.00000000000E+00 0.  1.
<mgrwt>
<rscale>  4 0.28761001E+03</rscale>
<asrwt>0</asrwt>
<pdfrwt beam="1">  1       21 0.53126905E-01 0.28761001E+03</pdfrwt>
<pdfrwt beam="2">  1       21 0.11762280E+00 0.28761001E+03</pdfrwt>
<totfact> 0.17292643E+03</totfact>
</mgrwt>
</event>
<event>
 5    0  0.1531977E+001  0.3892650E+03  0.7546771E-02  0.1047562E+00
         21   -1    0    0  504  501  0.00000000000E+00  0.00000000000E+00  0.35958453987E+03  0.35958453987E+03  0.00000000000E+00 0. -1.
         21   -1    0    0  503  502 -0.00000000000E+00 -0.00000000000E+00 -0.12124485706E+04  0.12124485706E+04  0.00000000000E+00 0.  1.
         25    1    1    2    0    0  0.30156803929E+03 -0.41008921477E+01 -0.81971909710E+03  0.88234035257E+03  0.12500000000E+03 0.  0.
         21    1    1    2  503  501  0.75682332057E+02  0.13950476367E+02 -0.24507738192E+03  0.25687614585E+03  0.00000000000E+00 0.  1.
         21    1    1    2  504  502 -0.37725037134E+03 -0.98495842188E+01  0.21193244832E+03  0.43281661202E+03  0.00000000000E+00 0. -1.
<mgrwt>
<rscale>  4 0.38926497E+03</rscale>
<asrwt>0</asrwt>
<pdfrwt beam="1">  1       21 0.55320699E-01 0.38926497E+03</pdfrwt>
<pdfrwt beam="2">  1       21 0.18653055E+00 0.38926497E+03</pdfrwt>
<totfact> 0.43084016E+02</totfact>
</mgrwt>
</event>
<event>
 5    0  0.1531977E+001  0.2387745E+03  0.7546771E-02  0.1120612E+00
         21   -1    0    0  502  501  0.00000000000E+00  0.00000000000E+00  0.30930340857E+02  0.30930340857E+02  0.00000000000E+00 0.  1.
         21   -1    0    0  504  502 -0.00000000000E+00 -0.00000000000E+00 -0.21226399680E+04  0.21226399680E+04  0.00000000000E+00 0.  1.
         25    1    1    2    0    0 -0.54173351572E+02  0.19609560561E+03 -0.57109261713E+03  0.61899920509E+03  0.12500000000E+03 0.  0.
         21    1    1    2  503  501  0.16349124074E+02 -0.26369819000E+02 -0.17025193388E+03  0.17305600885E+03  0.00000000000E+00 0.  1.
         21    1    1    2  504  503  0.37824227498E+02 -0.16972578661E+03 -0.13503650761E+04  0.13615150949E+04  0.00000000000E+00 0.  1.
<mgrwt>
<rscale>  4 0.23877445E+03</rscale>
<asrwt>0</asrwt>
<pdfrwt beam="1">  1       21 0.47585123E-02 0.23877445E+03</pdfrwt>
<pdfrwt beam="2">  1       21 0.32656011E+00 0.23877445E+03</pdfrwt>
<totfact> 0.66741533E+03</totfact>
</mgrwt>
</event>
<event>
 5    0  0.1531977E+001  0.2479559E+03  0.7546771E-02  0.1114603E+00
         21   -1    0    0  504  501  0.00000000000E+00  0.00000000000E+00  0.37468652517E+03  0.37468652517E+03  0.00000000000E+00 0. -1.
         21   -1    0    0  503  502 -0.00000000000E+00 -0.00000000000E+00 -0.23185715200E+03  0.23185715200E+03  0.00000000000E+00 0. -1.
         25    1    1    2    0    0 -0.19931638673E+03 -0.10594081008E+03  0.52777178518E+01  0.25807621271E+03  0.12500000000E+03 0.  0.
         21    1    1    2  503  501  0.60406634127E+01  0.23429603274E+02 -0.57102409518E+02  0.62017103260E+02  0.00000000000E+00 0. -1.
         21    1    1    2  504  502  0.19327572332E+03  0.82511206811E+02  0.19465406484E+03  0.28645036120E+03  0.00000000000E+00 0. -1.
<mgrwt>
<rscale>  4 0.24795593E+03</rscale>
<asrwt>0</asrwt>
<pdfrwt beam="1">  1       21 0.57644081E-01 0.24795593E+03</pdfrwt>
<pdfrwt beam="2">  1       21 0.35670331E-01 0.24795593E+03</pdfrwt>
<totfact> 0.20760286E+04</totfact>
</mgrwt>
</event>
<event>
 5    0  0.1531977E+001  0.2590711E+03  0.7546771E-02  0.1107703E+00
         21   -1    0    0  503  501  0.00000000000E+00  0.00000000000E+00  0.20953455560E+03  0.20953455560E+03  0.00000000000E+00 0.  1.
         21   -1    0    0  504  502 -0.00000000000E+00 -0.00000000000E+00 -0.76541531836E+03  0.76541531836E+03  0.00000000000E+00 0. -1.
         25    1    1    2    0    0  0.24737744308E+03  0.24559210498E+02  0.60350456415E+02  0.28472079614E+03  0.12500000000E+03 0.  0.
         21    1    1    2  503  502 -0.22359129478E+03 -0.19817778987E+02 -0.62527379568E+03  0.66434413599E+03  0.00000000000E+00 0. -1.
         21    1    1    2  504  501 -0.23786148295E+02 -0.47414315111E+01  0.90425765091E+01  0.25884941828E+02  0.00000000000E+00 0.  1.
<mgrwt>
<rscale>  4 0.25907114E+03</rscale>
<asrwt>0</asrwt>
<pdfrwt beam="1">  1       21 0.32236085E-01 0.25907114E+03</pdfrwt>
<pdfrwt beam="2">  1       21 0.11775620E+00 0.25907114E+03</pdfrwt>
<totfact> 0.48851795E+03</totfact>
</mgrwt>
</event>
<event>
 5    0  0.1531977E+001  0.2910694E+03  0.7546771E-02  0.1089792E+00
         21   -1    0    0  502  501  0.00000000000E+00  0.00000000000E+00  0.37972564456E+03  0.37972564456E+03  0.00000000000E+00 0. -1.
         21   -1    0    0  504  502 -0.00000000000E+00 -0.00000000000E+00 -0.15592638237E+04  0.15592638237E+04  0.00000000000E+00 0.  1.
         25    1    1    2    0    0  0.12386367459E+03 -0.23276398421E+03  0.30468093938E+03  0.42187291576E+03  0.12500000000E+03 0.  0.
         21    1    1    2  503  501 -0.24688513521E+02  0.10766957592E+02 -0.21879327994E+02  0.34700937583E+02  0.00000000000E+00 0. -1.
         21    1    1    2  504  503 -0.99175161065E+02  0.22199702662E+03 -0.14623397905E+04  0.14824156149E+04  0.00000000000E+00 0.  1.
<mgrwt>
<rscale>  4 0.29106945E+03</rscale>
<asrwt>0</asrwt>
<pdfrwt beam="1">  1       21 0.58419329E-01 0.29106945E+03</pdfrwt>
<pdfrwt beam="2">  1       21 0.23988675E+00 0.29106945E+03</pdfrwt>
<totfact> 0.18696153E+02</totfact>
</mgrwt>
</event>
<event>
 5    0  0.1531977E+001  0.2787295E+03  0.7546771E-02  0.1096385E+00
         21   -1    0    0  503  501  0.00000000000E+00  0.00000000000E+00  0.12379251764E+03  0.12379251764E+03  0.00000000000E+00 0. -1.
         21   -1    0    0  504  502 -0.00000000000E+00 -0.00000000000E+00 -0.72907951740E+03  0.72907951740E+03  0.00000000000E+00 0. -1.
         25    1    1    2    0    0 -0.21073920005E+03 -0.13068746629E+03 -0.34820634405E+03  0.44537948125E+03  0.12500000000E+03 0.  0.
         21    1    1    2  503  502  0.18402339551E+03  0.17365217611E+03 -0.25123045899E+03  0.35656196080E+03  0.00000000000E+00 0. -1.
         21    1    1    2  504  501  0.26715804531E+02 -0.42964709820E+02 -0.58501967202E+01  0.50930593000E+02  0.00000000000E+00 0.  1.
<mgrwt>
<rscale>  4 0.27872947E+03</rscale>
<asrwt>0</asrwt>
<pdfrwt beam="1">  1       21 0.19045003E-01 0.27872947E+03</pdfrwt>
<pdfrwt beam="2">  1       21 0.11216608E+00 0.27872947E+03</pdfrwt>
<totfact> 0.14999852E+04</totfact>
</mgrwt>
</event>
<event>
 5    0  0.1531977E+001  0.2250136E+03  0.7546771E-02  0.1130199E+00
         21   -1    0    0  503  501  0.00000000000E+00  0.00000000000E+00  0.12550190732E+03  0.12550190732E+03  0.00000000000E+00 0. -1.
         21   -1    0    0  504  502 -0.00000000000E+00 -0.00000000000E+00 -0.56229357853E+03  0.56229357853E+03  0.00000000000E+00 0. -1.
         25    1    1    2    0    0 -0.22606516263E+03  0.18762884206E+02 -0.22653906356E+03  0.34409657205E+03  0.12500000000E+03 0.  0.
         21    1    1    2  503  502  0.14555573018E+03 -0.83894949597E+02 -0.13821815216E+03  0.21755250112E+03  0.00000000000E+00 0. -1.
         21    1    1    2  504  501  0.80509432448E+02  0.65132065391E+02 -0.72034455489E+02  0.12614641268E+03  0.00000000000E+00 0. -1.
<mgrwt>
<rscale>  4 0.22501357E+03</rscale>
<asrwt>0</asrwt>
<pdfrwt beam="1">  1       21 0.19307986E-01 0.22501357E+03</pdfrwt>
<pdfrwt beam="2">  1       21 0.86506705E-01 0.22501357E+03</pdfrwt>
<totfact> 0.27870649E+04</totfact>
</mgrwt>
</event>
<event>
 5    0  0.1531977E+001  0.2291137E+03  0.7546771E-02  0.1127265E+00
         21   -1    0    0  502  501  0.00000000000E+00  0.00000000000E+00  0.40535875573E+03  0.40535875573E+03  0.00000000000E+00 0.  1.
         21   -1    0    0  504  502 -0.00000000000E+00 -0.00000000000E+00 -0.20973456524E+03  0.20973456524E+03  0.00000000000E+00 0.  1.
         25    1    1    2    0    0 -0.20389262408E+03 -0.85151999809E+02  0.22851677121E+03  0.34156694797E+03  0.12500000000E+03 0.  0.
         21    1    1    2  503  501  0.34997540553E+02  0.70060948381E+01  0.56689762657E+02  0.66989867889E+02  0.00000000000E+00 0.  1.
         21    1    1    2  504  503  0.16889508352E+03  0.78145904971E+02 -0.89582343373E+02  0.20653650512E+03  0.00000000000E+00 0.  1.
<mgrwt>
<rscale>  4 0.22911367E+03</rscale>
<asrwt>0</asrwt>
<pdfrwt beam="1">  1       21 0.62362885E-01 0.22911367E+03</pdfrwt>
<pdfrwt beam="2">  1       21 0.32266856E-01 0.22911367E+03</pdfrwt>
<totfact> 0.21583040E+04</totfact>
</mgrwt>
</event>
<event>
 5    0  0.1531977E+001  0.2279458E+03  0.7546771E-02  0.1128094E+00
         21   -1    0    0  503  501  0.00000000000E+00  0.00000000000E+00  0.44947561166E+03  0.44947561166E+03  0.00000000000E+00 0.  1.
         21   -1    0    0  504  502 -0.00000000000E+00 -0.00000000000E+00 -0.34192220749E+03  0.34192220749E+03  0.00000000000E+00 0. -1.
         25    1    1    2    0    0 -0.15489584716E+03  0.14444707795E+03 -0.24215426616E+03  0.34513963901E+03  0.12500000000E+03 0.  0.
         21    1    1    2  503  502  0.24017513404E+02 -0.81030458512E+01 -0.19171875514E+02  0.31781458634E+02  0.00000000000E+00 0. -1.
         21    1    1    2  504  501  0.13087833375E+03 -0.13634403210E+03  0.36887954584E+03  0.41447672151E+03  0.00000000000E+00 0.  1.
<mgrwt>
<rscale>  4 0.22794582E+03</rscale>
<asrwt>0</asrwt>
<pdfrwt beam="1">  1       21 0.69150094E-01 0.22794582E+03</pdfrwt>
<pdfrwt beam="2">  1       21 0.52603417E-01 0.22794582E+03</pdfrwt>
<totfact> 0.63603532E+03</totfact>
</mgrwt>
</event>
<event>
 5    0  0.1531977E+001  0.4533675E+03  0.7546771E-02  0.1026723E+00
         21   -1    0    0  504  501  0.00000000000E+00  0.00000000000E+00  0.53161560145E+03  0.53161560145E+03  0.00000000000E+00 0.  1.
         21   -1    0    0  503  502 -0.00000000000E+00 -0.00000000000E+00 -0.11964158028E+04  0.11964158028E+04  0.00000000000E+00 0. -1.
         25    1    1    2    0    0 -0.11790742749E+03  0.38355269583E+03 -0.90918496536E+03  0.10016272426E+04  0.12500000000E+03 0.  0.
         21    1    1    2  503  501  0.23791457277E+02  0.45810665686E+02 -0.13577513261E+03  0.14525679731E+03  0.00000000000E+00 0.  1.
         21    1    1    2  504  502  0.94115970208E+02 -0.42936336152E+03  0.38015989661E+03  0.58114736432E+03  0.00000000000E+00 0.  1.
<mgrwt>
<rscale>  4 0.45336745E+03</rscale>
<asrwt>0</asrwt>
<pdfrwt beam="1">  1       21 0.81787017E-01 0.45336745E+03</pdfrwt>
<pdfrwt beam="2">  1       21 0.18406397E+00 0.45336745E+03</pdfrwt>
<totfact> 0.18058931E+02</totfact>
</mgrwt>
</event>
<event>
 5    0  0.1531977E+001  0.4759802E+03  0.7546771E-02  0.1020246E+00
         21   -1    0    0  502  501  0.00000000000E+00  0.00000000000E+00  0.69642423350E+03  0.69642423350E+03  0.00000000000E+00 0. -1.
         21   -1    0    0  504  502 -0.00000000000E+00 -0.00000000000E+00 -0.81135050718E+03  0.81135050718E+03  0.00000000000E+00 0. -1.
         25    1    1    2    0    0  0.31883635770E+03  0.48926627621E+03 -0.16554089066E+02  0.59744217285E+03  0.12500000000E+03 0.  0.
         21    1    1    2  503  501 -0.63061068937E+02 -0.15575312268E+03  0.29187921251E+03  0.33679253010E+03  0.00000000000E+00 0. -1.
         21    1    1    2  504  503 -0.25577528876E+03 -0.33351315354E+03 -0.39025139712E+03  0.57354003773E+03  0.00000000000E+00 0. -1.
<mgrwt>
<rscale>  4 0.47598025E+03</rscale>
<asrwt>0</asrwt>
<pdfrwt beam="1">  1       21 0.10714219E+00 0.47598025E+03</pdfrwt>
<pdfrwt beam="2">  1       21 0.12482315E+00 0.47598025E+03</pdfrwt>
<totfact> 0.27123845E+02</totfact>
</mgrwt>
</event>
<event>
 5    0  0.1531977E+001  0.3127841E+03  0.7546771E-02  0.1079019E+00
         21   -1    0    0  503  501  0.00000000000E+00  0.00000000000E+00  0.97042217729E+03  0.97042217729E+03  0.00000000000E+00 0. -1.
         21   -1    0    0  501  502 -0.00000000000E+00 -0.00000000000E+00 -0.27414785976E+03  0.27414785976E+03  0.00000000000E+00 0. -1.
         25    1    1    2    0    0  0.25061631551E+03 -0.56068179050E+02 -0.47646114869E+02  0.28956403534E+03  0.12500000000E+03 0.  0.
         21    1    1    2  503  504 -0.96863813853E+02 -0.21178412357E+03  0.12740050984E+03  0.26545433381E+03  0.00000000000E+00 0.  1.
         21    1    1    2  504  502 -0.15375250166E+03  0.26785230262E+03  0.61651992256E+03  0.68955166790E+03  0.00000000000E+00 0. -1.
<mgrwt>
<rscale>  4 0.31278407E+03</rscale>
<asrwt>0</asrwt>
<pdfrwt beam="1">  1       21 0.14929572E+00 0.31278407E+03</pdfrwt>
<pdfrwt beam="2">  1       21 0.42176594E-01 0.31278407E+03</pdfrwt>
<totfact> 0.14907743E+03</totfact>
</mgrwt>
</event>
<event>
 5    0  0.1531977E+001  0.2630022E+03  0.7546771E-02  0.1105353E+00
         21   -1    0    0  502  501  0.00000000000E+00  0.00000000000E+00  0.21644416911E+04  0.21644416911E+04  0.00000000000E+00 0. -1.
         21   -1    0    0  504  502 -0.00000000000E+00 -0.00000000000E+00 -0.11197616127E+03  0.11197616127E+03  0.00000000000E+00 0.  1.
         25    1    1    2    0    0  0.63354496330E+02  0.19792843505E+03  0.72357265299E+02  0.25308107683E+03  0.12500000000E+03 0.  0.
         21    1    1    2  503  501 -0.89898880973E+02 -0.21521944563E+03  0.19778737120E+04  0.19915786801E+04  0.00000000000E+00 0. -1.
         21    1    1    2  504  503  0.26544384643E+02  0.17291010573E+02  0.22345526123E+01  0.31758095473E+02  0.00000000000E+00 0. -1.
<mgrwt>
<rscale>  4 0.26300222E+03</rscale>
<asrwt>0</asrwt>
<pdfrwt beam="1">  1       21 0.33299100E+00 0.26300222E+03</pdfrwt>
<pdfrwt beam="2">  1       21 0.17227103E-01 0.26300222E+03</pdfrwt>
<totfact> 0.61281980E+02</totfact>
</mgrwt>
</event>
<event>
 5    0  0.1531977E+001  0.2688194E+03  0.7546771E-02  0.1101957E+00
         21   -1    0    0  502  501  0.00000000000E+00  0.00000000000E+00  0.12525348717E+03  0.12525348717E+03  0.00000000000E+00 0.  1.
         21   -1    0    0  504  502 -0.00000000000E+00 -0.00000000000E+00 -0.62448940873E+03  0.62448940873E+03  0.00000000000E+00 0.  1.
         25    1    1    2    0    0  0.86932968159E+02 -0.22154351856E+03 -0.13926540898E+03  0.30275192106E+03  0.12500000000E+03 0.  0.
         21    1    1    2  503  501 -0.95936092446E+02  0.12301051269E+03 -0.15772023515E+03  0.22183550807E+03  0.00000000000E+00 0.  1.
         21    1    1    2  504  503  0.90031242875E+01  0.98533005871E+02 -0.20225027743E+03  0.22515546677E+03  0.00000000000E+00 0.  1.
<mgrwt>
<rscale>  4 0.26881940E+03</rscale>
<asrwt>0</asrwt>
<pdfrwt beam="1">  1       21 0.19269767E-01 0.26881940E+03</pdfrwt>
<pdfrwt beam="2">  1       21 0.96075296E-01 0.26881940E+03</pdfrwt>
<totfact> 0.21434415E+04</totfact>
</mgrwt>
</event>
<event>
 5    0  0.1531977E+001  0.2001227E+03  0.7546771E-02  0.1149636E+00
         21   -1    0    0  504  501  0.00000000000E+00  0.00000000000E+00  0.12436664573E+04  0.12436664573E+04  0.00000000000E+00 0. -1.
         21   -1    0    0  503  502 -0.00000000000E+00 -0.00000000000E+00 -0.10242383344E+03  0.10242383344E+03  0.00000000000E+00 0.  1.
         25    1    1    2    0    0 -0.18297333586E+03  0.18110481326E+03  0.80009078350E+03  0.84973434487E+03  0.12500000000E+03 0.  0.
         21    1    1    2  503  501  0.85014673374E+02 -0.11972976824E+03  0.11810657776E+02  0.14731667838E+03  0.00000000000E+00 0.  1.
         21    1    1    2  504  502  0.97958662481E+02 -0.61375045019E+02  0.32934118261E+03  0.34903926751E+03  0.00000000000E+00 0. -1.
<mgrwt>
<rscale>  4 0.20012272E+03</rscale>
<asrwt>0</asrwt>
<pdfrwt beam="1">  1       21 0.19133329E+00 0.20012272E+03</pdfrwt>
<pdfrwt beam="2">  1       21 0.15757514E-01 0.20012272E+03</pdfrwt>
<totfact> 0.54441689E+03</totfact>
</mgrwt>
</event>
<event>
 5    0  0.1531977E+001  0.2859398E+03  0.7546771E-02  0.1092488E+00
         21   -1    0    0  502  501  0.00000000000E+00  0.00000000000E+00  0.66893790267E+03  0.66893790267E+03  0.00000000000E+00 0.  1.
         21   -1    0    0  504  502 -0.00000000000E+00 -0.00000000000E+00 -0.17718213252E+03  0.17718213252E+03  0.00000000000E+00 0.  1.
         25    1    1    2    0    0 -0.21313589563E+03  0.22868073880E+03  0.25525374945E+03  0.42249410281E+03  0.12500000000E+03 0.  0.
         21    1    1    2  503  501  0.14494048863E+03 -0.17586043420E+03  0.24776649716E+03  0.33663463084E+03  0.00000000000E+00 0.  1.
         21    1    1    2  504  503  0.68195406996E+02 -0.52820304603E+02 -0.11264476467E+02  0.86991301541E+02  0.00000000000E+00 0.  1.
<mgrwt>
<rscale>  4 0.28593977E+03</rscale>
<asrwt>0</asrwt>
<pdfrwt beam="1">  1       21 0.10291352E+00 0.28593977E+03</pdfrwt>
<pdfrwt beam="2">  1       21 0.27258790E-01 0.28593977E+03</pdfrwt>
<totfact> 0.93000418E+03</totfact>
</mgrwt>
</event>
<event>
 5    0  0.1531977E+001  0.2628083E+03  0.7546771E-02  0.1105468E+00
         21   -1    0    0  502  501  0.00000000000E+00  0.00000000000E+00  0.16028825893E+03  0.16028825893E+03  0.00000000000E+00 0.  1.
         21   -1    0    0  504  502 -0.00000000000E+00 -0.00000000000E+00 -0.10076434289E+04  0.10076434289E+04  0.00000000000E+00 0. -1.
         25    1    1    2    0    0  0.27836926591E+03 -0.33617428567E+01 -0.79223824990E+03  0.84898009053E+03  0.12500000000E+03 0.  0.
         21    1    1    2  503  501 -0.22458352305E+03  0.17872011536E+02  0.19157847257E+02  0.22610659153E+03  0.00000000000E+00 0.  1.
         21    1    1    2  504  503 -0.53785742858E+02 -0.14510268679E+02 -0.74274767294E+02  0.92845005727E+02  0.00000000000E+00 0. -1.
<mgrwt>
<rscale>  4 0.26280827E+03</rscale>
<asrwt>0</asrwt>
<pdfrwt beam="1">  1       21 0.24659732E-01 0.26280827E+03</pdfrwt>
<pdfrwt beam="2">  1       21 0.15502207E+00 0.26280827E+03</pdfrwt>
<totfact> 0.40373464E+03</totfact>
</mgrwt>
</event>
<event>
 5    0  0.1531977E+001  0.2256772E+03  0.7546771E-02  0.1129720E+00
         21   -1    0    0  504  501  0.00000000000E+00  0.00000000000E+00  0.31843264341E+03  0.31843264341E+03  0.00000000000E+00 0.  1.
         21   -1    0    0  501  502 -0.00000000000E+00 -0.00000000000E+00 -0.22180834867E+03  0.22180834867E+03  0.00000000000E+00 0.  1.
         25    1    1    2    0    0  0.16172049085E+03  0.13206726807E+03  0.77611120214E+02  0.25542859362E+03  0.12500000000E+03 0.  0.
         21    1    1    2  503  502  0.19270508018E+02 -0.95017340176E+02  0.24453338136E+02  0.99988065085E+02  0.00000000000E+00 0.  1.
         21    1    1    2  504  503 -0.18099099887E+03 -0.37049927895E+02 -0.54401636073E+01  0.18482433338E+03  0.00000000000E+00 0.  1.
<mgrwt>
<rscale>  4 0.22567715E+03</rscale>
<asrwt>0</asrwt>
<pdfrwt beam="1">  1       21 0.48989638E-01 0.22567715E+03</pdfrwt>
<pdfrwt beam="2">  1       21 0.34124361E-01 0.22567715E+03</pdfrwt>
<totfact> 0.32339602E+04</totfact>
</mgrwt>
</event>
<event>
 5    0  0.1531977E+001  0.2455306E+03  0.7546771E-02  0.1116162E+00
         21   -1    0    0  504  501  0.00000000000E+00  0.00000000000E+00  0.47280549232E+03  0.47280549232E+03  0.00000000000E+00 0. -1.
         21   -1    0    0  503  502 -0.00000000000E+00 -0.00000000000E+00 -0.60127628741E+03  0.60127628741E+03  0.00000000000E+00 0. -1.
         25    1    1    2    0    0  0.11774923392E+03 -0.22153013119E+03 -0.37682671512E+03  0.46964226209E+03  0.12500000000E+03 0.  0.
         21    1    1    2  503  501 -0.32996392752E+02  0.30535282536E+02 -0.14892257994E+03  0.15556059986E+03  0.00000000000E+00 0. -1.
         21    1    1    2  504  502 -0.84752841170E+02  0.19099484866E+03  0.39727849996E+03  0.44887891778E+03  0.00000000000E+00 0. -1.
<mgrwt>
<rscale>  4 0.24553065E+03</rscale>
<asrwt>0</asrwt>
<pdfrwt beam="1">  1       21 0.72739306E-01 0.24553065E+03</pdfrwt>
<pdfrwt beam="2">  1       21 0.92504045E-01 0.24553065E+03</pdfrwt>
<totfact> 0.16042177E+03</totfact>
</mgrwt>
</event>
<event>
 5    0  0.1531977E+001  0.2409467E+03  0.7546771E-02  0.1119164E+00
         21   -1    0    0  504  501  0.00000000000E+00  0.00000000000E+00  0.28467381184E+04  0.28467381184E+04  0.00000000000E+00 0.  1.
         21   -1    0    0  503  502 -0.00000000000E+00 -0.00000000000E+00 -0.60366857773E+02  0.60366857773E+02  0.00000000000E+00 0.  1.
         25    1    1    2    0    0  0.80322678544E+02  0.21183511433E+03  0.22117612321E+04  0.22268449870E+04  0.12500000000E+03 0.  0.
         21    1    1    2  503  501 -0.52373450254E+02 -0.19740553494E+03  0.14734368731E+03  0.25183741919E+03  0.00000000000E+00 0.  1.
         21    1    1    2  504  502 -0.27949228290E+02 -0.14429579389E+02  0.42726634121E+03  0.42842256996E+03  0.00000000000E+00 0. -1.
<mgrwt>
<rscale>  4 0.24094667E+03</rscale>
<asrwt>0</asrwt>
<pdfrwt beam="1">  1       21 0.43795961E+00 0.24094667E+03</pdfrwt>
<pdfrwt beam="2">  1       21 0.92872111E-02 0.24094667E+03</pdfrwt>
<totfact> 0.42917569E+02</totfact>
</mgrwt>
</event>
<event>
 5    0  0.1531977E+001  0.2682011E+03  0.7546771E-02  0.1102314E+00
         21   -1    0    0  503  501  0.00000000000E+00  0.00000000000E+00  0.41884662358E+03  0.41884662358E+03  0.00000000000E+00 0. -1.
         21   -1    0    0  504  502 -0.00000000000E+00 -0.00000000000E+00 -0.42832592307E+03  0.42832592307E+03  0.00000000000E+00 0.  1.
         25    1    1    2    0    0 -0.95844723438E+02  0.27100045283E+03  0.49300749127E+02  0.31730587815E+03  0.12500000000E+03 0.  0.
         21    1    1    2  503  502  0.74435118202E+02 -0.21263639901E+03 -0.24542012849E+03  0.33314541040E+03  0.00000000000E+00 0.  1.
         21    1    1    2  504  501  0.21409605237E+02 -0.58364053821E+02  0.18664007986E+03  0.19672125809E+03  0.00000000000E+00 0. -1.
<mgrwt>
<rscale>  4 0.26820114E+03</rscale>
<asrwt>0</asrwt>
<pdfrwt beam="1">  1       21 0.64437943E-01 0.26820114E+03</pdfrwt>
<pdfrwt beam="2">  1       21 0.65896295E-01 0.26820114E+03</pdfrwt>
<totfact> 0.44605879E+03</totfact>
</mgrwt>
</event>
<event>
 5    0  0.1531977E+001  0.2531566E+03  0.7546771E-02  0.1111326E+00
         21   -1    0    0  502  501  0.00000000000E+00  0.00000000000E+00  0.28954275149E+03  0.28954275149E+03  0.00000000000E+00 0. -1.
         21   -1    0    0  504  502 -0.00000000000E+00 -0.00000000000E+00 -0.42707063575E+03  0.42707063575E+03  0.00000000000E+00 0. -1.
         25    1    1    2    0    0 -0.23198475201E+03  0.15789143746E+03  0.60150210126E+02  0.31303303175E+03  0.12500000000E+03 0.  0.
         21    1    1    2  503  501  0.97063053210E+02 -0.15148686657E+03 -0.20929971503E+02  0.18112860279E+03  0.00000000000E+00 0. -1.
         21    1    1    2  504  503  0.13492169880E+03 -0.64045708935E+01 -0.17674812289E+03  0.22245175270E+03  0.00000000000E+00 0. -1.
<mgrwt>
<rscale>  4 0.25315655E+03</rscale>
<asrwt>0</asrwt>
<pdfrwt beam="1">  1       21 0.44545039E-01 0.25315655E+03</pdfrwt>
<pdfrwt beam="2">  1       21 0.65703175E-01 0.25315655E+03</pdfrwt>
<totfact> 0.99217980E+03</totfact>
</mgrwt>
</event>
<event>
 5    0  0.1531977E+001  0.6551880E+03  0.7546771E-02  0.9797093E-01
         21   -1    0    0  504  501  0.00000000000E+00  0.00000000000E+00  0.80421905051E+03  0.80421905051E+03  0.00000000000E+00 0.  1.
         21   -1    0    0  501  502 -0.00000000000E+00 -0.00000000000E+00 -0.57182092893E+03  0.57182092893E+03  0.00000000000E+00 0.  1.
         25    1    1    2    0    0 -0.62415031829E+03  0.11757922475E+03  0.17523294917E+03  0.67061172103E+03  0.12500000000E+03 0.  0.
         21    1    1    2  503  502  0.63694370517E+03 -0.14155701767E+03  0.94455161265E+02  0.65928556051E+03  0.00000000000E+00 0.  1.
         21    1    1    2  504  503 -0.12793386878E+02  0.23977792918E+02 -0.37289988852E+02  0.46142697901E+02  0.00000000000E+00 0.  1.
<mgrwt>
<rscale>  4 0.65518797E+03</rscale>
<asrwt>0</asrwt>
<pdfrwt beam="1">  1       21 0.12372601E+00 0.65518797E+03</pdfrwt>
<pdfrwt beam="2">  1       21 0.87972450E-01 0.65518797E+03</pdfrwt>
<totfact> 0.41860257E+02</totfact>
</mgrwt>
</event>
<event>
 5    0  0.1531977E+001  0.1798666E+03  0.7546771E-02  0.1167932E+00
         21   -1    0    0  502  501  0.00000000000E+00  0.00000000000E+00  0.35236196352E+03  0.35236196352E+03  0.00000000000E+00 0. -1.
         21   -1    0    0  504  502 -0.00000000000E+00 -0.00000000000E+00 -0.36271040569E+03  0.36271040569E+03  0.00000000000E+00 0.  1.
         25    1    1    2    0    0  0.16507901814E+03 -0.11968183705E+03  0.23497884241E+03  0.33528328430E+03  0.12500000000E+03 0.  0.
         21    1    1    2  503  501 -0.88080759047E+02  0.20027596919E+02  0.14088282540E+02  0.91421028531E+02  0.00000000000E+00 0. -1.
         21    1    1    2  504  503 -0.76998259094E+02  0.99654240131E+02 -0.25941556712E+03  0.28836805638E+03  0.00000000000E+00 0.  1.
<mgrwt>
<rscale>  4 0.17986661E+03</rscale>
<asrwt>0</asrwt>
<pdfrwt beam="1">  1       21 0.54209533E-01 0.17986661E+03</pdfrwt>
<pdfrwt beam="2">  1       21 0.55801601E-01 0.17986661E+03</pdfrwt>
<totfact> 0.98157321E+03</totfact>
</mgrwt>
</event>
<event>
 5    0  0.1531977E+001  0.2282259E+03  0.7546771E-02  0.1127895E+00
         21   -1    0    0  503  501  0.00000000000E+00  0.00000000000E+00  0.16849013243E+03  0.16849013243E+03  0.00000000000E+00 0.  1.
         21   -1    0    0  504  502 -0.00000000000E+00 -0.00000000000E+00 -0.45863209090E+03  0.45863209090E+03  0.00000000000E+00 0.  1.
         25    1    1    2    0    0 -0.14978063013E+03  0.17610374163E+03 -0.12316081220E+03  0.29024188299E+03  0.12500000000E+03 0.  0.
         21    1    1    2  503  502  0.26047539017E+02 -0.55434131287E+02 -0.15143246343E+03  0.16334995617E+03  0.00000000000E+00 0.  1.
         21    1    1    2  504  501  0.12373309111E+03 -0.12066961034E+03 -0.15548682832E+02  0.17353038418E+03  0.00000000000E+00 0.  1.
<mgrwt>
<rscale>  4 0.22822588E+03</rscale>
<asrwt>0</asrwt>
<pdfrwt beam="1">  1       21 0.25921559E-01 0.22822588E+03</pdfrwt>
<pdfrwt beam="2">  1       21 0.70558783E-01 0.22822588E+03</pdfrwt>
<totfact> 0.25234025E+04</totfact>
</mgrwt>
</event>
<event>
 5    0  0.1531977E+001  0.2783055E+03  0.7546771E-02  0.1096618E+00
         21   -1    0    0  502  501  0.00000000000E+00  0.00000000000E+00  0.58223694121E+03  0.58223694121E+03  0.00000000000E+00 0. -1.
         21   -1    0    0  504  502 -0.00000000000E+00 -0.00000000000E+00 -0.24481908014E+03  0.24481908014E+03  0.00000000000E+00 0. -1.
         25    1    1    2    0    0  0.14735354122E+03 -0.24145899128E+03  0.28675800726E+03  0.42174715803E+03  0.12500000000E+03 0.  0.
         21    1    1    2  503  501 -0.56643870466E+02  0.18023807546E+02  0.13686609463E+03  0.14921700158E+03  0.00000000000E+00 0. -1.
         21    1    1    2  504  503 -0.90709670756E+02  0.22343518373E+03 -0.86206240826E+02  0.25609186175E+03  0.00000000000E+00 0. -1.
<mgrwt>
<rscale>  4 0.27830547E+03</rscale>
<asrwt>0</asrwt>
<pdfrwt beam="1">  1       21 0.89574913E-01 0.27830547E+03</pdfrwt>
<pdfrwt beam="2">  1       21 0.37664474E-01 0.27830547E+03</pdfrwt>
<totfact> 0.68387681E+03</totfact>
</mgrwt>
</event>
<event>
 5    0  0.1531977E+001  0.2811908E+03  0.7546771E-02  0.1095040E+00
         21   -1    0    0  502  501  0.00000000000E+00  0.00000000000E+00  0.42681279902E+03  0.42681279902E+03  0.00000000000E+00 0.  1.
         21   -1    0    0  504  502 -0.00000000000E+00 -0.00000000000E+00 -0.90127608477E+03  0.90127608477E+03  0.00000000000E+00 0. -1.
         25    1    1    2    0    0  0.14732516180E+03  0.25502457058E+03  0.25923446344E+03  0.41178846746E+03  0.12500000000E+03 0.  0.
         21    1    1    2  503  501  0.72783069763E+02 -0.13300554776E+03 -0.12127668388E+02  0.15210171373E+03  0.00000000000E+00 0.  1.
         21    1    1    2  504  503 -0.22010823156E+03 -0.12201902283E+03 -0.72157008080E+03  0.76419870259E+03  0.00000000000E+00 0. -1.
<mgrwt>
<rscale>  4 0.28119081E+03</rscale>
<asrwt>0</asrwt>
<pdfrwt beam="1">  1       21 0.65663508E-01 0.28119081E+03</pdfrwt>
<pdfrwt beam="2">  1       21 0.13865786E+00 0.28119081E+03</pdfrwt>
<totfact> 0.72226028E+02</totfact>
</mgrwt>
</event>
<event>
 5    0  0.1531977E+001  0.3803831E+03  0.7546771E-02  0.1050792E+00
         21   -1    0    0  502  501  0.00000000000E+00  0.00000000000E+00  0.28138612019E+03  0.28138612019E+03  0.00000000000E+00 0. -1.
         21   -1    0    0  504  502 -0.00000000000E+00 -0.00000000000E+00 -0.72246090993E+03  0.72246090993E+03  0.00000000000E+00 0. -1.
         25    1    1    2    0    0 -0.19508255574E+03  0.30948519005E+03 -0.43623809442E+03  0.58289532632E+03  0.12500000000E+03 0.  0.
         21    1    1    2  503  501  0.27183431885E+02 -0.60578163932E+01  0.61835535162E+02  0.67817914427E+02  0.00000000000E+00 0. -1.
         21    1    1    2  504  503  0.16789912386E+03 -0.30342737366E+03 -0.66672230481E+02  0.35313378937E+03  0.00000000000E+00 0. -1.
<mgrwt>
<rscale>  4 0.38038309E+03</rscale>
<asrwt>0</asrwt>
<pdfrwt beam="1">  1       21 0.43290173E-01 0.38038309E+03</pdfrwt>
<pdfrwt beam="2">  1       21 0.11114783E+00 0.38038309E+03</pdfrwt>
<totfact> 0.29135319E+03</totfact>
</mgrwt>
</event>
<event>
 5    0  0.1531977E+001  0.2454117E+03  0.7546771E-02  0.1116239E+00
         21   -1    0    0  503  501  0.00000000000E+00  0.00000000000E+00  0.10809557392E+04  0.10809557392E+04  0.00000000000E+00 0. -1.
         21   -1    0    0  504  502 -0.00000000000E+00 -0.00000000000E+00 -0.78586596957E+03  0.78586596957E+03  0.00000000000E+00 0.  1.
         25    1    1    2    0    0 -0.19566371973E+03  0.20741580829E+03 -0.50514877202E+03  0.59338511156E+03  0.12500000000E+03 0.  0.
         21    1    1    2  503  502  0.53192725468E+02 -0.53470615688E+02 -0.21963100621E+03  0.23222048073E+03  0.00000000000E+00 0.  1.
         21    1    1    2  504  501  0.14247099426E+03 -0.15394519261E+03  0.10198695478E+04  0.10412161164E+04  0.00000000000E+00 0. -1.
<mgrwt>
<rscale>  4 0.24541169E+03</rscale>
<asrwt>0</asrwt>
<pdfrwt beam="1">  1       21 0.16630088E+00 0.24541169E+03</pdfrwt>
<pdfrwt beam="2">  1       21 0.12090246E+00 0.24541169E+03</pdfrwt>
<totfact> 0.11005043E+02</totfact>
</mgrwt>
</event>
<event>
 5    0  0.1531977E+001  0.2358669E+03  0.7546771E-02  0.1122577E+00
         21   -1    0    0  502  501  0.00000000000E+00  0.00000000000E+00  0.11282095423E+04  0.11282095423E+04  0.00000000000E+00 0.  1.
         21   -1    0    0  504  502 -0.00000000000E+00 -0.00000000000E+00 -0.73789005426E+02  0.73789005426E+02  0.00000000000E+00 0.  1.
         25    1    1    2    0    0 -0.11725562899E+03  0.17927109878E+03  0.22548532791E+03  0.33519493208E+03  0.12500000000E+03 0.  0.
         21    1    1    2  503  501  0.12251522872E+03 -0.15443637167E+03  0.81360956237E+03  0.83715058032E+03  0.00000000000E+00 0.  1.
         21    1    1    2  504  503 -0.52595997318E+01 -0.24834727104E+02  0.15325646571E+02  0.29653035300E+02  0.00000000000E+00 0. -1.
<mgrwt>
<rscale>  4 0.23586687E+03</rscale>
<asrwt>0</asrwt>
<pdfrwt beam="1">  1       21 0.17357069E+00 0.23586687E+03</pdfrwt>
<pdfrwt beam="2">  1       21 0.11352155E-01 0.23586687E+03</pdfrwt>
<totfact> 0.12657713E+04</totfact>
</mgrwt>
</event>
<event>
 5    0  0.1531977E+001  0.3777292E+03  0.7546771E-02  0.1051885E+00
         21   -1    0    0  504  501  0.00000000000E+00  0.00000000000E+00  0.13628117233E+04  0.13628117233E+04  0.00000000000E+00 0.  1.
         21   -1    0    0  501  502 -0.00000000000E+00 -0.00000000000E+00 -0.10636105176E+03  0.10636105176E+03  0.00000000000E+00 0.  1.
         25    1    1    2    0    0 -0.45236565748E+02  0.35232311851E+03  0.72770541470E+03  0.81936444718E+03  0.12500000000E+03 0.  0.
         21    1    1    2  503  502  0.13468471717E+02 -0.93896079922E+02  0.25471923533E+03  0.27180831923E+03  0.00000000000E+00 0.  1.
         21    1    1    2  504  503  0.31768094031E+02 -0.25842703859E+03  0.27402602149E+03  0.37800000863E+03  0.00000000000E+00 0.  1.
<mgrwt>
<rscale>  4 0.37743836E+03</rscale>
<asrwt>0</asrwt>
<pdfrwt beam="1">  1       21 0.20966333E+00 0.37772916E+03</pdfrwt>
<pdfrwt beam="2">  1       21 0.16363240E-01 0.37772916E+03</pdfrwt>
<totfact> 0.34311972E+03</totfact>
</mgrwt>
</event>
<event>
 5    0  0.1531977E+001  0.2387911E+03  0.7546771E-02  0.1120601E+00
         21   -1    0    0  502  501  0.00000000000E+00  0.00000000000E+00  0.10514211449E+04  0.10514211449E+04  0.00000000000E+00 0. -1.
         21   -1    0    0  504  502 -0.00000000000E+00 -0.00000000000E+00 -0.35069996402E+03  0.35069996402E+03  0.00000000000E+00 0.  1.
         25    1    1    2    0    0 -0.14322202367E+03  0.14575910170E+03  0.10010941706E+04  0.10293555276E+04  0.12500000000E+03 0.  0.
         21    1    1    2  503  501  0.15487642022E+02 -0.14715341847E+02 -0.38585096519E+00  0.21367199677E+02  0.00000000000E+00 0. -1.
         21    1    1    2  504  503  0.12773438165E+03 -0.13104375986E+03 -0.29998713871E+03  0.35139838168E+03  0.00000000000E+00 0.  1.
<mgrwt>
<rscale>  4 0.23879112E+03</rscale>
<asrwt>0</asrwt>
<pdfrwt beam="1">  1       21 0.16175710E+00 0.23879112E+03</pdfrwt>
<pdfrwt beam="2">  1       21 0.53953841E-01 0.23879112E+03</pdfrwt>
<totfact> 0.75783651E+02</totfact>
</mgrwt>
</event>
