<event>
 5    0  0.2349231E+000  0.7904959E+03  0.7546771E-02  0.9573877E-01
         21   -1    0    0  503  501  0.00000000000E+00  0.00000000000E+00  0.19281089401E+04  0.19281089401E+04  0.00000000000E+00 0. -1.
         21   -1    0    0  504  502 -0.00000000000E+00 -0.00000000000E+00 -0.18708928685E+03  0.18708928685E+03  0.00000000000E+00 0. -1.
         25    1    1    2    0    0 -0.21398822311E+03  0.24678860474E+03  0.69608157399E+03  0.77900586179E+03  0.12500000000E+03 0.  0.
         21    1    1    2  503  502  0.28861887213E+02 -0.83985833159E+02  0.10830935627E+04  0.10867282523E+04  0.00000000000E+00 0. -1.
         21    1    1    2  504  501  0.18512633590E+03 -0.16280277158E+03 -0.38155483486E+02  0.24946411285E+03  0.00000000000E+00 0. -1.
<mgrwt>
<rscale>  4 0.79049589E+03</rscale>
<asrwt>0</asrwt>
<pdfrwt beam="1">  1       21 0.29663213E+00 0.79049589E+03</pdfrwt>
<pdfrwt beam="2">  1       21 0.28782968E-01 0.79049589E+03</pdfrwt>
<totfact> 0.28235289E+02</totfact>
</mgrwt>
</event>
<event>
 5    0  0.2349231E+000  0.5804357E+03  0.7546771E-02  0.9946848E-01
         21   -1    0    0  503  501  0.00000000000E+00  0.00000000000E+00  0.70090140317E+03  0.70090140317E+03  0.00000000000E+00 0. -1.
         21   -1    0    0  504  502 -0.00000000000E+00 -0.00000000000E+00 -0.63534610085E+03  0.63534610085E+03  0.00000000000E+00 0.  1.
         25    1    1    2    0    0  0.25624275565E+03 -0.65744723546E+02 -0.42828148808E+03  0.51868367193E+03  0.12500000000E+03 0.  0.
         21    1    1    2  503  502 -0.19616489153E+03  0.13163158834E+03 -0.70260378194E+02  0.24646310163E+03  0.00000000000E+00 0.  1.
         21    1    1    2  504  501 -0.60077864117E+02 -0.65886864796E+02  0.56409716860E+03  0.57110073046E+03  0.00000000000E+00 0. -1.
<mgrwt>
<rscale>  4 0.58043569E+03</rscale>
<asrwt>0</asrwt>
<pdfrwt beam="1">  1       21 0.10783099E+00 0.58043569E+03</pdfrwt>
<pdfrwt beam="2">  1       21 0.97745554E-01 0.58043569E+03</pdfrwt>
<totfact> 0.47177354E+02</totfact>
</mgrwt>
</event>
<event>
 5    0  0.2349231E+000  0.6231866E+03  0.7546771E-02  0.9858436E-01
         21   -1    0    0  502  501  0.00000000000E+00  0.00000000000E+00  0.85532963827E+03  0.85532963827E+03  0.00000000000E+00 0. -1.
         21   -1    0    0  503  502 -0.00000000000E+00 -0.00000000000E+00 -0.13330198588E+03  0.13330198588E+03  0.00000000000E+00 0. -1.
         25    1    1    2    0    0  0.50497055935E+02 -0.28691725116E+03  0.50635228500E+03  0.59740195697E+03  0.12500000000E+03 0.  0.
         21    1    1    2  503  504 -0.77869667358E+02  0.24984069376E+03  0.12609437004E+03  0.29048898001E+03  0.00000000000E+00 0. -1.
         21    1    1    2  504  501  0.27372611423E+02  0.37076557397E+02  0.89580997348E+02  0.10074068716E+03  0.00000000000E+00 0. -1.
<mgrwt>
<rscale>  4 0.62318660E+03</rscale>
<asrwt>0</asrwt>
<pdfrwt beam="1">  1       21 0.13158917E+00 0.62318660E+03</pdfrwt>
<pdfrwt beam="2">  1       21 0.20507998E-01 0.62318660E+03</pdfrwt>
<totfact> 0.77733585E+03</totfact>
</mgrwt>
</event>
<event>
 5    0  0.2349231E+000  0.4715468E+03  0.7546771E-02  0.1021485E+00
         21   -1    0    0  504  501  0.00000000000E+00  0.00000000000E+00  0.20776758237E+04  0.20776758237E+04  0.00000000000E+00 0.  1.
         21   -1    0    0  503  502 -0.00000000000E+00 -0.00000000000E+00 -0.37238866969E+03  0.37238866969E+03  0.00000000000E+00 0.  1.
         25    1    1    2    0    0  0.90951361819E+02  0.26132941622E+03 -0.63466168419E+02  0.31019053586E+03  0.12500000000E+03 0.  0.
         21    1    1    2  503  501 -0.84098095973E+02 -0.11274891989E+03 -0.15561630885E+03  0.20976473551E+03  0.00000000000E+00 0.  1.
         21    1    1    2  504  502 -0.68532658461E+01 -0.14858049633E+03  0.19243696313E+04  0.19301092221E+04  0.00000000000E+00 0.  1.
<mgrwt>
<rscale>  4 0.47154677E+03</rscale>
<asrwt>0</asrwt>
<pdfrwt beam="1">  1       21 0.31964243E+00 0.47154677E+03</pdfrwt>
<pdfrwt beam="2">  1       21 0.57290566E-01 0.47154677E+03</pdfrwt>
<totfact> 0.56323109E+01</totfact>
</mgrwt>
</event>
