<event>
 5    0  0.1257040E+001  0.2455959E+03  0.7546771E-02  0.1116120E+00
         21   -1    0    0  502  501  0.00000000000E+00  0.00000000000E+00  0.13648858518E+03  0.13648858518E+03  0.00000000000E+00 0. -1.
         21   -1    0    0  504  502 -0.00000000000E+00 -0.00000000000E+00 -0.65173244832E+03  0.65173244832E+03  0.00000000000E+00 0. -1.
         25    1    1    2    0    0 -0.93735163190E+02  0.24188212031E+03 -0.19105503747E+03  0.34557237778E+03  0.12500000000E+03 0.  0.
         21    1    1    2  503  501  0.76883980168E+02 -0.47452973071E+02 -0.42211815165E+02  0.99723459624E+02  0.00000000000E+00 0. -1.
         21    1    1    2  504  503  0.16851183022E+02 -0.19442914724E+03 -0.28197701051E+03  0.34292519610E+03  0.00000000000E+00 0. -1.
<mgrwt>
<rscale>  4 0.24559595E+03</rscale>
<asrwt>0</asrwt>
<pdfrwt beam="1">  1       21 0.20998244E-01 0.24559595E+03</pdfrwt>
<pdfrwt beam="2">  1       21 0.10026653E+00 0.24559595E+03</pdfrwt>
<totfact> 0.16661899E+04</totfact>
</mgrwt>
</event>
<event>
 5    0  0.1257040E+001  0.2261046E+03  0.7546771E-02  0.1129412E+00
         21   -1    0    0  504  501  0.00000000000E+00  0.00000000000E+00  0.14922922290E+04  0.14922922290E+04  0.00000000000E+00 0. -1.
         21   -1    0    0  503  502 -0.00000000000E+00 -0.00000000000E+00 -0.78345653695E+02  0.78345653695E+02  0.00000000000E+00 0.  1.
         25    1    1    2    0    0  0.19134559054E+03  0.89211697192E+02  0.15332424330E+03  0.28931848458E+03  0.12500000000E+03 0.  0.
         21    1    1    2  503  501 -0.22013298773E+02 -0.12140198394E+02  0.45028175644E+02  0.51570401800E+02  0.00000000000E+00 0.  1.
         21    1    1    2  504  502 -0.16933229177E+03 -0.77071498798E+02  0.12155941563E+04  0.12297489963E+04  0.00000000000E+00 0. -1.
<mgrwt>
<rscale>  4 0.22610458E+03</rscale>
<asrwt>0</asrwt>
<pdfrwt beam="1">  1       21 0.22958340E+00 0.22610458E+03</pdfrwt>
<pdfrwt beam="2">  1       21 0.12053179E-01 0.22610458E+03</pdfrwt>
<totfact> 0.49635905E+03</totfact>
</mgrwt>
</event>
<event>
 5    0  0.1257040E+001  0.2403335E+03  0.7546771E-02  0.1119571E+00
         21   -1    0    0  502  501  0.00000000000E+00  0.00000000000E+00  0.81914899192E+03  0.81914899192E+03  0.00000000000E+00 0. -1.
         21   -1    0    0  504  502 -0.00000000000E+00 -0.00000000000E+00 -0.22248084597E+03  0.22248084597E+03  0.00000000000E+00 0.  1.
         25    1    1    2    0    0  0.14636342205E+03  0.16300619039E+03  0.63787516669E+03  0.68593221071E+03  0.12500000000E+03 0.  0.
         21    1    1    2  503  501 -0.35832861610E+02  0.88852037284E+01  0.10046401474E+03  0.10703251410E+03  0.00000000000E+00 0.  1.
         21    1    1    2  504  503 -0.11053056044E+03 -0.17189139412E+03 -0.14167103548E+03  0.24866511307E+03  0.00000000000E+00 0.  1.
<mgrwt>
<rscale>  4 0.24033352E+03</rscale>
<asrwt>0</asrwt>
<pdfrwt beam="1">  1       21 0.12602292E+00 0.24033352E+03</pdfrwt>
<pdfrwt beam="2">  1       21 0.34227823E-01 0.24033352E+03</pdfrwt>
<totfact> 0.37035413E+03</totfact>
</mgrwt>
</event>
<event>
 5    0  0.1257040E+001  0.2968095E+03  0.7546771E-02  0.1086846E+00
         21   -1    0    0  503  501  0.00000000000E+00  0.00000000000E+00  0.16165512846E+03  0.16165512846E+03  0.00000000000E+00 0.  1.
         21   -1    0    0  501  502 -0.00000000000E+00 -0.00000000000E+00 -0.86522636560E+03  0.86522636560E+03  0.00000000000E+00 0. -1.
         25    1    1    2    0    0 -0.22032095374E+03  0.15684405267E+03 -0.13127560237E+03  0.32557589483E+03  0.12500000000E+03 0.  0.
         21    1    1    2  503  504  0.17323267616E+03 -0.20836477917E+03 -0.57038948955E+03  0.63148207502E+03  0.00000000000E+00 0. -1.
         21    1    1    2  504  502  0.47088277574E+02  0.51520726496E+02 -0.19061452307E+01  0.69823524211E+02  0.00000000000E+00 0. -1.
<mgrwt>
<rscale>  4 0.29680953E+03</rscale>
<asrwt>0</asrwt>
<pdfrwt beam="1">  1       21 0.24870020E-01 0.29680953E+03</pdfrwt>
<pdfrwt beam="2">  1       21 0.13311175E+00 0.29680953E+03</pdfrwt>
<totfact> 0.58173418E+03</totfact>
</mgrwt>
</event>
<event>
 5    0  0.1257040E+001  0.2501301E+03  0.7546771E-02  0.1113223E+00
         21   -1    0    0  502  501  0.00000000000E+00  0.00000000000E+00  0.23672741912E+03  0.23672741912E+03  0.00000000000E+00 0.  1.
         21   -1    0    0  504  502 -0.00000000000E+00 -0.00000000000E+00 -0.37728276254E+03  0.37728276254E+03  0.00000000000E+00 0.  1.
         25    1    1    2    0    0  0.20963506339E+03  0.13823223535E+02 -0.22100535583E+03  0.32955471263E+03  0.12500000000E+03 0.  0.
         21    1    1    2  503  501  0.22894300046E+02  0.54396147065E+01  0.41773998785E+02  0.47945858603E+02  0.00000000000E+00 0.  1.
         21    1    1    2  504  503 -0.23252936344E+03 -0.19262838242E+02  0.38676013627E+02  0.23650961043E+03  0.00000000000E+00 0.  1.
<mgrwt>
<rscale>  4 0.25013014E+03</rscale>
<asrwt>0</asrwt>
<pdfrwt beam="1">  1       21 0.36419603E-01 0.25013014E+03</pdfrwt>
<pdfrwt beam="2">  1       21 0.58043501E-01 0.25013014E+03</pdfrwt>
<totfact> 0.19599263E+04</totfact>
</mgrwt>
</event>
<event>
 5    0  0.1257040E+001  0.2551646E+03  0.7546771E-02  0.1110084E+00
         21   -1    0    0  504  501  0.00000000000E+00  0.00000000000E+00  0.93342275110E+02  0.93342275110E+02  0.00000000000E+00 0.  1.
         21   -1    0    0  503  502 -0.00000000000E+00 -0.00000000000E+00 -0.13643833074E+04  0.13643833074E+04  0.00000000000E+00 0.  1.
         25    1    1    2    0    0 -0.14253820085E+03  0.15661316098E+03 -0.38758693154E+03  0.45901356232E+03  0.12500000000E+03 0.  0.
         21    1    1    2  503  501  0.14023960391E+03 -0.17811469787E+03 -0.92473142999E+03  0.95211354875E+03  0.00000000000E+00 0.  1.
         21    1    1    2  504  502  0.22985969473E+01  0.21501536885E+02  0.41277329211E+02  0.46598471468E+02  0.00000000000E+00 0. -1.
<mgrwt>
<rscale>  4 0.25516456E+03</rscale>
<asrwt>0</asrwt>
<pdfrwt beam="1">  1       21 0.14360351E-01 0.25516456E+03</pdfrwt>
<pdfrwt beam="2">  1       21 0.20990511E+00 0.25516456E+03</pdfrwt>
<totfact> 0.46809736E+03</totfact>
</mgrwt>
</event>
<event>
 5    0  0.1257040E+001  0.2834605E+03  0.7546771E-02  0.1093814E+00
         21   -1    0    0  504  501  0.00000000000E+00  0.00000000000E+00  0.17605372716E+04  0.17605372716E+04  0.00000000000E+00 0. -1.
         21   -1    0    0  503  502 -0.00000000000E+00 -0.00000000000E+00 -0.62514336362E+02  0.62514336362E+02  0.00000000000E+00 0. -1.
         25    1    1    2    0    0 -0.29807984851E+02 -0.25902896569E+03  0.73876877246E+03  0.79334029281E+03  0.12500000000E+03 0.  0.
         21    1    1    2  503  501  0.54946012738E+02  0.24512434000E+03  0.41787154892E+03  0.48756705977E+03  0.00000000000E+00 0. -1.
         21    1    1    2  504  502 -0.25138027887E+02  0.13904625686E+02  0.54138261385E+03  0.54214425538E+03  0.00000000000E+00 0.  1.
<mgrwt>
<rscale>  4 0.28346049E+03</rscale>
<asrwt>0</asrwt>
<pdfrwt beam="1">  1       21 0.27085185E+00 0.28346049E+03</pdfrwt>
<pdfrwt beam="2">  1       21 0.96175915E-02 0.28346049E+03</pdfrwt>
<totfact> 0.40187922E+03</totfact>
</mgrwt>
</event>
<event>
 5    0  0.1257040E+001  0.2580237E+03  0.7546771E-02  0.1108336E+00
         21   -1    0    0  502  501  0.00000000000E+00  0.00000000000E+00  0.71588477350E+03  0.71588477350E+03  0.00000000000E+00 0. -1.
         21   -1    0    0  504  502 -0.00000000000E+00 -0.00000000000E+00 -0.34275619171E+03  0.34275619171E+03  0.00000000000E+00 0.  1.
         25    1    1    2    0    0 -0.12018139871E+03  0.18962604505E+03  0.62851525867E+03  0.67901254476E+03  0.12500000000E+03 0.  0.
         21    1    1    2  503  501 -0.17284251886E+02 -0.10426069205E+02  0.16571609779E+02  0.26116403524E+02  0.00000000000E+00 0. -1.
         21    1    1    2  504  503  0.13746565060E+03 -0.17919997584E+03 -0.27195828665E+03  0.35351201693E+03  0.00000000000E+00 0.  1.
<mgrwt>
<rscale>  4 0.25802371E+03</rscale>
<asrwt>0</asrwt>
<pdfrwt beam="1">  1       21 0.11013612E+00 0.25802371E+03</pdfrwt>
<pdfrwt beam="2">  1       21 0.52731722E-01 0.25802371E+03</pdfrwt>
<totfact> 0.21064294E+03</totfact>
</mgrwt>
</event>
<event>
 5    0  0.1257040E+001  0.1941923E+03  0.7546771E-02  0.1154734E+00
         21   -1    0    0  503  501  0.00000000000E+00  0.00000000000E+00  0.25583595923E+02  0.25583595923E+02  0.00000000000E+00 0. -1.
         21   -1    0    0  504  502 -0.00000000000E+00 -0.00000000000E+00 -0.31132618918E+04  0.31132618918E+04  0.00000000000E+00 0. -1.
         25    1    1    2    0    0 -0.20730823955E+03 -0.71824088322E+01 -0.11848917137E+04  0.12093889640E+04  0.12500000000E+03 0.  0.
         21    1    1    2  503  502  0.76469505953E+02 -0.65938899170E+01 -0.15660813970E+04  0.15679610986E+04  0.00000000000E+00 0. -1.
         21    1    1    2  504  501  0.13083873360E+03  0.13776298749E+02 -0.33670518524E+03  0.36149542512E+03  0.00000000000E+00 0. -1.
<mgrwt>
<rscale>  4 0.19419227E+03</rscale>
<asrwt>0</asrwt>
<pdfrwt beam="1">  1       21 0.39359370E-02 0.19419227E+03</pdfrwt>
<pdfrwt beam="2">  1       21 0.47896347E+00 0.19419227E+03</pdfrwt>
<totfact> 0.10651108E+03</totfact>
</mgrwt>
</event>
<event>
 5    0  0.1257040E+001  0.2360672E+03  0.7546771E-02  0.1122441E+00
         21   -1    0    0  502  501  0.00000000000E+00  0.00000000000E+00  0.99265544886E+03  0.99265544886E+03  0.00000000000E+00 0. -1.
         21   -1    0    0  504  502 -0.00000000000E+00 -0.00000000000E+00 -0.64727198429E+02  0.64727198429E+02  0.00000000000E+00 0. -1.
         25    1    1    2    0    0 -0.19751006015E+03  0.92257921702E+02  0.42615015717E+03  0.49472285618E+03  0.12500000000E+03 0.  0.
         21    1    1    2  503  501  0.16105606984E+03 -0.10354583791E+03  0.48412493236E+03  0.52061285838E+03  0.00000000000E+00 0. -1.
         21    1    1    2  504  503  0.36453990307E+02  0.11287916210E+02  0.17653160906E+02  0.42046932725E+02  0.00000000000E+00 0.  1.
<mgrwt>
<rscale>  4 0.23606720E+03</rscale>
<asrwt>0</asrwt>
<pdfrwt beam="1">  1       21 0.15271621E+00 0.23606720E+03</pdfrwt>
<pdfrwt beam="2">  1       21 0.99580313E-02 0.23606720E+03</pdfrwt>
<totfact> 0.22684555E+04</totfact>
</mgrwt>
</event>
<event>
 5    0  0.1257040E+001  0.4718583E+03  0.7546771E-02  0.1021895E+00
         21   -1    0    0  502  501  0.00000000000E+00  0.00000000000E+00  0.43919348982E+03  0.43919348982E+03  0.00000000000E+00 0.  1.
         21   -1    0    0  504  502 -0.00000000000E+00 -0.00000000000E+00 -0.94405688422E+03  0.94405688422E+03  0.00000000000E+00 0.  1.
         25    1    1    2    0    0 -0.13768685852E+03  0.42600341839E+03 -0.72607100340E+03  0.86211407914E+03  0.12500000000E+03 0.  0.
         21    1    1    2  503  501  0.62933191419E+02 -0.32419785323E+02  0.25268454012E+02  0.75167305597E+02  0.00000000000E+00 0.  1.
         21    1    1    2  504  503  0.74753667103E+02 -0.39358363306E+03  0.19593915498E+03  0.44596898930E+03  0.00000000000E+00 0.  1.
<mgrwt>
<rscale>  4 0.47008985E+03</rscale>
<asrwt>0</asrwt>
<pdfrwt beam="1">  1       21 0.67568229E-01 0.47185827E+03</pdfrwt>
<pdfrwt beam="2">  1       21 0.14523952E+00 0.47185827E+03</pdfrwt>
<totfact> 0.53864895E+02</totfact>
</mgrwt>
</event>
<event>
 5    0  0.1257040E+001  0.2781473E+03  0.7546771E-02  0.1096705E+00
         21   -1    0    0  503  501  0.00000000000E+00  0.00000000000E+00  0.23735097830E+03  0.23735097830E+03  0.00000000000E+00 0. -1.
         21   -1    0    0  504  502 -0.00000000000E+00 -0.00000000000E+00 -0.56059128968E+03  0.56059128968E+03  0.00000000000E+00 0. -1.
         25    1    1    2    0    0  0.22041423662E+03  0.21719361067E+03 -0.23802557159E+03  0.40992276462E+03  0.12500000000E+03 0.  0.
         21    1    1    2  503  502 -0.12989513953E+03 -0.16684989815E+03 -0.15582385492E+03  0.26266463323E+03  0.00000000000E+00 0. -1.
         21    1    1    2  504  501 -0.90519097089E+02 -0.50343712524E+02  0.70609115130E+02  0.12535487014E+03  0.00000000000E+00 0. -1.
<mgrwt>
<rscale>  4 0.27814726E+03</rscale>
<asrwt>0</asrwt>
<pdfrwt beam="1">  1       21 0.36515536E-01 0.27814726E+03</pdfrwt>
<pdfrwt beam="2">  1       21 0.86244812E-01 0.27814726E+03</pdfrwt>
<totfact> 0.79513228E+03</totfact>
</mgrwt>
</event>
<event>
 5    0  0.1257040E+001  0.2367605E+03  0.7546771E-02  0.1121970E+00
         21   -1    0    0  502  501  0.00000000000E+00  0.00000000000E+00  0.15116773002E+03  0.15116773002E+03  0.00000000000E+00 0. -1.
         21   -1    0    0  504  502 -0.00000000000E+00 -0.00000000000E+00 -0.40103281134E+03  0.40103281134E+03  0.00000000000E+00 0. -1.
         25    1    1    2    0    0  0.19390138537E+03  0.86440088575E+02 -0.18879791693E+03  0.31038571101E+03  0.12500000000E+03 0.  0.
         21    1    1    2  503  501 -0.16685164353E+03 -0.10372691413E+03 -0.33090279638E+02  0.19923280420E+03  0.00000000000E+00 0. -1.
         21    1    1    2  504  503 -0.27049741833E+02  0.17286825555E+02 -0.27976884756E+02  0.42582026157E+02  0.00000000000E+00 0. -1.
<mgrwt>
<rscale>  4 0.23676048E+03</rscale>
<asrwt>0</asrwt>
<pdfrwt beam="1">  1       21 0.23256574E-01 0.23676048E+03</pdfrwt>
<pdfrwt beam="2">  1       21 0.61697355E-01 0.23676048E+03</pdfrwt>
<totfact> 0.41518100E+04</totfact>
</mgrwt>
</event>
<event>
 5    0  0.1257040E+001  0.2501169E+03  0.7546771E-02  0.1113231E+00
         21   -1    0    0  503  501  0.00000000000E+00  0.00000000000E+00  0.18364105662E+03  0.18364105662E+03  0.00000000000E+00 0. -1.
         21   -1    0    0  501  502 -0.00000000000E+00 -0.00000000000E+00 -0.36711335068E+03  0.36711335068E+03  0.00000000000E+00 0. -1.
         25    1    1    2    0    0 -0.20886354167E+03  0.57528107327E+02 -0.19424973480E+03  0.31668820888E+03  0.12500000000E+03 0.  0.
         21    1    1    2  503  504  0.10751255047E+03 -0.45361626257E+02 -0.35523633648E+02  0.12197767908E+03  0.00000000000E+00 0. -1.
         21    1    1    2  504  502  0.10135099120E+03 -0.12166481071E+02  0.46301074388E+02  0.11208851935E+03  0.00000000000E+00 0. -1.
<mgrwt>
<rscale>  4 0.25011690E+03</rscale>
<asrwt>0</asrwt>
<pdfrwt beam="1">  1       21 0.28252471E-01 0.25011690E+03</pdfrwt>
<pdfrwt beam="2">  1       21 0.56478976E-01 0.25011690E+03</pdfrwt>
<totfact> 0.34331603E+04</totfact>
</mgrwt>
</event>
<event>
 5    0  0.1257040E+001  0.2210649E+03  0.7546771E-02  0.1133092E+00
         21   -1    0    0  502  501  0.00000000000E+00  0.00000000000E+00  0.25136012678E+03  0.25136012678E+03  0.00000000000E+00 0.  1.
         21   -1    0    0  504  502 -0.00000000000E+00 -0.00000000000E+00 -0.49775423126E+03  0.49775423126E+03  0.00000000000E+00 0.  1.
         25    1    1    2    0    0 -0.78932119502E+02  0.19865046917E+03 -0.32012479805E+03  0.40471863648E+03  0.12500000000E+03 0.  0.
         21    1    1    2  503  501  0.65082814788E+02 -0.16670618616E+03  0.16703878425E+03  0.24480335114E+03  0.00000000000E+00 0.  1.
         21    1    1    2  504  503  0.13849304713E+02 -0.31944283004E+02 -0.93308090684E+02  0.99592370414E+02  0.00000000000E+00 0.  1.
<mgrwt>
<rscale>  4 0.22106494E+03</rscale>
<asrwt>0</asrwt>
<pdfrwt beam="1">  1       21 0.38670789E-01 0.22106494E+03</pdfrwt>
<pdfrwt beam="2">  1       21 0.76577573E-01 0.22106494E+03</pdfrwt>
<totfact> 0.95999440E+03</totfact>
</mgrwt>
</event>
<event>
 5    0  0.1257040E+001  0.2824275E+03  0.7546771E-02  0.1094370E+00
         21   -1    0    0  504  501  0.00000000000E+00  0.00000000000E+00  0.14971137617E+03  0.14971137617E+03  0.00000000000E+00 0.  1.
         21   -1    0    0  503  502 -0.00000000000E+00 -0.00000000000E+00 -0.82568908883E+03  0.82568908883E+03  0.00000000000E+00 0.  1.
         25    1    1    2    0    0  0.19275436849E+03  0.11720042296E+03 -0.27612980307E+03  0.37783971980E+03  0.12500000000E+03 0.  0.
         21    1    1    2  503  501 -0.27187184559E+03 -0.71989998957E+02 -0.41881604658E+03  0.50448363823E+03  0.00000000000E+00 0.  1.
         21    1    1    2  504  502  0.79117477100E+02 -0.45210424001E+02  0.18968136992E+02  0.93077106970E+02  0.00000000000E+00 0.  1.
<mgrwt>
<rscale>  4 0.28242753E+03</rscale>
<asrwt>0</asrwt>
<pdfrwt beam="1">  1       21 0.23032519E-01 0.28242753E+03</pdfrwt>
<pdfrwt beam="2">  1       21 0.12702909E+00 0.28242753E+03</pdfrwt>
<totfact> 0.76549321E+03</totfact>
</mgrwt>
</event>
<event>
 5    0  0.1257040E+001  0.2207325E+03  0.7546771E-02  0.1133338E+00
         21   -1    0    0  502  501  0.00000000000E+00  0.00000000000E+00  0.50922029555E+03  0.50922029555E+03  0.00000000000E+00 0.  1.
         21   -1    0    0  504  502 -0.00000000000E+00 -0.00000000000E+00 -0.12809090284E+03  0.12809090284E+03  0.00000000000E+00 0.  1.
         25    1    1    2    0    0 -0.59458997551E+02 -0.20309895118E+03  0.19337178674E+03  0.31273343964E+03  0.12500000000E+03 0.  0.
         21    1    1    2  503  501  0.11204585370E+03  0.12738980433E+03  0.14405154272E+03  0.22256073899E+03  0.00000000000E+00 0.  1.
         21    1    1    2  504  503 -0.52586856144E+02  0.75709146851E+02  0.43706063242E+02  0.10201701976E+03  0.00000000000E+00 0.  1.
<mgrwt>
<rscale>  4 0.22073249E+03</rscale>
<asrwt>0</asrwt>
<pdfrwt beam="1">  1       21 0.78341583E-01 0.22073249E+03</pdfrwt>
<pdfrwt beam="2">  1       21 0.19706293E-01 0.22073249E+03</pdfrwt>
<totfact> 0.33711318E+04</totfact>
</mgrwt>
</event>
<event>
 5    0  0.1257040E+001  0.2881124E+03  0.7546771E-02  0.1091339E+00
         21   -1    0    0  502  501  0.00000000000E+00  0.00000000000E+00  0.13475024186E+04  0.13475024186E+04  0.00000000000E+00 0.  1.
         21   -1    0    0  504  502 -0.00000000000E+00 -0.00000000000E+00 -0.21878667633E+03  0.21878667633E+03  0.00000000000E+00 0.  1.
         25    1    1    2    0    0 -0.14808079909E+03  0.23660767381E+03  0.10520655367E+04  0.10956176376E+04  0.12500000000E+03 0.  0.
         21    1    1    2  503  501  0.54167821008E+01 -0.21582559909E+02  0.18822440117E+03  0.18953515140E+03  0.00000000000E+00 0.  1.
         21    1    1    2  504  503  0.14266401699E+03 -0.21502511390E+03 -0.11157419563E+03  0.28113630588E+03  0.00000000000E+00 0.  1.
<mgrwt>
<rscale>  4 0.28811237E+03</rscale>
<asrwt>0</asrwt>
<pdfrwt beam="1">  1       21 0.20730806E+00 0.28811237E+03</pdfrwt>
<pdfrwt beam="2">  1       21 0.33659489E-01 0.28811237E+03</pdfrwt>
<totfact> 0.93766269E+02</totfact>
</mgrwt>
</event>
<event>
 5    0  0.1257040E+001  0.2558190E+03  0.7546771E-02  0.1109682E+00
         21   -1    0    0  503  501  0.00000000000E+00  0.00000000000E+00  0.11981682906E+04  0.11981682906E+04  0.00000000000E+00 0.  1.
         21   -1    0    0  504  502 -0.00000000000E+00 -0.00000000000E+00 -0.65062632603E+02  0.65062632603E+02  0.00000000000E+00 0.  1.
         25    1    1    2    0    0 -0.66687354931E+02  0.22553982605E+03  0.52244024241E+03  0.58641642485E+03  0.12500000000E+03 0.  0.
         21    1    1    2  503  502  0.10767370478E+03 -0.18866002460E+03  0.36253486044E+03  0.42263193990E+03  0.00000000000E+00 0.  1.
         21    1    1    2  504  501 -0.40986349848E+02 -0.36879801447E+02  0.24813055517E+03  0.25418255849E+03  0.00000000000E+00 0.  1.
<mgrwt>
<rscale>  4 0.25581904E+03</rscale>
<asrwt>0</asrwt>
<pdfrwt beam="1">  1       21 0.18433357E+00 0.25581904E+03</pdfrwt>
<pdfrwt beam="2">  1       21 0.10009637E-01 0.25581904E+03</pdfrwt>
<totfact> 0.13188483E+04</totfact>
</mgrwt>
</event>
<event>
 5    0  0.1257040E+001  0.3455839E+03  0.7546771E-02  0.1064442E+00
         21   -1    0    0  502  501  0.00000000000E+00  0.00000000000E+00  0.40455878011E+03  0.40455878011E+03  0.00000000000E+00 0. -1.
         21   -1    0    0  504  502 -0.00000000000E+00 -0.00000000000E+00 -0.16074319885E+04  0.16074319885E+04  0.00000000000E+00 0.  1.
         25    1    1    2    0    0 -0.62545123195E+02 -0.28591240654E+03  0.27718219448E+03  0.42203408107E+03  0.12500000000E+03 0.  0.
         21    1    1    2  503  501 -0.15995227737E+02 -0.28050597341E+02  0.30921568928E+02  0.44708240252E+02  0.00000000000E+00 0. -1.
         21    1    1    2  504  503  0.78540350932E+02  0.31396300388E+03 -0.15109769718E+04  0.15452484473E+04  0.00000000000E+00 0.  1.
<mgrwt>
<rscale>  4 0.34558393E+03</rscale>
<asrwt>0</asrwt>
<pdfrwt beam="1">  1       21 0.62239812E-01 0.34558393E+03</pdfrwt>
<pdfrwt beam="2">  1       21 0.24729723E+00 0.34558393E+03</pdfrwt>
<totfact> 0.14014227E+02</totfact>
</mgrwt>
</event>
<event>
 5    0  0.1257040E+001  0.1774240E+03  0.7546771E-02  0.1170320E+00
         21   -1    0    0  504  501  0.00000000000E+00  0.00000000000E+00  0.21843286338E+03  0.21843286338E+03  0.00000000000E+00 0. -1.
         21   -1    0    0  503  502 -0.00000000000E+00 -0.00000000000E+00 -0.57324689317E+03  0.57324689317E+03  0.00000000000E+00 0. -1.
         25    1    1    2    0    0  0.70001944706E+02 -0.20730542540E+03 -0.31956408023E+02  0.25401185735E+03  0.12500000000E+03 0.  0.
         21    1    1    2  503  501 -0.50511814094E+00  0.11923404249E+03 -0.38938845657E+03  0.40723504533E+03  0.00000000000E+00 0. -1.
         21    1    1    2  504  502 -0.69496826565E+02  0.88071382905E+02  0.66530834804E+02  0.13043285387E+03  0.00000000000E+00 0. -1.
<mgrwt>
<rscale>  4 0.17742398E+03</rscale>
<asrwt>0</asrwt>
<pdfrwt beam="1">  1       21 0.33605056E-01 0.17742398E+03</pdfrwt>
<pdfrwt beam="2">  1       21 0.88191830E-01 0.17742398E+03</pdfrwt>
<totfact> 0.94935943E+03</totfact>
</mgrwt>
</event>
<event>
 5    0  0.1257040E+001  0.2802069E+03  0.7546771E-02  0.1095576E+00
         21   -1    0    0  503  501  0.00000000000E+00  0.00000000000E+00  0.18266478539E+04  0.18266478539E+04  0.00000000000E+00 0. -1.
         21   -1    0    0  501  502 -0.00000000000E+00 -0.00000000000E+00 -0.47374028957E+02  0.47374028957E+02  0.00000000000E+00 0. -1.
         25    1    1    2    0    0 -0.23959308880E+03  0.97932551630E+02  0.11248524369E+04  0.11609968293E+04  0.12500000000E+03 0.  0.
         21    1    1    2  503  504  0.12871181490E+02 -0.15580358043E+02  0.58333304976E+01  0.21034319918E+02  0.00000000000E+00 0. -1.
         21    1    1    2  504  502  0.22672190731E+03 -0.82352193587E+02  0.64858805763E+03  0.69199073371E+03  0.00000000000E+00 0. -1.
<mgrwt>
<rscale>  4 0.28020688E+03</rscale>
<asrwt>0</asrwt>
<pdfrwt beam="1">  1       21 0.28102269E+00 0.28020688E+03</pdfrwt>
<pdfrwt beam="2">  1       21 0.72883135E-02 0.28020688E+03</pdfrwt>
<totfact> 0.57177959E+03</totfact>
</mgrwt>
</event>
<event>
 5    0  0.1257040E+001  0.2979520E+03  0.7546771E-02  0.1086269E+00
         21   -1    0    0  502  501  0.00000000000E+00  0.00000000000E+00  0.30686791802E+03  0.30686791802E+03  0.00000000000E+00 0. -1.
         21   -1    0    0  504  502 -0.00000000000E+00 -0.00000000000E+00 -0.15731852704E+04  0.15731852704E+04  0.00000000000E+00 0. -1.
         25    1    1    2    0    0  0.14166085129E+03  0.21623528109E+03 -0.14385220853E+04  0.14669002296E+04  0.12500000000E+03 0.  0.
         21    1    1    2  503  501 -0.13060802824E+03 -0.23746865738E+03  0.22689326625E+03  0.35345491162E+03  0.00000000000E+00 0. -1.
         21    1    1    2  504  503 -0.11052823057E+02  0.21233376297E+02 -0.54688533242E+02  0.59698047160E+02  0.00000000000E+00 0.  1.
<mgrwt>
<rscale>  4 0.29795199E+03</rscale>
<asrwt>0</asrwt>
<pdfrwt beam="1">  1       21 0.47210448E-01 0.29795199E+03</pdfrwt>
<pdfrwt beam="2">  1       21 0.24202851E+00 0.29795199E+03</pdfrwt>
<totfact> 0.28348263E+02</totfact>
</mgrwt>
</event>
<event>
 5    0  0.1257040E+001  0.2333113E+03  0.7546771E-02  0.1124331E+00
         21   -1    0    0  503  501  0.00000000000E+00  0.00000000000E+00  0.23589377954E+04  0.23589377954E+04  0.00000000000E+00 0.  1.
         21   -1    0    0  501  502 -0.00000000000E+00 -0.00000000000E+00 -0.27477320958E+02  0.27477320958E+02  0.00000000000E+00 0.  1.
         25    1    1    2    0    0 -0.20726474187E+03 -0.95088069216E+01  0.98295118635E+03  0.10123572123E+04  0.12500000000E+03 0.  0.
         21    1    1    2  503  504  0.18737744335E+03 -0.53012824029E+02  0.10959571205E+04  0.11131229383E+04  0.00000000000E+00 0.  1.
         21    1    1    2  504  502  0.19887298522E+02  0.62521630951E+02  0.25255216756E+03  0.26093496569E+03  0.00000000000E+00 0.  1.
<mgrwt>
<rscale>  4 0.23331130E+03</rscale>
<asrwt>0</asrwt>
<pdfrwt beam="1">  1       21 0.36291335E+00 0.23331130E+03</pdfrwt>
<pdfrwt beam="2">  1       21 0.42272820E-02 0.23331130E+03</pdfrwt>
<totfact> 0.49864867E+03</totfact>
</mgrwt>
</event>
<event>
 5    0  0.1257040E+001  0.2217639E+03  0.7546771E-02  0.1132575E+00
         21   -1    0    0  502  501  0.00000000000E+00  0.00000000000E+00  0.77853741291E+03  0.77853741291E+03  0.00000000000E+00 0.  1.
         21   -1    0    0  504  502 -0.00000000000E+00 -0.00000000000E+00 -0.19027135750E+03  0.19027135750E+03  0.00000000000E+00 0.  1.
         25    1    1    2    0    0 -0.10979322855E+03 -0.16982250392E+03  0.49751025626E+03  0.55139431531E+03  0.12500000000E+03 0.  0.
         21    1    1    2  503  501  0.15083202672E+02  0.15169702630E+02  0.20301011755E+03  0.20413409982E+03  0.00000000000E+00 0.  1.
         21    1    1    2  504  503  0.94710025880E+02  0.15465280129E+03 -0.11225431840E+03  0.21328035528E+03  0.00000000000E+00 0.  1.
<mgrwt>
<rscale>  4 0.22176391E+03</rscale>
<asrwt>0</asrwt>
<pdfrwt beam="1">  1       21 0.11977498E+00 0.22176391E+03</pdfrwt>
<pdfrwt beam="2">  1       21 0.29272517E-01 0.22176391E+03</pdfrwt>
<totfact> 0.58010334E+03</totfact>
</mgrwt>
</event>
<event>
 5    0  0.1257040E+001  0.4296671E+03  0.7546771E-02  0.1033965E+00
         21   -1    0    0  504  501  0.00000000000E+00  0.00000000000E+00  0.44815364370E+03  0.44815364370E+03  0.00000000000E+00 0.  1.
         21   -1    0    0  503  502 -0.00000000000E+00 -0.00000000000E+00 -0.10590431760E+04  0.10590431760E+04  0.00000000000E+00 0.  1.
         25    1    1    2    0    0  0.24641955900E+02 -0.54238076580E+03  0.10673947320E+03  0.56727633147E+03  0.12500000000E+03 0.  0.
         21    1    1    2  503  501 -0.66983431768E+02  0.38493750672E+03 -0.66002700331E+03  0.76700672051E+03  0.00000000000E+00 0.  1.
         21    1    1    2  504  502  0.42341475868E+02  0.15744325909E+03 -0.57602002192E+02  0.17291376772E+03  0.00000000000E+00 0. -1.
<mgrwt>
<rscale>  4 0.42966711E+03</rscale>
<asrwt>0</asrwt>
<pdfrwt beam="1">  1       21 0.68946714E-01 0.42966711E+03</pdfrwt>
<pdfrwt beam="2">  1       21 0.16292972E+00 0.42966711E+03</pdfrwt>
<totfact> 0.38310742E+02</totfact>
</mgrwt>
</event>
<event>
 5    0  0.1257040E+001  0.2646290E+03  0.7546771E-02  0.1104393E+00
         21   -1    0    0  502  501  0.00000000000E+00  0.00000000000E+00  0.66889504683E+03  0.66889504683E+03  0.00000000000E+00 0.  1.
         21   -1    0    0  504  502 -0.00000000000E+00 -0.00000000000E+00 -0.13218395724E+03  0.13218395724E+03  0.00000000000E+00 0. -1.
         25    1    1    2    0    0  0.10234962321E+03  0.20626934900E+03  0.12885917865E+03  0.29197975552E+03  0.12500000000E+03 0.  0.
         21    1    1    2  503  501 -0.84577253527E+02 -0.21884645820E+03  0.42220904591E+03  0.48301921549E+03  0.00000000000E+00 0.  1.
         21    1    1    2  504  503 -0.17772369684E+02  0.12577109197E+02 -0.14357134970E+02  0.26080033062E+02  0.00000000000E+00 0.  1.
<mgrwt>
<rscale>  4 0.26462902E+03</rscale>
<asrwt>0</asrwt>
<pdfrwt beam="1">  1       21 0.10290693E+00 0.26462902E+03</pdfrwt>
<pdfrwt beam="2">  1       21 0.20335994E-01 0.26462902E+03</pdfrwt>
<totfact> 0.16467871E+04</totfact>
</mgrwt>
</event>
<event>
 5    0  0.1257040E+001  0.2036178E+03  0.7546771E-02  0.1146722E+00
         21   -1    0    0  504  501  0.00000000000E+00  0.00000000000E+00  0.92376369781E+03  0.92376369781E+03  0.00000000000E+00 0. -1.
         21   -1    0    0  503  502 -0.00000000000E+00 -0.00000000000E+00 -0.11456553311E+03  0.11456553311E+03  0.00000000000E+00 0. -1.
         25    1    1    2    0    0 -0.10956360377E+03  0.22539185990E+03  0.21159327501E+03  0.35100197693E+03  0.12500000000E+03 0.  0.
         21    1    1    2  503  501  0.56732604274E+02 -0.86805600455E+02  0.41352394061E+02  0.11164148491E+03  0.00000000000E+00 0. -1.
         21    1    1    2  504  502  0.52830999501E+02 -0.13858625944E+03  0.55625249563E+03  0.57568576907E+03  0.00000000000E+00 0. -1.
<mgrwt>
<rscale>  4 0.20361781E+03</rscale>
<asrwt>0</asrwt>
<pdfrwt beam="1">  1       21 0.14211749E+00 0.20361781E+03</pdfrwt>
<pdfrwt beam="2">  1       21 0.17625467E-01 0.20361781E+03</pdfrwt>
<totfact> 0.99642756E+03</totfact>
</mgrwt>
</event>
<event>
 5    0  0.1257040E+001  0.4039169E+03  0.7546771E-02  0.1042432E+00
         21   -1    0    0  502  501  0.00000000000E+00  0.00000000000E+00  0.18985618562E+03  0.18985618562E+03  0.00000000000E+00 0.  1.
         21   -1    0    0  504  502 -0.00000000000E+00 -0.00000000000E+00 -0.89708965845E+03  0.89708965845E+03  0.00000000000E+00 0.  1.
         25    1    1    2    0    0  0.35943799768E+03 -0.10964575756E+03 -0.40566312200E+03  0.56692630462E+03  0.12500000000E+03 0.  0.
         21    1    1    2  503  501 -0.36870447186E+03  0.12789223021E+03 -0.24728708490E+03  0.46200683163E+03  0.00000000000E+00 0.  1.
         21    1    1    2  504  503  0.92664741814E+01 -0.18246472646E+02 -0.54283265933E+02  0.58012707816E+02  0.00000000000E+00 0.  1.
<mgrwt>
<rscale>  4 0.40391695E+03</rscale>
<asrwt>0</asrwt>
<pdfrwt beam="1">  1       21 0.29208644E-01 0.40391695E+03</pdfrwt>
<pdfrwt beam="2">  1       21 0.13801379E+00 0.40391695E+03</pdfrwt>
<totfact> 0.36815728E+03</totfact>
</mgrwt>
</event>
<event>
 5    0  0.1257040E+001  0.2938324E+03  0.7546771E-02  0.1088365E+00
         21   -1    0    0  504  501  0.00000000000E+00  0.00000000000E+00  0.28901263909E+03  0.28901263909E+03  0.00000000000E+00 0.  1.
         21   -1    0    0  503  502 -0.00000000000E+00 -0.00000000000E+00 -0.11985884048E+04  0.11985884048E+04  0.00000000000E+00 0.  1.
         25    1    1    2    0    0  0.92234269477E+02  0.24069434715E+03 -0.79988833882E+03  0.84963950226E+03  0.12500000000E+03 0.  0.
         21    1    1    2  503  501 -0.20444091886E+03 -0.22167406024E+03 -0.29412194679E+03  0.42124007154E+03  0.00000000000E+00 0.  1.
         21    1    1    2  504  502  0.11220664938E+03 -0.19020286916E+02  0.18443451989E+03  0.21672147011E+03  0.00000000000E+00 0.  1.
<mgrwt>
<rscale>  4 0.29383241E+03</rscale>
<asrwt>0</asrwt>
<pdfrwt beam="1">  1       21 0.44463483E-01 0.29383241E+03</pdfrwt>
<pdfrwt beam="2">  1       21 0.18439822E+00 0.29383241E+03</pdfrwt>
<totfact> 0.75203933E+02</totfact>
</mgrwt>
</event>
<event>
 5    0  0.1257040E+001  0.2048006E+03  0.7546771E-02  0.1145751E+00
         21   -1    0    0  503  501  0.00000000000E+00  0.00000000000E+00  0.18740067175E+03  0.18740067175E+03  0.00000000000E+00 0.  1.
         21   -1    0    0  504  502 -0.00000000000E+00 -0.00000000000E+00 -0.55051751493E+03  0.55051751493E+03  0.00000000000E+00 0.  1.
         25    1    1    2    0    0  0.41956852205E+02  0.20014880098E+03 -0.83989130659E+02  0.25396671839E+03  0.12500000000E+03 0.  0.
         21    1    1    2  503  502  0.67719485633E+01 -0.15494783464E+03 -0.35240296355E+03  0.38502277785E+03  0.00000000000E+00 0.  1.
         21    1    1    2  504  501 -0.48728800768E+02 -0.45200966334E+02  0.73275251024E+02  0.98928690452E+02  0.00000000000E+00 0.  1.
<mgrwt>
<rscale>  4 0.20480059E+03</rscale>
<asrwt>0</asrwt>
<pdfrwt beam="1">  1       21 0.28830872E-01 0.20480059E+03</pdfrwt>
<pdfrwt beam="2">  1       21 0.84695003E-01 0.20480059E+03</pdfrwt>
<totfact> 0.13798645E+04</totfact>
</mgrwt>
</event>
<event>
 5    0  0.1257040E+001  0.2122884E+03  0.7546771E-02  0.1139767E+00
         21   -1    0    0  502  501  0.00000000000E+00  0.00000000000E+00  0.90571917431E+02  0.90571917431E+02  0.00000000000E+00 0. -1.
         21   -1    0    0  504  502 -0.00000000000E+00 -0.00000000000E+00 -0.12093265963E+04  0.12093265963E+04  0.00000000000E+00 0. -1.
         25    1    1    2    0    0  0.64593800002E+02 -0.21732568029E+03 -0.84467202687E+03  0.88345834270E+03  0.12500000000E+03 0.  0.
         21    1    1    2  503  501 -0.10510771227E+03  0.12887802899E+03 -0.52423082654E+02  0.17437131969E+03  0.00000000000E+00 0. -1.
         21    1    1    2  504  503  0.40513912269E+02  0.88447651304E+02 -0.22165956939E+03  0.24206885139E+03  0.00000000000E+00 0.  1.
<mgrwt>
<rscale>  4 0.21228837E+03</rscale>
<asrwt>0</asrwt>
<pdfrwt beam="1">  1       21 0.13934141E-01 0.21228837E+03</pdfrwt>
<pdfrwt beam="2">  1       21 0.18605025E+00 0.21228837E+03</pdfrwt>
<totfact> 0.73085977E+03</totfact>
</mgrwt>
</event>
<event>
 5    0  0.1257040E+001  0.3711730E+03  0.7546771E-02  0.1054245E+00
         21   -1    0    0  503  501  0.00000000000E+00  0.00000000000E+00  0.80720589685E+03  0.80720589685E+03  0.00000000000E+00 0.  1.
         21   -1    0    0  504  502 -0.00000000000E+00 -0.00000000000E+00 -0.56564437199E+03  0.56564437199E+03  0.00000000000E+00 0.  1.
         25    1    1    2    0    0  0.31671465330E+03 -0.51613835245E+02  0.16949878843E+03  0.38383199304E+03  0.12500000000E+03 0.  0.
         21    1    1    2  503  502  0.52647623451E+02  0.74437679135E+02 -0.38801157561E+03  0.39857963212E+03  0.00000000000E+00 0.  1.
         21    1    1    2  504  501 -0.36936227675E+03 -0.22823843890E+02  0.46007431206E+03  0.59043864368E+03  0.00000000000E+00 0.  1.
<mgrwt>
<rscale>  4 0.37117299E+03</rscale>
<asrwt>0</asrwt>
<pdfrwt beam="1">  1       21 0.12418552E+00 0.37117299E+03</pdfrwt>
<pdfrwt beam="2">  1       21 0.87022211E-01 0.37117299E+03</pdfrwt>
<totfact> 0.47814143E+02</totfact>
</mgrwt>
</event>
<event>
 5    0  0.1257040E+001  0.2370184E+03  0.7546771E-02  0.1121795E+00
         21   -1    0    0  503  501  0.00000000000E+00  0.00000000000E+00  0.96398397378E+03  0.96398397378E+03  0.00000000000E+00 0. -1.
         21   -1    0    0  504  502 -0.00000000000E+00 -0.00000000000E+00 -0.64958799426E+02  0.64958799426E+02  0.00000000000E+00 0. -1.
         25    1    1    2    0    0 -0.33323943717E+02 -0.21449830389E+03  0.61205491152E+03  0.66132913312E+03  0.12500000000E+03 0.  0.
         21    1    1    2  503  502  0.24209459654E+02  0.19382905200E+03  0.20742357085E+03  0.28492163322E+03  0.00000000000E+00 0. -1.
         21    1    1    2  504  501  0.91144840632E+01  0.20669251888E+02  0.79546691989E+02  0.82692006867E+02  0.00000000000E+00 0.  1.
<mgrwt>
<rscale>  4 0.23701838E+03</rscale>
<asrwt>0</asrwt>
<pdfrwt beam="1">  1       21 0.14830522E+00 0.23701838E+03</pdfrwt>
<pdfrwt beam="2">  1       21 0.99936621E-02 0.23701838E+03</pdfrwt>
<totfact> 0.24353017E+04</totfact>
</mgrwt>
</event>
<event>
 5    0  0.1257040E+001  0.2169969E+03  0.7546771E-02  0.1136142E+00
         21   -1    0    0  503  501  0.00000000000E+00  0.00000000000E+00  0.83316516133E+03  0.83316516133E+03  0.00000000000E+00 0. -1.
         21   -1    0    0  501  502 -0.00000000000E+00 -0.00000000000E+00 -0.19983674111E+03  0.19983674111E+03  0.00000000000E+00 0.  1.
         25    1    1    2    0    0 -0.16799191549E+03  0.12774865097E+03  0.54856902483E+03  0.60091095555E+03  0.12500000000E+03 0.  0.
         21    1    1    2  503  504  0.16625672168E+03  0.46472678536E+02 -0.81823229467E+02  0.19103938922E+03  0.00000000000E+00 0.  1.
         21    1    1    2  504  502  0.17351938114E+01 -0.17422132950E+03  0.16658262486E+03  0.24105155767E+03  0.00000000000E+00 0. -1.
<mgrwt>
<rscale>  4 0.21699694E+03</rscale>
<asrwt>0</asrwt>
<pdfrwt beam="1">  1       21 0.12817925E+00 0.21699694E+03</pdfrwt>
<pdfrwt beam="2">  1       21 0.30744114E-01 0.21699694E+03</pdfrwt>
<totfact> 0.44617068E+03</totfact>
</mgrwt>
</event>
<event>
 5    0  0.1257040E+001  0.2961827E+03  0.7546771E-02  0.1087165E+00
         21   -1    0    0  504  501  0.00000000000E+00  0.00000000000E+00  0.10452212701E+04  0.10452212701E+04  0.00000000000E+00 0. -1.
         21   -1    0    0  503  502 -0.00000000000E+00 -0.00000000000E+00 -0.12980773381E+03  0.12980773381E+03  0.00000000000E+00 0. -1.
         25    1    1    2    0    0  0.16383920407E+02  0.24628954065E+03  0.17012524170E+03  0.32479927424E+03  0.12500000000E+03 0.  0.
         21    1    1    2  503  501 -0.23814164742E+02 -0.31125436470E+03  0.44925992853E+03  0.54706569749E+03  0.00000000000E+00 0. -1.
         21    1    1    2  504  502  0.74302443351E+01  0.64964824047E+02  0.29602836607E+03  0.30316403219E+03  0.00000000000E+00 0. -1.
<mgrwt>
<rscale>  4 0.29618267E+03</rscale>
<asrwt>0</asrwt>
<pdfrwt beam="1">  1       21 0.16080327E+00 0.29618267E+03</pdfrwt>
<pdfrwt beam="2">  1       21 0.19970421E-01 0.29618267E+03</pdfrwt>
<totfact> 0.53494953E+03</totfact>
</mgrwt>
</event>
<event>
 5    0  0.1257040E+001  0.3340332E+03  0.7546771E-02  0.1069366E+00
         21   -1    0    0  502  501  0.00000000000E+00  0.00000000000E+00  0.13769858097E+03  0.13769858097E+03  0.00000000000E+00 0.  1.
         21   -1    0    0  504  502 -0.00000000000E+00 -0.00000000000E+00 -0.11368312321E+04  0.11368312321E+04  0.00000000000E+00 0.  1.
         25    1    1    2    0    0 -0.27769263110E+03  0.66624592609E+01 -0.73556795800E+03  0.79614245369E+03  0.12500000000E+03 0.  0.
         21    1    1    2  503  501  0.31933748512E+03  0.34293446343E+02 -0.15844559329E+03  0.35813052913E+03  0.00000000000E+00 0.  1.
         21    1    1    2  504  503 -0.41644854018E+02 -0.40955905604E+02 -0.10511909989E+03  0.12025683029E+03  0.00000000000E+00 0.  1.
<mgrwt>
<rscale>  4 0.33403317E+03</rscale>
<asrwt>0</asrwt>
<pdfrwt beam="1">  1       21 0.21184397E-01 0.33403317E+03</pdfrwt>
<pdfrwt beam="2">  1       21 0.17489711E+00 0.33403317E+03</pdfrwt>
<totfact> 0.37049828E+03</totfact>
</mgrwt>
</event>
