<event>
 5    0  0.2065489E+001  0.1806805E+03  0.7546771E-02  0.1167146E+00
         21   -1    0    0  503  501  0.00000000000E+00  0.00000000000E+00  0.90148492246E+03  0.90148492246E+03  0.00000000000E+00 0. -1.
         21   -1    0    0  504  502 -0.00000000000E+00 -0.00000000000E+00 -0.83460923862E+03  0.83460923862E+03  0.00000000000E+00 0.  1.
         25    1    1    2    0    0 -0.24025068189E+03  0.30150120848E+02 -0.73511941226E+03  0.78399934325E+03  0.12500000000E+03 0.  0.
         21    1    1    2  503  502  0.11147868156E+03 -0.14504899465E+02 -0.24853325039E+02  0.11513286376E+03  0.00000000000E+00 0.  1.
         21    1    1    2  504  501  0.12877200032E+03 -0.15645221383E+02  0.82684842115E+03  0.83696195408E+03  0.00000000000E+00 0. -1.
<mgrwt>
<rscale>  4 0.18068047E+03</rscale>
<asrwt>0</asrwt>
<pdfrwt beam="1">  1       21 0.13868999E+00 0.18068047E+03</pdfrwt>
<pdfrwt beam="2">  1       21 0.12840142E+00 0.18068047E+03</pdfrwt>
<totfact> 0.16616272E+02</totfact>
</mgrwt>
</event>
<event>
 5    0  0.1257040E+001  0.2507187E+03  0.7546771E-02  0.1112851E+00
         21   -1    0    0  503  501  0.00000000000E+00  0.00000000000E+00  0.31368251507E+03  0.31368251507E+03  0.00000000000E+00 0.  1.
         21   -1    0    0  501  502 -0.00000000000E+00 -0.00000000000E+00 -0.23039751323E+03  0.23039751323E+03  0.00000000000E+00 0.  1.
         25    1    1    2    0    0 -0.17761370925E+02 -0.22557322736E+03 -0.18859216179E+02  0.25918992502E+03  0.12500000000E+03 0.  0.
         21    1    1    2  503  504  0.30447610089E+02  0.11952404990E+02 -0.20145719752E+02  0.38415712534E+02  0.00000000000E+00 0.  1.
         21    1    1    2  504  502 -0.12686239164E+02  0.21362082237E+03  0.12228993778E+03  0.24647439075E+03  0.00000000000E+00 0.  1.
<mgrwt>
<rscale>  4 0.25071868E+03</rscale>
<asrwt>0</asrwt>
<pdfrwt beam="1">  1       21 0.48258849E-01 0.25071868E+03</pdfrwt>
<pdfrwt beam="2">  1       21 0.35445771E-01 0.25071868E+03</pdfrwt>
<totfact> 0.30582177E+04</totfact>
</mgrwt>
</event>
<event>
 5    0  0.1257040E+001  0.4255524E+03  0.7546771E-02  0.1035274E+00
         21   -1    0    0  504  501  0.00000000000E+00  0.00000000000E+00  0.63942318069E+03  0.63942318069E+03  0.00000000000E+00 0.  1.
         21   -1    0    0  501  502 -0.00000000000E+00 -0.00000000000E+00 -0.41568421768E+03  0.41568421768E+03  0.00000000000E+00 0.  1.
         25    1    1    2    0    0  0.28695024333E+03  0.26400852424E+03  0.39622308223E+03  0.56978827112E+03  0.12500000000E+03 0.  0.
         21    1    1    2  503  502 -0.30794291180E+03 -0.27273093520E+03 -0.19329060531E+03  0.45450220906E+03  0.00000000000E+00 0.  1.
         21    1    1    2  504  503  0.20992668467E+02  0.87224109652E+01  0.20806486096E+02  0.30816918180E+02  0.00000000000E+00 0.  1.
<mgrwt>
<rscale>  4 0.42555236E+03</rscale>
<asrwt>0</asrwt>
<pdfrwt beam="1">  1       21 0.98372797E-01 0.42555236E+03</pdfrwt>
<pdfrwt beam="2">  1       21 0.63951418E-01 0.42555236E+03</pdfrwt>
<totfact> 0.16719720E+03</totfact>
</mgrwt>
</event>
<event>
 5    0  0.1257040E+001  0.2532461E+03  0.7546771E-02  0.1111270E+00
         21   -1    0    0  502  501  0.00000000000E+00  0.00000000000E+00  0.76047926944E+03  0.76047926944E+03  0.00000000000E+00 0. -1.
         21   -1    0    0  504  502 -0.00000000000E+00 -0.00000000000E+00 -0.19512476779E+03  0.19512476779E+03  0.00000000000E+00 0.  1.
         25    1    1    2    0    0 -0.63049845004E+02 -0.19004334572E+03 -0.71978468851E+02  0.24677450473E+03  0.12500000000E+03 0.  0.
         21    1    1    2  503  501  0.79981574316E+02  0.20774820838E+03  0.64565681935E+03  0.68295614697E+03  0.00000000000E+00 0. -1.
         21    1    1    2  504  503 -0.16931729313E+02 -0.17704862660E+02 -0.83238488450E+01  0.25873385533E+02  0.00000000000E+00 0. -1.
<mgrwt>
<rscale>  4 0.25324611E+03</rscale>
<asrwt>0</asrwt>
<pdfrwt beam="1">  1       21 0.11699681E+00 0.25324611E+03</pdfrwt>
<pdfrwt beam="2">  1       21 0.30019196E-01 0.25324611E+03</pdfrwt>
<totfact> 0.57325958E+03</totfact>
</mgrwt>
</event>
<event>
 5    0  0.1257040E+001  0.2119877E+03  0.7546771E-02  0.1140002E+00
         21   -1    0    0  504  501  0.00000000000E+00  0.00000000000E+00  0.37628320707E+03  0.37628320707E+03  0.00000000000E+00 0. -1.
         21   -1    0    0  503  502 -0.00000000000E+00 -0.00000000000E+00 -0.17843414959E+03  0.17843414959E+03  0.00000000000E+00 0. -1.
         25    1    1    2    0    0 -0.21409506614E+03  0.12462622811E+02  0.18544589797E+03  0.30985027899E+03  0.12500000000E+03 0.  0.
         21    1    1    2  503  501  0.15970554807E+03 -0.16492987872E+02 -0.43932268720E+02  0.16645697633E+03  0.00000000000E+00 0. -1.
         21    1    1    2  504  502  0.54389518069E+02  0.40303650605E+01  0.56335428231E+02  0.78410101341E+02  0.00000000000E+00 0. -1.
<mgrwt>
<rscale>  4 0.21198772E+03</rscale>
<asrwt>0</asrwt>
<pdfrwt beam="1">  1       21 0.57889724E-01 0.21198772E+03</pdfrwt>
<pdfrwt beam="2">  1       21 0.27451408E-01 0.21198772E+03</pdfrwt>
<totfact> 0.35054941E+04</totfact>
</mgrwt>
</event>
<event>
 5    0  0.1257040E+001  0.1790532E+03  0.7546771E-02  0.1168722E+00
         21   -1    0    0  502  501  0.00000000000E+00  0.00000000000E+00  0.68558105941E+03  0.68558105941E+03  0.00000000000E+00 0. -1.
         21   -1    0    0  504  502 -0.00000000000E+00 -0.00000000000E+00 -0.71110661026E+03  0.71110661026E+03  0.00000000000E+00 0.  1.
         25    1    1    2    0    0 -0.33157657096E+01  0.21270976111E+03  0.18190220954E+03  0.30654502216E+03  0.12500000000E+03 0.  0.
         21    1    1    2  503  501 -0.19141124506E+02 -0.11623031716E+03  0.42960098935E+03  0.44545805563E+03  0.00000000000E+00 0. -1.
         21    1    1    2  504  503  0.22456890216E+02 -0.96479443949E+02 -0.63702874974E+03  0.64468459189E+03  0.00000000000E+00 0.  1.
<mgrwt>
<rscale>  4 0.17905323E+03</rscale>
<asrwt>0</asrwt>
<pdfrwt beam="1">  1       21 0.10547401E+00 0.17905323E+03</pdfrwt>
<pdfrwt beam="2">  1       21 0.10940102E+00 0.17905323E+03</pdfrwt>
<totfact> 0.48591859E+02</totfact>
</mgrwt>
</event>
<event>
 5    0  0.1257040E+001  0.2753757E+03  0.7546771E-02  0.1098242E+00
         21   -1    0    0  502  501  0.00000000000E+00  0.00000000000E+00  0.15423249102E+03  0.15423249102E+03  0.00000000000E+00 0. -1.
         21   -1    0    0  504  502 -0.00000000000E+00 -0.00000000000E+00 -0.88317216042E+03  0.88317216042E+03  0.00000000000E+00 0.  1.
         25    1    1    2    0    0 -0.15221858999E+03  0.25223343479E+03 -0.51315345254E+03  0.60476745169E+03  0.12500000000E+03 0.  0.
         21    1    1    2  503  501  0.16243552400E+03 -0.16914285291E+03 -0.39948176604E+02  0.23788749644E+03  0.00000000000E+00 0. -1.
         21    1    1    2  504  503 -0.10216934005E+02 -0.83090581877E+02 -0.17583804026E+03  0.19474970331E+03  0.00000000000E+00 0. -1.
<mgrwt>
<rscale>  4 0.27537569E+03</rscale>
<asrwt>0</asrwt>
<pdfrwt beam="1">  1       21 0.23728076E-01 0.27537569E+03</pdfrwt>
<pdfrwt beam="2">  1       21 0.13587264E+00 0.27537569E+03</pdfrwt>
<totfact> 0.61102468E+03</totfact>
</mgrwt>
</event>
<event>
 5    0  0.1257040E+001  0.2097151E+03  0.7546771E-02  0.1141792E+00
         21   -1    0    0  502  501  0.00000000000E+00  0.00000000000E+00  0.73391283007E+03  0.73391283007E+03  0.00000000000E+00 0. -1.
         21   -1    0    0  504  502 -0.00000000000E+00 -0.00000000000E+00 -0.97373486088E+02  0.97373486088E+02  0.00000000000E+00 0. -1.
         25    1    1    2    0    0  0.13915129174E+03  0.17586823410E+03  0.38495989509E+03  0.46272220455E+03  0.12500000000E+03 0.  0.
         21    1    1    2  503  501 -0.12686809035E+02 -0.13553615571E+03  0.11640467812E+03  0.17911184695E+03  0.00000000000E+00 0. -1.
         21    1    1    2  504  503 -0.12646448270E+03 -0.40332078384E+02  0.13517477077E+03  0.18945226466E+03  0.00000000000E+00 0. -1.
<mgrwt>
<rscale>  4 0.20971506E+03</rscale>
<asrwt>0</asrwt>
<pdfrwt beam="1">  1       21 0.11290966E+00 0.20971506E+03</pdfrwt>
<pdfrwt beam="2">  1       21 0.14980537E-01 0.20971506E+03</pdfrwt>
<totfact> 0.23857768E+04</totfact>
</mgrwt>
</event>
<event>
 5    0  0.1257040E+001  0.2657546E+03  0.7546771E-02  0.1103734E+00
         21   -1    0    0  504  501  0.00000000000E+00  0.00000000000E+00  0.21581243164E+03  0.21581243164E+03  0.00000000000E+00 0. -1.
         21   -1    0    0  501  502 -0.00000000000E+00 -0.00000000000E+00 -0.35127038201E+03  0.35127038201E+03  0.00000000000E+00 0. -1.
         25    1    1    2    0    0  0.17745780774E+03 -0.15550744749E+03 -0.12577474770E+03  0.29515780002E+03  0.12500000000E+03 0.  0.
         21    1    1    2  503  502 -0.14994820281E+03  0.17992713210E+03 -0.14145346592E+01  0.23422262338E+03  0.00000000000E+00 0. -1.
         21    1    1    2  504  503 -0.27509604928E+02 -0.24419684620E+02 -0.82686680059E+01  0.37702390253E+02  0.00000000000E+00 0. -1.
<mgrwt>
<rscale>  4 0.26575456E+03</rscale>
<asrwt>0</asrwt>
<pdfrwt beam="1">  1       21 0.33201913E-01 0.26575456E+03</pdfrwt>
<pdfrwt beam="2">  1       21 0.54041596E-01 0.26575456E+03</pdfrwt>
<totfact> 0.27272153E+04</totfact>
</mgrwt>
</event>
<event>
 5    0  0.1257040E+001  0.2548227E+03  0.7546771E-02  0.1110294E+00
         21   -1    0    0  502  501  0.00000000000E+00  0.00000000000E+00  0.16876630804E+04  0.16876630804E+04  0.00000000000E+00 0. -1.
         21   -1    0    0  504  502 -0.00000000000E+00 -0.00000000000E+00 -0.89912777192E+02  0.89912777192E+02  0.00000000000E+00 0.  1.
         25    1    1    2    0    0  0.34105952581E+02 -0.24442105258E+03  0.73728137821E+03  0.78747298214E+03  0.12500000000E+03 0.  0.
         21    1    1    2  503  501  0.62281889061E+01  0.31985643856E+02  0.74359356780E+03  0.74430723886E+03  0.00000000000E+00 0. -1.
         21    1    1    2  504  503 -0.40334141487E+02  0.21243540873E+03  0.11687535722E+03  0.24579563661E+03  0.00000000000E+00 0.  1.
<mgrwt>
<rscale>  4 0.25482269E+03</rscale>
<asrwt>0</asrwt>
<pdfrwt beam="1">  1       21 0.25964045E+00 0.25482269E+03</pdfrwt>
<pdfrwt beam="2">  1       21 0.13832736E-01 0.25482269E+03</pdfrwt>
<totfact> 0.24931905E+03</totfact>
</mgrwt>
</event>
<event>
 5    0  0.1257040E+001  0.2979436E+03  0.7546771E-02  0.1086273E+00
         21   -1    0    0  503  501  0.00000000000E+00  0.00000000000E+00  0.21417209491E+03  0.21417209491E+03  0.00000000000E+00 0. -1.
         21   -1    0    0  504  502 -0.00000000000E+00 -0.00000000000E+00 -0.47338774577E+03  0.47338774577E+03  0.00000000000E+00 0. -1.
         25    1    1    2    0    0 -0.27979546618E+03  0.35321676402E+02 -0.75564529457E+02  0.31759742101E+03  0.12500000000E+03 0.  0.
         21    1    1    2  503  502  0.19487178833E+02 -0.37668605781E+02 -0.78469624566E+02  0.89197286842E+02  0.00000000000E+00 0. -1.
         21    1    1    2  504  501  0.26030828735E+03  0.23469293794E+01 -0.10518149683E+03  0.28076513283E+03  0.00000000000E+00 0. -1.
<mgrwt>
<rscale>  4 0.29794362E+03</rscale>
<asrwt>0</asrwt>
<pdfrwt beam="1">  1       21 0.32949553E-01 0.29794362E+03</pdfrwt>
<pdfrwt beam="2">  1       21 0.72828884E-01 0.29794362E+03</pdfrwt>
<totfact> 0.14231081E+04</totfact>
</mgrwt>
</event>
<event>
 5    0  0.1257040E+001  0.2984106E+03  0.7546771E-02  0.1086038E+00
         21   -1    0    0  502  501  0.00000000000E+00  0.00000000000E+00  0.42239028728E+03  0.42239028728E+03  0.00000000000E+00 0.  1.
         21   -1    0    0  504  502 -0.00000000000E+00 -0.00000000000E+00 -0.83532419428E+03  0.83532419428E+03  0.00000000000E+00 0.  1.
         25    1    1    2    0    0 -0.19196700942E+03  0.22816358871E+03 -0.59312425523E+03  0.67552301076E+03  0.12500000000E+03 0.  0.
         21    1    1    2  503  501  0.23128395713E+03 -0.13929351353E+03  0.31572115604E+03  0.41542123213E+03  0.00000000000E+00 0.  1.
         21    1    1    2  504  503 -0.39316947710E+02 -0.88870075182E+02 -0.13553080780E+03  0.16677023866E+03  0.00000000000E+00 0.  1.
<mgrwt>
<rscale>  4 0.29841059E+03</rscale>
<asrwt>0</asrwt>
<pdfrwt beam="1">  1       21 0.64983121E-01 0.29841059E+03</pdfrwt>
<pdfrwt beam="2">  1       21 0.12851141E+00 0.29841059E+03</pdfrwt>
<totfact> 0.88821519E+02</totfact>
</mgrwt>
</event>
<event>
 5    0  0.1257040E+001  0.3103796E+03  0.7546771E-02  0.1080164E+00
         21   -1    0    0  502  501  0.00000000000E+00  0.00000000000E+00  0.26216444078E+03  0.26216444078E+03  0.00000000000E+00 0.  1.
         21   -1    0    0  504  502 -0.00000000000E+00 -0.00000000000E+00 -0.42857849324E+03  0.42857849324E+03  0.00000000000E+00 0.  1.
         25    1    1    2    0    0  0.15371115954E+03  0.22243438723E+03  0.46637301515E+02  0.30150325882E+03  0.12500000000E+03 0.  0.
         21    1    1    2  503  501  0.47739234365E+01  0.20109098770E+02  0.10599963324E+02  0.23227686514E+02  0.00000000000E+00 0. -1.
         21    1    1    2  504  503 -0.15848508298E+03 -0.24254348600E+03 -0.22365131731E+03  0.36601198868E+03  0.00000000000E+00 0.  1.
<mgrwt>
<rscale>  4 0.31037964E+03</rscale>
<asrwt>0</asrwt>
<pdfrwt beam="1">  1       21 0.40332991E-01 0.31037964E+03</pdfrwt>
<pdfrwt beam="2">  1       21 0.65935153E-01 0.31037964E+03</pdfrwt>
<totfact> 0.11748471E+04</totfact>
</mgrwt>
</event>
<event>
 5    0  0.1257040E+001  0.2874131E+03  0.7546771E-02  0.1091708E+00
         21   -1    0    0  502  501  0.00000000000E+00  0.00000000000E+00  0.17283440137E+03  0.17283440137E+03  0.00000000000E+00 0.  1.
         21   -1    0    0  504  502 -0.00000000000E+00 -0.00000000000E+00 -0.95311818920E+03  0.95311818920E+03  0.00000000000E+00 0.  1.
         25    1    1    2    0    0  0.23072611561E+03  0.53171548833E+02 -0.75800313406E+03  0.80390018365E+03  0.12500000000E+03 0.  0.
         21    1    1    2  503  501 -0.24929027602E+03 -0.81562676197E+02  0.25416939084E+02  0.26352254678E+03  0.00000000000E+00 0.  1.
         21    1    1    2  504  503  0.18564160412E+02  0.28391127364E+02 -0.47697592849E+02  0.58529860143E+02  0.00000000000E+00 0. -1.
<mgrwt>
<rscale>  4 0.28741306E+03</rscale>
<asrwt>0</asrwt>
<pdfrwt beam="1">  1       21 0.26589908E-01 0.28741306E+03</pdfrwt>
<pdfrwt beam="2">  1       21 0.14663357E+00 0.28741306E+03</pdfrwt>
<totfact> 0.39887769E+03</totfact>
</mgrwt>
</event>
<event>
 5    0  0.1257040E+001  0.1774506E+03  0.7546771E-02  0.1170293E+00
         21   -1    0    0  502  501  0.00000000000E+00  0.00000000000E+00  0.45321801367E+03  0.45321801367E+03  0.00000000000E+00 0.  1.
         21   -1    0    0  504  502 -0.00000000000E+00 -0.00000000000E+00 -0.39631220842E+03  0.39631220842E+03  0.00000000000E+00 0.  1.
         25    1    1    2    0    0  0.18592915249E+03  0.10884983212E+03  0.33931975615E+03  0.42092853623E+03  0.12500000000E+03 0.  0.
         21    1    1    2  503  501 -0.65450161813E+02 -0.82248607754E+02  0.15406962707E+02  0.10623526561E+03  0.00000000000E+00 0.  1.
         21    1    1    2  504  503 -0.12047899068E+03 -0.26601224361E+02 -0.29782091360E+03  0.32236642026E+03  0.00000000000E+00 0.  1.
<mgrwt>
<rscale>  4 0.17745065E+03</rscale>
<asrwt>0</asrwt>
<pdfrwt beam="1">  1       21 0.69725848E-01 0.17745065E+03</pdfrwt>
<pdfrwt beam="2">  1       21 0.60971109E-01 0.17745065E+03</pdfrwt>
<totfact> 0.47362749E+03</totfact>
</mgrwt>
</event>
<event>
 5    0  0.1257040E+001  0.2856504E+03  0.7546771E-02  0.1092642E+00
         21   -1    0    0  504  501  0.00000000000E+00  0.00000000000E+00  0.91537976884E+03  0.91537976884E+03  0.00000000000E+00 0. -1.
         21   -1    0    0  503  502 -0.00000000000E+00 -0.00000000000E+00 -0.15134486699E+03  0.15134486699E+03  0.00000000000E+00 0. -1.
         25    1    1    2    0    0  0.24996511758E+03  0.16679488427E+03  0.52274576699E+03  0.61578505205E+03  0.12500000000E+03 0.  0.
         21    1    1    2  503  501 -0.19516789582E+03 -0.14890077332E+03  0.49170433513E+02  0.25035910087E+03  0.00000000000E+00 0. -1.
         21    1    1    2  504  502 -0.54797221764E+02 -0.17894110946E+02  0.19211870134E+03  0.20058048291E+03  0.00000000000E+00 0. -1.
<mgrwt>
<rscale>  4 0.28565043E+03</rscale>
<asrwt>0</asrwt>
<pdfrwt beam="1">  1       21 0.14082765E+00 0.28565043E+03</pdfrwt>
<pdfrwt beam="2">  1       21 0.23283826E-01 0.28565043E+03</pdfrwt>
<totfact> 0.57368097E+03</totfact>
</mgrwt>
</event>
<event>
 5    0  0.1257040E+001  0.1817582E+03  0.7546771E-02  0.1166112E+00
         21   -1    0    0  502  501  0.00000000000E+00  0.00000000000E+00  0.11944452657E+04  0.11944452657E+04  0.00000000000E+00 0. -1.
         21   -1    0    0  504  502 -0.00000000000E+00 -0.00000000000E+00 -0.86008586203E+02  0.86008586203E+02  0.00000000000E+00 0.  1.
         25    1    1    2    0    0 -0.20048441722E+03  0.68202357616E+02  0.17230514260E+03  0.30026592431E+03  0.12500000000E+03 0.  0.
         21    1    1    2  503  501  0.12586182248E+03 -0.11164079653E+02  0.82527250414E+03  0.83488953828E+03  0.00000000000E+00 0. -1.
         21    1    1    2  504  503  0.74622594739E+02 -0.57038277963E+02  0.11085903278E+03  0.14529838935E+03  0.00000000000E+00 0.  1.
<mgrwt>
<rscale>  4 0.18175818E+03</rscale>
<asrwt>0</asrwt>
<pdfrwt beam="1">  1       21 0.18376080E+00 0.18175818E+03</pdfrwt>
<pdfrwt beam="2">  1       21 0.13232091E-01 0.18175818E+03</pdfrwt>
<totfact> 0.85274832E+03</totfact>
</mgrwt>
</event>
<event>
 5    0  0.1257040E+001  0.2945522E+03  0.7546771E-02  0.1087996E+00
         21   -1    0    0  502  501  0.00000000000E+00  0.00000000000E+00  0.89514320167E+03  0.89514320167E+03  0.00000000000E+00 0.  1.
         21   -1    0    0  504  502 -0.00000000000E+00 -0.00000000000E+00 -0.13379689794E+03  0.13379689794E+03  0.00000000000E+00 0. -1.
         25    1    1    2    0    0 -0.29384510008E+03  0.46540902015E+02  0.20611295478E+03  0.38290801575E+03  0.12500000000E+03 0.  0.
         21    1    1    2  503  501  0.24162792552E+03 -0.87591614300E+02  0.48787634421E+03  0.55143419601E+03  0.00000000000E+00 0.  1.
         21    1    1    2  504  503  0.52217174558E+02  0.41050712284E+02  0.67357004739E+02  0.94597887848E+02  0.00000000000E+00 0.  1.
<mgrwt>
<rscale>  4 0.29455223E+03</rscale>
<asrwt>0</asrwt>
<pdfrwt beam="1">  1       21 0.13771433E+00 0.29455223E+03</pdfrwt>
<pdfrwt beam="2">  1       21 0.20584139E-01 0.29455223E+03</pdfrwt>
<totfact> 0.76533334E+03</totfact>
</mgrwt>
</event>
<event>
 5    0  0.1257040E+001  0.2863196E+03  0.7546771E-02  0.1092287E+00
         21   -1    0    0  503  501  0.00000000000E+00  0.00000000000E+00  0.16368481603E+04  0.16368481603E+04  0.00000000000E+00 0.  1.
         21   -1    0    0  504  502 -0.00000000000E+00 -0.00000000000E+00 -0.22999516690E+03  0.22999516690E+03  0.00000000000E+00 0. -1.
         25    1    1    2    0    0 -0.23942861359E+03 -0.43495853671E+02  0.56366941998E+02  0.27932093091E+03  0.12500000000E+03 0.  0.
         21    1    1    2  503  502  0.26081973426E+03  0.75195522189E+02  0.37548143769E+02  0.27402766911E+03  0.00000000000E+00 0. -1.
         21    1    1    2  504  501 -0.21391120670E+02 -0.31699668517E+02  0.13129379076E+04  0.13134947272E+04  0.00000000000E+00 0.  1.
<mgrwt>
<rscale>  4 0.28631961E+03</rscale>
<asrwt>0</asrwt>
<pdfrwt beam="1">  1       21 0.25182279E+00 0.28631961E+03</pdfrwt>
<pdfrwt beam="2">  1       21 0.35383873E-01 0.28631961E+03</pdfrwt>
<totfact> 0.45098981E+02</totfact>
</mgrwt>
</event>
<event>
 5    0  0.1257040E+001  0.1958556E+03  0.7546771E-02  0.1153284E+00
         21   -1    0    0  502  501  0.00000000000E+00  0.00000000000E+00  0.16523459534E+03  0.16523459534E+03  0.00000000000E+00 0.  1.
         21   -1    0    0  504  502 -0.00000000000E+00 -0.00000000000E+00 -0.96444994773E+03  0.96444994773E+03  0.00000000000E+00 0. -1.
         25    1    1    2    0    0  0.21000474191E+03  0.24436197166E+02  0.50188438463E+01  0.24566096180E+03  0.12500000000E+03 0.  0.
         21    1    1    2  503  501 -0.73432538883E+02  0.32242780986E+02 -0.15670238712E+02  0.81715916894E+02  0.00000000000E+00 0.  1.
         21    1    1    2  504  503 -0.13657220303E+03 -0.56678978152E+02 -0.78856395753E+03  0.80230766438E+03  0.00000000000E+00 0. -1.
<mgrwt>
<rscale>  4 0.19585555E+03</rscale>
<asrwt>0</asrwt>
<pdfrwt beam="1">  1       21 0.25420707E-01 0.19585555E+03</pdfrwt>
<pdfrwt beam="2">  1       21 0.14837691E+00 0.19585555E+03</pdfrwt>
<totfact> 0.45002494E+03</totfact>
</mgrwt>
</event>
<event>
 5    0  0.1257040E+001  0.2638710E+03  0.7546771E-02  0.1104840E+00
         21   -1    0    0  502  501  0.00000000000E+00  0.00000000000E+00  0.24925083445E+04  0.24925083445E+04  0.00000000000E+00 0.  1.
         21   -1    0    0  504  502 -0.00000000000E+00 -0.00000000000E+00 -0.66696688061E+02  0.66696688061E+02  0.00000000000E+00 0. -1.
         25    1    1    2    0    0 -0.23158409319E+03 -0.11610778786E+03  0.32134576472E+03  0.43127753376E+03  0.12500000000E+03 0.  0.
         21    1    1    2  503  501  0.20753851632E+03  0.97539268510E+02  0.20670478537E+04  0.20797290626E+04  0.00000000000E+00 0.  1.
         21    1    1    2  504  503  0.24045576868E+02  0.18568519350E+02  0.37418038105E+02  0.48198436213E+02  0.00000000000E+00 0. -1.
<mgrwt>
<rscale>  4 0.26387101E+03</rscale>
<asrwt>0</asrwt>
<pdfrwt beam="1">  1       21 0.38346275E+00 0.26387101E+03</pdfrwt>
<pdfrwt beam="2">  1       21 0.10261031E-01 0.26387101E+03</pdfrwt>
<totfact> 0.77780878E+02</totfact>
</mgrwt>
</event>
<event>
 5    0  0.1257040E+001  0.1900753E+03  0.7546771E-02  0.1158393E+00
         21   -1    0    0  502  501  0.00000000000E+00  0.00000000000E+00  0.76243344832E+02  0.76243344832E+02  0.00000000000E+00 0.  1.
         21   -1    0    0  504  502 -0.00000000000E+00 -0.00000000000E+00 -0.80751941783E+03  0.80751941783E+03  0.00000000000E+00 0.  1.
         25    1    1    2    0    0 -0.16207988616E+03  0.13755665031E+03 -0.45095979243E+03  0.51398585188E+03  0.12500000000E+03 0.  0.
         21    1    1    2  503  501  0.62418610257E+02 -0.81738425417E+02 -0.53750754975E+02  0.11604480495E+03  0.00000000000E+00 0.  1.
         21    1    1    2  504  503  0.99661275900E+02 -0.55818224890E+02 -0.22656552559E+03  0.25373210584E+03  0.00000000000E+00 0.  1.
<mgrwt>
<rscale>  4 0.19007527E+03</rscale>
<asrwt>0</asrwt>
<pdfrwt beam="1">  1       21 0.11729745E-01 0.19007527E+03</pdfrwt>
<pdfrwt beam="2">  1       21 0.12423376E+00 0.19007527E+03</pdfrwt>
<totfact> 0.29653292E+04</totfact>
</mgrwt>
</event>
<event>
 5    0  0.1257040E+001  0.3323727E+03  0.7546771E-02  0.1070092E+00
         21   -1    0    0  503  501  0.00000000000E+00  0.00000000000E+00  0.17654523185E+03  0.17654523185E+03  0.00000000000E+00 0.  1.
         21   -1    0    0  504  502 -0.00000000000E+00 -0.00000000000E+00 -0.10943118002E+04  0.10943118002E+04  0.00000000000E+00 0.  1.
         25    1    1    2    0    0 -0.30758586147E+03 -0.53674153631E+02 -0.83006460227E+03  0.89561276280E+03  0.12500000000E+03 0.  0.
         21    1    1    2  503  502  0.13734771394E+01  0.27416513943E+02 -0.60828196627E+02  0.66735456701E+02  0.00000000000E+00 0. -1.
         21    1    1    2  504  501  0.30621238433E+03  0.26257639687E+02 -0.26873769499E+02  0.30850881259E+03  0.00000000000E+00 0.  1.
<mgrwt>
<rscale>  4 0.33237269E+03</rscale>
<asrwt>0</asrwt>
<pdfrwt beam="1">  1       21 0.27160805E-01 0.33237269E+03</pdfrwt>
<pdfrwt beam="2">  1       21 0.16835566E+00 0.33237269E+03</pdfrwt>
<totfact> 0.25594843E+03</totfact>
</mgrwt>
</event>
<event>
 5    0  0.1257040E+001  0.3140853E+03  0.7546771E-02  0.1078404E+00
         21   -1    0    0  503  501  0.00000000000E+00  0.00000000000E+00  0.60927654215E+03  0.60927654215E+03  0.00000000000E+00 0.  1.
         21   -1    0    0  504  502 -0.00000000000E+00 -0.00000000000E+00 -0.36201831257E+03  0.36201831257E+03  0.00000000000E+00 0.  1.
         25    1    1    2    0    0 -0.21270155795E+03 -0.17211628886E+03  0.45304998763E+03  0.54382466011E+03  0.12500000000E+03 0.  0.
         21    1    1    2  503  502  0.23626612598E+03  0.16843353013E+03 -0.24620951647E+03  0.38053996158E+03  0.00000000000E+00 0.  1.
         21    1    1    2  504  501 -0.23564568030E+02  0.36827587290E+01  0.40417758404E+02  0.46930233034E+02  0.00000000000E+00 0. -1.
<mgrwt>
<rscale>  4 0.31408533E+03</rscale>
<asrwt>0</asrwt>
<pdfrwt beam="1">  1       21 0.93734853E-01 0.31408533E+03</pdfrwt>
<pdfrwt beam="2">  1       21 0.55695125E-01 0.31408533E+03</pdfrwt>
<totfact> 0.26717849E+03</totfact>
</mgrwt>
</event>
<event>
 5    0  0.1257040E+001  0.3744238E+03  0.7546771E-02  0.1053014E+00
         21   -1    0    0  504  501  0.00000000000E+00  0.00000000000E+00  0.96948973392E+03  0.96948973392E+03  0.00000000000E+00 0. -1.
         21   -1    0    0  503  502 -0.00000000000E+00 -0.00000000000E+00 -0.16853868347E+03  0.16853868347E+03  0.00000000000E+00 0. -1.
         25    1    1    2    0    0 -0.35707223724E+03  0.12272552549E+03  0.35010133269E+03  0.52986609664E+03  0.12500000000E+03 0.  0.
         21    1    1    2  503  501  0.38230394396E+02 -0.11485249498E+02 -0.56711636050E+01  0.40319177923E+02  0.00000000000E+00 0. -1.
         21    1    1    2  504  502  0.31884184284E+03 -0.11124027599E+03  0.45652088136E+03  0.56784314283E+03  0.00000000000E+00 0. -1.
<mgrwt>
<rscale>  4 0.37442379E+03</rscale>
<asrwt>0</asrwt>
<pdfrwt beam="1">  1       21 0.14915226E+00 0.37442379E+03</pdfrwt>
<pdfrwt beam="2">  1       21 0.25929029E-01 0.37442379E+03</pdfrwt>
<totfact> 0.38285537E+03</totfact>
</mgrwt>
</event>
<event>
 5    0  0.1257040E+001  0.2635408E+03  0.7546771E-02  0.1105034E+00
         21   -1    0    0  502  501  0.00000000000E+00  0.00000000000E+00  0.17021975457E+03  0.17021975457E+03  0.00000000000E+00 0. -1.
         21   -1    0    0  504  502 -0.00000000000E+00 -0.00000000000E+00 -0.42913453477E+03  0.42913453477E+03  0.00000000000E+00 0. -1.
         25    1    1    2    0    0  0.19659660412E+03  0.13548907547E+03 -0.19982454852E+03  0.33550315128E+03  0.12500000000E+03 0.  0.
         21    1    1    2  503  501 -0.17744965776E+03 -0.14459960631E+03 -0.34679269504E+02  0.23151690850E+03  0.00000000000E+00 0. -1.
         21    1    1    2  504  503 -0.19146946360E+02  0.91105308449E+01 -0.24410962172E+02  0.32334229562E+02  0.00000000000E+00 0. -1.
<mgrwt>
<rscale>  4 0.26354082E+03</rscale>
<asrwt>0</asrwt>
<pdfrwt beam="1">  1       21 0.26187655E-01 0.26354082E+03</pdfrwt>
<pdfrwt beam="2">  1       21 0.66020697E-01 0.26354082E+03</pdfrwt>
<totfact> 0.28188555E+04</totfact>
</mgrwt>
</event>
<event>
 5    0  0.1257040E+001  0.3868255E+03  0.7546771E-02  0.1048439E+00
         21   -1    0    0  502  501  0.00000000000E+00  0.00000000000E+00  0.82838181375E+03  0.82838181375E+03  0.00000000000E+00 0.  1.
         21   -1    0    0  504  502 -0.00000000000E+00 -0.00000000000E+00 -0.21240583549E+03  0.21240583549E+03  0.00000000000E+00 0.  1.
         25    1    1    2    0    0  0.27258629575E+03 -0.23530460001E+03  0.11351736010E+03  0.39772193108E+03  0.12500000000E+03 0.  0.
         21    1    1    2  503  501 -0.29462569420E+03  0.23791512737E+03  0.46716754585E+03  0.60137627440E+03  0.00000000000E+00 0.  1.
         21    1    1    2  504  503  0.22039398453E+02 -0.26105273617E+01  0.35291072310E+02  0.41689443773E+02  0.00000000000E+00 0. -1.
<mgrwt>
<rscale>  4 0.38682555E+03</rscale>
<asrwt>0</asrwt>
<pdfrwt beam="1">  1       21 0.12744335E+00 0.38682555E+03</pdfrwt>
<pdfrwt beam="2">  1       21 0.32677821E-01 0.38682555E+03</pdfrwt>
<totfact> 0.36487329E+03</totfact>
</mgrwt>
</event>
<event>
 5    0  0.1257040E+001  0.2529877E+03  0.7546771E-02  0.1111431E+00
         21   -1    0    0  503  501  0.00000000000E+00  0.00000000000E+00  0.38451557469E+03  0.38451557469E+03  0.00000000000E+00 0.  1.
         21   -1    0    0  504  502 -0.00000000000E+00 -0.00000000000E+00 -0.94003046996E+03  0.94003046996E+03  0.00000000000E+00 0.  1.
         25    1    1    2    0    0 -0.21689205450E+03  0.10640711250E+03 -0.55572047816E+03  0.61872036231E+03  0.12500000000E+03 0.  0.
         21    1    1    2  503  502  0.41828936761E+02  0.25049763942E+02 -0.31682316233E+03  0.32055275200E+03  0.00000000000E+00 0.  1.
         21    1    1    2  504  501  0.17506311774E+03 -0.13145687644E+03  0.31702874523E+03  0.38527293034E+03  0.00000000000E+00 0.  1.
<mgrwt>
<rscale>  4 0.25298770E+03</rscale>
<asrwt>0</asrwt>
<pdfrwt beam="1">  1       21 0.59156243E-01 0.25298770E+03</pdfrwt>
<pdfrwt beam="2">  1       21 0.14462007E+00 0.25298770E+03</pdfrwt>
<totfact> 0.83000970E+02</totfact>
</mgrwt>
</event>
<event>
 5    0  0.1257040E+001  0.2979178E+03  0.7546771E-02  0.1086286E+00
         21   -1    0    0  502  501  0.00000000000E+00  0.00000000000E+00  0.86149434653E+02  0.86149434653E+02  0.00000000000E+00 0.  1.
         21   -1    0    0  504  502 -0.00000000000E+00 -0.00000000000E+00 -0.19059468706E+04  0.19059468706E+04  0.00000000000E+00 0.  1.
         25    1    1    2    0    0 -0.14548630721E+03 -0.24706447550E+03 -0.51064086603E+03  0.59882068660E+03  0.12500000000E+03 0.  0.
         21    1    1    2  503  501 -0.33172407778E+02  0.48935065948E+02 -0.19796807308E+01  0.59152079025E+02  0.00000000000E+00 0. -1.
         21    1    1    2  504  503  0.17865871498E+03  0.19812940955E+03 -0.13071768892E+04  0.13341235396E+04  0.00000000000E+00 0.  1.
<mgrwt>
<rscale>  4 0.29791777E+03</rscale>
<asrwt>0</asrwt>
<pdfrwt beam="1">  1       21 0.13253759E-01 0.29791777E+03</pdfrwt>
<pdfrwt beam="2">  1       21 0.29322260E+00 0.29791777E+03</pdfrwt>
<totfact> 0.16477030E+03</totfact>
</mgrwt>
</event>
<event>
 5    0  0.1257040E+001  0.2293963E+03  0.7546771E-02  0.1127065E+00
         21   -1    0    0  503  501  0.00000000000E+00  0.00000000000E+00  0.11761025540E+03  0.11761025540E+03  0.00000000000E+00 0.  1.
         21   -1    0    0  504  502 -0.00000000000E+00 -0.00000000000E+00 -0.10864898276E+04  0.10864898276E+04  0.00000000000E+00 0.  1.
         25    1    1    2    0    0  0.58031999051E+02 -0.20189335906E+03 -0.76467521582E+03  0.80279625499E+03  0.12500000000E+03 0.  0.
         21    1    1    2  503  502 -0.26138174856E+01  0.19879043901E+02 -0.20999668251E+03  0.21095168900E+03  0.00000000000E+00 0. -1.
         21    1    1    2  504  501 -0.55418181565E+02  0.18201431515E+03  0.57923261527E+01  0.19035213897E+03  0.00000000000E+00 0.  1.
<mgrwt>
<rscale>  4 0.22939631E+03</rscale>
<asrwt>0</asrwt>
<pdfrwt beam="1">  1       21 0.18093885E-01 0.22939631E+03</pdfrwt>
<pdfrwt beam="2">  1       21 0.16715229E+00 0.22939631E+03</pdfrwt>
<totfact> 0.60355351E+03</totfact>
</mgrwt>
</event>
<event>
 5    0  0.1257040E+001  0.3992655E+03  0.7546771E-02  0.1044034E+00
         21   -1    0    0  504  501  0.00000000000E+00  0.00000000000E+00  0.12029313784E+03  0.12029313784E+03  0.00000000000E+00 0.  1.
         21   -1    0    0  501  502 -0.00000000000E+00 -0.00000000000E+00 -0.15590566786E+04  0.15590566786E+04  0.00000000000E+00 0.  1.
         25    1    1    2    0    0 -0.35246407276E+03 -0.55767470918E+02 -0.46985053374E+03  0.60309655732E+03  0.12500000000E+03 0.  0.
         21    1    1    2  503  502 -0.25521328179E+02 -0.55836177272E+02 -0.61266583488E+02  0.86732987593E+02  0.00000000000E+00 0. -1.
         21    1    1    2  504  503  0.37798540094E+03  0.11160364819E+03 -0.90764642352E+03  0.98952027152E+03  0.00000000000E+00 0.  1.
<mgrwt>
<rscale>  4 0.39926547E+03</rscale>
<asrwt>0</asrwt>
<pdfrwt beam="1">  1       21 0.18506639E-01 0.39926547E+03</pdfrwt>
<pdfrwt beam="2">  1       21 0.23985484E+00 0.39926547E+03</pdfrwt>
<totfact> 0.17376912E+03</totfact>
</mgrwt>
</event>
<event>
 5    0  0.1257040E+001  0.2804420E+03  0.7546771E-02  0.1095448E+00
         21   -1    0    0  502  501  0.00000000000E+00  0.00000000000E+00  0.24732552331E+03  0.24732552331E+03  0.00000000000E+00 0. -1.
         21   -1    0    0  504  502 -0.00000000000E+00 -0.00000000000E+00 -0.53315657087E+03  0.53315657087E+03  0.00000000000E+00 0. -1.
         25    1    1    2    0    0 -0.22402658221E+03  0.92188876368E+02  0.84582598600E+02  0.28542234399E+03  0.12500000000E+03 0.  0.
         21    1    1    2  503  501 -0.18991541149E+02 -0.21555644902E+02  0.16199628985E+02  0.32981092183E+02  0.00000000000E+00 0. -1.
         21    1    1    2  504  503  0.24301812336E+03 -0.70633231467E+02 -0.38661327514E+03  0.46207865801E+03  0.00000000000E+00 0. -1.
<mgrwt>
<rscale>  4 0.28044195E+03</rscale>
<asrwt>0</asrwt>
<pdfrwt beam="1">  1       21 0.38050081E-01 0.28044195E+03</pdfrwt>
<pdfrwt beam="2">  1       21 0.82024087E-01 0.28044195E+03</pdfrwt>
<totfact> 0.82053563E+03</totfact>
</mgrwt>
</event>
<event>
 5    0  0.1257040E+001  0.2497419E+03  0.7546771E-02  0.1113468E+00
         21   -1    0    0  504  501  0.00000000000E+00  0.00000000000E+00  0.69802596064E+02  0.69802596064E+02  0.00000000000E+00 0.  1.
         21   -1    0    0  503  502 -0.00000000000E+00 -0.00000000000E+00 -0.11804023113E+04  0.11804023113E+04  0.00000000000E+00 0.  1.
         25    1    1    2    0    0 -0.22918246347E+03  0.72687490855E+02 -0.67658153605E+03  0.72883170060E+03  0.12500000000E+03 0.  0.
         21    1    1    2  503  501  0.43524005433E+02  0.20902684438E+02 -0.21107095593E+03  0.21652300040E+03  0.00000000000E+00 0.  1.
         21    1    1    2  504  502  0.18565845803E+03 -0.93590175293E+02 -0.22294722322E+03  0.30485020632E+03  0.00000000000E+00 0.  1.
<mgrwt>
<rscale>  4 0.24974191E+03</rscale>
<asrwt>0</asrwt>
<pdfrwt beam="1">  1       21 0.10738862E-01 0.24974191E+03</pdfrwt>
<pdfrwt beam="2">  1       21 0.18160034E+00 0.24974191E+03</pdfrwt>
<totfact> 0.12190738E+04</totfact>
</mgrwt>
</event>
<event>
 5    0  0.1257040E+001  0.2560772E+03  0.7546771E-02  0.1109523E+00
         21   -1    0    0  503  501  0.00000000000E+00  0.00000000000E+00  0.11723035034E+04  0.11723035034E+04  0.00000000000E+00 0. -1.
         21   -1    0    0  504  502 -0.00000000000E+00 -0.00000000000E+00 -0.27267574906E+03  0.27267574906E+03  0.00000000000E+00 0. -1.
         25    1    1    2    0    0 -0.54043989913E+02  0.22734605272E+03  0.88606248551E+03  0.92484523503E+03  0.12500000000E+03 0.  0.
         21    1    1    2  503  502  0.16841980738E+03 -0.14965717608E+03 -0.17572039614E+03  0.28572742166E+03  0.00000000000E+00 0. -1.
         21    1    1    2  504  501 -0.11437581746E+03 -0.77688876635E+02  0.18928566502E+03  0.23440659581E+03  0.00000000000E+00 0. -1.
<mgrwt>
<rscale>  4 0.25607723E+03</rscale>
<asrwt>0</asrwt>
<pdfrwt beam="1">  1       21 0.18035438E+00 0.25607723E+03</pdfrwt>
<pdfrwt beam="2">  1       21 0.41950116E-01 0.25607723E+03</pdfrwt>
<totfact> 0.93092405E+02</totfact>
</mgrwt>
</event>
<event>
 5    0  0.1257040E+001  0.3553862E+03  0.7546771E-02  0.1060426E+00
         21   -1    0    0  503  501  0.00000000000E+00  0.00000000000E+00  0.42212710508E+03  0.42212710508E+03  0.00000000000E+00 0.  1.
         21   -1    0    0  504  502 -0.00000000000E+00 -0.00000000000E+00 -0.50227333991E+03  0.50227333991E+03  0.00000000000E+00 0.  1.
         25    1    1    2    0    0 -0.27968972863E+03 -0.14676292311E+03  0.14187173652E+03  0.36812808848E+03  0.12500000000E+03 0.  0.
         21    1    1    2  503  502 -0.10022692953E+03  0.63760592928E+02 -0.29738254076E+02  0.12245494833E+03  0.00000000000E+00 0.  1.
         21    1    1    2  504  501  0.37991665817E+03  0.83002330180E+02 -0.19227971727E+03  0.43381740818E+03  0.00000000000E+00 0.  1.
<mgrwt>
<rscale>  4 0.35538624E+03</rscale>
<asrwt>0</asrwt>
<pdfrwt beam="1">  1       21 0.64942632E-01 0.35538624E+03</pdfrwt>
<pdfrwt beam="2">  1       21 0.77272821E-01 0.35538624E+03</pdfrwt>
<totfact> 0.29342781E+03</totfact>
</mgrwt>
</event>
<event>
 5    0  0.1257040E+001  0.2130406E+03  0.7546771E-02  0.1139181E+00
         21   -1    0    0  502  501  0.00000000000E+00  0.00000000000E+00  0.42994850230E+03  0.42994850230E+03  0.00000000000E+00 0. -1.
         21   -1    0    0  504  502 -0.00000000000E+00 -0.00000000000E+00 -0.41110983285E+03  0.41110983285E+03  0.00000000000E+00 0. -1.
         25    1    1    2    0    0 -0.73260365907E+02 -0.19899330219E+03 -0.20929086695E+03  0.32309918371E+03  0.12500000000E+03 0.  0.
         21    1    1    2  503  501  0.99215969670E+02  0.13815619523E+03  0.34444506564E+03  0.38415276409E+03  0.00000000000E+00 0. -1.
         21    1    1    2  504  503 -0.25955603764E+02  0.60837106959E+02 -0.11631552924E+03  0.13380638734E+03  0.00000000000E+00 0.  1.
<mgrwt>
<rscale>  4 0.21304056E+03</rscale>
<asrwt>0</asrwt>
<pdfrwt beam="1">  1       21 0.66145923E-01 0.21304056E+03</pdfrwt>
<pdfrwt beam="2">  1       21 0.63247667E-01 0.21304056E+03</pdfrwt>
<totfact> 0.47767432E+03</totfact>
</mgrwt>
</event>
<event>
 5    0  0.1257040E+001  0.1917380E+03  0.7546771E-02  0.1156903E+00
         21   -1    0    0  504  501  0.00000000000E+00  0.00000000000E+00  0.77503920619E+03  0.77503920619E+03  0.00000000000E+00 0. -1.
         21   -1    0    0  503  502 -0.00000000000E+00 -0.00000000000E+00 -0.16140357516E+03  0.16140357516E+03  0.00000000000E+00 0. -1.
         25    1    1    2    0    0  0.19349209842E+03  0.53422370760E+02  0.19909982197E+03  0.30912599528E+03  0.12500000000E+03 0.  0.
         21    1    1    2  503  501 -0.68168151457E+02 -0.12357235333E+03 -0.43189238800E+02  0.14758839293E+03  0.00000000000E+00 0. -1.
         21    1    1    2  504  502 -0.12532394696E+03  0.70149982570E+02  0.45772504786E+03  0.47972839313E+03  0.00000000000E+00 0. -1.
<mgrwt>
<rscale>  4 0.19173798E+03</rscale>
<asrwt>0</asrwt>
<pdfrwt beam="1">  1       21 0.11923680E+00 0.19173798E+03</pdfrwt>
<pdfrwt beam="2">  1       21 0.24831320E-01 0.19173798E+03</pdfrwt>
<totfact> 0.82381386E+03</totfact>
</mgrwt>
</event>
<event>
 5    0  0.1257040E+001  0.2570254E+03  0.7546771E-02  0.1108944E+00
         21   -1    0    0  502  501  0.00000000000E+00  0.00000000000E+00  0.12566060682E+03  0.12566060682E+03  0.00000000000E+00 0.  1.
         21   -1    0    0  504  502 -0.00000000000E+00 -0.00000000000E+00 -0.60536939349E+03  0.60536939349E+03  0.00000000000E+00 0. -1.
         25    1    1    2    0    0 -0.23033926716E+03  0.42319286091E+02 -0.15503277241E+03  0.30742033194E+03  0.12500000000E+03 0.  0.
         21    1    1    2  503  501  0.24472607482E+02  0.38995706111E+02 -0.29564910395E+02  0.54714326631E+02  0.00000000000E+00 0.  1.
         21    1    1    2  504  503  0.20586665968E+03 -0.81314992202E+02 -0.29511110386E+03  0.36889534173E+03  0.00000000000E+00 0. -1.
<mgrwt>
<rscale>  4 0.25702537E+03</rscale>
<asrwt>0</asrwt>
<pdfrwt beam="1">  1       21 0.19332401E-01 0.25702537E+03</pdfrwt>
<pdfrwt beam="2">  1       21 0.93133752E-01 0.25702537E+03</pdfrwt>
<totfact> 0.23051708E+04</totfact>
</mgrwt>
</event>
<event>
 5    0  0.1257040E+001  0.2082606E+03  0.7546771E-02  0.1142951E+00
         21   -1    0    0  502  501  0.00000000000E+00  0.00000000000E+00  0.10736797107E+04  0.10736797107E+04  0.00000000000E+00 0.  1.
         21   -1    0    0  504  502 -0.00000000000E+00 -0.00000000000E+00 -0.14255979500E+03  0.14255979500E+03  0.00000000000E+00 0. -1.
         25    1    1    2    0    0 -0.18061124111E+03 -0.15870790548E+03  0.12480126085E+03  0.29834371853E+03  0.12500000000E+03 0.  0.
         21    1    1    2  503  501  0.13696125683E+03  0.83149498789E+02  0.81463269074E+03  0.83024011337E+03  0.00000000000E+00 0.  1.
         21    1    1    2  504  503  0.43649984277E+02  0.75558406694E+02 -0.83140359190E+01  0.87655673763E+02  0.00000000000E+00 0. -1.
<mgrwt>
<rscale>  4 0.20826057E+03</rscale>
<asrwt>0</asrwt>
<pdfrwt beam="1">  1       21 0.16518149E+00 0.20826057E+03</pdfrwt>
<pdfrwt beam="2">  1       21 0.21932277E-01 0.20826057E+03</pdfrwt>
<totfact> 0.44221362E+03</totfact>
</mgrwt>
</event>
<event>
 5    0  0.1257040E+001  0.3156769E+03  0.7546771E-02  0.1077656E+00
         21   -1    0    0  503  501  0.00000000000E+00  0.00000000000E+00  0.22894452672E+03  0.22894452672E+03  0.00000000000E+00 0. -1.
         21   -1    0    0  504  502 -0.00000000000E+00 -0.00000000000E+00 -0.13098435877E+04  0.13098435877E+04  0.00000000000E+00 0. -1.
         25    1    1    2    0    0 -0.21360759019E+02 -0.24762453615E+03  0.21756688854E+02  0.27905652911E+03  0.12500000000E+03 0.  0.
         21    1    1    2  503  502  0.36436170542E+02  0.29273682141E+03 -0.11531959854E+04  0.11903291233E+04  0.00000000000E+00 0. -1.
         21    1    1    2  504  501 -0.15075411522E+02 -0.45112285267E+02  0.50540235570E+02  0.69402461959E+02  0.00000000000E+00 0.  1.
<mgrwt>
<rscale>  4 0.31567692E+03</rscale>
<asrwt>0</asrwt>
<pdfrwt beam="1">  1       21 0.35222235E-01 0.31567692E+03</pdfrwt>
<pdfrwt beam="2">  1       21 0.20151440E+00 0.31567692E+03</pdfrwt>
<totfact> 0.91522643E+02</totfact>
</mgrwt>
</event>
