<event>
 5    0  0.1041609E-002  0.4115258E+03  0.7546771E-02  0.1039860E+00
         21   -1    0    0  503  502  0.00000000000E+00  0.00000000000E+00  0.62246630032E+03  0.62246630032E+03  0.00000000000E+00 0.  1.
          2   -1    0    0  502    0 -0.00000000000E+00 -0.00000000000E+00 -0.40662183903E+03  0.40662183903E+03  0.00000000000E+00 0.  1.
         25    1    1    2    0    0 -0.12140461541E+03 -0.23293244488E+03  0.85140290675E+02  0.30310142464E+03  0.12500000000E+03 0.  0.
         21    1    1    2  503  501 -0.15223865964E+03  0.58084216625E+02  0.31351571412E+03  0.35333056577E+03  0.00000000000E+00 0.  1.
          2    1    1    2  501    0  0.27364327505E+03  0.17484822825E+03 -0.18281154351E+03  0.37265614894E+03  0.00000000000E+00 0.  1.
<mgrwt>
<rscale>  4 0.41152578E+03</rscale>
<asrwt>0</asrwt>
<pdfrwt beam="1">  1       21 0.95764046E-01 0.41152578E+03</pdfrwt>
<pdfrwt beam="2">  1        2 0.62557206E-01 0.41152578E+03</pdfrwt>
<totfact> 0.81811697E+02</totfact>
</mgrwt>
</event>
<event>
 5    0  0.1041609E-002  0.2995963E+03  0.7546771E-02  0.1085443E+00
         21   -1    0    0  503  502  0.00000000000E+00  0.00000000000E+00  0.10234506223E+03  0.10234506223E+03  0.00000000000E+00 0.  1.
          2   -1    0    0  502    0 -0.00000000000E+00 -0.00000000000E+00 -0.98350507445E+03  0.98350507445E+03  0.00000000000E+00 0.  1.
         25    1    1    2    0    0 -0.93442645221E+02 -0.18863299237E+03 -0.67731608600E+03  0.72020553601E+03  0.12500000000E+03 0.  0.
         21    1    1    2  503  501  0.29564085002E+02 -0.27135444002E+02  0.22891199831E+02  0.46199290827E+02  0.00000000000E+00 0.  1.
          2    1    1    2  501    0  0.63878560220E+02  0.21576843637E+03 -0.22673512606E+03  0.31944530984E+03  0.00000000000E+00 0.  1.
<mgrwt>
<rscale>  4 0.29959631E+03</rscale>
<asrwt>0</asrwt>
<pdfrwt beam="1">  1       21 0.15745394E-01 0.29959631E+03</pdfrwt>
<pdfrwt beam="2">  1        2 0.15130847E+00 0.29959631E+03</pdfrwt>
<totfact> 0.11957745E+04</totfact>
</mgrwt>
</event>
<event>
 5    0  0.1041609E-002  0.3166948E+03  0.7546771E-02  0.1077181E+00
         21   -1    0    0  501  502  0.00000000000E+00  0.00000000000E+00  0.53180477540E+03  0.53180477540E+03  0.00000000000E+00 0.  1.
         -1   -1    0    0    0  501 -0.00000000000E+00 -0.00000000000E+00 -0.24638307541E+03  0.24638307541E+03  0.00000000000E+00 0.  1.
         25    1    1    2    0    0  0.16324599132E+03  0.24724002315E+03  0.54047487756E+02  0.32607209888E+03  0.12500000000E+03 0.  0.
         21    1    1    2  503  502  0.21004614506E+02 -0.11443071933E+03 -0.14672599618E+02  0.11726409739E+03  0.00000000000E+00 0. -1.
         -1    1    1    2    0  503 -0.18425060583E+03 -0.13280930382E+03  0.24604681186E+03  0.33485165455E+03  0.00000000000E+00 0.  1.
<mgrwt>
<rscale>  4 0.31669483E+03</rscale>
<asrwt>0</asrwt>
<pdfrwt beam="1">  1       21 0.81816119E-01 0.31669483E+03</pdfrwt>
<pdfrwt beam="2">  1       -1 0.37905089E-01 0.31669483E+03</pdfrwt>
<totfact> 0.78040584E+02</totfact>
</mgrwt>
</event>
<event>
 5    0  0.1041609E-002  0.7670572E+03  0.7546771E-02  0.9608964E-01
         21   -1    0    0  501  502  0.00000000000E+00  0.00000000000E+00  0.49308787377E+03  0.49308787377E+03  0.00000000000E+00 0.  1.
         -1   -1    0    0    0  501 -0.00000000000E+00 -0.00000000000E+00 -0.12511378668E+04  0.12511378668E+04  0.00000000000E+00 0.  1.
         25    1    1    2    0    0 -0.30086666283E+03  0.42533790626E+03 -0.17441976719E+03  0.56345393644E+03  0.12500000000E+03 0.  0.
         21    1    1    2  503  502 -0.24257253486E+03  0.78434072923E+02 -0.31931428137E+02  0.25692986312E+03  0.00000000000E+00 0. -1.
         -1    1    1    2    0  503  0.54343919769E+03 -0.50377197918E+03 -0.55169879774E+03  0.92384194104E+03  0.00000000000E+00 0.  1.
<mgrwt>
<rscale>  4 0.76705721E+03</rscale>
<asrwt>0</asrwt>
<pdfrwt beam="1">  1       21 0.75859674E-01 0.76705721E+03</pdfrwt>
<pdfrwt beam="2">  1       -1 0.19248275E+00 0.76705721E+03</pdfrwt>
<totfact> 0.22155960E+01</totfact>
</mgrwt>
</event>
<event>
 5    0  0.1041609E-002  0.2345718E+03  0.7546771E-02  0.1123463E+00
          1   -1    0    0  502    0 -0.00000000000E+00  0.00000000000E+00  0.84117496011E+03  0.84117496011E+03  0.00000000000E+00 0. -1.
         21   -1    0    0  503  502  0.00000000000E+00 -0.00000000000E+00 -0.14695144130E+03  0.14695144130E+03  0.00000000000E+00 0. -1.
         25    1    1    2    0    0 -0.64001255402E+02 -0.20460341748E+03  0.34640704364E+03  0.42612387755E+03  0.12500000000E+03 0.  0.
         21    1    1    2  503  501  0.10945498146E+03  0.75083237107E+02  0.39511796079E+03  0.41681661243E+03  0.00000000000E+00 0. -1.
          1    1    1    2  501    0 -0.45453726061E+02  0.12952018037E+03 -0.47301485613E+02  0.14518591143E+03  0.00000000000E+00 0. -1.
<mgrwt>
<rscale>  4 0.23457177E+03</rscale>
<asrwt>0</asrwt>
<pdfrwt beam="1">  1       21 0.22607915E-01 0.23457177E+03</pdfrwt>
<pdfrwt beam="2">  1        1 0.12941153E+00 0.23457177E+03</pdfrwt>
<totfact> 0.43047890E+03</totfact>
</mgrwt>
</event>
<event>
 5    0  0.1041609E-002  0.4031577E+03  0.7546771E-02  0.1042692E+00
         21   -1    0    0  503  502  0.00000000000E+00  0.00000000000E+00  0.10419234321E+03  0.10419234321E+03  0.00000000000E+00 0.  1.
          2   -1    0    0  502    0 -0.00000000000E+00 -0.00000000000E+00 -0.28038987159E+04  0.28038987159E+04  0.00000000000E+00 0.  1.
         25    1    1    2    0    0 -0.23669334115E+03 -0.29050732186E+03 -0.23258649473E+04  0.23591716755E+04  0.12500000000E+03 0.  0.
         21    1    1    2  503  501 -0.14396153750E+02  0.32874980411E+02 -0.67337337882E+02  0.76304198134E+02  0.00000000000E+00 0. -1.
          2    1    1    2  501    0  0.25108949490E+03  0.25763234145E+03 -0.30650408754E+03  0.47261518542E+03  0.00000000000E+00 0.  1.
<mgrwt>
<rscale>  4 0.40315773E+03</rscale>
<asrwt>0</asrwt>
<pdfrwt beam="1">  1       21 0.16029591E-01 0.40315773E+03</pdfrwt>
<pdfrwt beam="2">  1        2 0.43136904E+00 0.40315773E+03</pdfrwt>
<totfact> 0.11104666E+03</totfact>
</mgrwt>
</event>
<event>
 5    0  0.1041609E-002  0.4114231E+03  0.7546771E-02  0.1039895E+00
          2   -1    0    0  502    0 -0.00000000000E+00  0.00000000000E+00  0.76051894775E+03  0.76051894775E+03  0.00000000000E+00 0. -1.
         21   -1    0    0  503  502  0.00000000000E+00 -0.00000000000E+00 -0.27616873791E+03  0.27616873791E+03  0.00000000000E+00 0. -1.
         25    1    1    2    0    0 -0.25188754078E+03  0.59125700199E+02  0.46022899046E+03  0.54256695926E+03  0.12500000000E+03 0.  0.
         21    1    1    2  503  501 -0.72401247513E+02 -0.14005159611E+03  0.26544975290E+02  0.15987815964E+03  0.00000000000E+00 0. -1.
          2    1    1    2  501    0  0.32428878829E+03  0.80925895914E+02 -0.24237559096E+01  0.33424256676E+03  0.00000000000E+00 0. -1.
<mgrwt>
<rscale>  4 0.41142308E+03</rscale>
<asrwt>0</asrwt>
<pdfrwt beam="1">  1       21 0.42487499E-01 0.41142308E+03</pdfrwt>
<pdfrwt beam="2">  1        2 0.11700291E+00 0.41142308E+03</pdfrwt>
<totfact> 0.23800912E+03</totfact>
</mgrwt>
</event>
<event>
 5    0  0.1041609E-002  0.2975026E+03  0.7546771E-02  0.1086496E+00
         21   -1    0    0  503  502  0.00000000000E+00  0.00000000000E+00  0.50402049655E+03  0.50402049655E+03  0.00000000000E+00 0.  1.
          2   -1    0    0  502    0 -0.00000000000E+00 -0.00000000000E+00 -0.49712472514E+03  0.49712472514E+03  0.00000000000E+00 0.  1.
         25    1    1    2    0    0  0.10454431792E+03 -0.19149997941E+03 -0.10165705428E+03  0.27122115185E+03  0.12500000000E+03 0.  0.
         21    1    1    2  503  501  0.76869390874E+02  0.92936685176E+02 -0.27168402465E+03  0.29725130774E+03  0.00000000000E+00 0.  1.
          2    1    1    2  501    0 -0.18141370880E+03  0.98563294236E+02  0.38023685033E+03  0.43267276210E+03  0.00000000000E+00 0.  1.
<mgrwt>
<rscale>  4 0.29750261E+03</rscale>
<asrwt>0</asrwt>
<pdfrwt beam="1">  1       21 0.77541614E-01 0.29750261E+03</pdfrwt>
<pdfrwt beam="2">  1        2 0.76480728E-01 0.29750261E+03</pdfrwt>
<totfact> 0.11065244E+03</totfact>
</mgrwt>
</event>
<event>
 5    0  0.1041609E-002  0.4153170E+03  0.7546771E-02  0.1038601E+00
         -4   -1    0    0    0  501 -0.00000000000E+00  0.00000000000E+00  0.47853238110E+03  0.47853238110E+03  0.00000000000E+00 0. -1.
         21   -1    0    0  501  502  0.00000000000E+00 -0.00000000000E+00 -0.38013883750E+03  0.38013883750E+03  0.00000000000E+00 0. -1.
         25    1    1    2    0    0  0.20588523230E+02 -0.26672360401E+03  0.98227491773E+02  0.31118966622E+03  0.12500000000E+03 0.  0.
         21    1    1    2  503  502 -0.15500770660E+03 -0.76055328994E+02  0.39718569850E+02  0.17717044608E+03  0.00000000000E+00 0.  1.
         -4    1    1    2    0  503  0.13441918337E+03  0.34277893300E+03 -0.39552518023E+02  0.37031110630E+03  0.00000000000E+00 0. -1.
<mgrwt>
<rscale>  4 0.41531697E+03</rscale>
<asrwt>0</asrwt>
<pdfrwt beam="1">  1       21 0.58482898E-01 0.41531697E+03</pdfrwt>
<pdfrwt beam="2">  1       -4 0.73620366E-01 0.41531697E+03</pdfrwt>
<totfact> 0.19041121E+02</totfact>
</mgrwt>
</event>
<event>
 5    0  0.1041609E-002  0.3399042E+03  0.7546771E-02  0.1066837E+00
          1   -1    0    0  502    0 -0.00000000000E+00  0.00000000000E+00  0.19929482611E+04  0.19929482611E+04  0.00000000000E+00 0. -1.
         21   -1    0    0  503  502  0.00000000000E+00 -0.00000000000E+00 -0.77810434819E+02  0.77810434819E+02  0.00000000000E+00 0. -1.
         25    1    1    2    0    0  0.17360353243E+03  0.11639773431E+03  0.30827670577E+03  0.39286912114E+03  0.12500000000E+03 0.  0.
         21    1    1    2  503  501  0.19453142436E+02 -0.15450119377E+02  0.13070426415E+04  0.13072786993E+04  0.00000000000E+00 0. -1.
          1    1    1    2  501    0 -0.19305667486E+03 -0.10094761494E+03  0.29981847903E+03  0.37061087550E+03  0.00000000000E+00 0. -1.
<mgrwt>
<rscale>  4 0.33990418E+03</rscale>
<asrwt>0</asrwt>
<pdfrwt beam="1">  1       21 0.11970838E-01 0.33990418E+03</pdfrwt>
<pdfrwt beam="2">  1        1 0.30660739E+00 0.33990418E+03</pdfrwt>
<totfact> 0.21603452E+03</totfact>
</mgrwt>
</event>
<event>
 5    0  0.1041609E-002  0.4318915E+03  0.7546771E-02  0.1033264E+00
          2   -1    0    0  502    0 -0.00000000000E+00  0.00000000000E+00  0.10894239880E+04  0.10894239880E+04  0.00000000000E+00 0.  1.
         21   -1    0    0  503  502  0.00000000000E+00 -0.00000000000E+00 -0.17855257464E+03  0.17855257464E+03  0.00000000000E+00 0.  1.
         25    1    1    2    0    0  0.22490656666E+03 -0.17548776402E+02  0.24936787086E+03  0.35874818229E+03  0.12500000000E+03 0.  0.
         21    1    1    2  503  501  0.70658077635E+02  0.23442057756E+03  0.35576640316E+03  0.43187417697E+03  0.00000000000E+00 0. -1.
          2    1    1    2  501    0 -0.29556464429E+03 -0.21687180116E+03  0.30573713932E+03  0.47735420335E+03  0.00000000000E+00 0.  1.
<mgrwt>
<rscale>  4 0.43189150E+03</rscale>
<asrwt>0</asrwt>
<pdfrwt beam="1">  1       21 0.27469627E-01 0.43189150E+03</pdfrwt>
<pdfrwt beam="2">  1        2 0.16760369E+00 0.43189150E+03</pdfrwt>
<totfact> 0.34774009E+03</totfact>
</mgrwt>
</event>
<event>
 5    0  0.1041609E-002  0.5882586E+03  0.7546771E-02  0.9930070E-01
         21   -1    0    0  501  502  0.00000000000E+00  0.00000000000E+00  0.22833856980E+04  0.22833856980E+04  0.00000000000E+00 0. -1.
         -2   -1    0    0    0  501 -0.00000000000E+00 -0.00000000000E+00 -0.15624384598E+03  0.15624384598E+03  0.00000000000E+00 0. -1.
         25    1    1    2    0    0  0.28710385847E+03 -0.22058544532E+03  0.37721597604E+03  0.53759041734E+03  0.12500000000E+03 0.  0.
         21    1    1    2  503  502  0.39628209531E+02 -0.20076023719E+03  0.61401238859E+03  0.64721424673E+03  0.00000000000E+00 0. -1.
         -2    1    1    2    0  503 -0.32673206800E+03  0.42134568251E+03  0.11359134874E+04  0.12548248799E+04  0.00000000000E+00 0. -1.
<mgrwt>
<rscale>  4 0.58825861E+03</rscale>
<asrwt>0</asrwt>
<pdfrwt beam="1">  1       21 0.35129008E+00 0.58825861E+03</pdfrwt>
<pdfrwt beam="2">  1       -2 0.24037516E-01 0.58825861E+03</pdfrwt>
<totfact> 0.15794041E+01</totfact>
</mgrwt>
</event>
<event>
 5    0  0.1041609E-002  0.6214682E+03  0.7546771E-02  0.9861841E-01
          2   -1    0    0  502    0 -0.00000000000E+00  0.00000000000E+00  0.41437907971E+03  0.41437907971E+03  0.00000000000E+00 0.  1.
         21   -1    0    0  503  502  0.00000000000E+00 -0.00000000000E+00 -0.94935543731E+03  0.94935543731E+03  0.00000000000E+00 0.  1.
         25    1    1    2    0    0  0.32543507348E+03 -0.28966187710E+02 -0.22508730787E+03  0.41597634939E+03  0.12500000000E+03 0.  0.
         21    1    1    2  503  501  0.18125571370E+03 -0.25487101812E+03 -0.13992037524E+03  0.34262308888E+03  0.00000000000E+00 0.  1.
          2    1    1    2  501    0 -0.50669078718E+03  0.28383720583E+03 -0.16996867449E+03  0.60513507875E+03  0.00000000000E+00 0.  1.
<mgrwt>
<rscale>  4 0.62146821E+03</rscale>
<asrwt>0</asrwt>
<pdfrwt beam="1">  1       21 0.14605468E+00 0.62146821E+03</pdfrwt>
<pdfrwt beam="2">  1        2 0.63750628E-01 0.62146821E+03</pdfrwt>
<totfact> 0.26019359E+02</totfact>
</mgrwt>
</event>
<event>
 5    0  0.1041609E-002  0.4856255E+03  0.7546771E-02  0.1017600E+00
          2   -1    0    0  502    0 -0.00000000000E+00  0.00000000000E+00  0.21337194333E+04  0.21337194333E+04  0.00000000000E+00 0. -1.
         21   -1    0    0  503  502  0.00000000000E+00 -0.00000000000E+00 -0.58210232216E+02  0.58210232216E+02  0.00000000000E+00 0. -1.
         25    1    1    2    0    0  0.12070910007E+03 -0.16738384247E+03  0.92166768871E+03  0.95272470629E+03  0.12500000000E+03 0.  0.
         21    1    1    2  503  501 -0.13000904023E+03  0.20290774421E+03  0.11731994147E+04  0.11976939383E+04  0.00000000000E+00 0.  1.
          2    1    1    2  501    0  0.92999401598E+01 -0.35523901740E+02 -0.19357902274E+02  0.41511020973E+02  0.00000000000E+00 0. -1.
<mgrwt>
<rscale>  4 0.48562554E+03</rscale>
<asrwt>0</asrwt>
<pdfrwt beam="1">  1       21 0.89554220E-02 0.48562554E+03</pdfrwt>
<pdfrwt beam="2">  1        2 0.32826447E+00 0.48562554E+03</pdfrwt>
<totfact> 0.74167295E+03</totfact>
</mgrwt>
</event>
<event>
 5    0  0.1041609E-002  0.3766427E+03  0.7546771E-02  0.1052182E+00
         21   -1    0    0  503  502  0.00000000000E+00  0.00000000000E+00  0.71991816267E+02  0.71991816267E+02  0.00000000000E+00 0.  1.
          2   -1    0    0  502    0 -0.00000000000E+00 -0.00000000000E+00 -0.22414336994E+04  0.22414336994E+04  0.00000000000E+00 0.  1.
         25    1    1    2    0    0 -0.30127455115E+03 -0.16563882442E+02 -0.90503830610E+03  0.96216425463E+03  0.12500000000E+03 0.  0.
         21    1    1    2  503  501  0.18788222127E+02 -0.10349111577E+03 -0.70835901429E+03  0.71612561850E+03  0.00000000000E+00 0.  1.
          2    1    1    2  501    0  0.28248632903E+03  0.12005499821E+03 -0.55604456277E+03  0.63513564257E+03  0.00000000000E+00 0.  1.
<mgrwt>
<rscale>  4 0.37664274E+03</rscale>
<asrwt>0</asrwt>
<pdfrwt beam="1">  1       21 0.11075665E-01 0.37664274E+03</pdfrwt>
<pdfrwt beam="2">  1        2 0.34483592E+00 0.37664274E+03</pdfrwt>
<totfact> 0.45416257E+03</totfact>
</mgrwt>
</event>
<event>
 5    0  0.1041609E-002  0.2698553E+03  0.7546771E-02  0.1101362E+00
         21   -1    0    0  503  502  0.00000000000E+00  0.00000000000E+00  0.10063357974E+03  0.10063357974E+03  0.00000000000E+00 0.  1.
          2   -1    0    0  502    0 -0.00000000000E+00 -0.00000000000E+00 -0.10066684021E+04  0.10066684021E+04  0.00000000000E+00 0.  1.
         25    1    1    2    0    0 -0.15780762971E+03  0.19473713054E+03 -0.60366614161E+03  0.66547998357E+03  0.12500000000E+03 0.  0.
         21    1    1    2  503  501 -0.82952278481E+01 -0.10393286086E+03 -0.20256012703E+03  0.22781890930E+03  0.00000000000E+00 0. -1.
          2    1    1    2  501    0  0.16610285756E+03 -0.90804269682E+02 -0.99808553674E+02  0.21400308892E+03  0.00000000000E+00 0.  1.
<mgrwt>
<rscale>  4 0.26985527E+03</rscale>
<asrwt>0</asrwt>
<pdfrwt beam="1">  1       21 0.15482090E-01 0.26985527E+03</pdfrwt>
<pdfrwt beam="2">  1        2 0.15487206E+00 0.26985527E+03</pdfrwt>
<totfact> 0.12010049E+04</totfact>
</mgrwt>
</event>
<event>
 5    0  0.1041609E-002  0.3898766E+03  0.7546771E-02  0.1047343E+00
         21   -1    0    0  503  502  0.00000000000E+00  0.00000000000E+00  0.11756886538E+03  0.11756886538E+03  0.00000000000E+00 0. -1.
          1   -1    0    0  502    0 -0.00000000000E+00 -0.00000000000E+00 -0.14676188286E+04  0.14676188286E+04  0.00000000000E+00 0. -1.
         25    1    1    2    0    0 -0.15741484548E+03 -0.21605401655E+03 -0.40592954829E+03  0.50185911352E+03  0.12500000000E+03 0.  0.
         21    1    1    2  503  501 -0.13828565512E+03  0.15355093031E+03 -0.23766269901E+03  0.31493549992E+03  0.00000000000E+00 0.  1.
          1    1    1    2  501    0  0.29570050060E+03  0.62503086237E+02 -0.70645771594E+03  0.76839308056E+03  0.00000000000E+00 0. -1.
<mgrwt>
<rscale>  4 0.38987656E+03</rscale>
<asrwt>0</asrwt>
<pdfrwt beam="1">  1       21 0.18087518E-01 0.38987656E+03</pdfrwt>
<pdfrwt beam="2">  1        1 0.22578751E+00 0.38987656E+03</pdfrwt>
<totfact> 0.22103964E+03</totfact>
</mgrwt>
</event>
<event>
 5    0  0.1041609E-002  0.3047373E+03  0.7546771E-02  0.1082896E+00
         21   -1    0    0  503  502  0.00000000000E+00  0.00000000000E+00  0.47377064432E+03  0.47377064432E+03  0.00000000000E+00 0.  1.
          2   -1    0    0  502    0 -0.00000000000E+00 -0.00000000000E+00 -0.41765717714E+03  0.41765717714E+03  0.00000000000E+00 0.  1.
         25    1    1    2    0    0  0.12720960007E+03  0.17411218043E+03 -0.26160462678E+03  0.36132992469E+03  0.12500000000E+03 0.  0.
         21    1    1    2  503  501  0.20908291343E+02  0.68332763185E+02 -0.33025837032E+02  0.78722481433E+02  0.00000000000E+00 0.  1.
          2    1    1    2  501    0 -0.14811789142E+03 -0.24244494362E+03  0.35074393099E+03  0.45137541534E+03  0.00000000000E+00 0.  1.
<mgrwt>
<rscale>  4 0.30473735E+03</rscale>
<asrwt>0</asrwt>
<pdfrwt beam="1">  1       21 0.72887792E-01 0.30473735E+03</pdfrwt>
<pdfrwt beam="2">  1        2 0.64254950E-01 0.30473735E+03</pdfrwt>
<totfact> 0.15415647E+03</totfact>
</mgrwt>
</event>
<event>
 5    0  0.1041609E-002  0.2997104E+03  0.7546771E-02  0.1085385E+00
         21   -1    0    0  503  502  0.00000000000E+00  0.00000000000E+00  0.12679320109E+03  0.12679320109E+03  0.00000000000E+00 0. -1.
          2   -1    0    0  502    0 -0.00000000000E+00 -0.00000000000E+00 -0.78269315707E+03  0.78269315707E+03  0.00000000000E+00 0. -1.
         25    1    1    2    0    0  0.35889762197E+02  0.19680950642E+03 -0.28221382893E+03  0.36782020348E+03  0.12500000000E+03 0.  0.
         21    1    1    2  503  501 -0.14744604293E+03  0.85464881095E+01 -0.20837330768E+03  0.25540715219E+03  0.00000000000E+00 0. -1.
          2    1    1    2  501    0  0.11155628073E+03 -0.20535599453E+03 -0.16531281936E+03  0.28625900249E+03  0.00000000000E+00 0. -1.
<mgrwt>
<rscale>  4 0.29971037E+03</rscale>
<asrwt>0</asrwt>
<pdfrwt beam="1">  1       21 0.19506646E-01 0.29971037E+03</pdfrwt>
<pdfrwt beam="2">  1        2 0.12041433E+00 0.29971037E+03</pdfrwt>
<totfact> 0.10884651E+04</totfact>
</mgrwt>
</event>
<event>
 5    0  0.1041609E-002  0.3202974E+03  0.7546771E-02  0.1075513E+00
          1   -1    0    0  502    0 -0.00000000000E+00  0.00000000000E+00  0.14641919323E+04  0.14641919323E+04  0.00000000000E+00 0.  1.
         21   -1    0    0  503  502  0.00000000000E+00 -0.00000000000E+00 -0.11226971844E+03  0.11226971844E+03  0.00000000000E+00 0.  1.
         25    1    1    2    0    0  0.14583870891E+03 -0.29397626192E+03  0.94788187088E+03  0.10108392616E+04  0.12500000000E+03 0.  0.
         21    1    1    2  503  501 -0.45022926046E+02  0.91314568372E+02  0.29943019244E+03  0.31626548091E+03  0.00000000000E+00 0. -1.
          1    1    1    2  501    0 -0.10081578286E+03  0.20266169355E+03  0.10461015054E+03  0.24935690827E+03  0.00000000000E+00 0.  1.
<mgrwt>
<rscale>  4 0.32029739E+03</rscale>
<asrwt>0</asrwt>
<pdfrwt beam="1">  1       21 0.17272265E-01 0.32029739E+03</pdfrwt>
<pdfrwt beam="2">  1        1 0.22526028E+00 0.32029739E+03</pdfrwt>
<totfact> 0.24709446E+03</totfact>
</mgrwt>
</event>
<event>
 5    0  0.1041609E-002  0.1628401E+03  0.7546771E-02  0.1185527E+00
          1   -1    0    0  502    0 -0.00000000000E+00  0.00000000000E+00  0.77329965292E+03  0.77329965292E+03  0.00000000000E+00 0. -1.
         21   -1    0    0  503  502  0.00000000000E+00 -0.00000000000E+00 -0.12082835768E+03  0.12082835768E+03  0.00000000000E+00 0. -1.
         25    1    1    2    0    0  0.22106902905E+03  0.10282535310E+03  0.33968440585E+03  0.43641157687E+03  0.12500000000E+03 0.  0.
         21    1    1    2  503  501 -0.26570389191E+03 -0.86905277100E+02  0.22865763305E+03  0.36115841194E+03  0.00000000000E+00 0. -1.
          1    1    1    2  501    0  0.44634862854E+02 -0.15920076002E+02  0.84129256337E+02  0.96558021799E+02  0.00000000000E+00 0. -1.
<mgrwt>
<rscale>  4 0.16284014E+03</rscale>
<asrwt>0</asrwt>
<pdfrwt beam="1">  1       21 0.18588979E-01 0.16284014E+03</pdfrwt>
<pdfrwt beam="2">  1        1 0.11896917E+00 0.16284014E+03</pdfrwt>
<totfact> 0.72390652E+03</totfact>
</mgrwt>
</event>
<event>
 5    0  0.1041609E-002  0.3818058E+03  0.7546771E-02  0.1050268E+00
         21   -1    0    0  503  502  0.00000000000E+00  0.00000000000E+00  0.55985596981E+02  0.55985596981E+02  0.00000000000E+00 0. -1.
          2   -1    0    0  502    0 -0.00000000000E+00 -0.00000000000E+00 -0.31412712977E+04  0.31412712977E+04  0.00000000000E+00 0. -1.
         25    1    1    2    0    0 -0.22424144180E+03 -0.97552672199E+02 -0.48680200219E+03  0.55892927765E+03  0.12500000000E+03 0.  0.
         21    1    1    2  503  501 -0.14629195463E+02 -0.12679924363E+03 -0.63792952713E+03  0.65057370307E+03  0.00000000000E+00 0.  1.
          2    1    1    2  501    0  0.23887063726E+03  0.22435191583E+03 -0.19605541714E+04  0.19877539139E+04  0.00000000000E+00 0. -1.
<mgrwt>
<rscale>  4 0.38180577E+03</rscale>
<asrwt>0</asrwt>
<pdfrwt beam="1">  1       21 0.86131682E-02 0.38180577E+03</pdfrwt>
<pdfrwt beam="2">  1        2 0.48327254E+00 0.38180577E+03</pdfrwt>
<totfact> 0.21735866E+03</totfact>
</mgrwt>
</event>
<event>
 5    0  0.1041609E-002  0.5592394E+03  0.7546771E-02  0.9993777E-01
         21   -1    0    0  503  502  0.00000000000E+00  0.00000000000E+00  0.28194497838E+03  0.28194497838E+03  0.00000000000E+00 0. -1.
          1   -1    0    0  502    0 -0.00000000000E+00 -0.00000000000E+00 -0.11128550790E+04  0.11128550790E+04  0.00000000000E+00 0. -1.
         25    1    1    2    0    0  0.48465683858E+03  0.24153373835E+03 -0.43034508723E+03  0.70288881912E+03  0.12500000000E+03 0.  0.
         21    1    1    2  503  501  0.40616572878E+01 -0.32262001985E+02 -0.24268146751E+02  0.40574336455E+02  0.00000000000E+00 0. -1.
          1    1    1    2  501    0 -0.48871849586E+03 -0.20927173637E+03 -0.37629686668E+03  0.65133690185E+03  0.00000000000E+00 0. -1.
<mgrwt>
<rscale>  4 0.55923940E+03</rscale>
<asrwt>0</asrwt>
<pdfrwt beam="1">  1       21 0.43376151E-01 0.55923940E+03</pdfrwt>
<pdfrwt beam="2">  1        1 0.17120847E+00 0.55923940E+03</pdfrwt>
<totfact> 0.66821414E+02</totfact>
</mgrwt>
</event>
<event>
 5    0  0.1041609E-002  0.3888062E+03  0.7546771E-02  0.1047726E+00
         21   -1    0    0  503  502  0.00000000000E+00  0.00000000000E+00  0.20419443849E+03  0.20419443849E+03  0.00000000000E+00 0. -1.
          2   -1    0    0  502    0 -0.00000000000E+00 -0.00000000000E+00 -0.78431843460E+03  0.78431843460E+03  0.00000000000E+00 0. -1.
         25    1    1    2    0    0 -0.20749521722E+03  0.27218559394E+03 -0.22667690975E+03  0.42912315730E+03  0.12500000000E+03 0.  0.
         21    1    1    2  503  501 -0.49074378458E+02 -0.10192855744E+03 -0.15926561777E+03  0.19535419742E+03  0.00000000000E+00 0.  1.
          2    1    1    2  501    0  0.25656959567E+03 -0.17025703649E+03 -0.19418146858E+03  0.36403551838E+03  0.00000000000E+00 0. -1.
<mgrwt>
<rscale>  4 0.38880618E+03</rscale>
<asrwt>0</asrwt>
<pdfrwt beam="1">  1       21 0.31414529E-01 0.38880618E+03</pdfrwt>
<pdfrwt beam="2">  1        2 0.12066437E+00 0.38880618E+03</pdfrwt>
<totfact> 0.42442849E+03</totfact>
</mgrwt>
</event>
<event>
 5    0  0.1041609E-002  0.3129597E+03  0.7546771E-02  0.1078936E+00
         21   -1    0    0  503  502  0.00000000000E+00  0.00000000000E+00  0.18008666890E+03  0.18008666890E+03  0.00000000000E+00 0.  1.
          2   -1    0    0  502    0 -0.00000000000E+00 -0.00000000000E+00 -0.70876862428E+03  0.70876862428E+03  0.00000000000E+00 0.  1.
         25    1    1    2    0    0 -0.14794993680E+03  0.17097815842E+03 -0.13121337043E+03  0.28976656646E+03  0.12500000000E+03 0.  0.
         21    1    1    2  503  501 -0.57940919276E+02 -0.11321917967E+03 -0.36024128557E+03  0.38203339724E+03  0.00000000000E+00 0. -1.
          2    1    1    2  501    0  0.20589085608E+03 -0.57758978755E+02 -0.37227299380E+02  0.21705532949E+03  0.00000000000E+00 0.  1.
<mgrwt>
<rscale>  4 0.31295971E+03</rscale>
<asrwt>0</asrwt>
<pdfrwt beam="1">  1       21 0.27705642E-01 0.31295971E+03</pdfrwt>
<pdfrwt beam="2">  1        2 0.10904133E+00 0.31295971E+03</pdfrwt>
<totfact> 0.62741347E+03</totfact>
</mgrwt>
</event>
<event>
 5    0  0.1041609E-002  0.5306480E+03  0.7546771E-02  0.1006075E+00
          1   -1    0    0  502    0 -0.00000000000E+00  0.00000000000E+00  0.28039254442E+04  0.28039254442E+04  0.00000000000E+00 0. -1.
         21   -1    0    0  503  502  0.00000000000E+00 -0.00000000000E+00 -0.10136788861E+03  0.10136788861E+03  0.00000000000E+00 0. -1.
         25    1    1    2    0    0  0.18159657089E+01 -0.44349427871E+03  0.92643709849E+03  0.10346985892E+04  0.12500000000E+03 0.  0.
         21    1    1    2  503  501 -0.66653320558E+02 -0.38258854270E+02  0.48400556201E+03  0.49006916770E+03  0.00000000000E+00 0.  1.
          1    1    1    2  501    0  0.64837354849E+02  0.48175313298E+03  0.12921148951E+04  0.13805255760E+04  0.00000000000E+00 0. -1.
<mgrwt>
<rscale>  4 0.53064799E+03</rscale>
<asrwt>0</asrwt>
<pdfrwt beam="1">  1       21 0.15595062E-01 0.53064799E+03</pdfrwt>
<pdfrwt beam="2">  1        1 0.43137309E+00 0.53064799E+03</pdfrwt>
<totfact> 0.35826452E+02</totfact>
</mgrwt>
</event>
