<event>
 5    0  0.2297276E+000  0.3246452E+03  0.7546771E-02  0.1073531E+00
         21   -1    0    0  502  501  0.00000000000E+00  0.00000000000E+00  0.24449012227E+03  0.24449012227E+03  0.00000000000E+00 0. -1.
         21   -1    0    0  503  502 -0.00000000000E+00 -0.00000000000E+00 -0.64851301965E+03  0.64851301965E+03  0.00000000000E+00 0. -1.
         25    1    1    2    0    0  0.33998008878E+02 -0.35066976277E+03 -0.80535627360E+02  0.38240833464E+03  0.12500000000E+03 0.  0.
         21    1    1    2  503  504  0.74369677103E+01  0.71962451635E+02  0.11072168319E+02  0.73188085406E+02  0.00000000000E+00 0. -1.
         21    1    1    2  504  501 -0.41434976588E+02  0.27870731113E+03 -0.33455943834E+03  0.43740672188E+03  0.00000000000E+00 0. -1.
<mgrwt>
<rscale>  4 0.32464516E+03</rscale>
<asrwt>0</asrwt>
<pdfrwt beam="1">  1       21 0.37613865E-01 0.32464516E+03</pdfrwt>
<pdfrwt beam="2">  1       21 0.99771234E-01 0.32464516E+03</pdfrwt>
<totfact> 0.51909247E+03</totfact>
</mgrwt>
</event>
<event>
 5    0  0.2159162E+000  0.3018705E+03  0.7546771E-02  0.1084309E+00
         21   -1    0    0  502  501  0.00000000000E+00  0.00000000000E+00  0.89989761370E+03  0.89989761370E+03  0.00000000000E+00 0.  1.
         21   -1    0    0  503  502 -0.00000000000E+00 -0.00000000000E+00 -0.22680968244E+03  0.22680968244E+03  0.00000000000E+00 0. -1.
         25    1    1    2    0    0 -0.26337848637E+03  0.78310715904E+02  0.77404753648E+03  0.83082813147E+03  0.12500000000E+03 0.  0.
         21    1    1    2  503  504  0.23413641567E+03 -0.74809414409E+02 -0.76012577209E+02  0.25728237701E+03  0.00000000000E+00 0. -1.
         21    1    1    2  504  501  0.29242070707E+02 -0.35013014957E+01 -0.24947028012E+02  0.38596787665E+02  0.00000000000E+00 0. -1.
<mgrwt>
<rscale>  4 0.30187049E+03</rscale>
<asrwt>0</asrwt>
<pdfrwt beam="1">  1       21 0.13844578E+00 0.30187049E+03</pdfrwt>
<pdfrwt beam="2">  1       21 0.34893798E-01 0.30187049E+03</pdfrwt>
<totfact> 0.26928410E+03</totfact>
</mgrwt>
</event>
<event>
 5    0  0.2159162E+000  0.3099282E+03  0.7546771E-02  0.1080380E+00
         21   -1    0    0  502  501  0.00000000000E+00  0.00000000000E+00  0.29916550719E+03  0.29916550719E+03  0.00000000000E+00 0. -1.
         21   -1    0    0  503  502 -0.00000000000E+00 -0.00000000000E+00 -0.54633785773E+03  0.54633785773E+03  0.00000000000E+00 0. -1.
         25    1    1    2    0    0 -0.84252033710E+02  0.27079895920E+03  0.15772915158E+03  0.34775561354E+03  0.12500000000E+03 0.  0.
         21    1    1    2  503  504  0.36681419871E+02 -0.53575929735E+02 -0.67516284544E+02  0.93671529770E+02  0.00000000000E+00 0. -1.
         21    1    1    2  504  501  0.47570613839E+02 -0.21722302946E+03 -0.33738521758E+03  0.40407622161E+03  0.00000000000E+00 0. -1.
<mgrwt>
<rscale>  4 0.30992819E+03</rscale>
<asrwt>0</asrwt>
<pdfrwt beam="1">  1       21 0.46025463E-01 0.30992819E+03</pdfrwt>
<pdfrwt beam="2">  1       21 0.84051978E-01 0.30992819E+03</pdfrwt>
<totfact> 0.51710401E+03</totfact>
</mgrwt>
</event>
<event>
 5    0  0.2159162E+000  0.2325182E+03  0.7546771E-02  0.1124880E+00
         21   -1    0    0  502  501  0.00000000000E+00  0.00000000000E+00  0.97582229114E+02  0.97582229114E+02  0.00000000000E+00 0. -1.
         21   -1    0    0  503  502 -0.00000000000E+00 -0.00000000000E+00 -0.10803494651E+04  0.10803494651E+04  0.00000000000E+00 0.  1.
         25    1    1    2    0    0 -0.18498149208E+03 -0.82395651779E+02 -0.89703688008E+02  0.25432056048E+03  0.12500000000E+03 0.  0.
         21    1    1    2  503  504  0.13717094271E+03  0.11235902981E+03 -0.62451310216E+03  0.64919722263E+03  0.00000000000E+00 0.  1.
         21    1    1    2  504  501  0.47810549363E+02 -0.29963378034E+02 -0.26855044581E+03  0.27441391109E+03  0.00000000000E+00 0.  1.
<mgrwt>
<rscale>  4 0.23251815E+03</rscale>
<asrwt>0</asrwt>
<pdfrwt beam="1">  1       21 0.15012652E-01 0.23251815E+03</pdfrwt>
<pdfrwt beam="2">  1       21 0.16620760E+00 0.23251815E+03</pdfrwt>
<totfact> 0.86284996E+03</totfact>
</mgrwt>
</event>
<event>
 5    0  0.2159162E+000  0.2504831E+03  0.7546771E-02  0.1113000E+00
         21   -1    0    0  502  501  0.00000000000E+00  0.00000000000E+00  0.46269570436E+02  0.46269570436E+02  0.00000000000E+00 0. -1.
         21   -1    0    0  503  502 -0.00000000000E+00 -0.00000000000E+00 -0.13129455317E+04  0.13129455317E+04  0.00000000000E+00 0. -1.
         25    1    1    2    0    0  0.20229781616E+03  0.78691530986E+02 -0.87822486548E+03  0.91324732566E+03  0.12500000000E+03 0.  0.
         21    1    1    2  503  504 -0.16031947796E+02 -0.14904357210E+02 -0.46284815009E+02  0.51200071429E+02  0.00000000000E+00 0. -1.
         21    1    1    2  504  501 -0.18626586836E+03 -0.63787173777E+02 -0.34216628081E+03  0.39476770509E+03  0.00000000000E+00 0. -1.
<mgrwt>
<rscale>  4 0.25048306E+03</rscale>
<asrwt>0</asrwt>
<pdfrwt beam="1">  1       21 0.71183972E-02 0.25048306E+03</pdfrwt>
<pdfrwt beam="2">  1       21 0.20199157E+00 0.25048306E+03</pdfrwt>
<totfact> 0.18402254E+04</totfact>
</mgrwt>
</event>
<event>
 5    0  0.2159162E+000  0.2748291E+03  0.7546771E-02  0.1098547E+00
         21   -1    0    0  502  501  0.00000000000E+00  0.00000000000E+00  0.55440949247E+03  0.55440949247E+03  0.00000000000E+00 0. -1.
         21   -1    0    0  503  502 -0.00000000000E+00 -0.00000000000E+00 -0.46098598452E+03  0.46098598452E+03  0.00000000000E+00 0.  1.
         25    1    1    2    0    0  0.16806414187E+03  0.18748763588E+03  0.44927294577E+03  0.52997013991E+03  0.12500000000E+03 0.  0.
         21    1    1    2  503  504 -0.18090212120E+03 -0.11890420673E+03 -0.13812173755E+03  0.25679058047E+03  0.00000000000E+00 0. -1.
         21    1    1    2  504  501  0.12837979330E+02 -0.68583429146E+02 -0.21772770027E+03  0.22863475661E+03  0.00000000000E+00 0.  1.
<mgrwt>
<rscale>  4 0.27482912E+03</rscale>
<asrwt>0</asrwt>
<pdfrwt beam="1">  1       21 0.85293769E-01 0.27482912E+03</pdfrwt>
<pdfrwt beam="2">  1       21 0.70920920E-01 0.27482912E+03</pdfrwt>
<totfact> 0.20091409E+03</totfact>
</mgrwt>
</event>
