<event>
 5    0  0.8533808E-002  0.3410291E+03  0.7546771E-02  0.1066358E+00
         21   -1    0    0  501  502  0.00000000000E+00  0.00000000000E+00  0.15488065064E+03  0.15488065064E+03  0.00000000000E+00 0. -1.
         21   -1    0    0  502  503 -0.00000000000E+00 -0.00000000000E+00 -0.11947066809E+04  0.11947066809E+04  0.00000000000E+00 0. -1.
         25    1    1    2    0    0  0.23596636244E+03 -0.21212189588E+03 -0.95090991118E+03  0.10102130875E+04  0.12500000000E+03 0.  0.
          4    1    1    2  501    0 -0.49958903556E+02  0.27296057540E+02  0.12395309204E+02  0.58263285970E+02  0.00000000000E+00 0.  1.
         -4    1    1    2    0  503 -0.18600745889E+03  0.18482583834E+03 -0.10131142831E+03  0.28111095814E+03  0.00000000000E+00 0. -1.
<mgrwt>
<rscale>  4 0.34102906E+03</rscale>
<asrwt>0</asrwt>
<pdfrwt beam="1">  1       21 0.23827792E-01 0.34102906E+03</pdfrwt>
<pdfrwt beam="2">  1       21 0.18380103E+00 0.34102906E+03</pdfrwt>
<totfact> 0.25539459E+03</totfact>
</mgrwt>
</event>
<event>
 5    0  0.8533808E-002  0.6826998E+03  0.7546771E-02  0.9747284E-01
         21   -1    0    0  501  502  0.00000000000E+00  0.00000000000E+00  0.93483451122E+03  0.93483451122E+03  0.00000000000E+00 0.  1.
         21   -1    0    0  502  503 -0.00000000000E+00 -0.00000000000E+00 -0.49720536658E+03  0.49720536658E+03  0.00000000000E+00 0.  1.
         25    1    1    2    0    0 -0.15748814114E+02 -0.67097392749E+03  0.23415849951E+03  0.72174042384E+03  0.12500000000E+03 0.  0.
          4    1    1    2  501    0  0.19446425040E+02  0.62261366457E+03  0.21752084688E+03  0.65980395391E+03  0.00000000000E+00 0.  1.
         -4    1    1    2    0  503 -0.36976109265E+01  0.48360262916E+02 -0.14050201759E+02  0.50495500050E+02  0.00000000000E+00 0. -1.
<mgrwt>
<rscale>  4 0.68269981E+03</rscale>
<asrwt>0</asrwt>
<pdfrwt beam="1">  1       21 0.14382069E+00 0.68269981E+03</pdfrwt>
<pdfrwt beam="2">  1       21 0.76493134E-01 0.68269981E+03</pdfrwt>
<totfact> 0.38666990E+02</totfact>
</mgrwt>
</event>
<event>
 5    0  0.8533808E-002  0.3179697E+03  0.7546771E-02  0.1076588E+00
         21   -1    0    0  503  502  0.00000000000E+00  0.00000000000E+00  0.11032738275E+03  0.11032738275E+03  0.00000000000E+00 0.  1.
         21   -1    0    0  501  503 -0.00000000000E+00 -0.00000000000E+00 -0.93983787360E+03  0.93983787360E+03  0.00000000000E+00 0.  1.
         25    1    1    2    0    0  0.28572869368E+03  0.61958161077E+02 -0.28705451509E+03  0.42837482973E+03  0.12500000000E+03 0.  0.
          3    1    1    2  501    0 -0.87316573293E+02 -0.19458064884E+02 -0.25256123758E+03  0.26793652045E+03  0.00000000000E+00 0. -1.
         -3    1    1    2    0  502 -0.19841212038E+03 -0.42500096193E+02 -0.28989473818E+03  0.35385390617E+03  0.00000000000E+00 0.  1.
<mgrwt>
<rscale>  4 0.31796965E+03</rscale>
<asrwt>0</asrwt>
<pdfrwt beam="1">  1       21 0.16973443E-01 0.31796965E+03</pdfrwt>
<pdfrwt beam="2">  1       21 0.14459045E+00 0.31796965E+03</pdfrwt>
<totfact> 0.95557216E+03</totfact>
</mgrwt>
</event>
<event>
 5    0  0.8533808E-002  0.3293689E+03  0.7546771E-02  0.1071416E+00
         21   -1    0    0  503  502  0.00000000000E+00  0.00000000000E+00  0.31161407554E+03  0.31161407554E+03  0.00000000000E+00 0.  1.
         21   -1    0    0  501  503 -0.00000000000E+00 -0.00000000000E+00 -0.32676053495E+03  0.32676053495E+03  0.00000000000E+00 0. -1.
         25    1    1    2    0    0 -0.10812915703E+03  0.28489820422E+03 -0.18745661106E+01  0.32937427854E+03  0.12500000000E+03 0.  0.
          2    1    1    2  501    0  0.98331247771E+02 -0.24843181434E+03 -0.27616610329E+02  0.26860766525E+03  0.00000000000E+00 0.  1.
         -2    1    1    2    0  502  0.97979092603E+01 -0.36466389879E+02  0.14344717023E+02  0.40392666700E+02  0.00000000000E+00 0. -1.
<mgrwt>
<rscale>  4 0.32936894E+03</rscale>
<asrwt>0</asrwt>
<pdfrwt beam="1">  1       21 0.47940627E-01 0.32936894E+03</pdfrwt>
<pdfrwt beam="2">  1       21 0.50270852E-01 0.32936894E+03</pdfrwt>
<totfact> 0.14640234E+04</totfact>
</mgrwt>
</event>
<event>
 5    0  0.8533808E-002  0.3091360E+03  0.7546771E-02  0.1080761E+00
         21   -1    0    0  501  502  0.00000000000E+00  0.00000000000E+00  0.35170997957E+03  0.35170997957E+03  0.00000000000E+00 0. -1.
         21   -1    0    0  502  503 -0.00000000000E+00 -0.00000000000E+00 -0.41477806113E+03  0.41477806113E+03  0.00000000000E+00 0. -1.
         25    1    1    2    0    0  0.33403552543E+03  0.31055007059E+02 -0.14903232515E+03  0.38778831810E+03  0.12500000000E+03 0.  0.
          4    1    1    2  501    0 -0.26625998496E+03  0.10870951864E+02  0.11973391255E+03  0.29214511291E+03  0.00000000000E+00 0. -1.
         -4    1    1    2    0  503 -0.67775540471E+02 -0.41925958923E+02 -0.33769668966E+02  0.86554609697E+02  0.00000000000E+00 0.  1.
<mgrwt>
<rscale>  4 0.30913600E+03</rscale>
<asrwt>0</asrwt>
<pdfrwt beam="1">  1       21 0.54109228E-01 0.30913600E+03</pdfrwt>
<pdfrwt beam="2">  1       21 0.63812009E-01 0.30913600E+03</pdfrwt>
<totfact> 0.68379455E+03</totfact>
</mgrwt>
</event>
<event>
 5    0  0.8533808E-002  0.2338538E+03  0.7546771E-02  0.1123956E+00
         21   -1    0    0  503  502  0.00000000000E+00  0.00000000000E+00  0.77371090321E+02  0.77371090321E+02  0.00000000000E+00 0. -1.
         21   -1    0    0  501  503 -0.00000000000E+00 -0.00000000000E+00 -0.74560156757E+03  0.74560156757E+03  0.00000000000E+00 0. -1.
         25    1    1    2    0    0 -0.19680501689E+03  0.63390017371E+02 -0.39843604825E+03  0.46596866152E+03  0.12500000000E+03 0.  0.
          4    1    1    2  501    0  0.28874604962E+02  0.26403482448E+02 -0.23371281439E+02  0.45575250885E+02  0.00000000000E+00 0.  1.
         -4    1    1    2    0  502  0.16793041193E+03 -0.89793499819E+02 -0.24642314756E+03  0.31142874548E+03  0.00000000000E+00 0. -1.
<mgrwt>
<rscale>  4 0.23385375E+03</rscale>
<asrwt>0</asrwt>
<pdfrwt beam="1">  1       21 0.11903245E-01 0.23385375E+03</pdfrwt>
<pdfrwt beam="2">  1       21 0.11470793E+00 0.23385375E+03</pdfrwt>
<totfact> 0.34352212E+04</totfact>
</mgrwt>
</event>
<event>
 5    0  0.8533808E-002  0.2240869E+03  0.7546771E-02  0.1130872E+00
         21   -1    0    0  501  502  0.00000000000E+00  0.00000000000E+00  0.17597608278E+04  0.17597608278E+04  0.00000000000E+00 0. -1.
         21   -1    0    0  502  503 -0.00000000000E+00 -0.00000000000E+00 -0.33946731009E+02  0.33946731009E+02  0.00000000000E+00 0. -1.
         25    1    1    2    0    0 -0.17492486399E+03 -0.10923347984E+03  0.65050976869E+03  0.69377130261E+03  0.12500000000E+03 0.  0.
          3    1    1    2  501    0  0.11130611855E+03  0.12351958933E+03  0.77233965695E+03  0.79003461106E+03  0.00000000000E+00 0. -1.
         -3    1    1    2    0  503  0.63618745437E+02 -0.14286109489E+02  0.30296467111E+03  0.30990164510E+03  0.00000000000E+00 0.  1.
<mgrwt>
<rscale>  4 0.22408689E+03</rscale>
<asrwt>0</asrwt>
<pdfrwt beam="1">  1       21 0.27073236E+00 0.22408689E+03</pdfrwt>
<pdfrwt beam="2">  1       21 0.52225754E-02 0.22408689E+03</pdfrwt>
<totfact> 0.12214434E+04</totfact>
</mgrwt>
</event>
<event>
 5    0  0.8533808E-002  0.3345310E+03  0.7546771E-02  0.1069149E+00
         21   -1    0    0  503  502  0.00000000000E+00  0.00000000000E+00  0.49693529925E+03  0.49693529925E+03  0.00000000000E+00 0. -1.
         21   -1    0    0  501  503 -0.00000000000E+00 -0.00000000000E+00 -0.31161100543E+03  0.31161100543E+03  0.00000000000E+00 0. -1.
         25    1    1    2    0    0  0.11525302835E+03 -0.28810198998E+03 -0.12538647436E+03  0.35725730941E+03  0.12500000000E+03 0.  0.
          2    1    1    2  501    0 -0.59657769480E+02  0.17933373544E+03  0.25403519564E+03  0.31662836062E+03  0.00000000000E+00 0. -1.
         -2    1    1    2    0  502 -0.55595258871E+02  0.10876825454E+03  0.56675572540E+02  0.13466063466E+03  0.00000000000E+00 0.  1.
<mgrwt>
<rscale>  4 0.33453104E+03</rscale>
<asrwt>0</asrwt>
<pdfrwt beam="1">  1       21 0.76451585E-01 0.33453104E+03</pdfrwt>
<pdfrwt beam="2">  1       21 0.47940155E-01 0.33453104E+03</pdfrwt>
<totfact> 0.58332211E+03</totfact>
</mgrwt>
</event>
<event>
 5    0  0.8533808E-002  0.2575392E+03  0.7546771E-02  0.1108631E+00
         21   -1    0    0  501  502  0.00000000000E+00  0.00000000000E+00  0.14839546144E+03  0.14839546144E+03  0.00000000000E+00 0. -1.
         21   -1    0    0  502  503 -0.00000000000E+00 -0.00000000000E+00 -0.39810430289E+03  0.39810430289E+03  0.00000000000E+00 0. -1.
         25    1    1    2    0    0 -0.17944326784E+03 -0.13602039521E+03 -0.13762527294E+03  0.29200539386E+03  0.12500000000E+03 0.  0.
          1    1    1    2  501    0  0.14167257806E+03  0.98969792043E+02 -0.10187098881E+03  0.20060866749E+03  0.00000000000E+00 0.  1.
         -1    1    1    2    0  503  0.37770689780E+02  0.37050603171E+02 -0.10212579693E+02  0.53885702981E+02  0.00000000000E+00 0. -1.
<mgrwt>
<rscale>  4 0.25753919E+03</rscale>
<asrwt>0</asrwt>
<pdfrwt beam="1">  1       21 0.22830071E-01 0.25753919E+03</pdfrwt>
<pdfrwt beam="2">  1       21 0.61246816E-01 0.25753919E+03</pdfrwt>
<totfact> 0.43320892E+04</totfact>
</mgrwt>
</event>
<event>
 5    0  0.8533808E-002  0.2384444E+03  0.7546771E-02  0.1120833E+00
         21   -1    0    0  501  502  0.00000000000E+00  0.00000000000E+00  0.22998056995E+03  0.22998056995E+03  0.00000000000E+00 0. -1.
         21   -1    0    0  502  503 -0.00000000000E+00 -0.00000000000E+00 -0.27074438666E+03  0.27074438666E+03  0.00000000000E+00 0.  1.
         25    1    1    2    0    0 -0.19977405334E+03 -0.10365457332E+03 -0.15284129500E+02  0.25790026671E+03  0.12500000000E+03 0.  0.
          1    1    1    2  501    0  0.36079681385E+02  0.71037928593E+01  0.27051902978E+02  0.45650988341E+02  0.00000000000E+00 0.  1.
         -1    1    1    2    0  503  0.16369437195E+03  0.96550780457E+02 -0.52531590189E+02  0.19717370155E+03  0.00000000000E+00 0. -1.
<mgrwt>
<rscale>  4 0.23844442E+03</rscale>
<asrwt>0</asrwt>
<pdfrwt beam="1">  1       21 0.35381626E-01 0.23844442E+03</pdfrwt>
<pdfrwt beam="2">  1       21 0.41652983E-01 0.23844442E+03</pdfrwt>
<totfact> 0.41817493E+04</totfact>
</mgrwt>
</event>
<event>
 5    0  0.8533808E-002  0.2836115E+03  0.7546771E-02  0.1093733E+00
         21   -1    0    0  501  502  0.00000000000E+00  0.00000000000E+00  0.45595760215E+03  0.45595760215E+03  0.00000000000E+00 0.  1.
         21   -1    0    0  502  503 -0.00000000000E+00 -0.00000000000E+00 -0.17487774685E+03  0.17487774685E+03  0.00000000000E+00 0.  1.
         25    1    1    2    0    0 -0.43882827692E+02 -0.25076842212E+03  0.74969402739E+02  0.29335288553E+03  0.12500000000E+03 0.  0.
          2    1    1    2  501    0  0.58574755808E+02  0.21120520575E+03  0.19612297546E+03  0.29411368968E+03  0.00000000000E+00 0.  1.
         -2    1    1    2    0  503 -0.14691928116E+02  0.39563216369E+02  0.99874771008E+01  0.43368773791E+02  0.00000000000E+00 0. -1.
<mgrwt>
<rscale>  4 0.28361154E+03</rscale>
<asrwt>0</asrwt>
<pdfrwt beam="1">  1       21 0.70147323E-01 0.28361154E+03</pdfrwt>
<pdfrwt beam="2">  1       21 0.26904269E-01 0.28361154E+03</pdfrwt>
<totfact> 0.23195153E+04</totfact>
</mgrwt>
</event>
<event>
 5    0  0.8533808E-002  0.3075433E+03  0.7546771E-02  0.1081529E+00
         21   -1    0    0  501  502  0.00000000000E+00  0.00000000000E+00  0.95038475846E+02  0.95038475846E+02  0.00000000000E+00 0.  1.
         21   -1    0    0  502  503 -0.00000000000E+00 -0.00000000000E+00 -0.95856874102E+03  0.95856874102E+03  0.00000000000E+00 0.  1.
         25    1    1    2    0    0  0.14527415136E+03 -0.24052709424E+03 -0.34168003109E+03  0.45970436779E+03  0.12500000000E+03 0.  0.
          2    1    1    2  501    0 -0.11831750410E+02  0.27762598689E+02 -0.82344134866E+02  0.87700106901E+02  0.00000000000E+00 0. -1.
         -2    1    1    2    0  503 -0.13344240095E+03  0.21276449555E+03 -0.43950609922E+03  0.50620274218E+03  0.00000000000E+00 0.  1.
<mgrwt>
<rscale>  4 0.30754327E+03</rscale>
<asrwt>0</asrwt>
<pdfrwt beam="1">  1       21 0.14621304E-01 0.30754327E+03</pdfrwt>
<pdfrwt beam="2">  1       21 0.14747211E+00 0.30754327E+03</pdfrwt>
<totfact> 0.12004066E+04</totfact>
</mgrwt>
</event>
<event>
 5    0  0.8533808E-002  0.3194983E+03  0.7546771E-02  0.1075880E+00
         21   -1    0    0  501  502  0.00000000000E+00  0.00000000000E+00  0.89197556945E+02  0.89197556945E+02  0.00000000000E+00 0.  1.
         21   -1    0    0  502  503 -0.00000000000E+00 -0.00000000000E+00 -0.15307148520E+04  0.15307148520E+04  0.00000000000E+00 0.  1.
         25    1    1    2    0    0 -0.18761629514E+03 -0.22639410313E+03 -0.11772898421E+04  0.12198731641E+04  0.12500000000E+03 0.  0.
          1    1    1    2  501    0  0.82536487116E+02  0.67319754167E+02 -0.67537867567E+02  0.12611734441E+03  0.00000000000E+00 0.  1.
         -1    1    1    2    0  503  0.10507980802E+03  0.15907434896E+03 -0.19668958542E+03  0.27392190048E+03  0.00000000000E+00 0. -1.
<mgrwt>
<rscale>  4 0.31949830E+03</rscale>
<asrwt>0</asrwt>
<pdfrwt beam="1">  1       21 0.13722700E-01 0.31949830E+03</pdfrwt>
<pdfrwt beam="2">  1       21 0.23549461E+00 0.31949830E+03</pdfrwt>
<totfact> 0.33716704E+03</totfact>
</mgrwt>
</event>
<event>
 5    0  0.8533808E-002  0.3017749E+03  0.7546771E-02  0.1084357E+00
         21   -1    0    0  501  502  0.00000000000E+00  0.00000000000E+00  0.23608341537E+03  0.23608341537E+03  0.00000000000E+00 0. -1.
         21   -1    0    0  502  503 -0.00000000000E+00 -0.00000000000E+00 -0.47933731720E+03  0.47933731720E+03  0.00000000000E+00 0. -1.
         25    1    1    2    0    0  0.27449090829E+03 -0.98919465747E+01 -0.30000368218E+03  0.42552358179E+03  0.12500000000E+03 0.  0.
          3    1    1    2  501    0 -0.13543422018E+03 -0.28480784487E+02  0.12260606554E+02  0.13893849558E+03  0.00000000000E+00 0.  1.
         -3    1    1    2    0  503 -0.13905668810E+03  0.38372731061E+02  0.44489173798E+02  0.15095865520E+03  0.00000000000E+00 0. -1.
<mgrwt>
<rscale>  4 0.30177493E+03</rscale>
<asrwt>0</asrwt>
<pdfrwt beam="1">  1       21 0.36320525E-01 0.30177493E+03</pdfrwt>
<pdfrwt beam="2">  1       21 0.73744203E-01 0.30177493E+03</pdfrwt>
<totfact> 0.11365418E+04</totfact>
</mgrwt>
</event>
<event>
 5    0  0.8533808E-002  0.2419916E+03  0.7546771E-02  0.1118473E+00
         21   -1    0    0  503  502  0.00000000000E+00  0.00000000000E+00  0.17771307050E+03  0.17771307050E+03  0.00000000000E+00 0.  1.
         21   -1    0    0  501  503 -0.00000000000E+00 -0.00000000000E+00 -0.47524852769E+03  0.47524852769E+03  0.00000000000E+00 0.  1.
         25    1    1    2    0    0 -0.89936443331E+01  0.20701222118E+03 -0.34906001415E+03  0.42473855351E+03  0.12500000000E+03 0.  0.
          3    1    1    2  501    0 -0.36005617911E+02 -0.90008366153E+02  0.24302256145E+02  0.99942534251E+02  0.00000000000E+00 0. -1.
         -3    1    1    2    0  502  0.44999262244E+02 -0.11700385503E+03  0.27222300816E+02  0.12828051043E+03  0.00000000000E+00 0.  1.
<mgrwt>
<rscale>  4 0.24199162E+03</rscale>
<asrwt>0</asrwt>
<pdfrwt beam="1">  1       21 0.27340473E-01 0.24199162E+03</pdfrwt>
<pdfrwt beam="2">  1       21 0.73115157E-01 0.24199162E+03</pdfrwt>
<totfact> 0.20886790E+04</totfact>
</mgrwt>
</event>
<event>
 5    0  0.8533808E-002  0.1875984E+03  0.7546771E-02  0.1160645E+00
         21   -1    0    0  501  502  0.00000000000E+00  0.00000000000E+00  0.42666420142E+03  0.42666420142E+03  0.00000000000E+00 0.  1.
         21   -1    0    0  502  503 -0.00000000000E+00 -0.00000000000E+00 -0.64296159279E+03  0.64296159279E+03  0.00000000000E+00 0.  1.
         25    1    1    2    0    0 -0.22791123275E+03  0.30710609541E+02 -0.51882797955E+03  0.58111457039E+03  0.12500000000E+03 0.  0.
          2    1    1    2  501    0  0.13772754259E+03  0.55565212558E+01  0.35302119219E+03  0.37897719331E+03  0.00000000000E+00 0.  1.
         -2    1    1    2    0  503  0.90183690160E+02 -0.36267130796E+02 -0.50490603997E+02  0.10953403051E+03  0.00000000000E+00 0. -1.
<mgrwt>
<rscale>  4 0.18759842E+03</rscale>
<asrwt>0</asrwt>
<pdfrwt beam="1">  1       21 0.65640646E-01 0.18759842E+03</pdfrwt>
<pdfrwt beam="2">  1       21 0.98917168E-01 0.18759842E+03</pdfrwt>
<totfact> 0.18057025E+03</totfact>
</mgrwt>
</event>
<event>
 5    0  0.8533808E-002  0.2798992E+03  0.7546771E-02  0.1095744E+00
         21   -1    0    0  501  502  0.00000000000E+00  0.00000000000E+00  0.28959136951E+03  0.28959136951E+03  0.00000000000E+00 0.  1.
         21   -1    0    0  502  503 -0.00000000000E+00 -0.00000000000E+00 -0.12496684593E+04  0.12496684593E+04  0.00000000000E+00 0. -1.
         25    1    1    2    0    0 -0.91713815317E+01 -0.25026875114E+03 -0.11693457825E+04  0.12023781107E+04  0.12500000000E+03 0.  0.
          1    1    1    2  501    0 -0.35426978793E+02  0.97160794330E+02  0.67429370048E+02  0.12345853849E+03  0.00000000000E+00 0. -1.
         -1    1    1    2    0  503  0.44598360325E+02  0.15310795681E+03  0.14183932261E+03  0.21342317967E+03  0.00000000000E+00 0.  1.
<mgrwt>
<rscale>  4 0.27989920E+03</rscale>
<asrwt>0</asrwt>
<pdfrwt beam="1">  1       21 0.44552518E-01 0.27989920E+03</pdfrwt>
<pdfrwt beam="2">  1       21 0.19225669E+00 0.27989920E+03</pdfrwt>
<totfact> 0.66995071E+02</totfact>
</mgrwt>
</event>
<event>
 5    0  0.8533808E-002  0.2428350E+03  0.7546771E-02  0.1117919E+00
         21   -1    0    0  501  502  0.00000000000E+00  0.00000000000E+00  0.71354756575E+02  0.71354756575E+02  0.00000000000E+00 0. -1.
         21   -1    0    0  502  503 -0.00000000000E+00 -0.00000000000E+00 -0.19337455851E+04  0.19337455851E+04  0.00000000000E+00 0. -1.
         25    1    1    2    0    0 -0.11613168109E+03 -0.17279252207E+03 -0.17268437542E+04  0.17438343311E+04  0.12500000000E+03 0.  0.
          3    1    1    2  501    0  0.67012911117E+02  0.15865845068E+03 -0.10339850098E+03  0.20088425581E+03  0.00000000000E+00 0. -1.
         -3    1    1    2    0  503  0.49118769974E+02  0.14134071389E+02 -0.32148573383E+02  0.60381754763E+02  0.00000000000E+00 0.  1.
<mgrwt>
<rscale>  4 0.24283497E+03</rscale>
<asrwt>0</asrwt>
<pdfrwt beam="1">  1       21 0.10977656E-01 0.24283497E+03</pdfrwt>
<pdfrwt beam="2">  1       21 0.29749928E+00 0.24283497E+03</pdfrwt>
<totfact> 0.22947717E+03</totfact>
</mgrwt>
</event>
<event>
 5    0  0.8533808E-002  0.2063165E+03  0.7546771E-02  0.1144517E+00
         21   -1    0    0  503  502  0.00000000000E+00  0.00000000000E+00  0.12509676313E+03  0.12509676313E+03  0.00000000000E+00 0. -1.
         21   -1    0    0  501  503 -0.00000000000E+00 -0.00000000000E+00 -0.74405567055E+03  0.74405567055E+03  0.00000000000E+00 0. -1.
         25    1    1    2    0    0 -0.17733208949E+03 -0.15170704569E+03 -0.41262493227E+03  0.49025098919E+03  0.12500000000E+03 0.  0.
          1    1    1    2  501    0  0.59779815791E+02  0.54103402171E+02 -0.21116515543E+03  0.22603434997E+03  0.00000000000E+00 0.  1.
         -1    1    1    2    0  502  0.11755227370E+03  0.97603643522E+02  0.48311802746E+01  0.15286709451E+03  0.00000000000E+00 0. -1.
<mgrwt>
<rscale>  4 0.20631651E+03</rscale>
<asrwt>0</asrwt>
<pdfrwt beam="1">  1       21 0.19245656E-01 0.20631651E+03</pdfrwt>
<pdfrwt beam="2">  1       21 0.11447010E+00 0.20631651E+03</pdfrwt>
<totfact> 0.14569490E+04</totfact>
</mgrwt>
</event>
<event>
 5    0  0.8533808E-002  0.3656979E+03  0.7546771E-02  0.1056350E+00
         21   -1    0    0  503  502  0.00000000000E+00  0.00000000000E+00  0.49199482465E+02  0.49199482465E+02  0.00000000000E+00 0. -1.
         21   -1    0    0  501  503 -0.00000000000E+00 -0.00000000000E+00 -0.26985027915E+04  0.26985027915E+04  0.00000000000E+00 0. -1.
         25    1    1    2    0    0  0.21803241210E+03  0.26565362155E+03 -0.16355144313E+04  0.16759004846E+04  0.12500000000E+03 0.  0.
          3    1    1    2  501    0 -0.14955974706E+02 -0.22072084575E+02 -0.13335612633E+03  0.13599527392E+03  0.00000000000E+00 0.  1.
         -3    1    1    2    0  502 -0.20307643739E+03 -0.24358153697E+03 -0.88043275142E+03  0.93580651544E+03  0.00000000000E+00 0. -1.
<mgrwt>
<rscale>  4 0.36569793E+03</rscale>
<asrwt>0</asrwt>
<pdfrwt beam="1">  1       21 0.75691485E-02 0.36569793E+03</pdfrwt>
<pdfrwt beam="2">  1       21 0.41515442E+00 0.36569793E+03</pdfrwt>
<totfact> 0.76390658E+02</totfact>
</mgrwt>
</event>
<event>
 5    0  0.8533808E-002  0.3543603E+03  0.7546771E-02  0.1060840E+00
         21   -1    0    0  501  502  0.00000000000E+00  0.00000000000E+00  0.76477110681E+03  0.76477110681E+03  0.00000000000E+00 0. -1.
         21   -1    0    0  502  503 -0.00000000000E+00 -0.00000000000E+00 -0.17832233216E+03  0.17832233216E+03  0.00000000000E+00 0.  1.
         25    1    1    2    0    0 -0.21818155747E+03 -0.24968579571E+03  0.13635353428E+03  0.37968865523E+03  0.12500000000E+03 0.  0.
          1    1    1    2  501    0  0.61647266962E+02  0.77952861163E+02  0.19145193499E+03  0.21571017014E+03  0.00000000000E+00 0. -1.
         -1    1    1    2    0  503  0.15653429051E+03  0.17173293455E+03  0.25864330538E+03  0.34769461360E+03  0.00000000000E+00 0.  1.
<mgrwt>
<rscale>  4 0.35436025E+03</rscale>
<asrwt>0</asrwt>
<pdfrwt beam="1">  1       21 0.11765709E+00 0.35436025E+03</pdfrwt>
<pdfrwt beam="2">  1       21 0.27434205E-01 0.35436025E+03</pdfrwt>
<totfact> 0.64062452E+03</totfact>
</mgrwt>
</event>
<event>
 5    0  0.8533808E-002  0.4225129E+03  0.7546771E-02  0.1037890E+00
         21   -1    0    0  501  502  0.00000000000E+00  0.00000000000E+00  0.19774000782E+03  0.19774000782E+03  0.00000000000E+00 0. -1.
         21   -1    0    0  502  503 -0.00000000000E+00 -0.00000000000E+00 -0.89785997583E+03  0.89785997583E+03  0.00000000000E+00 0.  1.
         25    1    1    2    0    0 -0.21495385142E+03  0.31679549236E+03 -0.45296372009E+03  0.60610698226E+03  0.12500000000E+03 0.  0.
          4    1    1    2  501    0  0.16587224123E+03 -0.12526685530E+03 -0.57845055698E+02  0.21575781774E+03  0.00000000000E+00 0.  1.
         -4    1    1    2    0  503  0.49081610189E+02 -0.19152863706E+03 -0.18931119221E+03  0.27373518365E+03  0.00000000000E+00 0. -1.
<mgrwt>
<rscale>  4 0.41747730E+03</rscale>
<asrwt>0</asrwt>
<pdfrwt beam="1">  1       21 0.30421540E-01 0.42251294E+03</pdfrwt>
<pdfrwt beam="2">  1       21 0.13813230E+00 0.42251294E+03</pdfrwt>
<totfact> 0.33636909E+03</totfact>
</mgrwt>
</event>
<event>
 5    0  0.8533808E-002  0.2506387E+03  0.7546771E-02  0.1112902E+00
         21   -1    0    0  501  502  0.00000000000E+00  0.00000000000E+00  0.61868429216E+03  0.61868429216E+03  0.00000000000E+00 0.  1.
         21   -1    0    0  502  503 -0.00000000000E+00 -0.00000000000E+00 -0.13713647632E+03  0.13713647632E+03  0.00000000000E+00 0.  1.
         25    1    1    2    0    0  0.18247144389E+03 -0.11789376820E+03  0.40205678299E+02  0.25384299278E+03  0.12500000000E+03 0.  0.
          4    1    1    2  501    0 -0.15730360559E+03  0.47772043565E+02  0.31444071414E+03  0.35482327318E+03  0.00000000000E+00 0. -1.
         -4    1    1    2    0  503 -0.25167838304E+02  0.70121724638E+02  0.12690142340E+03  0.14715450252E+03  0.00000000000E+00 0.  1.
<mgrwt>
<rscale>  4 0.25063872E+03</rscale>
<asrwt>0</asrwt>
<pdfrwt beam="1">  1       21 0.95182197E-01 0.25063872E+03</pdfrwt>
<pdfrwt beam="2">  1       21 0.21097920E-01 0.25063872E+03</pdfrwt>
<totfact> 0.18636638E+04</totfact>
</mgrwt>
</event>
<event>
 5    0  0.8533808E-002  0.2425450E+03  0.7546771E-02  0.1118109E+00
         21   -1    0    0  503  502  0.00000000000E+00  0.00000000000E+00  0.44600456035E+03  0.44600456035E+03  0.00000000000E+00 0. -1.
         21   -1    0    0  501  503 -0.00000000000E+00 -0.00000000000E+00 -0.22385622629E+03  0.22385622629E+03  0.00000000000E+00 0. -1.
         25    1    1    2    0    0 -0.17938742258E+03  0.10499167098E+03  0.34504208737E+03  0.42176076206E+03  0.12500000000E+03 0.  0.
          1    1    1    2  501    0  0.56468297026E+02 -0.51815223083E+02 -0.70989958343E+02  0.10446559289E+03  0.00000000000E+00 0.  1.
         -1    1    1    2    0  502  0.12291912555E+03 -0.53176447894E+02 -0.51903794966E+02  0.14363443170E+03  0.00000000000E+00 0. -1.
<mgrwt>
<rscale>  4 0.24254504E+03</rscale>
<asrwt>0</asrwt>
<pdfrwt beam="1">  1       21 0.68616086E-01 0.24254504E+03</pdfrwt>
<pdfrwt beam="2">  1       21 0.34439419E-01 0.24254504E+03</pdfrwt>
<totfact> 0.15277647E+04</totfact>
</mgrwt>
</event>
<event>
 5    0  0.8533808E-002  0.2525856E+03  0.7546771E-02  0.1111682E+00
         21   -1    0    0  503  502  0.00000000000E+00  0.00000000000E+00  0.20919435599E+03  0.20919435599E+03  0.00000000000E+00 0.  1.
         21   -1    0    0  501  503 -0.00000000000E+00 -0.00000000000E+00 -0.38912658701E+03  0.38912658701E+03  0.00000000000E+00 0.  1.
         25    1    1    2    0    0 -0.13619205314E+02  0.23010154093E+03  0.43525298361E+02  0.26580378758E+03  0.12500000000E+03 0.  0.
          1    1    1    2  501    0  0.26403510605E+02 -0.19858255247E+03 -0.14589808622E+03  0.24782741390E+03  0.00000000000E+00 0.  1.
         -1    1    1    2    0  502 -0.12784305291E+02 -0.31518988463E+02 -0.77559443158E+02  0.84689741519E+02  0.00000000000E+00 0. -1.
<mgrwt>
<rscale>  4 0.25258556E+03</rscale>
<asrwt>0</asrwt>
<pdfrwt beam="1">  1       21 0.32183748E-01 0.25258556E+03</pdfrwt>
<pdfrwt beam="2">  1       21 0.59865628E-01 0.25258556E+03</pdfrwt>
<totfact> 0.23430768E+04</totfact>
</mgrwt>
</event>
<event>
 5    0  0.8533808E-002  0.2597676E+03  0.7546771E-02  0.1107283E+00
         21   -1    0    0  501  502  0.00000000000E+00  0.00000000000E+00  0.18651567798E+03  0.18651567798E+03  0.00000000000E+00 0.  1.
         21   -1    0    0  502  503 -0.00000000000E+00 -0.00000000000E+00 -0.32965295649E+03  0.32965295649E+03  0.00000000000E+00 0.  1.
         25    1    1    2    0    0  0.17581123463E+03  0.14472257181E+03 -0.54450492322E+02  0.26541301613E+03  0.12500000000E+03 0.  0.
          3    1    1    2  501    0 -0.93679356492E+02 -0.70401644963E+02 -0.75039340886E+02  0.13915141439E+03  0.00000000000E+00 0. -1.
         -3    1    1    2    0  503 -0.82131878138E+02 -0.74320926852E+02 -0.13647445301E+02  0.11160420394E+03  0.00000000000E+00 0.  1.
<mgrwt>
<rscale>  4 0.25976761E+03</rscale>
<asrwt>0</asrwt>
<pdfrwt beam="1">  1       21 0.28694720E-01 0.25976761E+03</pdfrwt>
<pdfrwt beam="2">  1       21 0.50715839E-01 0.25976761E+03</pdfrwt>
<totfact> 0.41684405E+04</totfact>
</mgrwt>
</event>
<event>
 5    0  0.8533808E-002  0.2702886E+03  0.7546771E-02  0.1101115E+00
         21   -1    0    0  501  502  0.00000000000E+00  0.00000000000E+00  0.22727637618E+03  0.22727637618E+03  0.00000000000E+00 0. -1.
         21   -1    0    0  502  503 -0.00000000000E+00 -0.00000000000E+00 -0.32716701338E+03  0.32716701338E+03  0.00000000000E+00 0. -1.
         25    1    1    2    0    0  0.20607085209E+03  0.12233459620E+03 -0.13704243181E+03  0.30304550422E+03  0.12500000000E+03 0.  0.
          2    1    1    2  501    0 -0.16659781231E+03 -0.12612643902E+03  0.32569312945E+02  0.21147924208E+03  0.00000000000E+00 0. -1.
         -2    1    1    2    0  503 -0.39473039780E+02  0.37918428160E+01  0.45824816663E+01  0.39918643259E+02  0.00000000000E+00 0.  1.
<mgrwt>
<rscale>  4 0.27028864E+03</rscale>
<asrwt>0</asrwt>
<pdfrwt beam="1">  1       21 0.34965596E-01 0.27028864E+03</pdfrwt>
<pdfrwt beam="2">  1       21 0.50333387E-01 0.27028864E+03</pdfrwt>
<totfact> 0.28535411E+04</totfact>
</mgrwt>
</event>
<event>
 5    0  0.8533808E-002  0.2463138E+03  0.7546771E-02  0.1115657E+00
         21   -1    0    0  501  502  0.00000000000E+00  0.00000000000E+00  0.25825123714E+03  0.25825123714E+03  0.00000000000E+00 0.  1.
         21   -1    0    0  502  503 -0.00000000000E+00 -0.00000000000E+00 -0.47163157360E+03  0.47163157360E+03  0.00000000000E+00 0. -1.
         25    1    1    2    0    0  0.11222146883E+03  0.18014387584E+03 -0.38083760418E+03  0.45355016793E+03  0.12500000000E+03 0.  0.
          2    1    1    2  501    0 -0.58395920150E+01 -0.46391108243E+02  0.52834404616E+02  0.70552888460E+02  0.00000000000E+00 0. -1.
         -2    1    1    2    0  503 -0.10638187682E+03 -0.13375276760E+03  0.11462286310E+03  0.20577975435E+03  0.00000000000E+00 0.  1.
<mgrwt>
<rscale>  4 0.24631377E+03</rscale>
<asrwt>0</asrwt>
<pdfrwt beam="1">  1       21 0.39730960E-01 0.24631377E+03</pdfrwt>
<pdfrwt beam="2">  1       21 0.72558703E-01 0.24631377E+03</pdfrwt>
<totfact> 0.10103507E+04</totfact>
</mgrwt>
</event>
<event>
 5    0  0.8533808E-002  0.2594211E+03  0.7546771E-02  0.1107492E+00
         21   -1    0    0  503  502  0.00000000000E+00  0.00000000000E+00  0.18943451325E+03  0.18943451325E+03  0.00000000000E+00 0. -1.
         21   -1    0    0  501  503 -0.00000000000E+00 -0.00000000000E+00 -0.34996543927E+03  0.34996543927E+03  0.00000000000E+00 0. -1.
         25    1    1    2    0    0 -0.46431608809E+02  0.22252738127E+03 -0.16423078649E+03  0.30703596034E+03  0.12500000000E+03 0.  0.
          4    1    1    2  501    0  0.50078792271E+02 -0.15197266032E+03  0.15408703695E+02  0.16075137035E+03  0.00000000000E+00 0. -1.
         -4    1    1    2    0  502 -0.36471834614E+01 -0.70554720946E+02 -0.11708843224E+02  0.71612621825E+02  0.00000000000E+00 0.  1.
<mgrwt>
<rscale>  4 0.25942114E+03</rscale>
<asrwt>0</asrwt>
<pdfrwt beam="1">  1       21 0.29143771E-01 0.25942114E+03</pdfrwt>
<pdfrwt beam="2">  1       21 0.53840836E-01 0.25942114E+03</pdfrwt>
<totfact> 0.35640222E+04</totfact>
</mgrwt>
</event>
<event>
 5    0  0.8533808E-002  0.2715988E+03  0.7546771E-02  0.1100368E+00
         21   -1    0    0  501  502  0.00000000000E+00  0.00000000000E+00  0.69012294064E+03  0.69012294064E+03  0.00000000000E+00 0.  1.
         21   -1    0    0  502  503 -0.00000000000E+00 -0.00000000000E+00 -0.13477047467E+03  0.13477047467E+03  0.00000000000E+00 0. -1.
         25    1    1    2    0    0 -0.23233329759E+03  0.64514845893E+02  0.75388726986E+02  0.28186767581E+03  0.12500000000E+03 0.  0.
          3    1    1    2  501    0  0.12303258694E+03  0.62677029463E+01  0.25170861535E+03  0.28023834247E+03  0.00000000000E+00 0. -1.
         -3    1    1    2    0  503  0.10930071065E+03 -0.70782548839E+02  0.22825512364E+03  0.26278739703E+03  0.00000000000E+00 0.  1.
<mgrwt>
<rscale>  4 0.27159883E+03</rscale>
<asrwt>0</asrwt>
<pdfrwt beam="1">  1       21 0.10617276E+00 0.27159883E+03</pdfrwt>
<pdfrwt beam="2">  1       21 0.20733920E-01 0.27159883E+03</pdfrwt>
<totfact> 0.14668889E+04</totfact>
</mgrwt>
</event>
<event>
 5    0  0.8533808E-002  0.2925643E+03  0.7546771E-02  0.1089018E+00
         21   -1    0    0  503  502  0.00000000000E+00  0.00000000000E+00  0.11799309084E+04  0.11799309084E+04  0.00000000000E+00 0. -1.
         21   -1    0    0  501  503 -0.00000000000E+00 -0.00000000000E+00 -0.18547520553E+03  0.18547520553E+03  0.00000000000E+00 0. -1.
         25    1    1    2    0    0  0.23345280779E+03  0.13035566069E+03 -0.33026741453E+02  0.29699928854E+03  0.12500000000E+03 0.  0.
          2    1    1    2  501    0 -0.19656446344E+03 -0.15197151446E+03  0.83218905484E+03  0.86848808425E+03  0.00000000000E+00 0. -1.
         -2    1    1    2    0  502 -0.36888344351E+02  0.21615853768E+02  0.19529338944E+03  0.19991874109E+03  0.00000000000E+00 0.  1.
<mgrwt>
<rscale>  4 0.29256427E+03</rscale>
<asrwt>0</asrwt>
<pdfrwt beam="1">  1       21 0.18152783E+00 0.29256427E+03</pdfrwt>
<pdfrwt beam="2">  1       21 0.28534648E-01 0.29256427E+03</pdfrwt>
<totfact> 0.19218185E+03</totfact>
</mgrwt>
</event>
<event>
 5    0  0.8533808E-002  0.2479402E+03  0.7546771E-02  0.1114614E+00
         21   -1    0    0  503  502  0.00000000000E+00  0.00000000000E+00  0.16369902189E+04  0.16369902189E+04  0.00000000000E+00 0. -1.
         21   -1    0    0  501  503 -0.00000000000E+00 -0.00000000000E+00 -0.34204953294E+02  0.34204953294E+02  0.00000000000E+00 0. -1.
         25    1    1    2    0    0  0.19576707324E+03 -0.86744473989E+02  0.95989509043E+03  0.99139948323E+03  0.12500000000E+03 0.  0.
          1    1    1    2  501    0 -0.10175282645E+03  0.67425440139E+02  0.30442850908E+03  0.32798863518E+03  0.00000000000E+00 0. -1.
         -1    1    1    2    0  502 -0.94014246793E+02  0.19319033850E+02  0.33846166609E+03  0.35180705377E+03  0.00000000000E+00 0.  1.
<mgrwt>
<rscale>  4 0.24794022E+03</rscale>
<asrwt>0</asrwt>
<pdfrwt beam="1">  1       21 0.25184459E+00 0.24794022E+03</pdfrwt>
<pdfrwt beam="2">  1       21 0.52623018E-02 0.24794022E+03</pdfrwt>
<totfact> 0.15288925E+04</totfact>
</mgrwt>
</event>
<event>
 5    0  0.8533808E-002  0.3317307E+03  0.7546771E-02  0.1070374E+00
         21   -1    0    0  503  502  0.00000000000E+00  0.00000000000E+00  0.68171104973E+02  0.68171104973E+02  0.00000000000E+00 0.  1.
         21   -1    0    0  501  503 -0.00000000000E+00 -0.00000000000E+00 -0.16321275638E+04  0.16321275638E+04  0.00000000000E+00 0.  1.
         25    1    1    2    0    0 -0.30413715834E+03 -0.43827184944E+02 -0.60597657470E+03  0.69083488788E+03  0.12500000000E+03 0.  0.
          3    1    1    2  501    0  0.47884645835E+02 -0.20363296018E+02 -0.20451903438E+03  0.21103468567E+03  0.00000000000E+00 0. -1.
         -3    1    1    2    0  502  0.25625251250E+03  0.64190480962E+02 -0.75346084978E+03  0.79842909526E+03  0.00000000000E+00 0.  1.
<mgrwt>
<rscale>  4 0.33173066E+03</rscale>
<asrwt>0</asrwt>
<pdfrwt beam="1">  1       21 0.10487863E-01 0.33173066E+03</pdfrwt>
<pdfrwt beam="2">  1       21 0.25109654E+00 0.33173066E+03</pdfrwt>
<totfact> 0.43741468E+03</totfact>
</mgrwt>
</event>
<event>
 5    0  0.8533808E-002  0.3159729E+03  0.7546771E-02  0.1077518E+00
         21   -1    0    0  503  502  0.00000000000E+00  0.00000000000E+00  0.65182207610E+02  0.65182207610E+02  0.00000000000E+00 0. -1.
         21   -1    0    0  501  503 -0.00000000000E+00 -0.00000000000E+00 -0.15543651903E+04  0.15543651903E+04  0.00000000000E+00 0. -1.
         25    1    1    2    0    0  0.27661719534E+03 -0.87731259400E+02 -0.54018222011E+03  0.62580801973E+03  0.12500000000E+03 0.  0.
          4    1    1    2  501    0 -0.57926736435E+02  0.12672587158E+02 -0.13311620107E+03  0.14572585305E+03  0.00000000000E+00 0. -1.
         -4    1    1    2    0  502 -0.21869045891E+03  0.75058672242E+02 -0.81588456156E+03  0.84801352518E+03  0.00000000000E+00 0.  1.
<mgrwt>
<rscale>  4 0.31597286E+03</rscale>
<asrwt>0</asrwt>
<pdfrwt beam="1">  1       21 0.10028032E-01 0.31597286E+03</pdfrwt>
<pdfrwt beam="2">  1       21 0.23913311E+00 0.31597286E+03</pdfrwt>
<totfact> 0.56574375E+03</totfact>
</mgrwt>
</event>
<event>
 5    0  0.8533808E-002  0.2814968E+03  0.7546771E-02  0.1094874E+00
         21   -1    0    0  501  502  0.00000000000E+00  0.00000000000E+00  0.39371211404E+03  0.39371211404E+03  0.00000000000E+00 0. -1.
         21   -1    0    0  502  503 -0.00000000000E+00 -0.00000000000E+00 -0.15255706087E+04  0.15255706087E+04  0.00000000000E+00 0. -1.
         25    1    1    2    0    0  0.14653778081E+03  0.20715576503E+03 -0.14487437119E+04  0.14760996494E+04  0.12500000000E+03 0.  0.
          2    1    1    2  501    0 -0.10603597699E+03 -0.18432023911E+03  0.33202729917E+03  0.39428378911E+03  0.00000000000E+00 0. -1.
         -2    1    1    2    0  503 -0.40501803815E+02 -0.22835525915E+02 -0.15142081966E+02  0.48899284272E+02  0.00000000000E+00 0.  1.
<mgrwt>
<rscale>  4 0.28149675E+03</rscale>
<asrwt>0</asrwt>
<pdfrwt beam="1">  1       21 0.60571095E-01 0.28149675E+03</pdfrwt>
<pdfrwt beam="2">  1       21 0.23470317E+00 0.28149675E+03</pdfrwt>
<totfact> 0.18756999E+02</totfact>
</mgrwt>
</event>
<event>
 5    0  0.8533808E-002  0.2588468E+03  0.7546771E-02  0.1107838E+00
         21   -1    0    0  503  502  0.00000000000E+00  0.00000000000E+00  0.31535587310E+03  0.31535587310E+03  0.00000000000E+00 0.  1.
         21   -1    0    0  501  503 -0.00000000000E+00 -0.00000000000E+00 -0.20814932931E+03  0.20814932931E+03  0.00000000000E+00 0.  1.
         25    1    1    2    0    0 -0.21764093345E+03 -0.63317547461E+02 -0.15910650476E+02  0.25933537462E+03  0.12500000000E+03 0.  0.
          4    1    1    2  501    0  0.99816428262E+02  0.58700071046E+02  0.62434200533E+02  0.13155625066E+03  0.00000000000E+00 0.  1.
         -4    1    1    2    0  502  0.11782450519E+03  0.46174764146E+01  0.60682993727E+02  0.13261357713E+03  0.00000000000E+00 0. -1.
<mgrwt>
<rscale>  4 0.25884684E+03</rscale>
<asrwt>0</asrwt>
<pdfrwt beam="1">  1       21 0.48516288E-01 0.25884684E+03</pdfrwt>
<pdfrwt beam="2">  1       21 0.32022974E-01 0.25884684E+03</pdfrwt>
<totfact> 0.36886710E+04</totfact>
</mgrwt>
</event>
<event>
 5    0  0.8533808E-002  0.4139848E+03  0.7546771E-02  0.1039882E+00
         21   -1    0    0  501  502  0.00000000000E+00  0.00000000000E+00  0.40421928925E+03  0.40421928925E+03  0.00000000000E+00 0. -1.
         21   -1    0    0  502  503 -0.00000000000E+00 -0.00000000000E+00 -0.65064582116E+03  0.65064582116E+03  0.00000000000E+00 0.  1.
         25    1    1    2    0    0 -0.31713103577E+03 -0.21679873682E+03 -0.44045932422E+03  0.59766479102E+03  0.12500000000E+03 0.  0.
          1    1    1    2  501    0  0.23076243677E+03  0.20621094604E+03  0.20240010211E+03  0.36978379876E+03  0.00000000000E+00 0. -1.
         -1    1    1    2    0  503  0.86368599003E+02  0.10587790777E+02 -0.83673098028E+01  0.87416520639E+02  0.00000000000E+00 0.  1.
<mgrwt>
<rscale>  4 0.41146027E+03</rscale>
<asrwt>0</asrwt>
<pdfrwt beam="1">  1       21 0.62187583E-01 0.41398479E+03</pdfrwt>
<pdfrwt beam="2">  1       21 0.10009936E+00 0.41398479E+03</pdfrwt>
<totfact> 0.17133357E+03</totfact>
</mgrwt>
</event>
<event>
 5    0  0.8533808E-002  0.3749026E+03  0.7546771E-02  0.1052834E+00
         21   -1    0    0  501  502  0.00000000000E+00  0.00000000000E+00  0.35110056833E+04  0.35110056833E+04  0.00000000000E+00 0. -1.
         21   -1    0    0  502  503 -0.00000000000E+00 -0.00000000000E+00 -0.12572568691E+03  0.12572568691E+03  0.00000000000E+00 0.  1.
         25    1    1    2    0    0  0.20651465789E+03  0.28684261119E+03  0.18758850632E+03  0.41921526120E+03  0.12500000000E+03 0.  0.
          3    1    1    2  501    0 -0.17375415605E+03 -0.26510898069E+03  0.27989494407E+04  0.28168406505E+04  0.00000000000E+00 0. -1.
         -3    1    1    2    0  503 -0.32760501839E+02 -0.21733630494E+02  0.39874204936E+03  0.40067545858E+03  0.00000000000E+00 0.  1.
<mgrwt>
<rscale>  4 0.37490264E+03</rscale>
<asrwt>0</asrwt>
<pdfrwt beam="1">  1       21 0.54015465E+00 0.37490264E+03</pdfrwt>
<pdfrwt beam="2">  1       21 0.19342416E-01 0.37490264E+03</pdfrwt>
<totfact> 0.18608675E+01</totfact>
</mgrwt>
</event>
<event>
 5    0  0.8533808E-002  0.2747026E+03  0.7546771E-02  0.1098618E+00
         21   -1    0    0  503  502  0.00000000000E+00  0.00000000000E+00  0.12976959603E+04  0.12976959603E+04  0.00000000000E+00 0. -1.
         21   -1    0    0  501  503 -0.00000000000E+00 -0.00000000000E+00 -0.83900421696E+02  0.83900421696E+02  0.00000000000E+00 0. -1.
         25    1    1    2    0    0 -0.24128852851E+03  0.40203987824E+02  0.20756435492E+03  0.34430288419E+03  0.12500000000E+03 0.  0.
          4    1    1    2  501    0  0.15496244839E+02 -0.13876139218E+02  0.45413666935E+02  0.49950795671E+02  0.00000000000E+00 0.  1.
         -4    1    1    2    0  502  0.22579228367E+03 -0.26327848606E+02  0.96081751670E+03  0.98734270210E+03  0.00000000000E+00 0. -1.
<mgrwt>
<rscale>  4 0.27470259E+03</rscale>
<asrwt>0</asrwt>
<pdfrwt beam="1">  1       21 0.19964552E+00 0.27470259E+03</pdfrwt>
<pdfrwt beam="2">  1       21 0.12907758E-01 0.27470259E+03</pdfrwt>
<totfact> 0.65293528E+03</totfact>
</mgrwt>
</event>
<event>
 5    0  0.8533808E-002  0.3290996E+03  0.7546771E-02  0.1071536E+00
         21   -1    0    0  501  502  0.00000000000E+00  0.00000000000E+00  0.25247275037E+03  0.25247275037E+03  0.00000000000E+00 0.  1.
         21   -1    0    0  502  503 -0.00000000000E+00 -0.00000000000E+00 -0.46234179332E+03  0.46234179332E+03  0.00000000000E+00 0.  1.
         25    1    1    2    0    0 -0.59036682360E+02  0.29865735024E+03 -0.22698891020E+03  0.39978807895E+03  0.12500000000E+03 0.  0.
          3    1    1    2  501    0  0.17128404572E+02 -0.24883381807E+03  0.15426569632E+02  0.24989924032E+03  0.00000000000E+00 0.  1.
         -3    1    1    2    0  503  0.41908277788E+02 -0.49823532163E+02  0.16932976195E+01  0.65127224424E+02  0.00000000000E+00 0. -1.
<mgrwt>
<rscale>  4 0.32909959E+03</rscale>
<asrwt>0</asrwt>
<pdfrwt beam="1">  1       21 0.38841962E-01 0.32909959E+03</pdfrwt>
<pdfrwt beam="2">  1       21 0.71129506E-01 0.32909959E+03</pdfrwt>
<totfact> 0.10634584E+04</totfact>
</mgrwt>
</event>
<event>
 5    0  0.8533808E-002  0.3198231E+03  0.7546771E-02  0.1075731E+00
         21   -1    0    0  501  502  0.00000000000E+00  0.00000000000E+00  0.74143903842E+02  0.74143903842E+02  0.00000000000E+00 0. -1.
         21   -1    0    0  502  503 -0.00000000000E+00 -0.00000000000E+00 -0.13930405690E+04  0.13930405690E+04  0.00000000000E+00 0. -1.
         25    1    1    2    0    0  0.21368429391E+03  0.20039984008E+03 -0.75668228368E+03  0.82098364893E+03  0.12500000000E+03 0.  0.
          3    1    1    2  501    0 -0.13674865025E+02  0.17422596990E+02 -0.51273081537E+02  0.55852284730E+02  0.00000000000E+00 0.  1.
         -3    1    1    2    0  503 -0.20000942889E+03 -0.21782243707E+03 -0.51094129994E+03  0.59034853919E+03  0.00000000000E+00 0. -1.
<mgrwt>
<rscale>  4 0.31982313E+03</rscale>
<asrwt>0</asrwt>
<pdfrwt beam="1">  1       21 0.11406755E-01 0.31982313E+03</pdfrwt>
<pdfrwt beam="2">  1       21 0.21431392E+00 0.31982313E+03</pdfrwt>
<totfact> 0.63944314E+03</totfact>
</mgrwt>
</event>
<event>
 5    0  0.8533808E-002  0.2460103E+03  0.7546771E-02  0.1115853E+00
         21   -1    0    0  503  502  0.00000000000E+00  0.00000000000E+00  0.32976012828E+03  0.32976012828E+03  0.00000000000E+00 0. -1.
         21   -1    0    0  501  503 -0.00000000000E+00 -0.00000000000E+00 -0.19538843704E+03  0.19538843704E+03  0.00000000000E+00 0. -1.
         25    1    1    2    0    0  0.20747776816E+03  0.43000309513E+02  0.17899870187E+03  0.30423935671E+03  0.12500000000E+03 0.  0.
          4    1    1    2  501    0 -0.88154887257E+02 -0.53050285794E-01 -0.30620941272E+02  0.93321642752E+02  0.00000000000E+00 0. -1.
         -4    1    1    2    0  502 -0.11932288091E+03 -0.42947259227E+02 -0.14006069352E+02  0.12758756586E+03  0.00000000000E+00 0.  1.
<mgrwt>
<rscale>  4 0.24601027E+03</rscale>
<asrwt>0</asrwt>
<pdfrwt beam="1">  1       21 0.50732327E-01 0.24601027E+03</pdfrwt>
<pdfrwt beam="2">  1       21 0.30059760E-01 0.24601027E+03</pdfrwt>
<totfact> 0.38249860E+04</totfact>
</mgrwt>
</event>
<event>
 5    0  0.8533808E-002  0.3225490E+03  0.7546771E-02  0.1074482E+00
         21   -1    0    0  503  502  0.00000000000E+00  0.00000000000E+00  0.19249559168E+04  0.19249559168E+04  0.00000000000E+00 0. -1.
         21   -1    0    0  501  503 -0.00000000000E+00 -0.00000000000E+00 -0.80302681475E+02  0.80302681475E+02  0.00000000000E+00 0. -1.
         25    1    1    2    0    0  0.10914604142E+03 -0.27658628840E+03  0.33485492254E+03  0.46493618103E+03  0.12500000000E+03 0.  0.
          3    1    1    2  501    0 -0.17845578756E+02  0.67331283668E+02  0.22988040646E+03  0.24020193112E+03  0.00000000000E+00 0.  1.
         -3    1    1    2    0  502 -0.91300462662E+02  0.20925500473E+03  0.12799179063E+04  0.13001204861E+04  0.00000000000E+00 0. -1.
<mgrwt>
<rscale>  4 0.32254896E+03</rscale>
<asrwt>0</asrwt>
<pdfrwt beam="1">  1       21 0.29614703E+00 0.32254896E+03</pdfrwt>
<pdfrwt beam="2">  1       21 0.12354260E-01 0.32254896E+03</pdfrwt>
<totfact> 0.17652697E+03</totfact>
</mgrwt>
</event>
<event>
 5    0  0.8533808E-002  0.2976727E+03  0.7546771E-02  0.1086410E+00
         21   -1    0    0  501  502  0.00000000000E+00  0.00000000000E+00  0.30033354326E+03  0.30033354326E+03  0.00000000000E+00 0.  1.
         21   -1    0    0  502  503 -0.00000000000E+00 -0.00000000000E+00 -0.27498563296E+03  0.27498563296E+03  0.00000000000E+00 0.  1.
         25    1    1    2    0    0 -0.20956093662E+03 -0.17049412245E+03  0.49068785853E+02  0.30168987006E+03  0.12500000000E+03 0.  0.
          2    1    1    2  501    0  0.15909649315E+02  0.25072482886E+02  0.36316496958E+01  0.29915467887E+02  0.00000000000E+00 0. -1.
         -2    1    1    2    0  503  0.19365128731E+03  0.14542163956E+03 -0.27352525241E+02  0.24371383828E+03  0.00000000000E+00 0.  1.
<mgrwt>
<rscale>  4 0.29767269E+03</rscale>
<asrwt>0</asrwt>
<pdfrwt beam="1">  1       21 0.46205160E-01 0.29767269E+03</pdfrwt>
<pdfrwt beam="2">  1       21 0.42305482E-01 0.29767269E+03</pdfrwt>
<totfact> 0.22939777E+04</totfact>
</mgrwt>
</event>
<event>
 5    0  0.8533808E-002  0.2442882E+03  0.7546771E-02  0.1116969E+00
         21   -1    0    0  501  502  0.00000000000E+00  0.00000000000E+00  0.61744507745E+02  0.61744507745E+02  0.00000000000E+00 0.  1.
         21   -1    0    0  502  503 -0.00000000000E+00 -0.00000000000E+00 -0.15544235263E+04  0.15544235263E+04  0.00000000000E+00 0.  1.
         25    1    1    2    0    0 -0.13956229263E+03  0.15676121752E+03 -0.23972116462E+03  0.34226152225E+03  0.12500000000E+03 0.  0.
          2    1    1    2  501    0  0.10682372553E+03 -0.10314444281E+03 -0.60692626771E+03  0.62482763932E+03  0.00000000000E+00 0.  1.
         -2    1    1    2    0  503  0.32738567099E+02 -0.53616774709E+02 -0.64603158622E+03  0.64907887248E+03  0.00000000000E+00 0. -1.
<mgrwt>
<rscale>  4 0.24428818E+03</rscale>
<asrwt>0</asrwt>
<pdfrwt beam="1">  1       21 0.94991561E-02 0.24428818E+03</pdfrwt>
<pdfrwt beam="2">  1       21 0.23914205E+00 0.24428818E+03</pdfrwt>
<totfact> 0.65429399E+03</totfact>
</mgrwt>
</event>
<event>
 5    0  0.8533808E-002  0.2156899E+03  0.7546771E-02  0.1137138E+00
         21   -1    0    0  501  502  0.00000000000E+00  0.00000000000E+00  0.34370942370E+03  0.34370942370E+03  0.00000000000E+00 0. -1.
         21   -1    0    0  502  503 -0.00000000000E+00 -0.00000000000E+00 -0.39942261103E+03  0.39942261103E+03  0.00000000000E+00 0. -1.
         25    1    1    2    0    0  0.21819908253E+03  0.86961017996E+02 -0.25623322968E+03  0.36939616438E+03  0.12500000000E+03 0.  0.
          1    1    1    2  501    0 -0.97108581582E+02 -0.66781834042E+02  0.21986518535E+03  0.24946059750E+03  0.00000000000E+00 0. -1.
         -1    1    1    2    0  503 -0.12109050095E+03 -0.20179183954E+02 -0.19345143001E+02  0.12427527285E+03  0.00000000000E+00 0.  1.
<mgrwt>
<rscale>  4 0.21568991E+03</rscale>
<asrwt>0</asrwt>
<pdfrwt beam="1">  1       21 0.52878373E-01 0.21568991E+03</pdfrwt>
<pdfrwt beam="2">  1       21 0.61449633E-01 0.21568991E+03</pdfrwt>
<totfact> 0.82091257E+03</totfact>
</mgrwt>
</event>
<event>
 5    0  0.8533808E-002  0.2783556E+03  0.7546771E-02  0.1096590E+00
         21   -1    0    0  501  502  0.00000000000E+00  0.00000000000E+00  0.11438975557E+04  0.11438975557E+04  0.00000000000E+00 0. -1.
         21   -1    0    0  502  503 -0.00000000000E+00 -0.00000000000E+00 -0.16764405952E+03  0.16764405952E+03  0.00000000000E+00 0.  1.
         25    1    1    2    0    0 -0.11411949574E+03  0.17223919413E+03  0.98444803975E+02  0.26077955965E+03  0.12500000000E+03 0.  0.
          3    1    1    2  501    0 -0.23083722047E+01  0.16973275771E+03  0.50004378501E+03  0.52807037841E+03  0.00000000000E+00 0.  1.
         -3    1    1    2    0  503  0.11642786795E+03 -0.34197195184E+03  0.37776490723E+03  0.52269167720E+03  0.00000000000E+00 0. -1.
<mgrwt>
<rscale>  4 0.27835561E+03</rscale>
<asrwt>0</asrwt>
<pdfrwt beam="1">  1       21 0.17598423E+00 0.27835561E+03</pdfrwt>
<pdfrwt beam="2">  1       21 0.25791394E-01 0.27835561E+03</pdfrwt>
<totfact> 0.25805224E+03</totfact>
</mgrwt>
</event>
<event>
 5    0  0.8533808E-002  0.3231516E+03  0.7546771E-02  0.1074208E+00
         21   -1    0    0  501  502  0.00000000000E+00  0.00000000000E+00  0.28545159955E+03  0.28545159955E+03  0.00000000000E+00 0.  1.
         21   -1    0    0  502  503 -0.00000000000E+00 -0.00000000000E+00 -0.11195790436E+04  0.11195790436E+04  0.00000000000E+00 0.  1.
         25    1    1    2    0    0 -0.35552766666E+03 -0.16189249867E+03 -0.42863744527E+02  0.41239714291E+03  0.12500000000E+03 0.  0.
          1    1    1    2  501    0  0.15107710698E+03 -0.40951460447E+02 -0.64696898934E+01  0.15666260324E+03  0.00000000000E+00 0.  1.
         -1    1    1    2    0  503  0.20445055968E+03  0.20284395911E+03 -0.78479400962E+03  0.83597089700E+03  0.00000000000E+00 0. -1.
<mgrwt>
<rscale>  4 0.32315159E+03</rscale>
<asrwt>0</asrwt>
<pdfrwt beam="1">  1       21 0.43915631E-01 0.32315159E+03</pdfrwt>
<pdfrwt beam="2">  1       21 0.17224293E+00 0.32315159E+03</pdfrwt>
<totfact> 0.91944771E+02</totfact>
</mgrwt>
</event>
<event>
 5    0  0.8533808E-002  0.3853630E+03  0.7546771E-02  0.1048969E+00
         21   -1    0    0  501  502  0.00000000000E+00  0.00000000000E+00  0.18374735550E+03  0.18374735550E+03  0.00000000000E+00 0. -1.
         21   -1    0    0  502  503 -0.00000000000E+00 -0.00000000000E+00 -0.84946892412E+03  0.84946892412E+03  0.00000000000E+00 0. -1.
         25    1    1    2    0    0 -0.20452980982E+03 -0.30174030029E+03 -0.45870907482E+03  0.59909821169E+03  0.12500000000E+03 0.  0.
          1    1    1    2  501    0  0.15049121991E+03  0.28828595359E+03 -0.16723842002E+03  0.36568440962E+03  0.00000000000E+00 0. -1.
         -1    1    1    2    0  503  0.54038589918E+02  0.13454346700E+02 -0.39774073783E+02  0.68433658317E+02  0.00000000000E+00 0.  1.
<mgrwt>
<rscale>  4 0.38536301E+03</rscale>
<asrwt>0</asrwt>
<pdfrwt beam="1">  1       21 0.28268825E-01 0.38536301E+03</pdfrwt>
<pdfrwt beam="2">  1       21 0.13068752E+00 0.38536301E+03</pdfrwt>
<totfact> 0.45616343E+03</totfact>
</mgrwt>
</event>
<event>
 5    0  0.8533808E-002  0.2451411E+03  0.7546771E-02  0.1116415E+00
         21   -1    0    0  503  502  0.00000000000E+00  0.00000000000E+00  0.12532123493E+03  0.12532123493E+03  0.00000000000E+00 0. -1.
         21   -1    0    0  501  503 -0.00000000000E+00 -0.00000000000E+00 -0.55428572618E+03  0.55428572618E+03  0.00000000000E+00 0. -1.
         25    1    1    2    0    0 -0.70961042695E+02 -0.19225035195E+03 -0.32829366400E+03  0.40669078823E+03  0.12500000000E+03 0.  0.
          1    1    1    2  501    0 -0.33259682585E+02  0.54477760278E+01 -0.36295072043E+02  0.49529960669E+02  0.00000000000E+00 0.  1.
         -1    1    1    2    0  502  0.10422072528E+03  0.18680257592E+03 -0.64375755208E+02  0.22338621222E+03  0.00000000000E+00 0. -1.
<mgrwt>
<rscale>  4 0.24514108E+03</rscale>
<asrwt>0</asrwt>
<pdfrwt beam="1">  1       21 0.19280190E-01 0.24514108E+03</pdfrwt>
<pdfrwt beam="2">  1       21 0.85274728E-01 0.24514108E+03</pdfrwt>
<totfact> 0.28602982E+04</totfact>
</mgrwt>
</event>
<event>
 5    0  0.8533808E-002  0.2453591E+03  0.7546771E-02  0.1116273E+00
         21   -1    0    0  503  502  0.00000000000E+00  0.00000000000E+00  0.20980968554E+03  0.20980968554E+03  0.00000000000E+00 0. -1.
         21   -1    0    0  501  503 -0.00000000000E+00 -0.00000000000E+00 -0.43360389434E+03  0.43360389434E+03  0.00000000000E+00 0. -1.
         25    1    1    2    0    0  0.18988933770E+03  0.92293820984E+02  0.91633802868E+02  0.26191193900E+03  0.12500000000E+03 0.  0.
          1    1    1    2  501    0 -0.28662018811E+02 -0.25473456116E+02 -0.77045689791E+02  0.86060714639E+02  0.00000000000E+00 0.  1.
         -1    1    1    2    0  502 -0.16122731889E+03 -0.66820364867E+02 -0.23838232187E+03  0.29544092624E+03  0.00000000000E+00 0. -1.
<mgrwt>
<rscale>  4 0.24535914E+03</rscale>
<asrwt>0</asrwt>
<pdfrwt beam="1">  1       21 0.32278413E-01 0.24535914E+03</pdfrwt>
<pdfrwt beam="2">  1       21 0.66708291E-01 0.24535914E+03</pdfrwt>
<totfact> 0.18462361E+04</totfact>
</mgrwt>
</event>
<event>
 5    0  0.8533808E-002  0.2398134E+03  0.7546771E-02  0.1119917E+00
         21   -1    0    0  503  502  0.00000000000E+00  0.00000000000E+00  0.26129520118E+03  0.26129520118E+03  0.00000000000E+00 0. -1.
         21   -1    0    0  501  503 -0.00000000000E+00 -0.00000000000E+00 -0.20219275075E+03  0.20219275075E+03  0.00000000000E+00 0. -1.
         25    1    1    2    0    0 -0.16551067485E+01 -0.20465270333E+03  0.68529405663E+02  0.24941280600E+03  0.12500000000E+03 0.  0.
          2    1    1    2  501    0  0.13369413346E+02  0.14916658794E+03  0.18428322809E+02  0.15089405307E+03  0.00000000000E+00 0. -1.
         -2    1    1    2    0  502 -0.11714306598E+02  0.55486115382E+02 -0.27855278036E+02  0.63181092850E+02  0.00000000000E+00 0.  1.
<mgrwt>
<rscale>  4 0.23981340E+03</rscale>
<asrwt>0</asrwt>
<pdfrwt beam="1">  1       21 0.40199262E-01 0.23981340E+03</pdfrwt>
<pdfrwt beam="2">  1       21 0.31106577E-01 0.23981340E+03</pdfrwt>
<totfact> 0.57999024E+04</totfact>
</mgrwt>
</event>
<event>
 5    0  0.8533808E-002  0.2785061E+03  0.7546771E-02  0.1096508E+00
         21   -1    0    0  503  502  0.00000000000E+00  0.00000000000E+00  0.18334151567E+04  0.18334151567E+04  0.00000000000E+00 0.  1.
         21   -1    0    0  501  503 -0.00000000000E+00 -0.00000000000E+00 -0.63799172746E+02  0.63799172746E+02  0.00000000000E+00 0.  1.
         25    1    1    2    0    0 -0.12117233466E+03 -0.21738884167E+03  0.32257991586E+03  0.42617302271E+03  0.12500000000E+03 0.  0.
          1    1    1    2  501    0  0.80039703511E+02  0.61431004151E+02  0.46215285421E+03  0.47303845833E+03  0.00000000000E+00 0. -1.
         -1    1    1    2    0  502  0.41132631151E+02  0.15595783752E+03  0.98488321386E+03  0.99800284838E+03  0.00000000000E+00 0.  1.
<mgrwt>
<rscale>  4 0.27850609E+03</rscale>
<asrwt>0</asrwt>
<pdfrwt beam="1">  1       21 0.28206383E+00 0.27850609E+03</pdfrwt>
<pdfrwt beam="2">  1       21 0.98152587E-02 0.27850609E+03</pdfrwt>
<totfact> 0.33415309E+03</totfact>
</mgrwt>
</event>
<event>
 5    0  0.8533808E-002  0.2932604E+03  0.7546771E-02  0.1088659E+00
         21   -1    0    0  503  502  0.00000000000E+00  0.00000000000E+00  0.40678378891E+03  0.40678378891E+03  0.00000000000E+00 0. -1.
         21   -1    0    0  501  503 -0.00000000000E+00 -0.00000000000E+00 -0.26569854349E+03  0.26569854349E+03  0.00000000000E+00 0. -1.
         25    1    1    2    0    0  0.19061195868E+03 -0.20873795760E+03 -0.30510693049E+02  0.31058067571E+03  0.12500000000E+03 0.  0.
          3    1    1    2  501    0  0.49351487980E+01  0.60101879658E+02  0.79039055681E+02  0.99417121035E+02  0.00000000000E+00 0.  1.
         -3    1    1    2    0  502 -0.19554710748E+03  0.14863607794E+03  0.92556882791E+02  0.26248453566E+03  0.00000000000E+00 0. -1.
<mgrwt>
<rscale>  4 0.29326042E+03</rscale>
<asrwt>0</asrwt>
<pdfrwt beam="1">  1       21 0.62582122E-01 0.29326042E+03</pdfrwt>
<pdfrwt beam="2">  1       21 0.40876699E-01 0.29326042E+03</pdfrwt>
<totfact> 0.12914822E+04</totfact>
</mgrwt>
</event>
<event>
 5    0  0.8533808E-002  0.2479659E+03  0.7546771E-02  0.1114597E+00
         21   -1    0    0  503  502  0.00000000000E+00  0.00000000000E+00  0.78953976190E+03  0.78953976190E+03  0.00000000000E+00 0. -1.
         21   -1    0    0  501  503 -0.00000000000E+00 -0.00000000000E+00 -0.74534838720E+02  0.74534838720E+02  0.00000000000E+00 0. -1.
         25    1    1    2    0    0  0.13088368470E+03  0.16950378270E+03  0.49531591555E+03  0.55391779847E+03  0.12500000000E+03 0.  0.
          4    1    1    2  501    0 -0.44178192960E+02 -0.90994755834E+02  0.11529843528E+03  0.15338020570E+03  0.00000000000E+00 0. -1.
         -4    1    1    2    0  502 -0.86705491740E+02 -0.78509026866E+02  0.10439057235E+03  0.15677659645E+03  0.00000000000E+00 0.  1.
<mgrwt>
<rscale>  4 0.24796587E+03</rscale>
<asrwt>0</asrwt>
<pdfrwt beam="1">  1       21 0.12146765E+00 0.24796587E+03</pdfrwt>
<pdfrwt beam="2">  1       21 0.11466899E-01 0.24796587E+03</pdfrwt>
<totfact> 0.31659615E+04</totfact>
</mgrwt>
</event>
<event>
 5    0  0.8533808E-002  0.2723924E+03  0.7546771E-02  0.1099918E+00
         21   -1    0    0  501  502  0.00000000000E+00  0.00000000000E+00  0.14124757045E+04  0.14124757045E+04  0.00000000000E+00 0. -1.
         21   -1    0    0  502  503 -0.00000000000E+00 -0.00000000000E+00 -0.50640168833E+02  0.50640168833E+02  0.00000000000E+00 0. -1.
         25    1    1    2    0    0  0.21997119725E+03 -0.10092229182E+03  0.88855219890E+03  0.92936679883E+03  0.12500000000E+03 0.  0.
          4    1    1    2  501    0 -0.49064001799E+02  0.65062975411E+01  0.12546172804E+03  0.13487124743E+03  0.00000000000E+00 0.  1.
         -4    1    1    2    0  503 -0.17090719545E+03  0.94415994282E+02  0.34782160874E+03  0.39887782709E+03  0.00000000000E+00 0. -1.
<mgrwt>
<rscale>  4 0.27239243E+03</rscale>
<asrwt>0</asrwt>
<pdfrwt beam="1">  1       21 0.21730392E+00 0.27239243E+03</pdfrwt>
<pdfrwt beam="2">  1       21 0.77907963E-02 0.27239243E+03</pdfrwt>
<totfact> 0.12390259E+04</totfact>
</mgrwt>
</event>
<event>
 5    0  0.8641175E-002  0.3439815E+03  0.7546771E-02  0.1065113E+00
         21   -1    0    0  503  502  0.00000000000E+00  0.00000000000E+00  0.18085664546E+04  0.18085664546E+04  0.00000000000E+00 0.  1.
         21   -1    0    0  501  503 -0.00000000000E+00 -0.00000000000E+00 -0.21403319445E+03  0.21403319445E+03  0.00000000000E+00 0.  1.
         25    1    1    2    0    0 -0.31371931960E+03  0.65409882089E+02  0.16471393935E+04  0.16826738977E+04  0.12500000000E+03 0.  0.
          4    1    1    2  501    0  0.13493749105E+03 -0.40652659193E+02 -0.72254927027E+02  0.15837152418E+03  0.00000000000E+00 0. -1.
         -4    1    1    2    0  502  0.17878182855E+03 -0.24757222897E+02  0.19648793586E+02  0.18155422714E+03  0.00000000000E+00 0.  1.
<mgrwt>
<rscale>  4 0.34398149E+03</rscale>
<asrwt>0</asrwt>
<pdfrwt beam="1">  1       21 0.27824098E+00 0.34398149E+03</pdfrwt>
<pdfrwt beam="2">  1       21 0.32928185E-01 0.34398149E+03</pdfrwt>
<totfact> 0.34541267E+02</totfact>
</mgrwt>
</event>
<event>
 5    0  0.8533808E-002  0.3207920E+03  0.7546771E-02  0.1075285E+00
         21   -1    0    0  503  502  0.00000000000E+00  0.00000000000E+00  0.27981804418E+03  0.27981804418E+03  0.00000000000E+00 0. -1.
         21   -1    0    0  501  503 -0.00000000000E+00 -0.00000000000E+00 -0.35867384521E+03  0.35867384521E+03  0.00000000000E+00 0. -1.
         25    1    1    2    0    0 -0.29531009582E+03  0.86303225634E+01 -0.16055666207E+02  0.32119358583E+03  0.12500000000E+03 0.  0.
          1    1    1    2  501    0  0.25564110782E+03  0.17225977237E+02 -0.26409075841E+02  0.25757823973E+03  0.00000000000E+00 0. -1.
         -1    1    1    2    0  502  0.39668988004E+02 -0.25856299801E+02 -0.36391058986E+02  0.59720063821E+02  0.00000000000E+00 0.  1.
<mgrwt>
<rscale>  4 0.32079204E+03</rscale>
<asrwt>0</asrwt>
<pdfrwt beam="1">  1       21 0.43048930E-01 0.32079204E+03</pdfrwt>
<pdfrwt beam="2">  1       21 0.55180591E-01 0.32079204E+03</pdfrwt>
<totfact> 0.15072782E+04</totfact>
</mgrwt>
</event>
<event>
 5    0  0.8533808E-002  0.3524930E+03  0.7546771E-02  0.1061596E+00
         21   -1    0    0  503  502  0.00000000000E+00  0.00000000000E+00  0.30454893023E+03  0.30454893023E+03  0.00000000000E+00 0. -1.
         21   -1    0    0  501  503 -0.00000000000E+00 -0.00000000000E+00 -0.11671673712E+04  0.11671673712E+04  0.00000000000E+00 0. -1.
         25    1    1    2    0    0  0.24967296844E+03 -0.19816044396E+03 -0.76668161786E+03  0.83966055992E+03  0.12500000000E+03 0.  0.
          3    1    1    2  501    0 -0.38403535486E+03  0.90102943555E+02 -0.18757848994E+03  0.43679215207E+03  0.00000000000E+00 0. -1.
         -3    1    1    2    0  502  0.13436238642E+03  0.10805750041E+03  0.91641666789E+02  0.19526358947E+03  0.00000000000E+00 0.  1.
<mgrwt>
<rscale>  4 0.35249297E+03</rscale>
<asrwt>0</asrwt>
<pdfrwt beam="1">  1       21 0.46853682E-01 0.35249297E+03</pdfrwt>
<pdfrwt beam="2">  1       21 0.17956421E+00 0.35249297E+03</pdfrwt>
<totfact> 0.70024147E+02</totfact>
</mgrwt>
</event>
<event>
 5    0  0.8533808E-002  0.5513068E+03  0.7546771E-02  0.1001192E+00
         21   -1    0    0  501  502  0.00000000000E+00  0.00000000000E+00  0.50525199289E+03  0.50525199289E+03  0.00000000000E+00 0.  1.
         21   -1    0    0  502  503 -0.00000000000E+00 -0.00000000000E+00 -0.90407946952E+03  0.90407946952E+03  0.00000000000E+00 0.  1.
         25    1    1    2    0    0 -0.42197463980E+03 -0.34814646656E+03 -0.54618447753E+03  0.78307792863E+03  0.12500000000E+03 0.  0.
          2    1    1    2  501    0  0.33710615588E+03  0.38872373715E+03  0.12126824157E+03  0.52863285045E+03  0.00000000000E+00 0.  1.
         -2    1    1    2    0  503  0.84868483918E+02 -0.40577270591E+02  0.26088759334E+02  0.97620683335E+02  0.00000000000E+00 0. -1.
<mgrwt>
<rscale>  4 0.55130676E+03</rscale>
<asrwt>0</asrwt>
<pdfrwt beam="1">  1       21 0.77731077E-01 0.55130676E+03</pdfrwt>
<pdfrwt beam="2">  1       21 0.13908915E+00 0.55130676E+03</pdfrwt>
<totfact> 0.42610926E+02</totfact>
</mgrwt>
</event>
<event>
 5    0  0.8533808E-002  0.2599169E+03  0.7546771E-02  0.1107193E+00
         21   -1    0    0  501  502  0.00000000000E+00  0.00000000000E+00  0.75677639784E+03  0.75677639784E+03  0.00000000000E+00 0.  1.
         21   -1    0    0  502  503 -0.00000000000E+00 -0.00000000000E+00 -0.88678965030E+02  0.88678965030E+02  0.00000000000E+00 0.  1.
         25    1    1    2    0    0  0.12839880262E+03  0.18826990428E+03  0.47460039471E+03  0.54111213628E+03  0.12500000000E+03 0.  0.
          4    1    1    2  501    0 -0.25791794451E+02 -0.87009827722E+02  0.75216860462E+02  0.11787070407E+03  0.00000000000E+00 0. -1.
         -4    1    1    2    0  503 -0.10260700817E+03 -0.10126007656E+03  0.11828017764E+03  0.18647252252E+03  0.00000000000E+00 0.  1.
<mgrwt>
<rscale>  4 0.25991693E+03</rscale>
<asrwt>0</asrwt>
<pdfrwt beam="1">  1       21 0.11642713E+00 0.25991693E+03</pdfrwt>
<pdfrwt beam="2">  1       21 0.13642918E-01 0.25991693E+03</pdfrwt>
<totfact> 0.25561206E+04</totfact>
</mgrwt>
</event>
