<event>
 5    0  0.1856407E+000  0.2621488E+03  0.7546771E-02  0.1105859E+00
         21   -1    0    0  502  501  0.00000000000E+00  0.00000000000E+00  0.54850344051E+02  0.54850344051E+02  0.00000000000E+00 0. -1.
         21   -1    0    0  503  502 -0.00000000000E+00 -0.00000000000E+00 -0.11744406699E+04  0.11744406699E+04  0.00000000000E+00 0. -1.
         25    1    1    2    0    0 -0.19989419151E+03  0.11462673914E+03 -0.71218173441E+03  0.75889709444E+03  0.12500000000E+03 0.  0.
         21    1    1    2  503  504  0.58511338471E+02 -0.19213799852E+02 -0.77391165663E+02  0.98904698357E+02  0.00000000000E+00 0. -1.
         21    1    1    2  504  501  0.14138285303E+03 -0.95412939287E+02 -0.33001742575E+03  0.37148922113E+03  0.00000000000E+00 0. -1.
<mgrwt>
<rscale>  4 0.26214877E+03</rscale>
<asrwt>0</asrwt>
<pdfrwt beam="1">  1       21 0.84385140E-02 0.26214877E+03</pdfrwt>
<pdfrwt beam="2">  1       21 0.18068319E+00 0.26214877E+03</pdfrwt>
<totfact> 0.18822837E+04</totfact>
</mgrwt>
</event>
<event>
 5    0  0.1856407E+000  0.2291630E+03  0.7546771E-02  0.1127230E+00
         21   -1    0    0  502  501  0.00000000000E+00  0.00000000000E+00  0.16049081275E+03  0.16049081275E+03  0.00000000000E+00 0. -1.
         21   -1    0    0  503  502 -0.00000000000E+00 -0.00000000000E+00 -0.54957047840E+03  0.54957047840E+03  0.00000000000E+00 0. -1.
         25    1    1    2    0    0  0.19792899933E+03 -0.49690122554E+02 -0.40040084615E+03  0.46646632746E+03  0.12500000000E+03 0.  0.
         21    1    1    2  503  504 -0.32808815188E+02  0.14480090559E+02  0.58211800519E+02  0.68371815072E+02  0.00000000000E+00 0. -1.
         21    1    1    2  504  501 -0.16512018414E+03  0.35210031996E+02 -0.46890620019E+02  0.17522314862E+03  0.00000000000E+00 0. -1.
<mgrwt>
<rscale>  4 0.22916301E+03</rscale>
<asrwt>0</asrwt>
<pdfrwt beam="1">  1       21 0.24690895E-01 0.22916301E+03</pdfrwt>
<pdfrwt beam="2">  1       21 0.84549302E-01 0.22916301E+03</pdfrwt>
<totfact> 0.18411440E+04</totfact>
</mgrwt>
</event>
<event>
 5    0  0.1856407E+000  0.2790633E+03  0.7546771E-02  0.1096202E+00
         21   -1    0    0  502  501  0.00000000000E+00  0.00000000000E+00  0.57290105809E+03  0.57290105809E+03  0.00000000000E+00 0.  1.
         21   -1    0    0  503  502 -0.00000000000E+00 -0.00000000000E+00 -0.17116956383E+03  0.17116956383E+03  0.00000000000E+00 0.  1.
         25    1    1    2    0    0 -0.34258979639E+01  0.24947859374E+03  0.12187143609E+02  0.27932925371E+03  0.12500000000E+03 0.  0.
         21    1    1    2  503  504  0.11843804939E+02 -0.18591064508E+03  0.31898908033E+03  0.36940097055E+03  0.00000000000E+00 0.  1.
         21    1    1    2  504  501 -0.84179069747E+01 -0.63567948663E+02  0.70555270321E+02  0.95340397656E+02  0.00000000000E+00 0.  1.
<mgrwt>
<rscale>  4 0.27906326E+03</rscale>
<asrwt>0</asrwt>
<pdfrwt beam="1">  1       21 0.88138623E-01 0.27906326E+03</pdfrwt>
<pdfrwt beam="2">  1       21 0.26333779E-01 0.27906326E+03</pdfrwt>
<totfact> 0.14407188E+04</totfact>
</mgrwt>
</event>
<event>
 5    0  0.1856407E+000  0.3786386E+03  0.7546771E-02  0.1051438E+00
         21   -1    0    0  502  501  0.00000000000E+00  0.00000000000E+00  0.15892376344E+04  0.15892376344E+04  0.00000000000E+00 0. -1.
         21   -1    0    0  503  502 -0.00000000000E+00 -0.00000000000E+00 -0.89697026267E+03  0.89697026267E+03  0.00000000000E+00 0.  1.
         25    1    1    2    0    0  0.11897950662E+03  0.33702532124E+03  0.15268950537E+04  0.15731419819E+04  0.12500000000E+03 0.  0.
         21    1    1    2  503  504 -0.81852559885E+02 -0.31800980772E+03 -0.74884469943E+03  0.81767870416E+03  0.00000000000E+00 0.  1.
         21    1    1    2  504  501 -0.37126946732E+02 -0.19015513523E+02 -0.85782982554E+02  0.95387211009E+02  0.00000000000E+00 0. -1.
<mgrwt>
<rscale>  4 0.37863860E+03</rscale>
<asrwt>0</asrwt>
<pdfrwt beam="1">  1       21 0.24449810E+00 0.37863860E+03</pdfrwt>
<pdfrwt beam="2">  1       21 0.13799543E+00 0.37863860E+03</pdfrwt>
<totfact> 0.21273096E+01</totfact>
</mgrwt>
</event>
<event>
 5    0  0.3108618E+000  0.3244511E+03  0.7546771E-02  0.1073619E+00
         21   -1    0    0  502  501  0.00000000000E+00  0.00000000000E+00  0.27774831148E+03  0.27774831148E+03  0.00000000000E+00 0. -1.
         21   -1    0    0  503  502 -0.00000000000E+00 -0.00000000000E+00 -0.39235203443E+03  0.39235203443E+03  0.00000000000E+00 0. -1.
         25    1    1    2    0    0 -0.25398233796E+03  0.15353100552E+03 -0.53720358038E+01  0.32207554458E+03  0.12500000000E+03 0.  0.
         21    1    1    2  503  504 -0.17967632684E+02 -0.19231033110E+02 -0.15613049881E+02  0.30601238298E+02  0.00000000000E+00 0. -1.
         21    1    1    2  504  501  0.27194997064E+03 -0.13429997241E+03 -0.93618637263E+02  0.31742356303E+03  0.00000000000E+00 0. -1.
<mgrwt>
<rscale>  4 0.32445112E+03</rscale>
<asrwt>0</asrwt>
<pdfrwt beam="1">  1       21 0.42730510E-01 0.32445112E+03</pdfrwt>
<pdfrwt beam="2">  1       21 0.60361851E-01 0.32445112E+03</pdfrwt>
<totfact> 0.12589827E+04</totfact>
</mgrwt>
</event>
<event>
 5    0  0.1856407E+000  0.3175203E+03  0.7546771E-02  0.1076796E+00
         21   -1    0    0  502  501  0.00000000000E+00  0.00000000000E+00  0.19146073283E+04  0.19146073283E+04  0.00000000000E+00 0. -1.
         21   -1    0    0  503  502 -0.00000000000E+00 -0.00000000000E+00 -0.24710764655E+04  0.24710764655E+04  0.00000000000E+00 0. -1.
         25    1    1    2    0    0  0.37566917716E+02 -0.28945270569E+03  0.18925808272E+04  0.19190313519E+04  0.12500000000E+03 0.  0.
         21    1    1    2  503  504 -0.30272964653E+02  0.26175547406E+03 -0.22822835167E+04  0.22974443260E+04  0.00000000000E+00 0. -1.
         21    1    1    2  504  501 -0.72939530633E+01  0.27697231628E+02 -0.16676644777E+03  0.16920811592E+03  0.00000000000E+00 0. -1.
<mgrwt>
<rscale>  4 0.31752030E+03</rscale>
<asrwt>0</asrwt>
<pdfrwt beam="1">  1       21 0.29455497E+00 0.31752030E+03</pdfrwt>
<pdfrwt beam="2">  1       21 0.38016561E+00 0.31752030E+03</pdfrwt>
<totfact> 0.32330109E-01</totfact>
</mgrwt>
</event>
<event>
 5    0  0.1856407E+000  0.3586145E+03  0.7546771E-02  0.1059134E+00
         21   -1    0    0  502  501  0.00000000000E+00  0.00000000000E+00  0.13806433738E+04  0.13806433738E+04  0.00000000000E+00 0. -1.
         21   -1    0    0  503  502 -0.00000000000E+00 -0.00000000000E+00 -0.13099999671E+03  0.13099999671E+03  0.00000000000E+00 0.  1.
         25    1    1    2    0    0 -0.21357333508E+03  0.25954920314E+03  0.10339710267E+04  0.10943950120E+04  0.12500000000E+03 0.  0.
         21    1    1    2  503  504  0.17520158495E+03 -0.14512643090E+03  0.94869474323E+02  0.24649035168E+03  0.00000000000E+00 0.  1.
         21    1    1    2  504  501  0.38371750123E+02 -0.11442277225E+03  0.12080287607E+03  0.17075800679E+03  0.00000000000E+00 0. -1.
<mgrwt>
<rscale>  4 0.35861450E+03</rscale>
<asrwt>0</asrwt>
<pdfrwt beam="1">  1       21 0.21240666E+00 0.35861450E+03</pdfrwt>
<pdfrwt beam="2">  1       21 0.20153847E-01 0.35861450E+03</pdfrwt>
<totfact> 0.22497011E+03</totfact>
</mgrwt>
</event>
<event>
 5    0  0.1856407E+000  0.2895623E+03  0.7546771E-02  0.1090578E+00
         21   -1    0    0  502  501  0.00000000000E+00  0.00000000000E+00  0.64667054941E+03  0.64667054941E+03  0.00000000000E+00 0. -1.
         21   -1    0    0  503  502 -0.00000000000E+00 -0.00000000000E+00 -0.26730160986E+03  0.26730160986E+03  0.00000000000E+00 0. -1.
         25    1    1    2    0    0  0.25404401234E+03  0.60687232222E+02  0.53081242801E+03  0.60465538457E+03  0.12500000000E+03 0.  0.
         21    1    1    2  503  504 -0.23298110611E+03 -0.59918783233E+02 -0.15731870803E+03  0.28743630996E+03  0.00000000000E+00 0. -1.
         21    1    1    2  504  501 -0.21062906228E+02 -0.76844898966E+00  0.58752195753E+01  0.21880464750E+02  0.00000000000E+00 0.  1.
<mgrwt>
<rscale>  4 0.28956226E+03</rscale>
<asrwt>0</asrwt>
<pdfrwt beam="1">  1       21 0.99487776E-01 0.28956226E+03</pdfrwt>
<pdfrwt beam="2">  1       21 0.41123325E-01 0.28956226E+03</pdfrwt>
<totfact> 0.44357392E+03</totfact>
</mgrwt>
</event>
<event>
 5    0  0.1856407E+000  0.2865852E+03  0.7546771E-02  0.1092146E+00
         21   -1    0    0  502  501  0.00000000000E+00  0.00000000000E+00  0.51370722781E+03  0.51370722781E+03  0.00000000000E+00 0. -1.
         21   -1    0    0  503  502 -0.00000000000E+00 -0.00000000000E+00 -0.19060691987E+03  0.19060691987E+03  0.00000000000E+00 0. -1.
         25    1    1    2    0    0  0.10724483562E+02  0.24639374347E+03  0.26769712339E+03  0.38485275268E+03  0.12500000000E+03 0.  0.
         21    1    1    2  503  504  0.37199494647E+01  0.33821072050E+02  0.67277261192E+01  0.34683789259E+02  0.00000000000E+00 0. -1.
         21    1    1    2  504  501 -0.14444433027E+02 -0.28021481552E+03  0.48675458434E+02  0.28477760575E+03  0.00000000000E+00 0. -1.
<mgrwt>
<rscale>  4 0.28658516E+03</rscale>
<asrwt>0</asrwt>
<pdfrwt beam="1">  1       21 0.79031881E-01 0.28658516E+03</pdfrwt>
<pdfrwt beam="2">  1       21 0.29324142E-01 0.28658516E+03</pdfrwt>
<totfact> 0.14966945E+04</totfact>
</mgrwt>
</event>
<event>
 5    0  0.1856407E+000  0.2503813E+03  0.7546771E-02  0.1113064E+00
         21   -1    0    0  502  501  0.00000000000E+00  0.00000000000E+00  0.21133464407E+03  0.21133464407E+03  0.00000000000E+00 0.  1.
         21   -1    0    0  503  502 -0.00000000000E+00 -0.00000000000E+00 -0.26659328339E+03  0.26659328339E+03  0.00000000000E+00 0.  1.
         25    1    1    2    0    0  0.32055777324E+02 -0.21456521114E+03 -0.19916754511E+02  0.25117221144E+03  0.12500000000E+03 0.  0.
         21    1    1    2  503  504 -0.42914757497E+02  0.14502794626E+03 -0.39292862844E+02  0.15626487346E+03  0.00000000000E+00 0.  1.
         21    1    1    2  504  501  0.10858980173E+02  0.69537264881E+02  0.39509780397E+01  0.70490842561E+02  0.00000000000E+00 0.  1.
<mgrwt>
<rscale>  4 0.25038131E+03</rscale>
<asrwt>0</asrwt>
<pdfrwt beam="1">  1       21 0.32513022E-01 0.25038131E+03</pdfrwt>
<pdfrwt beam="2">  1       21 0.41014351E-01 0.25038131E+03</pdfrwt>
<totfact> 0.50811311E+04</totfact>
</mgrwt>
</event>
