<event>
 5    0  0.5719562E-003  0.5516700E+03  0.7546771E-02  0.1001108E+00
         -2   -1    0    0    0  501 -0.00000000000E+00  0.00000000000E+00  0.23248060536E+02  0.23248060536E+02  0.00000000000E+00 0. -1.
          2   -1    0    0  502    0  0.00000000000E+00 -0.00000000000E+00 -0.32727440673E+04  0.32727440673E+04  0.00000000000E+00 0.  1.
         25    1    1    2    0    0  0.21389474939E+03  0.49337039346E+02 -0.17368268730E+04  0.17551004798E+04  0.12500000000E+03 0.  0.
          1    1    1    2  502    0 -0.85357103729E+02  0.40256800361E+02 -0.10092730308E+04  0.10136757351E+04  0.00000000000E+00 0.  1.
         -1    1    1    2    0  501 -0.12853764566E+03 -0.89593839707E+02 -0.50339610289E+03  0.52721591295E+03  0.00000000000E+00 0. -1.
<mgrwt>
<rscale>  4 0.55167002E+03</rscale>
<asrwt>0</asrwt>
<pdfrwt beam="1">  1        2 0.50349914E+00 0.55167002E+03</pdfrwt>
<pdfrwt beam="2">  1       -2 0.35766243E-02 0.55167002E+03</pdfrwt>
<totfact> 0.43914202E+02</totfact>
</mgrwt>
</event>
<event>
 5    0  0.5719562E-003  0.6210113E+03  0.7546771E-02  0.9862748E-01
          2   -1    0    0  502    0  0.00000000000E+00  0.00000000000E+00  0.13215609010E+04  0.13215609010E+04  0.00000000000E+00 0. -1.
         -2   -1    0    0    0  501 -0.00000000000E+00 -0.00000000000E+00 -0.72954457148E+02  0.72954457148E+02  0.00000000000E+00 0.  1.
         25    1    1    2    0    0  0.26686373464E+03  0.72773803270E+02  0.41063386066E+03  0.51064414892E+03  0.12500000000E+03 0.  0.
          3    1    1    2  502    0 -0.19768649750E+03 -0.41049937198E+02  0.66307269791E+03  0.69313090492E+03  0.00000000000E+00 0. -1.
         -3    1    1    2    0  501 -0.69177237136E+02 -0.31723866072E+02  0.17489988532E+03  0.19074030434E+03  0.00000000000E+00 0.  1.
<mgrwt>
<rscale>  4 0.62101130E+03</rscale>
<asrwt>0</asrwt>
<pdfrwt beam="1">  1        2 0.20331704E+00 0.62101130E+03</pdfrwt>
<pdfrwt beam="2">  1       -2 0.11223764E-01 0.62101130E+03</pdfrwt>
<totfact> 0.92538345E+02</totfact>
</mgrwt>
</event>
<event>
 5    0  0.5719562E-003  0.4864364E+03  0.7546771E-02  0.1017381E+00
         -1   -1    0    0    0  501 -0.00000000000E+00  0.00000000000E+00  0.15174603422E+03  0.15174603422E+03  0.00000000000E+00 0. -1.
          1   -1    0    0  502    0  0.00000000000E+00 -0.00000000000E+00 -0.38982950062E+03  0.38982950062E+03  0.00000000000E+00 0.  1.
         25    1    1    2    0    0 -0.51953994828E+02 -0.21507340018E+03 -0.97602852384E+02  0.27222619609E+03  0.12500000000E+03 0.  0.
          4    1    1    2  502    0  0.23149429343E+02  0.86871866547E+02 -0.22309835583E+02  0.92630157293E+02  0.00000000000E+00 0.  1.
         -4    1    1    2    0  501  0.28804565485E+02  0.12820153363E+03 -0.11817077843E+03  0.17671918145E+03  0.00000000000E+00 0. -1.
<mgrwt>
<rscale>  4 0.48643635E+03</rscale>
<asrwt>0</asrwt>
<pdfrwt beam="1">  1        1 0.59973769E-01 0.48643635E+03</pdfrwt>
<pdfrwt beam="2">  1       -1 0.23345544E-01 0.48643635E+03</pdfrwt>
<totfact> 0.98059541E+02</totfact>
</mgrwt>
</event>
<event>
 5    0  0.5719562E-003  0.4836081E+03  0.7546771E-02  0.1018148E+00
          2   -1    0    0  502    0  0.00000000000E+00  0.00000000000E+00  0.23876322971E+04  0.23876322971E+04  0.00000000000E+00 0.  1.
         -2   -1    0    0    0  501 -0.00000000000E+00 -0.00000000000E+00 -0.24488360858E+02  0.24488360858E+02  0.00000000000E+00 0. -1.
         25    1    1    2    0    0 -0.21516310729E+03  0.10374559703E+01  0.11173314930E+04  0.11447055973E+04  0.12500000000E+03 0.  0.
          4    1    1    2  502    0  0.81668995711E+02 -0.21809471732E+01  0.73191935130E+03  0.73646487913E+03  0.00000000000E+00 0.  1.
         -4    1    1    2    0  501  0.13349411158E+03  0.11434912028E+01  0.51389309191E+03  0.53095018157E+03  0.00000000000E+00 0. -1.
<mgrwt>
<rscale>  4 0.48360811E+03</rscale>
<asrwt>0</asrwt>
<pdfrwt beam="1">  1        2 0.36732786E+00 0.48360811E+03</pdfrwt>
<pdfrwt beam="2">  1       -2 0.37674420E-02 0.48360811E+03</pdfrwt>
<totfact> 0.13609797E+03</totfact>
</mgrwt>
</event>
<event>
 5    0  0.5719562E-003  0.6746721E+03  0.7546771E-02  0.9761554E-01
         -2   -1    0    0    0  501 -0.00000000000E+00  0.00000000000E+00  0.11735512345E+03  0.11735512345E+03  0.00000000000E+00 0. -1.
          2   -1    0    0  502    0  0.00000000000E+00 -0.00000000000E+00 -0.96966883923E+03  0.96966883923E+03  0.00000000000E+00 0.  1.
         25    1    1    2    0    0  0.20410047360E+03  0.11524059316E+03 -0.80779295428E+02  0.27764670393E+03  0.12500000000E+03 0.  0.
          3    1    1    2  502    0 -0.15879600877E+02 -0.19067299235E+02 -0.33607468554E+02  0.41775418212E+02  0.00000000000E+00 0. -1.
         -3    1    1    2    0  501 -0.18822087272E+03 -0.96173293924E+02 -0.73792695180E+03  0.76760184053E+03  0.00000000000E+00 0.  1.
<mgrwt>
<rscale>  4 0.67467209E+03</rscale>
<asrwt>0</asrwt>
<pdfrwt beam="1">  1        2 0.14917982E+00 0.67467209E+03</pdfrwt>
<pdfrwt beam="2">  1       -2 0.18054635E-01 0.67467209E+03</pdfrwt>
<totfact> 0.67703939E+02</totfact>
</mgrwt>
</event>
<event>
 5    0  0.5719562E-003  0.8419247E+03  0.7546771E-02  0.9501240E-01
          1   -1    0    0  502    0  0.00000000000E+00  0.00000000000E+00  0.28904831353E+04  0.28904831353E+04  0.00000000000E+00 0. -1.
         -1   -1    0    0    0  501 -0.00000000000E+00 -0.00000000000E+00 -0.61307841750E+02  0.61307841750E+02  0.00000000000E+00 0.  1.
         25    1    1    2    0    0 -0.19145578397E+03 -0.28562050140E+03  0.15723209118E+04  0.16143272400E+04  0.12500000000E+03 0.  0.
          2    1    1    2  502    0  0.82790381029E+02  0.13187998548E+03  0.10343170372E+04  0.10459724237E+04  0.00000000000E+00 0. -1.
         -2    1    1    2    0  501  0.10866540294E+03  0.15374051592E+03  0.22253734452E+03  0.29149131331E+03  0.00000000000E+00 0.  1.
<mgrwt>
<rscale>  4 0.84192466E+03</rscale>
<asrwt>0</asrwt>
<pdfrwt beam="1">  1        1 0.44468961E+00 0.84192466E+03</pdfrwt>
<pdfrwt beam="2">  1       -1 0.94319779E-02 0.84192466E+03</pdfrwt>
<totfact> 0.51798340E+01</totfact>
</mgrwt>
</event>
<event>
 5    0  0.5719562E-003  0.5287048E+03  0.7546771E-02  0.1006547E+00
          2   -1    0    0  502    0  0.00000000000E+00  0.00000000000E+00  0.33537036045E+03  0.33537036045E+03  0.00000000000E+00 0.  1.
         -2   -1    0    0    0  501 -0.00000000000E+00 -0.00000000000E+00 -0.20837320541E+03  0.20837320541E+03  0.00000000000E+00 0. -1.
         25    1    1    2    0    0  0.82963565852E+02 -0.20924052782E+03  0.10951151911E+03  0.27978978637E+03  0.12500000000E+03 0.  0.
          3    1    1    2  502    0 -0.11031175715E+03  0.18097604255E+03 -0.15655038525E+02  0.21252315632E+03  0.00000000000E+00 0. -1.
         -3    1    1    2    0  501  0.27348191299E+02  0.28264485274E+02  0.33140674457E+02  0.51430623160E+02  0.00000000000E+00 0.  1.
<mgrwt>
<rscale>  4 0.52870482E+03</rscale>
<asrwt>0</asrwt>
<pdfrwt beam="1">  1        2 0.51595440E-01 0.52870482E+03</pdfrwt>
<pdfrwt beam="2">  1       -2 0.32057416E-01 0.52870482E+03</pdfrwt>
<totfact> 0.88038126E+02</totfact>
</mgrwt>
</event>
<event>
 5    0  0.5719562E-003  0.7574016E+03  0.7546771E-02  0.9623809E-01
          1   -1    0    0  502    0  0.00000000000E+00  0.00000000000E+00  0.55690823780E+03  0.55690823780E+03  0.00000000000E+00 0. -1.
         -1   -1    0    0    0  501 -0.00000000000E+00 -0.00000000000E+00 -0.25751874884E+03  0.25751874884E+03  0.00000000000E+00 0.  1.
         25    1    1    2    0    0 -0.34237373637E+03  0.46690464308E+02  0.49130969767E+02  0.37072715979E+03  0.12500000000E+03 0.  0.
          1    1    1    2  502    0  0.30727489515E+03 -0.25171495885E+02  0.25774952926E+03  0.40185356192E+03  0.00000000000E+00 0. -1.
         -1    1    1    2    0  501  0.35098841218E+02 -0.21518968423E+02 -0.74910100637E+01  0.41846264931E+02  0.00000000000E+00 0.  1.
<mgrwt>
<rscale>  4 0.75740164E+03</rscale>
<asrwt>0</asrwt>
<pdfrwt beam="1">  1        1 0.85678190E-01 0.75740164E+03</pdfrwt>
<pdfrwt beam="2">  1       -1 0.39618269E-01 0.75740164E+03</pdfrwt>
<totfact> 0.23900725E+02</totfact>
</mgrwt>
</event>
<event>
 5    0  0.5719562E-003  0.5792391E+03  0.7546771E-02  0.9949440E-01
          2   -1    0    0  502    0  0.00000000000E+00  0.00000000000E+00  0.10450602441E+04  0.10450602441E+04  0.00000000000E+00 0. -1.
         -2   -1    0    0    0  501 -0.00000000000E+00 -0.00000000000E+00 -0.80262819100E+02  0.80262819100E+02  0.00000000000E+00 0.  1.
         25    1    1    2    0    0  0.66379698534E+02 -0.25195109042E+03  0.36184799242E+03  0.46308161911E+03  0.12500000000E+03 0.  0.
          2    1    1    2  502    0 -0.25456338961E+02  0.15409399028E+03  0.26040641767E+03  0.30365191485E+03  0.00000000000E+00 0.  1.
         -2    1    1    2    0  501 -0.40923359574E+02  0.97857100142E+02  0.34254301491E+03  0.35858952923E+03  0.00000000000E+00 0. -1.
<mgrwt>
<rscale>  4 0.57923909E+03</rscale>
<asrwt>0</asrwt>
<pdfrwt beam="1">  1        2 0.16077849E+00 0.57923909E+03</pdfrwt>
<pdfrwt beam="2">  1       -2 0.12348127E-01 0.57923909E+03</pdfrwt>
<totfact> 0.11544345E+03</totfact>
</mgrwt>
</event>
<event>
 5    0  0.5719562E-003  0.5356043E+03  0.7546771E-02  0.1004882E+00
          1   -1    0    0  502    0  0.00000000000E+00  0.00000000000E+00  0.34555114494E+03  0.34555114494E+03  0.00000000000E+00 0. -1.
         -1   -1    0    0    0  501 -0.00000000000E+00 -0.00000000000E+00 -0.20754666867E+03  0.20754666867E+03  0.00000000000E+00 0.  1.
         25    1    1    2    0    0 -0.24747315257E+02 -0.21544823935E+03  0.97263699259E+02  0.26854347999E+03  0.12500000000E+03 0.  0.
          4    1    1    2  502    0  0.95096621937E+02  0.10707240469E+03  0.57394356235E+02  0.15427890160E+03  0.00000000000E+00 0. -1.
         -4    1    1    2    0  501 -0.70349306680E+02  0.10837583466E+03 -0.16653579224E+02  0.13027543202E+03  0.00000000000E+00 0.  1.
<mgrwt>
<rscale>  4 0.53560429E+03</rscale>
<asrwt>0</asrwt>
<pdfrwt beam="1">  1        1 0.53161715E-01 0.53560429E+03</pdfrwt>
<pdfrwt beam="2">  1       -1 0.31930257E-01 0.53560429E+03</pdfrwt>
<totfact> 0.67104249E+02</totfact>
</mgrwt>
</event>
<event>
 5    0  0.5719562E-003  0.5877216E+03  0.7546771E-02  0.9931212E-01
          2   -1    0    0  502    0  0.00000000000E+00  0.00000000000E+00  0.25399657550E+04  0.25399657550E+04  0.00000000000E+00 0. -1.
         -2   -1    0    0    0  501 -0.00000000000E+00 -0.00000000000E+00 -0.33998160568E+02  0.33998160568E+02  0.00000000000E+00 0.  1.
         25    1    1    2    0    0  0.14915673334E+02 -0.22132062314E+03  0.82050142408E+03  0.85910004217E+03  0.12500000000E+03 0.  0.
          3    1    1    2  502    0  0.54980799054E+01  0.84252168018E+02  0.13397378578E+04  0.13423956884E+04  0.00000000000E+00 0. -1.
         -3    1    1    2    0  501 -0.20413753240E+02  0.13706845513E+03  0.34572831256E+03  0.37246818498E+03  0.00000000000E+00 0.  1.
<mgrwt>
<rscale>  4 0.58772158E+03</rscale>
<asrwt>0</asrwt>
<pdfrwt beam="1">  1        2 0.39076381E+00 0.58772158E+03</pdfrwt>
<pdfrwt beam="2">  1       -2 0.52304882E-02 0.58772158E+03</pdfrwt>
<totfact> 0.66919440E+02</totfact>
</mgrwt>
</event>
<event>
 5    0  0.5719562E-003  0.5450517E+03  0.7546771E-02  0.1002646E+00
          2   -1    0    0  502    0  0.00000000000E+00  0.00000000000E+00  0.29125931721E+03  0.29125931721E+03  0.00000000000E+00 0.  1.
         -2   -1    0    0    0  501 -0.00000000000E+00 -0.00000000000E+00 -0.25499727751E+03  0.25499727751E+03  0.00000000000E+00 0. -1.
         25    1    1    2    0    0  0.18455139754E+03  0.82139046286E+02  0.39401179518E+02  0.24079762085E+03  0.12500000000E+03 0.  0.
          2    1    1    2  502    0  0.14631513939E+02 -0.44835144736E+02  0.74729273202E+02  0.88367050856E+02  0.00000000000E+00 0.  1.
         -2    1    1    2    0  501 -0.19918291148E+03 -0.37303901550E+02 -0.77868413021E+02  0.21709192302E+03  0.00000000000E+00 0. -1.
<mgrwt>
<rscale>  4 0.54505168E+03</rscale>
<asrwt>0</asrwt>
<pdfrwt beam="1">  1        2 0.44809126E-01 0.54505168E+03</pdfrwt>
<pdfrwt beam="2">  1       -2 0.39230350E-01 0.54505168E+03</pdfrwt>
<totfact> 0.70104893E+02</totfact>
</mgrwt>
</event>
<event>
 5    0  0.5719562E-003  0.6537702E+03  0.7546771E-02  0.9799730E-01
         -1   -1    0    0    0  501 -0.00000000000E+00  0.00000000000E+00  0.61102072661E+03  0.61102072661E+03  0.00000000000E+00 0.  1.
          1   -1    0    0  502    0  0.00000000000E+00 -0.00000000000E+00 -0.17487763755E+03  0.17487763755E+03  0.00000000000E+00 0. -1.
         25    1    1    2    0    0  0.11252598376E+03  0.20363632351E+03  0.28601272877E+03  0.38930467541E+03  0.12500000000E+03 0.  0.
          3    1    1    2  502    0 -0.35951052823E+02  0.14464926923E+02  0.16059427190E+03  0.16520360916E+03  0.00000000000E+00 0.  1.
         -3    1    1    2    0  501 -0.76574930939E+02 -0.21810125043E+03 -0.10463911618E+02  0.23139007959E+03  0.00000000000E+00 0. -1.
<mgrwt>
<rscale>  4 0.65377018E+03</rscale>
<asrwt>0</asrwt>
<pdfrwt beam="1">  1        1 0.26904252E-01 0.65377018E+03</pdfrwt>
<pdfrwt beam="2">  1       -1 0.94003188E-01 0.65377018E+03</pdfrwt>
<totfact> 0.19761531E+02</totfact>
</mgrwt>
</event>
<event>
 5    0  0.5719562E-003  0.6161757E+03  0.7546771E-02  0.9872404E-01
          1   -1    0    0  502    0  0.00000000000E+00  0.00000000000E+00  0.11866339388E+04  0.11866339388E+04  0.00000000000E+00 0. -1.
         -1   -1    0    0    0  501 -0.00000000000E+00 -0.00000000000E+00 -0.79989386006E+02  0.79989386006E+02  0.00000000000E+00 0.  1.
         25    1    1    2    0    0  0.18872298152E+03 -0.18019538416E+03  0.68589380321E+03  0.74442061330E+03  0.12500000000E+03 0.  0.
          4    1    1    2  502    0 -0.11821546916E+03  0.78260011553E+02  0.87381889714E+02  0.16653864778E+03  0.00000000000E+00 0.  1.
         -4    1    1    2    0  501 -0.70507512363E+02  0.10193537261E+03  0.33336885986E+03  0.35566406371E+03  0.00000000000E+00 0. -1.
<mgrwt>
<rscale>  4 0.61617569E+03</rscale>
<asrwt>0</asrwt>
<pdfrwt beam="1">  1        1 0.18255906E+00 0.61617569E+03</pdfrwt>
<pdfrwt beam="2">  1       -1 0.12306060E-01 0.61617569E+03</pdfrwt>
<totfact> 0.50429542E+02</totfact>
</mgrwt>
</event>
<event>
 5    0  0.5719562E-003  0.1267965E+04  0.7546771E-02  0.9055362E-01
         -2   -1    0    0    0  501 -0.00000000000E+00  0.00000000000E+00  0.56384937231E+03  0.56384937231E+03  0.00000000000E+00 0. -1.
          2   -1    0    0  502    0  0.00000000000E+00 -0.00000000000E+00 -0.71283928829E+03  0.71283928829E+03  0.00000000000E+00 0.  1.
         25    1    1    2    0    0  0.91707166358E+02 -0.42156650685E+03  0.36634817557E+03  0.57962445583E+03  0.12500000000E+03 0.  0.
          2    1    1    2  502    0 -0.71466617475E+02  0.28453710099E+03 -0.20702818816E+03  0.35906755624E+03  0.00000000000E+00 0.  1.
         -2    1    1    2    0  501 -0.20240548884E+02  0.13702940586E+03 -0.30830990339E+03  0.33799664853E+03  0.00000000000E+00 0. -1.
<mgrwt>
<rscale>  4 0.12679653E+04</rscale>
<asrwt>0</asrwt>
<pdfrwt beam="1">  1        2 0.10966758E+00 0.12679653E+04</pdfrwt>
<pdfrwt beam="2">  1       -2 0.86746058E-01 0.12679653E+04</pdfrwt>
<totfact> 0.45255082E+01</totfact>
</mgrwt>
</event>
<event>
 5    0  0.5719562E-003  0.5235808E+03  0.7546771E-02  0.1007801E+00
          1   -1    0    0  502    0  0.00000000000E+00  0.00000000000E+00  0.42059398171E+03  0.42059398171E+03  0.00000000000E+00 0.  1.
         -1   -1    0    0    0  501 -0.00000000000E+00 -0.00000000000E+00 -0.16294627083E+03  0.16294627083E+03  0.00000000000E+00 0. -1.
         25    1    1    2    0    0  0.63340329271E+02 -0.19815073714E+03  0.26604399005E+03  0.36011125584E+03  0.12500000000E+03 0.  0.
          3    1    1    2  502    0 -0.32997022950E+02  0.14878495867E+03  0.28070365667E+02  0.15496358566E+03  0.00000000000E+00 0.  1.
         -3    1    1    2    0  501 -0.30343306321E+02  0.49365778469E+02 -0.36466644840E+02  0.68465411036E+02  0.00000000000E+00 0. -1.
<mgrwt>
<rscale>  4 0.52358083E+03</rscale>
<asrwt>0</asrwt>
<pdfrwt beam="1">  1        1 0.64706766E-01 0.52358083E+03</pdfrwt>
<pdfrwt beam="2">  1       -1 0.25068657E-01 0.52358083E+03</pdfrwt>
<totfact> 0.78677203E+02</totfact>
</mgrwt>
</event>
<event>
 5    0  0.5719562E-003  0.5286690E+03  0.7546771E-02  0.1006555E+00
          1   -1    0    0  502    0  0.00000000000E+00  0.00000000000E+00  0.87450691890E+03  0.87450691890E+03  0.00000000000E+00 0. -1.
         -1   -1    0    0    0  501 -0.00000000000E+00 -0.00000000000E+00 -0.79899571223E+02  0.79899571223E+02  0.00000000000E+00 0.  1.
         25    1    1    2    0    0  0.22453033015E+02 -0.21245412459E+03  0.20735651748E+03  0.32289722683E+03  0.12500000000E+03 0.  0.
          2    1    1    2  502    0  0.15859463077E+02  0.11505359786E+03  0.40519694213E+03  0.42151324399E+03  0.00000000000E+00 0. -1.
         -2    1    1    2    0  501 -0.38312496092E+02  0.97400526733E+02  0.18205388806E+03  0.20999601930E+03  0.00000000000E+00 0.  1.
<mgrwt>
<rscale>  4 0.52866900E+03</rscale>
<asrwt>0</asrwt>
<pdfrwt beam="1">  1        1 0.13453952E+00 0.52866900E+03</pdfrwt>
<pdfrwt beam="2">  1       -1 0.12292242E-01 0.52866900E+03</pdfrwt>
<totfact> 0.87731724E+02</totfact>
</mgrwt>
</event>
<event>
 5    0  0.5719562E-003  0.5211323E+03  0.7546771E-02  0.1008406E+00
          1   -1    0    0  502    0  0.00000000000E+00  0.00000000000E+00  0.44159781494E+03  0.44159781494E+03  0.00000000000E+00 0.  1.
         -1   -1    0    0    0  501 -0.00000000000E+00 -0.00000000000E+00 -0.15374784963E+03  0.15374784963E+03  0.00000000000E+00 0. -1.
         25    1    1    2    0    0 -0.20116136984E+03  0.77605435687E+02  0.20921706318E+03  0.32540018422E+03  0.12500000000E+03 0.  0.
          2    1    1    2  502    0  0.21103333973E+02  0.32024801909E+02 -0.12421343214E+02  0.40314121711E+02  0.00000000000E+00 0.  1.
         -2    1    1    2    0  501  0.18005803587E+03 -0.10963023760E+03  0.91054245331E+02  0.22963135864E+03  0.00000000000E+00 0. -1.
<mgrwt>
<rscale>  4 0.52113228E+03</rscale>
<asrwt>0</asrwt>
<pdfrwt beam="1">  1        1 0.67938125E-01 0.52113228E+03</pdfrwt>
<pdfrwt beam="2">  1       -1 0.23653515E-01 0.52113228E+03</pdfrwt>
<totfact> 0.81357352E+02</totfact>
</mgrwt>
</event>
<event>
 5    0  0.5719562E-003  0.7611575E+03  0.7546771E-02  0.9618007E-01
         -1   -1    0    0    0  501 -0.00000000000E+00  0.00000000000E+00  0.12853390765E+03  0.12853390765E+03  0.00000000000E+00 0. -1.
          1   -1    0    0  502    0  0.00000000000E+00 -0.00000000000E+00 -0.11268635088E+04  0.11268635088E+04  0.00000000000E+00 0.  1.
         25    1    1    2    0    0 -0.24492788374E+02  0.32436441504E+03 -0.23932370817E+03  0.42274461288E+03  0.12500000000E+03 0.  0.
          2    1    1    2  502    0 -0.16165329125E+02 -0.14921548958E+02 -0.17399037461E+02  0.28048119252E+02  0.00000000000E+00 0. -1.
         -2    1    1    2    0  501  0.40658117499E+02 -0.30944286608E+03 -0.74160685553E+03  0.80460468434E+03  0.00000000000E+00 0.  1.
<mgrwt>
<rscale>  4 0.76115746E+03</rscale>
<asrwt>0</asrwt>
<pdfrwt beam="1">  1        1 0.17336362E+00 0.76115746E+03</pdfrwt>
<pdfrwt beam="2">  1       -1 0.19774447E-01 0.76115746E+03</pdfrwt>
<totfact> 0.25532423E+02</totfact>
</mgrwt>
</event>
<event>
 5    0  0.5719562E-003  0.6097559E+03  0.7546771E-02  0.9885370E-01
          1   -1    0    0  502    0  0.00000000000E+00  0.00000000000E+00  0.48434728041E+03  0.48434728041E+03  0.00000000000E+00 0. -1.
         -1   -1    0    0    0  501 -0.00000000000E+00 -0.00000000000E+00 -0.19190892153E+03  0.19190892153E+03  0.00000000000E+00 0.  1.
         25    1    1    2    0    0 -0.26330733475E+03  0.10440639663E+03  0.83678446563E+02  0.32071565382E+03  0.12500000000E+03 0.  0.
          2    1    1    2  502    0  0.28496349576E+02 -0.10409853425E+01  0.37356079881E+02  0.46995768892E+02  0.00000000000E+00 0.  1.
         -2    1    1    2    0  501  0.23481098517E+03 -0.10336541128E+03  0.17140383244E+03  0.30854477922E+03  0.00000000000E+00 0. -1.
<mgrwt>
<rscale>  4 0.60975590E+03</rscale>
<asrwt>0</asrwt>
<pdfrwt beam="1">  1        1 0.74514966E-01 0.60975590E+03</pdfrwt>
<pdfrwt beam="2">  1       -1 0.29524450E-01 0.60975590E+03</pdfrwt>
<totfact> 0.49113116E+02</totfact>
</mgrwt>
</event>
<event>
 5    0  0.5719562E-003  0.5208267E+03  0.7546771E-02  0.1008481E+00
          2   -1    0    0  502    0  0.00000000000E+00  0.00000000000E+00  0.94129112233E+03  0.94129112233E+03  0.00000000000E+00 0. -1.
         -2   -1    0    0    0  501 -0.00000000000E+00 -0.00000000000E+00 -0.72044784940E+02  0.72044784940E+02  0.00000000000E+00 0.  1.
         25    1    1    2    0    0 -0.14287383009E+03  0.18235542121E+03  0.54460142413E+03  0.60488192413E+03  0.12500000000E+03 0.  0.
          3    1    1    2  502    0  0.43434966759E+02 -0.51205979295E+02  0.16932258310E+03  0.18215044826E+03  0.00000000000E+00 0. -1.
         -3    1    1    2    0  501  0.99438863332E+02 -0.13114944191E+03  0.15532233015E+03  0.22630353487E+03  0.00000000000E+00 0.  1.
<mgrwt>
<rscale>  4 0.52082671E+03</rscale>
<asrwt>0</asrwt>
<pdfrwt beam="1">  1        2 0.14481401E+00 0.52082671E+03</pdfrwt>
<pdfrwt beam="2">  1       -2 0.11083814E-01 0.52082671E+03</pdfrwt>
<totfact> 0.16052787E+03</totfact>
</mgrwt>
</event>
<event>
 5    0  0.5719562E-003  0.9316911E+03  0.7546771E-02  0.9386811E-01
          1   -1    0    0  502    0  0.00000000000E+00  0.00000000000E+00  0.73873186536E+03  0.73873186536E+03  0.00000000000E+00 0.  1.
         -1   -1    0    0    0  501 -0.00000000000E+00 -0.00000000000E+00 -0.29376298835E+03  0.29376298835E+03  0.00000000000E+00 0. -1.
         25    1    1    2    0    0 -0.29239530998E+03 -0.25203340670E+03  0.33232419101E+03  0.52448090844E+03  0.12500000000E+03 0.  0.
          2    1    1    2  502    0 -0.33745977788E+02 -0.25660435901E+02 -0.34957950417E+02  0.54948223673E+02  0.00000000000E+00 0.  1.
         -2    1    1    2    0  501  0.32614128777E+03  0.27769384260E+03  0.14760263643E+03  0.45306572160E+03  0.00000000000E+00 0. -1.
<mgrwt>
<rscale>  4 0.93169111E+03</rscale>
<asrwt>0</asrwt>
<pdfrwt beam="1">  1        1 0.11365106E+00 0.93169111E+03</pdfrwt>
<pdfrwt beam="2">  1       -1 0.45194306E-01 0.93169111E+03</pdfrwt>
<totfact> 0.12251651E+02</totfact>
</mgrwt>
</event>
<event>
 5    0  0.5719562E-003  0.7081380E+03  0.7546771E-02  0.9703415E-01
          2   -1    0    0  502    0  0.00000000000E+00  0.00000000000E+00  0.88046958068E+03  0.88046958068E+03  0.00000000000E+00 0.  1.
         -2   -1    0    0    0  501 -0.00000000000E+00 -0.00000000000E+00 -0.14238409852E+03  0.14238409852E+03  0.00000000000E+00 0. -1.
         25    1    1    2    0    0  0.19945000002E+03  0.64454051256E+02  0.74952940567E+03  0.78826008220E+03  0.12500000000E+03 0.  0.
          3    1    1    2  502    0 -0.15674025497E+03 -0.82387704231E+02 -0.38132082601E+02  0.18113336816E+03  0.00000000000E+00 0. -1.
         -3    1    1    2    0  501 -0.42709745049E+02  0.17933652975E+02  0.26688159101E+02  0.53460228838E+02  0.00000000000E+00 0.  1.
<mgrwt>
<rscale>  4 0.70813803E+03</rscale>
<asrwt>0</asrwt>
<pdfrwt beam="1">  1        2 0.13545686E+00 0.70813803E+03</pdfrwt>
<pdfrwt beam="2">  1       -2 0.21905246E-01 0.70813803E+03</pdfrwt>
<totfact> 0.55271505E+02</totfact>
</mgrwt>
</event>
<event>
 5    0  0.5719562E-003  0.7096118E+03  0.7546771E-02  0.9700934E-01
          1   -1    0    0  502    0  0.00000000000E+00  0.00000000000E+00  0.87503688077E+03  0.87503688077E+03  0.00000000000E+00 0. -1.
         -1   -1    0    0    0  501 -0.00000000000E+00 -0.00000000000E+00 -0.14386505773E+03  0.14386505773E+03  0.00000000000E+00 0.  1.
         25    1    1    2    0    0 -0.21296216134E+03  0.18343714121E+02  0.51484195381E+03  0.57129380481E+03  0.12500000000E+03 0.  0.
          1    1    1    2  502    0  0.95015490976E+02  0.53666603193E+02  0.27622208993E+03  0.29699611242E+03  0.00000000000E+00 0. -1.
         -1    1    1    2    0  501  0.11794667037E+03 -0.72010317314E+02 -0.59892220698E+02  0.15061202127E+03  0.00000000000E+00 0.  1.
<mgrwt>
<rscale>  4 0.70961181E+03</rscale>
<asrwt>0</asrwt>
<pdfrwt beam="1">  1        1 0.13462105E+00 0.70961181E+03</pdfrwt>
<pdfrwt beam="2">  1       -1 0.22133086E-01 0.70961181E+03</pdfrwt>
<totfact> 0.33274642E+02</totfact>
</mgrwt>
</event>
<event>
 5    0  0.5719562E-003  0.8873455E+03  0.7546771E-02  0.9441540E-01
          2   -1    0    0  502    0  0.00000000000E+00  0.00000000000E+00  0.14662987037E+04  0.14662987037E+04  0.00000000000E+00 0.  1.
         -2   -1    0    0    0  501 -0.00000000000E+00 -0.00000000000E+00 -0.13424653562E+03  0.13424653562E+03  0.00000000000E+00 0. -1.
         25    1    1    2    0    0 -0.15902712783E+02 -0.31246387124E+03  0.24956878319E+03  0.41928050831E+03  0.12500000000E+03 0.  0.
          1    1    1    2  502    0 -0.12262719765E+03  0.30158015818E+02  0.14415245222E+03  0.19164254487E+03  0.00000000000E+00 0. -1.
         -1    1    1    2    0  501  0.13852991043E+03  0.28230585543E+03  0.93833093264E+03  0.98962218611E+03  0.00000000000E+00 0.  1.
<mgrwt>
<rscale>  4 0.88734553E+03</rscale>
<asrwt>0</asrwt>
<pdfrwt beam="1">  1        2 0.22558440E+00 0.88734553E+03</pdfrwt>
<pdfrwt beam="2">  1       -2 0.20653314E-01 0.88734553E+03</pdfrwt>
<totfact> 0.26869105E+02</totfact>
</mgrwt>
</event>
<event>
 5    0  0.5719562E-003  0.8633244E+03  0.7546771E-02  0.9472626E-01
          2   -1    0    0  502    0  0.00000000000E+00  0.00000000000E+00  0.54284281282E+03  0.54284281282E+03  0.00000000000E+00 0. -1.
         -2   -1    0    0    0  501 -0.00000000000E+00 -0.00000000000E+00 -0.34325272390E+03  0.34325272390E+03  0.00000000000E+00 0.  1.
         25    1    1    2    0    0 -0.31355484992E+03  0.18249190432E+03  0.74921144497E+02  0.39097073669E+03  0.12500000000E+03 0.  0.
          2    1    1    2  502    0  0.26134226012E+03 -0.40520899999E+02  0.19472735415E+03  0.32842116667E+03  0.00000000000E+00 0. -1.
         -2    1    1    2    0  501  0.52212589799E+02 -0.14197100433E+03 -0.70058409724E+02  0.16670363336E+03  0.00000000000E+00 0.  1.
<mgrwt>
<rscale>  4 0.86332444E+03</rscale>
<asrwt>0</asrwt>
<pdfrwt beam="1">  1        2 0.83514279E-01 0.86332444E+03</pdfrwt>
<pdfrwt beam="2">  1       -2 0.52808111E-01 0.86332444E+03</pdfrwt>
<totfact> 0.19008343E+02</totfact>
</mgrwt>
</event>
<event>
 5    0  0.5719562E-003  0.5291140E+03  0.7546771E-02  0.1006447E+00
         -2   -1    0    0    0  501 -0.00000000000E+00  0.00000000000E+00  0.12766786351E+03  0.12766786351E+03  0.00000000000E+00 0. -1.
          2   -1    0    0  502    0  0.00000000000E+00 -0.00000000000E+00 -0.54822261580E+03  0.54822261580E+03  0.00000000000E+00 0.  1.
         25    1    1    2    0    0 -0.16084032551E+03 -0.13027854280E+03 -0.39237658792E+03  0.46089748944E+03  0.12500000000E+03 0.  0.
          3    1    1    2  502    0  0.35266689232E+02  0.21060506618E+02  0.13840138585E+02  0.43345515852E+02  0.00000000000E+00 0.  1.
         -3    1    1    2    0  501  0.12557363628E+03  0.10921803619E+03 -0.42018302955E+02  0.17164747403E+03  0.00000000000E+00 0. -1.
<mgrwt>
<rscale>  4 0.52911401E+03</rscale>
<asrwt>0</asrwt>
<pdfrwt beam="1">  1        2 0.84341940E-01 0.52911401E+03</pdfrwt>
<pdfrwt beam="2">  1       -2 0.19641210E-01 0.52911401E+03</pdfrwt>
<totfact> 0.12191099E+03</totfact>
</mgrwt>
</event>
<event>
 5    0  0.5719562E-003  0.5675147E+03  0.7546771E-02  0.9975193E-01
          2   -1    0    0  502    0  0.00000000000E+00  0.00000000000E+00  0.57532953381E+03  0.57532953381E+03  0.00000000000E+00 0. -1.
         -2   -1    0    0    0  501 -0.00000000000E+00 -0.00000000000E+00 -0.13995150444E+03  0.13995150444E+03  0.00000000000E+00 0.  1.
         25    1    1    2    0    0 -0.58068874136E+01 -0.22296109056E+03  0.41621506362E+02  0.25904192255E+03  0.12500000000E+03 0.  0.
          2    1    1    2  502    0  0.19036953339E+02  0.23440138283E+02  0.59908951911E+02  0.67088957319E+02  0.00000000000E+00 0.  1.
         -2    1    1    2    0  501 -0.13230065925E+02  0.19952095228E+03  0.33384757109E+03  0.38915015838E+03  0.00000000000E+00 0. -1.
<mgrwt>
<rscale>  4 0.56751470E+03</rscale>
<asrwt>0</asrwt>
<pdfrwt beam="1">  1        2 0.88512235E-01 0.56751470E+03</pdfrwt>
<pdfrwt beam="2">  1       -2 0.21531001E-01 0.56751470E+03</pdfrwt>
<totfact> 0.98083939E+02</totfact>
</mgrwt>
</event>
<event>
 5    0  0.5719562E-003  0.5190069E+03  0.7546771E-02  0.1008934E+00
          2   -1    0    0  502    0  0.00000000000E+00  0.00000000000E+00  0.13988177011E+04  0.13988177011E+04  0.00000000000E+00 0. -1.
         -2   -1    0    0    0  501 -0.00000000000E+00 -0.00000000000E+00 -0.48142108826E+02  0.48142108826E+02  0.00000000000E+00 0.  1.
         25    1    1    2    0    0  0.16181441357E+03  0.17307278435E+03  0.66113356039E+03  0.71334471176E+03  0.12500000000E+03 0.  0.
          4    1    1    2  502    0 -0.16410023042E+02 -0.49888347128E+02  0.23394625038E+03  0.23976860533E+03  0.00000000000E+00 0. -1.
         -4    1    1    2    0  501 -0.14540439053E+03 -0.12318443722E+03  0.45559578146E+03  0.49384649280E+03  0.00000000000E+00 0.  1.
<mgrwt>
<rscale>  4 0.51900687E+03</rscale>
<asrwt>0</asrwt>
<pdfrwt beam="1">  1        2 0.21520269E+00 0.51900687E+03</pdfrwt>
<pdfrwt beam="2">  1       -2 0.74064794E-02 0.51900687E+03</pdfrwt>
<totfact> 0.16397468E+03</totfact>
</mgrwt>
</event>
<event>
 5    0  0.5719562E-003  0.5954294E+03  0.7546771E-02  0.9914934E-01
         -2   -1    0    0    0  501 -0.00000000000E+00  0.00000000000E+00  0.71820727439E+02  0.71820727439E+02  0.00000000000E+00 0.  1.
          2   -1    0    0  502    0  0.00000000000E+00 -0.00000000000E+00 -0.12341012960E+04  0.12341012960E+04  0.00000000000E+00 0. -1.
         25    1    1    2    0    0 -0.20475512907E+03 -0.13467914372E+03 -0.77512338881E+03  0.82249887691E+03  0.12500000000E+03 0.  0.
          3    1    1    2  502    0  0.11935379557E+03 -0.10810270223E+02 -0.14172996952E+03  0.18560596628E+03  0.00000000000E+00 0.  1.
         -3    1    1    2    0  501  0.85401333499E+02  0.14548941394E+03 -0.24542721025E+03  0.29781718027E+03  0.00000000000E+00 0. -1.
<mgrwt>
<rscale>  4 0.59542943E+03</rscale>
<asrwt>0</asrwt>
<pdfrwt beam="1">  1        2 0.18986172E+00 0.59542943E+03</pdfrwt>
<pdfrwt beam="2">  1       -2 0.11049344E-01 0.59542943E+03</pdfrwt>
<totfact> 0.10671223E+03</totfact>
</mgrwt>
</event>
<event>
 5    0  0.5719562E-003  0.5856322E+03  0.7546771E-02  0.9935671E-01
         -1   -1    0    0    0  501 -0.00000000000E+00  0.00000000000E+00  0.32776259986E+02  0.32776259986E+02  0.00000000000E+00 0. -1.
          1   -1    0    0  502    0  0.00000000000E+00 -0.00000000000E+00 -0.26159566982E+04  0.26159566982E+04  0.00000000000E+00 0.  1.
         25    1    1    2    0    0 -0.72504391713E+02 -0.22739423940E+03 -0.18949676251E+04  0.19140251636E+04  0.12500000000E+03 0.  0.
          3    1    1    2  502    0  0.32623304501E+02  0.16490464180E+03 -0.57749985369E+03  0.60146812210E+03  0.00000000000E+00 0.  1.
         -3    1    1    2    0  501  0.39881087212E+02  0.62489597607E+02 -0.11071295943E+03  0.13323967244E+03  0.00000000000E+00 0. -1.
<mgrwt>
<rscale>  4 0.58563223E+03</rscale>
<asrwt>0</asrwt>
<pdfrwt beam="1">  1        1 0.40245483E+00 0.58563223E+03</pdfrwt>
<pdfrwt beam="2">  1       -1 0.50425021E-02 0.58563223E+03</pdfrwt>
<totfact> 0.21924244E+02</totfact>
</mgrwt>
</event>
<event>
 5    0  0.5719562E-003  0.4846441E+03  0.7546771E-02  0.1017867E+00
         -1   -1    0    0    0  501 -0.00000000000E+00  0.00000000000E+00  0.28882271006E+03  0.28882271006E+03  0.00000000000E+00 0.  1.
          1   -1    0    0  502    0  0.00000000000E+00 -0.00000000000E+00 -0.20330800739E+03  0.20330800739E+03  0.00000000000E+00 0. -1.
         25    1    1    2    0    0  0.14011457252E+03  0.17162000145E+03  0.13977585359E+02  0.25476634633E+03  0.12500000000E+03 0.  0.
          1    1    1    2  502    0 -0.11557319028E+03 -0.16096319469E+03  0.54033504224E+02  0.20539214186E+03  0.00000000000E+00 0. -1.
         -1    1    1    2    0  501 -0.24541382238E+02 -0.10656806757E+02  0.17503613086E+02  0.31972229254E+02  0.00000000000E+00 0.  1.
<mgrwt>
<rscale>  4 0.48464407E+03</rscale>
<asrwt>0</asrwt>
<pdfrwt beam="1">  1        1 0.31278155E-01 0.48464407E+03</pdfrwt>
<pdfrwt beam="2">  1       -1 0.44434263E-01 0.48464407E+03</pdfrwt>
<totfact> 0.73499773E+02</totfact>
</mgrwt>
</event>
<event>
 5    0  0.5719562E-003  0.9245070E+03  0.7546771E-02  0.9395455E-01
         -2   -1    0    0    0  501 -0.00000000000E+00  0.00000000000E+00  0.20528248999E+03  0.20528248999E+03  0.00000000000E+00 0. -1.
          2   -1    0    0  502    0  0.00000000000E+00 -0.00000000000E+00 -0.10408988115E+04  0.10408988115E+04  0.00000000000E+00 0.  1.
         25    1    1    2    0    0  0.37544291644E+02  0.29042145848E+03  0.19600954806E+02  0.31900375360E+03  0.12500000000E+03 0.  0.
          1    1    1    2  502    0  0.24252666049E+02 -0.29350474238E+03 -0.66912790467E+03  0.73107139078E+03  0.00000000000E+00 0. -1.
         -1    1    1    2    0  501 -0.61796957693E+02  0.30832838945E+01 -0.18608937168E+03  0.19610615715E+03  0.00000000000E+00 0.  1.
<mgrwt>
<rscale>  4 0.92450700E+03</rscale>
<asrwt>0</asrwt>
<pdfrwt beam="1">  1        2 0.16013828E+00 0.92450700E+03</pdfrwt>
<pdfrwt beam="2">  1       -2 0.31581921E-01 0.92450700E+03</pdfrwt>
<totfact> 0.22094321E+02</totfact>
</mgrwt>
</event>
<event>
 5    0  0.5719562E-003  0.5440546E+03  0.7546771E-02  0.1002879E+00
          2   -1    0    0  502    0  0.00000000000E+00  0.00000000000E+00  0.41814857818E+03  0.41814857818E+03  0.00000000000E+00 0.  1.
         -2   -1    0    0    0  501 -0.00000000000E+00 -0.00000000000E+00 -0.17696784265E+03  0.17696784265E+03  0.00000000000E+00 0. -1.
         25    1    1    2    0    0  0.57348881637E+02 -0.20762021751E+03  0.27602356117E+03  0.37176478486E+03  0.12500000000E+03 0.  0.
          3    1    1    2  502    0  0.74470385000E+01  0.24179895218E+02  0.18714127201E+01  0.25369822639E+02  0.00000000000E+00 0. -1.
         -3    1    1    2    0  501 -0.64795920137E+02  0.18344032229E+03 -0.36714238362E+02  0.19798181332E+03  0.00000000000E+00 0.  1.
<mgrwt>
<rscale>  4 0.54405460E+03</rscale>
<asrwt>0</asrwt>
<pdfrwt beam="1">  1        2 0.64330550E-01 0.54405460E+03</pdfrwt>
<pdfrwt beam="2">  1       -2 0.27225822E-01 0.54405460E+03</pdfrwt>
<totfact> 0.93065816E+02</totfact>
</mgrwt>
</event>
<event>
 5    0  0.5719562E-003  0.6973882E+03  0.7546771E-02  0.9721709E-01
         -2   -1    0    0    0  501 -0.00000000000E+00  0.00000000000E+00  0.51744521471E+02  0.51744521471E+02  0.00000000000E+00 0. -1.
          2   -1    0    0  502    0  0.00000000000E+00 -0.00000000000E+00 -0.23497667887E+04  0.23497667887E+04  0.00000000000E+00 0.  1.
         25    1    1    2    0    0  0.28568779537E+03  0.14956506551E+02 -0.17746017996E+04  0.18018539787E+04  0.12500000000E+03 0.  0.
          4    1    1    2  502    0 -0.54623187654E+02  0.21330411939E+02 -0.11032646591E+03  0.12494241947E+03  0.00000000000E+00 0.  1.
         -4    1    1    2    0  501 -0.23106460771E+03 -0.36286918490E+02 -0.41309400171E+03  0.47471491196E+03  0.00000000000E+00 0. -1.
<mgrwt>
<rscale>  4 0.69738815E+03</rscale>
<asrwt>0</asrwt>
<pdfrwt beam="1">  1        2 0.36150246E+00 0.69738815E+03</pdfrwt>
<pdfrwt beam="2">  1       -2 0.79606983E-02 0.69738815E+03</pdfrwt>
<totfact> 0.43717815E+02</totfact>
</mgrwt>
</event>
<event>
 5    0  0.5719562E-003  0.5660869E+03  0.7546771E-02  0.9978375E-01
          2   -1    0    0  502    0  0.00000000000E+00  0.00000000000E+00  0.16578838536E+04  0.16578838536E+04  0.00000000000E+00 0. -1.
         -2   -1    0    0    0  501 -0.00000000000E+00 -0.00000000000E+00 -0.48322797445E+02  0.48322797445E+02  0.00000000000E+00 0.  1.
         25    1    1    2    0    0 -0.19188576463E+03  0.92693471522E+02  0.11240355659E+04  0.11508662736E+04  0.12500000000E+03 0.  0.
          1    1    1    2  502    0  0.36192958484E+02 -0.82944798668E+02  0.79790418616E+02  0.12064941265E+03  0.00000000000E+00 0.  1.
         -1    1    1    2    0  501  0.15569280615E+03 -0.97486728539E+01  0.40573507171E+03  0.43469096485E+03  0.00000000000E+00 0. -1.
<mgrwt>
<rscale>  4 0.56608687E+03</rscale>
<asrwt>0</asrwt>
<pdfrwt beam="1">  1        2 0.25505901E+00 0.56608687E+03</pdfrwt>
<pdfrwt beam="2">  1       -2 0.74342778E-02 0.56608687E+03</pdfrwt>
<totfact> 0.11723650E+03</totfact>
</mgrwt>
</event>
<event>
 5    0  0.5719562E-003  0.4793026E+03  0.7546771E-02  0.1019327E+00
         -1   -1    0    0    0  501 -0.00000000000E+00  0.00000000000E+00  0.94558720190E+02  0.94558720190E+02  0.00000000000E+00 0.  1.
          1   -1    0    0  502    0  0.00000000000E+00 -0.00000000000E+00 -0.60737642512E+03  0.60737642512E+03  0.00000000000E+00 0. -1.
         25    1    1    2    0    0  0.16844037930E+03  0.13387032584E+03 -0.31252990903E+03  0.39949138859E+03  0.12500000000E+03 0.  0.
          2    1    1    2  502    0 -0.13349966020E+03 -0.13004562352E+03 -0.18922643766E+03  0.26559493252E+03  0.00000000000E+00 0. -1.
         -2    1    1    2    0  501 -0.34940719096E+02 -0.38247023126E+01 -0.11061358241E+02  0.36848824199E+02  0.00000000000E+00 0.  1.
<mgrwt>
<rscale>  4 0.47930257E+03</rscale>
<asrwt>0</asrwt>
<pdfrwt beam="1">  1        1 0.93442528E-01 0.47930257E+03</pdfrwt>
<pdfrwt beam="2">  1       -1 0.14547495E-01 0.47930257E+03</pdfrwt>
<totfact> 0.11681986E+03</totfact>
</mgrwt>
</event>
<event>
 5    0  0.5719562E-003  0.4634434E+03  0.7546771E-02  0.1023787E+00
          2   -1    0    0  502    0  0.00000000000E+00  0.00000000000E+00  0.12116804467E+04  0.12116804467E+04  0.00000000000E+00 0.  1.
         -2   -1    0    0    0  501 -0.00000000000E+00 -0.00000000000E+00 -0.44314451818E+02  0.44314451818E+02  0.00000000000E+00 0. -1.
         25    1    1    2    0    0 -0.18707390764E+03  0.95076433894E+02  0.72733030917E+03  0.76724869100E+03  0.12500000000E+03 0.  0.
          2    1    1    2  502    0  0.24354566205E+02 -0.22939693289E+02  0.51973775336E+02  0.61811388481E+02  0.00000000000E+00 0. -1.
         -2    1    1    2    0  501  0.16271934144E+03 -0.72136740605E+02  0.38806191037E+03  0.42693481904E+03  0.00000000000E+00 0.  1.
<mgrwt>
<rscale>  4 0.46344344E+03</rscale>
<asrwt>0</asrwt>
<pdfrwt beam="1">  1        2 0.18641235E+00 0.46344344E+03</pdfrwt>
<pdfrwt beam="2">  1       -2 0.68176089E-02 0.46344344E+03</pdfrwt>
<totfact> 0.23888502E+03</totfact>
</mgrwt>
</event>
<event>
 5    0  0.5719562E-003  0.6375892E+03  0.7546771E-02  0.9830350E-01
          2   -1    0    0  502    0  0.00000000000E+00  0.00000000000E+00  0.56227851156E+03  0.56227851156E+03  0.00000000000E+00 0. -1.
         -2   -1    0    0    0  501 -0.00000000000E+00 -0.00000000000E+00 -0.18074670068E+03  0.18074670068E+03  0.00000000000E+00 0.  1.
         25    1    1    2    0    0  0.63701090669E+02 -0.24854805258E+03  0.37883787421E+02  0.28791343273E+03  0.12500000000E+03 0.  0.
          2    1    1    2  502    0 -0.95692273996E+02  0.23132331416E+03  0.24621975909E+03  0.35112911691E+03  0.00000000000E+00 0. -1.
         -2    1    1    2    0  501  0.31991183327E+02  0.17224738422E+02  0.97428264360E+02  0.10398266260E+03  0.00000000000E+00 0.  1.
<mgrwt>
<rscale>  4 0.63758916E+03</rscale>
<asrwt>0</asrwt>
<pdfrwt beam="1">  1        2 0.86504386E-01 0.63758916E+03</pdfrwt>
<pdfrwt beam="2">  1       -2 0.27807185E-01 0.63758916E+03</pdfrwt>
<totfact> 0.63650615E+02</totfact>
</mgrwt>
</event>
<event>
 5    0  0.5719562E-003  0.5262639E+03  0.7546771E-02  0.1007142E+00
          2   -1    0    0  502    0  0.00000000000E+00  0.00000000000E+00  0.96473343505E+03  0.96473343505E+03  0.00000000000E+00 0. -1.
         -2   -1    0    0    0  501 -0.00000000000E+00 -0.00000000000E+00 -0.71769495539E+02  0.71769495539E+02  0.00000000000E+00 0.  1.
         25    1    1    2    0    0 -0.20844990524E+03 -0.52767528642E+02  0.40672434870E+03  0.47674466006E+03  0.12500000000E+03 0.  0.
          4    1    1    2  502    0  0.22392614895E+03  0.84139850044E+02  0.39186047175E+03  0.45910463281E+03  0.00000000000E+00 0. -1.
         -4    1    1    2    0  501 -0.15476243712E+02 -0.31372321402E+02  0.94379119066E+02  0.10065363771E+03  0.00000000000E+00 0.  1.
<mgrwt>
<rscale>  4 0.52626393E+03</rscale>
<asrwt>0</asrwt>
<pdfrwt beam="1">  1        2 0.14842052E+00 0.52626393E+03</pdfrwt>
<pdfrwt beam="2">  1       -2 0.11041462E-01 0.52626393E+03</pdfrwt>
<totfact> 0.15599569E+03</totfact>
</mgrwt>
</event>
<event>
 5    0  0.5719562E-003  0.4723058E+03  0.7546771E-02  0.1021271E+00
         -2   -1    0    0    0  501 -0.00000000000E+00  0.00000000000E+00  0.43284301680E+02  0.43284301680E+02  0.00000000000E+00 0.  1.
          2   -1    0    0  502    0  0.00000000000E+00 -0.00000000000E+00 -0.12884160616E+04  0.12884160616E+04  0.00000000000E+00 0. -1.
         25    1    1    2    0    0  0.19812152723E+03  0.76072700682E+02 -0.53417182460E+03  0.58822082039E+03  0.12500000000E+03 0.  0.
          2    1    1    2  502    0 -0.17016544641E+03 -0.45690413853E+02 -0.57525326979E+03  0.60163129695E+03  0.00000000000E+00 0.  1.
         -2    1    1    2    0  501 -0.27956080820E+02 -0.30382286829E+02 -0.13570666555E+03  0.14184824597E+03  0.00000000000E+00 0. -1.
<mgrwt>
<rscale>  4 0.47230579E+03</rscale>
<asrwt>0</asrwt>
<pdfrwt beam="1">  1        2 0.19821789E+00 0.47230579E+03</pdfrwt>
<pdfrwt beam="2">  1       -2 0.66591223E-02 0.47230579E+03</pdfrwt>
<totfact> 0.22394100E+03</totfact>
</mgrwt>
</event>
<event>
 5    0  0.5719562E-003  0.5642601E+03  0.7546771E-02  0.9982461E-01
          2   -1    0    0  502    0  0.00000000000E+00  0.00000000000E+00  0.39888908031E+03  0.39888908031E+03  0.00000000000E+00 0.  1.
         -2   -1    0    0    0  501 -0.00000000000E+00 -0.00000000000E+00 -0.19954763388E+03  0.19954763388E+03  0.00000000000E+00 0. -1.
         25    1    1    2    0    0  0.12700148992E+03 -0.22753201078E+03  0.73421245168E+02  0.29818764832E+03  0.12500000000E+03 0.  0.
          2    1    1    2  502    0 -0.80021906707E+02  0.18904391939E+03  0.67805994323E+02  0.21619149354E+03  0.00000000000E+00 0. -1.
         -2    1    1    2    0  501 -0.46979583211E+02  0.38488091390E+02  0.58114206945E+02  0.84057572332E+02  0.00000000000E+00 0.  1.
<mgrwt>
<rscale>  4 0.56426012E+03</rscale>
<asrwt>0</asrwt>
<pdfrwt beam="1">  1        2 0.61367551E-01 0.56426012E+03</pdfrwt>
<pdfrwt beam="2">  1       -2 0.30699636E-01 0.56426012E+03</pdfrwt>
<totfact> 0.78691023E+02</totfact>
</mgrwt>
</event>
<event>
 5    0  0.5719562E-003  0.6055809E+03  0.7546771E-02  0.9893895E-01
         -2   -1    0    0    0  501 -0.00000000000E+00  0.00000000000E+00  0.14127153542E+04  0.14127153542E+04  0.00000000000E+00 0.  1.
          2   -1    0    0  502    0  0.00000000000E+00 -0.00000000000E+00 -0.64897755484E+02  0.64897755484E+02  0.00000000000E+00 0. -1.
         25    1    1    2    0    0 -0.11601046567E+03  0.19409455563E+03  0.85696307813E+03  0.89506527245E+03  0.12500000000E+03 0.  0.
          3    1    1    2  502    0  0.16174553988E+03 -0.17183275180E+03  0.47307208304E+03  0.52866370220E+03  0.00000000000E+00 0. -1.
         -3    1    1    2    0  501 -0.45735074217E+02 -0.22261803822E+02  0.17782437532E+02  0.53884135027E+02  0.00000000000E+00 0.  1.
<mgrwt>
<rscale>  4 0.60558090E+03</rscale>
<asrwt>0</asrwt>
<pdfrwt beam="1">  1        2 0.99842711E-02 0.60558090E+03</pdfrwt>
<pdfrwt beam="2">  1       -2 0.21734080E+00 0.60558090E+03</pdfrwt>
<totfact> 0.70462888E+01</totfact>
</mgrwt>
</event>
<event>
 5    0  0.5719562E-003  0.6088358E+03  0.7546771E-02  0.9887242E-01
          1   -1    0    0  502    0  0.00000000000E+00  0.00000000000E+00  0.16068641644E+03  0.16068641644E+03  0.00000000000E+00 0.  1.
         -1   -1    0    0    0  501 -0.00000000000E+00 -0.00000000000E+00 -0.57671496549E+03  0.57671496549E+03  0.00000000000E+00 0. -1.
         25    1    1    2    0    0 -0.17053540641E+03  0.16214141419E+03 -0.41539470742E+03  0.49350777703E+03  0.12500000000E+03 0.  0.
          4    1    1    2  502    0  0.48418265712E+02 -0.39506010932E+02 -0.28352149373E+02  0.68621408674E+02  0.00000000000E+00 0. -1.
         -4    1    1    2    0  501  0.12211714070E+03 -0.12263540326E+03  0.27718307739E+02  0.17527219623E+03  0.00000000000E+00 0.  1.
<mgrwt>
<rscale>  4 0.60883581E+03</rscale>
<asrwt>0</asrwt>
<pdfrwt beam="1">  1        1 0.24720987E-01 0.60883581E+03</pdfrwt>
<pdfrwt beam="2">  1       -1 0.88725379E-01 0.60883581E+03</pdfrwt>
<totfact> 0.25110655E+02</totfact>
</mgrwt>
</event>
<event>
 5    0  0.5719562E-003  0.5367515E+03  0.7546771E-02  0.1004608E+00
         -2   -1    0    0    0  501 -0.00000000000E+00  0.00000000000E+00  0.97347835133E+02  0.97347835133E+02  0.00000000000E+00 0. -1.
          2   -1    0    0  502    0  0.00000000000E+00 -0.00000000000E+00 -0.73987811908E+03  0.73987811908E+03  0.00000000000E+00 0.  1.
         25    1    1    2    0    0  0.49891463293E+02  0.20507080659E+03 -0.38540239491E+03  0.45684045336E+03  0.12500000000E+03 0.  0.
          2    1    1    2  502    0 -0.58900565250E+02 -0.12941780679E+03 -0.36252613745E+02  0.14673955603E+03  0.00000000000E+00 0. -1.
         -2    1    1    2    0  501  0.90091019563E+01 -0.75652999799E+02 -0.22087527529E+03  0.23364594482E+03  0.00000000000E+00 0.  1.
<mgrwt>
<rscale>  4 0.53675146E+03</rscale>
<asrwt>0</asrwt>
<pdfrwt beam="1">  1        2 0.11382740E+00 0.53675146E+03</pdfrwt>
<pdfrwt beam="2">  1       -2 0.14976590E-01 0.53675146E+03</pdfrwt>
<totfact> 0.13449203E+03</totfact>
</mgrwt>
</event>
<event>
 5    0  0.5719562E-003  0.7285517E+03  0.7546771E-02  0.9669613E-01
         -3   -1    0    0    0  501 -0.00000000000E+00  0.00000000000E+00  0.57077411852E+03  0.57077411852E+03  0.00000000000E+00 0.  1.
          3   -1    0    0  502    0  0.00000000000E+00 -0.00000000000E+00 -0.23248582053E+03  0.23248582053E+03  0.00000000000E+00 0. -1.
         25    1    1    2    0    0  0.34230998883E+03 -0.47774432069E+01  0.23894053456E+03  0.43579413886E+03  0.12500000000E+03 0.  0.
          2    1    1    2  502    0 -0.15893263401E+03  0.98077321448E+01  0.82552278711E+00  0.15923710388E+03  0.00000000000E+00 0. -1.
         -2    1    1    2    0  501 -0.18337735482E+03 -0.50302889380E+01  0.98522240648E+02  0.20822869631E+03  0.00000000000E+00 0.  1.
<mgrwt>
<rscale>  4 0.72855168E+03</rscale>
<asrwt>0</asrwt>
<pdfrwt beam="1">  1        3 0.35767050E-01 0.72855168E+03</pdfrwt>
<pdfrwt beam="2">  1       -3 0.87811402E-01 0.72855168E+03</pdfrwt>
<totfact> 0.24041833E+01</totfact>
</mgrwt>
</event>
<event>
 5    0  0.5719562E-003  0.5582739E+03  0.7546771E-02  0.9995968E-01
         -2   -1    0    0    0  501 -0.00000000000E+00  0.00000000000E+00  0.34229120812E+03  0.34229120812E+03  0.00000000000E+00 0. -1.
          2   -1    0    0  502    0  0.00000000000E+00 -0.00000000000E+00 -0.22763495004E+03  0.22763495004E+03  0.00000000000E+00 0.  1.
         25    1    1    2    0    0 -0.29904061557E+02  0.19814649268E+03  0.23069512792E+03  0.33015379372E+03  0.12500000000E+03 0.  0.
          1    1    1    2  502    0 -0.15232811313E+02 -0.27860745838E+02 -0.30138561556E+02  0.43778905785E+02  0.00000000000E+00 0. -1.
         -1    1    1    2    0  501  0.45136872870E+02 -0.17028574684E+03 -0.85900308287E+02  0.19599345865E+03  0.00000000000E+00 0.  1.
<mgrwt>
<rscale>  4 0.55827392E+03</rscale>
<asrwt>0</asrwt>
<pdfrwt beam="1">  1        2 0.35020761E-01 0.55827392E+03</pdfrwt>
<pdfrwt beam="2">  1       -2 0.52660186E-01 0.55827392E+03</pdfrwt>
<totfact> 0.51272727E+02</totfact>
</mgrwt>
</event>
<event>
 5    0  0.5719562E-003  0.5448451E+03  0.7546771E-02  0.1002694E+00
          1   -1    0    0  502    0  0.00000000000E+00  0.00000000000E+00  0.93312393292E+02  0.93312393292E+02  0.00000000000E+00 0. -1.
         -1   -1    0    0    0  501 -0.00000000000E+00 -0.00000000000E+00 -0.79532888377E+03  0.79532888377E+03  0.00000000000E+00 0.  1.
         25    1    1    2    0    0  0.11235379023E+02  0.25194596127E+03 -0.34888512585E+03  0.44827316692E+03  0.12500000000E+03 0.  0.
          1    1    1    2  502    0 -0.12549215085E+01 -0.21951867462E+03 -0.25466647065E+03  0.33622170454E+03  0.00000000000E+00 0. -1.
         -1    1    1    2    0  501 -0.99804575147E+01 -0.32427286659E+02 -0.98464893977E+02  0.10414640559E+03  0.00000000000E+00 0.  1.
<mgrwt>
<rscale>  4 0.54484508E+03</rscale>
<asrwt>0</asrwt>
<pdfrwt beam="1">  1        1 0.14355752E-01 0.54484508E+03</pdfrwt>
<pdfrwt beam="2">  1       -1 0.12235829E+00 0.54484508E+03</pdfrwt>
<totfact> 0.24654105E+02</totfact>
</mgrwt>
</event>
<event>
 5    0  0.5719562E-003  0.7766041E+03  0.7546771E-02  0.9594513E-01
         -2   -1    0    0    0  501 -0.00000000000E+00  0.00000000000E+00  0.24458287627E+03  0.24458287627E+03  0.00000000000E+00 0. -1.
          2   -1    0    0  502    0  0.00000000000E+00 -0.00000000000E+00 -0.61647197723E+03  0.61647197723E+03  0.00000000000E+00 0.  1.
         25    1    1    2    0    0  0.20470667390E+03  0.93627991364E+02 -0.48570820549E+03  0.54973492156E+03  0.12500000000E+03 0.  0.
          4    1    1    2  502    0 -0.13527318545E+03 -0.56688707007E+02 -0.27842532948E+02  0.14929049148E+03  0.00000000000E+00 0.  1.
         -4    1    1    2    0  501 -0.69433488447E+02 -0.36939284357E+02  0.14166163747E+03  0.16202944046E+03  0.00000000000E+00 0. -1.
<mgrwt>
<rscale>  4 0.77660412E+03</rscale>
<asrwt>0</asrwt>
<pdfrwt beam="1">  1        2 0.94841842E-01 0.77660412E+03</pdfrwt>
<pdfrwt beam="2">  1       -2 0.37628135E-01 0.77660412E+03</pdfrwt>
<totfact> 0.32172693E+02</totfact>
</mgrwt>
</event>
<event>
 5    0  0.5719562E-003  0.5828925E+03  0.7546771E-02  0.9941548E-01
         -2   -1    0    0    0  501 -0.00000000000E+00  0.00000000000E+00  0.40436207090E+02  0.40436207090E+02  0.00000000000E+00 0.  1.
          2   -1    0    0  502    0  0.00000000000E+00 -0.00000000000E+00 -0.21006149906E+04  0.21006149906E+04  0.00000000000E+00 0. -1.
         25    1    1    2    0    0 -0.15865662204E+03  0.13508725996E+03 -0.48840395484E+03  0.54551252472E+03  0.12500000000E+03 0.  0.
          1    1    1    2  502    0  0.78341132708E+02 -0.52426427702E+02 -0.12534866121E+04  0.12570260738E+04  0.00000000000E+00 0. -1.
         -1    1    1    2    0  501  0.80315489330E+02 -0.82660832262E+02 -0.31828821653E+03  0.33851259918E+03  0.00000000000E+00 0.  1.
<mgrwt>
<rscale>  4 0.58289245E+03</rscale>
<asrwt>0</asrwt>
<pdfrwt beam="1">  1        2 0.32317156E+00 0.58289245E+03</pdfrwt>
<pdfrwt beam="2">  1       -2 0.62209544E-02 0.58289245E+03</pdfrwt>
<totfact> 0.89342730E+02</totfact>
</mgrwt>
</event>
<event>
 5    0  0.5719562E-003  0.6457213E+03  0.7546771E-02  0.9814841E-01
          1   -1    0    0  502    0  0.00000000000E+00  0.00000000000E+00  0.17223827411E+04  0.17223827411E+04  0.00000000000E+00 0. -1.
         -1   -1    0    0    0  501 -0.00000000000E+00 -0.00000000000E+00 -0.60520233839E+02  0.60520233839E+02  0.00000000000E+00 0.  1.
         25    1    1    2    0    0  0.13737278874E+03  0.14917972052E+03  0.94132277815E+03  0.97099919916E+03  0.12500000000E+03 0.  0.
          3    1    1    2  502    0 -0.19239409094E+03 -0.43091400437E+02  0.63508939964E+03  0.66498939883E+03  0.00000000000E+00 0. -1.
         -3    1    1    2    0  501  0.55021302197E+02 -0.10608832008E+03  0.85450329503E+02  0.14691437698E+03  0.00000000000E+00 0.  1.
<mgrwt>
<rscale>  4 0.64572132E+03</rscale>
<asrwt>0</asrwt>
<pdfrwt beam="1">  1        1 0.26498192E+00 0.64572132E+03</pdfrwt>
<pdfrwt beam="2">  1       -1 0.93108065E-02 0.64572132E+03</pdfrwt>
<totfact> 0.33486471E+02</totfact>
</mgrwt>
</event>
<event>
 5    0  0.5719562E-003  0.1242293E+04  0.7546771E-02  0.9076622E-01
          2   -1    0    0  502    0  0.00000000000E+00  0.00000000000E+00  0.24116505355E+04  0.24116505355E+04  0.00000000000E+00 0.  1.
         -2   -1    0    0    0  501 -0.00000000000E+00 -0.00000000000E+00 -0.15998297370E+03  0.15998297370E+03  0.00000000000E+00 0. -1.
         25    1    1    2    0    0 -0.44910258132E+03  0.83985227329E+02  0.14533814685E+04  0.15286233479E+04  0.12500000000E+03 0.  0.
          2    1    1    2  502    0  0.28810401611E+03  0.11947288306E+03  0.69860713339E+03  0.76506837650E+03  0.00000000000E+00 0.  1.
         -2    1    1    2    0  501  0.16099856520E+03 -0.20345811039E+03  0.99678959967E+02  0.27794178481E+03  0.00000000000E+00 0. -1.
<mgrwt>
<rscale>  4 0.12422931E+04</rscale>
<asrwt>0</asrwt>
<pdfrwt beam="1">  1        2 0.37102313E+00 0.12422931E+04</pdfrwt>
<pdfrwt beam="2">  1       -2 0.24612767E-01 0.12422931E+04</pdfrwt>
<totfact> 0.57113312E+01</totfact>
</mgrwt>
</event>
<event>
 5    0  0.5719562E-003  0.5779852E+03  0.7546771E-02  0.9952163E-01
         -2   -1    0    0    0  501 -0.00000000000E+00  0.00000000000E+00  0.13526300359E+03  0.13526300359E+03  0.00000000000E+00 0.  1.
          2   -1    0    0  502    0  0.00000000000E+00 -0.00000000000E+00 -0.61743950223E+03  0.61743950223E+03  0.00000000000E+00 0. -1.
         25    1    1    2    0    0  0.89992274840E+02 -0.24643556462E+03 -0.30891017066E+03  0.42412214111E+03  0.12500000000E+03 0.  0.
          2    1    1    2  502    0 -0.40124868932E+02  0.15772063370E+02 -0.23982130526E+02  0.49334629565E+02  0.00000000000E+00 0. -1.
         -2    1    1    2    0  501 -0.49867405908E+02  0.23066350125E+03 -0.14928419746E+03  0.27924573514E+03  0.00000000000E+00 0.  1.
<mgrwt>
<rscale>  4 0.57798520E+03</rscale>
<asrwt>0</asrwt>
<pdfrwt beam="1">  1        2 0.94990691E-01 0.57798520E+03</pdfrwt>
<pdfrwt beam="2">  1       -2 0.20809693E-01 0.57798520E+03</pdfrwt>
<totfact> 0.95685744E+02</totfact>
</mgrwt>
</event>
<event>
 5    0  0.5719562E-003  0.6319894E+03  0.7546771E-02  0.9841174E-01
         -2   -1    0    0    0  501 -0.00000000000E+00  0.00000000000E+00  0.78493643745E+02  0.78493643745E+02  0.00000000000E+00 0.  1.
          2   -1    0    0  502    0  0.00000000000E+00 -0.00000000000E+00 -0.12721112615E+04  0.12721112615E+04  0.00000000000E+00 0. -1.
         25    1    1    2    0    0  0.20473876067E+03 -0.28486661724E+02 -0.15275016099E+03  0.28580948497E+03  0.12500000000E+03 0.  0.
          1    1    1    2  502    0 -0.26857942805E+02 -0.24935818456E+02 -0.23212349819E+03  0.23499885648E+03  0.00000000000E+00 0.  1.
         -1    1    1    2    0  501 -0.17788081787E+03  0.53422480180E+02 -0.80874395858E+03  0.82979656380E+03  0.00000000000E+00 0. -1.
<mgrwt>
<rscale>  4 0.63198939E+03</rscale>
<asrwt>0</asrwt>
<pdfrwt beam="1">  1        2 0.19570941E+00 0.63198939E+03</pdfrwt>
<pdfrwt beam="2">  1       -2 0.12075946E-01 0.63198939E+03</pdfrwt>
<totfact> 0.87545321E+02</totfact>
</mgrwt>
</event>
<event>
 5    0  0.5719562E-003  0.7159009E+03  0.7546771E-02  0.9690419E-01
         -2   -1    0    0    0  501 -0.00000000000E+00  0.00000000000E+00  0.23715735645E+03  0.23715735645E+03  0.00000000000E+00 0. -1.
          2   -1    0    0  502    0  0.00000000000E+00 -0.00000000000E+00 -0.54026804973E+03  0.54026804973E+03  0.00000000000E+00 0.  1.
         25    1    1    2    0    0  0.15238705784E+03 -0.25529707626E+03 -0.10877865273E+03  0.34037656769E+03  0.12500000000E+03 0.  0.
          4    1    1    2  502    0 -0.94273993310E+02  0.10215801922E+02 -0.15559092472E+03  0.18221000049E+03  0.00000000000E+00 0.  1.
         -4    1    1    2    0  501 -0.58113064530E+02  0.24508127434E+03 -0.38741115823E+02  0.25483883800E+03  0.00000000000E+00 0. -1.
<mgrwt>
<rscale>  4 0.71590095E+03</rscale>
<asrwt>0</asrwt>
<pdfrwt beam="1">  1        2 0.83118161E-01 0.71590095E+03</pdfrwt>
<pdfrwt beam="2">  1       -2 0.36485747E-01 0.71590095E+03</pdfrwt>
<totfact> 0.40052008E+02</totfact>
</mgrwt>
</event>
<event>
 5    0  0.5719562E-003  0.7361975E+03  0.7546771E-02  0.9657257E-01
          2   -1    0    0  502    0  0.00000000000E+00  0.00000000000E+00  0.29895418030E+03  0.29895418030E+03  0.00000000000E+00 0. -1.
         -2   -1    0    0    0  501 -0.00000000000E+00 -0.00000000000E+00 -0.45323558177E+03  0.45323558177E+03  0.00000000000E+00 0.  1.
         25    1    1    2    0    0 -0.69387568904E+02 -0.20877866487E+03 -0.33456540171E+03  0.41947845432E+03  0.12500000000E+03 0.  0.
          2    1    1    2  502    0  0.55538994231E+02  0.15882407964E+02  0.11483250369E+03  0.12854312377E+03  0.00000000000E+00 0.  1.
         -2    1    1    2    0  501  0.13848574673E+02  0.19289625691E+03  0.65451496536E+02  0.20416818398E+03  0.00000000000E+00 0. -1.
<mgrwt>
<rscale>  4 0.73619745E+03</rscale>
<asrwt>0</asrwt>
<pdfrwt beam="1">  1        2 0.45992951E-01 0.73619745E+03</pdfrwt>
<pdfrwt beam="2">  1       -2 0.69728551E-01 0.73619745E+03</pdfrwt>
<totfact> 0.20855931E+02</totfact>
</mgrwt>
</event>
<event>
 5    0  0.5719562E-003  0.5145660E+03  0.7546771E-02  0.1010045E+00
         -2   -1    0    0    0  501 -0.00000000000E+00  0.00000000000E+00  0.65002015145E+02  0.65002015145E+02  0.00000000000E+00 0. -1.
          2   -1    0    0  502    0  0.00000000000E+00 -0.00000000000E+00 -0.10183460452E+04  0.10183460452E+04  0.00000000000E+00 0.  1.
         25    1    1    2    0    0  0.17437725774E+03 -0.13959716591E+03 -0.37858192442E+03  0.45699460636E+03  0.12500000000E+03 0.  0.
          1    1    1    2  502    0 -0.17107734993E+02 -0.19007479346E+02 -0.59491019253E+02  0.64754461155E+02  0.00000000000E+00 0.  1.
         -1    1    1    2    0  501 -0.15726952275E+03  0.15860464526E+03 -0.51527108638E+03  0.56159899283E+03  0.00000000000E+00 0. -1.
<mgrwt>
<rscale>  4 0.51456601E+03</rscale>
<asrwt>0</asrwt>
<pdfrwt beam="1">  1        2 0.15666862E+00 0.51456601E+03</pdfrwt>
<pdfrwt beam="2">  1       -2 0.10000310E-01 0.51456601E+03</pdfrwt>
<totfact> 0.16947557E+03</totfact>
</mgrwt>
</event>
<event>
 5    0  0.5719562E-003  0.5603018E+03  0.7546771E-02  0.9991372E-01
          1   -1    0    0  502    0  0.00000000000E+00  0.00000000000E+00  0.23158757236E+04  0.23158757236E+04  0.00000000000E+00 0. -1.
         -1   -1    0    0    0  501 -0.00000000000E+00 -0.00000000000E+00 -0.33889784889E+02  0.33889784889E+02  0.00000000000E+00 0.  1.
         25    1    1    2    0    0  0.53636860415E+02 -0.22963530454E+03  0.15207034287E+04  0.15439472802E+04  0.12500000000E+03 0.  0.
          1    1    1    2  502    0  0.32329200687E+01  0.19355986978E+03  0.50496769707E+03  0.54080333768E+03  0.00000000000E+00 0.  1.
         -1    1    1    2    0  501 -0.56869780484E+02  0.36075434760E+02  0.25631481291E+03  0.26501489060E+03  0.00000000000E+00 0. -1.
<mgrwt>
<rscale>  4 0.56030181E+03</rscale>
<asrwt>0</asrwt>
<pdfrwt beam="1">  1        1 0.35628845E+00 0.56030181E+03</pdfrwt>
<pdfrwt beam="2">  1       -1 0.52138149E-02 0.56030181E+03</pdfrwt>
<totfact> 0.33345402E+02</totfact>
</mgrwt>
</event>
<event>
 5    0  0.5719562E-003  0.4421901E+03  0.7546771E-02  0.1030077E+00
          1   -1    0    0  502    0  0.00000000000E+00  0.00000000000E+00  0.21822667220E+03  0.21822667220E+03  0.00000000000E+00 0.  1.
         -1   -1    0    0    0  501 -0.00000000000E+00 -0.00000000000E+00 -0.22400110518E+03  0.22400110518E+03  0.00000000000E+00 0. -1.
         25    1    1    2    0    0 -0.18914687832E+03  0.67097383071E+02  0.12472339604E+02  0.23676815590E+03  0.12500000000E+03 0.  0.
          1    1    1    2  502    0  0.40738849506E+02 -0.40725961425E+01  0.90475096466E+01  0.41929671227E+02  0.00000000000E+00 0.  1.
         -1    1    1    2    0  501  0.14840802882E+03 -0.63024786929E+02 -0.27294282234E+02  0.16352995025E+03  0.00000000000E+00 0. -1.
<mgrwt>
<rscale>  4 0.44219008E+03</rscale>
<asrwt>0</asrwt>
<pdfrwt beam="1">  1        1 0.33573334E-01 0.44219008E+03</pdfrwt>
<pdfrwt beam="2">  1       -1 0.34461708E-01 0.44219008E+03</pdfrwt>
<totfact> 0.10594105E+03</totfact>
</mgrwt>
</event>
<event>
 5    0  0.5719562E-003  0.4887794E+03  0.7546771E-02  0.1016750E+00
         -2   -1    0    0    0  501 -0.00000000000E+00  0.00000000000E+00  0.33386856570E+02  0.33386856570E+02  0.00000000000E+00 0. -1.
          2   -1    0    0  502    0  0.00000000000E+00 -0.00000000000E+00 -0.17889171035E+04  0.17889171035E+04  0.00000000000E+00 0.  1.
         25    1    1    2    0    0  0.16464486929E+03  0.14973681333E+03 -0.10809942571E+04  0.11107216709E+04  0.12500000000E+03 0.  0.
          1    1    1    2  502    0 -0.12790871832E+03 -0.98096109810E+02 -0.52449635646E+03  0.54870749486E+03  0.00000000000E+00 0. -1.
         -1    1    1    2    0  501 -0.36736150974E+02 -0.51640703520E+02 -0.15003963335E+03  0.16287479432E+03  0.00000000000E+00 0.  1.
<mgrwt>
<rscale>  4 0.48877937E+03</rscale>
<asrwt>0</asrwt>
<pdfrwt beam="1">  1        2 0.27521817E+00 0.48877937E+03</pdfrwt>
<pdfrwt beam="2">  1       -2 0.51364367E-02 0.48877937E+03</pdfrwt>
<totfact> 0.17830277E+03</totfact>
</mgrwt>
</event>
<event>
 5    0  0.5719562E-003  0.9141653E+03  0.7546771E-02  0.9408045E-01
          2   -1    0    0  502    0  0.00000000000E+00  0.00000000000E+00  0.15719613435E+04  0.15719613435E+04  0.00000000000E+00 0.  1.
         -2   -1    0    0    0  501 -0.00000000000E+00 -0.00000000000E+00 -0.13290693887E+03  0.13290693887E+03  0.00000000000E+00 0. -1.
         25    1    1    2    0    0 -0.11943602443E+03  0.30318951025E+03  0.26895985993E+03  0.44062824388E+03  0.12500000000E+03 0.  0.
          4    1    1    2  502    0  0.34763260635E+02 -0.21479377103E+03  0.23153275887E+03  0.31772986450E+03  0.00000000000E+00 0. -1.
         -4    1    1    2    0  501  0.84672763792E+02 -0.88395739217E+02  0.93856178583E+03  0.94651017398E+03  0.00000000000E+00 0.  1.
<mgrwt>
<rscale>  4 0.91416535E+03</rscale>
<asrwt>0</asrwt>
<pdfrwt beam="1">  1        2 0.24184019E+00 0.91416535E+03</pdfrwt>
<pdfrwt beam="2">  1       -2 0.20447222E-01 0.91416535E+03</pdfrwt>
<totfact> 0.23831658E+02</totfact>
</mgrwt>
</event>
<event>
 5    0  0.5719562E-003  0.4831190E+03  0.7546771E-02  0.1018281E+00
         -3   -1    0    0    0  501 -0.00000000000E+00  0.00000000000E+00  0.32464065398E+03  0.32464065398E+03  0.00000000000E+00 0. -1.
          3   -1    0    0  502    0  0.00000000000E+00 -0.00000000000E+00 -0.17974026503E+03  0.17974026503E+03  0.00000000000E+00 0.  1.
         25    1    1    2    0    0  0.93860837550E+02  0.19400208870E+03  0.17342219686E+02  0.24974470931E+03  0.12500000000E+03 0.  0.
          1    1    1    2  502    0 -0.43373502082E+02 -0.84013401196E+02  0.82550871214E+02  0.12551557115E+03  0.00000000000E+00 0. -1.
         -1    1    1    2    0  501 -0.50487335468E+02 -0.10998868750E+03  0.45007298054E+02  0.12912063855E+03  0.00000000000E+00 0.  1.
<mgrwt>
<rscale>  4 0.48311902E+03</rscale>
<asrwt>0</asrwt>
<pdfrwt beam="1">  1        3 0.27652348E-01 0.48311902E+03</pdfrwt>
<pdfrwt beam="2">  1       -3 0.49944716E-01 0.48311902E+03</pdfrwt>
<totfact> 0.13069753E+02</totfact>
</mgrwt>
</event>
<event>
 5    0  0.5719562E-003  0.6023931E+03  0.7546771E-02  0.9900454E-01
         -1   -1    0    0    0  501 -0.00000000000E+00  0.00000000000E+00  0.15073019977E+03  0.15073019977E+03  0.00000000000E+00 0.  1.
          1   -1    0    0  502    0  0.00000000000E+00 -0.00000000000E+00 -0.60186587482E+03  0.60186587482E+03  0.00000000000E+00 0. -1.
         25    1    1    2    0    0  0.17521561887E+03 -0.16974352938E+03 -0.85916673054E+02  0.28726303899E+03  0.12500000000E+03 0.  0.
          3    1    1    2  502    0 -0.17669759746E+03  0.90525413639E+02 -0.31226090116E+03  0.37003210922E+03  0.00000000000E+00 0. -1.
         -3    1    1    2    0  501  0.14819785900E+01  0.79218115745E+02 -0.52958100840E+02  0.95300926372E+02  0.00000000000E+00 0.  1.
<mgrwt>
<rscale>  4 0.60239311E+03</rscale>
<asrwt>0</asrwt>
<pdfrwt beam="1">  1        1 0.92594748E-01 0.60239311E+03</pdfrwt>
<pdfrwt beam="2">  1       -1 0.23189262E-01 0.60239311E+03</pdfrwt>
<totfact> 0.54841392E+02</totfact>
</mgrwt>
</event>
<event>
 5    0  0.5719562E-003  0.4621982E+03  0.7546771E-02  0.1024146E+00
          1   -1    0    0  502    0  0.00000000000E+00  0.00000000000E+00  0.33389942344E+03  0.33389942344E+03  0.00000000000E+00 0. -1.
         -1   -1    0    0    0  501 -0.00000000000E+00 -0.00000000000E+00 -0.15994877687E+03  0.15994877687E+03  0.00000000000E+00 0.  1.
         25    1    1    2    0    0  0.14001000271E+03  0.15572073808E+03  0.10477415271E+03  0.26543242493E+03  0.12500000000E+03 0.  0.
          2    1    1    2  502    0 -0.11410357536E+03 -0.10624236385E+03  0.73568411701E+02  0.17239308857E+03  0.00000000000E+00 0. -1.
         -2    1    1    2    0  501 -0.25906427341E+02 -0.49478374234E+02 -0.43919178367E+01  0.56022686804E+02  0.00000000000E+00 0.  1.
<mgrwt>
<rscale>  4 0.46219824E+03</rscale>
<asrwt>0</asrwt>
<pdfrwt beam="1">  1        1 0.51369142E-01 0.46219824E+03</pdfrwt>
<pdfrwt beam="2">  1       -1 0.24607504E-01 0.46219824E+03</pdfrwt>
<totfact> 0.10971785E+03</totfact>
</mgrwt>
</event>
<event>
 5    0  0.5719562E-003  0.9750083E+03  0.7546771E-02  0.9336388E-01
         -2   -1    0    0    0  501 -0.00000000000E+00  0.00000000000E+00  0.22094703969E+03  0.22094703969E+03  0.00000000000E+00 0. -1.
          2   -1    0    0  502    0  0.00000000000E+00 -0.00000000000E+00 -0.10756437367E+04  0.10756437367E+04  0.00000000000E+00 0.  1.
         25    1    1    2    0    0 -0.42882883537E+03 -0.19840148188E+03 -0.37119895918E+03  0.61373527303E+03  0.12500000000E+03 0.  0.
          1    1    1    2  502    0  0.25503220853E+02  0.98931224711E+01 -0.70368128778E+02  0.75498090663E+02  0.00000000000E+00 0.  1.
         -1    1    1    2    0  501  0.40332561452E+03  0.18850835941E+03 -0.41312960908E+03  0.60735741273E+03  0.00000000000E+00 0. -1.
<mgrwt>
<rscale>  4 0.97500831E+03</rscale>
<asrwt>0</asrwt>
<pdfrwt beam="1">  1        2 0.16548365E+00 0.97500831E+03</pdfrwt>
<pdfrwt beam="2">  1       -2 0.33991852E-01 0.97500831E+03</pdfrwt>
<totfact> 0.18241717E+02</totfact>
</mgrwt>
</event>
<event>
 5    0  0.5719562E-003  0.8454005E+03  0.7546771E-02  0.9496531E-01
          2   -1    0    0  502    0  0.00000000000E+00  0.00000000000E+00  0.13869503321E+04  0.13869503321E+04  0.00000000000E+00 0.  1.
         -2   -1    0    0    0  501 -0.00000000000E+00 -0.00000000000E+00 -0.12882617385E+03  0.12882617385E+03  0.00000000000E+00 0. -1.
         25    1    1    2    0    0 -0.13389577726E+03  0.32508791388E+03  0.25881921894E+03  0.45411740663E+03  0.12500000000E+03 0.  0.
          1    1    1    2  502    0  0.11974186556E+03 -0.24437761637E+03  0.83179942648E+03  0.87518502023E+03  0.00000000000E+00 0.  1.
         -1    1    1    2    0  501  0.14153911697E+02 -0.80710297507E+02  0.16750551281E+03  0.18647407907E+03  0.00000000000E+00 0. -1.
<mgrwt>
<rscale>  4 0.84540051E+03</rscale>
<asrwt>0</asrwt>
<pdfrwt beam="1">  1        2 0.21337696E+00 0.84540051E+03</pdfrwt>
<pdfrwt beam="2">  1       -2 0.19819412E-01 0.84540051E+03</pdfrwt>
<totfact> 0.32107759E+02</totfact>
</mgrwt>
</event>
<event>
 5    0  0.5719562E-003  0.4539087E+03  0.7546771E-02  0.1026563E+00
          2   -1    0    0  502    0  0.00000000000E+00  0.00000000000E+00  0.62882408328E+03  0.62882408328E+03  0.00000000000E+00 0.  1.
         -2   -1    0    0    0  501 -0.00000000000E+00 -0.00000000000E+00 -0.81912064067E+02  0.81912064067E+02  0.00000000000E+00 0. -1.
         25    1    1    2    0    0 -0.19243116293E+03  0.64206972963E+02  0.34916807457E+03  0.42272406147E+03  0.12500000000E+03 0.  0.
          4    1    1    2  502    0  0.80690857883E+02 -0.18380340411E+02  0.11472020536E+03  0.14145521191E+03  0.00000000000E+00 0. -1.
         -4    1    1    2    0  501  0.11174030505E+03 -0.45826632552E+02  0.83023739289E+02  0.14655687397E+03  0.00000000000E+00 0.  1.
<mgrwt>
<rscale>  4 0.45390871E+03</rscale>
<asrwt>0</asrwt>
<pdfrwt beam="1">  1        2 0.96742163E-01 0.45390871E+03</pdfrwt>
<pdfrwt beam="2">  1       -2 0.12601856E-01 0.45390871E+03</pdfrwt>
<totfact> 0.21902553E+03</totfact>
</mgrwt>
</event>
<event>
 5    0  0.5719562E-003  0.8062499E+03  0.7546771E-02  0.9551014E-01
         -2   -1    0    0    0  501 -0.00000000000E+00  0.00000000000E+00  0.45837155109E+03  0.45837155109E+03  0.00000000000E+00 0.  1.
          2   -1    0    0  502    0  0.00000000000E+00 -0.00000000000E+00 -0.35453708983E+03  0.35453708983E+03  0.00000000000E+00 0. -1.
         25    1    1    2    0    0  0.24805643814E+03 -0.75956403908E+02 -0.11029246117E+03  0.30836796005E+03  0.12500000000E+03 0.  0.
          1    1    1    2  502    0 -0.27328190562E+03 -0.50644062826E+02  0.24645268555E+03  0.37146567439E+03  0.00000000000E+00 0.  1.
         -1    1    1    2    0  501  0.25225467479E+02  0.12660046673E+03 -0.32325763122E+02  0.13307500647E+03  0.00000000000E+00 0. -1.
<mgrwt>
<rscale>  4 0.80624988E+03</rscale>
<asrwt>0</asrwt>
<pdfrwt beam="1">  1        2 0.54544168E-01 0.80624988E+03</pdfrwt>
<pdfrwt beam="2">  1       -2 0.70518700E-01 0.80624988E+03</pdfrwt>
<totfact> 0.16786286E+02</totfact>
</mgrwt>
</event>
<event>
 5    0  0.5719562E-003  0.6188177E+03  0.7546771E-02  0.9867116E-01
         -2   -1    0    0    0  501 -0.00000000000E+00  0.00000000000E+00  0.70703519422E+02  0.70703519422E+02  0.00000000000E+00 0. -1.
          2   -1    0    0  502    0  0.00000000000E+00 -0.00000000000E+00 -0.13540181459E+04  0.13540181459E+04  0.00000000000E+00 0.  1.
         25    1    1    2    0    0  0.24687821005E+03 -0.85076168085E+02 -0.48825454604E+03  0.56763043144E+03  0.12500000000E+03 0.  0.
          4    1    1    2  502    0  0.16697525970E+02  0.36807847011E+02 -0.44413401042E+02  0.60051437678E+02  0.00000000000E+00 0.  1.
         -4    1    1    2    0  501 -0.26357573602E+03  0.48268321074E+02 -0.75064667940E+03  0.79703979621E+03  0.00000000000E+00 0. -1.
<mgrwt>
<rscale>  4 0.61881774E+03</rscale>
<asrwt>0</asrwt>
<pdfrwt beam="1">  1        2 0.20831049E+00 0.61881774E+03</pdfrwt>
<pdfrwt beam="2">  1       -2 0.10877464E-01 0.61881774E+03</pdfrwt>
<totfact> 0.93366325E+02</totfact>
</mgrwt>
</event>
<event>
 5    0  0.5719562E-003  0.4595148E+03  0.7546771E-02  0.1024922E+00
         -2   -1    0    0    0  501 -0.00000000000E+00  0.00000000000E+00  0.31568726717E+02  0.31568726717E+02  0.00000000000E+00 0.  1.
          2   -1    0    0  502    0  0.00000000000E+00 -0.00000000000E+00 -0.16721759410E+04  0.16721759410E+04  0.00000000000E+00 0. -1.
         25    1    1    2    0    0  0.53176304253E+02  0.20012821634E+03 -0.80262251442E+03  0.83827616152E+03  0.12500000000E+03 0.  0.
          2    1    1    2  502    0 -0.66222175142E+02 -0.15869185511E+03 -0.63368323911E+03  0.65659951941E+03  0.00000000000E+00 0.  1.
         -2    1    1    2    0  501  0.13045870889E+02 -0.41436361232E+02 -0.20430146080E+03  0.20886898684E+03  0.00000000000E+00 0. -1.
<mgrwt>
<rscale>  4 0.45951481E+03</rscale>
<asrwt>0</asrwt>
<pdfrwt beam="1">  1        2 0.25725784E+00 0.45951481E+03</pdfrwt>
<pdfrwt beam="2">  1       -2 0.48567271E-02 0.45951481E+03</pdfrwt>
<totfact> 0.22489194E+03</totfact>
</mgrwt>
</event>
<event>
 5    0  0.5719562E-003  0.8064304E+03  0.7546771E-02  0.9550756E-01
          1   -1    0    0  502    0  0.00000000000E+00  0.00000000000E+00  0.49456905752E+03  0.49456905752E+03  0.00000000000E+00 0. -1.
         -1   -1    0    0    0  501 -0.00000000000E+00 -0.00000000000E+00 -0.32873571230E+03  0.32873571230E+03  0.00000000000E+00 0.  1.
         25    1    1    2    0    0 -0.31385421892E+03  0.15983706348E+03  0.25770725425E+03  0.45397179041E+03  0.12500000000E+03 0.  0.
          4    1    1    2  502    0  0.28644093119E+03 -0.16347961877E+03 -0.80940568058E+02  0.33959588981E+03  0.00000000000E+00 0.  1.
         -4    1    1    2    0  501  0.27413287732E+02  0.36425552877E+01 -0.10933340962E+02  0.29737089600E+02  0.00000000000E+00 0. -1.
<mgrwt>
<rscale>  4 0.80643043E+03</rscale>
<asrwt>0</asrwt>
<pdfrwt beam="1">  1        1 0.76087547E-01 0.80643043E+03</pdfrwt>
<pdfrwt beam="2">  1       -1 0.50574725E-01 0.80643043E+03</pdfrwt>
<totfact> 0.17871930E+02</totfact>
</mgrwt>
</event>
<event>
 5    0  0.5719562E-003  0.5457184E+03  0.7546771E-02  0.1002490E+00
          1   -1    0    0  502    0  0.00000000000E+00  0.00000000000E+00  0.15159322405E+04  0.15159322405E+04  0.00000000000E+00 0. -1.
         -1   -1    0    0    0  501 -0.00000000000E+00 -0.00000000000E+00 -0.49113111041E+02  0.49113111041E+02  0.00000000000E+00 0.  1.
         25    1    1    2    0    0  0.14467953911E+03  0.17127581847E+03  0.41735318290E+03  0.48997576910E+03  0.12500000000E+03 0.  0.
          1    1    1    2  502    0  0.45277316372E+01 -0.20126196855E+02  0.80675971376E+02  0.83271702943E+02  0.00000000000E+00 0.  1.
         -1    1    1    2    0  501 -0.14920727075E+03 -0.15114962161E+03  0.96878997516E+03  0.99179787947E+03  0.00000000000E+00 0. -1.
<mgrwt>
<rscale>  4 0.54571842E+03</rscale>
<asrwt>0</asrwt>
<pdfrwt beam="1">  1        1 0.23322031E+00 0.54571842E+03</pdfrwt>
<pdfrwt beam="2">  1       -1 0.75558644E-02 0.54571842E+03</pdfrwt>
<totfact> 0.64341532E+02</totfact>
</mgrwt>
</event>
<event>
 5    0  0.5719562E-003  0.5169461E+03  0.7546771E-02  0.1009448E+00
          2   -1    0    0  502    0  0.00000000000E+00  0.00000000000E+00  0.14540547194E+04  0.14540547194E+04  0.00000000000E+00 0.  1.
         -2   -1    0    0    0  501 -0.00000000000E+00 -0.00000000000E+00 -0.45946218997E+02  0.45946218997E+02  0.00000000000E+00 0. -1.
         25    1    1    2    0    0 -0.91002570302E+02 -0.18411119066E+03  0.38111390798E+03  0.45061203844E+03  0.12500000000E+03 0.  0.
          2    1    1    2  502    0  0.29543246884E+02  0.97327245751E+02  0.64073877132E+03  0.64876156581E+03  0.00000000000E+00 0.  1.
         -2    1    1    2    0  501  0.61459323418E+02  0.86783944911E+02  0.38625582106E+03  0.40062733411E+03  0.00000000000E+00 0. -1.
<mgrwt>
<rscale>  4 0.51694610E+03</rscale>
<asrwt>0</asrwt>
<pdfrwt beam="1">  1        2 0.22370069E+00 0.51694610E+03</pdfrwt>
<pdfrwt beam="2">  1       -2 0.70686502E-02 0.51694610E+03</pdfrwt>
<totfact> 0.16449142E+03</totfact>
</mgrwt>
</event>
<event>
 5    0  0.5719562E-003  0.6428872E+03  0.7546771E-02  0.9820218E-01
         -2   -1    0    0    0  501 -0.00000000000E+00  0.00000000000E+00  0.63543628726E+03  0.63543628726E+03  0.00000000000E+00 0. -1.
          2   -1    0    0  502    0  0.00000000000E+00 -0.00000000000E+00 -0.16260636338E+03  0.16260636338E+03  0.00000000000E+00 0.  1.
         25    1    1    2    0    0 -0.16841714202E+03  0.11120371204E+03  0.26001143321E+03  0.35208173014E+03  0.12500000000E+03 0.  0.
          3    1    1    2  502    0 -0.13471627881E+02 -0.11265107268E+03  0.23671923329E+03  0.26250284635E+03  0.00000000000E+00 0. -1.
         -3    1    1    2    0  501  0.18188876990E+03  0.14473606353E+01 -0.23900742621E+02  0.18345807414E+03  0.00000000000E+00 0.  1.
<mgrwt>
<rscale>  4 0.64288719E+03</rscale>
<asrwt>0</asrwt>
<pdfrwt beam="1">  1        2 0.25016364E-01 0.64288719E+03</pdfrwt>
<pdfrwt beam="2">  1       -2 0.97759427E-01 0.64288719E+03</pdfrwt>
<totfact> 0.19301700E+02</totfact>
</mgrwt>
</event>
<event>
 5    0  0.5719562E-003  0.5053114E+03  0.7546771E-02  0.1012402E+00
         -2   -1    0    0    0  501 -0.00000000000E+00  0.00000000000E+00  0.33557935075E+03  0.33557935075E+03  0.00000000000E+00 0. -1.
          2   -1    0    0  502    0  0.00000000000E+00 -0.00000000000E+00 -0.19022295401E+03  0.19022295401E+03  0.00000000000E+00 0.  1.
         25    1    1    2    0    0 -0.20570503730E+03 -0.47757594982E+02  0.18469617280E+03  0.30713682048E+03  0.12500000000E+03 0.  0.
          2    1    1    2  502    0  0.18309404233E+03  0.49723561471E+02 -0.45585804752E+02  0.19512541223E+03  0.00000000000E+00 0.  1.
         -2    1    1    2    0  501  0.22610994969E+02 -0.19659664897E+01  0.62460286919E+01  0.23540072051E+02  0.00000000000E+00 0. -1.
<mgrwt>
<rscale>  4 0.50531137E+03</rscale>
<asrwt>0</asrwt>
<pdfrwt beam="1">  1        2 0.29265070E-01 0.50531137E+03</pdfrwt>
<pdfrwt beam="2">  1       -2 0.51627592E-01 0.50531137E+03</pdfrwt>
<totfact> 0.65270133E+02</totfact>
</mgrwt>
</event>
<event>
 5    0  0.5719562E-003  0.8538397E+03  0.7546771E-02  0.9485198E-01
          4   -1    0    0  502    0  0.00000000000E+00  0.00000000000E+00  0.14588753108E+03  0.14588753108E+03  0.00000000000E+00 0.  1.
         -4   -1    0    0    0  501 -0.00000000000E+00 -0.00000000000E+00 -0.12493222687E+04  0.12493222687E+04  0.00000000000E+00 0. -1.
         25    1    1    2    0    0 -0.20179351022E+03 -0.22785194070E+03 -0.49110120512E+03  0.59113663507E+03  0.12500000000E+03 0.  0.
          1    1    1    2  502    0 -0.72972103708E+02  0.75866969172E+02  0.11281076061E+02  0.10586778362E+03  0.00000000000E+00 0.  1.
         -1    1    1    2    0  501  0.27476561393E+03  0.15198497153E+03 -0.62361460854E+03  0.69820538107E+03  0.00000000000E+00 0. -1.
<mgrwt>
<rscale>  4 0.85383966E+03</rscale>
<asrwt>0</asrwt>
<pdfrwt beam="1">  1        4 0.22444236E-01 0.85383966E+03</pdfrwt>
<pdfrwt beam="2">  1       -4 0.19220342E+00 0.85383966E+03</pdfrwt>
<totfact> 0.55451127E+00</totfact>
</mgrwt>
</event>
<event>
 5    0  0.5719562E-003  0.5346012E+03  0.7546771E-02  0.1005122E+00
         -2   -1    0    0    0  501 -0.00000000000E+00  0.00000000000E+00  0.29414895601E+02  0.29414895601E+02  0.00000000000E+00 0.  1.
          2   -1    0    0  502    0  0.00000000000E+00 -0.00000000000E+00 -0.24290282613E+04  0.24290282613E+04  0.00000000000E+00 0. -1.
         25    1    1    2    0    0  0.12183980127E+03 -0.17860468381E+03 -0.94114950860E+03  0.97372068264E+03  0.12500000000E+03 0.  0.
          1    1    1    2  502    0  0.18201539650E+02  0.69139182891E+02 -0.17549808885E+03  0.18950224760E+03  0.00000000000E+00 0.  1.
         -1    1    1    2    0  501 -0.14004134092E+03  0.10946550092E+03 -0.12829657682E+04  0.12952202266E+04  0.00000000000E+00 0. -1.
<mgrwt>
<rscale>  4 0.53460121E+03</rscale>
<asrwt>0</asrwt>
<pdfrwt beam="1">  1        2 0.37369668E+00 0.53460121E+03</pdfrwt>
<pdfrwt beam="2">  1       -2 0.45253682E-02 0.53460121E+03</pdfrwt>
<totfact> 0.97078646E+02</totfact>
</mgrwt>
</event>
<event>
 5    0  0.5719562E-003  0.5020772E+03  0.7546771E-02  0.1013238E+00
          1   -1    0    0  502    0  0.00000000000E+00  0.00000000000E+00  0.37242401197E+03  0.37242401197E+03  0.00000000000E+00 0. -1.
         -1   -1    0    0    0  501 -0.00000000000E+00 -0.00000000000E+00 -0.16921676683E+03  0.16921676683E+03  0.00000000000E+00 0.  1.
         25    1    1    2    0    0 -0.19280100479E+03  0.78089940896E+02  0.21462702994E+03  0.32397535137E+03  0.12500000000E+03 0.  0.
          1    1    1    2  502    0  0.76130944572E+02 -0.58457440512E+02 -0.23261876896E+02  0.98763900234E+02  0.00000000000E+00 0.  1.
         -1    1    1    2    0  501  0.11667006022E+03 -0.19632500384E+02  0.11842092096E+02  0.11890152719E+03  0.00000000000E+00 0. -1.
<mgrwt>
<rscale>  4 0.50207723E+03</rscale>
<asrwt>0</asrwt>
<pdfrwt beam="1">  1        1 0.57296001E-01 0.50207723E+03</pdfrwt>
<pdfrwt beam="2">  1       -1 0.26033349E-01 0.50207723E+03</pdfrwt>
<totfact> 0.86578374E+02</totfact>
</mgrwt>
</event>
<event>
 5    0  0.5719562E-003  0.5522405E+03  0.7546771E-02  0.1000977E+00
         -1   -1    0    0    0  501 -0.00000000000E+00  0.00000000000E+00  0.29074787554E+02  0.29074787554E+02  0.00000000000E+00 0. -1.
          1   -1    0    0  502    0  0.00000000000E+00 -0.00000000000E+00 -0.26222858588E+04  0.26222858588E+04  0.00000000000E+00 0.  1.
         25    1    1    2    0    0 -0.37060792307E+02 -0.22650668641E+03 -0.83143300616E+03  0.87154152227E+03  0.12500000000E+03 0.  0.
          4    1    1    2  502    0  0.35875031118E+02  0.86973012135E+02 -0.40021682474E+03  0.41112629385E+03  0.00000000000E+00 0. -1.
         -4    1    1    2    0  501  0.11857611893E+01  0.13953367427E+03 -0.13615612403E+04  0.13686928302E+04  0.00000000000E+00 0.  1.
<mgrwt>
<rscale>  4 0.55224054E+03</rscale>
<asrwt>0</asrwt>
<pdfrwt beam="1">  1        1 0.40342855E+00 0.55224054E+03</pdfrwt>
<pdfrwt beam="2">  1       -1 0.44730447E-02 0.55224054E+03</pdfrwt>
<totfact> 0.26158398E+02</totfact>
</mgrwt>
</event>
<event>
 5    0  0.5719562E-003  0.6405727E+03  0.7546771E-02  0.9824631E-01
          2   -1    0    0  502    0  0.00000000000E+00  0.00000000000E+00  0.72191966028E+03  0.72191966028E+03  0.00000000000E+00 0. -1.
         -2   -1    0    0    0  501 -0.00000000000E+00 -0.00000000000E+00 -0.14209802184E+03  0.14209802184E+03  0.00000000000E+00 0.  1.
         25    1    1    2    0    0  0.47076794069E+01 -0.25028256889E+03  0.41334207709E+03  0.49913945870E+03  0.12500000000E+03 0.  0.
          4    1    1    2  502    0 -0.71753185386E+02  0.41526470021E+02  0.11130063918E+03  0.13878328288E+03  0.00000000000E+00 0. -1.
         -4    1    1    2    0  501  0.67045505979E+02  0.20875609887E+03  0.55178922167E+02  0.22609494054E+03  0.00000000000E+00 0.  1.
<mgrwt>
<rscale>  4 0.64057273E+03</rscale>
<asrwt>0</asrwt>
<pdfrwt beam="1">  1        2 0.11106456E+00 0.64057273E+03</pdfrwt>
<pdfrwt beam="2">  1       -2 0.21861235E-01 0.64057273E+03</pdfrwt>
<totfact> 0.72235090E+02</totfact>
</mgrwt>
</event>
<event>
 5    0  0.5719562E-003  0.5643390E+03  0.7546771E-02  0.9982285E-01
          1   -1    0    0  502    0  0.00000000000E+00  0.00000000000E+00  0.14732317837E+04  0.14732317837E+04  0.00000000000E+00 0. -1.
         -1   -1    0    0    0  501 -0.00000000000E+00 -0.00000000000E+00 -0.54044187562E+02  0.54044187562E+02  0.00000000000E+00 0.  1.
         25    1    1    2    0    0  0.24080936735E+03 -0.91693522420E+02  0.86446404093E+03  0.91067004536E+03  0.12500000000E+03 0.  0.
          4    1    1    2  502    0 -0.32710825076E+02  0.20857614246E+01  0.14249034623E+03  0.14621165222E+03  0.00000000000E+00 0. -1.
         -4    1    1    2    0  501 -0.20809854227E+03  0.89607760996E+02  0.41223320902E+03  0.47039427372E+03  0.00000000000E+00 0.  1.
<mgrwt>
<rscale>  4 0.56433896E+03</rscale>
<asrwt>0</asrwt>
<pdfrwt beam="1">  1        1 0.22665101E+00 0.56433896E+03</pdfrwt>
<pdfrwt beam="2">  1       -1 0.83144915E-02 0.56433896E+03</pdfrwt>
<totfact> 0.59202872E+02</totfact>
</mgrwt>
</event>
<event>
 5    0  0.5719562E-003  0.4703915E+03  0.7546771E-02  0.1021810E+00
          2   -1    0    0  502    0  0.00000000000E+00  0.00000000000E+00  0.52965192559E+03  0.52965192559E+03  0.00000000000E+00 0.  1.
         -2   -1    0    0    0  501 -0.00000000000E+00 -0.00000000000E+00 -0.10444037764E+03  0.10444037764E+03  0.00000000000E+00 0. -1.
         25    1    1    2    0    0  0.37801435633E+02  0.19930700601E+03  0.29241730535E+03  0.37720698781E+03  0.12500000000E+03 0.  0.
          4    1    1    2  502    0 -0.20339431955E+02 -0.68040169330E+02  0.24238914506E+01  0.71056543572E+02  0.00000000000E+00 0. -1.
         -4    1    1    2    0  501 -0.17462003678E+02 -0.13126683668E+03  0.13037035115E+03  0.18582877184E+03  0.00000000000E+00 0.  1.
<mgrwt>
<rscale>  4 0.47039153E+03</rscale>
<asrwt>0</asrwt>
<pdfrwt beam="1">  1        2 0.81484910E-01 0.47039153E+03</pdfrwt>
<pdfrwt beam="2">  1       -2 0.16067751E-01 0.47039153E+03</pdfrwt>
<totfact> 0.17886900E+03</totfact>
</mgrwt>
</event>
<event>
 5    0  0.5719562E-003  0.6015693E+03  0.7546771E-02  0.9902156E-01
         -2   -1    0    0    0  501 -0.00000000000E+00  0.00000000000E+00  0.21950892089E+03  0.21950892089E+03  0.00000000000E+00 0. -1.
          2   -1    0    0  502    0  0.00000000000E+00 -0.00000000000E+00 -0.41215361059E+03  0.41215361059E+03  0.00000000000E+00 0.  1.
         25    1    1    2    0    0 -0.21850208924E+03  0.98996199779E+02 -0.10515073425E+03  0.29021558794E+03  0.12500000000E+03 0.  0.
          4    1    1    2  502    0  0.21312834226E+03 -0.16143919999E+03 -0.71509798503E+02  0.27676697211E+03  0.00000000000E+00 0. -1.
         -4    1    1    2    0  501  0.53737469766E+01  0.62443000211E+02 -0.15984156948E+02  0.64679971438E+02  0.00000000000E+00 0.  1.
<mgrwt>
<rscale>  4 0.60156926E+03</rscale>
<asrwt>0</asrwt>
<pdfrwt beam="1">  1        2 0.63408248E-01 0.60156926E+03</pdfrwt>
<pdfrwt beam="2">  1       -2 0.33770603E-01 0.60156926E+03</pdfrwt>
<totfact> 0.63448678E+02</totfact>
</mgrwt>
</event>
<event>
 5    0  0.5719562E-003  0.4985538E+03  0.7546771E-02  0.1014157E+00
          2   -1    0    0  502    0  0.00000000000E+00  0.00000000000E+00  0.99187588829E+03  0.99187588829E+03  0.00000000000E+00 0.  1.
         -2   -1    0    0    0  501 -0.00000000000E+00 -0.00000000000E+00 -0.62647923334E+02  0.62647923334E+02  0.00000000000E+00 0. -1.
         25    1    1    2    0    0  0.20367635476E+03 -0.37311525441E+02  0.39933827173E+03  0.46687499686E+03  0.12500000000E+03 0.  0.
          1    1    1    2  502    0 -0.17568971466E+03  0.42200601075E+02  0.26203999831E+03  0.31829660269E+03  0.00000000000E+00 0. -1.
         -1    1    1    2    0  501 -0.27986640102E+02 -0.48890756332E+01  0.26784969491E+03  0.26935221208E+03  0.00000000000E+00 0.  1.
<mgrwt>
<rscale>  4 0.49855377E+03</rscale>
<asrwt>0</asrwt>
<pdfrwt beam="1">  1        2 0.15259628E+00 0.49855377E+03</pdfrwt>
<pdfrwt beam="2">  1       -2 0.96381427E-02 0.49855377E+03</pdfrwt>
<totfact> 0.18691876E+03</totfact>
</mgrwt>
</event>
<event>
 5    0  0.5719562E-003  0.7705522E+03  0.7546771E-02  0.9603648E-01
         -2   -1    0    0    0  501 -0.00000000000E+00  0.00000000000E+00  0.15141876931E+03  0.15141876931E+03  0.00000000000E+00 0. -1.
          2   -1    0    0  502    0  0.00000000000E+00 -0.00000000000E+00 -0.98031231329E+03  0.98031231329E+03  0.00000000000E+00 0.  1.
         25    1    1    2    0    0  0.24314871748E+03  0.76520103269E+02 -0.35714801905E+02  0.28614187406E+03  0.12500000000E+03 0.  0.
          4    1    1    2  502    0 -0.19044159690E+03 -0.36607274161E+02 -0.37460050799E+03  0.42182180472E+03  0.00000000000E+00 0. -1.
         -4    1    1    2    0  501 -0.52707120576E+02 -0.39912829109E+02 -0.41857823409E+03  0.42376740382E+03  0.00000000000E+00 0.  1.
<mgrwt>
<rscale>  4 0.77055223E+03</rscale>
<asrwt>0</asrwt>
<pdfrwt beam="1">  1        2 0.15081728E+00 0.77055223E+03</pdfrwt>
<pdfrwt beam="2">  1       -2 0.23295195E-01 0.77055223E+03</pdfrwt>
<totfact> 0.42454616E+02</totfact>
</mgrwt>
</event>
<event>
 5    0  0.5719562E-003  0.6135550E+03  0.7546771E-02  0.9877676E-01
          1   -1    0    0  502    0  0.00000000000E+00  0.00000000000E+00  0.88764572908E+03  0.88764572908E+03  0.00000000000E+00 0.  1.
         -1   -1    0    0    0  501 -0.00000000000E+00 -0.00000000000E+00 -0.10602476114E+03  0.10602476114E+03  0.00000000000E+00 0. -1.
         25    1    1    2    0    0  0.14803574237E+03 -0.18809351852E+03  0.55766197873E+03  0.61960119049E+03  0.12500000000E+03 0.  0.
          1    1    1    2  502    0 -0.14072426375E+03  0.53554848909E+02  0.17464478978E+03  0.23059107278E+03  0.00000000000E+00 0.  1.
         -1    1    1    2    0  501 -0.73114786232E+01  0.13453866961E+03  0.49314199421E+02  0.14347822694E+03  0.00000000000E+00 0. -1.
<mgrwt>
<rscale>  4 0.61355497E+03</rscale>
<asrwt>0</asrwt>
<pdfrwt beam="1">  1        1 0.13656088E+00 0.61355497E+03</pdfrwt>
<pdfrwt beam="2">  1       -1 0.16311502E-01 0.61355497E+03</pdfrwt>
<totfact> 0.54089203E+02</totfact>
</mgrwt>
</event>
<event>
 5    0  0.5719562E-003  0.9043538E+03  0.7546771E-02  0.9420155E-01
         -1   -1    0    0    0  501 -0.00000000000E+00  0.00000000000E+00  0.96371173323E+03  0.96371173323E+03  0.00000000000E+00 0. -1.
          1   -1    0    0  502    0  0.00000000000E+00 -0.00000000000E+00 -0.21216297871E+03  0.21216297871E+03  0.00000000000E+00 0.  1.
         25    1    1    2    0    0 -0.25538624232E+03  0.66779212476E+02 -0.39657664661E+02  0.29475299210E+03  0.12500000000E+03 0.  0.
          1    1    1    2  502    0 -0.39418254837E+02 -0.19545932285E+02  0.10444218718E+02  0.45220835772E+02  0.00000000000E+00 0.  1.
         -1    1    1    2    0  501  0.29480449716E+03 -0.47233280192E+02  0.78076220046E+03  0.83590088406E+03  0.00000000000E+00 0. -1.
<mgrwt>
<rscale>  4 0.90435381E+03</rscale>
<asrwt>0</asrwt>
<pdfrwt beam="1">  1        1 0.32640459E-01 0.90435381E+03</pdfrwt>
<pdfrwt beam="2">  1       -1 0.14826334E+00 0.90435381E+03</pdfrwt>
<totfact> 0.50014230E+01</totfact>
</mgrwt>
</event>
<event>
 5    0  0.5719562E-003  0.5308864E+03  0.7546771E-02  0.1006017E+00
          1   -1    0    0  502    0  0.00000000000E+00  0.00000000000E+00  0.12840925465E+04  0.12840925465E+04  0.00000000000E+00 0.  1.
         -1   -1    0    0    0  501 -0.00000000000E+00 -0.00000000000E+00 -0.54871500121E+02  0.54871500121E+02  0.00000000000E+00 0. -1.
         25    1    1    2    0    0 -0.18073108101E+03 -0.13740553371E+03  0.41896304824E+03  0.49264494327E+03  0.12500000000E+03 0.  0.
          3    1    1    2  502    0  0.94102592436E+01  0.42828325493E+02  0.92587589787E+02  0.10244647493E+03  0.00000000000E+00 0. -1.
         -3    1    1    2    0  501  0.17132082177E+03  0.94577208213E+02  0.71767040833E+03  0.74387262839E+03  0.00000000000E+00 0.  1.
<mgrwt>
<rscale>  4 0.53088637E+03</rscale>
<asrwt>0</asrwt>
<pdfrwt beam="1">  1        1 0.19755268E+00 0.53088637E+03</pdfrwt>
<pdfrwt beam="2">  1       -1 0.84417702E-02 0.53088637E+03</pdfrwt>
<totfact> 0.78254001E+02</totfact>
</mgrwt>
</event>
<event>
 5    0  0.5719562E-003  0.6374904E+03  0.7546771E-02  0.9830540E-01
         -1   -1    0    0    0  501 -0.00000000000E+00  0.00000000000E+00  0.14574952336E+03  0.14574952336E+03  0.00000000000E+00 0. -1.
          1   -1    0    0  502    0  0.00000000000E+00 -0.00000000000E+00 -0.69707602615E+03  0.69707602615E+03  0.00000000000E+00 0.  1.
         25    1    1    2    0    0 -0.91098423010E+02  0.18419437911E+03 -0.52707300635E+03  0.57935951359E+03  0.12500000000E+03 0.  0.
          1    1    1    2  502    0  0.50528300673E+02 -0.94687457377E+02 -0.94232856174E+02  0.14282385983E+03  0.00000000000E+00 0.  1.
         -1    1    1    2    0  501  0.40570122337E+02 -0.89506921730E+02  0.69979359734E+02  0.12064217609E+03  0.00000000000E+00 0. -1.
<mgrwt>
<rscale>  4 0.63749039E+03</rscale>
<asrwt>0</asrwt>
<pdfrwt beam="1">  1        1 0.10724246E+00 0.63749039E+03</pdfrwt>
<pdfrwt beam="2">  1       -1 0.22423004E-01 0.63749039E+03</pdfrwt>
<totfact> 0.46736627E+02</totfact>
</mgrwt>
</event>
<event>
 5    0  0.5719562E-003  0.1139271E+04  0.7546771E-02  0.9167739E-01
          1   -1    0    0  502    0  0.00000000000E+00  0.00000000000E+00  0.35374332621E+03  0.35374332621E+03  0.00000000000E+00 0.  1.
         -1   -1    0    0    0  501 -0.00000000000E+00 -0.00000000000E+00 -0.91728823338E+03  0.91728823338E+03  0.00000000000E+00 0. -1.
         25    1    1    2    0    0  0.40410526289E+03 -0.36302533731E+03 -0.31849315874E+03  0.64199014882E+03  0.12500000000E+03 0.  0.
          3    1    1    2  502    0 -0.86158144559E+02  0.88701734885E+00  0.46422322603E+01  0.86287675794E+02  0.00000000000E+00 0.  1.
         -3    1    1    2    0  501 -0.31794711833E+03  0.36213831996E+03 -0.24969398070E+03  0.54275373498E+03  0.00000000000E+00 0. -1.
<mgrwt>
<rscale>  4 0.11392710E+04</rscale>
<asrwt>0</asrwt>
<pdfrwt beam="1">  1        1 0.54422051E-01 0.11392710E+04</pdfrwt>
<pdfrwt beam="2">  1       -1 0.14112126E+00 0.11392710E+04</pdfrwt>
<totfact> 0.28815776E+01</totfact>
</mgrwt>
</event>
<event>
 5    0  0.5719562E-003  0.6963745E+03  0.7546771E-02  0.9723452E-01
          2   -1    0    0  502    0  0.00000000000E+00  0.00000000000E+00  0.16977237298E+04  0.16977237298E+04  0.00000000000E+00 0.  1.
         -2   -1    0    0    0  501 -0.00000000000E+00 -0.00000000000E+00 -0.71409940553E+02  0.71409940553E+02  0.00000000000E+00 0. -1.
         25    1    1    2    0    0 -0.25346142242E+03 -0.11772468431E+03  0.87034811997E+03  0.92262269856E+03  0.12500000000E+03 0.  0.
          3    1    1    2  502    0  0.36095800753E+02  0.10140245714E+03  0.74163600854E+02  0.13071191544E+03  0.00000000000E+00 0. -1.
         -3    1    1    2    0  501  0.21736562167E+03  0.16322227175E+02  0.68180206838E+03  0.71579905632E+03  0.00000000000E+00 0.  1.
<mgrwt>
<rscale>  4 0.69637447E+03</rscale>
<asrwt>0</asrwt>
<pdfrwt beam="1">  1        2 0.26118823E+00 0.69637447E+03</pdfrwt>
<pdfrwt beam="2">  1       -2 0.10986146E-01 0.69637447E+03</pdfrwt>
<totfact> 0.59024728E+02</totfact>
</mgrwt>
</event>
<event>
 5    0  0.5719562E-003  0.6142205E+03  0.7546771E-02  0.9876335E-01
         -2   -1    0    0    0  501 -0.00000000000E+00  0.00000000000E+00  0.61219972163E+02  0.61219972163E+02  0.00000000000E+00 0.  1.
          2   -1    0    0  502    0  0.00000000000E+00 -0.00000000000E+00 -0.15406197749E+04  0.15406197749E+04  0.00000000000E+00 0. -1.
         25    1    1    2    0    0 -0.11345295214E+03 -0.21340521517E+03 -0.33520597941E+03  0.43174229217E+03  0.12500000000E+03 0.  0.
          3    1    1    2  502    0  0.16793037915E+02  0.39678345277E+02 -0.28251642257E+03  0.28578297050E+03  0.00000000000E+00 0.  1.
         -3    1    1    2    0  501  0.96659914222E+02  0.17372686990E+03 -0.86167740077E+03  0.88431448441E+03  0.00000000000E+00 0. -1.
<mgrwt>
<rscale>  4 0.61422048E+03</rscale>
<asrwt>0</asrwt>
<pdfrwt beam="1">  1        2 0.23701841E+00 0.61422048E+03</pdfrwt>
<pdfrwt beam="2">  1       -2 0.94184581E-02 0.61422048E+03</pdfrwt>
<totfact> 0.92861236E+02</totfact>
</mgrwt>
</event>
<event>
 5    0  0.5719562E-003  0.5099219E+03  0.7546771E-02  0.1011221E+00
          3   -1    0    0  502    0  0.00000000000E+00  0.00000000000E+00  0.52384810394E+03  0.52384810394E+03  0.00000000000E+00 0. -1.
         -3   -1    0    0    0  501 -0.00000000000E+00 -0.00000000000E+00 -0.12409149403E+03  0.12409149403E+03  0.00000000000E+00 0.  1.
         25    1    1    2    0    0 -0.31679483124E+02 -0.21406162646E+03  0.21359244520E+03  0.32874412880E+03  0.12500000000E+03 0.  0.
          2    1    1    2  502    0  0.73122164149E+02  0.88732890761E+02  0.38788979103E+02  0.12134645315E+03  0.00000000000E+00 0.  1.
         -2    1    1    2    0  501 -0.41442681025E+02  0.12532873570E+03  0.14737518562E+03  0.19784901602E+03  0.00000000000E+00 0. -1.
<mgrwt>
<rscale>  4 0.50992193E+03</rscale>
<asrwt>0</asrwt>
<pdfrwt beam="1">  1        3 0.80592015E-01 0.50992193E+03</pdfrwt>
<pdfrwt beam="2">  1       -3 0.19090999E-01 0.50992193E+03</pdfrwt>
<totfact> 0.93320059E+01</totfact>
</mgrwt>
</event>
<event>
 5    0  0.5719562E-003  0.7395809E+03  0.7546771E-02  0.9651839E-01
          2   -1    0    0  502    0  0.00000000000E+00  0.00000000000E+00  0.19864748003E+04  0.19864748003E+04  0.00000000000E+00 0. -1.
         -2   -1    0    0    0  501 -0.00000000000E+00 -0.00000000000E+00 -0.68838017260E+02  0.68838017260E+02  0.00000000000E+00 0.  1.
         25    1    1    2    0    0 -0.21526272505E+03 -0.78295788089E+02  0.21873522966E+03  0.34049724217E+03  0.12500000000E+03 0.  0.
          1    1    1    2  502    0  0.25261394769E+02  0.19536748528E+01  0.29108180859E+03  0.29218243308E+03  0.00000000000E+00 0.  1.
         -1    1    1    2    0  501  0.19000133029E+03  0.76342113237E+02  0.14078197448E+04  0.14226331423E+04  0.00000000000E+00 0. -1.
<mgrwt>
<rscale>  4 0.73958093E+03</rscale>
<asrwt>0</asrwt>
<pdfrwt beam="1">  1        2 0.30561146E+00 0.73958093E+03</pdfrwt>
<pdfrwt beam="2">  1       -2 0.10590466E-01 0.73958093E+03</pdfrwt>
<totfact> 0.43510662E+02</totfact>
</mgrwt>
</event>
<event>
 5    0  0.5719562E-003  0.4752542E+03  0.7546771E-02  0.1020448E+00
          1   -1    0    0  502    0  0.00000000000E+00  0.00000000000E+00  0.82470861776E+03  0.82470861776E+03  0.00000000000E+00 0. -1.
         -1   -1    0    0    0  501 -0.00000000000E+00 -0.00000000000E+00 -0.68468601780E+02  0.68468601780E+02  0.00000000000E+00 0.  1.
         25    1    1    2    0    0 -0.20464451952E+03 -0.91767128841E+00  0.49367323760E+03  0.54883375171E+03  0.12500000000E+03 0.  0.
          2    1    1    2  502    0  0.67137314911E+02  0.23489649974E+02  0.39584797285E+02  0.81401098797E+02  0.00000000000E+00 0.  1.
         -2    1    1    2    0  501  0.13750720461E+03 -0.22571978686E+02  0.22298198109E+03  0.26294236903E+03  0.00000000000E+00 0. -1.
<mgrwt>
<rscale>  4 0.47525423E+03</rscale>
<asrwt>0</asrwt>
<pdfrwt beam="1">  1        1 0.12687824E+00 0.47525423E+03</pdfrwt>
<pdfrwt beam="2">  1       -1 0.10533632E-01 0.47525423E+03</pdfrwt>
<totfact> 0.12334197E+03</totfact>
</mgrwt>
</event>
<event>
 5    0  0.5719562E-003  0.4946293E+03  0.7546771E-02  0.1015190E+00
          4   -1    0    0  502    0  0.00000000000E+00  0.00000000000E+00  0.99362230610E+02  0.99362230610E+02  0.00000000000E+00 0. -1.
         -4   -1    0    0    0  501 -0.00000000000E+00 -0.00000000000E+00 -0.61557127984E+03  0.61557127984E+03  0.00000000000E+00 0.  1.
         25    1    1    2    0    0  0.19898989827E+03 -0.80170642667E+02 -0.20810166717E+03  0.32396854082E+03  0.12500000000E+03 0.  0.
          1    1    1    2  502    0 -0.19469386833E+03  0.52293310999E+02 -0.30031237358E+03  0.36170127794E+03  0.00000000000E+00 0. -1.
         -1    1    1    2    0  501 -0.42960299451E+01  0.27877331668E+02 -0.77950084775E+01  0.29263691691E+02  0.00000000000E+00 0.  1.
<mgrwt>
<rscale>  4 0.49462930E+03</rscale>
<asrwt>0</asrwt>
<pdfrwt beam="1">  1        4 0.15286497E-01 0.49462930E+03</pdfrwt>
<pdfrwt beam="2">  1       -4 0.94703272E-01 0.49462930E+03</pdfrwt>
<totfact> 0.68915691E+01</totfact>
</mgrwt>
</event>
<event>
 5    0  0.5719562E-003  0.6986748E+03  0.7546771E-02  0.9719501E-01
         -2   -1    0    0    0  501 -0.00000000000E+00  0.00000000000E+00  0.23188252895E+03  0.23188252895E+03  0.00000000000E+00 0.  1.
          2   -1    0    0  502    0  0.00000000000E+00 -0.00000000000E+00 -0.52628637516E+03  0.52628637516E+03  0.00000000000E+00 0. -1.
         25    1    1    2    0    0 -0.50366425262E+02  0.27270991004E+03 -0.17845275265E+03  0.35267244967E+03  0.12500000000E+03 0.  0.
          1    1    1    2  502    0 -0.13688228794E+02  0.27975136077E+02 -0.92004752207E+02  0.97133157442E+02  0.00000000000E+00 0. -1.
         -1    1    1    2    0  501  0.64054654057E+02 -0.30068504612E+03 -0.23946341346E+02  0.30836329699E+03  0.00000000000E+00 0.  1.
<mgrwt>
<rscale>  4 0.69867479E+03</rscale>
<asrwt>0</asrwt>
<pdfrwt beam="1">  1        2 0.80967133E-01 0.69867479E+03</pdfrwt>
<pdfrwt beam="2">  1       -2 0.35674236E-01 0.69867479E+03</pdfrwt>
<totfact> 0.43139553E+02</totfact>
</mgrwt>
</event>
<event>
 5    0  0.5719562E-003  0.9976670E+03  0.7546771E-02  0.9311107E-01
          2   -1    0    0  502    0  0.00000000000E+00  0.00000000000E+00  0.22839976422E+03  0.22839976422E+03  0.00000000000E+00 0.  1.
         -2   -1    0    0    0  501 -0.00000000000E+00 -0.00000000000E+00 -0.10894707866E+04  0.10894707866E+04  0.00000000000E+00 0. -1.
         25    1    1    2    0    0  0.13553293924E+03 -0.26242622321E+03 -0.76313262461E+03  0.82778807856E+03  0.12500000000E+03 0.  0.
          3    1    1    2  502    0  0.26797604063E+02  0.21111208319E+03 -0.19962222485E+03  0.29177980723E+03  0.00000000000E+00 0. -1.
         -3    1    1    2    0  501 -0.16233054331E+03  0.51314140027E+02  0.10168382711E+03  0.19830266502E+03  0.00000000000E+00 0.  1.
<mgrwt>
<rscale>  4 0.99766702E+03</rscale>
<asrwt>0</asrwt>
<pdfrwt beam="1">  1        2 0.35138425E-01 0.99766702E+03</pdfrwt>
<pdfrwt beam="2">  1       -2 0.16761089E+00 0.99766702E+03</pdfrwt>
<totfact> 0.32950105E+01</totfact>
</mgrwt>
</event>
<event>
 5    0  0.5719562E-003  0.8746302E+03  0.7546771E-02  0.9457863E-01
          1   -1    0    0  502    0  0.00000000000E+00  0.00000000000E+00  0.94773269307E+03  0.94773269307E+03  0.00000000000E+00 0. -1.
         -1   -1    0    0    0  501 -0.00000000000E+00 -0.00000000000E+00 -0.20179160080E+03  0.20179160080E+03  0.00000000000E+00 0.  1.
         25    1    1    2    0    0  0.39241105761E+03 -0.50576173530E+02  0.55725171545E+03  0.69476532861E+03  0.12500000000E+03 0.  0.
          3    1    1    2  502    0 -0.16624299994E+03  0.27745094904E+02  0.16027829257E+02  0.16930273663E+03  0.00000000000E+00 0.  1.
         -3    1    1    2    0  501 -0.22616805767E+03  0.22831078626E+02  0.17266154757E+03  0.28545622864E+03  0.00000000000E+00 0. -1.
<mgrwt>
<rscale>  4 0.87463020E+03</rscale>
<asrwt>0</asrwt>
<pdfrwt beam="1">  1        1 0.14580503E+00 0.87463020E+03</pdfrwt>
<pdfrwt beam="2">  1       -1 0.31044862E-01 0.87463020E+03</pdfrwt>
<totfact> 0.16105176E+02</totfact>
</mgrwt>
</event>
<event>
 5    0  0.5719562E-003  0.7670647E+03  0.7546771E-02  0.9608952E-01
          1   -1    0    0  502    0  0.00000000000E+00  0.00000000000E+00  0.21419463935E+03  0.21419463935E+03  0.00000000000E+00 0. -1.
         -1   -1    0    0    0  501 -0.00000000000E+00 -0.00000000000E+00 -0.68674486338E+03  0.68674486338E+03  0.00000000000E+00 0.  1.
         25    1    1    2    0    0 -0.17220642112E+03 -0.16100902726E+03 -0.76688798893E+02  0.27764209013E+03  0.12500000000E+03 0.  0.
          2    1    1    2  502    0 -0.37838056285E+02 -0.11955603928E+03 -0.64684812343E+02  0.14110099213E+03  0.00000000000E+00 0.  1.
         -2    1    1    2    0  501  0.21004447741E+03  0.28056506654E+03 -0.33117661280E+03  0.48219642047E+03  0.00000000000E+00 0. -1.
<mgrwt>
<rscale>  4 0.76706471E+03</rscale>
<asrwt>0</asrwt>
<pdfrwt beam="1">  1        1 0.32953022E-01 0.76706471E+03</pdfrwt>
<pdfrwt beam="2">  1       -1 0.10565305E+00 0.76706471E+03</pdfrwt>
<totfact> 0.11574773E+02</totfact>
</mgrwt>
</event>
<event>
 5    0  0.5719562E-003  0.6234303E+03  0.7546771E-02  0.9857954E-01
          2   -1    0    0  502    0  0.00000000000E+00  0.00000000000E+00  0.17254036562E+04  0.17254036562E+04  0.00000000000E+00 0. -1.
         -2   -1    0    0    0  501 -0.00000000000E+00 -0.00000000000E+00 -0.56315135588E+02  0.56315135588E+02  0.00000000000E+00 0.  1.
         25    1    1    2    0    0 -0.19057623837E+03  0.12483388952E+03  0.40831877686E+03  0.48399589476E+03  0.12500000000E+03 0.  0.
          2    1    1    2  502    0  0.15557330381E+03 -0.77764255941E+02  0.12026019253E+04  0.12151138725E+04  0.00000000000E+00 0. -1.
         -2    1    1    2    0  501  0.35002934558E+02 -0.47069633578E+02  0.58167818434E+02  0.82609024533E+02  0.00000000000E+00 0.  1.
<mgrwt>
<rscale>  4 0.62343032E+03</rscale>
<asrwt>0</asrwt>
<pdfrwt beam="1">  1        2 0.26544668E+00 0.62343032E+03</pdfrwt>
<pdfrwt beam="2">  1       -2 0.86638683E-02 0.62343032E+03</pdfrwt>
<totfact> 0.84151567E+02</totfact>
</mgrwt>
</event>
<event>
 5    0  0.5719562E-003  0.5122719E+03  0.7546771E-02  0.1010624E+00
         -2   -1    0    0    0  501 -0.00000000000E+00  0.00000000000E+00  0.32717232991E+02  0.32717232991E+02  0.00000000000E+00 0. -1.
          2   -1    0    0  502    0  0.00000000000E+00 -0.00000000000E+00 -0.20052314769E+04  0.20052314769E+04  0.00000000000E+00 0.  1.
         25    1    1    2    0    0  0.12112304352E+03  0.16828629536E+03 -0.14739910989E+04  0.14937422229E+04  0.12500000000E+03 0.  0.
          3    1    1    2  502    0 -0.56744533819E+02 -0.79093292902E+02 -0.15071032428E+03  0.17941374793E+03  0.00000000000E+00 0.  1.
         -3    1    1    2    0  501 -0.64378509703E+02 -0.89193002462E+02 -0.34781282069E+03  0.36479273901E+03  0.00000000000E+00 0. -1.
<mgrwt>
<rscale>  4 0.51227190E+03</rscale>
<asrwt>0</asrwt>
<pdfrwt beam="1">  1        2 0.30849732E+00 0.51227190E+03</pdfrwt>
<pdfrwt beam="2">  1       -2 0.50334178E-02 0.51227190E+03</pdfrwt>
<totfact> 0.14058638E+03</totfact>
</mgrwt>
</event>
<event>
 5    0  0.5719562E-003  0.6342978E+03  0.7546771E-02  0.9836698E-01
          2   -1    0    0  502    0  0.00000000000E+00  0.00000000000E+00  0.36193489164E+04  0.36193489164E+04  0.00000000000E+00 0. -1.
         -2   -1    0    0    0  501 -0.00000000000E+00 -0.00000000000E+00 -0.27790475499E+02  0.27790475499E+02  0.00000000000E+00 0.  1.
         25    1    1    2    0    0  0.19478509121E+03 -0.53426360978E+02  0.12873929881E+04  0.13091223447E+04  0.12500000000E+03 0.  0.
          3    1    1    2  502    0  0.80142941495E+01 -0.12475910788E+03  0.63969565296E+03  0.65179720184E+03  0.00000000000E+00 0.  1.
         -3    1    1    2    0  501 -0.20279938536E+03  0.17818546886E+03  0.16644697999E+04  0.16862198453E+04  0.00000000000E+00 0. -1.
<mgrwt>
<rscale>  4 0.63429781E+03</rscale>
<asrwt>0</asrwt>
<pdfrwt beam="1">  1        2 0.55682254E+00 0.63429781E+03</pdfrwt>
<pdfrwt beam="2">  1       -2 0.42754606E-02 0.63429781E+03</pdfrwt>
<totfact> 0.19348416E+02</totfact>
</mgrwt>
</event>
<event>
 5    0  0.5719562E-003  0.7297496E+03  0.7546771E-02  0.9667667E-01
         -2   -1    0    0    0  501 -0.00000000000E+00  0.00000000000E+00  0.50370752197E+02  0.50370752197E+02  0.00000000000E+00 0.  1.
          2   -1    0    0  502    0  0.00000000000E+00 -0.00000000000E+00 -0.26430738649E+04  0.26430738649E+04  0.00000000000E+00 0. -1.
         25    1    1    2    0    0  0.98098799677E+01  0.22907694326E+03 -0.14423919333E+04  0.14658417271E+04  0.12500000000E+03 0.  0.
          1    1    1    2  502    0  0.14192987935E+02  0.85916169948E+02 -0.46367794046E+03  0.47178412609E+03  0.00000000000E+00 0. -1.
         -1    1    1    2    0  501 -0.24002867903E+02 -0.31499311321E+03 -0.68663323895E+03  0.75581876390E+03  0.00000000000E+00 0.  1.
<mgrwt>
<rscale>  4 0.72974960E+03</rscale>
<asrwt>0</asrwt>
<pdfrwt beam="1">  1        2 0.40662687E+00 0.72974960E+03</pdfrwt>
<pdfrwt beam="2">  1       -2 0.77493441E-02 0.72974960E+03</pdfrwt>
<totfact> 0.31043981E+02</totfact>
</mgrwt>
</event>
<event>
 5    0  0.5719562E-003  0.5087819E+03  0.7546771E-02  0.1011512E+00
          1   -1    0    0  502    0  0.00000000000E+00  0.00000000000E+00  0.56826566636E+03  0.56826566636E+03  0.00000000000E+00 0. -1.
         -1   -1    0    0    0  501 -0.00000000000E+00 -0.00000000000E+00 -0.11388117909E+03  0.11388117909E+03  0.00000000000E+00 0.  1.
         25    1    1    2    0    0  0.13787460015E+03 -0.18597962227E+03  0.27303597962E+03  0.37917208683E+03  0.12500000000E+03 0.  0.
          4    1    1    2  502    0 -0.69023144212E+02  0.87225829316E+02  0.42177310877E+02  0.11895993145E+03  0.00000000000E+00 0.  1.
         -4    1    1    2    0  501 -0.68851455943E+02  0.98753792954E+02  0.13917119677E+03  0.18401482717E+03  0.00000000000E+00 0. -1.
<mgrwt>
<rscale>  4 0.50878193E+03</rscale>
<asrwt>0</asrwt>
<pdfrwt beam="1">  1        1 0.87425486E-01 0.50878193E+03</pdfrwt>
<pdfrwt beam="2">  1       -1 0.17520182E-01 0.50878193E+03</pdfrwt>
<totfact> 0.94909714E+02</totfact>
</mgrwt>
</event>
<event>
 5    0  0.5719562E-003  0.5597365E+03  0.7546771E-02  0.9992651E-01
          2   -1    0    0  502    0  0.00000000000E+00  0.00000000000E+00  0.81843320768E+03  0.81843320768E+03  0.00000000000E+00 0.  1.
         -2   -1    0    0    0  501 -0.00000000000E+00 -0.00000000000E+00 -0.95702672609E+02  0.95702672609E+02  0.00000000000E+00 0. -1.
         25    1    1    2    0    0 -0.18725216078E+03  0.11511077483E+03  0.14161553800E+03  0.28981687805E+03  0.12500000000E+03 0.  0.
          3    1    1    2  502    0  0.18058832929E+03 -0.90005964875E+02  0.50130349860E+03  0.54038728344E+03  0.00000000000E+00 0.  1.
         -3    1    1    2    0  501  0.66638314961E+01 -0.25104809955E+02  0.79811498469E+02  0.83931718801E+02  0.00000000000E+00 0. -1.
<mgrwt>
<rscale>  4 0.55973653E+03</rscale>
<asrwt>0</asrwt>
<pdfrwt beam="1">  1        2 0.12591280E+00 0.55973653E+03</pdfrwt>
<pdfrwt beam="2">  1       -2 0.14723489E-01 0.55973653E+03</pdfrwt>
<totfact> 0.12138439E+03</totfact>
</mgrwt>
</event>
<event>
 5    0  0.5719562E-003  0.8896399E+03  0.7546771E-02  0.9438625E-01
          1   -1    0    0  502    0  0.00000000000E+00  0.00000000000E+00  0.12474632863E+03  0.12474632863E+03  0.00000000000E+00 0.  1.
         -1   -1    0    0    0  501 -0.00000000000E+00 -0.00000000000E+00 -0.15861372156E+04  0.15861372156E+04  0.00000000000E+00 0. -1.
         25    1    1    2    0    0 -0.41704314228E+03  0.14291421562E+01 -0.52143246623E+03  0.67929657868E+03  0.12500000000E+03 0.  0.
          2    1    1    2  502    0  0.36236310917E+03  0.64049536668E+01 -0.86985890311E+03  0.94233887622E+03  0.00000000000E+00 0.  1.
         -2    1    1    2    0  501  0.54680033112E+02 -0.78340958229E+01 -0.70099517667E+02  0.89248089367E+02  0.00000000000E+00 0. -1.
<mgrwt>
<rscale>  4 0.88963991E+03</rscale>
<asrwt>0</asrwt>
<pdfrwt beam="1">  1        1 0.19191743E-01 0.88963991E+03</pdfrwt>
<pdfrwt beam="2">  1       -1 0.24402110E+00 0.88963991E+03</pdfrwt>
<totfact> 0.21520797E+01</totfact>
</mgrwt>
</event>
<event>
 5    0  0.5719562E-003  0.7888700E+03  0.7546771E-02  0.9576268E-01
         -1   -1    0    0    0  501 -0.00000000000E+00  0.00000000000E+00  0.10765391740E+03  0.10765391740E+03  0.00000000000E+00 0.  1.
          1   -1    0    0  502    0  0.00000000000E+00 -0.00000000000E+00 -0.14451771312E+04  0.14451771312E+04  0.00000000000E+00 0. -1.
         25    1    1    2    0    0  0.16738723683E+03  0.32510492055E+03 -0.63240707720E+03  0.74113116769E+03  0.12500000000E+03 0.  0.
          3    1    1    2  502    0 -0.18154993955E+03 -0.28033714954E+03 -0.50008161798E+03  0.60135756635E+03  0.00000000000E+00 0.  1.
         -3    1    1    2    0  501  0.14162702711E+02 -0.44767771006E+02 -0.20503451866E+03  0.21034231460E+03  0.00000000000E+00 0. -1.
<mgrwt>
<rscale>  4 0.78887003E+03</rscale>
<asrwt>0</asrwt>
<pdfrwt beam="1">  1        1 0.22233495E+00 0.78887003E+03</pdfrwt>
<pdfrwt beam="2">  1       -1 0.16562141E-01 0.78887003E+03</pdfrwt>
<totfact> 0.20277647E+02</totfact>
</mgrwt>
</event>
<event>
 5    0  0.5719562E-003  0.6541558E+03  0.7546771E-02  0.9799012E-01
         -2   -1    0    0    0  501 -0.00000000000E+00  0.00000000000E+00  0.45099668407E+03  0.45099668407E+03  0.00000000000E+00 0. -1.
          2   -1    0    0  502    0  0.00000000000E+00 -0.00000000000E+00 -0.23720784013E+03  0.23720784013E+03  0.00000000000E+00 0.  1.
         25    1    1    2    0    0 -0.17635100899E+03  0.15034756110E+03  0.23878294111E+03  0.35545233220E+03  0.12500000000E+03 0.  0.
          3    1    1    2  502    0  0.20402006480E+03 -0.92631261201E+02  0.54594592887E+02  0.23061939850E+03  0.00000000000E+00 0. -1.
         -3    1    1    2    0  501 -0.27669055814E+02 -0.57716299903E+02 -0.79588690050E+02  0.10213279350E+03  0.00000000000E+00 0.  1.
<mgrwt>
<rscale>  4 0.65415579E+03</rscale>
<asrwt>0</asrwt>
<pdfrwt beam="1">  1        2 0.36493514E-01 0.65415579E+03</pdfrwt>
<pdfrwt beam="2">  1       -2 0.69384105E-01 0.65415579E+03</pdfrwt>
<totfact> 0.27327636E+02</totfact>
</mgrwt>
</event>
<event>
 5    0  0.5719562E-003  0.5179839E+03  0.7546771E-02  0.1009189E+00
         -1   -1    0    0    0  501 -0.00000000000E+00  0.00000000000E+00  0.63851097290E+02  0.63851097290E+02  0.00000000000E+00 0.  1.
          1   -1    0    0  502    0  0.00000000000E+00 -0.00000000000E+00 -0.10505195463E+04  0.10505195463E+04  0.00000000000E+00 0. -1.
         25    1    1    2    0    0  0.15019066636E+03 -0.16510603912E+03 -0.36776618176E+03  0.44798906779E+03  0.12500000000E+03 0.  0.
          2    1    1    2  502    0 -0.90031004442E+02  0.11495578445E+03 -0.52062229622E+03  0.54071063375E+03  0.00000000000E+00 0. -1.
         -2    1    1    2    0  501 -0.60159661913E+02  0.50150254679E+02 -0.98279971014E+02  0.12567094202E+03  0.00000000000E+00 0.  1.
<mgrwt>
<rscale>  4 0.51798388E+03</rscale>
<asrwt>0</asrwt>
<pdfrwt beam="1">  1        1 0.16161838E+00 0.51798388E+03</pdfrwt>
<pdfrwt beam="2">  1       -1 0.98232466E-02 0.51798388E+03</pdfrwt>
<totfact> 0.91165200E+02</totfact>
</mgrwt>
</event>
<event>
 5    0  0.5719562E-003  0.6932166E+03  0.7546771E-02  0.9728904E-01
          2   -1    0    0  502    0  0.00000000000E+00  0.00000000000E+00  0.31237223050E+03  0.31237223050E+03  0.00000000000E+00 0. -1.
         -2   -1    0    0    0  501 -0.00000000000E+00 -0.00000000000E+00 -0.38459664595E+03  0.38459664595E+03  0.00000000000E+00 0.  1.
         25    1    1    2    0    0  0.13327750243E+02  0.31423642794E+03  0.12670696295E+02  0.33868526409E+03  0.12500000000E+03 0.  0.
          4    1    1    2  502    0 -0.56684027787E+02 -0.29432997378E+03 -0.65671675428E+02  0.30684846655E+03  0.00000000000E+00 0. -1.
         -4    1    1    2    0  501  0.43356277544E+02 -0.19906454157E+02 -0.19223436316E+02  0.51435145799E+02  0.00000000000E+00 0.  1.
<mgrwt>
<rscale>  4 0.69321660E+03</rscale>
<asrwt>0</asrwt>
<pdfrwt beam="1">  1        2 0.48057266E-01 0.69321660E+03</pdfrwt>
<pdfrwt beam="2">  1       -2 0.59168715E-01 0.69321660E+03</pdfrwt>
<totfact> 0.28267688E+02</totfact>
</mgrwt>
</event>
<event>
 5    0  0.5719562E-003  0.5745847E+03  0.7546771E-02  0.9959584E-01
          1   -1    0    0  502    0  0.00000000000E+00  0.00000000000E+00  0.11475153771E+03  0.11475153771E+03  0.00000000000E+00 0.  1.
         -1   -1    0    0    0  501 -0.00000000000E+00 -0.00000000000E+00 -0.71926604664E+03  0.71926604664E+03  0.00000000000E+00 0. -1.
         25    1    1    2    0    0  0.28625360460E+02  0.26002201609E+03 -0.39242791315E+03  0.48790934315E+03  0.12500000000E+03 0.  0.
          4    1    1    2  502    0 -0.45629054106E+02 -0.22069355927E+03 -0.15016672991E+03  0.27080935075E+03  0.00000000000E+00 0. -1.
         -4    1    1    2    0  501  0.17003693646E+02 -0.39328456818E+02 -0.61919865873E+02  0.75298890450E+02  0.00000000000E+00 0.  1.
<mgrwt>
<rscale>  4 0.57458467E+03</rscale>
<asrwt>0</asrwt>
<pdfrwt beam="1">  1        1 0.17654083E-01 0.57458467E+03</pdfrwt>
<pdfrwt beam="2">  1       -1 0.11065631E+00 0.57458467E+03</pdfrwt>
<totfact> 0.23756769E+02</totfact>
</mgrwt>
</event>
<event>
 5    0  0.5719562E-003  0.6852876E+03  0.7546771E-02  0.9742728E-01
         -2   -1    0    0    0  501 -0.00000000000E+00  0.00000000000E+00  0.29248478865E+02  0.29248478865E+02  0.00000000000E+00 0. -1.
          2   -1    0    0  502    0  0.00000000000E+00 -0.00000000000E+00 -0.40140473919E+04  0.40140473919E+04  0.00000000000E+00 0.  1.
         25    1    1    2    0    0 -0.12944418341E+03 -0.18347826999E+03 -0.63381375520E+03  0.68393343862E+03  0.12500000000E+03 0.  0.
          3    1    1    2  502    0  0.34401651832E+02  0.48657856654E+01 -0.47360480697E+03  0.47487752390E+03  0.00000000000E+00 0. -1.
         -3    1    1    2    0  501  0.95042531576E+02  0.17861248433E+03 -0.28773803508E+04  0.28844849082E+04  0.00000000000E+00 0.  1.
<mgrwt>
<rscale>  4 0.68528762E+03</rscale>
<asrwt>0</asrwt>
<pdfrwt beam="1">  1        2 0.61754538E+00 0.68528762E+03</pdfrwt>
<pdfrwt beam="2">  1       -2 0.44997687E-02 0.68528762E+03</pdfrwt>
<totfact> 0.90289321E+01</totfact>
</mgrwt>
</event>
