<event>
 5    0  0.1911311E+001  0.2133107E+03  0.7546771E-02  0.1138971E+00
         21   -1    0    0  504  501  0.00000000000E+00  0.00000000000E+00  0.14533482280E+04  0.14533482280E+04  0.00000000000E+00 0.  1.
         21   -1    0    0  501  502 -0.00000000000E+00 -0.00000000000E+00 -0.15566829735E+03  0.15566829735E+03  0.00000000000E+00 0.  1.
         25    1    1    2    0    0  0.26464034207E+03  0.69182877731E+01  0.11401730727E+04  0.11771584469E+04  0.12500000000E+03 0.  0.
         21    1    1    2  503  502 -0.96492786303E+02  0.30081407551E+01  0.22927112298E+03  0.24876726985E+03  0.00000000000E+00 0.  1.
         21    1    1    2  504  503 -0.16814755576E+03 -0.99264285281E+01 -0.71764264964E+02  0.18309080867E+03  0.00000000000E+00 0.  1.
<mgrwt>
<rscale>  4 0.21331068E+03</rscale>
<asrwt>0</asrwt>
<pdfrwt beam="1">  1       21 0.22359203E+00 0.21331068E+03</pdfrwt>
<pdfrwt beam="2">  1       21 0.23948970E-01 0.21331068E+03</pdfrwt>
<totfact> 0.15373494E+03</totfact>
</mgrwt>
</event>
<event>
 5    0  0.1911311E+001  0.2218039E+03  0.7546771E-02  0.1132545E+00
         21   -1    0    0  504  501  0.00000000000E+00  0.00000000000E+00  0.33693971811E+03  0.33693971811E+03  0.00000000000E+00 0. -1.
         21   -1    0    0  503  502 -0.00000000000E+00 -0.00000000000E+00 -0.37868034399E+03  0.37868034399E+03  0.00000000000E+00 0. -1.
         25    1    1    2    0    0 -0.59485228136E+02 -0.19738660704E+03  0.65584431339E+02  0.24985252178E+03  0.12500000000E+03 0.  0.
         21    1    1    2  503  501 -0.38662278336E+02  0.52293032768E+02 -0.23831948136E+03  0.24703341523E+03  0.00000000000E+00 0. -1.
         21    1    1    2  504  502  0.98147506472E+02  0.14509357427E+03  0.13099442415E+03  0.21873412509E+03  0.00000000000E+00 0. -1.
<mgrwt>
<rscale>  4 0.22180385E+03</rscale>
<asrwt>0</asrwt>
<pdfrwt beam="1">  1       21 0.51836880E-01 0.22180385E+03</pdfrwt>
<pdfrwt beam="2">  1       21 0.58258514E-01 0.22180385E+03</pdfrwt>
<totfact> 0.95641028E+03</totfact>
</mgrwt>
</event>
<event>
 5    0  0.1911311E+001  0.2459423E+03  0.7546771E-02  0.1115896E+00
         21   -1    0    0  503  501  0.00000000000E+00  0.00000000000E+00  0.53864636890E+03  0.53864636890E+03  0.00000000000E+00 0.  1.
         21   -1    0    0  504  502 -0.00000000000E+00 -0.00000000000E+00 -0.14977433516E+04  0.14977433516E+04  0.00000000000E+00 0. -1.
         25    1    1    2    0    0 -0.16900884562E+03 -0.14963853238E+03 -0.14269384130E+04  0.14500806580E+04  0.12500000000E+03 0.  0.
         21    1    1    2  503  502 -0.10910675041E+02  0.38179231496E+02 -0.27059775086E+02  0.48051305655E+02  0.00000000000E+00 0.  1.
         21    1    1    2  504  501  0.17991952067E+03  0.11145930088E+03  0.49490120540E+03  0.53825775682E+03  0.00000000000E+00 0.  1.
<mgrwt>
<rscale>  4 0.24594232E+03</rscale>
<asrwt>0</asrwt>
<pdfrwt beam="1">  1       21 0.82868671E-01 0.24594232E+03</pdfrwt>
<pdfrwt beam="2">  1       21 0.23042206E+00 0.24594232E+03</pdfrwt>
<totfact> 0.10287425E+02</totfact>
</mgrwt>
</event>
<event>
 5    0  0.1911311E+001  0.2351447E+03  0.7546771E-02  0.1123070E+00
         21   -1    0    0  503  501  0.00000000000E+00  0.00000000000E+00  0.29195884588E+03  0.29195884588E+03  0.00000000000E+00 0. -1.
         21   -1    0    0  504  502 -0.00000000000E+00 -0.00000000000E+00 -0.34638526418E+03  0.34638526418E+03  0.00000000000E+00 0. -1.
         25    1    1    2    0    0 -0.19100104277E+03  0.12088744898E+03  0.20787361963E+02  0.25913758523E+03  0.12500000000E+03 0.  0.
         21    1    1    2  503  502  0.61104599751E+02  0.14543812523E+02 -0.16103948058E+03  0.17285545666E+03  0.00000000000E+00 0.  1.
         21    1    1    2  504  501  0.12989644302E+03 -0.13543126150E+03  0.85825700310E+02  0.20635106817E+03  0.00000000000E+00 0. -1.
<mgrwt>
<rscale>  4 0.23514469E+03</rscale>
<asrwt>0</asrwt>
<pdfrwt beam="1">  1       21 0.44916746E-01 0.23514469E+03</pdfrwt>
<pdfrwt beam="2">  1       21 0.53290040E-01 0.23514469E+03</pdfrwt>
<totfact> 0.15464653E+04</totfact>
</mgrwt>
</event>
