<event>
 5    0  0.2308845E+000  0.2933147E+03  0.7546771E-02  0.1088631E+00
         21   -1    0    0  502  501  0.00000000000E+00  0.00000000000E+00  0.25525450008E+03  0.25525450008E+03  0.00000000000E+00 0.  1.
         21   -1    0    0  503  502 -0.00000000000E+00 -0.00000000000E+00 -0.58480314591E+03  0.58480314591E+03  0.00000000000E+00 0.  1.
         25    1    1    2    0    0  0.31505771968E+03  0.12337013930E+03 -0.19717669015E+03  0.41107810102E+03  0.12500000000E+03 0.  0.
         21    1    1    2  503  504 -0.24107372204E+03 -0.19318972542E+01 -0.98602998632E+01  0.24128302302E+03  0.00000000000E+00 0.  1.
         21    1    1    2  504  501 -0.73983997646E+02 -0.12143824204E+03 -0.12251165582E+03  0.18769652194E+03  0.00000000000E+00 0.  1.
<mgrwt>
<rscale>  4 0.29331466E+03</rscale>
<asrwt>0</asrwt>
<pdfrwt beam="1">  1       21 0.39269923E-01 0.29331466E+03</pdfrwt>
<pdfrwt beam="2">  1       21 0.89969714E-01 0.29331466E+03</pdfrwt>
<totfact> 0.61715852E+03</totfact>
</mgrwt>
</event>
<event>
 5    0  0.1856407E+000  0.3634557E+03  0.7546771E-02  0.1057224E+00
         21   -1    0    0  502  501  0.00000000000E+00  0.00000000000E+00  0.13654408861E+03  0.13654408861E+03  0.00000000000E+00 0. -1.
         21   -1    0    0  503  502 -0.00000000000E+00 -0.00000000000E+00 -0.12641923243E+04  0.12641923243E+04  0.00000000000E+00 0. -1.
         25    1    1    2    0    0 -0.23066540520E+03 -0.25153229204E+03 -0.21154466346E+03  0.42053676145E+03  0.12500000000E+03 0.  0.
         21    1    1    2  503  504  0.22584642939E+03  0.22987202250E+03 -0.80898343741E+03  0.87080535046E+03  0.00000000000E+00 0. -1.
         21    1    1    2  504  501  0.48189758142E+01  0.21660269540E+02 -0.10712013483E+03  0.10939430100E+03  0.00000000000E+00 0. -1.
<mgrwt>
<rscale>  4 0.36345567E+03</rscale>
<asrwt>0</asrwt>
<pdfrwt beam="1">  1       21 0.21006783E-01 0.36345567E+03</pdfrwt>
<pdfrwt beam="2">  1       21 0.19449112E+00 0.36345567E+03</pdfrwt>
<totfact> 0.27180831E+03</totfact>
</mgrwt>
</event>
<event>
 5    0  0.1856407E+000  0.2511396E+03  0.7546771E-02  0.1112587E+00
         21   -1    0    0  502  501  0.00000000000E+00  0.00000000000E+00  0.82261799434E+03  0.82261799434E+03  0.00000000000E+00 0.  1.
         21   -1    0    0  503  502 -0.00000000000E+00 -0.00000000000E+00 -0.85658923617E+03  0.85658923617E+03  0.00000000000E+00 0. -1.
         25    1    1    2    0    0  0.51005547279E+02  0.21176523769E+03  0.78755125276E+03  0.82662449605E+03  0.12500000000E+03 0.  0.
         21    1    1    2  503  504 -0.54608037283E+02 -0.16831752733E+03 -0.73094262272E+03  0.75205714241E+03  0.00000000000E+00 0. -1.
         21    1    1    2  504  501  0.36024900043E+01 -0.43447710351E+02 -0.90579871871E+02  0.10052559205E+03  0.00000000000E+00 0. -1.
<mgrwt>
<rscale>  4 0.25113957E+03</rscale>
<asrwt>0</asrwt>
<pdfrwt beam="1">  1       21 0.12655661E+00 0.25113957E+03</pdfrwt>
<pdfrwt beam="2">  1       21 0.13178296E+00 0.25113957E+03</pdfrwt>
<totfact> 0.18073972E+02</totfact>
</mgrwt>
</event>
<event>
 5    0  0.1856407E+000  0.2679283E+03  0.7546771E-02  0.1102471E+00
         21   -1    0    0  502  501  0.00000000000E+00  0.00000000000E+00  0.25288543128E+03  0.25288543128E+03  0.00000000000E+00 0. -1.
         21   -1    0    0  503  502 -0.00000000000E+00 -0.00000000000E+00 -0.51916462978E+03  0.51916462978E+03  0.00000000000E+00 0. -1.
         25    1    1    2    0    0  0.16597754314E+03  0.16915089525E+03  0.13117229434E+03  0.29831483535E+03  0.12500000000E+03 0.  0.
         21    1    1    2  503  504 -0.97756687296E+02 -0.10770822258E+03 -0.32738147205E+03  0.35824022578E+03  0.00000000000E+00 0. -1.
         21    1    1    2  504  501 -0.68220855840E+02 -0.61442672664E+02 -0.70070020794E+02  0.11549499993E+03  0.00000000000E+00 0. -1.
<mgrwt>
<rscale>  4 0.26792829E+03</rscale>
<asrwt>0</asrwt>
<pdfrwt beam="1">  1       21 0.38905452E-01 0.26792829E+03</pdfrwt>
<pdfrwt beam="2">  1       21 0.79871480E-01 0.26792829E+03</pdfrwt>
<totfact> 0.83904401E+03</totfact>
</mgrwt>
</event>
<event>
 5    0  0.1856407E+000  0.4903987E+03  0.7546771E-02  0.1016316E+00
         21   -1    0    0  502  501  0.00000000000E+00  0.00000000000E+00  0.29183755902E+04  0.29183755902E+04  0.00000000000E+00 0.  1.
         21   -1    0    0  503  502 -0.00000000000E+00 -0.00000000000E+00 -0.23148295701E+03  0.23148295701E+03  0.00000000000E+00 0. -1.
         25    1    1    2    0    0 -0.41990201580E+03  0.22033644792E+03  0.26167009049E+04  0.26622574028E+04  0.12500000000E+03 0.  0.
         21    1    1    2  503  504  0.41527521510E+03 -0.19921125595E+03  0.70639557830E+02  0.46597057408E+03  0.00000000000E+00 0. -1.
         21    1    1    2  504  501  0.46268007005E+01 -0.21125191971E+02 -0.44782955510E+00  0.21630570308E+02  0.00000000000E+00 0.  1.
<mgrwt>
<rscale>  4 0.49039867E+03</rscale>
<asrwt>0</asrwt>
<pdfrwt beam="1">  1       21 0.44898083E+00 0.49039867E+03</pdfrwt>
<pdfrwt beam="2">  1       21 0.35612765E-01 0.49039867E+03</pdfrwt>
<totfact> 0.22714600E+01</totfact>
</mgrwt>
</event>
<event>
 5    0  0.2575824E+000  0.2959664E+03  0.7546771E-02  0.1087275E+00
         21   -1    0    0  502  501  0.00000000000E+00  0.00000000000E+00  0.63469274721E+03  0.63469274721E+03  0.00000000000E+00 0.  1.
         21   -1    0    0  503  502 -0.00000000000E+00 -0.00000000000E+00 -0.20168465908E+03  0.20168465908E+03  0.00000000000E+00 0.  1.
         25    1    1    2    0    0  0.76704953337E+01  0.26816465542E+03  0.46001001963E+03  0.54699665179E+03  0.12500000000E+03 0.  0.
         21    1    1    2  503  504 -0.36561899658E+02 -0.29482377331E+02 -0.12064701922E+02  0.48492681016E+02  0.00000000000E+00 0.  1.
         21    1    1    2  504  501  0.28891404324E+02 -0.23868227809E+03 -0.14937229575E+02  0.24088807348E+03  0.00000000000E+00 0.  1.
<mgrwt>
<rscale>  4 0.29596642E+03</rscale>
<asrwt>0</asrwt>
<pdfrwt beam="1">  1       21 0.97645037E-01 0.29596642E+03</pdfrwt>
<pdfrwt beam="2">  1       21 0.31028409E-01 0.29596642E+03</pdfrwt>
<totfact> 0.81451629E+03</totfact>
</mgrwt>
</event>
<event>
 5    0  0.1856407E+000  0.3845405E+03  0.7546771E-02  0.1049268E+00
         21   -1    0    0  502  501  0.00000000000E+00  0.00000000000E+00  0.13590155771E+03  0.13590155771E+03  0.00000000000E+00 0. -1.
         21   -1    0    0  503  502 -0.00000000000E+00 -0.00000000000E+00 -0.16065547537E+04  0.16065547537E+04  0.00000000000E+00 0.  1.
         25    1    1    2    0    0  0.80035271085E+02 -0.35474040792E+03 -0.23006008062E+03  0.44810606147E+03  0.12500000000E+03 0.  0.
         21    1    1    2  503  504 -0.83368478097E+02  0.32291094961E+03 -0.10695480805E+04  0.11203369497E+04  0.00000000000E+00 0.  1.
         21    1    1    2  504  501  0.33332070120E+01  0.31829458310E+02 -0.17104503493E+03  0.17401330024E+03  0.00000000000E+00 0.  1.
<mgrwt>
<rscale>  4 0.38454051E+03</rscale>
<asrwt>0</asrwt>
<pdfrwt beam="1">  1       21 0.20907932E-01 0.38454051E+03</pdfrwt>
<pdfrwt beam="2">  1       21 0.24716227E+00 0.38454051E+03</pdfrwt>
<totfact> 0.12539463E+03</totfact>
</mgrwt>
</event>
<event>
 5    0  0.2308464E+000  0.2569531E+03  0.7546771E-02  0.1108988E+00
         21   -1    0    0  502  501  0.00000000000E+00  0.00000000000E+00  0.23369748559E+04  0.23369748559E+04  0.00000000000E+00 0.  1.
         21   -1    0    0  503  502 -0.00000000000E+00 -0.00000000000E+00 -0.41415534832E+02  0.41415534832E+02  0.00000000000E+00 0.  1.
         25    1    1    2    0    0  0.25728656751E+03 -0.89749387700E+02  0.12961986318E+04  0.13304161843E+04  0.12500000000E+03 0.  0.
         21    1    1    2  503  504 -0.16837304026E+03  0.99565780814E+02  0.86299922879E+03  0.88489010294E+03  0.00000000000E+00 0.  1.
         21    1    1    2  504  501 -0.88913527250E+02 -0.98163931145E+01  0.13636146049E+03  0.16308410348E+03  0.00000000000E+00 0.  1.
<mgrwt>
<rscale>  4 0.25695313E+03</rscale>
<asrwt>0</asrwt>
<pdfrwt beam="1">  1       21 0.35953449E+00 0.25695313E+03</pdfrwt>
<pdfrwt beam="2">  1       21 0.63716226E-02 0.25695313E+03</pdfrwt>
<totfact> 0.25312210E+03</totfact>
</mgrwt>
</event>
<event>
 5    0  0.1856407E+000  0.2705549E+03  0.7546771E-02  0.1100962E+00
         21   -1    0    0  502  501  0.00000000000E+00  0.00000000000E+00  0.54140792230E+03  0.54140792230E+03  0.00000000000E+00 0.  1.
         21   -1    0    0  503  502 -0.00000000000E+00 -0.00000000000E+00 -0.61431979917E+03  0.61431979917E+03  0.00000000000E+00 0.  1.
         25    1    1    2    0    0 -0.21792196200E+03 -0.10042395259E+03  0.47540222474E+03  0.54699837940E+03  0.12500000000E+03 0.  0.
         21    1    1    2  503  504  0.93089704060E+02  0.52646613985E+02 -0.12342880186E+03  0.16331573131E+03  0.00000000000E+00 0. -1.
         21    1    1    2  504  501  0.12483225794E+03  0.47777338601E+02 -0.42488529975E+03  0.44541361076E+03  0.00000000000E+00 0.  1.
<mgrwt>
<rscale>  4 0.27055490E+03</rscale>
<asrwt>0</asrwt>
<pdfrwt beam="1">  1       21 0.83293527E-01 0.27055490E+03</pdfrwt>
<pdfrwt beam="2">  1       21 0.94510738E-01 0.27055490E+03</pdfrwt>
<totfact> 0.11016406E+03</totfact>
</mgrwt>
</event>
<event>
 5    0  0.1856407E+000  0.2600235E+03  0.7546771E-02  0.1107129E+00
         21   -1    0    0  502  501  0.00000000000E+00  0.00000000000E+00  0.13085509264E+04  0.13085509264E+04  0.00000000000E+00 0.  1.
         21   -1    0    0  503  502 -0.00000000000E+00 -0.00000000000E+00 -0.15509675929E+03  0.15509675929E+03  0.00000000000E+00 0. -1.
         25    1    1    2    0    0 -0.21519717309E+03 -0.88307283996E+02  0.11737413352E+04  0.12030800977E+04  0.12500000000E+03 0.  0.
         21    1    1    2  503  504  0.35921703989E+02  0.31684552144E+02  0.40765965001E+02  0.62897882035E+02  0.00000000000E+00 0. -1.
         21    1    1    2  504  501  0.17927546910E+03  0.56622731851E+02 -0.61053133052E+02  0.19766970592E+03  0.00000000000E+00 0. -1.
<mgrwt>
<rscale>  4 0.26002350E+03</rscale>
<asrwt>0</asrwt>
<pdfrwt beam="1">  1       21 0.20131552E+00 0.26002350E+03</pdfrwt>
<pdfrwt beam="2">  1       21 0.23861041E-01 0.26002350E+03</pdfrwt>
<totfact> 0.20509861E+03</totfact>
</mgrwt>
</event>
<event>
 5    0  0.1856407E+000  0.2816355E+03  0.7546771E-02  0.1094799E+00
         21   -1    0    0  502  501  0.00000000000E+00  0.00000000000E+00  0.69107793898E+03  0.69107793898E+03  0.00000000000E+00 0.  1.
         21   -1    0    0  503  502 -0.00000000000E+00 -0.00000000000E+00 -0.10776090830E+03  0.10776090830E+03  0.00000000000E+00 0.  1.
         25    1    1    2    0    0  0.22664866180E+03  0.11101328354E+03  0.24516324641E+03  0.37339467378E+03  0.12500000000E+03 0.  0.
         21    1    1    2  503  504 -0.11885738268E+03 -0.41039567092E+02  0.13036068039E+03  0.18112214243E+03  0.00000000000E+00 0.  1.
         21    1    1    2  504  501 -0.10779127912E+03 -0.69973716448E+02  0.20779310387E+03  0.24432203107E+03  0.00000000000E+00 0.  1.
<mgrwt>
<rscale>  4 0.28163552E+03</rscale>
<asrwt>0</asrwt>
<pdfrwt beam="1">  1       21 0.10631968E+00 0.28163552E+03</pdfrwt>
<pdfrwt beam="2">  1       21 0.16578602E-01 0.28163552E+03</pdfrwt>
<totfact> 0.22109071E+04</totfact>
</mgrwt>
</event>
<event>
 5    0  0.1856407E+000  0.3171102E+03  0.7546771E-02  0.1076987E+00
         21   -1    0    0  502  501  0.00000000000E+00  0.00000000000E+00  0.14686776282E+04  0.14686776282E+04  0.00000000000E+00 0.  1.
         21   -1    0    0  503  502 -0.00000000000E+00 -0.00000000000E+00 -0.12496097138E+03  0.12496097138E+03  0.00000000000E+00 0.  1.
         25    1    1    2    0    0  0.44328569552E+02  0.29822942860E+03  0.10061931118E+04  0.10578068786E+04  0.12500000000E+03 0.  0.
         21    1    1    2  503  504  0.25627658747E+02 -0.17219275685E+02  0.22186409927E+03  0.22400214038E+03  0.00000000000E+00 0.  1.
         21    1    1    2  504  501 -0.69956228299E+02 -0.28101015292E+03  0.11565944566E+03  0.31182958053E+03  0.00000000000E+00 0.  1.
<mgrwt>
<rscale>  4 0.31711023E+03</rscale>
<asrwt>0</asrwt>
<pdfrwt beam="1">  1       21 0.22595039E+00 0.31711023E+03</pdfrwt>
<pdfrwt beam="2">  1       21 0.19224766E-01 0.31711023E+03</pdfrwt>
<totfact> 0.20703448E+03</totfact>
</mgrwt>
</event>
<event>
 5    0  0.1856407E+000  0.2418887E+03  0.7546771E-02  0.1118541E+00
         21   -1    0    0  502  501  0.00000000000E+00  0.00000000000E+00  0.13855066634E+04  0.13855066634E+04  0.00000000000E+00 0. -1.
         21   -1    0    0  503  502 -0.00000000000E+00 -0.00000000000E+00 -0.22289711114E+03  0.22289711114E+03  0.00000000000E+00 0. -1.
         25    1    1    2    0    0 -0.14678573795E+03 -0.21959030649E+03  0.11311498667E+04  0.11682854859E+04  0.12500000000E+03 0.  0.
         21    1    1    2  503  504  0.75479891655E+02  0.11598493647E+03  0.19169051197E+03  0.23642117484E+03  0.00000000000E+00 0. -1.
         21    1    1    2  504  501  0.71305846300E+02  0.10360537003E+03 -0.16023082646E+03  0.20369711378E+03  0.00000000000E+00 0. -1.
<mgrwt>
<rscale>  4 0.24188873E+03</rscale>
<asrwt>0</asrwt>
<pdfrwt beam="1">  1       21 0.21315486E+00 0.24188873E+03</pdfrwt>
<pdfrwt beam="2">  1       21 0.34291864E-01 0.24188873E+03</pdfrwt>
<totfact> 0.86254488E+02</totfact>
</mgrwt>
</event>
