<LesHouchesEvents version="3.0">
  <!--
  <scalesfunctionalform>
    muR  H_T/2 := sum_i mT(i)/2, i=final state
    muF1 H_T/2 := sum_i mT(i)/2, i=final state
    muF2 H_T/2 := sum_i mT(i)/2, i=final state
    QES  H_T/2 := sum_i mT(i)/2, i=final state
  </scalesfunctionalform>
HERWIG6   
  -->
  <header>
       33
  </header>
  <init>
   2212   2212 0.65000000D+04 0.65000000D+04 -1 -1   244800   244800 -4   1
 0.33800330D-04 0.21206186D-05 0.20292227D-05     66
  </init>
  <event>
  6     66 0.20292227E-05 0.22436921E+02 0.75467711E-02 0.93701045E-01
       -2 -1    0    0    0  501 0.00000000E+00 0.00000000E+00 0.16567656E+03 0.16567686E+03 0.32000000E+00 0.0000E+00 0.9000E+01
        1 -1    0    0  502    0 -.00000000E+00 -.00000000E+00 -.25401336E+04 0.25401336E+04 0.32000000E+00 0.0000E+00 0.9000E+01
       25  1    1    2    0    0 -.48614831E+03 -.14814909E+03 -.18782847E+04 0.19498376E+04 0.12500000E+03 0.0000E+00 0.9000E+01
       -2  1    1    2    0  503 0.53595537E+02 0.61325299E+01 -.51237057E+02 0.74400456E+02 0.32000000E+00 0.0000E+00 0.9000E+01
        1  1    1    2  502    0 -.27756425E+02 0.46568248E+01 -.59019985E+02 0.65387814E+02 0.32000000E+00 0.0000E+00 0.9000E+01
       21  1    1    2  503  501 0.46030920E+03 0.13735974E+03 -.38591527E+03 0.61618457E+03 0.75000000E+00 0.0000E+00 0.9000E+01
#aMCatNLO 2  0  0  4  1 0.97324959D+01 0.00000000D+00  -5  6  0 0.00000000D+00 0.00000000D+00 0.00000000D+00 0.00000000D+00 0.00000000D+00
  <mgrwgt>
 0.4282555782D-02    3    2    0
 0.648722612976124D+03 0.000000000000000D+00 0.000000000000000D+00 0.648722612976124D+03
 0.648722612976124D+03 -.000000000000000D+00 -.000000000000000D+00 -.648722612976124D+03
 0.629458784733493D+03 -.486655839039315D+03 -.148200885091228D+03 -.348992770219217D+03
 0.639770821460947D+03 0.514281392037516D+03 0.143597437508536D+03 0.352421806558209D+03
 0.282156197578075D+02 -.276255529982016D+02 0.460344758269227D+01 -.342903633899164D+01
 0.000000000000000D+00 0.000000000000000D+00 0.000000000000000D+00 0.000000000000000D+00
 0.648722612976124D+03 0.000000000000000D+00 0.000000000000000D+00 0.648722612976124D+03
 0.648722612976124D+03 -.000000000000000D+00 -.000000000000000D+00 -.648722612976124D+03
 0.629050955291524D+03 -.486321221772259D+03 -.148107453396364D+03 -.348763466916420D+03
 0.614063129705840D+02 0.535789768037561D+02 0.619772240898267D+01 0.293533090850949D+02
 0.282003695227655D+02 -.276105529043995D+02 0.460763590267765D+01 -.341875721896484D+01
 0.578787588167374D+03 0.460352797872902D+03 0.137302095084703D+03 0.322828915050290D+03
-.440231256268D-06 0.000000000000D+00 0.000000000000D+00 0.909865186290D-08 0.000000000000D+00  6 -2 1 25 -2 1 21 2 0.25488726D-01 0.39078981D+00 0.29476042D+06 0.29476042D+06 0.29476042D+06 0.10851185D+01  1  2 13  3  6  4       -2 -.100261215893D-05 0.100000000000D+01
-.647221036330D-05 0.000000000000D+00 0.000000000000D+00 0.909865186290D-08 0.000000000000D+00  6 -2 1 25 -2 1 21 2 0.25488726D-01 0.39078981D+00 0.29476042D+06 0.29476042D+06 0.29476042D+06 0.10851185D+01  1  2 13  3  6  4       -2 -.147402455255D-04 0.100000000000D+01
0.188731544218D-02 0.000000000000D+00 0.000000000000D+00 0.909865186290D-08 0.793835793510D-08  6 -2 1 25 -2 1 21 2 0.25488726D-01 0.39078981D+00 0.29476042D+06 0.29476042D+06 0.29476042D+06 0.10851185D+01  1  2  1  3  6  4       -2 0.429829863990D-02 0.100000000000D+01
  </mgrwgt>
  </event>
  <event>
  5     66 0.20292227E-05 0.10137151E+02 0.75467711E-02 0.94198358E-01
       -2 -1    0    0    0  501 0.00000000E+00 0.00000000E+00 0.24003090E+04 0.24003090E+04 0.32000000E+00 0.0000E+00 0.9000E+01
        1 -1    0    0  502    0 0.00000000E+00 0.00000000E+00 -.24306992E+03 0.24307014E+03 0.32000000E+00 0.0000E+00 0.9000E+01
       25  1    1    2    0    0 0.39349469E+03 -.26785070E+03 0.10764615E+04 0.11836285E+04 0.12500000E+03 0.0000E+00 0.9000E+01
       -2  1    1    2    0  501 0.37656972E+01 0.94180560E+01 0.97386474E+03 0.97391761E+03 0.32000000E+00 0.0000E+00 0.9000E+01
        1  1    1    2  502    0 -.39726039E+03 0.25843264E+03 0.10691278E+03 0.48583299E+03 0.32000000E+00 0.0000E+00 0.9000E+01
#aMCatNLO 1  0  0  4  5 0.84380555D+02 0.00000000D+00  -5  6  0 0.00000000D+00 0.00000000D+00 0.00000000D+00 0.00000000D+00 0.00000000D+00
  <mgrwgt>
 0.1677028132D-03    4    2    0
 0.763834552684395D+03 0.000000000000000D+00 0.000000000000000D+00 0.763834552684395D+03
 0.763834552684395D+03 -.000000000000000D+00 -.000000000000000D+00 -.763834552684395D+03
 0.528127584000665D+03 0.393576225937829D+03 -.267898815643722D+03 0.191368032689909D+03
 0.309819411393003D+03 0.376352920517282D+01 0.941263378970788D+01 0.309653525490942D+03
 0.689722109975122D+03 -.397339755143001D+03 0.258486181854014D+03 -.501021558180851D+03
 0.000000000000000D+00 0.000000000000000D+00 -.000000000000000D+00 0.000000000000000D+00
 0.763834552684395D+03 0.000000000000000D+00 0.000000000000000D+00 0.763834552684395D+03
 0.763834552684395D+03 -.000000000000000D+00 -.000000000000000D+00 -.763834552684395D+03
 0.540217870413486D+03 0.393961256602536D+03 -.266935849117589D+03 0.223047367763227D+03
 0.276314339142228D+03 -.234836888836157D+02 0.295391867196377D+02 0.273725349246222D+03
 0.661377668836745D+03 -.396852820094256D+03 0.259704012523939D+03 -.460957791883518D+03
 0.497592269763310D+02 0.263752523753350D+02 -.223073501259868D+02 -.358149251259310D+02
0.118625468241D-02 0.000000000000D+00 0.000000000000D+00 0.994270819633D-05 0.000000000000D+00  6 -2 1 25 -2 1 21 0 0.36927832D+00 0.37395391D-01 0.23833576D+06 0.23833576D+06 0.23833576D+06 0.10920236D+01  1  2  2  3  6  4       -2 0.152306820804D-03 0.100000000000D+01
0.106341605647D-02 0.000000000000D+00 -.455553032848D-05 0.994270819633D-05 0.000000000000D+00  6 -2 1 25 -2 1 21 2 0.36927832D+00 0.37395391D-01 0.23833576D+06 0.23833576D+06 0.23833576D+06 0.10920236D+01  1  2  3  3  6  4       -2 0.162820353735D-03 0.100000000000D+01
-.767365274280D-03 0.000000000000D+00 0.000000000000D+00 0.994270819633D-05 0.000000000000D+00  6 -2 1 25 -2 1 21 2 0.36927832D+00 0.37395391D-01 0.23833576D+06 0.23833576D+06 0.23833576D+06 0.10920236D+01  1  2 15  3  6  4       -2 -.117491817659D-03 0.100000000000D+01
-.195496121207D-03 0.000000000000D+00 0.000000000000D+00 0.994270819633D-05 0.000000000000D+00  6 -2 1 25 -2 1 21 2 0.36927832D+00 0.37395391D-01 0.23833576D+06 0.23833576D+06 0.23833576D+06 0.10920236D+01  1  2  4  3  6  4       -2 -.299325437256D-04 0.100000000000D+01
  </mgrwgt>
  </event>
  <event>
  5     66 0.20292227E-05 0.15182966E+02 0.75467711E-02 0.94332785E-01
       -2 -1    0    0    0  501 0.00000000E+00 0.00000000E+00 0.42358764E+03 0.42358777E+03 0.32000000E+00 0.0000E+00 0.9000E+01
        1 -1    0    0  502    0 -.00000000E+00 -.00000000E+00 -.17036903E+04 0.17036903E+04 0.32000000E+00 0.0000E+00 0.9000E+01
       25  1    1    2    0    0 0.22192654E+03 0.43130255E+03 0.86564629E+02 0.50832246E+03 0.12500000E+03 0.0000E+00 0.9000E+01
       -2  1    1    2    0  501 0.13537699E+02 -.69219711E+01 0.86013375E+02 0.87347501E+02 0.32000000E+00 0.0000E+00 0.9000E+01
        1  1    1    2  502    0 -.23546424E+03 -.42438058E+03 -.14526806E+04 0.15316081E+04 0.32000000E+00 0.0000E+00 0.9000E+01
#aMCatNLO 1  0  0  4  5 0.13187417D+02 0.00000000D+00  -5  6  0 0.00000000D+00 0.00000000D+00 0.00000000D+00 0.00000000D+00 0.00000000D+00
  <mgrwgt>
 0.6120678942D-03    7    2    0
 0.849507103263287D+03 0.000000000000000D+00 0.000000000000000D+00 0.849507103263287D+03
 0.849507103263287D+03 -.000000000000000D+00 -.000000000000000D+00 -.849507103263287D+03
 0.701892051146471D+03 0.221987390854293D+03 0.431373369151230D+03 0.491595429343499D+03
 0.173921346624626D+03 0.135183458745193D+02 -.691207560361180D+01 0.173257358710648D+03
 0.823200808755477D+03 -.235505736728813D+03 -.424461293547618D+03 -.664852788054148D+03
 0.000000000000000D+00 0.000000000000000D+00 0.000000000000000D+00 0.000000000000000D+00
 0.849507103263287D+03 0.000000000000000D+00 0.000000000000000D+00 0.849507103263287D+03
 0.849507103263287D+03 -.000000000000000D+00 -.000000000000000D+00 -.849507103263287D+03
 0.704838914193801D+03 0.222314884750944D+03 0.431205918000447D+03 0.495792742243634D+03
 0.138548024461167D+02 -.120963153090695D+02 0.409621327010498D+01 0.537175423956662D+01
 0.819239451906658D+03 -.235123368547381D+03 -.424656802510253D+03 -.659952180998761D+03
 0.161081037979999D+03 0.249047991055063D+02 -.106453287602985D+02 0.158787684515561D+03
0.431591224409D-03 0.000000000000D+00 0.000000000000D+00 0.811295940006D-05 0.000000000000D+00  6 -2 1 25 -2 1 21 0 0.65167342D-01 0.26210621D+00 0.25079367D+06 0.25079367D+06 0.25079367D+06 0.10903556D+01  1  2  2  3  6  4       -2 0.517002938755D-03 0.100000000000D+01
0.217051611432D-03 0.000000000000D+00 -.165742394231D-05 0.811295940006D-05 0.000000000000D+00  6 -2 1 25 -2 1 21 2 0.65167342D-01 0.26210621D+00 0.25079367D+06 0.25079367D+06 0.25079367D+06 0.10903556D+01  1  2  3  3  6  4       -2 0.309114736165D-03 0.100000000000D+01
-.277031134878D-03 0.000000000000D+00 0.000000000000D+00 0.811295940006D-05 0.000000000000D+00  6 -2 1 25 -2 1 21 2 0.65167342D-01 0.26210621D+00 0.25079367D+06 0.25079367D+06 0.25079367D+06 0.10903556D+01  1  2 15  3  6  4       -2 -.394534763426D-03 0.100000000000D+01
0.652552539712D-09 0.000000000000D+00 0.000000000000D+00 0.811295940006D-05 0.000000000000D+00  6 -2 1 25 -2 1 21 2 0.65167342D-01 0.26210621D+00 0.26329491D+06 0.26329491D+06 0.26329491D+06 0.10887703D+01  1  2 12  3  6  4       -2 0.924024960543D-09 0.100000000000D+01
-.189958499851D-04 0.000000000000D+00 0.000000000000D+00 0.811295940006D-05 0.000000000000D+00  6 -2 1 25 -2 1 21 2 0.65167342D-01 0.26210621D+00 0.25079367D+06 0.25079367D+06 0.25079367D+06 0.10903556D+01  1  2  4  3  6  4       -2 -.270529995960D-04 0.100000000000D+01
-.553218616123D-04 0.000000000000D+00 0.000000000000D+00 0.811295940006D-05 0.000000000000D+00  6 -2 1 25 -2 1 21 2 0.65167342D-01 0.26210621D+00 0.25079367D+06 0.25079367D+06 0.25079367D+06 0.10903556D+01  1  2  5  3  6  4       -2 -.787868034871D-04 0.100000000000D+01
0.201048505038D-03 0.000000000000D+00 -.000000000000D+00 0.811295940006D-05 0.000000000000D+00  6 -2 1 25 -2 1 21 2 0.65167342D-01 0.26210621D+00 0.25079367D+06 0.25079367D+06 0.25079367D+06 0.10903556D+01  1  2  6  3  6  4       -2 0.286323861783D-03 0.100000000000D+01
  </mgrwgt>
  </event>
  <event>
  5     66 0.20292227E-05 0.30124237E+02 0.75467711E-02 0.92012026E-01
       -2 -1    0    0    0  501 0.00000000E+00 0.00000000E+00 0.55666325E+03 0.55666335E+03 0.32000000E+00 0.0000E+00 0.9000E+01
        1 -1    0    0  502    0 -.00000000E+00 -.00000000E+00 -.19494638E+04 0.19494639E+04 0.32000000E+00 0.0000E+00 0.9000E+01
       25  1    1    2    0    0 -.19765166E+03 0.52797347E+03 -.47325182E+03 0.74660193E+03 0.12500000E+03 0.0000E+00 0.9000E+01
       -2  1    1    2    0  501 0.18426554E+03 -.55495699E+03 0.21615558E+03 0.62342151E+03 0.32000000E+00 0.0000E+00 0.9000E+01
        1  1    1    2  502    0 0.13386122E+02 0.26983520E+02 -.11357044E+04 0.11361038E+04 0.32000000E+00 0.0000E+00 0.9000E+01
#aMCatNLO 1  0  0  4  5 0.12194986D+03 0.00000000D+00  -5  6  0 0.00000000D+00 0.00000000D+00 0.00000000D+00 0.00000000D+00 0.00000000D+00
  <mgrwgt>
 0.7151347749D-03    6    2    0
 0.104172694960163D+04 0.000000000000000D+00 0.000000000000000D+00 0.104172694960163D+04
 0.104172694960163D+04 -.000000000000000D+00 -.000000000000000D+00 -.104172694960163D+04
 0.581666045688493D+03 -.197647351228896D+03 0.527953818551212D+03 -.700762351748677D+02
 0.894369429124016D+03 0.184259837831856D+03 -.554939817095761D+03 0.676747210792568D+03
 0.607418424390744D+03 0.133875133970395D+02 0.269859985445484D+02 -.606670975617700D+03
 0.000000000000000D+00 0.000000000000000D+00 0.000000000000000D+00 0.000000000000000D+00
 0.104172694960163D+04 0.000000000000000D+00 0.000000000000000D+00 0.104172694960163D+04
 0.104172694960163D+04 -.000000000000000D+00 -.000000000000000D+00 -.104172694960163D+04
 0.561735719479463D+03 -.191884528355113D+03 0.510597785304018D+03 -.489106119331763D+02
 0.809218665385995D+03 0.790126531134223D+02 -.573364886982539D+03 0.565548013375141D+03
 0.584987446523331D+03 0.193973203057487D+02 0.888611749644213D+01 -.584598232524426D+03
 0.127512067814465D+03 0.934745549359416D+02 0.538809841820789D+02 0.679608310824613D+02
0.172708461996D-02 0.000000000000D+00 0.000000000000D+00 0.149225592300D-04 0.000000000000D+00  6 -2 1 25 -2 1 21 0 0.85640510D-01 0.29991752D+00 0.35538543D+06 0.35538543D+06 0.35538543D+06 0.10791498D+01  1  2  2  3  6  4       -2 0.760324293671D-03 0.100000000000D+01
0.108734214459D-02 0.000000000000D+00 -.663245969249D-05 0.149225592300D-04 0.000000000000D+00  6 -2 1 25 -2 1 21 2 0.85640510D-01 0.29991752D+00 0.35538543D+06 0.35538543D+06 0.35538543D+06 0.10791498D+01  1  2  3  3  6  4       -2 0.557461611815D-03 0.100000000000D+01
-.121784798967D-02 0.000000000000D+00 0.000000000000D+00 0.149225592300D-04 0.000000000000D+00  6 -2 1 25 -2 1 21 2 0.85640510D-01 0.29991752D+00 0.35538543D+06 0.35538543D+06 0.35538543D+06 0.10791498D+01  1  2 15  3  6  4       -2 -.624369713475D-03 0.100000000000D+01
-.299653195463D-03 0.000000000000D+00 0.000000000000D+00 0.149225592300D-04 0.000000000000D+00  6 -2 1 25 -2 1 21 2 0.85640510D-01 0.29991752D+00 0.35538543D+06 0.35538543D+06 0.35538543D+06 0.10791498D+01  1  2  4  3  6  4       -2 -.153627038333D-03 0.100000000000D+01
-.224101658674D-02 0.000000000000D+00 0.000000000000D+00 0.149225592300D-04 0.000000000000D+00  6 -2 1 25 -2 1 21 2 0.85640510D-01 0.29991752D+00 0.35538543D+06 0.35538543D+06 0.35538543D+06 0.10791498D+01  1  2  5  3  6  4       -2 -.114893065147D-02 0.100000000000D+01
0.258303239521D-02 0.000000000000D+00 -.000000000000D+00 0.149225592300D-04 0.000000000000D+00  6 -2 1 25 -2 1 21 2 0.85640510D-01 0.29991752D+00 0.35538543D+06 0.35538543D+06 0.35538543D+06 0.10791498D+01  1  2  6  3  6  4       -2 0.132427627272D-02 0.100000000000D+01
  </mgrwgt>
  </event>
  <event>
  5     66 0.20292227E-05 0.26705263E+02 0.75467711E-02 0.92254390E-01
       -2 -1    0    0    0  501 0.00000000E+00 0.00000000E+00 0.78051023E+03 0.78051030E+03 0.32000000E+00 0.0000E+00 0.9000E+01
        1 -1    0    0  502    0 -.00000000E+00 -.00000000E+00 -.95833915E+03 0.95833920E+03 0.32000000E+00 0.0000E+00 0.9000E+01
       25  1    1    2    0    0 0.54063592E+03 0.51247705E+02 -.67662140E+02 0.56135256E+03 0.12500000E+03 0.0000E+00 0.9000E+01
       -2  1    1    2    0  501 -.21432276E+02 0.15944380E+02 0.42675018E+03 0.42758553E+03 0.32000000E+00 0.0000E+00 0.9000E+01
        1  1    1    2  502    0 -.51920365E+03 -.67192085E+02 -.53691696E+03 0.74991141E+03 0.32000000E+00 0.0000E+00 0.9000E+01
#aMCatNLO 1  0  0  4  1 0.66558464D+03 0.00000000D+00  -5  6  0 0.00000000D+00 0.00000000D+00 0.00000000D+00 0.00000000D+00 0.00000000D+00
  <mgrwgt>
 0.1523261870D-03    6    2    0
 0.864866238890213D+03 0.000000000000000D+00 0.000000000000000D+00 0.864866238890213D+03
 0.864866238890213D+03 -.000000000000000D+00 -.000000000000000D+00 -.864866238890213D+03
 0.557438042389098D+03 0.540721939793159D+03 0.512615066932024D+02 -.102084700350329D+02
 0.473581085839571D+03 -.214263485622018D+02 0.159399698960975D+02 0.472827530725517D+03
 0.698713349551758D+03 -.519295591230957D+03 -.672014765892999D+02 -.462619060690484D+03
 0.000000000000000D+00 0.000000000000000D+00 0.000000000000000D+00 0.000000000000000D+00
 0.864866238890213D+03 0.000000000000000D+00 0.000000000000000D+00 0.864866238890213D+03
 0.864866238890213D+03 -.000000000000000D+00 -.000000000000000D+00 -.864866238890213D+03
 0.556948346170693D+03 0.540282162560837D+03 0.515886756377314D+02 -.503653452561405D+00
 0.187601325427811D+03 -.886618607011037D+02 0.148423075845432D+01 0.165321289670584D+03
 0.691131911717698D+03 -.519844074511651D+03 -.667934366025805D+02 -.450515365350065D+03
 0.294050894464225D+03 0.682237726519177D+02 0.137205302063947D+02 0.285697729132042D+03
0.104735072418D-03 0.000000000000D+00 0.000000000000D+00 0.761856141656D-05 0.000000000000D+00  6 -2 1 25 -2 1 21 0 0.12007851D+00 0.14743680D+00 0.30673631D+06 0.30673631D+06 0.30673631D+06 0.10838391D+01  1  2  2  3  6  4       -2 0.994831713064D-04 0.100000000000D+01
0.654377409720D-04 0.000000000000D+00 -.402210255463D-06 0.761856141656D-05 0.000000000000D+00  6 -2 1 25 -2 1 21 2 0.12007851D+00 0.14743680D+00 0.30673631D+06 0.30673631D+06 0.30673631D+06 0.10838391D+01  1  2  3  3  6  4       -2 0.730155565748D-04 0.100000000000D+01
-.676370759534D-04 0.000000000000D+00 0.000000000000D+00 0.761856141656D-05 0.000000000000D+00  6 -2 1 25 -2 1 21 2 0.12007851D+00 0.14743680D+00 0.30673631D+06 0.30673631D+06 0.30673631D+06 0.10838391D+01  1  2 15  3  6  4       -2 -.754695787548D-04 0.100000000000D+01
-.248778346117D-05 0.000000000000D+00 0.000000000000D+00 0.761856141656D-05 0.000000000000D+00  6 -2 1 25 -2 1 21 2 0.12007851D+00 0.14743680D+00 0.30673631D+06 0.30673631D+06 0.30673631D+06 0.10838391D+01  1  2  4  3  6  4       -2 -.277587354570D-05 0.100000000000D+01
-.695154499522D-04 0.000000000000D+00 0.000000000000D+00 0.761856141656D-05 0.000000000000D+00  6 -2 1 25 -2 1 21 2 0.12007851D+00 0.14743680D+00 0.30673631D+06 0.30673631D+06 0.30673631D+06 0.10838391D+01  1  2  5  3  6  4       -2 -.775654720564D-04 0.100000000000D+01
0.121561346886D-03 0.000000000000D+00 -.000000000000D+00 0.761856141656D-05 0.000000000000D+00  6 -2 1 25 -2 1 21 2 0.12007851D+00 0.14743680D+00 0.30673631D+06 0.30673631D+06 0.30673631D+06 0.10838391D+01  1  2  6  3  6  4       -2 0.135638383431D-03 0.100000000000D+01
  </mgrwgt>
  </event>
  <event>
  5     66 0.20292227E-05 0.15067561E+03 0.75467711E-02 0.90272487E-01
       -2 -1    0    0    0  501 0.00000000E+00 0.00000000E+00 0.16058894E+03 0.16058926E+03 0.32000000E+00 0.0000E+00 0.9000E+01
        1 -1    0    0  502    0 -.00000000E+00 -.00000000E+00 -.52766966E+04 0.52766966E+04 0.32000000E+00 0.0000E+00 0.9000E+01
       25  1    1    2    0    0 -.65317295E+03 -.36031616E+02 -.26203544E+04 0.27036671E+04 0.12500000E+03 0.0000E+00 0.9000E+01
       -2  1    1    2    0  501 0.14895229E+03 0.22931618E+02 0.33647325E+02 0.15441790E+03 0.32000000E+00 0.0000E+00 0.9000E+01
        1  1    1    2  502    0 0.50422066E+03 0.13099998E+02 -.25294005E+04 0.25792009E+04 0.32000000E+00 0.0000E+00 0.9000E+01
#aMCatNLO 1  0  0  4  5 0.13163371D+03 0.00000000D+00  -5  6  0 0.00000000D+00 0.00000000D+00 0.00000000D+00 0.00000000D+00 0.00000000D+00
  <mgrwgt>
 0.4941035254D-05    7    2    0
 0.920532453611861D+03 0.000000000000000D+00 0.000000000000000D+00 0.920532453611861D+03
 0.920532453611861D+03 -.000000000000000D+00 -.000000000000000D+00 -.920532453611861D+03
 0.703205823711439D+03 -.653242129786312D+03 -.360320244934010D+02 -.225499098855925D+03
 0.549435121452250D+03 0.148921119448625D+03 0.229268198825378D+02 0.528370905517602D+03
 0.588423962060033D+03 0.504321010337687D+03 0.131052046108632D+02 -.302871806661677D+03
 0.000000000000000D+00 0.000000000000000D+00 0.000000000000000D+00 0.000000000000000D+00
 0.920532453611861D+03 0.000000000000000D+00 0.000000000000000D+00 0.920532453611861D+03
 0.920532453611861D+03 -.000000000000000D+00 -.000000000000000D+00 -.920532453611861D+03
 0.685570453602768D+03 -.644490738479909D+03 -.346847234997852D+02 -.194449234563856D+03
 0.171629254168713D+03 -.849123014279746D+02 0.617345638604011D+02 0.135776822682222D+03
 0.581894895065727D+03 0.511695789443057D+03 0.142405723333750D+02 -.276706151123206D+03
 0.401970304386514D+03 0.217707250464827D+03 -.412904126939909D+02 0.335378563004840D+03
0.250839039527D-02 0.000000000000D+00 0.000000000000D+00 0.185666029966D-06 0.000000000000D+00  6 -2 1 25 -2 1 21 0 0.24706016D-01 0.81179950D+00 0.43641639D+06 0.43641639D+06 0.43641639D+06 0.10727103D+01  1  2  2  3  6  4       -2 0.938796186488D-05 0.100000000000D+01
0.369050539947D-03 0.000000000000D+00 -.963287959220D-05 0.185666029966D-06 0.000000000000D+00  6 -2 1 25 -2 1 21 2 0.24706016D-01 0.81179950D+00 0.43641639D+06 0.43641639D+06 0.43641639D+06 0.10727103D+01  1  2  3  3  6  4       -2 0.158937697342D-05 0.100000000000D+01
-.163529620615D-02 0.000000000000D+00 0.000000000000D+00 0.185666029966D-06 0.000000000000D+00  6 -2 1 25 -2 1 21 2 0.24706016D-01 0.81179950D+00 0.43641639D+06 0.43641639D+06 0.43641639D+06 0.10727103D+01  1  2 15  3  6  4       -2 -.704267262462D-05 0.100000000000D+01
0.179755220783D-06 0.000000000000D+00 0.000000000000D+00 0.185666029966D-06 0.000000000000D+00  6 -2 1 25 -2 1 21 2 0.24706016D-01 0.81179950D+00 0.55941479D+06 0.55941479D+06 0.55941479D+06 0.10650810D+01  1  2 12  3  6  4       -2 0.741252157712D-09 0.100000000000D+01
-.216425314911D-03 0.000000000000D+00 0.000000000000D+00 0.185666029966D-06 0.000000000000D+00  6 -2 1 25 -2 1 21 2 0.24706016D-01 0.81179950D+00 0.43641639D+06 0.43641639D+06 0.43641639D+06 0.10727103D+01  1  2  4  3  6  4       -2 -.932071287675D-06 0.100000000000D+01
-.519783742978D-03 0.000000000000D+00 0.000000000000D+00 0.185666029966D-06 0.000000000000D+00  6 -2 1 25 -2 1 21 2 0.24706016D-01 0.81179950D+00 0.43641639D+06 0.43641639D+06 0.43641639D+06 0.10727103D+01  1  2  5  3  6  4       -2 -.223853435458D-05 0.100000000000D+01
0.969714063028D-03 0.000000000000D+00 -.000000000000D+00 0.185666029966D-06 0.000000000000D+00  6 -2 1 25 -2 1 21 2 0.24706016D-01 0.81179950D+00 0.43641639D+06 0.43641639D+06 0.43641639D+06 0.10727103D+01  1  2  6  3  6  4       -2 0.417623343079D-05 0.100000000000D+01
  </mgrwgt>
  </event>
  <event>
  5     66 -.20292227E-05 0.13556487E+02 0.75467711E-02 0.92884492E-01
       -2 -1    0    0    0  501 0.00000000E+00 0.00000000E+00 0.44500199E+03 0.44500211E+03 0.32000000E+00 0.0000E+00 0.9000E+01
        1 -1    0    0  502    0 -.00000000E+00 -.00000000E+00 -.11219681E+04 0.11219682E+04 0.32000000E+00 0.0000E+00 0.9000E+01
       25  1    1    2    0    0 -.85801211E+02 0.57148645E+03 -.16857721E+01 0.59125837E+03 0.12500000E+03 0.0000E+00 0.9000E+01
       -2  1    1    2    0  501 0.29466577E+01 -.13277357E+02 0.52807093E+02 0.54531298E+02 0.32000000E+00 0.0000E+00 0.9000E+01
        1  1    1    2  502    0 0.82854553E+02 -.55820910E+03 -.72808745E+03 0.92118060E+03 0.32000000E+00 0.0000E+00 0.9000E+01
#aMCatNLO 1  0  0  4  5 0.13163371D+03 0.00000000D+00  -5  6  0 0.00000000D+00 0.00000000D+00 0.00000000D+00 0.00000000D+00 0.00000000D+00
  <mgrwgt>
 -.6283551584D-04    1    2    0
 0.706596188061640D+03 0.000000000000000D+00 0.000000000000000D+00 0.706596188061640D+03
 0.706596188061640D+03 -.000000000000000D+00 -.000000000000000D+00 -.706596188061640D+03
 0.654972930227679D+03 -.858130583718001D+02 0.571581901809184D+03 0.281593302242980D+03
 0.854839976353257D+02 0.293714260571263D+01 -.132344828157449D+02 0.844022245537985D+02
 0.672735448260276D+03 0.828759157660875D+02 -.558347418993439D+03 -.365995526796779D+03
 0.000000000000000D+00 0.000000000000000D+00 -.000000000000000D+00 0.000000000000000D+00
 0.706596188061640D+03 0.000000000000000D+00 0.000000000000000D+00 0.706596188061640D+03
 0.706596188061640D+03 -.000000000000000D+00 -.000000000000000D+00 -.706596188061640D+03
 0.655872697467583D+03 -.857053694240565D+02 0.571096665741454D+03 0.284687869980939D+03
 0.725992592206507D+02 0.116369976064875D+02 -.500038379662277D+01 0.714858649523128D+02
 0.671442075171158D+03 0.829863430048261D+02 -.558844993537703D+03 -.362822271067640D+03
 0.132783442638891D+02 -.891797118725713D+01 -.725128840712752D+01 0.664853613438821D+01
-.202481398773D-04 0.000000000000D+00 0.000000000000D+00 0.676092835241D-06 0.000000000000D+00  6 -2 1 25 -2 1 21 2 0.68461857D-01 0.17261049D+00 0.34185714D+06 0.34185714D+06 0.34185714D+06 0.10803800D+01  1  2 14  3  6  4       -2 -.628355158401D-04 0.100000000000D+01
  </mgrwgt>
  </event>
  <event>
  5     66 0.20292227E-05 0.25132069E+02 0.75467711E-02 0.94413903E-01
       -2 -1    0    0    0  501 0.00000000E+00 0.00000000E+00 0.66310540E+03 0.66310548E+03 0.32000000E+00 0.0000E+00 0.9000E+01
        1 -1    0    0  502    0 0.00000000E+00 0.00000000E+00 -.54961382E+03 0.54961391E+03 0.32000000E+00 0.0000E+00 0.9000E+01
       25  1    1    2    0    0 -.44150648E+03 -.21378578E+03 0.23855684E+03 0.55961298E+03 0.12500000E+03 0.0000E+00 0.9000E+01
       -2  1    1    2    0  501 0.17595512E+02 0.18023027E+02 0.12218453E+03 0.12475413E+03 0.32000000E+00 0.0000E+00 0.9000E+01
        1  1    1    2  502    0 0.42391096E+03 0.19576275E+03 -.24724979E+03 0.52835227E+03 0.32000000E+00 0.0000E+00 0.9000E+01
#aMCatNLO 1  0  0  2  5 0.18296333D+02 0.00000000D+00  -5  6  0 0.00000000D+00 0.00000000D+00 0.00000000D+00 0.00000000D+00 0.00000000D+00
  <mgrwgt>
 0.2530938717D-02   11    2    0
 0.603698596296702D+03 0.000000000000000D+00 0.000000000000000D+00 0.603698596296702D+03
 0.603698596296702D+03 0.000000000000000D+00 0.000000000000000D+00 -.603698596296702D+03
 0.539809067098065D+03 -.441591137188334D+03 -.213809309554202D+03 0.187220927318377D+03
 0.113566232672239D+03 0.175564928960111D+02 0.179830601299981D+02 0.110750477691603D+03
 0.554021892823099D+03 0.424034644292323D+03 0.195826249424204D+03 -.297971405009980D+03
 0.000000000000000D+00 -.000000000000000D+00 -.000000000000000D+00 -.000000000000000D+00
 0.605502076744905D+03 0.000000000000000D+00 0.000000000000000D+00 0.605502076744905D+03
 0.652026674094094D+03 0.000000000000000D+00 0.000000000000000D+00 -.652026674094094D+03
 0.533742809990202D+03 -.437563883025820D+03 -.206742738352890D+03 0.187220927318377D+03
 0.113947756948108D+03 0.184099743916739D+02 0.194806531585787D+02 0.110750477691603D+03
 0.559845244741692D+03 0.428213134556261D+03 0.203158192672027D+03 -.297971405009980D+03
 0.499929391589965D+02 -.905922592211567D+01 -.158961074777157D+02 -.465245973491884D+02
0.278937439349D-04 0.000000000000D+00 0.000000000000D+00 0.726377670967D-06 0.000000000000D+00  6 -2 1 25 -2 1 21 0 0.10201623D+00 0.84555986D-01 0.24925223D+06 0.24925223D+06 0.24925223D+06 0.10905570D+01  1  2  2  2  6  2        1 0.951917358814D-04 0.100000000000D+01
0.970988922151D-05 0.000000000000D+00 -.107119321302D-06 0.726377670967D-06 0.000000000000D+00  6 -2 1 25 -2 1 21 2 0.10201623D+00 0.84555986D-01 0.24925223D+06 0.24925223D+06 0.24925223D+06 0.10905570D+01  1  2  3  2  6  2        1 0.394097286420D-04 0.100000000000D+01
-.201979587991D-04 0.000000000000D+00 0.000000000000D+00 0.726377670967D-06 0.000000000000D+00  6 -2 1 25 -2 1 21 2 0.10201623D+00 0.84555986D-01 0.24925223D+06 0.24925223D+06 0.24925223D+06 0.10905570D+01  1  2 15  2  6  2        1 -.819778740250D-04 0.100000000000D+01
0.117704402740D-05 0.000000000000D+00 0.000000000000D+00 0.726377670967D-06 0.000000000000D+00  6 -2 1 25 -2 1 21 2 0.10201623D+00 0.91445471D-01 0.25953481D+06 0.25953481D+06 0.25953481D+06 0.10892383D+01  1  2 12  2  6  2        1 0.425140076746D-05 0.100000000000D+01
0.130015471549D-02 0.000000000000D+00 0.000000000000D+00 0.726377670967D-06 0.000000000000D+00  6 -2 1 25 -2 1 21 2 0.10201623D+00 0.91928879D-01 0.25953481D+06 0.25953481D+06 0.25953481D+06 0.10892383D+01  1  2 12  2  6  2        1 0.466023084180D-02 0.100000000000D+01
-.735148405060D-03 0.000000000000D+00 0.000000000000D+00 0.726377670967D-06 0.000000000000D+00  6 -2 1 25 -2 1 21 2 0.10201623D+00 0.84555986D-01 0.24925223D+06 0.24925223D+06 0.24925223D+06 0.10905570D+01  1  2  4  2  6  2        1 -.298376206918D-02 0.100000000000D+01
-.193502662705D-02 0.000000000000D+00 -.111735203265D-03 0.726377670967D-06 0.000000000000D+00  6 -2 1 25 -2 1 21 2 0.10201623D+00 0.91458490D-01 0.24925223D+06 0.24925223D+06 0.24925223D+06 0.10905570D+01  1  2  5  2  6  2        1 -.701577820901D-02 0.100000000000D+01
0.193816733741D-02 0.000000000000D+00 0.111392064869D-03 0.726377670967D-06 0.000000000000D+00  6 -2 1 25 -2 1 21 2 0.10201623D+00 0.84555986D-01 0.24925223D+06 0.24925223D+06 0.24925223D+06 0.10905570D+01  1  2  6  2  6  2        1 0.786647994510D-02 0.100000000000D+01
0.168249701942D-07 0.000000000000D+00 0.000000000000D+00 0.726377670967D-06 0.000000000000D+00  6 -2 21 25 -2 1 -1 2 0.10201623D+00 0.91445471D-01 0.25953481D+06 0.25953481D+06 0.25953481D+06 0.10892383D+01  1  2 12  6  6  2        1 0.148299214190D-06 0.100000000000D+01
0.196906080336D-04 0.000000000000D+00 0.000000000000D+00 0.726377670967D-06 0.000000000000D+00  6 -2 21 25 -2 1 -1 2 0.10201623D+00 0.91928879D-01 0.25953481D+06 0.25953481D+06 0.25953481D+06 0.10892383D+01  1  2 12  6  6  2        1 0.171266461604D-03 0.100000000000D+01
-.253439441031D-04 0.000000000000D+00 -.146704358198D-05 0.726377670967D-06 0.000000000000D+00  6 -2 21 25 -2 1 -1 2 0.10201623D+00 0.91458490D-01 0.24925223D+06 0.24925223D+06 0.24925223D+06 0.10905570D+01  1  2  5  6  6  2        1 -.224521543328D-03 0.100000000000D+01
  </mgrwgt>
  </event>
  <event>
  5     66 -.20292227E-05 0.18273842E+03 0.75467711E-02 0.93301020E-01
       -2 -1    0    0    0  501 0.00000000E+00 0.00000000E+00 0.15109765E+04 0.15109765E+04 0.32000000E+00 0.0000E+00 0.9000E+01
        1 -1    0    0  502    0 -.00000000E+00 -.00000000E+00 -.22567068E+04 0.22567069E+04 0.32000000E+00 0.0000E+00 0.9000E+01
       25  1    1    2    0    0 -.35290174E+03 -.37093641E+03 -.47851551E+03 0.71185360E+03 0.12500000E+03 0.0000E+00 0.9000E+01
       -2  1    1    2    0  501 0.18270918E+03 0.33818996E+01 0.13634352E+04 0.13756270E+04 0.32000000E+00 0.0000E+00 0.9000E+01
        1  1    1    2  502    0 0.17019256E+03 0.36755451E+03 -.16306500E+04 0.16802028E+04 0.32000000E+00 0.0000E+00 0.9000E+01
#aMCatNLO 1  0  0  4  5 0.36292483D+02 0.00000000D+00  -5  6  0 0.00000000D+00 0.00000000D+00 0.00000000D+00 0.00000000D+00 0.00000000D+00
  <mgrwgt>
 -.3065974761D-04    7    2    0
 0.184657278371606D+04 0.000000000000000D+00 0.000000000000000D+00 0.184657278371606D+04
 0.184657278371606D+04 -.000000000000000D+00 -.000000000000000D+00 -.184657278371606D+04
 0.629600061843389D+03 -.352911691365667D+03 -.370957649902467D+03 -.344405281535377D+03
 0.167868067703069D+04 0.182707121149517D+03 0.338186153644328D+01 0.166870473311788D+04
 0.138486482855804D+04 0.170204570216150D+03 0.367575788366024D+03 -.132429945158250D+04
 0.000000000000000D+00 0.000000000000000D+00 0.000000000000000D+00 0.000000000000000D+00
 0.184657278371606D+04 0.000000000000000D+00 0.000000000000000D+00 0.184657278371606D+04
 0.184657278371606D+04 -.000000000000000D+00 -.000000000000000D+00 -.184657278371606D+04
 0.629331375583644D+03 -.352863413963189D+03 -.370956756300239D+03 -.343964353291805D+03
 0.136816845571833D+04 0.128869207429738D+03 -.274523479711832D+02 0.136180909792452D+04
 0.138395110259341D+04 0.170310748548917D+03 0.367577753699489D+03 -.132332970127760D+04
 0.311694633536726D+03 0.536834579845347D+02 0.308313505719330D+02 0.305484956644885D+03
0.691338928466D-03 0.000000000000D+00 0.000000000000D+00 0.420996830840D-04 0.000000000000D+00  6 -2 1 25 -2 1 21 0 0.23245792D+00 0.34718567D+00 0.31072698D+06 0.31072698D+06 0.31072698D+06 0.10834248D+01  1  2  2  3  6  4       -2 0.121821143984D-04 0.100000000000D+01
0.113068434671D-03 0.000000000000D+00 -.265492351903D-05 0.420996830840D-04 0.000000000000D+00  6 -2 1 25 -2 1 21 2 0.23245792D+00 0.34718567D+00 0.31072698D+06 0.31072698D+06 0.31072698D+06 0.10834248D+01  1  2  3  3  6  4       -2 0.233867899731D-05 0.100000000000D+01
-.501002165009D-03 0.000000000000D+00 0.000000000000D+00 0.420996830840D-04 0.000000000000D+00  6 -2 1 25 -2 1 21 2 0.23245792D+00 0.34718567D+00 0.31072698D+06 0.31072698D+06 0.31072698D+06 0.10834248D+01  1  2 15  3  6  4       -2 -.103626024745D-04 0.100000000000D+01
0.135614739139D-08 0.000000000000D+00 0.000000000000D+00 0.420996830840D-04 0.000000000000D+00  6 -2 1 25 -2 1 21 2 0.23245792D+00 0.34718567D+00 0.31685680D+06 0.31685680D+06 0.31685680D+06 0.10827997D+01  1  2 12  3  6  4       -2 0.279628907125D-10 0.100000000000D+01
-.128536655273D-01 0.000000000000D+00 0.000000000000D+00 0.420996830840D-04 0.000000000000D+00  6 -2 1 25 -2 1 21 2 0.23245792D+00 0.34718567D+00 0.31072698D+06 0.31072698D+06 0.31072698D+06 0.10834248D+01  1  2  4  3  6  4       -2 -.265861977258D-03 0.100000000000D+01
-.551459326773D-01 0.000000000000D+00 0.000000000000D+00 0.420996830840D-04 0.000000000000D+00  6 -2 1 25 -2 1 21 2 0.23245792D+00 0.34718567D+00 0.31072698D+06 0.31072698D+06 0.31072698D+06 0.10834248D+01  1  2  5  3  6  4       -2 -.114062456878D-02 0.100000000000D+01
0.663162491965D-01 0.000000000000D+00 -.000000000000D+00 0.420996830840D-04 0.000000000000D+00  6 -2 1 25 -2 1 21 2 0.23245792D+00 0.34718567D+00 0.31072698D+06 0.31072698D+06 0.31072698D+06 0.10834248D+01  1  2  6  3  6  4       -2 0.137166857955D-02 0.100000000000D+01
  </mgrwgt>
  </event>
  <event>
  5     66 0.20292227E-05 0.20015560E+02 0.75467711E-02 0.93732753E-01
       -2 -1    0    0    0  501 0.00000000E+00 0.00000000E+00 0.20196593E+03 0.20196618E+03 0.32000000E+00 0.0000E+00 0.9000E+01
        1 -1    0    0  502    0 -.00000000E+00 -.00000000E+00 -.24836785E+04 0.24836785E+04 0.32000000E+00 0.0000E+00 0.9000E+01
       25  1    1    2    0    0 -.42380187E+03 -.32183892E+03 -.10088908E+04 0.11474642E+04 0.12500000E+03 0.0000E+00 0.9000E+01
       -2  1    1    2    0  501 0.41793020E+03 0.30270641E+03 -.36961883E+03 0.63475587E+03 0.32000000E+00 0.0000E+00 0.9000E+01
        1  1    1    2  502    0 0.58716647E+01 0.19132515E+02 -.90320290E+03 0.90342466E+03 0.32000000E+00 0.0000E+00 0.9000E+01
#aMCatNLO 1  0  0  5  2 0.10811876D+01 0.00000000D+00  -5  6  0 0.00000000D+00 0.00000000D+00 0.00000000D+00 0.00000000D+00 0.00000000D+00
  <mgrwgt>
 0.7444483197D-03    9    2    0
 0.708250519510870D+03 0.000000000000000D+00 0.000000000000000D+00 0.708250519510870D+03
 0.708250519510870D+03 -.000000000000000D+00 -.000000000000000D+00 -.708250519510870D+03
 0.550409360682319D+03 -.423789948594014D+03 -.321831841607161D+03 -.644345367419197D+02
 0.608074626959832D+03 0.417917429410457D+03 0.302697156407078D+03 0.321674067419747D+03
 0.258017051379587D+03 0.587251918355640D+01 0.191346852000837D+02 -.257239530677828D+03
 0.000000000000000D+00 0.000000000000000D+00 0.000000000000000D+00 -.000000000000000D+00
 0.708250519510870D+03 0.000000000000000D+00 0.000000000000000D+00 0.708250519510870D+03
 0.708250519510870D+03 -.000000000000000D+00 -.000000000000000D+00 -.708250519510870D+03
 0.550410067486423D+03 -.423789660494104D+03 -.321830902878668D+03 -.644471566556825D+02
 0.608067986709903D+03 0.417917747692065D+03 0.302698193477913D+03 0.321660125428431D+03
 0.238606667353200D+03 0.600875760281034D+01 0.186051003259783D+02 -.237804303534085D+03
 0.194163174722138D+02 -.136844800772023D+00 0.527609074776926D+00 -.194086652386637D+02
0.123308862271D-05 0.000000000000D+00 0.000000000000D+00 0.233960168473D-05 0.000000000000D+00  6 -2 1 25 -2 1 21 0 0.31071702D-01 0.38210441D+00 0.29304040D+06 0.29304040D+06 0.29304040D+06 0.10853069D+01  1  2  2  4  6  5        1 0.184272625304D-05 0.100000000000D+01
0.737073784960D-06 0.000000000000D+00 -.473538499089D-08 0.233960168473D-05 0.000000000000D+00  6 -2 1 25 -2 1 21 2 0.31071702D-01 0.38210441D+00 0.29304040D+06 0.29304040D+06 0.29304040D+06 0.10853069D+01  1  2  3  4  6  5        1 0.129742596896D-05 0.100000000000D+01
-.809051928688D-06 0.000000000000D+00 0.000000000000D+00 0.233960168473D-05 0.000000000000D+00  6 -2 1 25 -2 1 21 2 0.31071702D-01 0.38210441D+00 0.29304040D+06 0.29304040D+06 0.29304040D+06 0.10853069D+01  1  2 15  4  6  5        1 -.142412469950D-05 0.100000000000D+01
0.357514673707D-12 0.000000000000D+00 0.000000000000D+00 0.233960168473D-05 0.000000000000D+00  6 -2 1 25 -2 1 21 2 0.31071702D-01 0.38210441D+00 0.29308422D+06 0.29308422D+06 0.29308422D+06 0.10853020D+01  1  2 12  4  6  5        1 0.629300051966D-12 0.100000000000D+01
0.521876760863D-08 0.000000000000D+00 0.000000000000D+00 0.233960168473D-05 0.000000000000D+00  6 -2 1 25 -2 1 21 2 0.31071702D-01 0.38210441D+00 0.29308422D+06 0.29308422D+06 0.29308422D+06 0.10853020D+01  1  2 12  4  6  5        1 0.918611449780D-08 0.100000000000D+01
-.673511228216D-02 0.000000000000D+00 0.000000000000D+00 0.233960168473D-05 0.000000000000D+00  6 -2 1 25 -2 1 21 2 0.31071702D-01 0.38210441D+00 0.29304040D+06 0.29304040D+06 0.29304040D+06 0.10853069D+01  1  2  4  4  6  5        1 -.118554068223D-01 0.100000000000D+01
-.257369101586D-02 0.000000000000D+00 0.000000000000D+00 0.233960168473D-05 0.000000000000D+00  6 -2 1 25 -2 1 21 2 0.31071702D-01 0.38210441D+00 0.29304040D+06 0.29304040D+06 0.29304040D+06 0.10853069D+01  1  2  5  4  6  5        1 -.453031111428D-02 0.100000000000D+01
0.284074292042D-02 0.000000000000D+00 -.000000000000D+00 0.233960168473D-05 0.000000000000D+00  6 -2 1 25 -2 1 21 2 0.31071702D-01 0.38210441D+00 0.29304040D+06 0.29304040D+06 0.29304040D+06 0.10853069D+01  1  2  6  4  6  5        1 0.500038627244D-02 0.100000000000D+01
0.689012742026D-02 0.000000000000D+00 0.000000000000D+00 0.233960168473D-05 0.845720189317D-04  6 -2 1 25 -2 1 21 2 0.31071702D-01 0.38210441D+00 0.29308422D+06 0.29308422D+06 0.29308422D+06 0.10853020D+01  1  2 11  4  6  5        1 0.121280547695D-01 0.100000000000D+01
  </mgrwgt>
  </event>
  <event>
  5     66 0.20292227E-05 0.81564540E+02 0.75467711E-02 0.92709437E-01
       -2 -1    0    0    0  501 0.00000000E+00 0.00000000E+00 0.11425699E+04 0.11425700E+04 0.32000000E+00 0.0000E+00 0.9000E+01
        1 -1    0    0  502    0 0.00000000E+00 0.00000000E+00 -.13769645E+04 0.13769645E+04 0.32000000E+00 0.0000E+00 0.9000E+01
       25  1    1    2    0    0 0.50914020E+03 0.10818134E+03 -.12517767E+03 0.54974666E+03 0.12500000E+03 0.0000E+00 0.9000E+01
       -2  1    1    2    0  501 -.72328838E+02 0.37711325E+02 0.87729313E+03 0.88107715E+03 0.32000000E+00 0.0000E+00 0.9000E+01
        1  1    1    2  502    0 -.43681136E+03 -.14589267E+03 -.98651002E+03 0.10887107E+04 0.32000000E+00 0.0000E+00 0.9000E+01
#aMCatNLO 1  0  0  1  4 0.12818380D+02 0.00000000D+00  -5  6  0 0.00000000D+00 0.00000000D+00 0.00000000D+00 0.00000000D+00 0.00000000D+00
  <mgrwgt>
 0.1507616579D-02    7    2    0
 0.125430391883556D+04 0.000000000000000D+00 0.000000000000000D+00 0.125430391883556D+04
 0.125430391883556D+04 0.000000000000000D+00 0.000000000000000D+00 -.125430391883556D+04
 0.540482398144001D+03 0.509184961182198D+03 0.108198137487567D+03 -.742971133597734D+02
 0.966825279737192D+03 -.723243232748133D+02 0.377089712246990D+02 0.963378610563321D+03
 0.100130015978992D+04 -.436860637907385D+03 -.145907108712266D+03 -.889081497203548D+03
 0.000000000000000D+00 0.000000000000000D+00 0.000000000000000D+00 0.000000000000000D+00
 0.165857838103939D+04 0.000000000000000D+00 0.000000000000000D+00 0.165857838103939D+04
 0.126038516302397D+04 0.000000000000000D+00 0.000000000000000D+00 -.126038516302397D+04
 0.530058679891856D+03 0.501701764237963D+03 0.900693223890248D+02 -.742971133597734D+02
 0.967208363480899D+03 -.858434258537933D+02 0.495755324399934D+01 0.963378610563321D+03
 0.101302529065242D+04 -.450940988829652D+03 -.180018208593045D+03 -.889081497203548D+03
 0.408671210038184D+03 0.350826504454823D+02 0.849913329600205D+02 0.398193218015416D+03
0.521571412521D-03 0.000000000000D+00 0.000000000000D+00 0.354407911191D-04 0.000000000000D+00  6 -2 1 25 -2 1 21 0 0.17578000D+00 0.21184070D+00 0.29025066D+06 0.29025066D+06 0.29025066D+06 0.10856150D+01  1  2  2  1  6  1       -2 0.872618334648D-04 0.100000000000D+01
0.169365882506D-03 0.000000000000D+00 -.200297155699D-05 0.354407911191D-04 0.000000000000D+00  6 -2 1 25 -2 1 21 2 0.17578000D+00 0.21184070D+00 0.29025066D+06 0.29025066D+06 0.29025066D+06 0.10856150D+01  1  2  3  1  6  1       -2 0.333955153896D-04 0.100000000000D+01
-.335911940850D-03 0.000000000000D+00 0.000000000000D+00 0.354407911191D-04 0.000000000000D+00  6 -2 1 25 -2 1 21 2 0.17578000D+00 0.21184070D+00 0.29025066D+06 0.29025066D+06 0.29025066D+06 0.10856150D+01  1  2 15  1  6  1       -2 -.662350186724D-04 0.100000000000D+01
-.739886115212D-03 0.000000000000D+00 0.000000000000D+00 0.354407911191D-04 0.000000000000D+00  6 -2 1 25 -2 1 21 2 0.17578000D+00 0.21184070D+00 0.29025066D+06 0.29025066D+06 0.29025066D+06 0.10856150D+01  1  2  4  1  6  1       -2 -.145890528728D-03 0.100000000000D+01
-.179924879813D-01 0.000000000000D+00 -.602370015567D-03 0.354407911191D-04 0.000000000000D+00  6 -2 1 25 -2 1 21 2 0.23281906D+00 0.21184070D+00 0.29025066D+06 0.29025066D+06 0.29025066D+06 0.10856150D+01  1  2  5  1  6  1       -2 -.145090182339D-02 0.100000000000D+01
0.174896041857D-01 0.000000000000D+00 0.579341732208D-03 0.354407911191D-04 0.000000000000D+00  6 -2 1 25 -2 1 21 2 0.17578000D+00 0.21184070D+00 0.29025066D+06 0.29025066D+06 0.29025066D+06 0.10856150D+01  1  2  6  1  6  1       -2 0.344859506000D-02 0.100000000000D+01
-.651165261533D-03 0.000000000000D+00 -.222084817582D-04 0.354407911191D-04 0.000000000000D+00  6 21 1 25 -2 1 2 2 0.23281906D+00 0.21184070D+00 0.29025066D+06 0.29025066D+06 0.29025066D+06 0.10856150D+01  1  2  5  5  6  1       -2 -.398608459260D-03 0.100000000000D+01
  </mgrwgt>
  </event>
  <event>
  5     66 -.20292227E-05 0.82705502E+02 0.75467711E-02 0.91656553E-01
       -2 -1    0    0    0  501 0.00000000E+00 0.00000000E+00 0.22898799E+04 0.22898799E+04 0.32000000E+00 0.0000E+00 0.9000E+01
        1 -1    0    0  502    0 0.00000000E+00 0.00000000E+00 -.38623936E+03 0.38623950E+03 0.32000000E+00 0.0000E+00 0.9000E+01
       25  1    1    2    0    0 0.57446347E+03 -.10945819E+03 0.63754638E+03 0.87411656E+03 0.12500000E+03 0.0000E+00 0.9000E+01
       -2  1    1    2    0  501 0.26542204E+02 -.78357065E+02 0.11606160E+04 0.11635609E+04 0.32000000E+00 0.0000E+00 0.9000E+01
        1  1    1    2  502    0 -.60100567E+03 0.18781526E+03 0.10547813E+03 0.63844195E+03 0.32000000E+00 0.0000E+00 0.9000E+01
#aMCatNLO 1  0  0  4  1 0.87141242D+01 0.00000000D+00  -5  6  0 0.00000000D+00 0.00000000D+00 0.00000000D+00 0.00000000D+00 0.00000000D+00
  <mgrwgt>
 -.3424906534D-02    9    2    0
 0.940447740177433D+03 0.000000000000000D+00 0.000000000000000D+00 0.940447740177433D+03
 0.940447740177433D+03 -.000000000000000D+00 -.000000000000000D+00 -.940447740177433D+03
 0.598535524761237D+03 0.574563847242717D+03 -.109500044700639D+03 0.224922220648828D+02
 0.480707130672724D+03 0.265342174489743D+02 -.783334879671606D+02 0.473538958742438D+03
 0.801652824920905D+03 -.601098064691691D+03 0.187833532667799D+03 -.496031180807321D+03
 0.000000000000000D+00 0.000000000000000D+00 0.000000000000000D+00 0.000000000000000D+00
 0.940447740177433D+03 0.000000000000000D+00 0.000000000000000D+00 0.940447740177433D+03
 0.940447740177433D+03 -.000000000000000D+00 -.000000000000000D+00 -.940447740177433D+03
 0.598552107712981D+03 0.574571479501638D+03 -.109522576417036D+03 0.226284300366996D+02
 0.365826041989639D+03 0.237527476889104D+02 -.674062712390072D+02 0.358776942643595D+03
 0.801525231008984D+03 -.601087843326364D+03 0.187803357472342D+03 -.495848766733751D+03
 0.114992099643262D+03 0.276361613581562D+01 -.108745098162984D+02 0.114443394053457D+03
0.116578264425D-03 0.000000000000D+00 0.000000000000D+00 0.101983069765D-05 0.000000000000D+00  6 -2 1 25 -2 1 21 0 0.35228922D+00 0.59421452D-01 0.42940523D+06 0.42940523D+06 0.42940523D+06 0.10732138D+01  1  2  2  3  6  4       -2 0.100797787469D-04 0.100000000000D+01
0.311288445692D-04 0.000000000000D+00 -.447691231153D-06 0.101983069765D-05 0.000000000000D+00  6 -2 1 25 -2 1 21 2 0.35228922D+00 0.59421452D-01 0.42940523D+06 0.42940523D+06 0.42940523D+06 0.10732138D+01  1  2  3  3  6  4       -2 0.310005135275D-05 0.100000000000D+01
-.811649889760D-04 0.000000000000D+00 0.000000000000D+00 0.101983069765D-05 0.000000000000D+00  6 -2 1 25 -2 1 21 2 0.35228922D+00 0.59421452D-01 0.42940523D+06 0.42940523D+06 0.42940523D+06 0.10732138D+01  1  2 15  3  6  4       -2 -.808303801035D-05 0.100000000000D+01
0.363855416576D-06 0.000000000000D+00 0.000000000000D+00 0.101983069765D-05 0.000000000000D+00  6 -2 1 25 -2 1 21 2 0.35228922D+00 0.59421452D-01 0.42938967D+06 0.42938967D+06 0.42938967D+06 0.10732149D+01  1  2 12  3  6  4       -2 0.362357168780D-07 0.100000000000D+01
0.131560187162D-01 0.000000000000D+00 0.000000000000D+00 0.101983069765D-05 0.000000000000D+00  6 -2 1 25 -2 1 21 2 0.35228922D+00 0.59421452D-01 0.42938967D+06 0.42938967D+06 0.42938967D+06 0.10732149D+01  1  2 12  3  6  4       -2 0.131018461654D-02 0.100000000000D+01
-.513911182244D-01 0.000000000000D+00 0.000000000000D+00 0.101983069765D-05 0.000000000000D+00  6 -2 1 25 -2 1 21 2 0.35228922D+00 0.59421452D-01 0.42940523D+06 0.42940523D+06 0.42940523D+06 0.10732138D+01  1  2  4  3  6  4       -2 -.511792544104D-02 0.100000000000D+01
-.141359338990D-01 0.000000000000D+00 0.000000000000D+00 0.101983069765D-05 0.000000000000D+00  6 -2 1 25 -2 1 21 2 0.35228922D+00 0.59421452D-01 0.42940523D+06 0.42940523D+06 0.42940523D+06 0.10732138D+01  1  2  5  3  6  4       -2 -.140776574307D-02 0.100000000000D+01
0.179072485348D-01 0.000000000000D+00 -.000000000000D+00 0.101983069765D-05 0.000000000000D+00  6 -2 1 25 -2 1 21 2 0.35228922D+00 0.59421452D-01 0.42940523D+06 0.42940523D+06 0.42940523D+06 0.10732138D+01  1  2  6  3  6  4       -2 0.178334245336D-02 0.100000000000D+01
0.213333641921D-04 0.000000000000D+00 0.000000000000D+00 0.101983069765D-05 0.156479361800D-06  6 -2 1 25 -2 1 21 2 0.35228922D+00 0.59421452D-01 0.42938967D+06 0.42938967D+06 0.42938967D+06 0.10732149D+01  1  2 11  3  6  4       -2 0.212455197780D-05 0.100000000000D+01
  </mgrwgt>
  </event>
  <event>
  5     66 0.20292227E-05 0.42008408E+02 0.75467711E-02 0.93671267E-01
       -2 -1    0    0    0  501 0.00000000E+00 0.00000000E+00 0.21911781E+03 0.21911804E+03 0.32000000E+00 0.0000E+00 0.9000E+01
        1 -1    0    0  502    0 0.00000000E+00 0.00000000E+00 -.23131020E+04 0.23131020E+04 0.32000000E+00 0.0000E+00 0.9000E+01
       25  1    1    2    0    0 0.12387786E+02 0.45631674E+03 -.13836344E+04 0.14623432E+04 0.12500000E+03 0.0000E+00 0.9000E+01
       -2  1    1    2    0  501 -.28405536E+02 -.30964289E+02 0.12524895E+03 0.13211005E+03 0.32000000E+00 0.0000E+00 0.9000E+01
        1  1    1    2  502    0 0.16017751E+02 -.42535245E+03 -.83559869E+03 0.93776679E+03 0.32000000E+00 0.0000E+00 0.9000E+01
#aMCatNLO 1  0  0  2  2 0.16157332D+03 0.00000000D+00  -5  6  0 0.00000000D+00 0.00000000D+00 0.00000000D+00 0.00000000D+00 0.00000000D+00
  <mgrwgt>
 0.1732111478D-03    4    2    0
 0.711928484718747D+03 0.000000000000000D+00 0.000000000000000D+00 0.711928484718747D+03
 0.711928484718747D+03 0.000000000000000D+00 0.000000000000000D+00 -.711928484718747D+03
 0.565869363029636D+03 0.123843297570849D+02 0.456402123971512D+03 -.310043328627349D+03
 0.419030423388106D+03 -.283978509899543D+02 -.309559109280508D+02 0.416919403917091D+03
 0.438957183019752D+03 0.160135212328693D+02 -.425446213043461D+03 -.106876075289741D+03
 0.000000000000000D+00 -.000000000000000D+00 -.000000000000000D+00 0.000000000000000D+00
 0.813362039450605D+03 0.000000000000000D+00 0.000000000000000D+00 0.813362039450605D+03
 0.783874923092046D+03 0.000000000000000D+00 0.000000000000000D+00 -.783874923092046D+03
 0.614138765370813D+03 0.478095453090733D+02 0.512960821975908D+03 -.310043328627349D+03
 0.417032122925958D+03 -.329828158421805D+01 0.911721054600427D+01 0.416919403917091D+03
 0.401824090297340D+03 0.412547523078687D+02 -.385146919351515D+03 -.106876075289741D+03
 0.164241983948541D+03 -.857660160327240D+02 -.136931113170397D+03 0.294871163585590D+02
0.203134550031D-03 0.000000000000D+00 0.000000000000D+00 0.114689198563D-05 0.000000000000D+00  6 -2 1 25 -2 1 21 0 0.33710452D-01 0.35586186D+00 0.22143053D+06 0.22143053D+06 0.22143053D+06 0.10944462D+01  1  2  2  2  6  2        1 0.348606910077D-03 0.100000000000D+01
0.801162582623D-04 0.000000000000D+00 -.780090158673D-06 0.114689198563D-05 0.000000000000D+00  6 -2 1 25 -2 1 21 2 0.33710452D-01 0.35586186D+00 0.22143053D+06 0.22143053D+06 0.22143053D+06 0.10944462D+01  1  2  3  2  6  2        1 0.164687894710D-03 0.100000000000D+01
-.137641957100D-03 0.000000000000D+00 0.000000000000D+00 0.114689198563D-05 0.000000000000D+00  6 -2 1 25 -2 1 21 2 0.33710452D-01 0.35586186D+00 0.22143053D+06 0.22143053D+06 0.22143053D+06 0.10944462D+01  1  2 15  2  6  2        1 -.282938377681D-03 0.100000000000D+01
-.277996507643D-04 0.000000000000D+00 0.000000000000D+00 0.114689198563D-05 0.000000000000D+00  6 -2 1 25 -2 1 21 2 0.33710452D-01 0.35586186D+00 0.22143053D+06 0.22143053D+06 0.22143053D+06 0.10944462D+01  1  2  4  2  6  2        1 -.571452793397D-04 0.100000000000D+01
  </mgrwgt>
  </event>
  <event>
  5     66 0.20292227E-05 0.11812291E+03 0.75467711E-02 0.92584656E-01
       -2 -1    0    0    0  501 0.00000000E+00 0.00000000E+00 0.75673954E+03 0.75673961E+03 0.32000000E+00 0.0000E+00 0.9000E+01
        1 -1    0    0  502    0 0.00000000E+00 0.00000000E+00 -.14692423E+04 0.14692423E+04 0.32000000E+00 0.0000E+00 0.9000E+01
       25  1    1    2    0    0 -.34506237E+03 -.45941184E+03 0.19393730E+03 0.61916392E+03 0.12500000E+03 0.0000E+00 0.9000E+01
       -2  1    1    2    0  501 0.10941093E+03 0.44653309E+02 0.29303566E+03 0.31596624E+03 0.32000000E+00 0.0000E+00 0.9000E+01
        1  1    1    2  502    0 0.23565144E+03 0.41475853E+03 -.11994757E+04 0.12908518E+04 0.32000000E+00 0.0000E+00 0.9000E+01
#aMCatNLO 1  0  0  1  4 0.17560728D+02 0.00000000D+00  -5  6  0 0.00000000D+00 0.00000000D+00 0.00000000D+00 0.00000000D+00 0.00000000D+00
  <mgrwgt>
 0.3839942984D-04    4    2    0
 0.105443532242328D+04 0.000000000000000D+00 0.000000000000000D+00 0.105443532242328D+04
 0.105443532242328D+04 0.000000000000000D+00 0.000000000000000D+00 -.105443532242328D+04
 0.719204332808078D+03 -.345057568159165D+03 -.459456675519477D+03 0.414082975146993D+03
 0.432337163148849D+03 0.109365292752303D+03 0.446346831143821D+02 0.415887485317936D+03
 0.957329148889640D+03 0.235692275406861D+03 0.414821992405095D+03 -.829970460464929D+03
 0.000000000000000D+00 -.000000000000000D+00 0.000000000000000D+00 -.000000000000000D+00
 0.105842192306410D+04 0.000000000000000D+00 0.000000000000000D+00 0.105842192306410D+04
 0.107398933106317D+04 0.000000000000000D+00 0.000000000000000D+00 -.107398933106317D+04
 0.719008653039946D+03 -.340108828618636D+03 -.462827956734888D+03 0.414082975146993D+03
 0.432895536189900D+03 0.112342467421917D+03 0.426065115049315D+02 0.415887485317936D+03
 0.957039569115090D+03 0.242279416715667D+03 0.410334565743060D+03 -.829970460464929D+03
 0.234674957823376D+02 -.145130555189474D+02 0.988687948689710D+01 -.155674079990716D+02
0.296107440370D-03 0.000000000000D+00 0.000000000000D+00 0.175739590942D-05 0.000000000000D+00  6 -2 1 25 -2 1 21 0 0.11642148D+00 0.22603728D+00 0.35002965D+06 0.35002965D+06 0.35002965D+06 0.10796306D+01  1  2  2  1  6  1       -2 0.130029961379D-03 0.100000000000D+01
0.400527503541D-04 0.000000000000D+00 -.113713053790D-05 0.175739590942D-05 0.000000000000D+00  6 -2 1 25 -2 1 21 2 0.11642148D+00 0.22603728D+00 0.35002965D+06 0.35002965D+06 0.35002965D+06 0.10796306D+01  1  2  3  1  6  1       -2 0.205010857988D-04 0.100000000000D+01
-.208095974684D-03 0.000000000000D+00 0.000000000000D+00 0.175739590942D-05 0.000000000000D+00  6 -2 1 25 -2 1 21 2 0.11642148D+00 0.22603728D+00 0.35002965D+06 0.35002965D+06 0.35002965D+06 0.10796306D+01  1  2 15  1  6  1       -2 -.106514369017D-03 0.100000000000D+01
-.109743575012D-04 0.000000000000D+00 0.000000000000D+00 0.175739590942D-05 0.000000000000D+00  6 -2 1 25 -2 1 21 2 0.11642148D+00 0.22603728D+00 0.35002965D+06 0.35002965D+06 0.35002965D+06 0.10796306D+01  1  2  4  1  6  1       -2 -.561724832203D-05 0.100000000000D+01
  </mgrwgt>
  </event>
  <event>
  5     66 0.20292227E-05 0.18765570E+03 0.75467711E-02 0.93385383E-01
       -2 -1    0    0    0  501 0.00000000E+00 0.00000000E+00 0.26907684E+03 0.26907703E+03 0.32000000E+00 0.0000E+00 0.9000E+01
        1 -1    0    0  502    0 0.00000000E+00 0.00000000E+00 -.18653823E+04 0.18653823E+04 0.32000000E+00 0.0000E+00 0.9000E+01
       25  1    1    2    0    0 -.47230413E+03 0.12924101E+03 -.14788377E+03 0.52656343E+03 0.12500000E+03 0.0000E+00 0.9000E+01
       -2  1    1    2    0  501 0.28541889E+03 -.14569775E+03 -.28317995E+03 0.42764794E+03 0.32000000E+00 0.0000E+00 0.9000E+01
        1  1    1    2  502    0 0.18688524E+03 0.16456734E+02 -.11652418E+04 0.11802480E+04 0.32000000E+00 0.0000E+00 0.9000E+01
#aMCatNLO 1  0  0  2  1 0.91243304D+02 0.00000000D+00  -5  6  0 0.00000000D+00 0.00000000D+00 0.00000000D+00 0.00000000D+00 0.00000000D+00
  <mgrwgt>
 0.2769909494D-03    9    2    0
 0.708471185707050D+03 0.000000000000000D+00 0.000000000000000D+00 0.708471185707050D+03
 0.708471185707050D+03 0.000000000000000D+00 0.000000000000000D+00 -.708471185707050D+03
 0.626616871501819D+03 -.472212212064324D+03 0.129170210198215D+03 0.370613528119784D+03
 0.325016869189051D+03 0.285279473274589D+03 -.145626579619917D+03 0.551768673796355D+02
 0.465308630723230D+03 0.186932738789735D+03 0.164563694217020D+02 -.425790395499420D+03
 0.000000000000000D+00 -.000000000000000D+00 0.000000000000000D+00 -.000000000000000D+00
 0.747467394805084D+03 0.000000000000000D+00 0.000000000000000D+00 0.747467394805084D+03
 0.765398181127236D+03 0.000000000000000D+00 0.000000000000000D+00 -.765398181127236D+03
 0.597070678693252D+03 -.432921579143188D+03 0.126857851321846D+03 0.370613528119784D+03
 0.344579677723966D+03 0.306779138058974D+03 -.146891892418592D+03 0.551768673796355D+02
 0.478226759566452D+03 0.217228137857955D+03 0.146734041258981D+02 -.425790395499420D+03
 0.929884599486504D+02 -.910856967737410D+02 0.536063697084836D+01 -.179307863221514D+02
0.339566996299D-04 0.000000000000D+00 0.000000000000D+00 0.364906246252D-07 0.000000000000D+00  6 -2 1 25 -2 1 21 0 0.41396454D-01 0.28698191D+00 0.25665436D+06 0.25665436D+06 0.25665436D+06 0.10896019D+01  1  2  2  2  6  2        1 0.786926322795D-04 0.100000000000D+01
0.193791059366D-05 0.000000000000D+00 -.130402667583D-06 0.364906246252D-07 0.000000000000D+00  6 -2 1 25 -2 1 21 2 0.41396454D-01 0.28698191D+00 0.25665436D+06 0.25665436D+06 0.25665436D+06 0.10896019D+01  1  2  3  2  6  2        1 0.533185121050D-05 0.100000000000D+01
-.208224975561D-04 0.000000000000D+00 0.000000000000D+00 0.364906246252D-07 0.000000000000D+00  6 -2 1 25 -2 1 21 2 0.41396454D-01 0.28698191D+00 0.25665436D+06 0.25665436D+06 0.25665436D+06 0.10896019D+01  1  2 15  2  6  2        1 -.572897734103D-04 0.100000000000D+01
0.113424159801D-05 0.000000000000D+00 0.000000000000D+00 0.364906246252D-07 0.000000000000D+00  6 -2 1 25 -2 1 21 2 0.41396454D-01 0.31740523D+00 0.31204660D+06 0.31204660D+06 0.31204660D+06 0.10832891D+01  1  2 12  2  6  2        1 0.225467373421D-05 0.100000000000D+01
-.103919872078D-04 0.000000000000D+00 0.000000000000D+00 0.364906246252D-07 0.000000000000D+00  6 -2 1 25 -2 1 21 2 0.41396454D-01 0.28698191D+00 0.25665436D+06 0.25665436D+06 0.25665436D+06 0.10896019D+01  1  2  4  2  6  2        1 -.285918915736D-04 0.100000000000D+01
-.357686155025D-03 0.000000000000D+00 -.815135538033D-04 0.364906246252D-07 0.000000000000D+00  6 -2 1 25 -2 1 21 2 0.41396454D-01 0.31827262D+00 0.25665436D+06 0.25665436D+06 0.25665436D+06 0.10896019D+01  1  2  5  2  6  2        1 -.721044632977D-03 0.100000000000D+01
0.364602297657D-03 0.000000000000D+00 0.810789883823D-04 0.364906246252D-07 0.000000000000D+00  6 -2 1 25 -2 1 21 2 0.41396454D-01 0.28698191D+00 0.25665436D+06 0.25665436D+06 0.25665436D+06 0.10896019D+01  1  2  6  2  6  2        1 0.100314493789D-02 0.100000000000D+01
0.185435304080D-07 0.000000000000D+00 0.000000000000D+00 0.364906246252D-07 0.000000000000D+00  6 -2 21 25 -2 1 -1 2 0.41396454D-01 0.31740523D+00 0.31204660D+06 0.31204660D+06 0.31204660D+06 0.10832891D+01  1  2 12  6  6  2        1 0.176411445637D-07 0.100000000000D+01
-.569730912112D-05 0.000000000000D+00 -.136368319379D-05 0.364906246252D-07 0.000000000000D+00  6 -2 21 25 -2 1 -1 2 0.41396454D-01 0.31827262D+00 0.25665436D+06 0.25665436D+06 0.25665436D+06 0.10896019D+01  1  2  5  6  6  2        1 -.552448889963D-05 0.100000000000D+01
  </mgrwgt>
  </event>
  <event>
  5     66 -.20292227E-05 0.35524454E+02 0.75467711E-02 0.91528981E-01
       -2 -1    0    0    0  501 0.00000000E+00 0.00000000E+00 0.21434493E+04 0.21434494E+04 0.32000000E+00 0.0000E+00 0.9000E+01
        1 -1    0    0  502    0 0.00000000E+00 0.00000000E+00 -.61419336E+03 0.61419344E+03 0.32000000E+00 0.0000E+00 0.9000E+01
       25  1    1    2    0    0 -.58735420E+03 0.21378623E+03 0.11825394E+04 0.13433964E+04 0.12500000E+03 0.0000E+00 0.9000E+01
       -2  1    1    2    0  501 0.61190970E+03 -.23945136E+03 0.75701215E+03 0.10024160E+04 0.32000000E+00 0.0000E+00 0.9000E+01
        1  1    1    2  502    0 -.24555498E+02 0.25665126E+02 -.41029557E+03 0.41183034E+03 0.32000000E+00 0.0000E+00 0.9000E+01
#aMCatNLO 1  0  0  4  1 0.40142394D+02 0.00000000D+00  -5  6  0 0.00000000D+00 0.00000000D+00 0.00000000D+00 0.00000000D+00 0.00000000D+00
  <mgrwgt>
 -.1170437834D-02    6    2    0
 0.114738507189624D+04 0.000000000000000D+00 0.000000000000000D+00 0.114738507189624D+04
 0.114738507189624D+04 -.000000000000000D+00 -.000000000000000D+00 -.114738507189624D+04
 0.826322926127350D+03 -.587252023283786D+03 0.213744180323234D+03 0.525959185460919D+03
 0.700017623737419D+03 0.611810547855227D+03 -.239412559449149D+03 0.241648822579538D+03
 0.768429593927717D+03 -.245585245714410D+02 0.256683791259147D+02 -.767608008040457D+03
 0.000000000000000D+00 0.000000000000000D+00 0.000000000000000D+00 0.000000000000000D+00
 0.114738507189624D+04 0.000000000000000D+00 0.000000000000000D+00 0.114738507189624D+04
 0.114738507189624D+04 -.000000000000000D+00 -.000000000000000D+00 -.114738507189624D+04
 0.825226596751572D+03 -.585291907034765D+03 0.212977151298251D+03 0.526733379017005D+03
 0.527980030062153D+03 0.455992826438268D+03 -.213142315850357D+03 0.159385719483326D+03
 0.767630630170318D+03 -.227354750273487D+02 0.249549867875776D+02 -.766887952171236D+03
 0.173932886808442D+03 0.152034555623846D+03 -.247898222354713D+02 0.807688536709047D+02
0.102829722646D-02 0.000000000000D+00 0.000000000000D+00 0.244361866141D-05 0.000000000000D+00  6 -2 1 25 -2 1 21 0 0.32976145D+00 0.94491295D-01 0.44211208D+06 0.44211208D+06 0.44211208D+06 0.10723077D+01  1  2  2  3  6  4       -2 0.652951383691D-04 0.100000000000D+01
0.654852547665D-03 0.000000000000D+00 -.394893210647D-05 0.244361866141D-05 0.000000000000D+00  6 -2 1 25 -2 1 21 2 0.32976145D+00 0.94491295D-01 0.44211208D+06 0.44211208D+06 0.44211208D+06 0.10723077D+01  1  2  3  3  6  4       -2 0.478128409552D-04 0.100000000000D+01
-.685555264465D-03 0.000000000000D+00 0.000000000000D+00 0.244361866141D-05 0.000000000000D+00  6 -2 1 25 -2 1 21 2 0.32976145D+00 0.94491295D-01 0.44211208D+06 0.44211208D+06 0.44211208D+06 0.10723077D+01  1  2 15  3  6  4       -2 -.500545427253D-04 0.100000000000D+01
-.203620802893D-01 0.000000000000D+00 0.000000000000D+00 0.244361866141D-05 0.000000000000D+00  6 -2 1 25 -2 1 21 2 0.32976145D+00 0.94491295D-01 0.44211208D+06 0.44211208D+06 0.44211208D+06 0.10723077D+01  1  2  4  3  6  4       -2 -.148669942548D-02 0.100000000000D+01
-.124693715846D-01 0.000000000000D+00 0.000000000000D+00 0.244361866141D-05 0.000000000000D+00  6 -2 1 25 -2 1 21 2 0.32976145D+00 0.94491295D-01 0.44211208D+06 0.44211208D+06 0.44211208D+06 0.10723077D+01  1  2  5  3  6  4       -2 -.910427977280D-03 0.100000000000D+01
0.159373521896D-01 0.000000000000D+00 -.000000000000D+00 0.244361866141D-05 0.000000000000D+00  6 -2 1 25 -2 1 21 2 0.32976145D+00 0.94491295D-01 0.44211208D+06 0.44211208D+06 0.44211208D+06 0.10723077D+01  1  2  6  3  6  4       -2 0.116363613184D-02 0.100000000000D+01
  </mgrwgt>
  </event>
  <event>
  6     66 0.20292227E-05 0.37574012E+02 0.75467711E-02 0.91515511E-01
       -2 -1    0    0    0  501 0.00000000E+00 0.00000000E+00 0.10618780E+04 0.10618781E+04 0.32000000E+00 0.0000E+00 0.9000E+01
        1 -1    0    0  503    0 0.00000000E+00 0.00000000E+00 -.17596092E+04 0.17596092E+04 0.32000000E+00 0.0000E+00 0.9000E+01
       25  1    1    2    0    0 0.34793538E+03 0.48544573E+03 0.57525211E+02 0.61290353E+03 0.12500000E+03 0.0000E+00 0.9000E+01
       -2  1    1    2    0  501 -.21895879E+02 0.20753932E+02 0.62702609E+03 0.62775153E+03 0.32000000E+00 0.0000E+00 0.9000E+01
        1  1    1    2  502    0 -.37857829E+03 -.50970815E+03 -.93342441E+03 0.11288955E+04 0.32000000E+00 0.0000E+00 0.9000E+01
       21  1    1    2  503  502 0.52538789E+02 0.35084877E+01 -.44885807E+03 0.45193668E+03 0.75000000E+00 0.0000E+00 0.9000E+01
#aMCatNLO 2  0  0  2  1 0.27551294D+02 0.00000000D+00  -5  6  0 0.00000000D+00 0.00000000D+00 0.00000000D+00 0.00000000D+00 0.00000000D+00
  <mgrwgt>
 0.1082445729D-02    1    2    0
 0.117792822508309D+04 0.000000000000000D+00 0.000000000000000D+00 0.117792822508309D+04
 0.117792822508309D+04 0.000000000000000D+00 0.000000000000000D+00 -.117792822508309D+04
 0.631120425412327D+03 0.361954366525733D+03 0.486445618553295D+03 0.122669018565786D+03
 0.697062258618178D+03 -.634546229457000D+01 0.217885505281911D+02 0.696692749039363D+03
 0.102767376613567D+04 -.355608904231163D+03 -.508234169081486D+03 -.819361767605148D+03
 0.000000000000000D+00 0.000000000000000D+00 0.000000000000000D+00 -.000000000000000D+00
 0.117993250954820D+04 0.000000000000000D+00 0.000000000000000D+00 0.117993250954820D+04
 0.158355610714716D+04 0.000000000000000D+00 0.000000000000000D+00 -.158355610714716D+04
 0.622481532017046D+03 0.347977601187373D+03 0.485512264168761D+03 0.122669018565786D+03
 0.697345415524218D+03 -.218921106800449D+02 0.207503609267986D+02 0.696692749039363D+03
 0.103661788475735D+04 -.378624279904023D+03 -.509771112807443D+03 -.819361767605148D+03
 0.407043784396740D+03 0.525387893966951D+02 0.350848771188272D+01 -.403623597598957D+03
0.849706734904D-02 0.000000000000D+00 0.000000000000D+00 0.254358513856D-04 0.390157982898D-07  6 -2 1 25 -2 1 21 2 0.16336581D+00 0.27070903D+00 0.44095759D+06 0.44095759D+06 0.44095759D+06 0.10723888D+01  1  2  1  2  6  2        1 0.108244572883D-02 0.100000000000D+01
  </mgrwgt>
  </event>
  <event>
  6     66 0.20292227E-05 0.12014974E+03 0.75467711E-02 0.94175403E-01
       -2 -1    0    0    0  501 0.00000000E+00 0.00000000E+00 0.21823573E+04 0.21823574E+04 0.32000000E+00 0.0000E+00 0.9000E+01
        1 -1    0    0  502    0 0.00000000E+00 0.00000000E+00 -.79429740E+03 0.79429746E+03 0.32000000E+00 0.0000E+00 0.9000E+01
       25  1    1    2    0    0 0.50578027E+03 -.13586912E+02 0.43485274E+03 0.67876373E+03 0.12500000E+03 0.0000E+00 0.9000E+01
       -2  1    1    2    0  501 -.37184024E+03 -.20893209E+02 0.15956290E+04 0.16385157E+04 0.32000000E+00 0.0000E+00 0.9000E+01
        1  1    1    2  503    0 -.12791854E+03 0.17540924E+02 -.58963814E+03 0.60360921E+03 0.32000000E+00 0.0000E+00 0.9000E+01
       21  1    1    2  502  503 -.60214914E+01 0.16939197E+02 -.52783644E+02 0.55766211E+02 0.75000000E+00 0.0000E+00 0.9000E+01
#aMCatNLO 2  0  0  5  4 0.14979985D+02 0.00000000D+00  -5  6  0 0.00000000D+00 0.00000000D+00 0.00000000D+00 0.00000000D+00 0.00000000D+00
  <mgrwgt>
 0.1173220607D-02    5    2    0
 0.131660202089842D+04 0.000000000000000D+00 0.000000000000000D+00 0.131660202089842D+04
 0.131660202089842D+04 -.000000000000000D+00 -.000000000000000D+00 -.131660202089842D+04
 0.538179335067891D+03 0.505810479051608D+03 -.135984191695728D+02 0.134100108023032D+03
 0.101153606838797D+04 -.371763148536388D+03 -.209091034400521D+02 0.940510599851721D+03
 0.108348863834098D+04 -.134047330515220D+03 0.345075226096250D+02 -.107461070787475D+04
 0.000000000000000D+00 0.000000000000000D+00 0.000000000000000D+00 -.000000000000000D+00
 0.131660202089842D+04 0.000000000000000D+00 0.000000000000000D+00 0.131660202089842D+04
 0.131660202089842D+04 -.000000000000000D+00 -.000000000000000D+00 -.131660202089842D+04
 0.538078313571986D+03 0.505776142403797D+03 -.135895799584814D+02 0.133824843090357D+03
 0.101107848849987D+04 -.371827677512125D+03 -.208924918814282D+02 0.939993293553797D+03
 0.993286718178753D+03 -.127942922382265D+03 0.175360583343171D+02 -.984856131513989D+03
 0.907605215462291D+02 -.600554250940705D+01 0.169460135055926D+02 -.889620051301649D+02
-.138079016774D-07 0.000000000000D+00 0.000000000000D+00 0.283866962769D-04 0.000000000000D+00  6 -2 1 25 -2 1 21 2 0.33574729D+00 0.12219961D+00 0.27076566D+06 0.27076566D+06 0.27076566D+06 0.10878617D+01  1  2 13  4  6  5        1 -.666251770827D-09 0.100000000000D+01
-.477488842313D-02 0.000000000000D+00 0.000000000000D+00 0.283866962769D-04 0.000000000000D+00  6 -2 1 25 -2 1 21 2 0.33574729D+00 0.12219961D+00 0.26624201D+06 0.26624201D+06 0.26624201D+06 0.10884085D+01  1  2  8  4  6  5        1 -.230970553554D-03 0.100000000000D+01
-.168640882432D-01 0.000000000000D+00 0.000000000000D+00 0.283866962769D-04 0.000000000000D+00  6 -2 1 25 -2 1 21 2 0.33574729D+00 0.12219961D+00 0.26624201D+06 0.26624201D+06 0.26624201D+06 0.10884085D+01  1  2  9  4  6  5        1 -.815748443010D-03 0.100000000000D+01
0.183356823209D-01 0.000000000000D+00 0.000000000000D+00 0.283866962769D-04 0.000000000000D+00  6 -2 1 25 -2 1 21 2 0.33574729D+00 0.12219961D+00 0.26624201D+06 0.26624201D+06 0.26624201D+06 0.10884085D+01  1  2 10  4  6  5        1 0.886932284100D-03 0.100000000000D+01
0.276262578281D-01 0.000000000000D+00 0.000000000000D+00 0.283866962769D-04 0.265423380848D-06  6 -2 1 25 -2 1 21 2 0.33574729D+00 0.12219961D+00 0.27076566D+06 0.27076566D+06 0.27076566D+06 0.10878617D+01  1  2  1  4  6  5        1 0.133300798553D-02 0.100000000000D+01
  </mgrwgt>
  </event>
  <event>
  6     66 0.20292227E-05 0.27552766E+02 0.75467711E-02 0.91733339E-01
       -2 -1    0    0    0  501 0.00000000E+00 0.00000000E+00 0.11476078E+04 0.11476078E+04 0.32000000E+00 0.0000E+00 0.9000E+01
        1 -1    0    0  502    0 0.00000000E+00 0.00000000E+00 -.64113564E+03 0.64113572E+03 0.32000000E+00 0.0000E+00 0.9000E+01
       25  1    1    2    0    0 0.59579703E+03 -.22482013E+03 -.22348368E+03 0.68635862E+03 0.12500000E+03 0.0000E+00 0.9000E+01
       -2  1    1    2    0  503 -.50891804E+03 0.16345921E+03 0.72737777E+03 0.90265997E+03 0.32000000E+00 0.0000E+00 0.9000E+01
        1  1    1    2  502    0 -.42829775E+02 0.90220976E+00 -.78487034E+02 0.89417674E+02 0.32000000E+00 0.0000E+00 0.9000E+01
       21  1    1    2  503  501 -.44049210E+02 0.60458709E+02 0.81065084E+02 0.11030729E+03 0.75000000E+00 0.0000E+00 0.9000E+01
#aMCatNLO 2  0  0  4  2 0.33697459D+03 0.00000000D+00  -5  6  0 0.00000000D+00 0.00000000D+00 0.00000000D+00 0.00000000D+00 0.00000000D+00
  <mgrwgt>
 0.4058964689D-04    1    2    0
 0.857771743690072D+03 0.000000000000000D+00 0.000000000000000D+00 0.857771743690072D+03
 0.857771743690072D+03 -.000000000000000D+00 -.000000000000000D+00 -.857771743690072D+03
 0.786143448410287D+03 0.599008111714335D+03 -.226114016802621D+03 -.438700643929580D+03
 0.812646469274646D+03 -.556634100934685D+03 0.225402768161119D+03 0.547490962305761D+03
 0.116753569695212D+03 -.423740107796504D+02 0.711248641502697D+00 -.108790318376181D+03
 0.000000000000000D+00 0.000000000000000D+00 0.000000000000000D+00 0.000000000000000D+00
 0.857771743690072D+03 0.000000000000000D+00 0.000000000000000D+00 0.857771743690072D+03
 0.857771743690072D+03 -.000000000000000D+00 -.000000000000000D+00 -.857771743690072D+03
 0.781561405778333D+03 0.595797396811136D+03 -.224813873628242D+03 -.435542667461574D+03
 0.726368154256354D+03 -.508878734142103D+03 0.163417489378825D+03 0.491881950899638D+03
 0.116492108277923D+03 -.428517061649611D+02 0.904686057582701D+00 -.108320469501033D+03
 0.911218190675353D+02 -.440669565040716D+02 0.604916981918340D+02 0.519811860629686D+02
0.571754715967D-04 0.000000000000D+00 0.000000000000D+00 0.312910069231D-06 0.676969776789D-09  6 -2 1 25 -2 1 21 2 0.17655505D+00 0.98636262D-01 0.42323484D+06 0.42323484D+06 0.42323484D+06 0.10736643D+01  1  2  1  3  6  4       -2 0.405896468852D-04 0.100000000000D+01
  </mgrwgt>
  </event>
  <event>
  5     66 0.20292227E-05 0.15696311E+03 0.75467711E-02 0.95459035E-01
       -2 -1    0    0    0  501 0.00000000E+00 0.00000000E+00 0.64834435E+03 0.64834443E+03 0.32000000E+00 0.0000E+00 0.9000E+01
        1 -1    0    0  502    0 0.00000000E+00 0.00000000E+00 -.12465879E+04 0.12465879E+04 0.32000000E+00 0.0000E+00 0.9000E+01
       25  1    1    2    0    0 -.20082388E+03 -.40988015E+03 -.35247544E+03 0.59008127E+03 0.12500000E+03 0.0000E+00 0.9000E+01
       -2  1    1    2    0  501 0.12853964E+03 0.27057567E+03 0.47808485E+03 0.56417981E+03 0.32000000E+00 0.0000E+00 0.9000E+01
        1  1    1    2  502    0 0.72284245E+02 0.13930448E+03 -.72385291E+03 0.74067125E+03 0.32000000E+00 0.0000E+00 0.9000E+01
#aMCatNLO 1  0  0  1  4 0.59620682D+00 0.00000000D+00  -5  6  0 0.00000000D+00 0.00000000D+00 0.00000000D+00 0.00000000D+00 0.00000000D+00
  <mgrwgt>
 0.1279733924D-03    1    2    0
 0.899009627923973D+03 0.000000000000000D+00 0.000000000000000D+00 0.899009627923973D+03
 0.899009627923973D+03 0.000000000000000D+00 0.000000000000000D+00 -.899009627923973D+03
 0.504591586523164D+03 -.200828171220153D+03 -.409887693232017D+03 -.175065112947352D+03
 0.753627475217704D+03 0.128534240399997D+03 0.270564312902797D+03 0.691540507151421D+03
 0.539800194107077D+03 0.722939308201560D+02 0.139323380329219D+03 -.516475394204068D+03
 0.000000000000000D+00 0.000000000000000D+00 0.000000000000000D+00 0.000000000000000D+00
 0.233345987280658D+04 0.000000000000000D+00 0.000000000000000D+00 0.233345987280658D+04
 0.111185104771666D+04 0.000000000000000D+00 0.000000000000000D+00 -.111185104771666D+04
 0.751985521430260D+03 -.389687420328474D+03 -.606096646672137D+03 -.175065112947352D+03
 0.698713298470728D+03 -.897476192901934D+02 0.437877295636836D+02 0.691540507151421D+03
 0.524552873765034D+03 -.876747013570229D+02 -.268706400903449D+02 -.516475394204068D+03
 0.147005922685723D+04 0.567109740975690D+03 0.589179557198798D+03 0.122160882508992D+04
0.113230066044D-03 0.000000000000D+00 0.000000000000D+00 0.502016263027D-05 0.000000000000D+00  6 -2 1 25 -2 1 21 2 0.99745295D-01 0.19178276D+00 0.21611134D+06 0.21611134D+06 0.21611134D+06 0.10952505D+01  1  2 14  1  6  1       -2 0.127973392387D-03 0.100000000000D+01
  </mgrwgt>
  </event>
  <event>
  5     66 0.20292227E-05 0.18511907E+03 0.75467711E-02 0.94857071E-01
       -2 -1    0    0    0  501 0.00000000E+00 0.00000000E+00 0.11044533E+04 0.11044534E+04 0.32000000E+00 0.0000E+00 0.9000E+01
        1 -1    0    0  502    0 0.00000000E+00 0.00000000E+00 -.67177266E+03 0.67177274E+03 0.32000000E+00 0.0000E+00 0.9000E+01
       25  1    1    2    0    0 -.47834188E+03 -.50934691E+02 0.25048204E+03 0.55657125E+03 0.12500000E+03 0.0000E+00 0.9000E+01
       -2  1    1    2    0  501 0.29755526E+03 0.11276798E+02 0.65087569E+03 0.71575524E+03 0.32000000E+00 0.0000E+00 0.9000E+01
        1  1    1    2  502    0 0.18078663E+03 0.39657892E+02 -.46867706E+03 0.50389963E+03 0.32000000E+00 0.0000E+00 0.9000E+01
#aMCatNLO 1  0  0  1  2 0.37724087D+03 0.00000000D+00  -5  6  0 0.00000000D+00 0.00000000D+00 0.00000000D+00 0.00000000D+00 0.00000000D+00
  <mgrwgt>
 0.6721007063D-04    4    2    0
 0.861360355647968D+03 0.000000000000000D+00 0.000000000000000D+00 0.861360355647968D+03
 0.861360355647968D+03 0.000000000000000D+00 0.000000000000000D+00 -.861360355647968D+03
 0.510966543942814D+03 -.478328541605270D+03 -.509394927364799D+02 0.118611902414511D+03
 0.574420991482412D+03 0.297508741266841D+03 0.112750354295660D+02 0.491244234471530D+03
 0.637333175870711D+03 0.180819800338429D+03 0.396644573069138D+02 -.609856136886041D+03
 0.000000000000000D+00 -.000000000000000D+00 0.000000000000000D+00 -.000000000000000D+00
 0.103141332080015D+04 0.000000000000000D+00 0.000000000000000D+00 0.103141332080015D+04
 0.103966099967186D+04 0.000000000000000D+00 0.000000000000000D+00 -.103966099967186D+04
 0.445748750468155D+03 -.400675674069833D+03 -.919628694540235D+02 0.118611902414511D+03
 0.631914603349764D+03 0.395422319837213D+03 -.404519097166921D+02 0.491244234471530D+03
 0.674337381767919D+03 0.287283009045838D+03 -.165791877248605D+02 -.609856136886041D+03
 0.319073584886173D+03 -.282029654813218D+03 0.148993966895576D+03 -.824767887170759D+01
0.380992509694D-03 0.000000000000D+00 0.000000000000D+00 0.203903270999D-05 0.000000000000D+00  6 -2 1 25 -2 1 21 0 0.16991591D+00 0.10334965D+00 0.24002673D+06 0.24002673D+06 0.24002673D+06 0.10917917D+01  1  2  2  1  6  1       -2 0.252336413675D-03 0.100000000000D+01
0.410746855132D-04 0.000000000000D+00 -.146311155486D-05 0.203903270999D-05 0.000000000000D+00  6 -2 1 25 -2 1 21 2 0.16991591D+00 0.10334965D+00 0.24002673D+06 0.24002673D+06 0.24002673D+06 0.10917917D+01  1  2  3  1  6  1       -2 0.324277867492D-04 0.100000000000D+01
-.263463861178D-03 0.000000000000D+00 0.000000000000D+00 0.203903270999D-05 0.000000000000D+00  6 -2 1 25 -2 1 21 2 0.16991591D+00 0.10334965D+00 0.24002673D+06 0.24002673D+06 0.24002673D+06 0.10917917D+01  1  2 15  1  6  1       -2 -.208000372971D-03 0.100000000000D+01
-.121012747462D-04 0.000000000000D+00 0.000000000000D+00 0.203903270999D-05 0.000000000000D+00  6 -2 1 25 -2 1 21 2 0.16991591D+00 0.10334965D+00 0.24002673D+06 0.24002673D+06 0.24002673D+06 0.10917917D+01  1  2  4  1  6  1       -2 -.955375682026D-05 0.100000000000D+01
  </mgrwgt>
  </event>
  <event>
  5     66 0.20292227E-05 0.28646447E+02 0.75467711E-02 0.93941509E-01
       -2 -1    0    0    0  501 0.00000000E+00 0.00000000E+00 0.11213922E+04 0.11213923E+04 0.32000000E+00 0.0000E+00 0.9000E+01
        1 -1    0    0  502    0 -.00000000E+00 -.00000000E+00 -.32065251E+04 0.32065251E+04 0.32000000E+00 0.0000E+00 0.9000E+01
       25  1    1    2    0    0 -.30978859E+03 0.33485049E+03 0.35201633E+03 0.58960522E+03 0.12500000E+03 0.0000E+00 0.9000E+01
       -2  1    1    2    0  501 0.10749978E+02 0.26556756E+02 0.63243964E+03 0.63308833E+03 0.32000000E+00 0.0000E+00 0.9000E+01
        1  1    1    2  502    0 0.29903862E+03 -.36140724E+03 -.30695889E+04 0.31052239E+04 0.32000000E+00 0.0000E+00 0.9000E+01
#aMCatNLO 1  0  0  4  5 0.16859440D+02 0.00000000D+00  -5  6  0 0.00000000D+00 0.00000000D+00 0.00000000D+00 0.00000000D+00 0.00000000D+00
  <mgrwgt>
 0.1475902017D-02    6    2    0
 0.189625221598893D+04 0.000000000000000D+00 0.000000000000000D+00 0.189625221598893D+04
 0.189625221598893D+04 -.000000000000000D+00 -.000000000000000D+00 -.189625221598893D+04
 0.866511892220459D+03 -.309811580040964D+03 0.334882894654521D+03 0.726008327155970D+03
 0.107004997481654D+04 0.107486398818214D+02 0.265534496959675D+02 0.106966645719814D+04
 0.185594256494086D+04 0.299062940159142D+03 -.361436344350491D+03 -.179567478435411D+04
 0.000000000000000D+00 0.000000000000000D+00 0.000000000000000D+00 0.000000000000000D+00
 0.189625221598893D+04 0.000000000000000D+00 0.000000000000000D+00 0.189625221598893D+04
 0.189625221598893D+04 -.000000000000000D+00 -.000000000000000D+00 -.189625221598893D+04
 0.871338095373407D+03 -.309754174018663D+03 0.335024710543990D+03 0.731721170564230D+03
 0.101092367470973D+04 0.586753812946382D+02 0.394220305892145D+02 0.100844919516195D+04
 0.184413748404211D+04 0.299185164102131D+03 -.361134402211067D+03 -.178351149174038D+04
 0.661051778526092D+02 -.481063713781072D+02 -.133123389221390D+02 0.433411260142008D+02
0.110917658036D+00 0.000000000000D+00 0.000000000000D+00 0.784671510386D-03 0.000000000000D+00  6 -2 1 25 -2 1 21 0 0.17252189D+00 0.49331156D+00 0.23561077D+06 0.23561077D+06 0.23561077D+06 0.10924012D+01  1  2  2  3  6  4       -2 0.107776275060D-02 0.100000000000D+01
0.601700620275D-01 0.000000000000D+00 -.425953012147D-03 0.784671510386D-03 0.000000000000D+00  6 -2 1 25 -2 1 21 2 0.17252189D+00 0.49331156D+00 0.23561077D+06 0.23561077D+06 0.23561077D+06 0.10924012D+01  1  2  3  3  6  4       -2 0.697697655704D-03 0.100000000000D+01
-.746587355434D-01 0.000000000000D+00 0.000000000000D+00 0.784671510386D-03 0.000000000000D+00  6 -2 1 25 -2 1 21 2 0.17252189D+00 0.49331156D+00 0.23561077D+06 0.23561077D+06 0.23561077D+06 0.10924012D+01  1  2 15  3  6  4       -2 -.865700034390D-03 0.100000000000D+01
-.675201247329D-03 0.000000000000D+00 0.000000000000D+00 0.784671510386D-03 0.000000000000D+00  6 -2 1 25 -2 1 21 2 0.17252189D+00 0.49331156D+00 0.23561077D+06 0.23561077D+06 0.23561077D+06 0.10924012D+01  1  2  4  3  6  4       -2 -.782924782718D-05 0.100000000000D+01
-.777295634642D+00 0.000000000000D+00 0.000000000000D+00 0.784671510386D-03 0.000000000000D+00  6 -2 1 25 -2 1 21 2 0.17252189D+00 0.49331156D+00 0.23561077D+06 0.23561077D+06 0.23561077D+06 0.10924012D+01  1  2  5  3  6  4       -2 -.901307600167D-02 0.100000000000D+01
0.826795391368D+00 0.000000000000D+00 -.000000000000D+00 0.784671510386D-03 0.000000000000D+00  6 -2 1 25 -2 1 21 2 0.17252189D+00 0.49331156D+00 0.23561077D+06 0.23561077D+06 0.23561077D+06 0.10924012D+01  1  2  6  3  6  4       -2 0.958704689453D-02 0.100000000000D+01
  </mgrwgt>
  </event>
  <event>
  5     66 0.20292227E-05 0.53160191E+02 0.75467711E-02 0.82868354E-01
       -2 -1    0    0    0  501 0.00000000E+00 0.00000000E+00 0.13063241E+04 0.13063241E+04 0.32000000E+00 0.0000E+00 0.9000E+01
        1 -1    0    0  502    0 0.00000000E+00 0.00000000E+00 -.14474935E+04 0.14474935E+04 0.32000000E+00 0.0000E+00 0.9000E+01
       25  1    1    2    0    0 -.35899512E+02 0.81571681E+03 -.20580043E+03 0.85127052E+03 0.12500000E+03 0.0000E+00 0.9000E+01
       -2  1    1    2    0  501 0.53043534E+02 -.36258293E+01 0.80304522E+03 0.80480339E+03 0.32000000E+00 0.0000E+00 0.9000E+01
        1  1    1    2  502    0 -.17144021E+02 -.81209098E+03 -.73841421E+03 0.10977437E+04 0.32000000E+00 0.0000E+00 0.9000E+01
#aMCatNLO 1  0  0  2  5 0.25863242D+02 0.00000000D+00  -5  6  0 0.00000000D+00 0.00000000D+00 0.00000000D+00 0.00000000D+00 0.00000000D+00
  <mgrwgt>
 0.2171790483D-03    3    2    0
 0.137509843788129D+04 0.000000000000000D+00 0.000000000000000D+00 0.137509843788129D+04
 0.137509843788129D+04 0.000000000000000D+00 0.000000000000000D+00 -.137509843788129D+04
 0.841898195479144D+03 -.358951260302607D+02 0.815804882769590D+03 -.162300661513148D+03
 0.846970279124201D+03 0.530364292185116D+02 -.362534364330747D+01 0.845300329929514D+03
 0.106132840115924D+04 -.171413031882508D+02 -.812179539126283D+03 -.682999668416366D+03
 0.000000000000000D+00 -.000000000000000D+00 -.000000000000000D+00 0.000000000000000D+00
 0.221390574440334D+04 0.000000000000000D+00 0.000000000000000D+00 0.221390574440334D+04
 0.200685058387703D+04 0.000000000000000D+00 0.000000000000000D+00 -.200685058387703D+04
 0.125993960931570D+04 0.741703769524926D+02 0.124095933437712D+04 -.162300661513148D+03
 0.928575790474323D+03 0.146015236038711D+03 0.355527638476430D+03 0.845300329929514D+03
 0.812782593761146D+03 0.809989856726947D+02 -.433089092432753D+03 -.682999668416366D+03
 0.121945833472920D+04 -.301184598663899D+03 -.116339788042080D+04 0.207055160526311D+03
0.274932533555D-02 0.000000000000D+00 0.000000000000D+00 0.455153722117D-05 0.000000000000D+00  6 -2 1 25 -2 1 21 0 0.20097294D+00 0.22269131D+00 0.71540011D+06 0.71540011D+06 0.71540011D+06 0.10576856D+01  1  2  2  2  6  2        1 0.255516568657D-03 0.100000000000D+01
0.152289329268D-02 0.000000000000D+00 -.105581332025D-04 0.455153722117D-05 0.000000000000D+00  6 -2 1 25 -2 1 21 2 0.20097294D+00 0.22269131D+00 0.71540011D+06 0.71540011D+06 0.71540011D+06 0.10576856D+01  1  2  3  2  6  2        1 0.158334509367D-03 0.100000000000D+01
-.189163130707D-02 0.000000000000D+00 0.000000000000D+00 0.455153722117D-05 0.000000000000D+00  6 -2 1 25 -2 1 21 2 0.20097294D+00 0.22269131D+00 0.71540011D+06 0.71540011D+06 0.71540011D+06 0.10576856D+01  1  2 15  2  6  2        1 -.196672029713D-03 0.100000000000D+01
  </mgrwgt>
  </event>
  <event>
  6     66 -.20292227E-05 0.16444987E+03 0.75467711E-02 0.94518060E-01
       -2 -1    0    0    0  501 0.00000000E+00 0.00000000E+00 0.43288450E+03 0.43288462E+03 0.32000000E+00 0.0000E+00 0.9000E+01
        1 -1    0    0  503    0 0.00000000E+00 0.00000000E+00 -.24720909E+04 0.24720909E+04 0.32000000E+00 0.0000E+00 0.9000E+01
       25  1    1    2    0    0 0.35142278E+03 0.27113035E+03 -.43944852E+01 0.46114417E+03 0.12500000E+03 0.0000E+00 0.9000E+01
       -2  1    1    2    0  501 -.41681427E+01 -.17443401E+03 0.14538195E+03 0.22711365E+03 0.32000000E+00 0.0000E+00 0.9000E+01
        1  1    1    2  502    0 -.36334172E+03 -.10847373E+03 -.20195529E+04 0.20548426E+04 0.32000000E+00 0.0000E+00 0.9000E+01
       21  1    1    2  503  502 0.16087086E+02 0.11777393E+02 -.16064090E+03 0.16187515E+03 0.75000000E+00 0.0000E+00 0.9000E+01
#aMCatNLO 2  0  0  2  5 0.19937435D+02 0.00000000D+00  -5  6  0 0.00000000D+00 0.00000000D+00 0.00000000D+00 0.00000000D+00 0.00000000D+00
  <mgrwgt>
 -.8713430464D-03    5    2    0
 0.999399061008423D+03 0.000000000000000D+00 0.000000000000000D+00 0.999399061008423D+03
 0.999399061008423D+03 0.000000000000000D+00 0.000000000000000D+00 -.999399061008423D+03
 0.633286567862734D+03 0.356555123716409D+03 0.274805660825863D+03 0.427524466627347D+03
 0.447093289076879D+03 -.564117003707896D+00 -.171731435244608D+03 0.412795839439322D+03
 0.918418265077235D+03 -.355991006712701D+03 -.103074225581254D+03 -.840320306066669D+03
 0.000000000000000D+00 0.000000000000000D+00 0.000000000000000D+00 -.000000000000000D+00
 0.100087365760966D+04 0.000000000000000D+00 0.000000000000000D+00 0.100087365760966D+04
 0.106919171091776D+04 0.000000000000000D+00 0.000000000000000D+00 -.106919171091776D+04
 0.628829160272155D+03 0.351476256685012D+03 0.271087410682012D+03 0.427524466627347D+03
 0.448131952850224D+03 -.416658377085404D+01 -.174368809385800D+03 0.412795839439322D+03
 0.921936441507478D+03 -.363396759320794D+03 -.108495993965844D+03 -.840320306066669D+03
 0.711678138975588D+02 0.160870864066367D+02 0.117773926696312D+02 -.683180533080992D+02
-.417803760857D-07 0.000000000000D+00 0.000000000000D+00 0.140620897716D-05 0.000000000000D+00  6 -2 1 25 -2 1 21 2 0.66499377D-01 0.38057294D+00 0.26767283D+06 0.26767283D+06 0.26767283D+06 0.10882345D+01  1  2 13  2  6  2        1 -.172157765292D-07 0.100000000000D+01
-.209072619210D-02 0.000000000000D+00 0.000000000000D+00 0.140620897716D-05 0.000000000000D+00  6 -2 1 25 -2 1 21 2 0.66499377D-01 0.38711870D+00 0.26767283D+06 0.26767283D+06 0.26767283D+06 0.10882345D+01  1  2 13  2  6  2        1 -.805041224244D-03 0.100000000000D+01
-.218885203259D-03 0.000000000000D+00 0.000000000000D+00 0.140620897716D-05 0.000000000000D+00  6 -2 1 25 -2 1 21 2 0.66499377D-01 0.35549507D+00 0.25479478D+06 0.25479478D+06 0.25479478D+06 0.10898390D+01  1  2  8  2  6  2        1 -.117356022339D-03 0.100000000000D+01
-.426376691591D-03 0.000000000000D+00 0.000000000000D+00 0.140620897716D-05 0.000000000000D+00  6 -2 1 25 -2 1 21 2 0.66499377D-01 0.38049126D+00 0.25479478D+06 0.25479478D+06 0.25479478D+06 0.10898390D+01  1  2  9  2  6  2        1 -.177005082511D-03 0.100000000000D+01
0.425394195601D-03 0.000000000000D+00 0.000000000000D+00 0.140620897716D-05 0.000000000000D+00  6 -2 1 25 -2 1 21 2 0.66499377D-01 0.35549507D+00 0.25479478D+06 0.25479478D+06 0.25479478D+06 0.10898390D+01  1  2 10  2  6  2        1 0.228076498451D-03 0.100000000000D+01
  </mgrwgt>
  </event>
  <event>
  5     66 0.20292227E-05 0.87189864E+02 0.75467711E-02 0.89881346E-01
       -2 -1    0    0    0  501 0.00000000E+00 0.00000000E+00 0.25663820E+03 0.25663840E+03 0.32000000E+00 0.0000E+00 0.9000E+01
        1 -1    0    0  502    0 0.00000000E+00 0.00000000E+00 -.16380597E+04 0.16380598E+04 0.32000000E+00 0.0000E+00 0.9000E+01
       25  1    1    2    0    0 0.47253219E+02 0.49772635E+03 -.74347141E+03 0.90462098E+03 0.12500000E+03 0.0000E+00 0.9000E+01
       -2  1    1    2    0  501 -.11499416E+03 -.55265846E+03 -.29642423E+03 0.63759113E+03 0.32000000E+00 0.0000E+00 0.9000E+01
        1  1    1    2  502    0 0.67740939E+02 0.54932108E+02 -.34152590E+03 0.35248605E+03 0.32000000E+00 0.0000E+00 0.9000E+01
#aMCatNLO 1  0  0  1  1 0.34786313D+03 0.00000000D+00  -5  6  0 0.00000000D+00 0.00000000D+00 0.00000000D+00 0.00000000D+00 0.00000000D+00
  <mgrwgt>
 0.4980871387D-04    3    2    0
 0.648374058754672D+03 0.000000000000000D+00 0.000000000000000D+00 0.648374058754672D+03
 0.648374058754672D+03 0.000000000000000D+00 0.000000000000000D+00 -.648374058754672D+03
 0.529777509979937D+03 0.472790881002594D+02 0.497752131585660D+03 -.122665045595242D+03
 0.615830590371756D+03 -.114997229418308D+03 -.552673218458048D+03 0.246120431624361D+03
 0.151140017157649D+03 0.677181413180488D+02 0.549210868723883D+02 -.123455386029119D+03
 0.000000000000000D+00 0.000000000000000D+00 -.000000000000000D+00 -.000000000000000D+00
 0.706980206098363D+03 0.000000000000000D+00 0.000000000000000D+00 0.706980206098363D+03
 0.151912279246617D+04 0.000000000000000D+00 0.000000000000000D+00 -.151912279246617D+04
 0.544805567993155D+03 -.940313401327839D+02 0.507246981832612D+03 -.122665045595242D+03
 0.658444202938428D+03 -.282567629902266D+03 -.541413923030869D+03 0.246120431624361D+03
 0.139346385612913D+03 0.295184350200381D+02 0.574877798993108D+02 -.123455386029119D+03
 0.883506842020038D+03 0.347080535015012D+03 -.233208387010544D+02 -.812142586367808D+03
0.374476579782D-04 0.000000000000D+00 0.000000000000D+00 0.327477294473D-07 0.000000000000D+00  6 -2 1 25 -2 1 21 0 0.39482818D-01 0.25200921D+00 0.34051965D+06 0.34051965D+06 0.34051965D+06 0.10805045D+01  1  2  2  1  6  1       -2 0.132507967738D-03 0.100000000000D+01
0.462069015823D-05 0.000000000000D+00 -.143808866831D-06 0.327477294473D-07 0.000000000000D+00  6 -2 1 25 -2 1 21 2 0.39482818D-01 0.25200921D+00 0.34051965D+06 0.34051965D+06 0.34051965D+06 0.10805045D+01  1  2  3  1  6  1       -2 0.190887433090D-04 0.100000000000D+01
-.246391702773D-04 0.000000000000D+00 0.000000000000D+00 0.327477294473D-07 0.000000000000D+00  6 -2 1 25 -2 1 21 2 0.39482818D-01 0.25200921D+00 0.34051965D+06 0.34051965D+06 0.34051965D+06 0.10805045D+01  1  2 15  1  6  1       -2 -.101787997174D-03 0.100000000000D+01
  </mgrwgt>
  </event>
  <event>
  5     66 0.20292227E-05 0.69790058E+02 0.75467711E-02 0.90895922E-01
       -2 -1    0    0    0  501 0.00000000E+00 0.00000000E+00 0.98775233E+03 0.98775238E+03 0.32000000E+00 0.0000E+00 0.9000E+01
        1 -1    0    0  502    0 0.00000000E+00 0.00000000E+00 -.27438584E+04 0.27438584E+04 0.32000000E+00 0.0000E+00 0.9000E+01
       25  1    1    2    0    0 0.44229051E+03 -.46050691E+03 -.13070206E+03 0.66362304E+03 0.12500000E+03 0.0000E+00 0.9000E+01
       -2  1    1    2    0  501 -.69160087E+02 0.93965405E+01 0.68297396E+03 0.68653110E+03 0.32000000E+00 0.0000E+00 0.9000E+01
        1  1    1    2  502    0 -.37313042E+03 0.45111037E+03 -.23083780E+04 0.23814567E+04 0.32000000E+00 0.0000E+00 0.9000E+01
#aMCatNLO 1  0  0  2  1 0.14289749D+03 0.00000000D+00  -5  6  0 0.00000000D+00 0.00000000D+00 0.00000000D+00 0.00000000D+00 0.00000000D+00
  <mgrwgt>
 0.2132871473D-02    7    2    0
 0.164628450613457D+04 0.000000000000000D+00 0.000000000000000D+00 0.164628450613457D+04
 0.164628450613457D+04 0.000000000000000D+00 0.000000000000000D+00 -.164628450613457D+04
 0.682473688099189D+03 0.442319845950019D+03 -.460546673773435D+03 0.205901068726430D+03
 0.114225332079147D+04 -.691546885223190D+02 0.939580706649166D+01 0.114011929056748D+04
 0.146784200337849D+04 -.373165157427700D+03 0.451150866706943D+03 -.134602035929391D+04
 0.000000000000000D+00 -.000000000000000D+00 0.000000000000000D+00 -.000000000000000D+00
 0.168925679692559D+04 0.000000000000000D+00 0.000000000000000D+00 0.168925679692559D+04
 0.177107430998017D+04 0.000000000000000D+00 0.000000000000000D+00 -.177107430998017D+04
 0.708933985916200D+03 0.453883801795738D+03 -.488422604669145D+03 0.205901068726430D+03
 0.114180188425345D+04 -.501719604307734D+02 -.363637257051490D+02 0.114011929056748D+04
 0.144493255864256D+04 -.348957157822134D+03 0.392795358165466D+03 -.134602035929391D+04
 0.164662678093560D+03 -.547546835428299D+02 0.131990972208828D+03 -.818175130545797D+02
0.161809539316D-01 0.000000000000D+00 0.000000000000D+00 0.658837458341D-04 0.000000000000D+00  6 -2 1 25 -2 1 21 0 0.15196190D+00 0.42213207D+00 0.42637308D+06 0.42637308D+06 0.42637308D+06 0.10734343D+01  1  2  2  2  6  2        1 0.468045343261D-03 0.100000000000D+01
0.664536850723D-02 0.000000000000D+00 -.621391236402D-04 0.658837458341D-04 0.000000000000D+00  6 -2 1 25 -2 1 21 2 0.15196190D+00 0.42213207D+00 0.42637308D+06 0.42637308D+06 0.42637308D+06 0.10734343D+01  1  2  3  2  6  2        1 0.221489841064D-03 0.100000000000D+01
-.106064194014D-01 0.000000000000D+00 0.000000000000D+00 0.658837458341D-04 0.000000000000D+00  6 -2 1 25 -2 1 21 2 0.15196190D+00 0.42213207D+00 0.42637308D+06 0.42637308D+06 0.42637308D+06 0.10734343D+01  1  2 15  2  6  2        1 -.353511493746D-03 0.100000000000D+01
-.484098219784D-02 0.000000000000D+00 0.000000000000D+00 0.658837458341D-04 0.000000000000D+00  6 -2 1 25 -2 1 21 2 0.15196190D+00 0.42213207D+00 0.42637308D+06 0.42637308D+06 0.42637308D+06 0.10734343D+01  1  2  4  2  6  2        1 -.161349724463D-03 0.100000000000D+01
-.174473080443D+00 0.000000000000D+00 -.396725450734D-01 0.658837458341D-04 0.000000000000D+00  6 -2 1 25 -2 1 21 2 0.15196190D+00 0.45777006D+00 0.42637308D+06 0.42637308D+06 0.42637308D+06 0.10734343D+01  1  2  5  2  6  2        1 -.393768505077D-02 0.100000000000D+01
0.177235996989D+00 0.000000000000D+00 0.395425981603D-01 0.658837458341D-04 0.000000000000D+00  6 -2 1 25 -2 1 21 2 0.15196190D+00 0.42213207D+00 0.42637308D+06 0.42637308D+06 0.42637308D+06 0.10734343D+01  1  2  6  2  6  2        1 0.590726801100D-02 0.100000000000D+01
-.226940676117D-02 0.000000000000D+00 -.536065298918D-03 0.658837458341D-04 0.000000000000D+00  6 -2 21 25 -2 1 -1 2 0.15196190D+00 0.45777006D+00 0.42637308D+06 0.42637308D+06 0.42637308D+06 0.10734343D+01  1  2  5  6  6  2        1 -.113854536689D-04 0.100000000000D+01
  </mgrwgt>
  </event>
  <event>
  5     66 0.20292227E-05 0.74799826E+02 0.75467711E-02 0.95419113E-01
       -2 -1    0    0    0  501 0.00000000E+00 0.00000000E+00 0.26683179E+04 0.26683180E+04 0.32000000E+00 0.0000E+00 0.9000E+01
        1 -1    0    0  502    0 0.00000000E+00 0.00000000E+00 -.34266026E+03 0.34266041E+03 0.32000000E+00 0.0000E+00 0.9000E+01
       25  1    1    2    0    0 0.42445094E+03 -.16582841E+03 0.80656048E+03 0.93478472E+03 0.12500000E+03 0.0000E+00 0.9000E+01
       -2  1    1    2    0  501 -.74606556E+02 0.55541799E+01 0.16634998E+04 0.16651813E+04 0.32000000E+00 0.0000E+00 0.9000E+01
        1  1    1    2  502    0 -.34984439E+03 0.16027423E+03 -.14440264E+03 0.41101234E+03 0.32000000E+00 0.0000E+00 0.9000E+01
#aMCatNLO 1  0  0  4  1 0.15939211D+02 0.00000000D+00  -5  6  0 0.00000000D+00 0.00000000D+00 0.00000000D+00 0.00000000D+00 0.00000000D+00
  <mgrwgt>
 0.5711061412D-03    8    2    0
 0.956204359454479D+03 0.000000000000000D+00 0.000000000000000D+00 0.956204359454479D+03
 0.956204359454479D+03 -.000000000000000D+00 -.000000000000000D+00 -.956204359454479D+03
 0.490990834142858D+03 0.424493911381529D+03 -.165851903964181D+03 0.133210601544197D+03
 0.598664757940260D+03 -.745934038319117D+02 0.555320078700789D+01 0.593973466129135D+03
 0.822753126825839D+03 -.349900507549617D+03 0.160298703177173D+03 -.727184067673332D+03
 0.000000000000000D+00 0.000000000000000D+00 0.000000000000000D+00 0.000000000000000D+00
 0.956204359454479D+03 0.000000000000000D+00 0.000000000000000D+00 0.956204359454479D+03
 0.956204359454479D+03 -.000000000000000D+00 -.000000000000000D+00 -.956204359454479D+03
 0.491035947389406D+03 0.424458471250391D+03 -.165849265578560D+03 0.133492804747842D+03
 0.155089133988696D+03 -.336272346077513D+02 0.799155559371566D+01 0.151188569717394D+03
 0.822361442070725D+03 -.349959877698329D+03 0.160303123063378D+03 -.726711314169623D+03
 0.443922195460132D+03 -.408713589443103D+02 -.244541307853388D+01 0.442029939704387D+03
0.100649011247D-02 0.000000000000D+00 0.000000000000D+00 0.230445478563D-04 0.000000000000D+00  6 -2 1 25 -2 1 21 0 0.41051046D+00 0.52716976D-01 0.21727069D+06 0.21727069D+06 0.21727069D+06 0.10950733D+01  1  2  2  3  6  4       -2 0.417564635559D-04 0.100000000000D+01
0.262857116878D-03 0.000000000000D+00 -.386518704683D-05 0.230445478563D-04 0.000000000000D+00  6 -2 1 25 -2 1 21 2 0.41051046D+00 0.52716976D-01 0.21727069D+06 0.21727069D+06 0.21727069D+06 0.10950733D+01  1  2  3  3  6  4       -2 0.130773682939D-04 0.100000000000D+01
-.602575411120D-03 0.000000000000D+00 0.000000000000D+00 0.230445478563D-04 0.000000000000D+00  6 -2 1 25 -2 1 21 2 0.41051046D+00 0.52716976D-01 0.21727069D+06 0.21727069D+06 0.21727069D+06 0.10950733D+01  1  2 15  3  6  4       -2 -.299786464589D-04 0.100000000000D+01
0.118861927326D-07 0.000000000000D+00 0.000000000000D+00 0.230445478563D-04 0.000000000000D+00  6 -2 1 25 -2 1 21 2 0.41051046D+00 0.52716976D-01 0.21761178D+06 0.21761178D+06 0.21761178D+06 0.10950214D+01  1  2 12  3  6  4       -2 0.591211180531D-09 0.100000000000D+01
0.124373862930D-01 0.000000000000D+00 0.000000000000D+00 0.230445478563D-04 0.000000000000D+00  6 -2 1 25 -2 1 21 2 0.41051046D+00 0.52716976D-01 0.21761178D+06 0.21761178D+06 0.21761178D+06 0.10950214D+01  1  2 12  3  6  4       -2 0.618627175114D-03 0.100000000000D+01
-.134532844279D-01 0.000000000000D+00 0.000000000000D+00 0.230445478563D-04 0.000000000000D+00  6 -2 1 25 -2 1 21 2 0.41051046D+00 0.52716976D-01 0.21727069D+06 0.21727069D+06 0.21727069D+06 0.10950733D+01  1  2  4  3  6  4       -2 -.669312504516D-03 0.100000000000D+01
-.137165652288D-01 0.000000000000D+00 0.000000000000D+00 0.230445478563D-04 0.000000000000D+00  6 -2 1 25 -2 1 21 2 0.41051046D+00 0.52716976D-01 0.21727069D+06 0.21727069D+06 0.21727069D+06 0.10950733D+01  1  2  5  3  6  4       -2 -.682410951455D-03 0.100000000000D+01
0.257150646183D-01 0.000000000000D+00 -.000000000000D+00 0.230445478563D-04 0.000000000000D+00  6 -2 1 25 -2 1 21 2 0.41051046D+00 0.52716976D-01 0.21727069D+06 0.21727069D+06 0.21727069D+06 0.10950733D+01  1  2  6  3  6  4       -2 0.127934664547D-02 0.100000000000D+01
  </mgrwgt>
  </event>
  <event>
  5     66 -.20292227E-05 0.34572622E+02 0.75467711E-02 0.94407636E-01
       -2 -1    0    0    0  501 0.00000000E+00 0.00000000E+00 0.24447226E+03 0.24447246E+03 0.32000000E+00 0.0000E+00 0.9000E+01
        1 -1    0    0  502    0 -.00000000E+00 -.00000000E+00 -.14589253E+04 0.14589254E+04 0.32000000E+00 0.0000E+00 0.9000E+01
       25  1    1    2    0    0 -.48210127E+03 0.13347266E+03 -.83998961E+03 0.98561866E+03 0.12500000E+03 0.0000E+00 0.9000E+01
       -2  1    1    2    0  501 0.45602801E+03 -.11076287E+03 -.15294919E+03 0.49358233E+03 0.32000000E+00 0.0000E+00 0.9000E+01
        1  1    1    2  502    0 0.26073268E+02 -.22709783E+02 -.22151427E+03 0.22419684E+03 0.32000000E+00 0.0000E+00 0.9000E+01
#aMCatNLO 1  0  0  5  2 0.21260931D+01 0.00000000D+00  -5  6  0 0.00000000D+00 0.00000000D+00 0.00000000D+00 0.00000000D+00 0.00000000D+00
  <mgrwgt>
 -.3126431697D-02    9    2    0
 0.597216019111485D+03 0.000000000000000D+00 0.000000000000000D+00 0.597216019111485D+03
 0.597216019111485D+03 -.000000000000000D+00 -.000000000000000D+00 -.597216019111485D+03
 0.551547485080658D+03 -.482104961066064D+03 0.133471767057658D+03 -.195805317120843D+03
 0.548400588966063D+03 0.456034894133240D+03 -.110764547896427D+03 0.283736843290590D+03
 0.944839641762500D+02 0.260700669328238D+02 -.227072191612305D+02 -.879315261697466D+02
 0.000000000000000D+00 0.000000000000000D+00 0.000000000000000D+00 -.000000000000000D+00
 0.597216019111485D+03 0.000000000000000D+00 0.000000000000000D+00 0.597216019111485D+03
 0.597216019111485D+03 -.000000000000000D+00 -.000000000000000D+00 -.597216019111485D+03
 0.551550482040377D+03 -.482078405108070D+03 0.133448636623825D+03 -.195894887505198D+03
 0.548381121361433D+03 0.456061298033797D+03 -.110787545887119D+03 0.283647785779584D+03
 0.125903346766925D+02 0.526945024286825D+01 -.373419440469502D+01 -.108076460691959D+02
 0.819101001444679D+02 0.207476568314047D+02 -.189268963320108D+02 -.769452522051903D+02
0.584803525186D-05 0.000000000000D+00 0.000000000000D+00 0.277040279635D-06 0.000000000000D+00  6 -2 1 25 -2 1 21 0 0.37611135D-01 0.22445007D+00 0.25983856D+06 0.25983856D+06 0.25983856D+06 0.10892002D+01  1  2  2  4  6  5        1 0.302343082017D-04 0.100000000000D+01
0.150261128121D-05 0.000000000000D+00 -.224579951902D-07 0.277040279635D-06 0.000000000000D+00  6 -2 1 25 -2 1 21 2 0.37611135D-01 0.22445007D+00 0.25983856D+06 0.25983856D+06 0.25983856D+06 0.10892002D+01  1  2  3  4  6  5        1 0.921620537573D-05 0.100000000000D+01
-.370790426484D-05 0.000000000000D+00 0.000000000000D+00 0.277040279635D-06 0.000000000000D+00  6 -2 1 25 -2 1 21 2 0.37611135D-01 0.22445007D+00 0.25983856D+06 0.25983856D+06 0.25983856D+06 0.10892002D+01  1  2 15  4  6  5        1 -.227422804858D-04 0.100000000000D+01
0.337752416519D-09 0.000000000000D+00 0.000000000000D+00 0.277040279635D-06 0.000000000000D+00  6 -2 1 25 -2 1 21 2 0.37611135D-01 0.22445007D+00 0.25982314D+06 0.25982314D+06 0.25982314D+06 0.10892022D+01  1  2 12  4  6  5        1 0.207160318717D-08 0.100000000000D+01
0.100023088107D-06 0.000000000000D+00 0.000000000000D+00 0.277040279635D-06 0.000000000000D+00  6 -2 1 25 -2 1 21 2 0.37611135D-01 0.22445007D+00 0.25982314D+06 0.25982314D+06 0.25982314D+06 0.10892022D+01  1  2 12  4  6  5        1 0.613491237896D-06 0.100000000000D+01
-.734156744375D-03 0.000000000000D+00 0.000000000000D+00 0.277040279635D-06 0.000000000000D+00  6 -2 1 25 -2 1 21 2 0.37611135D-01 0.22445007D+00 0.25983856D+06 0.25983856D+06 0.25983856D+06 0.10892002D+01  1  2  4  4  6  5        1 -.450292062808D-02 0.100000000000D+01
-.552762019392D-04 0.000000000000D+00 0.000000000000D+00 0.277040279635D-06 0.000000000000D+00  6 -2 1 25 -2 1 21 2 0.37611135D-01 0.22445007D+00 0.25983856D+06 0.25983856D+06 0.25983856D+06 0.10892002D+01  1  2  5  4  6  5        1 -.339034343634D-03 0.100000000000D+01
0.216992862278D-03 0.000000000000D+00 -.000000000000D+00 0.277040279635D-06 0.000000000000D+00  6 -2 1 25 -2 1 21 2 0.37611135D-01 0.22445007D+00 0.25983856D+06 0.25983856D+06 0.25983856D+06 0.10892002D+01  1  2  6  4  6  5        1 0.133091692365D-02 0.100000000000D+01
0.598814345108D-04 0.000000000000D+00 0.000000000000D+00 0.277040279635D-06 0.283586090178D-07  6 -2 1 25 -2 1 21 2 0.37611135D-01 0.22445007D+00 0.25982314D+06 0.25982314D+06 0.25982314D+06 0.10892022D+01  1  2 11  4  6  5        1 0.367282555262D-03 0.100000000000D+01
  </mgrwgt>
  </event>
  <event>
  6     66 0.20292227E-05 0.27863334E+02 0.75467711E-02 0.94595057E-01
       -2 -1    0    0    0  501 0.00000000E+00 0.00000000E+00 0.71872153E+03 0.71872160E+03 0.32000000E+00 0.0000E+00 0.9000E+01
        1 -1    0    0  502    0 -.00000000E+00 -.00000000E+00 -.17056325E+04 0.17056325E+04 0.32000000E+00 0.0000E+00 0.9000E+01
       25  1    1    2    0    0 0.44431471E+03 -.12904590E+03 -.66710725E+03 0.82141676E+03 0.12500000E+03 0.0000E+00 0.9000E+01
       -2  1    1    2    0  503 -.43663654E+03 0.91684476E+02 0.49708511E+03 0.66794552E+03 0.32000000E+00 0.0000E+00 0.9000E+01
        1  1    1    2  502    0 0.23566630E+02 -.55620452E+01 -.86380076E+03 0.86414014E+03 0.32000000E+00 0.0000E+00 0.9000E+01
       21  1    1    2  503  501 -.31244807E+02 0.42923471E+02 0.46911981E+02 0.70851667E+02 0.75000000E+00 0.0000E+00 0.9000E+01
#aMCatNLO 2  0  0  4  2 0.32664909D+02 0.00000000D+00  -5  6  0 0.00000000D+00 0.00000000D+00 0.00000000D+00 0.00000000D+00 0.00000000D+00
  <mgrwgt>
 0.3049486914D-02    4    2    0
 0.110719234428474D+04 0.000000000000000D+00 0.000000000000000D+00 0.110719234428474D+04
 0.110719234428474D+04 -.000000000000000D+00 -.000000000000000D+00 -.110719234428474D+04
 0.603326141729830D+03 0.445038808112683D+03 -.129254647668855D+03 -.365528560613594D+03
 0.104836070190958D+04 -.469310729131082D+03 0.135019176994132D+03 0.927673122751017D+03
 0.562697844930065D+03 0.242719210183999D+02 -.576452932527673D+01 -.562144562137422D+03
 0.000000000000000D+00 0.000000000000000D+00 0.000000000000000D+00 0.000000000000000D+00
 0.110719234428474D+04 0.000000000000000D+00 0.000000000000000D+00 0.110719234428474D+04
 0.110719234428474D+04 -.000000000000000D+00 -.000000000000000D+00 -.110719234428474D+04
 0.601832314062075D+03 0.444290484324559D+03 -.129039357338321D+03 -.364049370340994D+03
 0.952771561749518D+03 -.436618603718112D+03 0.916628336746592D+02 0.841864459808461D+03
 0.561287872653258D+03 0.235740001384221D+02 -.556373974819613D+01 -.560765001854705D+03
 0.984929401046228D+02 -.312458807448688D+02 0.429402634118581D+02 0.829499123872382D+02
-.112293025650D-03 0.000000000000D+00 0.000000000000D+00 0.590486662715D-04 0.000000000000D+00  6 -2 1 25 -2 1 21 2 0.11057255D+00 0.26240500D+00 0.24665375D+06 0.24665375D+06 0.24665375D+06 0.10908996D+01  1  2  8  3  6  4       -2 -.474977497693D-04 0.100000000000D+01
-.328354298293D-04 0.000000000000D+00 0.000000000000D+00 0.590486662715D-04 0.000000000000D+00  6 -2 1 25 -2 1 21 2 0.11057255D+00 0.26240500D+00 0.24665375D+06 0.24665375D+06 0.24665375D+06 0.10908996D+01  1  2  9  3  6  4       -2 -.138887434956D-04 0.100000000000D+01
0.360645099135D-04 0.000000000000D+00 0.000000000000D+00 0.590486662715D-04 0.000000000000D+00  6 -2 1 25 -2 1 21 2 0.11057255D+00 0.26240500D+00 0.24665375D+06 0.24665375D+06 0.24665375D+06 0.10908996D+01  1  2 10  3  6  4       -2 0.152545811060D-04 0.100000000000D+01
0.733645737092D-02 0.000000000000D+00 0.000000000000D+00 0.590486662715D-04 0.207688715302D-06  6 -2 1 25 -2 1 21 2 0.11057255D+00 0.26240500D+00 0.25135319D+06 0.25135319D+06 0.25135319D+06 0.10902828D+01  1  2  1  3  6  4       -2 0.309561882628D-02 0.100000000000D+01
  </mgrwgt>
  </event>
  <event>
  6     66 0.20292227E-05 0.19223918E+02 0.75467711E-02 0.94730096E-01
       -2 -1    0    0    0  501 0.00000000E+00 0.00000000E+00 0.60178536E+03 0.60178545E+03 0.32000000E+00 0.0000E+00 0.9000E+01
        1 -1    0    0  502    0 -.00000000E+00 -.00000000E+00 -.15310849E+04 0.15310849E+04 0.32000000E+00 0.0000E+00 0.9000E+01
       25  1    1    2    0    0 0.16483714E+03 -.43742597E+03 -.61415844E+03 0.78187489E+03 0.12500000E+03 0.0000E+00 0.9000E+01
       -2  1    1    2    0  501 -.35628876E+02 -.12995771E+02 0.44720985E+03 0.44881517E+03 0.32000000E+00 0.0000E+00 0.9000E+01
        1  1    1    2  503    0 -.11073770E+03 0.40724197E+03 -.60274217E+03 0.73580371E+03 0.32000000E+00 0.0000E+00 0.9000E+01
       21  1    1    2  502  503 -.18470563E+02 0.43179767E+02 -.15960874E+03 0.16637658E+03 0.75000000E+00 0.0000E+00 0.9000E+01
#aMCatNLO 2  0  0  5  5 0.42571207D+02 0.00000000D+00  -5  6  0 0.00000000D+00 0.00000000D+00 0.00000000D+00 0.00000000D+00 0.00000000D+00
  <mgrwgt>
 0.5869243212D-02    1    2    0
 0.959887799722446D+03 0.000000000000000D+00 0.000000000000000D+00 0.959887799722446D+03
 0.959887799722446D+03 -.000000000000000D+00 -.000000000000000D+00 -.959887799722446D+03
 0.572216711890253D+03 0.165494943360728D+03 -.439718374281587D+03 -.301771669325801D+03
 0.717684563927985D+03 -.348133115318533D+02 -.158336528610463D+02 0.716664818501483D+03
 0.629874323626655D+03 -.130681631828875D+03 0.455552027142633D+03 -.414893149175683D+03
 0.000000000000000D+00 0.000000000000000D+00 0.000000000000000D+00 -.000000000000000D+00
 0.959887799722446D+03 0.000000000000000D+00 0.000000000000000D+00 0.959887799722446D+03
 0.959887799722446D+03 -.000000000000000D+00 -.000000000000000D+00 -.959887799722446D+03
 0.571383134361815D+03 0.164844424256257D+03 -.437450685298907D+03 -.303836962788056D+03
 0.715083612544945D+03 -.356283195734588D+02 -.129925606563125D+02 0.714077299136650D+03
 0.525615628887764D+03 -.110724427743753D+03 0.407211067455892D+03 -.313354490909787D+03
 0.107693223650368D+03 -.184916769390449D+02 0.432321784993285D+02 -.968858454388074D+02
0.690308906493D-02 0.000000000000D+00 0.000000000000D+00 0.110353942215D-04 0.879264715235D-07  6 -2 1 25 -2 1 21 2 0.92582372D-01 0.23555153D+00 0.24544251D+06 0.24544251D+06 0.24544251D+06 0.10910607D+01  1  2  1  4  6  5        1 0.586924321172D-02 0.100000000000D+01
  </mgrwgt>
  </event>
  <event>
  6     66 -.20292227E-05 0.61875361E+02 0.75467711E-02 0.94152933E-01
       -2 -1    0    0    0  501 0.00000000E+00 0.00000000E+00 0.93189803E+03 0.93189809E+03 0.32000000E+00 0.0000E+00 0.9000E+01
        1 -1    0    0  502    0 -.00000000E+00 -.00000000E+00 -.22697541E+04 0.22697541E+04 0.32000000E+00 0.0000E+00 0.9000E+01
       25  1    1    2    0    0 -.47022411E+03 0.10952549E+03 -.67682104E+03 0.84072485E+03 0.12500000E+03 0.0000E+00 0.9000E+01
       -2  1    1    2    0  503 0.65032365E+02 0.39453714E+02 0.79832826E+03 0.80194384E+03 0.32000000E+00 0.0000E+00 0.9000E+01
        1  1    1    2  502    0 0.42101409E+03 -.12542107E+03 -.14655116E+04 0.15299371E+04 0.32000000E+00 0.0000E+00 0.9000E+01
       21  1    1    2  503  501 -.15822349E+02 -.23558129E+02 0.61482539E+01 0.29046440E+02 0.75000000E+00 0.0000E+00 0.9000E+01
#aMCatNLO 2  0  0  4  5 0.29023802D+02 0.00000000D+00  -5  6  0 0.00000000D+00 0.00000000D+00 0.00000000D+00 0.00000000D+00 0.00000000D+00
  <mgrwgt>
 -.3489081668D-04    3    2    0
 0.145436567696101D+04 0.000000000000000D+00 0.000000000000000D+00 0.145436567696101D+04
 0.145436567696101D+04 -.000000000000000D+00 -.000000000000000D+00 -.145436567696101D+04
 0.616206052261135D+03 -.470499191272285D+03 0.109525257933018D+03 -.361551694409090D+03
 0.127757885900949D+04 0.495522755844573D+02 0.160061395883963D+02 0.127651718220628D+04
 0.101494644265140D+04 0.420946915687829D+03 -.125531397521414D+03 -.914965487797194D+03
 0.000000000000000D+00 0.000000000000000D+00 0.000000000000000D+00 0.000000000000000D+00
 0.145436567696101D+04 0.000000000000000D+00 0.000000000000000D+00 0.145436567696101D+04
 0.145436567696101D+04 -.000000000000000D+00 -.000000000000000D+00 -.145436567696101D+04
 0.614137485205254D+03 -.470368077344866D+03 0.109567609728157D+03 -.358174065850093D+03
 0.124977896068259D+04 0.650344305536404D+02 0.394614773111339D+02 0.124746172895839D+04
 0.101001914541262D+04 0.421162710043677D+03 -.125461692658391D+03 -.909406404993934D+03
 0.347957626215588D+02 -.158290632524511D+02 -.235673943809005D+02 0.201187418856367D+02
-.179615232104D-09 0.000000000000D+00 0.000000000000D+00 0.133828433711D-03 0.000000000000D+00  6 -2 1 25 -2 1 21 2 0.14336893D+00 0.34919295D+00 0.27185154D+06 0.27185154D+06 0.27185154D+06 0.10877319D+01  1  2 13  3  6  4       -2 -.160647542885D-10 0.100000000000D+01
-.669077396644D-03 0.000000000000D+00 0.000000000000D+00 0.133828433711D-03 0.000000000000D+00  6 -2 1 25 -2 1 21 2 0.14336893D+00 0.34919295D+00 0.24518754D+06 0.24518754D+06 0.24518754D+06 0.10910947D+01  1  2  8  3  6  4       -2 -.607574705749D-04 0.100000000000D+01
0.289207531246D-03 0.000000000000D+00 0.000000000000D+00 0.133828433711D-03 0.607156349832D-08  6 -2 1 25 -2 1 21 2 0.14336893D+00 0.34919295D+00 0.27185154D+06 0.27185154D+06 0.27185154D+06 0.10877319D+01  1  2  1  3  6  4       -2 0.258666699557D-04 0.100000000000D+01
  </mgrwgt>
  </event>
  <event>
  6     66 0.20292227E-05 0.37556385E+02 0.75467711E-02 0.92141478E-01
       21 -1    0    0  503  501 0.00000000E+00 0.00000000E+00 0.12883590E+04 0.12883593E+04 0.75000000E+00 0.0000E+00 0.9000E+01
        1 -1    0    0  502    0 0.00000000E+00 0.00000000E+00 -.70053025E+03 0.70053032E+03 0.32000000E+00 0.0000E+00 0.9000E+01
       25  1    1    2    0    0 -.60015802E+03 -.16945116E+02 0.51510717E+03 0.80089773E+03 0.12500000E+03 0.0000E+00 0.9000E+01
       -2  1    1    2    0  501 0.17989791E+02 -.39730504E+02 0.25624774E+03 0.25993298E+03 0.32000000E+00 0.0000E+00 0.9000E+01
        1  1    1    2  502    0 0.53567246E+03 0.19807143E+02 -.42205978E+03 0.68225498E+03 0.32000000E+00 0.0000E+00 0.9000E+01
        2  1    1    2  503    0 0.46495772E+02 0.36868477E+02 0.23853366E+03 0.24580388E+03 0.32000000E+00 0.0000E+00 0.9000E+01
#aMCatNLO 2  0  0  1  4 0.17224187D+01 0.00000000D+00  -5  6  0 0.00000000D+00 0.00000000D+00 0.00000000D+00 0.00000000D+00 0.00000000D+00
  <mgrwgt>
 0.3384478988D-04    1    2    0
 0.853349213123500D+03 0.000000000000000D+00 0.000000000000000D+00 0.853349213123500D+03
 0.853349213123500D+03 0.000000000000000D+00 0.000000000000000D+00 -.853349213123500D+03
 0.696009948649036D+03 -.581067780549917D+03 -.177971134794667D+01 0.362162830302539D+03
 0.212428608490060D+03 0.237587456883910D+02 -.350966911753481D+02 0.208157771838766D+03
 0.798259869107903D+03 0.557309034861526D+03 0.368764025232947D+02 -.570320602141305D+03
 0.000000000000000D+00 0.000000000000000D+00 0.000000000000000D+00 0.000000000000000D+00
 0.105151455368282D+04 0.000000000000000D+00 0.000000000000000D+00 0.105151455368282D+04
 0.858318604804771D+03 0.000000000000000D+00 0.000000000000000D+00 -.858318604804771D+03
 0.712299043899018D+03 -.600245344742926D+03 -.169864181378955D+02 0.362162830302539D+03
 0.212667870491815D+03 0.179700195941643D+02 -.396868184467938D+02 0.208157771838766D+03
 0.782762765492659D+03 0.535779552889822D+03 0.198047600358433D+02 -.570320602141305D+03
 0.202103478604099D+03 0.464957722589397D+02 0.368684765488460D+02 0.193195948878049D+03
0.978761631893D-05 0.000000000000D+00 0.000000000000D+00 0.161298558535D-05 0.687552392094D-10  6 21 1 25 -2 1 2 2 0.19820908D+00 0.10777389D+00 0.39213163D+06 0.39213163D+06 0.39213163D+06 0.10760502D+01  1  2  1  5  6  1       -2 0.338447898839D-04 0.100000000000D+01
  </mgrwgt>
  </event>
  <event>
  5     66 0.20292227E-05 0.29169035E+02 0.75467711E-02 0.91391741E-01
       -2 -1    0    0    0  501 0.00000000E+00 0.00000000E+00 0.57861353E+03 0.57861362E+03 0.32000000E+00 0.0000E+00 0.9000E+01
        1 -1    0    0  502    0 -.00000000E+00 -.00000000E+00 -.14117074E+04 0.14117074E+04 0.32000000E+00 0.0000E+00 0.9000E+01
       25  1    1    2    0    0 0.47476513E+03 -.20959153E+03 -.33194322E+03 0.62860308E+03 0.12500000E+03 0.0000E+00 0.9000E+01
       -2  1    1    2    0  501 -.27168161E+01 0.29047675E+02 0.36109482E+03 0.36227161E+03 0.32000000E+00 0.0000E+00 0.9000E+01
        1  1    1    2  502    0 -.47204831E+03 0.18054386E+03 -.86224545E+03 0.99944635E+03 0.32000000E+00 0.0000E+00 0.9000E+01
#aMCatNLO 1  0  0  4  1 0.43871349D+03 0.00000000D+00  -5  6  0 0.00000000D+00 0.00000000D+00 0.00000000D+00 0.00000000D+00 0.00000000D+00
  <mgrwgt>
 0.8054471946D-03    6    2    0
 0.903788206601386D+03 0.000000000000000D+00 0.000000000000000D+00 0.903788206601386D+03
 0.903788206601386D+03 -.000000000000000D+00 -.000000000000000D+00 -.903788206601386D+03
 0.539230506428002D+03 0.474840049659705D+03 -.209618007628223D+03 -.757083692846545D+02
 0.565216972934629D+03 -.271631187429596D+01 0.290422837768960D+02 0.564463810971269D+03
 0.703128933840142D+03 -.472123737785410D+03 0.180575723851327D+03 -.488755441686614D+03
 0.000000000000000D+00 0.000000000000000D+00 0.000000000000000D+00 0.000000000000000D+00
 0.903788206601386D+03 0.000000000000000D+00 0.000000000000000D+00 0.903788206601386D+03
 0.903788206601386D+03 -.000000000000000D+00 -.000000000000000D+00 -.903788206601386D+03
 0.535241944738995D+03 0.474701313116161D+03 -.208134663205963D+03 -.468781900878710D+02
 0.210582717110302D+03 -.148167464416500D+03 -.242380338027299D+02 0.147661778911539D+03
 0.678518302005330D+03 -.472302136926022D+03 0.182483133127941D+03 -.451683167425043D+03
 0.383233449348145D+03 0.145768288226360D+03 0.498895638807521D+02 0.350899578601375D+03
0.707337138852D-03 0.000000000000D+00 0.000000000000D+00 0.111820885898D-04 0.000000000000D+00  6 -2 1 25 -2 1 21 0 0.89017476D-01 0.21718576D+00 0.28544269D+06 0.28544269D+06 0.28544269D+06 0.10861537D+01  1  2  2  3  6  4       -2 0.660618962115D-03 0.100000000000D+01
0.438273807146D-03 0.000000000000D+00 -.271636085934D-05 0.111820885898D-04 0.000000000000D+00  6 -2 1 25 -2 1 21 2 0.89017476D-01 0.21718576D+00 0.28544269D+06 0.28544269D+06 0.28544269D+06 0.10861537D+01  1  2  3  3  6  4       -2 0.482894973148D-03 0.100000000000D+01
-.426395431861D-03 0.000000000000D+00 0.000000000000D+00 0.111820885898D-04 0.000000000000D+00  6 -2 1 25 -2 1 21 2 0.89017476D-01 0.21718576D+00 0.28544269D+06 0.28544269D+06 0.28544269D+06 0.10861537D+01  1  2 15  3  6  4       -2 -.469807246661D-03 0.100000000000D+01
-.135519785018D-04 0.000000000000D+00 0.000000000000D+00 0.111820885898D-04 0.000000000000D+00  6 -2 1 25 -2 1 21 2 0.89017476D-01 0.21718576D+00 0.28544269D+06 0.28544269D+06 0.28544269D+06 0.10861537D+01  1  2  4  3  6  4       -2 -.149317211935D-04 0.100000000000D+01
-.163910950501D-03 0.000000000000D+00 0.000000000000D+00 0.111820885898D-04 0.000000000000D+00  6 -2 1 25 -2 1 21 2 0.89017476D-01 0.21718576D+00 0.28544269D+06 0.28544269D+06 0.28544269D+06 0.10861537D+01  1  2  5  3  6  4       -2 -.180598914994D-03 0.100000000000D+01
0.297030156554D-03 0.000000000000D+00 -.000000000000D+00 0.111820885898D-04 0.000000000000D+00  6 -2 1 25 -2 1 21 2 0.89017476D-01 0.21718576D+00 0.28544269D+06 0.28544269D+06 0.28544269D+06 0.10861537D+01  1  2  6  3  6  4       -2 0.327271142227D-03 0.100000000000D+01
  </mgrwgt>
  </event>
</LesHouchesEvents>
