<event>
 5    0  0.1911311E+001  0.2274126E+03  0.7546771E-02  0.1128474E+00
         21   -1    0    0  504  501  0.00000000000E+00  0.00000000000E+00  0.12211375106E+04  0.12211375106E+04  0.00000000000E+00 0. -1.
         21   -1    0    0  503  502 -0.00000000000E+00 -0.00000000000E+00 -0.24585956627E+03  0.24585956627E+03  0.00000000000E+00 0. -1.
         25    1    1    2    0    0 -0.23411235577E+03 -0.33571920174E+02  0.90036565547E+03  0.93926512897E+03  0.12500000000E+03 0.  0.
         21    1    1    2  503  501  0.87654352779E+02  0.30174776541E+02 -0.19764109405E+03  0.21830209518E+03  0.00000000000E+00 0. -1.
         21    1    1    2  504  502  0.14645800299E+03  0.33971436324E+01  0.27255338292E+03  0.30942985274E+03  0.00000000000E+00 0. -1.
<mgrwt>
<rscale>  4 0.22741257E+03</rscale>
<asrwt>0</asrwt>
<pdfrwt beam="1">  1       21 0.18786731E+00 0.22741257E+03</pdfrwt>
<pdfrwt beam="2">  1       21 0.37824549E-01 0.22741257E+03</pdfrwt>
<totfact> 0.10477865E+03</totfact>
</mgrwt>
</event>
<event>
 5    0  0.1911311E+001  0.3304148E+03  0.7546771E-02  0.1070953E+00
         21   -1    0    0  503  501  0.00000000000E+00  0.00000000000E+00  0.14600112712E+04  0.14600112712E+04  0.00000000000E+00 0.  1.
         21   -1    0    0  501  502 -0.00000000000E+00 -0.00000000000E+00 -0.21639060929E+03  0.21639060929E+03  0.00000000000E+00 0.  1.
         25    1    1    2    0    0  0.28505814177E+03  0.26476904140E+03  0.11161734852E+04  0.11886248519E+04  0.12500000000E+03 0.  0.
         21    1    1    2  503  504 -0.19853840423E+03 -0.22020406937E+03 -0.34853498332E+02  0.29853324182E+03  0.00000000000E+00 0.  1.
         21    1    1    2  504  502 -0.86519737535E+02 -0.44564972028E+02  0.16230067505E+03  0.18924378678E+03  0.00000000000E+00 0. -1.
<mgrwt>
<rscale>  4 0.33041476E+03</rscale>
<asrwt>0</asrwt>
<pdfrwt beam="1">  1       21 0.22461711E+00 0.33041476E+03</pdfrwt>
<pdfrwt beam="2">  1       21 0.33290864E-01 0.33041476E+03</pdfrwt>
<totfact> 0.72202713E+02</totfact>
</mgrwt>
</event>
<event>
 5    0  0.1911311E+001  0.2325442E+03  0.7546771E-02  0.1124862E+00
         21   -1    0    0  504  501  0.00000000000E+00  0.00000000000E+00  0.16255065267E+04  0.16255065267E+04  0.00000000000E+00 0. -1.
         21   -1    0    0  503  502 -0.00000000000E+00 -0.00000000000E+00 -0.12067710439E+03  0.12067710439E+03  0.00000000000E+00 0. -1.
         25    1    1    2    0    0 -0.17280463480E+03  0.29185001638E+03  0.56190648466E+03  0.66813304915E+03  0.12500000000E+03 0.  0.
         21    1    1    2  503  501  0.85178919059E+02 -0.14217226109E+03  0.56930107853E+02  0.17524108324E+03  0.00000000000E+00 0. -1.
         21    1    1    2  504  502  0.87625715740E+02 -0.14967775529E+03  0.88599282979E+03  0.90280949869E+03  0.00000000000E+00 0. -1.
<mgrwt>
<rscale>  4 0.23254421E+03</rscale>
<asrwt>0</asrwt>
<pdfrwt beam="1">  1       21 0.25007791E+00 0.23254421E+03</pdfrwt>
<pdfrwt beam="2">  1       21 0.18565710E-01 0.23254421E+03</pdfrwt>
<totfact> 0.16865495E+03</totfact>
</mgrwt>
</event>
<event>
 5    0  0.1911311E+001  0.3967566E+03  0.7546771E-02  0.1044909E+00
         21   -1    0    0  502  501  0.00000000000E+00  0.00000000000E+00  0.75106564988E+03  0.75106564988E+03  0.00000000000E+00 0. -1.
         21   -1    0    0  504  502 -0.00000000000E+00 -0.00000000000E+00 -0.54528734988E+03  0.54528734988E+03  0.00000000000E+00 0.  1.
         25    1    1    2    0    0  0.21417344399E+03  0.35663409440E+03  0.43727620590E+03  0.61635511001E+03  0.12500000000E+03 0.  0.
         21    1    1    2  503  501  0.20802042360E+02 -0.69119178747E+02  0.13826486790E+03  0.15597230374E+03  0.00000000000E+00 0. -1.
         21    1    1    2  504  503 -0.23497548635E+03 -0.28751491565E+03 -0.36976277379E+03  0.52402558601E+03  0.00000000000E+00 0.  1.
<mgrwt>
<rscale>  4 0.39675657E+03</rscale>
<asrwt>0</asrwt>
<pdfrwt beam="1">  1       21 0.11554856E+00 0.39675657E+03</pdfrwt>
<pdfrwt beam="2">  1       21 0.83890362E-01 0.39675657E+03</pdfrwt>
<totfact> 0.61633633E+02</totfact>
</mgrwt>
</event>
