<event>
 5    0  0.1467858E+000  0.3511221E+03  0.7546771E-02  0.1062155E+00
         21   -1    0    0  504  501  0.00000000000E+00  0.00000000000E+00  0.61428188964E+03  0.61428188964E+03  0.00000000000E+00 0. -1.
         21   -1    0    0  501  502 -0.00000000000E+00 -0.00000000000E+00 -0.48183433940E+03  0.48183433940E+03  0.00000000000E+00 0.  1.
         25    1    1    2    0    0  0.28841914625E+03  0.14526919486E+03 -0.32383527176E+03  0.47411288332E+03  0.12500000000E+03 0.  0.
         21    1    1    2  503  502  0.48326311754E+02 -0.74559511720E+01  0.17384278886E+02  0.51896404192E+02  0.00000000000E+00 0.  1.
         21    1    1    2  504  503 -0.33674545800E+03 -0.13781324369E+03  0.43889854312E+03  0.57010694153E+03  0.00000000000E+00 0. -1.
<mgrwt>
<rscale>  4 0.35112210E+03</rscale>
<asrwt>0</asrwt>
<pdfrwt beam="1">  1       21 0.94504906E-01 0.35112210E+03</pdfrwt>
<pdfrwt beam="2">  1       21 0.74128360E-01 0.35112210E+03</pdfrwt>
<totfact> 0.13688676E+03</totfact>
</mgrwt>
</event>
<event>
 5    0  0.2188923E+000  0.2547383E+03  0.7546771E-02  0.1110346E+00
         21   -1    0    0  504  501  0.00000000000E+00  0.00000000000E+00  0.62691692587E+02  0.62691692587E+02  0.00000000000E+00 0.  1.
         21   -1    0    0  501  502 -0.00000000000E+00 -0.00000000000E+00 -0.15386190959E+04  0.15386190959E+04  0.00000000000E+00 0.  1.
         25    1    1    2    0    0  0.21453702144E+02 -0.22092153789E+03 -0.25726771397E+03  0.36204732273E+03  0.12500000000E+03 0.  0.
         21    1    1    2  503  502  0.28330950322E+01  0.20816973161E+02 -0.18025873070E+03  0.18147887698E+03  0.00000000000E+00 0. -1.
         21    1    1    2  504  503 -0.24286797176E+02  0.20010456473E+03 -0.10384009586E+04  0.10577845888E+04  0.00000000000E+00 0.  1.
<mgrwt>
<rscale>  4 0.25473827E+03</rscale>
<asrwt>0</asrwt>
<pdfrwt beam="1">  1       21 0.96448754E-02 0.25473827E+03</pdfrwt>
<pdfrwt beam="2">  1       21 0.23671064E+00 0.25473827E+03</pdfrwt>
<totfact> 0.65359817E+03</totfact>
</mgrwt>
</event>
<event>
 5    0  0.1467858E+000  0.2641945E+03  0.7546771E-02  0.1104649E+00
         21   -1    0    0  504  501  0.00000000000E+00  0.00000000000E+00  0.56769753308E+03  0.56769753308E+03  0.00000000000E+00 0.  1.
         21   -1    0    0  501  502 -0.00000000000E+00 -0.00000000000E+00 -0.44606411187E+03  0.44606411187E+03  0.00000000000E+00 0. -1.
         25    1    1    2    0    0  0.19292833681E+03  0.13020126217E+03 -0.37521995741E+03  0.45889947511E+03  0.12500000000E+03 0.  0.
         21    1    1    2  503  502 -0.43543369890E+02  0.68526735456E+01  0.97313598724E+02  0.10683127207E+03  0.00000000000E+00 0.  1.
         21    1    1    2  504  503 -0.14938496692E+03 -0.13705393572E+03  0.39953977989E+03  0.44803089777E+03  0.00000000000E+00 0.  1.
<mgrwt>
<rscale>  4 0.26419446E+03</rscale>
<asrwt>0</asrwt>
<pdfrwt beam="1">  1       21 0.87338083E-01 0.26419446E+03</pdfrwt>
<pdfrwt beam="2">  1       21 0.68625248E-01 0.26419446E+03</pdfrwt>
<totfact> 0.20606002E+03</totfact>
</mgrwt>
</event>
<event>
 5    0  0.1467858E+000  0.3679998E+03  0.7546771E-02  0.1055460E+00
         21   -1    0    0  504  501  0.00000000000E+00  0.00000000000E+00  0.97664001419E+03  0.97664001419E+03  0.00000000000E+00 0. -1.
         21   -1    0    0  501  502 -0.00000000000E+00 -0.00000000000E+00 -0.15519761604E+03  0.15519761604E+03  0.00000000000E+00 0. -1.
         25    1    1    2    0    0  0.26719815790E+03  0.22927014134E+03  0.24594068233E+03  0.44729349707E+03  0.12500000000E+03 0.  0.
         21    1    1    2  503  502 -0.27477198230E+03 -0.20609421451E+03  0.55500848275E+03  0.65269356013E+03  0.00000000000E+00 0. -1.
         21    1    1    2  504  503  0.75738243915E+01 -0.23175926832E+02  0.20493233068E+02  0.31850573025E+02  0.00000000000E+00 0. -1.
<mgrwt>
<rscale>  4 0.36799980E+03</rscale>
<asrwt>0</asrwt>
<pdfrwt beam="1">  1       21 0.15025231E+00 0.36799980E+03</pdfrwt>
<pdfrwt beam="2">  1       21 0.23876557E-01 0.36799980E+03</pdfrwt>
<totfact> 0.44162166E+03</totfact>
</mgrwt>
</event>
<event>
 5    0  0.1467858E+000  0.2339314E+03  0.7546771E-02  0.1123903E+00
         21   -1    0    0  504  501  0.00000000000E+00  0.00000000000E+00  0.11262828591E+03  0.11262828591E+03  0.00000000000E+00 0.  1.
         21   -1    0    0  501  502 -0.00000000000E+00 -0.00000000000E+00 -0.67931740762E+03  0.67931740762E+03  0.00000000000E+00 0.  1.
         25    1    1    2    0    0  0.14605681029E+03 -0.16954159886E+03 -0.19642061326E+03  0.32292878919E+03  0.12500000000E+03 0.  0.
         21    1    1    2  503  502 -0.12194746877E+02  0.47932178932E+02 -0.24272643910E+03  0.24771421006E+03  0.00000000000E+00 0.  1.
         21    1    1    2  504  503 -0.13386206341E+03  0.12160941993E+03 -0.12754206935E+03  0.22130269427E+03  0.00000000000E+00 0.  1.
<mgrwt>
<rscale>  4 0.23393141E+03</rscale>
<asrwt>0</asrwt>
<pdfrwt beam="1">  1       21 0.17327428E-01 0.23393141E+03</pdfrwt>
<pdfrwt beam="2">  1       21 0.10451037E+00 0.23393141E+03</pdfrwt>
<totfact> 0.21728528E+04</totfact>
</mgrwt>
</event>
<event>
 5    0  0.1467858E+000  0.2562510E+03  0.7546771E-02  0.1109417E+00
         21   -1    0    0  504  501  0.00000000000E+00  0.00000000000E+00  0.25636261214E+03  0.25636261214E+03  0.00000000000E+00 0.  1.
         21   -1    0    0  501  502 -0.00000000000E+00 -0.00000000000E+00 -0.60051385708E+03  0.60051385708E+03  0.00000000000E+00 0.  1.
         25    1    1    2    0    0  0.22232877341E+03  0.24687543501E+02 -0.50720878542E+03  0.56826517604E+03  0.12500000000E+03 0.  0.
         21    1    1    2  503  502 -0.81406130659E+02  0.23900375764E+02  0.86007555613E+02  0.12081177796E+03  0.00000000000E+00 0. -1.
         21    1    1    2  504  503 -0.14092264275E+03 -0.48587919264E+02  0.77049984867E+02  0.16779951522E+03  0.00000000000E+00 0.  1.
<mgrwt>
<rscale>  4 0.25625097E+03</rscale>
<asrwt>0</asrwt>
<pdfrwt beam="1">  1       21 0.39440403E-01 0.25625097E+03</pdfrwt>
<pdfrwt beam="2">  1       21 0.92386746E-01 0.25625097E+03</pdfrwt>
<totfact> 0.58669544E+03</totfact>
</mgrwt>
</event>
<event>
 5    0  0.1467858E+000  0.2921983E+03  0.7546771E-02  0.1089207E+00
         21   -1    0    0  504  501  0.00000000000E+00  0.00000000000E+00  0.34847434563E+03  0.34847434563E+03  0.00000000000E+00 0.  1.
         21   -1    0    0  501  502 -0.00000000000E+00 -0.00000000000E+00 -0.47243251709E+03  0.47243251709E+03  0.00000000000E+00 0.  1.
         25    1    1    2    0    0  0.16831330702E+03  0.23093093766E+03 -0.26100181682E+03  0.40670064626E+03  0.12500000000E+03 0.  0.
         21    1    1    2  503  502 -0.10195861182E+03  0.23427176244E+02 -0.22087635431E+02  0.10692172254E+03  0.00000000000E+00 0.  1.
         21    1    1    2  504  503 -0.66354695194E+02 -0.25435811391E+03  0.15913128079E+03  0.30728449393E+03  0.00000000000E+00 0.  1.
<mgrwt>
<rscale>  4 0.29219825E+03</rscale>
<asrwt>0</asrwt>
<pdfrwt beam="1">  1       21 0.53611438E-01 0.29219825E+03</pdfrwt>
<pdfrwt beam="2">  1       21 0.72681925E-01 0.29219825E+03</pdfrwt>
<totfact> 0.52678512E+03</totfact>
</mgrwt>
</event>
<event>
 5    0  0.1467858E+000  0.3446880E+03  0.7546771E-02  0.1065335E+00
         21   -1    0    0  504  501  0.00000000000E+00  0.00000000000E+00  0.11216258749E+04  0.11216258749E+04  0.00000000000E+00 0. -1.
         21   -1    0    0  501  502 -0.00000000000E+00 -0.00000000000E+00 -0.10604844908E+03  0.10604844908E+03  0.00000000000E+00 0. -1.
         25    1    1    2    0    0  0.30290898870E+03 -0.89820958784E+02  0.42817816846E+03  0.54661065121E+03  0.12500000000E+03 0.  0.
         21    1    1    2  503  502 -0.17347637640E+03  0.47896098486E+02  0.19314609400E+03  0.26399527088E+03  0.00000000000E+00 0. -1.
         21    1    1    2  504  503 -0.12943261229E+03  0.41924860298E+02  0.39425316341E+03  0.41706840193E+03  0.00000000000E+00 0. -1.
<mgrwt>
<rscale>  4 0.34345301E+03</rscale>
<asrwt>0</asrwt>
<pdfrwt beam="1">  1       21 0.17255782E+00 0.34468803E+03</pdfrwt>
<pdfrwt beam="2">  1       21 0.16315147E-01 0.34468803E+03</pdfrwt>
<totfact> 0.62553547E+03</totfact>
</mgrwt>
</event>
<event>
 5    0  0.1467858E+000  0.2109375E+03  0.7546771E-02  0.1140826E+00
         21   -1    0    0  504  501  0.00000000000E+00  0.00000000000E+00  0.42459926642E+03  0.42459926642E+03  0.00000000000E+00 0. -1.
         21   -1    0    0  501  502 -0.00000000000E+00 -0.00000000000E+00 -0.29192584954E+03  0.29192584954E+03  0.00000000000E+00 0.  1.
         25    1    1    2    0    0  0.64133336940E+02 -0.25296341742E+03 -0.12434560392E+03  0.31494508200E+03  0.12500000000E+03 0.  0.
         21    1    1    2  503  502 -0.29976403566E+02  0.15750569359E+03  0.25372924477E+03  0.30014189634E+03  0.00000000000E+00 0. -1.
         21    1    1    2  504  503 -0.34156933374E+02  0.95457723832E+02  0.32897760292E+01  0.10143813762E+03  0.00000000000E+00 0.  1.
<mgrwt>
<rscale>  4 0.21093746E+03</rscale>
<asrwt>0</asrwt>
<pdfrwt beam="1">  1       21 0.65322964E-01 0.21093746E+03</pdfrwt>
<pdfrwt beam="2">  1       21 0.44911669E-01 0.21093746E+03</pdfrwt>
<totfact> 0.10131854E+04</totfact>
</mgrwt>
</event>
<event>
 5    0  0.1467858E+000  0.2965316E+03  0.7546771E-02  0.1086987E+00
         21   -1    0    0  504  501  0.00000000000E+00  0.00000000000E+00  0.10764783564E+03  0.10764783564E+03  0.00000000000E+00 0. -1.
         21   -1    0    0  501  502 -0.00000000000E+00 -0.00000000000E+00 -0.82377757299E+03  0.82377757299E+03  0.00000000000E+00 0. -1.
         25    1    1    2    0    0 -0.11582572223E+03 -0.24267342192E+03 -0.41406060766E+03  0.50929085448E+03  0.12500000000E+03 0.  0.
         21    1    1    2  503  502  0.16770113728E+02  0.13173894211E+03 -0.80549118687E+02  0.15532078452E+03  0.00000000000E+00 0. -1.
         21    1    1    2  504  503  0.99055608504E+02  0.11093447982E+03 -0.22152001100E+03  0.26681376963E+03  0.00000000000E+00 0. -1.
<mgrwt>
<rscale>  4 0.29653160E+03</rscale>
<asrwt>0</asrwt>
<pdfrwt beam="1">  1       21 0.16561205E-01 0.29653160E+03</pdfrwt>
<pdfrwt beam="2">  1       21 0.12673501E+00 0.29653160E+03</pdfrwt>
<totfact> 0.14223984E+04</totfact>
</mgrwt>
</event>
<event>
 5    0  0.1467858E+000  0.2722161E+03  0.7546771E-02  0.1100018E+00
         21   -1    0    0  504  501  0.00000000000E+00  0.00000000000E+00  0.16178646297E+03  0.16178646297E+03  0.00000000000E+00 0.  1.
         21   -1    0    0  501  502 -0.00000000000E+00 -0.00000000000E+00 -0.85243216353E+03  0.85243216353E+03  0.00000000000E+00 0. -1.
         25    1    1    2    0    0  0.24178755314E+03 -0.39243017183E+01 -0.71275143414E+03  0.76296541722E+03  0.12500000000E+03 0.  0.
         21    1    1    2  503  502 -0.16203059608E+03 -0.10994987834E+01  0.44919776070E+02  0.16814550022E+03  0.00000000000E+00 0.  1.
         21    1    1    2  504  503 -0.79756957062E+02  0.50238005017E+01 -0.22814042483E+02  0.83107709063E+02  0.00000000000E+00 0.  1.
<mgrwt>
<rscale>  4 0.27221613E+03</rscale>
<asrwt>0</asrwt>
<pdfrwt beam="1">  1       21 0.24890225E-01 0.27221613E+03</pdfrwt>
<pdfrwt beam="2">  1       21 0.13114341E+00 0.27221613E+03</pdfrwt>
<totfact> 0.61167218E+03</totfact>
</mgrwt>
</event>
<event>
 5    0  0.1467858E+000  0.3933337E+03  0.7546771E-02  0.1046113E+00
         21   -1    0    0  504  501  0.00000000000E+00  0.00000000000E+00  0.23045260473E+03  0.23045260473E+03  0.00000000000E+00 0.  1.
         21   -1    0    0  501  502 -0.00000000000E+00 -0.00000000000E+00 -0.66680743096E+03  0.66680743096E+03  0.00000000000E+00 0.  1.
         25    1    1    2    0    0  0.23732728708E+03  0.28768407227E+03 -0.15698529592E+03  0.42350413194E+03  0.12500000000E+03 0.  0.
         21    1    1    2  503  502 -0.18750036980E+03 -0.26637471684E+03 -0.21841819239E+03  0.39219687048E+03  0.00000000000E+00 0.  1.
         21    1    1    2  504  503 -0.49826917283E+02 -0.21309355436E+02 -0.60951337917E+02  0.81559033276E+02  0.00000000000E+00 0. -1.
<mgrwt>
<rscale>  4 0.39333366E+03</rscale>
<asrwt>0</asrwt>
<pdfrwt beam="1">  1       21 0.35454247E-01 0.39333366E+03</pdfrwt>
<pdfrwt beam="2">  1       21 0.10258576E+00 0.39333366E+03</pdfrwt>
<totfact> 0.53120759E+03</totfact>
</mgrwt>
</event>
<event>
 5    0  0.1467858E+000  0.2684673E+03  0.7546771E-02  0.1102160E+00
         21   -1    0    0  504  501  0.00000000000E+00  0.00000000000E+00  0.21798515846E+03  0.21798515846E+03  0.00000000000E+00 0.  1.
         21   -1    0    0  501  502 -0.00000000000E+00 -0.00000000000E+00 -0.30246982781E+03  0.30246982781E+03  0.00000000000E+00 0.  1.
         25    1    1    2    0    0  0.22552180846E+03 -0.74763687962E+02 -0.58574713367E+02  0.27478299106E+03  0.12500000000E+03 0.  0.
         21    1    1    2  503  502 -0.15611080000E+02  0.17892144306E+02 -0.14652914252E+02  0.27902375217E+02  0.00000000000E+00 0.  1.
         21    1    1    2  504  503 -0.20991072846E+03  0.56871543656E+02 -0.11257041730E+02  0.21776961999E+03  0.00000000000E+00 0.  1.
<mgrwt>
<rscale>  4 0.26846731E+03</rscale>
<asrwt>0</asrwt>
<pdfrwt beam="1">  1       21 0.33536178E-01 0.26846731E+03</pdfrwt>
<pdfrwt beam="2">  1       21 0.46533820E-01 0.26846731E+03</pdfrwt>
<totfact> 0.36576414E+04</totfact>
</mgrwt>
</event>
<event>
 5    0  0.1467858E+000  0.2853821E+03  0.7546771E-02  0.1092785E+00
         21   -1    0    0  504  501  0.00000000000E+00  0.00000000000E+00  0.96146214823E+02  0.96146214823E+02  0.00000000000E+00 0. -1.
         21   -1    0    0  501  502 -0.00000000000E+00 -0.00000000000E+00 -0.11363376236E+04  0.11363376236E+04  0.00000000000E+00 0. -1.
         25    1    1    2    0    0  0.24712180187E+02  0.25535709337E+03 -0.88468369439E+03  0.92957419075E+03  0.12500000000E+03 0.  0.
         21    1    1    2  503  502 -0.28513207416E+02 -0.23320767319E+03 -0.12855020838E+03  0.26781332660E+03  0.00000000000E+00 0. -1.
         21    1    1    2  504  503  0.38010272294E+01 -0.22149420177E+02 -0.26957505987E+02  0.35096321050E+02  0.00000000000E+00 0.  1.
<mgrwt>
<rscale>  4 0.28538209E+03</rscale>
<asrwt>0</asrwt>
<pdfrwt beam="1">  1       21 0.14791726E-01 0.28538209E+03</pdfrwt>
<pdfrwt beam="2">  1       21 0.17482117E+00 0.28538209E+03</pdfrwt>
<totfact> 0.74507618E+03</totfact>
</mgrwt>
</event>
<event>
 5    0  0.1467858E+000  0.2725200E+03  0.7546771E-02  0.1099846E+00
         21   -1    0    0  504  501  0.00000000000E+00  0.00000000000E+00  0.10667636256E+04  0.10667636256E+04  0.00000000000E+00 0. -1.
         21   -1    0    0  501  502 -0.00000000000E+00 -0.00000000000E+00 -0.12462768239E+03  0.12462768239E+03  0.00000000000E+00 0. -1.
         25    1    1    2    0    0  0.80583024899E+02 -0.22836047834E+03  0.71438561203E+02  0.28172788289E+03  0.12500000000E+03 0.  0.
         21    1    1    2  503  502 -0.19551247395E+02  0.16270704205E+03  0.43510268679E+03  0.46494105095E+03  0.00000000000E+00 0. -1.
         21    1    1    2  504  503 -0.61031777504E+02  0.65653436297E+02  0.43559469521E+03  0.44472237414E+03  0.00000000000E+00 0. -1.
<mgrwt>
<rscale>  4 0.27251997E+03</rscale>
<asrwt>0</asrwt>
<pdfrwt beam="1">  1       21 0.16411747E+00 0.27251997E+03</pdfrwt>
<pdfrwt beam="2">  1       21 0.19173490E-01 0.27251997E+03</pdfrwt>
<totfact> 0.55358263E+03</totfact>
</mgrwt>
</event>
<event>
 5    0  0.1467858E+000  0.2989746E+03  0.7546771E-02  0.1085754E+00
         21   -1    0    0  504  501  0.00000000000E+00  0.00000000000E+00  0.10373914391E+04  0.10373914391E+04  0.00000000000E+00 0. -1.
         21   -1    0    0  501  502 -0.00000000000E+00 -0.00000000000E+00 -0.15374401541E+03  0.15374401541E+03  0.00000000000E+00 0. -1.
         25    1    1    2    0    0 -0.16325236729E+03 -0.21704712671E+03  0.41916297198E+02  0.30189860319E+03  0.12500000000E+03 0.  0.
         21    1    1    2  503  502  0.57607804209E+02  0.11266825357E+03  0.26456827174E+03  0.29327319154E+03  0.00000000000E+00 0. -1.
         21    1    1    2  504  503  0.10564456308E+03  0.10437887314E+03  0.57716285479E+03  0.59596365982E+03  0.00000000000E+00 0. -1.
<mgrwt>
<rscale>  4 0.29897457E+03</rscale>
<asrwt>0</asrwt>
<pdfrwt beam="1">  1       21 0.15959868E+00 0.29897457E+03</pdfrwt>
<pdfrwt beam="2">  1       21 0.23652926E-01 0.29897457E+03</pdfrwt>
<totfact> 0.39519486E+03</totfact>
</mgrwt>
</event>
<event>
 5    0  0.1467858E+000  0.2218053E+03  0.7546771E-02  0.1132544E+00
         21   -1    0    0  504  501  0.00000000000E+00  0.00000000000E+00  0.25366572400E+03  0.25366572400E+03  0.00000000000E+00 0. -1.
         21   -1    0    0  501  502 -0.00000000000E+00 -0.00000000000E+00 -0.27548753233E+03  0.27548753233E+03  0.00000000000E+00 0. -1.
         25    1    1    2    0    0 -0.20118523223E+03 -0.29427633567E+02 -0.12852243105E+03  0.27108024378E+03  0.12500000000E+03 0.  0.
         21    1    1    2  503  502  0.45858241890E+02 -0.32138078018E+00  0.87463690815E+02  0.98757171111E+02  0.00000000000E+00 0. -1.
         21    1    1    2  504  503  0.15532699034E+03  0.29749014347E+02  0.19236931912E+02  0.15931584144E+03  0.00000000000E+00 0. -1.
<mgrwt>
<rscale>  4 0.22180526E+03</rscale>
<asrwt>0</asrwt>
<pdfrwt beam="1">  1       21 0.39025496E-01 0.22180526E+03</pdfrwt>
<pdfrwt beam="2">  1       21 0.42382697E-01 0.22180526E+03</pdfrwt>
<totfact> 0.33400944E+04</totfact>
</mgrwt>
</event>
<event>
 5    0  0.1467858E+000  0.3878347E+03  0.7546771E-02  0.1048075E+00
         21   -1    0    0  504  501  0.00000000000E+00  0.00000000000E+00  0.11339044789E+04  0.11339044789E+04  0.00000000000E+00 0. -1.
         21   -1    0    0  501  502 -0.00000000000E+00 -0.00000000000E+00 -0.14010047700E+03  0.14010047700E+03  0.00000000000E+00 0. -1.
         25    1    1    2    0    0  0.35216383992E+03  0.10378510171E+03  0.68801894528E+03  0.78980110569E+03  0.12500000000E+03 0.  0.
         21    1    1    2  503  502 -0.23549354468E+03 -0.99235381698E+02  0.23790459813E+03  0.34914677197E+03  0.00000000000E+00 0. -1.
         21    1    1    2  504  503 -0.11667029524E+03 -0.45497200073E+01  0.67880458540E+02  0.13505707829E+03  0.00000000000E+00 0. -1.
<mgrwt>
<rscale>  4 0.38783465E+03</rscale>
<asrwt>0</asrwt>
<pdfrwt beam="1">  1       21 0.17444684E+00 0.38783465E+03</pdfrwt>
<pdfrwt beam="2">  1       21 0.21553920E-01 0.38783465E+03</pdfrwt>
<totfact> 0.35181344E+03</totfact>
</mgrwt>
</event>
<event>
 5    0  0.1467858E+000  0.2895146E+03  0.7546771E-02  0.1090603E+00
         21   -1    0    0  504  501  0.00000000000E+00  0.00000000000E+00  0.14443439644E+04  0.14443439644E+04  0.00000000000E+00 0.  1.
         21   -1    0    0  501  502 -0.00000000000E+00 -0.00000000000E+00 -0.65229275689E+02  0.65229275689E+02  0.00000000000E+00 0.  1.
         25    1    1    2    0    0 -0.21686184306E+03 -0.14548067086E+03  0.42951709488E+03  0.51798032720E+03  0.12500000000E+03 0.  0.
         21    1    1    2  503  502  0.46025606810E+02  0.96407596968E+02  0.39627049710E+03  0.41041818687E+03  0.00000000000E+00 0.  1.
         21    1    1    2  504  503  0.17083623625E+03  0.49073073896E+02  0.55332709669E+03  0.58117472599E+03  0.00000000000E+00 0.  1.
<mgrwt>
<rscale>  4 0.28951457E+03</rscale>
<asrwt>0</asrwt>
<pdfrwt beam="1">  1       21 0.22220674E+00 0.28951457E+03</pdfrwt>
<pdfrwt beam="2">  1       21 0.10035274E-01 0.28951457E+03</pdfrwt>
<totfact> 0.73032648E+03</totfact>
</mgrwt>
</event>
<event>
 5    0  0.1467858E+000  0.2880776E+03  0.7546771E-02  0.1091357E+00
         21   -1    0    0  504  501  0.00000000000E+00  0.00000000000E+00  0.25182705619E+03  0.25182705619E+03  0.00000000000E+00 0.  1.
         21   -1    0    0  501  502 -0.00000000000E+00 -0.00000000000E+00 -0.38729083043E+03  0.38729083043E+03  0.00000000000E+00 0. -1.
         25    1    1    2    0    0  0.25760893651E+03  0.31644059952E+02 -0.21868031280E+03  0.36167636072E+03  0.12500000000E+03 0.  0.
         21    1    1    2  503  502 -0.21963069579E+03 -0.76947719829E+01  0.69591295702E+02  0.23052071596E+03  0.00000000000E+00 0.  1.
         21    1    1    2  504  503 -0.37978240713E+02 -0.23949287969E+02  0.13625242863E+02  0.46920809935E+02  0.00000000000E+00 0.  1.
<mgrwt>
<rscale>  4 0.28807761E+03</rscale>
<asrwt>0</asrwt>
<pdfrwt beam="1">  1       21 0.38742624E-01 0.28807761E+03</pdfrwt>
<pdfrwt beam="2">  1       21 0.59583204E-01 0.28807761E+03</pdfrwt>
<totfact> 0.16067652E+04</totfact>
</mgrwt>
</event>
<event>
 5    0  0.1467858E+000  0.2477304E+03  0.7546771E-02  0.1114748E+00
         21   -1    0    0  504  501  0.00000000000E+00  0.00000000000E+00  0.12704852867E+03  0.12704852867E+03  0.00000000000E+00 0. -1.
         21   -1    0    0  501  502 -0.00000000000E+00 -0.00000000000E+00 -0.11428973651E+04  0.11428973651E+04  0.00000000000E+00 0.  1.
         25    1    1    2    0    0  0.20353320532E+03  0.65723686202E+02 -0.10185649134E+04  0.10482580080E+04  0.12500000000E+03 0.  0.
         21    1    1    2  503  502 -0.74855911918E+02  0.21184419440E+01 -0.10518256922E+02  0.75620956579E+02  0.00000000000E+00 0.  1.
         21    1    1    2  504  503 -0.12867729340E+03 -0.67842128146E+02  0.13234333918E+02  0.14606692912E+03  0.00000000000E+00 0. -1.
<mgrwt>
<rscale>  4 0.24773044E+03</rscale>
<asrwt>0</asrwt>
<pdfrwt beam="1">  1       21 0.19545928E-01 0.24773044E+03</pdfrwt>
<pdfrwt beam="2">  1       21 0.17583036E+00 0.24773044E+03</pdfrwt>
<totfact> 0.44788133E+03</totfact>
</mgrwt>
</event>
<event>
 5    0  0.1467858E+000  0.4935702E+03  0.7546771E-02  0.1015471E+00
         21   -1    0    0  504  501  0.00000000000E+00  0.00000000000E+00  0.21257911220E+04  0.21257911220E+04  0.00000000000E+00 0.  1.
         21   -1    0    0  501  502 -0.00000000000E+00 -0.00000000000E+00 -0.44246342548E+03  0.44246342548E+03  0.00000000000E+00 0.  1.
         25    1    1    2    0    0  0.34407622275E+03 -0.33101169727E+03 -0.25682792384E+03  0.55636568304E+03  0.12500000000E+03 0.  0.
         21    1    1    2  503  502 -0.32387496805E+03  0.35253601084E+03  0.19122662325E+04  0.19712784628E+04  0.00000000000E+00 0.  1.
         21    1    1    2  504  503 -0.20201254700E+02 -0.21524313571E+02  0.27889387826E+02  0.40610401617E+02  0.00000000000E+00 0.  1.
<mgrwt>
<rscale>  4 0.49357024E+03</rscale>
<asrwt>0</asrwt>
<pdfrwt beam="1">  1       21 0.32704478E+00 0.49357024E+03</pdfrwt>
<pdfrwt beam="2">  1       21 0.68071297E-01 0.49357024E+03</pdfrwt>
<totfact> 0.34190687E+01</totfact>
</mgrwt>
</event>
<event>
 5    0  0.1467858E+000  0.2397457E+03  0.7546771E-02  0.1119962E+00
         21   -1    0    0  504  501  0.00000000000E+00  0.00000000000E+00  0.93603984753E+03  0.93603984753E+03  0.00000000000E+00 0.  1.
         21   -1    0    0  501  502 -0.00000000000E+00 -0.00000000000E+00 -0.26374119462E+03  0.26374119462E+03  0.00000000000E+00 0.  1.
         25    1    1    2    0    0 -0.20249133185E+03 -0.39563626736E+02 -0.19028384157E+03  0.30724739282E+03  0.12500000000E+03 0.  0.
         21    1    1    2  503  502  0.29388415137E+02 -0.12695181609E+02  0.45191634462E+02  0.55381679333E+02  0.00000000000E+00 0. -1.
         21    1    1    2  504  503  0.17310291671E+03  0.52258808345E+02  0.81739086002E+03  0.83715197000E+03  0.00000000000E+00 0.  1.
<mgrwt>
<rscale>  4 0.23974569E+03</rscale>
<asrwt>0</asrwt>
<pdfrwt beam="1">  1       21 0.14400613E+00 0.23974569E+03</pdfrwt>
<pdfrwt beam="2">  1       21 0.40575569E-01 0.23974569E+03</pdfrwt>
<totfact> 0.18673413E+03</totfact>
</mgrwt>
</event>
<event>
 5    0  0.1467858E+000  0.2503184E+03  0.7546771E-02  0.1113104E+00
         21   -1    0    0  504  501  0.00000000000E+00  0.00000000000E+00  0.46799047565E+03  0.46799047565E+03  0.00000000000E+00 0.  1.
         21   -1    0    0  501  502 -0.00000000000E+00 -0.00000000000E+00 -0.18028584929E+03  0.18028584929E+03  0.00000000000E+00 0.  1.
         25    1    1    2    0    0  0.20735014334E+03 -0.10277144190E+03 -0.85222001258E+00  0.26302429069E+03  0.12500000000E+03 0.  0.
         21    1    1    2  503  502 -0.55367590554E+02 -0.17503820336E+02  0.94973011680E+02  0.11131858227E+03  0.00000000000E+00 0. -1.
         21    1    1    2  504  503 -0.15198255279E+03  0.12027526224E+03  0.19358383469E+03  0.27393345198E+03  0.00000000000E+00 0.  1.
<mgrwt>
<rscale>  4 0.25031839E+03</rscale>
<asrwt>0</asrwt>
<pdfrwt beam="1">  1       21 0.71998534E-01 0.25031839E+03</pdfrwt>
<pdfrwt beam="2">  1       21 0.27736285E-01 0.25031839E+03</pdfrwt>
<totfact> 0.20937204E+04</totfact>
</mgrwt>
</event>
<event>
 5    0  0.1467858E+000  0.6990054E+03  0.7546771E-02  0.9718935E-01
         21   -1    0    0  504  501  0.00000000000E+00  0.00000000000E+00  0.29467415056E+03  0.29467415056E+03  0.00000000000E+00 0. -1.
         21   -1    0    0  501  502 -0.00000000000E+00 -0.00000000000E+00 -0.17224938650E+04  0.17224938650E+04  0.00000000000E+00 0. -1.
         25    1    1    2    0    0 -0.10522962425E+03 -0.67875832498E+03 -0.64221010489E+03  0.94860157937E+03  0.12500000000E+03 0.  0.
         21    1    1    2  503  502  0.28076427477E+02 -0.58926614552E+01 -0.67721703346E+02  0.73547524384E+02  0.00000000000E+00 0. -1.
         21    1    1    2  504  503  0.77153196775E+02  0.68465098644E+03 -0.71788790624E+03  0.99501891184E+03  0.00000000000E+00 0. -1.
<mgrwt>
<rscale>  4 0.69900540E+03</rscale>
<asrwt>0</asrwt>
<pdfrwt beam="1">  1       21 0.45334485E-01 0.69900540E+03</pdfrwt>
<pdfrwt beam="2">  1       21 0.26499905E+00 0.69900540E+03</pdfrwt>
<totfact> 0.17939763E+02</totfact>
</mgrwt>
</event>
<event>
 5    0  0.1467858E+000  0.2489552E+03  0.7546771E-02  0.1113967E+00
         21   -1    0    0  504  501  0.00000000000E+00  0.00000000000E+00  0.21277647726E+03  0.21277647726E+03  0.00000000000E+00 0.  1.
         21   -1    0    0  501  502 -0.00000000000E+00 -0.00000000000E+00 -0.66421162943E+03  0.66421162943E+03  0.00000000000E+00 0. -1.
         25    1    1    2    0    0  0.41722107793E+02  0.21121775042E+03 -0.56685747256E+03  0.61911716708E+03  0.12500000000E+03 0.  0.
         21    1    1    2  503  502 -0.51539735442E+02 -0.60160373294E+02  0.39090240919E+02  0.88338336975E+02  0.00000000000E+00 0.  1.
         21    1    1    2  504  503  0.98176276494E+01 -0.15105737713E+03  0.76332079479E+02  0.16953260263E+03  0.00000000000E+00 0.  1.
<mgrwt>
<rscale>  4 0.24895516E+03</rscale>
<asrwt>0</asrwt>
<pdfrwt beam="1">  1       21 0.32734843E-01 0.24895516E+03</pdfrwt>
<pdfrwt beam="2">  1       21 0.10218640E+00 0.24895516E+03</pdfrwt>
<totfact> 0.67391362E+03</totfact>
</mgrwt>
</event>
<event>
 5    0  0.1467858E+000  0.2451180E+03  0.7546771E-02  0.1116430E+00
         21   -1    0    0  504  501  0.00000000000E+00  0.00000000000E+00  0.35864027788E+03  0.35864027788E+03  0.00000000000E+00 0. -1.
         21   -1    0    0  501  502 -0.00000000000E+00 -0.00000000000E+00 -0.17479820736E+03  0.17479820736E+03  0.00000000000E+00 0. -1.
         25    1    1    2    0    0 -0.13025265868E+03 -0.16580738795E+03 -0.65184184673E+01  0.24520467934E+03  0.12500000000E+03 0.  0.
         21    1    1    2  503  502  0.37398710759E+02  0.75096039201E+02  0.52956047873E+02  0.99208979818E+02  0.00000000000E+00 0. -1.
         21    1    1    2  504  503  0.92853947920E+02  0.90711348753E+02  0.13740444111E+03  0.18902482608E+03  0.00000000000E+00 0. -1.
<mgrwt>
<rscale>  4 0.24511802E+03</rscale>
<asrwt>0</asrwt>
<pdfrwt beam="1">  1       21 0.55175427E-01 0.24511802E+03</pdfrwt>
<pdfrwt beam="2">  1       21 0.26892032E-01 0.24511802E+03</pdfrwt>
<totfact> 0.39799660E+04</totfact>
</mgrwt>
</event>
<event>
 5    0  0.1467858E+000  0.2719531E+03  0.7546771E-02  0.1100167E+00
         21   -1    0    0  504  501  0.00000000000E+00  0.00000000000E+00  0.51911969082E+03  0.51911969082E+03  0.00000000000E+00 0. -1.
         21   -1    0    0  501  502 -0.00000000000E+00 -0.00000000000E+00 -0.14102706096E+03  0.14102706096E+03  0.00000000000E+00 0. -1.
         25    1    1    2    0    0 -0.53891092699E+02 -0.23543419218E+03  0.11120345973E+03  0.29381068424E+03  0.12500000000E+03 0.  0.
         21    1    1    2  503  502  0.37989968055E+02  0.42782510274E+02  0.70104376007E+02  0.90488697601E+02  0.00000000000E+00 0. -1.
         21    1    1    2  504  503  0.15901124644E+02  0.19265168191E+03  0.19678479412E+03  0.27584736994E+03  0.00000000000E+00 0. -1.
<mgrwt>
<rscale>  4 0.27195314E+03</rscale>
<asrwt>0</asrwt>
<pdfrwt beam="1">  1       21 0.79864567E-01 0.27195314E+03</pdfrwt>
<pdfrwt beam="2">  1       21 0.21696471E-01 0.27195314E+03</pdfrwt>
<totfact> 0.26293254E+04</totfact>
</mgrwt>
</event>
<event>
 5    0  0.1467858E+000  0.3612430E+03  0.7546771E-02  0.1058252E+00
         21   -1    0    0  504  501  0.00000000000E+00  0.00000000000E+00  0.77414369888E+03  0.77414369888E+03  0.00000000000E+00 0.  1.
         21   -1    0    0  501  502 -0.00000000000E+00 -0.00000000000E+00 -0.22833400012E+03  0.22833400012E+03  0.00000000000E+00 0. -1.
         25    1    1    2    0    0  0.25611776391E+03 -0.21933987697E+03  0.14405629863E+02  0.35991500773E+03  0.12500000000E+03 0.  0.
         21    1    1    2  503  502 -0.61071680381E+02 -0.66419290895E+01  0.71425853313E+02  0.94209967032E+02  0.00000000000E+00 0. -1.
         21    1    1    2  504  503 -0.19504608353E+03  0.22598180606E+03  0.45997821559E+03  0.54835272424E+03  0.00000000000E+00 0.  1.
<mgrwt>
<rscale>  4 0.36083824E+03</rscale>
<asrwt>0</asrwt>
<pdfrwt beam="1">  1       21 0.11909903E+00 0.36124303E+03</pdfrwt>
<pdfrwt beam="2">  1       21 0.35128308E-01 0.36124303E+03</pdfrwt>
<totfact> 0.37920340E+03</totfact>
</mgrwt>
</event>
<event>
 5    0  0.1467858E+000  0.2587124E+03  0.7546771E-02  0.1107919E+00
         21   -1    0    0  504  501  0.00000000000E+00  0.00000000000E+00  0.40048102216E+03  0.40048102216E+03  0.00000000000E+00 0. -1.
         21   -1    0    0  501  502 -0.00000000000E+00 -0.00000000000E+00 -0.17071250564E+03  0.17071250564E+03  0.00000000000E+00 0. -1.
         25    1    1    2    0    0 -0.19735767676E+03 -0.11116234510E+03  0.45266186056E+02  0.26264262248E+03  0.12500000000E+03 0.  0.
         21    1    1    2  503  502  0.12158061821E+03  0.10351516192E+03  0.16567006247E+03  0.23009520870E+03  0.00000000000E+00 0. -1.
         21    1    1    2  504  503  0.75777058553E+02  0.76471831830E+01  0.18832267989E+02  0.78455696614E+02  0.00000000000E+00 0.  1.
<mgrwt>
<rscale>  4 0.25871243E+03</rscale>
<asrwt>0</asrwt>
<pdfrwt beam="1">  1       21 0.61612465E-01 0.25871243E+03</pdfrwt>
<pdfrwt beam="2">  1       21 0.26263463E-01 0.25871243E+03</pdfrwt>
<totfact> 0.32670318E+04</totfact>
</mgrwt>
</event>
<event>
 5    0  0.1467858E+000  0.4188066E+03  0.7546771E-02  0.1037536E+00
         21   -1    0    0  504  501  0.00000000000E+00  0.00000000000E+00  0.20081648939E+04  0.20081648939E+04  0.00000000000E+00 0.  1.
         21   -1    0    0  501  502 -0.00000000000E+00 -0.00000000000E+00 -0.98845881910E+02  0.98845881910E+02  0.00000000000E+00 0.  1.
         25    1    1    2    0    0  0.22559992199E+03 -0.32872090359E+03  0.59110326866E+03  0.72386520256E+03  0.12500000000E+03 0.  0.
         21    1    1    2  503  502 -0.13551804831E+03  0.28844139613E+03  0.95543088636E+03  0.10071801026E+04  0.00000000000E+00 0.  1.
         21    1    1    2  504  503 -0.90081873677E+02  0.40279507469E+02  0.36278485694E+03  0.37596547064E+03  0.00000000000E+00 0.  1.
<mgrwt>
<rscale>  4 0.41856096E+03</rscale>
<asrwt>0</asrwt>
<pdfrwt beam="1">  1       21 0.30894842E+00 0.41880656E+03</pdfrwt>
<pdfrwt beam="2">  1       21 0.15207060E-01 0.41880656E+03</pdfrwt>
<totfact> 0.94925003E+02</totfact>
</mgrwt>
</event>
<event>
 5    0  0.1467858E+000  0.2179415E+03  0.7546771E-02  0.1135427E+00
         21   -1    0    0  504  501  0.00000000000E+00  0.00000000000E+00  0.33901417284E+02  0.33901417284E+02  0.00000000000E+00 0. -1.
         21   -1    0    0  501  502 -0.00000000000E+00 -0.00000000000E+00 -0.22976865769E+04  0.22976865769E+04  0.00000000000E+00 0. -1.
         25    1    1    2    0    0  0.18881619203E+03 -0.14420037496E+03 -0.10115907749E+04  0.10466069933E+04  0.12500000000E+03 0.  0.
         21    1    1    2  503  502 -0.15110313036E+03  0.53298731258E+02 -0.10241363149E+04  0.10365944733E+04  0.00000000000E+00 0. -1.
         21    1    1    2  504  503 -0.37713061665E+02  0.90901643705E+02 -0.22805806989E+03  0.24838652760E+03  0.00000000000E+00 0. -1.
<mgrwt>
<rscale>  4 0.21794151E+03</rscale>
<asrwt>0</asrwt>
<pdfrwt beam="1">  1       21 0.52156039E-02 0.21794151E+03</pdfrwt>
<pdfrwt beam="2">  1       21 0.35349016E+00 0.21794151E+03</pdfrwt>
<totfact> 0.40473795E+03</totfact>
</mgrwt>
</event>
<event>
 5    0  0.1467858E+000  0.2695842E+03  0.7546771E-02  0.1101518E+00
         21   -1    0    0  504  501  0.00000000000E+00  0.00000000000E+00  0.90917207295E+03  0.90917207295E+03  0.00000000000E+00 0. -1.
         21   -1    0    0  501  502 -0.00000000000E+00 -0.00000000000E+00 -0.75930316482E+02  0.75930316482E+02  0.00000000000E+00 0. -1.
         25    1    1    2    0    0 -0.21802941651E+03  0.97538704199E+02  0.32988839401E+03  0.42603048927E+03  0.12500000000E+03 0.  0.
         21    1    1    2  503  502  0.18497636771E+03 -0.99674685112E+02  0.43047118364E+03  0.47901642916E+03  0.00000000000E+00 0. -1.
         21    1    1    2  504  503  0.33053048798E+02  0.21359809130E+01  0.72882178821E+02  0.80055471012E+02  0.00000000000E+00 0. -1.
<mgrwt>
<rscale>  4 0.26958417E+03</rscale>
<asrwt>0</asrwt>
<pdfrwt beam="1">  1       21 0.13987262E+00 0.26958417E+03</pdfrwt>
<pdfrwt beam="2">  1       21 0.11681588E-01 0.26958417E+03</pdfrwt>
<totfact> 0.21136708E+04</totfact>
</mgrwt>
</event>
<event>
 5    0  0.1467858E+000  0.2723141E+03  0.7546771E-02  0.1099962E+00
         21   -1    0    0  504  501  0.00000000000E+00  0.00000000000E+00  0.42119052268E+03  0.42119052268E+03  0.00000000000E+00 0. -1.
         21   -1    0    0  501  502 -0.00000000000E+00 -0.00000000000E+00 -0.27695851429E+03  0.27695851429E+03  0.00000000000E+00 0. -1.
         25    1    1    2    0    0 -0.20621652829E+03  0.12650967116E+03 -0.14525385820E+03  0.30863187904E+03  0.12500000000E+03 0.  0.
         21    1    1    2  503  502  0.14169143874E+03 -0.11620126726E+03  0.15504528505E+03  0.24003799436E+03  0.00000000000E+00 0. -1.
         21    1    1    2  504  503  0.64525089558E+02 -0.10308403904E+02  0.13444058155E+03  0.14947916357E+03  0.00000000000E+00 0. -1.
<mgrwt>
<rscale>  4 0.27231407E+03</rscale>
<asrwt>0</asrwt>
<pdfrwt beam="1">  1       21 0.64798542E-01 0.27231407E+03</pdfrwt>
<pdfrwt beam="2">  1       21 0.42609002E-01 0.27231407E+03</pdfrwt>
<totfact> 0.11098174E+04</totfact>
</mgrwt>
</event>
<event>
 5    0  0.1467858E+000  0.3103434E+03  0.7546771E-02  0.1080181E+00
         21   -1    0    0  504  501  0.00000000000E+00  0.00000000000E+00  0.70567868140E+03  0.70567868140E+03  0.00000000000E+00 0. -1.
         21   -1    0    0  501  502 -0.00000000000E+00 -0.00000000000E+00 -0.39309202396E+03  0.39309202396E+03  0.00000000000E+00 0. -1.
         25    1    1    2    0    0  0.28082360646E+03 -0.30266323532E+02 -0.28277371623E+03  0.41876475840E+03  0.12500000000E+03 0.  0.
         21    1    1    2  503  502 -0.29854025515E+03  0.16554242467E+02  0.58092143436E+03  0.65335292131E+03  0.00000000000E+00 0. -1.
         21    1    1    2  504  503  0.17716648693E+02  0.13712081066E+02  0.14438939314E+02  0.26653025655E+02  0.00000000000E+00 0.  1.
<mgrwt>
<rscale>  4 0.31034343E+03</rscale>
<asrwt>0</asrwt>
<pdfrwt beam="1">  1       21 0.10856595E+00 0.31034343E+03</pdfrwt>
<pdfrwt beam="2">  1       21 0.60475696E-01 0.31034343E+03</pdfrwt>
<totfact> 0.15727046E+03</totfact>
</mgrwt>
</event>
<event>
 5    0  0.1467858E+000  0.3672816E+03  0.7546771E-02  0.1055737E+00
         21   -1    0    0  504  501  0.00000000000E+00  0.00000000000E+00  0.48197895130E+03  0.48197895130E+03  0.00000000000E+00 0.  1.
         21   -1    0    0  501  502 -0.00000000000E+00 -0.00000000000E+00 -0.32081083806E+03  0.32081083806E+03  0.00000000000E+00 0.  1.
         25    1    1    2    0    0 -0.23028135663E+02 -0.34458741985E+03 -0.83556337481E+02  0.37666622690E+03  0.12500000000E+03 0.  0.
         21    1    1    2  503  502  0.14452357913E+02  0.32643550246E+03  0.21842567422E+03  0.39303789013E+03  0.00000000000E+00 0.  1.
         21    1    1    2  504  503  0.85757777493E+01  0.18151917394E+02  0.26298776490E+02  0.33085672336E+02  0.00000000000E+00 0. -1.
<mgrwt>
<rscale>  4 0.36728162E+03</rscale>
<asrwt>0</asrwt>
<pdfrwt beam="1">  1       21 0.74150608E-01 0.36728162E+03</pdfrwt>
<pdfrwt beam="2">  1       21 0.49355514E-01 0.36728162E+03</pdfrwt>
<totfact> 0.58004067E+03</totfact>
</mgrwt>
</event>
<event>
 5    0  0.1467858E+000  0.2837130E+03  0.7546771E-02  0.1093678E+00
         21   -1    0    0  504  501  0.00000000000E+00  0.00000000000E+00  0.11193127125E+04  0.11193127125E+04  0.00000000000E+00 0.  1.
         21   -1    0    0  501  502 -0.00000000000E+00 -0.00000000000E+00 -0.19048540252E+03  0.19048540252E+03  0.00000000000E+00 0.  1.
         25    1    1    2    0    0 -0.94057996669E+02  0.23668792332E+03 -0.57066220995E+02  0.28939528912E+03  0.12500000000E+03 0.  0.
         21    1    1    2  503  502  0.59991487028E+02 -0.16692847737E+03  0.55772401969E+03  0.58525223384E+03  0.00000000000E+00 0.  1.
         21    1    1    2  504  503  0.34066509640E+02 -0.69759445954E+02  0.42816951126E+03  0.43515059204E+03  0.00000000000E+00 0.  1.
<mgrwt>
<rscale>  4 0.28371302E+03</rscale>
<asrwt>0</asrwt>
<pdfrwt beam="1">  1       21 0.17220195E+00 0.28371302E+03</pdfrwt>
<pdfrwt beam="2">  1       21 0.29305447E-01 0.28371302E+03</pdfrwt>
<totfact> 0.21321698E+03</totfact>
</mgrwt>
</event>
<event>
 5    0  0.1467858E+000  0.2856201E+03  0.7546771E-02  0.1092658E+00
         21   -1    0    0  504  501  0.00000000000E+00  0.00000000000E+00  0.68563897814E+03  0.68563897814E+03  0.00000000000E+00 0. -1.
         21   -1    0    0  501  502 -0.00000000000E+00 -0.00000000000E+00 -0.13847433079E+03  0.13847433079E+03  0.00000000000E+00 0. -1.
         25    1    1    2    0    0 -0.23819055873E+03 -0.96016280977E+02  0.99866962698E+02  0.30257607097E+03  0.12500000000E+03 0.  0.
         21    1    1    2  503  502  0.33062756516E+02  0.19342355935E+02  0.24724312187E+02  0.45591273449E+02  0.00000000000E+00 0. -1.
         21    1    1    2  504  503  0.20512780222E+03  0.76673925042E+02  0.42257337246E+03  0.47594596451E+03  0.00000000000E+00 0. -1.
<mgrwt>
<rscale>  4 0.28562015E+03</rscale>
<asrwt>0</asrwt>
<pdfrwt beam="1">  1       21 0.10548292E+00 0.28562015E+03</pdfrwt>
<pdfrwt beam="2">  1       21 0.21303744E-01 0.28562015E+03</pdfrwt>
<totfact> 0.14063523E+04</totfact>
</mgrwt>
</event>
<event>
 5    0  0.1467858E+000  0.5286052E+03  0.7546771E-02  0.1006571E+00
         21   -1    0    0  504  501  0.00000000000E+00  0.00000000000E+00  0.72268446130E+03  0.72268446130E+03  0.00000000000E+00 0. -1.
         21   -1    0    0  501  502 -0.00000000000E+00 -0.00000000000E+00 -0.18103374843E+04  0.18103374843E+04  0.00000000000E+00 0.  1.
         25    1    1    2    0    0  0.46641153033E+00 -0.51361295073E+03 -0.16682665398E+04  0.17500104938E+04  0.12500000000E+03 0.  0.
         21    1    1    2  503  502  0.33473457834E+02  0.43650129965E+03  0.51693326197E+03  0.67740228396E+03  0.00000000000E+00 0. -1.
         21    1    1    2  504  503 -0.33939869364E+02  0.77111651077E+02  0.63680254845E+02  0.10560916779E+03  0.00000000000E+00 0.  1.
<mgrwt>
<rscale>  4 0.52860522E+03</rscale>
<asrwt>0</asrwt>
<pdfrwt beam="1">  1       21 0.11118223E+00 0.52860522E+03</pdfrwt>
<pdfrwt beam="2">  1       21 0.27851346E+00 0.52860522E+03</pdfrwt>
<totfact> 0.20646282E+01</totfact>
</mgrwt>
</event>
<event>
 5    0  0.1467858E+000  0.3006682E+03  0.7546771E-02  0.1084907E+00
         21   -1    0    0  504  501  0.00000000000E+00  0.00000000000E+00  0.53952270721E+02  0.53952270721E+02  0.00000000000E+00 0.  1.
         21   -1    0    0  501  502 -0.00000000000E+00 -0.00000000000E+00 -0.19023534668E+04  0.19023534668E+04  0.00000000000E+00 0.  1.
         25    1    1    2    0    0 -0.23182820558E+03 -0.14502425457E+03 -0.13361640899E+04  0.13695750532E+04  0.12500000000E+03 0.  0.
         21    1    1    2  503  502  0.14804336605E+03  0.11783386368E+03 -0.41147340450E+03  0.45289294571E+03  0.00000000000E+00 0.  1.
         21    1    1    2  504  503  0.83784839527E+02  0.27190390888E+02 -0.10076370169E+03  0.13383773859E+03  0.00000000000E+00 0.  1.
<mgrwt>
<rscale>  4 0.30066817E+03</rscale>
<asrwt>0</asrwt>
<pdfrwt beam="1">  1       21 0.83003485E-02 0.30066817E+03</pdfrwt>
<pdfrwt beam="2">  1       21 0.29266979E+00 0.30066817E+03</pdfrwt>
<totfact> 0.38289902E+03</totfact>
</mgrwt>
</event>
<event>
 5    0  0.1467858E+000  0.3854268E+03  0.7546771E-02  0.1048946E+00
         21   -1    0    0  504  501  0.00000000000E+00  0.00000000000E+00  0.65252043117E+03  0.65252043117E+03  0.00000000000E+00 0. -1.
         21   -1    0    0  501  502 -0.00000000000E+00 -0.00000000000E+00 -0.10576962306E+04  0.10576962306E+04  0.00000000000E+00 0.  1.
         25    1    1    2    0    0  0.35488825450E+03 -0.83565297864E+02 -0.96395219145E+03  0.10381510774E+04  0.12500000000E+03 0.  0.
         21    1    1    2  503  502 -0.27623439231E+03  0.98665326597E+02  0.43975418567E+03  0.52860574153E+03  0.00000000000E+00 0. -1.
         21    1    1    2  504  503 -0.78653862198E+02 -0.15100028733E+02  0.11902220631E+03  0.14345984282E+03  0.00000000000E+00 0. -1.
<mgrwt>
<rscale>  4 0.38542682E+03</rscale>
<asrwt>0</asrwt>
<pdfrwt beam="1">  1       21 0.10038776E+00 0.38542682E+03</pdfrwt>
<pdfrwt beam="2">  1       21 0.16272250E+00 0.38542682E+03</pdfrwt>
<totfact> 0.16453376E+02</totfact>
</mgrwt>
</event>
<event>
 5    0  0.1467858E+000  0.3966984E+03  0.7546771E-02  0.1044929E+00
         21   -1    0    0  504  501  0.00000000000E+00  0.00000000000E+00  0.79037428882E+03  0.79037428882E+03  0.00000000000E+00 0.  1.
         21   -1    0    0  501  502 -0.00000000000E+00 -0.00000000000E+00 -0.22251103300E+03  0.22251103300E+03  0.00000000000E+00 0.  1.
         25    1    1    2    0    0  0.46991511044E+02  0.37354569738E+03  0.45442372428E+03  0.60321680292E+03  0.12500000000E+03 0.  0.
         21    1    1    2  503  502 -0.36083598763E+02 -0.33218201345E+02  0.34985388773E+02  0.60244936948E+02  0.00000000000E+00 0.  1.
         21    1    1    2  504  503 -0.10907912281E+02 -0.34032749603E+03  0.78454142775E+02  0.34942358195E+03  0.00000000000E+00 0.  1.
<mgrwt>
<rscale>  4 0.39669836E+03</rscale>
<asrwt>0</asrwt>
<pdfrwt beam="1">  1       21 0.12159604E+00 0.39669836E+03</pdfrwt>
<pdfrwt beam="2">  1       21 0.34232467E-01 0.39669836E+03</pdfrwt>
<totfact> 0.37328617E+03</totfact>
</mgrwt>
</event>
<event>
 5    0  0.1467858E+000  0.4166140E+03  0.7546771E-02  0.1038174E+00
         21   -1    0    0  504  501  0.00000000000E+00  0.00000000000E+00  0.75052314671E+03  0.75052314671E+03  0.00000000000E+00 0.  1.
         21   -1    0    0  501  502 -0.00000000000E+00 -0.00000000000E+00 -0.59108221152E+03  0.59108221152E+03  0.00000000000E+00 0.  1.
         25    1    1    2    0    0  0.32927092242E+03  0.22253742947E+03 -0.44679329940E+03  0.61089401720E+03  0.12500000000E+03 0.  0.
         21    1    1    2  503  502 -0.89064285393E+02 -0.36964339057E+02  0.90302233382E+02  0.13211094825E+03  0.00000000000E+00 0.  1.
         21    1    1    2  504  503 -0.24020663703E+03 -0.18557309041E+03  0.51593200121E+03  0.59860039277E+03  0.00000000000E+00 0.  1.
<mgrwt>
<rscale>  4 0.41661403E+03</rscale>
<asrwt>0</asrwt>
<pdfrwt beam="1">  1       21 0.11546510E+00 0.41661403E+03</pdfrwt>
<pdfrwt beam="2">  1       21 0.90935725E-01 0.41661403E+03</pdfrwt>
<totfact> 0.50589081E+02</totfact>
</mgrwt>
</event>
<event>
 5    0  0.1467858E+000  0.2204288E+03  0.7546771E-02  0.1133564E+00
         21   -1    0    0  504  501  0.00000000000E+00  0.00000000000E+00  0.11842632427E+03  0.11842632427E+03  0.00000000000E+00 0.  1.
         21   -1    0    0  501  502 -0.00000000000E+00 -0.00000000000E+00 -0.30425792205E+04  0.30425792205E+04  0.00000000000E+00 0.  1.
         25    1    1    2    0    0  0.91470762752E+02 -0.19773989192E+03 -0.27749746335E+04  0.27863196482E+04  0.12500000000E+03 0.  0.
         21    1    1    2  503  502 -0.57441380495E+02  0.17125052770E+03  0.36318417766E+02  0.18424245683E+03  0.00000000000E+00 0.  1.
         21    1    1    2  504  503 -0.34029382258E+02  0.26489364219E+02 -0.18549668050E+03  0.19044343977E+03  0.00000000000E+00 0.  1.
<mgrwt>
<rscale>  4 0.22042882E+03</rscale>
<asrwt>0</asrwt>
<pdfrwt beam="1">  1       21 0.18219436E-01 0.22042882E+03</pdfrwt>
<pdfrwt beam="2">  1       21 0.46808909E+00 0.22042882E+03</pdfrwt>
<totfact> 0.82244225E+01</totfact>
</mgrwt>
</event>
<event>
 5    0  0.1467858E+000  0.2536299E+03  0.7546771E-02  0.1111032E+00
         21   -1    0    0  504  501  0.00000000000E+00  0.00000000000E+00  0.39905683656E+03  0.39905683656E+03  0.00000000000E+00 0. -1.
         21   -1    0    0  501  502 -0.00000000000E+00 -0.00000000000E+00 -0.69699672964E+03  0.69699672964E+03  0.00000000000E+00 0.  1.
         25    1    1    2    0    0 -0.13668295046E+03  0.18077428907E+03 -0.61331560462E+03  0.66568956985E+03  0.12500000000E+03 0.  0.
         21    1    1    2  503  502  0.40102353250E+02 -0.71684858476E+02 -0.89709298840E+00  0.82144521709E+02  0.00000000000E+00 0.  1.
         21    1    1    2  504  503  0.96580597205E+02 -0.10908943060E+03  0.31627280453E+03  0.34821947463E+03  0.00000000000E+00 0. -1.
<mgrwt>
<rscale>  4 0.25362992E+03</rscale>
<asrwt>0</asrwt>
<pdfrwt beam="1">  1       21 0.61393360E-01 0.25362992E+03</pdfrwt>
<pdfrwt beam="2">  1       21 0.10723027E+00 0.25362992E+03</pdfrwt>
<totfact> 0.16279078E+03</totfact>
</mgrwt>
</event>
<event>
 5    0  0.1467858E+000  0.2432046E+03  0.7546771E-02  0.1117676E+00
         21   -1    0    0  504  501  0.00000000000E+00  0.00000000000E+00  0.79323990672E+03  0.79323990672E+03  0.00000000000E+00 0. -1.
         21   -1    0    0  501  502 -0.00000000000E+00 -0.00000000000E+00 -0.14535883675E+03  0.14535883675E+03  0.00000000000E+00 0. -1.
         25    1    1    2    0    0  0.76440295051E+01 -0.20848267625E+03 -0.13039770355E+02  0.24355388130E+03  0.12500000000E+03 0.  0.
         21    1    1    2  503  502 -0.16117333531E+02  0.17745173965E+03  0.49644061651E+03  0.52744874070E+03  0.00000000000E+00 0. -1.
         21    1    1    2  504  503  0.84733040256E+01  0.31030936596E+02  0.16448022381E+03  0.16759612147E+03  0.00000000000E+00 0. -1.
<mgrwt>
<rscale>  4 0.24320456E+03</rscale>
<asrwt>0</asrwt>
<pdfrwt beam="1">  1       21 0.12203691E+00 0.24320456E+03</pdfrwt>
<pdfrwt beam="2">  1       21 0.22362898E-01 0.24320456E+03</pdfrwt>
<totfact> 0.91617156E+03</totfact>
</mgrwt>
</event>
<event>
 5    0  0.1467858E+000  0.2632385E+03  0.7546771E-02  0.1105213E+00
         21   -1    0    0  504  501  0.00000000000E+00  0.00000000000E+00  0.96495278608E+02  0.96495278608E+02  0.00000000000E+00 0.  1.
         21   -1    0    0  501  502 -0.00000000000E+00 -0.00000000000E+00 -0.94257392570E+03  0.94257392570E+03  0.00000000000E+00 0.  1.
         25    1    1    2    0    0 -0.18002421901E+03 -0.16383612506E+03 -0.61889923474E+03  0.67669214423E+03  0.12500000000E+03 0.  0.
         21    1    1    2  503  502 -0.15540515838E+02  0.44998917638E+02 -0.70388573539E+02  0.84976240832E+02  0.00000000000E+00 0.  1.
         21    1    1    2  504  503  0.19556473484E+03  0.11883720742E+03 -0.15679083881E+03  0.27740081924E+03  0.00000000000E+00 0.  1.
<mgrwt>
<rscale>  4 0.26323846E+03</rscale>
<asrwt>0</asrwt>
<pdfrwt beam="1">  1       21 0.14845427E-01 0.26323846E+03</pdfrwt>
<pdfrwt beam="2">  1       21 0.14501138E+00 0.26323846E+03</pdfrwt>
<totfact> 0.12482632E+04</totfact>
</mgrwt>
</event>
<event>
 5    0  0.1467858E+000  0.3805724E+03  0.7546771E-02  0.1050722E+00
         21   -1    0    0  504  501  0.00000000000E+00  0.00000000000E+00  0.26577657222E+03  0.26577657222E+03  0.00000000000E+00 0. -1.
         21   -1    0    0  501  502 -0.00000000000E+00 -0.00000000000E+00 -0.87221723165E+03  0.87221723165E+03  0.00000000000E+00 0.  1.
         25    1    1    2    0    0 -0.25701917068E+03 -0.25129965259E+03 -0.66598556416E+03  0.76705419701E+03  0.12500000000E+03 0.  0.
         21    1    1    2  503  502  0.59132969681E+02  0.30784330500E+02  0.30249054609E+02  0.73207843926E+02  0.00000000000E+00 0.  1.
         21    1    1    2  504  503  0.19788620099E+03  0.22051532209E+03  0.29295850120E+02  0.29773176293E+03  0.00000000000E+00 0. -1.
<mgrwt>
<rscale>  4 0.38057242E+03</rscale>
<asrwt>0</asrwt>
<pdfrwt beam="1">  1       21 0.40888703E-01 0.38057242E+03</pdfrwt>
<pdfrwt beam="2">  1       21 0.13418727E+00 0.38057242E+03</pdfrwt>
<totfact> 0.20322800E+03</totfact>
</mgrwt>
</event>
<event>
 5    0  0.1467858E+000  0.2389694E+03  0.7546771E-02  0.1120481E+00
         21   -1    0    0  504  501  0.00000000000E+00  0.00000000000E+00  0.22259304418E+03  0.22259304418E+03  0.00000000000E+00 0. -1.
         21   -1    0    0  501  502 -0.00000000000E+00 -0.00000000000E+00 -0.30437632951E+03  0.30437632951E+03  0.00000000000E+00 0. -1.
         25    1    1    2    0    0 -0.90807400267E+02 -0.19853444206E+03 -0.13800694141E+03  0.28693696957E+03  0.12500000000E+03 0.  0.
         21    1    1    2  503  502  0.10008815032E+03  0.17199575288E+03  0.66924490102E+02  0.20995014698E+03  0.00000000000E+00 0. -1.
         21    1    1    2  504  503 -0.92807500528E+01  0.26538689186E+02 -0.10700834026E+02  0.30082257131E+02  0.00000000000E+00 0.  1.
<mgrwt>
<rscale>  4 0.23896936E+03</rscale>
<asrwt>0</asrwt>
<pdfrwt beam="1">  1       21 0.34245084E-01 0.23896936E+03</pdfrwt>
<pdfrwt beam="2">  1       21 0.46827128E-01 0.23896936E+03</pdfrwt>
<totfact> 0.35060398E+04</totfact>
</mgrwt>
</event>
<event>
 5    0  0.1467858E+000  0.4018749E+03  0.7546771E-02  0.1043132E+00
         21   -1    0    0  504  501  0.00000000000E+00  0.00000000000E+00  0.91618430123E+03  0.91618430123E+03  0.00000000000E+00 0. -1.
         21   -1    0    0  501  502 -0.00000000000E+00 -0.00000000000E+00 -0.66988978680E+03  0.66988978680E+03  0.00000000000E+00 0. -1.
         25    1    1    2    0    0  0.38850911770E+03  0.19005175180E+02 -0.54795914669E+03  0.68350914966E+03  0.12500000000E+03 0.  0.
         21    1    1    2  503  502 -0.32653592515E+03 -0.26940613527E+02  0.47365226906E+03  0.57593226950E+03  0.00000000000E+00 0. -1.
         21    1    1    2  504  503 -0.61973192547E+02  0.79354383465E+01  0.32060139207E+03  0.32663266887E+03  0.00000000000E+00 0. -1.
<mgrwt>
<rscale>  4 0.40187490E+03</rscale>
<asrwt>0</asrwt>
<pdfrwt beam="1">  1       21 0.14095143E+00 0.40187490E+03</pdfrwt>
<pdfrwt beam="2">  1       21 0.10305997E+00 0.40187490E+03</pdfrwt>
<totfact> 0.22573156E+02</totfact>
</mgrwt>
</event>
<event>
 5    0  0.1467858E+000  0.2433663E+03  0.7546771E-02  0.1117570E+00
         21   -1    0    0  504  501  0.00000000000E+00  0.00000000000E+00  0.85580234248E+03  0.85580234248E+03  0.00000000000E+00 0.  1.
         21   -1    0    0  501  502 -0.00000000000E+00 -0.00000000000E+00 -0.19485709469E+03  0.19485709469E+03  0.00000000000E+00 0.  1.
         25    1    1    2    0    0 -0.15788608580E+03 -0.13665334149E+03 -0.96284281982E+02  0.26172087190E+03  0.12500000000E+03 0.  0.
         21    1    1    2  503  502  0.14424418137E+03  0.88485809998E+02  0.53431878114E+03  0.56047540741E+03  0.00000000000E+00 0.  1.
         21    1    1    2  504  503  0.13641904429E+02  0.48167531494E+02  0.22291074863E+03  0.22846315787E+03  0.00000000000E+00 0.  1.
<mgrwt>
<rscale>  4 0.24336629E+03</rscale>
<asrwt>0</asrwt>
<pdfrwt beam="1">  1       21 0.13166190E+00 0.24336629E+03</pdfrwt>
<pdfrwt beam="2">  1       21 0.29978015E-01 0.24336629E+03</pdfrwt>
<totfact> 0.42969731E+03</totfact>
</mgrwt>
</event>
<event>
 5    0  0.1467858E+000  0.2591682E+03  0.7546771E-02  0.1107644E+00
         21   -1    0    0  504  501  0.00000000000E+00  0.00000000000E+00  0.20855324654E+03  0.20855324654E+03  0.00000000000E+00 0. -1.
         21   -1    0    0  501  502 -0.00000000000E+00 -0.00000000000E+00 -0.66813321904E+03  0.66813321904E+03  0.00000000000E+00 0. -1.
         25    1    1    2    0    0  0.18312771142E+03 -0.15702440371E+03  0.16182057677E+02  0.27217509262E+03  0.12500000000E+03 0.  0.
         21    1    1    2  503  502 -0.23070173271E+02 -0.81827217106E+00  0.37581871151E+02  0.44105549575E+02  0.00000000000E+00 0. -1.
         21    1    1    2  504  503 -0.16005753815E+03  0.15784267588E+03 -0.51334390134E+03  0.56040582339E+03  0.00000000000E+00 0. -1.
<mgrwt>
<rscale>  4 0.25916821E+03</rscale>
<asrwt>0</asrwt>
<pdfrwt beam="1">  1       21 0.32085114E-01 0.25916821E+03</pdfrwt>
<pdfrwt beam="2">  1       21 0.10278973E+00 0.25916821E+03</pdfrwt>
<totfact> 0.68717777E+03</totfact>
</mgrwt>
</event>
<event>
 5    0  0.1467858E+000  0.2712813E+03  0.7546771E-02  0.1100549E+00
         21   -1    0    0  504  501  0.00000000000E+00  0.00000000000E+00  0.53214122090E+03  0.53214122090E+03  0.00000000000E+00 0. -1.
         21   -1    0    0  501  502 -0.00000000000E+00 -0.00000000000E+00 -0.36166213014E+03  0.36166213014E+03  0.00000000000E+00 0. -1.
         25    1    1    2    0    0  0.22695249152E+03 -0.80381046690E+02 -0.27482921947E+03  0.38616660388E+03  0.12500000000E+03 0.  0.
         21    1    1    2  503  502 -0.27786249496E+02 -0.18170800337E+00  0.37203922725E+02  0.46435337245E+02  0.00000000000E+00 0. -1.
         21    1    1    2  504  503 -0.19916624203E+03  0.80562754693E+02  0.40810438751E+03  0.46120140992E+03  0.00000000000E+00 0. -1.
<mgrwt>
<rscale>  4 0.27128130E+03</rscale>
<asrwt>0</asrwt>
<pdfrwt beam="1">  1       21 0.81867881E-01 0.27128130E+03</pdfrwt>
<pdfrwt beam="2">  1       21 0.55640327E-01 0.27128130E+03</pdfrwt>
<totfact> 0.37588585E+03</totfact>
</mgrwt>
</event>
<event>
 5    0  0.1467858E+000  0.2293171E+03  0.7546771E-02  0.1127121E+00
         21   -1    0    0  504  501  0.00000000000E+00  0.00000000000E+00  0.93886893848E+03  0.93886893848E+03  0.00000000000E+00 0.  1.
         21   -1    0    0  501  502 -0.00000000000E+00 -0.00000000000E+00 -0.71586738350E+02  0.71586738350E+02  0.00000000000E+00 0.  1.
         25    1    1    2    0    0 -0.75520702211E+01  0.20600278890E+03  0.21924549722E+03  0.32586465112E+03  0.12500000000E+03 0.  0.
         21    1    1    2  503  502 -0.71034830234E+01 -0.18858871339E+03  0.62204141391E+03  0.65003975487E+03  0.00000000000E+00 0.  1.
         21    1    1    2  504  503  0.14655553245E+02 -0.17414075511E+02  0.25995289000E+02  0.34551270845E+02  0.00000000000E+00 0.  1.
<mgrwt>
<rscale>  4 0.22931714E+03</rscale>
<asrwt>0</asrwt>
<pdfrwt beam="1">  1       21 0.14444137E+00 0.22931714E+03</pdfrwt>
<pdfrwt beam="2">  1       21 0.11013345E-01 0.22931714E+03</pdfrwt>
<totfact> 0.22055514E+04</totfact>
</mgrwt>
</event>
<event>
 5    0  0.1467858E+000  0.2581867E+03  0.7546771E-02  0.1108238E+00
         21   -1    0    0  504  501  0.00000000000E+00  0.00000000000E+00  0.18724721414E+04  0.18724721414E+04  0.00000000000E+00 0. -1.
         21   -1    0    0  501  502 -0.00000000000E+00 -0.00000000000E+00 -0.18084759925E+03  0.18084759925E+03  0.00000000000E+00 0. -1.
         25    1    1    2    0    0  0.11064338735E+03 -0.19696038171E+03  0.17825099939E+04  0.18011113873E+04  0.12500000000E+03 0.  0.
         21    1    1    2  503  502 -0.27733313625E+02  0.93445688303E+01 -0.43668661945E+01  0.29589308400E+02  0.00000000000E+00 0.  1.
         21    1    1    2  504  503 -0.82910073725E+02  0.18761581288E+03 -0.86518585495E+02  0.22261904501E+03  0.00000000000E+00 0. -1.
<mgrwt>
<rscale>  4 0.25818666E+03</rscale>
<asrwt>0</asrwt>
<pdfrwt beam="1">  1       21 0.28807262E+00 0.25818666E+03</pdfrwt>
<pdfrwt beam="2">  1       21 0.27822709E-01 0.25818666E+03</pdfrwt>
<totfact> 0.45507530E+02</totfact>
</mgrwt>
</event>
<event>
 5    0  0.1467858E+000  0.2349059E+03  0.7546771E-02  0.1123234E+00
         21   -1    0    0  504  501  0.00000000000E+00  0.00000000000E+00  0.11962344522E+03  0.11962344522E+03  0.00000000000E+00 0. -1.
         21   -1    0    0  501  502 -0.00000000000E+00 -0.00000000000E+00 -0.66122537196E+03  0.66122537196E+03  0.00000000000E+00 0. -1.
         25    1    1    2    0    0  0.16646473503E+03 -0.12103121441E+03 -0.43017287719E+03  0.49298353638E+03  0.12500000000E+03 0.  0.
         21    1    1    2  503  502  0.90155918076E+01  0.45555074631E+02  0.25363662580E+02  0.52913713721E+02  0.00000000000E+00 0. -1.
         21    1    1    2  504  503 -0.17548032683E+03  0.75476139776E+02 -0.13679271213E+03  0.23495156708E+03  0.00000000000E+00 0. -1.
<mgrwt>
<rscale>  4 0.23490594E+03</rscale>
<asrwt>0</asrwt>
<pdfrwt beam="1">  1       21 0.18403607E-01 0.23490594E+03</pdfrwt>
<pdfrwt beam="2">  1       21 0.10172698E+00 0.23490594E+03</pdfrwt>
<totfact> 0.20723221E+04</totfact>
</mgrwt>
</event>
<event>
 5    0  0.1467858E+000  0.2872213E+03  0.7546771E-02  0.1091809E+00
         21   -1    0    0  504  501  0.00000000000E+00  0.00000000000E+00  0.10442314231E+04  0.10442314231E+04  0.00000000000E+00 0. -1.
         21   -1    0    0  501  502 -0.00000000000E+00 -0.00000000000E+00 -0.11031465297E+03  0.11031465297E+03  0.00000000000E+00 0. -1.
         25    1    1    2    0    0  0.30151097833E+03  0.59248750989E+02  0.37126232986E+03  0.49787548857E+03  0.12500000000E+03 0.  0.
         21    1    1    2  503  502 -0.22920614560E+03 -0.67232228980E+02  0.52026158835E+03  0.57247510873E+03  0.00000000000E+00 0. -1.
         21    1    1    2  504  503 -0.72304832727E+02  0.79834779908E+01  0.42392851960E+02  0.84195478821E+02  0.00000000000E+00 0.  1.
<mgrwt>
<rscale>  4 0.28722128E+03</rscale>
<asrwt>0</asrwt>
<pdfrwt beam="1">  1       21 0.16065098E+00 0.28722128E+03</pdfrwt>
<pdfrwt beam="2">  1       21 0.16971486E-01 0.28722128E+03</pdfrwt>
<totfact> 0.73081124E+03</totfact>
</mgrwt>
</event>
<event>
 5    0  0.1467858E+000  0.2755810E+03  0.7546771E-02  0.1098127E+00
         21   -1    0    0  504  501  0.00000000000E+00  0.00000000000E+00  0.22415498489E+03  0.22415498489E+03  0.00000000000E+00 0.  1.
         21   -1    0    0  501  502 -0.00000000000E+00 -0.00000000000E+00 -0.43647992918E+03  0.43647992918E+03  0.00000000000E+00 0.  1.
         25    1    1    2    0    0  0.38604277340E+02  0.24254813644E+03 -0.28903871573E+03  0.39935982261E+03  0.12500000000E+03 0.  0.
         21    1    1    2  503  502 -0.29274378885E+02 -0.18964114255E+03  0.78976053584E+02  0.20750414272E+03  0.00000000000E+00 0.  1.
         21    1    1    2  504  503 -0.93298984550E+01 -0.52906993887E+02 -0.22622821433E+01  0.53770948735E+02  0.00000000000E+00 0.  1.
<mgrwt>
<rscale>  4 0.27558100E+03</rscale>
<asrwt>0</asrwt>
<pdfrwt beam="1">  1       21 0.34485382E-01 0.27558100E+03</pdfrwt>
<pdfrwt beam="2">  1       21 0.67150758E-01 0.27558100E+03</pdfrwt>
<totfact> 0.15724764E+04</totfact>
</mgrwt>
</event>
<event>
 5    0  0.1467858E+000  0.2601941E+03  0.7546771E-02  0.1107027E+00
         21   -1    0    0  504  501  0.00000000000E+00  0.00000000000E+00  0.95662269707E+03  0.95662269707E+03  0.00000000000E+00 0. -1.
         21   -1    0    0  501  502 -0.00000000000E+00 -0.00000000000E+00 -0.11376834183E+03  0.11376834183E+03  0.00000000000E+00 0.  1.
         25    1    1    2    0    0  0.18842744898E+03 -0.12872869975E+03  0.79489817815E+02  0.27206545684E+03  0.12500000000E+03 0.  0.
         21    1    1    2  503  502 -0.16833771190E+03  0.13077213080E+03  0.70798600141E+03  0.73938022264E+03  0.00000000000E+00 0. -1.
         21    1    1    2  504  503 -0.20089737079E+02 -0.20434310531E+01  0.55378536013E+02  0.58945359421E+02  0.00000000000E+00 0. -1.
<mgrwt>
<rscale>  4 0.26019412E+03</rscale>
<asrwt>0</asrwt>
<pdfrwt beam="1">  1       21 0.14717272E+00 0.26019412E+03</pdfrwt>
<pdfrwt beam="2">  1       21 0.17502822E-01 0.26019412E+03</pdfrwt>
<totfact> 0.88745015E+03</totfact>
</mgrwt>
</event>
<event>
 5    0  0.1467858E+000  0.3351257E+03  0.7546771E-02  0.1068891E+00
         21   -1    0    0  504  501  0.00000000000E+00  0.00000000000E+00  0.64754634685E+03  0.64754634685E+03  0.00000000000E+00 0.  1.
         21   -1    0    0  501  502 -0.00000000000E+00 -0.00000000000E+00 -0.28490578187E+03  0.28490578187E+03  0.00000000000E+00 0.  1.
         25    1    1    2    0    0 -0.20844717543E+03  0.25578545184E+03 -0.59062115710E+02  0.35775655945E+03  0.12500000000E+03 0.  0.
         21    1    1    2  503  502  0.23587023427E+03 -0.14720527806E+03  0.28848211706E+03  0.40065707677E+03  0.00000000000E+00 0.  1.
         21    1    1    2  504  503 -0.27423058840E+02 -0.10858017378E+03  0.13322056363E+03  0.17403849249E+03  0.00000000000E+00 0.  1.
<mgrwt>
<rscale>  4 0.33512569E+03</rscale>
<asrwt>0</asrwt>
<pdfrwt beam="1">  1       21 0.99622514E-01 0.33512569E+03</pdfrwt>
<pdfrwt beam="2">  1       21 0.43831659E-01 0.33512569E+03</pdfrwt>
<totfact> 0.37878263E+03</totfact>
</mgrwt>
</event>
<event>
 5    0  0.1467858E+000  0.3372222E+03  0.7546771E-02  0.1067985E+00
         21   -1    0    0  504  501  0.00000000000E+00  0.00000000000E+00  0.11424873904E+04  0.11424873904E+04  0.00000000000E+00 0.  1.
         21   -1    0    0  501  502 -0.00000000000E+00 -0.00000000000E+00 -0.12791991131E+03  0.12791991131E+03  0.00000000000E+00 0.  1.
         25    1    1    2    0    0  0.37336411552E+02 -0.31096590312E+03  0.19703101164E+03  0.39056372089E+03  0.12500000000E+03 0.  0.
         21    1    1    2  503  502 -0.11732873381E+02  0.24153495541E+03  0.70349339833E+03  0.74389499023E+03  0.00000000000E+00 0.  1.
         21    1    1    2  504  503 -0.25603538171E+02  0.69430947707E+02  0.11404306910E+03  0.13594859056E+03  0.00000000000E+00 0.  1.
<mgrwt>
<rscale>  4 0.33722218E+03</rscale>
<asrwt>0</asrwt>
<pdfrwt beam="1">  1       21 0.17576728E+00 0.33722218E+03</pdfrwt>
<pdfrwt beam="2">  1       21 0.19679987E-01 0.33722218E+03</pdfrwt>
<totfact> 0.41930655E+03</totfact>
</mgrwt>
</event>
<event>
 5    0  0.1467858E+000  0.3695088E+03  0.7546771E-02  0.1054881E+00
         21   -1    0    0  504  501  0.00000000000E+00  0.00000000000E+00  0.15353067119E+03  0.15353067119E+03  0.00000000000E+00 0. -1.
         21   -1    0    0  501  502 -0.00000000000E+00 -0.00000000000E+00 -0.88277481069E+03  0.88277481069E+03  0.00000000000E+00 0. -1.
         25    1    1    2    0    0  0.12052983414E+03  0.32616612541E+03 -0.45543341100E+03  0.58647794003E+03  0.12500000000E+03 0.  0.
         21    1    1    2  503  502 -0.39958773958E+02 -0.35673479286E+02 -0.25778140901E+02  0.59445885383E+02  0.00000000000E+00 0. -1.
         21    1    1    2  504  503 -0.80571060187E+02 -0.29049264613E+03 -0.24803258759E+03  0.39038165646E+03  0.00000000000E+00 0. -1.
<mgrwt>
<rscale>  4 0.36950884E+03</rscale>
<asrwt>0</asrwt>
<pdfrwt beam="1">  1       21 0.23620103E-01 0.36950884E+03</pdfrwt>
<pdfrwt beam="2">  1       21 0.13581151E+00 0.36950884E+03</pdfrwt>
<totfact> 0.58948897E+03</totfact>
</mgrwt>
</event>
<event>
 5    0  0.1467858E+000  0.2521266E+03  0.7546771E-02  0.1111968E+00
         21   -1    0    0  504  501  0.00000000000E+00  0.00000000000E+00  0.91149760221E+02  0.91149760221E+02  0.00000000000E+00 0.  1.
         21   -1    0    0  501  502 -0.00000000000E+00 -0.00000000000E+00 -0.62387137352E+03  0.62387137352E+03  0.00000000000E+00 0.  1.
         25    1    1    2    0    0 -0.49089982860E+02 -0.21338467313E+03 -0.26082677040E+03  0.36276500562E+03  0.12500000000E+03 0.  0.
         21    1    1    2  503  502  0.26735970465E+02  0.34397880671E+02 -0.54531485858E+02  0.69797630771E+02  0.00000000000E+00 0. -1.
         21    1    1    2  504  503  0.22354012394E+02  0.17898679246E+03 -0.21736335704E+03  0.28245849735E+03  0.00000000000E+00 0.  1.
<mgrwt>
<rscale>  4 0.25212665E+03</rscale>
<asrwt>0</asrwt>
<pdfrwt beam="1">  1       21 0.14023041E-01 0.25212665E+03</pdfrwt>
<pdfrwt beam="2">  1       21 0.95980206E-01 0.25212665E+03</pdfrwt>
<totfact> 0.38941971E+04</totfact>
</mgrwt>
</event>
<event>
 5    0  0.1467858E+000  0.2764228E+03  0.7546771E-02  0.1097659E+00
         21   -1    0    0  504  501  0.00000000000E+00  0.00000000000E+00  0.21379578226E+03  0.21379578226E+03  0.00000000000E+00 0.  1.
         21   -1    0    0  501  502 -0.00000000000E+00 -0.00000000000E+00 -0.35629641296E+03  0.35629641296E+03  0.00000000000E+00 0.  1.
         25    1    1    2    0    0  0.23000356907E+03  0.88785921407E+02 -0.15702693561E+03  0.31791042784E+03  0.12500000000E+03 0.  0.
         21    1    1    2  503  502 -0.26880497619E+02  0.10244648117E+01 -0.10089013070E+02  0.28729755744E+02  0.00000000000E+00 0. -1.
         21    1    1    2  504  503 -0.20312307145E+03 -0.89810386219E+02  0.24615317974E+02  0.22345201164E+03  0.00000000000E+00 0.  1.
<mgrwt>
<rscale>  4 0.27642283E+03</rscale>
<asrwt>0</asrwt>
<pdfrwt beam="1">  1       21 0.32891659E-01 0.27642283E+03</pdfrwt>
<pdfrwt beam="2">  1       21 0.54814832E-01 0.27642283E+03</pdfrwt>
<totfact> 0.26837607E+04</totfact>
</mgrwt>
</event>
<event>
 5    0  0.1467858E+000  0.2271625E+03  0.7546771E-02  0.1128653E+00
         21   -1    0    0  504  501  0.00000000000E+00  0.00000000000E+00  0.33082214188E+03  0.33082214188E+03  0.00000000000E+00 0.  1.
         21   -1    0    0  501  502 -0.00000000000E+00 -0.00000000000E+00 -0.28232760656E+03  0.28232760656E+03  0.00000000000E+00 0.  1.
         25    1    1    2    0    0 -0.16452486701E+03 -0.16320119697E+03  0.89896865457E+02  0.27822564399E+03  0.12500000000E+03 0.  0.
         21    1    1    2  503  502  0.13167399856E+03 -0.79432261585E+01 -0.82877711637E+02  0.15578784235E+03  0.00000000000E+00 0.  1.
         21    1    1    2  504  503  0.32850868449E+02  0.17114442313E+03  0.41475381503E+02  0.17913626209E+03  0.00000000000E+00 0.  1.
<mgrwt>
<rscale>  4 0.22716250E+03</rscale>
<asrwt>0</asrwt>
<pdfrwt beam="1">  1       21 0.50895714E-01 0.22716250E+03</pdfrwt>
<pdfrwt beam="2">  1       21 0.43435017E-01 0.22716250E+03</pdfrwt>
<totfact> 0.18334465E+04</totfact>
</mgrwt>
</event>
<event>
 5    0  0.1467858E+000  0.2692273E+03  0.7546771E-02  0.1101723E+00
         21   -1    0    0  504  501  0.00000000000E+00  0.00000000000E+00  0.76044502360E+03  0.76044502360E+03  0.00000000000E+00 0. -1.
         21   -1    0    0  501  502 -0.00000000000E+00 -0.00000000000E+00 -0.10386961818E+03  0.10386961818E+03  0.00000000000E+00 0. -1.
         25    1    1    2    0    0  0.23831771777E+03  0.79365473010E+01  0.16986632148E+03  0.31833612827E+03  0.12500000000E+03 0.  0.
         21    1    1    2  503  502 -0.17579588638E+03  0.22858656089E+02  0.33450909343E+03  0.37858030246E+03  0.00000000000E+00 0. -1.
         21    1    1    2  504  503 -0.62521831396E+02 -0.30795203390E+02  0.15219999052E+03  0.16739821106E+03  0.00000000000E+00 0. -1.
<mgrwt>
<rscale>  4 0.26922727E+03</rscale>
<asrwt>0</asrwt>
<pdfrwt beam="1">  1       21 0.11699154E+00 0.26922727E+03</pdfrwt>
<pdfrwt beam="2">  1       21 0.15979942E-01 0.26922727E+03</pdfrwt>
<totfact> 0.18822674E+04</totfact>
</mgrwt>
</event>
<event>
 5    0  0.1467858E+000  0.3318058E+03  0.7546771E-02  0.1070341E+00
         21   -1    0    0  504  501  0.00000000000E+00  0.00000000000E+00  0.50362798675E+03  0.50362798675E+03  0.00000000000E+00 0.  1.
         21   -1    0    0  501  502 -0.00000000000E+00 -0.00000000000E+00 -0.11003008153E+04  0.11003008153E+04  0.00000000000E+00 0. -1.
         25    1    1    2    0    0 -0.30721211385E+03 -0.95295877600E+01 -0.10220025366E+04  0.10745158355E+04  0.12500000000E+03 0.  0.
         21    1    1    2  503  502  0.33639384139E+02 -0.21327512152E+02  0.49502720958E+02  0.63537314407E+02  0.00000000000E+00 0.  1.
         21    1    1    2  504  503  0.27357272971E+03  0.30857099912E+02  0.37582698707E+03  0.46587565215E+03  0.00000000000E+00 0.  1.
<mgrwt>
<rscale>  4 0.33180581E+03</rscale>
<asrwt>0</asrwt>
<pdfrwt beam="1">  1       21 0.77481230E-01 0.33180581E+03</pdfrwt>
<pdfrwt beam="2">  1       21 0.16927705E+00 0.33180581E+03</pdfrwt>
<totfact> 0.28025715E+02</totfact>
</mgrwt>
</event>
<event>
 5    0  0.1467858E+000  0.2366148E+03  0.7546771E-02  0.1122069E+00
         21   -1    0    0  504  501  0.00000000000E+00  0.00000000000E+00  0.11091882413E+03  0.11091882413E+03  0.00000000000E+00 0. -1.
         21   -1    0    0  501  502 -0.00000000000E+00 -0.00000000000E+00 -0.45591635285E+03  0.45591635285E+03  0.00000000000E+00 0. -1.
         25    1    1    2    0    0  0.16834332921E+03 -0.10964528881E+03 -0.23429773360E+03  0.33298948004E+03  0.12500000000E+03 0.  0.
         21    1    1    2  503  502 -0.11314502255E+03  0.53015821752E+02 -0.83219283664E+02  0.15012635564E+03  0.00000000000E+00 0. -1.
         21    1    1    2  504  503 -0.55198306666E+02  0.56629467054E+02 -0.27480511469E+02  0.83719341303E+02  0.00000000000E+00 0. -1.
<mgrwt>
<rscale>  4 0.23661480E+03</rscale>
<asrwt>0</asrwt>
<pdfrwt beam="1">  1       21 0.17064434E-01 0.23661480E+03</pdfrwt>
<pdfrwt beam="2">  1       21 0.70140977E-01 0.23661480E+03</pdfrwt>
<totfact> 0.56026398E+04</totfact>
</mgrwt>
</event>
<event>
 5    0  0.1467858E+000  0.2595014E+03  0.7546771E-02  0.1107443E+00
         21   -1    0    0  504  501  0.00000000000E+00  0.00000000000E+00  0.75122779459E+03  0.75122779459E+03  0.00000000000E+00 0. -1.
         21   -1    0    0  501  502 -0.00000000000E+00 -0.00000000000E+00 -0.87352850162E+03  0.87352850162E+03  0.00000000000E+00 0.  1.
         25    1    1    2    0    0  0.18245453421E+03 -0.13574356588E+03 -0.83584994803E+03  0.87520632331E+03  0.12500000000E+03 0.  0.
         21    1    1    2  503  502 -0.25496442786E+02  0.11649338003E+02  0.11813305133E+03  0.12141331676E+03  0.00000000000E+00 0.  1.
         21    1    1    2  504  503 -0.15695809143E+03  0.12409422787E+03  0.59541618967E+03  0.62813665614E+03  0.00000000000E+00 0. -1.
<mgrwt>
<rscale>  4 0.25950139E+03</rscale>
<asrwt>0</asrwt>
<pdfrwt beam="1">  1       21 0.11557351E+00 0.25950139E+03</pdfrwt>
<pdfrwt beam="2">  1       21 0.13438900E+00 0.25950139E+03</pdfrwt>
<totfact> 0.21401229E+02</totfact>
</mgrwt>
</event>
<event>
 5    0  0.1467858E+000  0.3012061E+03  0.7546771E-02  0.1084639E+00
         21   -1    0    0  504  501  0.00000000000E+00  0.00000000000E+00  0.25313108608E+03  0.25313108608E+03  0.00000000000E+00 0.  1.
         21   -1    0    0  501  502 -0.00000000000E+00 -0.00000000000E+00 -0.38447014210E+03  0.38447014210E+03  0.00000000000E+00 0.  1.
         25    1    1    2    0    0 -0.23952099827E+03 -0.15363159236E+03 -0.91842403559E+02  0.32408795392E+03  0.12500000000E+03 0.  0.
         21    1    1    2  503  502  0.13621312257E+02  0.15239777483E+02  0.33031191883E+02  0.38843926199E+02  0.00000000000E+00 0.  1.
         21    1    1    2  504  503  0.22589968601E+03  0.13839181488E+03 -0.72527844337E+02  0.27466934807E+03  0.00000000000E+00 0.  1.
<mgrwt>
<rscale>  4 0.30120614E+03</rscale>
<asrwt>0</asrwt>
<pdfrwt beam="1">  1       21 0.38943244E-01 0.30120614E+03</pdfrwt>
<pdfrwt beam="2">  1       21 0.59149253E-01 0.30120614E+03</pdfrwt>
<totfact> 0.16064687E+04</totfact>
</mgrwt>
</event>
<event>
 5    0  0.1467858E+000  0.2398088E+03  0.7546771E-02  0.1119920E+00
         21   -1    0    0  504  501  0.00000000000E+00  0.00000000000E+00  0.36834252069E+03  0.36834252069E+03  0.00000000000E+00 0. -1.
         21   -1    0    0  501  502 -0.00000000000E+00 -0.00000000000E+00 -0.13008379992E+04  0.13008379992E+04  0.00000000000E+00 0. -1.
         25    1    1    2    0    0  0.19206989027E+03 -0.70656999921E+02 -0.12558940420E+04  0.12785844122E+04  0.12500000000E+03 0.  0.
         21    1    1    2  503  502 -0.44729253961E+02  0.33586497431E+02  0.14979540541E+03  0.15989816275E+03  0.00000000000E+00 0. -1.
         21    1    1    2  504  503 -0.14734063631E+03  0.37070502490E+02  0.17360315814E+03  0.23069794489E+03  0.00000000000E+00 0. -1.
<mgrwt>
<rscale>  4 0.23980879E+03</rscale>
<asrwt>0</asrwt>
<pdfrwt beam="1">  1       21 0.56668080E-01 0.23980879E+03</pdfrwt>
<pdfrwt beam="2">  1       21 0.20012892E+00 0.23980879E+03</pdfrwt>
<totfact> 0.37182229E+02</totfact>
</mgrwt>
</event>
<event>
 5    0  0.1467858E+000  0.2382001E+03  0.7546771E-02  0.1120998E+00
         21   -1    0    0  504  501  0.00000000000E+00  0.00000000000E+00  0.14737931241E+04  0.14737931241E+04  0.00000000000E+00 0.  1.
         21   -1    0    0  501  502 -0.00000000000E+00 -0.00000000000E+00 -0.69755541447E+02  0.69755541447E+02  0.00000000000E+00 0. -1.
         25    1    1    2    0    0  0.20191906875E+03  0.18520034983E+02  0.17195178627E+03  0.29378005178E+03  0.12500000000E+03 0.  0.
         21    1    1    2  503  502 -0.80853059105E+02  0.55492084642E+01  0.36130957577E+03  0.37028721342E+03  0.00000000000E+00 0.  1.
         21    1    1    2  504  503 -0.12106600965E+03 -0.24069243448E+02  0.87077622061E+03  0.87948140035E+03  0.00000000000E+00 0.  1.
<mgrwt>
<rscale>  4 0.23820013E+03</rscale>
<asrwt>0</asrwt>
<pdfrwt beam="1">  1       21 0.22673738E+00 0.23820013E+03</pdfrwt>
<pdfrwt beam="2">  1       21 0.10731623E-01 0.23820013E+03</pdfrwt>
<totfact> 0.62966315E+03</totfact>
</mgrwt>
</event>
<event>
 5    0  0.1467858E+000  0.3230251E+03  0.7546771E-02  0.1074265E+00
         21   -1    0    0  504  501  0.00000000000E+00  0.00000000000E+00  0.81757672348E+02  0.81757672348E+02  0.00000000000E+00 0. -1.
         21   -1    0    0  501  502 -0.00000000000E+00 -0.00000000000E+00 -0.12576387217E+04  0.12576387217E+04  0.00000000000E+00 0. -1.
         25    1    1    2    0    0  0.28931453501E+03  0.70833070564E+02 -0.68437354289E+03  0.75677762272E+03  0.12500000000E+03 0.  0.
         21    1    1    2  503  502 -0.41561616546E+02 -0.38180454748E+02 -0.14336655057E+03  0.15407492631E+03  0.00000000000E+00 0.  1.
         21    1    1    2  504  503 -0.24775291846E+03 -0.32652615816E+02 -0.34814095586E+03  0.42854384498E+03  0.00000000000E+00 0. -1.
<mgrwt>
<rscale>  4 0.32302511E+03</rscale>
<asrwt>0</asrwt>
<pdfrwt beam="1">  1       21 0.12578103E-01 0.32302511E+03</pdfrwt>
<pdfrwt beam="2">  1       21 0.19348288E+00 0.32302511E+03</pdfrwt>
<totfact> 0.73112628E+03</totfact>
</mgrwt>
</event>
<event>
 5    0  0.1467858E+000  0.2946480E+03  0.7546771E-02  0.1087947E+00
         21   -1    0    0  504  501  0.00000000000E+00  0.00000000000E+00  0.11660557323E+04  0.11660557323E+04  0.00000000000E+00 0. -1.
         21   -1    0    0  501  502 -0.00000000000E+00 -0.00000000000E+00 -0.74390861381E+02  0.74390861381E+02  0.00000000000E+00 0. -1.
         25    1    1    2    0    0 -0.85768092703E+02  0.25265838031E+03  0.71238954476E+03  0.77091911791E+03  0.12500000000E+03 0.  0.
         21    1    1    2  503  502  0.29989481668E+02 -0.34096341837E+02  0.32485690272E+02  0.55832334806E+02  0.00000000000E+00 0. -1.
         21    1    1    2  504  503  0.55778611035E+02 -0.21856203847E+03  0.34678963593E+03  0.41369514101E+03  0.00000000000E+00 0. -1.
<mgrwt>
<rscale>  4 0.29464796E+03</rscale>
<asrwt>0</asrwt>
<pdfrwt beam="1">  1       21 0.17939318E+00 0.29464796E+03</pdfrwt>
<pdfrwt beam="2">  1       21 0.11444749E-01 0.29464796E+03</pdfrwt>
<totfact> 0.10977498E+04</totfact>
</mgrwt>
</event>
<event>
 5    0  0.1467858E+000  0.2768126E+03  0.7546771E-02  0.1097443E+00
         21   -1    0    0  504  501  0.00000000000E+00  0.00000000000E+00  0.22725739546E+03  0.22725739546E+03  0.00000000000E+00 0. -1.
         21   -1    0    0  501  502 -0.00000000000E+00 -0.00000000000E+00 -0.11327793214E+04  0.11327793214E+04  0.00000000000E+00 0. -1.
         25    1    1    2    0    0 -0.44869446732E+01 -0.24594687247E+03 -0.92250372337E+03  0.96288530801E+03  0.12500000000E+03 0.  0.
         21    1    1    2  503  502 -0.84859455026E+02 -0.72858993699E+01 -0.74812809404E+02  0.11336299170E+03  0.00000000000E+00 0.  1.
         21    1    1    2  504  503  0.89346399699E+02  0.25323277184E+03  0.91794606822E+02  0.28378841716E+03  0.00000000000E+00 0. -1.
<mgrwt>
<rscale>  4 0.27681260E+03</rscale>
<asrwt>0</asrwt>
<pdfrwt beam="1">  1       21 0.34962677E-01 0.27681260E+03</pdfrwt>
<pdfrwt beam="2">  1       21 0.17427374E+00 0.27681260E+03</pdfrwt>
<totfact> 0.14601146E+03</totfact>
</mgrwt>
</event>
<event>
 5    0  0.1467858E+000  0.3488579E+03  0.7546771E-02  0.1064045E+00
         21   -1    0    0  504  501  0.00000000000E+00  0.00000000000E+00  0.14069796016E+03  0.14069796016E+03  0.00000000000E+00 0. -1.
         21   -1    0    0  501  502 -0.00000000000E+00 -0.00000000000E+00 -0.10050598231E+04  0.10050598231E+04  0.00000000000E+00 0.  1.
         25    1    1    2    0    0  0.39735091071E+01  0.31580572486E+03 -0.65783102849E+03  0.74034836846E+03  0.12500000000E+03 0.  0.
         21    1    1    2  503  502  0.42436736305E+02 -0.23692105388E+03 -0.89393723540E+02  0.25675611028E+03  0.00000000000E+00 0. -1.
         21    1    1    2  504  503 -0.46410245412E+02 -0.78884670984E+02 -0.11713711092E+03  0.14865330454E+03  0.00000000000E+00 0. -1.
<mgrwt>
<rscale>  4 0.34653723E+03</rscale>
<asrwt>0</asrwt>
<pdfrwt beam="1">  1       21 0.21645840E-01 0.34885786E+03</pdfrwt>
<pdfrwt beam="2">  1       21 0.15462459E+00 0.34885786E+03</pdfrwt>
<totfact> 0.49752456E+03</totfact>
</mgrwt>
</event>
<event>
 5    0  0.1467858E+000  0.2720241E+03  0.7546771E-02  0.1100127E+00
         21   -1    0    0  504  501  0.00000000000E+00  0.00000000000E+00  0.11177635019E+03  0.11177635019E+03  0.00000000000E+00 0.  1.
         21   -1    0    0  501  502 -0.00000000000E+00 -0.00000000000E+00 -0.78733395277E+03  0.78733395277E+03  0.00000000000E+00 0.  1.
         25    1    1    2    0    0  0.18775259056E+03  0.15205624318E+03 -0.56593329405E+03  0.62791530453E+03  0.12500000000E+03 0.  0.
         21    1    1    2  503  502 -0.65301514915E+02 -0.69632287095E+02 -0.69955639046E+02  0.11835005150E+03  0.00000000000E+00 0.  1.
         21    1    1    2  504  503 -0.12245107564E+03 -0.82423956089E+02 -0.39668669485E+02  0.15284494693E+03  0.00000000000E+00 0.  1.
<mgrwt>
<rscale>  4 0.27202415E+03</rscale>
<asrwt>0</asrwt>
<pdfrwt beam="1">  1       21 0.17196362E-01 0.27202415E+03</pdfrwt>
<pdfrwt beam="2">  1       21 0.12112830E+00 0.27202415E+03</pdfrwt>
<totfact> 0.15047530E+04</totfact>
</mgrwt>
</event>
<event>
 5    0  0.1467858E+000  0.3388364E+03  0.7546771E-02  0.1067293E+00
         21   -1    0    0  504  501  0.00000000000E+00  0.00000000000E+00  0.10839175613E+04  0.10839175613E+04  0.00000000000E+00 0.  1.
         21   -1    0    0  501  502 -0.00000000000E+00 -0.00000000000E+00 -0.15524712824E+03  0.15524712824E+03  0.00000000000E+00 0.  1.
         25    1    1    2    0    0  0.36560251871E+03  0.39064247790E+02  0.55689278370E+03  0.67892988569E+03  0.12500000000E+03 0.  0.
         21    1    1    2  503  502 -0.90752731418E+02 -0.68482010470E+02  0.24368158904E+02  0.11627403488E+03  0.00000000000E+00 0.  1.
         21    1    1    2  504  503 -0.27484978730E+03  0.29417762680E+02  0.34740949046E+03  0.44396076899E+03  0.00000000000E+00 0.  1.
<mgrwt>
<rscale>  4 0.33883642E+03</rscale>
<asrwt>0</asrwt>
<pdfrwt beam="1">  1       21 0.16675654E+00 0.33883642E+03</pdfrwt>
<pdfrwt beam="2">  1       21 0.23884174E-01 0.33883642E+03</pdfrwt>
<totfact> 0.33606134E+03</totfact>
</mgrwt>
</event>
<event>
 5    0  0.1467858E+000  0.2687823E+03  0.7546771E-02  0.1101979E+00
         21   -1    0    0  504  501  0.00000000000E+00  0.00000000000E+00  0.73254943875E+03  0.73254943875E+03  0.00000000000E+00 0.  1.
         21   -1    0    0  501  502 -0.00000000000E+00 -0.00000000000E+00 -0.88825918108E+03  0.88825918108E+03  0.00000000000E+00 0.  1.
         25    1    1    2    0    0  0.23239312517E+03 -0.51111390912E+02 -0.84683688026E+03  0.88846870551E+03  0.12500000000E+03 0.  0.
         21    1    1    2  503  502 -0.55048875198E+02  0.32344138738E+02  0.18701453678E+03  0.19761315477E+03  0.00000000000E+00 0.  1.
         21    1    1    2  504  503 -0.17734424998E+03  0.18767252174E+02  0.50411260114E+03  0.53472675955E+03  0.00000000000E+00 0.  1.
<mgrwt>
<rscale>  4 0.26878233E+03</rscale>
<asrwt>0</asrwt>
<pdfrwt beam="1">  1       21 0.11269991E+00 0.26878233E+03</pdfrwt>
<pdfrwt beam="2">  1       21 0.13665526E+00 0.26878233E+03</pdfrwt>
<totfact> 0.21622888E+02</totfact>
</mgrwt>
</event>
<event>
 5    0  0.1467858E+000  0.3018247E+03  0.7546771E-02  0.1084332E+00
         21   -1    0    0  504  501  0.00000000000E+00  0.00000000000E+00  0.52131300531E+03  0.52131300531E+03  0.00000000000E+00 0.  1.
         21   -1    0    0  501  502 -0.00000000000E+00 -0.00000000000E+00 -0.38514829129E+03  0.38514829129E+03  0.00000000000E+00 0.  1.
         25    1    1    2    0    0  0.24051562421E+03  0.13276054772E+03 -0.27602346075E+03  0.40900743197E+03  0.12500000000E+03 0.  0.
         21    1    1    2  503  502 -0.45460658122E+02 -0.35934521723E+02  0.60273703560E+02  0.83611486228E+02  0.00000000000E+00 0.  1.
         21    1    1    2  504  503 -0.19505496609E+03 -0.96826025998E+02  0.35191447121E+03  0.41384237839E+03  0.00000000000E+00 0.  1.
<mgrwt>
<rscale>  4 0.30182467E+03</rscale>
<asrwt>0</asrwt>
<pdfrwt beam="1">  1       21 0.80202001E-01 0.30182467E+03</pdfrwt>
<pdfrwt beam="2">  1       21 0.59253583E-01 0.30182467E+03</pdfrwt>
<totfact> 0.33824563E+03</totfact>
</mgrwt>
</event>
<event>
 5    0  0.1467858E+000  0.3032026E+03  0.7546771E-02  0.1083651E+00
         21   -1    0    0  504  501  0.00000000000E+00  0.00000000000E+00  0.58580477424E+03  0.58580477424E+03  0.00000000000E+00 0.  1.
         21   -1    0    0  501  502 -0.00000000000E+00 -0.00000000000E+00 -0.28224004736E+03  0.28224004736E+03  0.00000000000E+00 0. -1.
         25    1    1    2    0    0 -0.12439399547E+03 -0.24664334333E+03 -0.14511874709E+03  0.33614171963E+03  0.12500000000E+03 0.  0.
         21    1    1    2  503  502  0.43162599317E+02  0.53145638816E+02  0.64099574209E+02  0.93788188588E+02  0.00000000000E+00 0.  1.
         21    1    1    2  504  503  0.81231396157E+02  0.19349770451E+03  0.38458389976E+03  0.43811491338E+03  0.00000000000E+00 0.  1.
<mgrwt>
<rscale>  4 0.30320258E+03</rscale>
<asrwt>0</asrwt>
<pdfrwt beam="1">  1       21 0.90123811E-01 0.30320258E+03</pdfrwt>
<pdfrwt beam="2">  1       21 0.43421546E-01 0.30320258E+03</pdfrwt>
<totfact> 0.49771337E+03</totfact>
</mgrwt>
</event>
<event>
 5    0  0.1467858E+000  0.3154725E+03  0.7546771E-02  0.1077752E+00
         21   -1    0    0  504  501  0.00000000000E+00  0.00000000000E+00  0.66214148430E+02  0.66214148430E+02  0.00000000000E+00 0.  1.
         21   -1    0    0  501  502 -0.00000000000E+00 -0.00000000000E+00 -0.17298566216E+04  0.17298566216E+04  0.00000000000E+00 0.  1.
         25    1    1    2    0    0 -0.13228254734E+03  0.25768044862E+03 -0.12148027128E+04  0.12550970149E+04  0.12500000000E+03 0.  0.
         21    1    1    2  503  502  0.45232380275E+02 -0.16480130085E+03 -0.29870707935E+03  0.34413857128E+03  0.00000000000E+00 0.  1.
         21    1    1    2  504  503  0.87050167061E+02 -0.92879147767E+02 -0.15013268109E+03  0.19683518386E+03  0.00000000000E+00 0.  1.
<mgrwt>
<rscale>  4 0.31547248E+03</rscale>
<asrwt>0</asrwt>
<pdfrwt beam="1">  1       21 0.10186794E-01 0.31547248E+03</pdfrwt>
<pdfrwt beam="2">  1       21 0.26613174E+00 0.31547248E+03</pdfrwt>
<totfact> 0.37832620E+03</totfact>
</mgrwt>
</event>
<event>
 5    0  0.1467858E+000  0.4589923E+03  0.7546771E-02  0.1025074E+00
         21   -1    0    0  504  501  0.00000000000E+00  0.00000000000E+00  0.58970668986E+03  0.58970668986E+03  0.00000000000E+00 0. -1.
         21   -1    0    0  501  502 -0.00000000000E+00 -0.00000000000E+00 -0.38501892593E+03  0.38501892593E+03  0.00000000000E+00 0. -1.
         25    1    1    2    0    0 -0.43473532937E+03  0.77808335146E+02 -0.40327686305E+02  0.46076052989E+03  0.12500000000E+03 0.  0.
         21    1    1    2  503  502  0.67808466434E+02 -0.31553631069E+02  0.92116962683E+01  0.75355657399E+02  0.00000000000E+00 0. -1.
         21    1    1    2  504  503  0.36692686293E+03 -0.46254704077E+02  0.23580375396E+03  0.43860942850E+03  0.00000000000E+00 0. -1.
<mgrwt>
<rscale>  4 0.45899231E+03</rscale>
<asrwt>0</asrwt>
<pdfrwt beam="1">  1       21 0.90724106E-01 0.45899231E+03</pdfrwt>
<pdfrwt beam="2">  1       21 0.59233681E-01 0.45899231E+03</pdfrwt>
<totfact> 0.23714544E+03</totfact>
</mgrwt>
</event>
<event>
 5    0  0.1467858E+000  0.2706847E+03  0.7546771E-02  0.1100888E+00
         21   -1    0    0  504  501  0.00000000000E+00  0.00000000000E+00  0.10852584159E+03  0.10852584159E+03  0.00000000000E+00 0. -1.
         21   -1    0    0  501  502 -0.00000000000E+00 -0.00000000000E+00 -0.76198083711E+03  0.76198083711E+03  0.00000000000E+00 0. -1.
         25    1    1    2    0    0  0.16676416389E+03 -0.17272780162E+03 -0.50644693125E+03  0.57424617890E+03  0.12500000000E+03 0.  0.
         21    1    1    2  503  502 -0.64126603349E+02  0.11503825198E+02 -0.48676345020E+02  0.81326169317E+02  0.00000000000E+00 0. -1.
         21    1    1    2  504  503 -0.10263756054E+03  0.16122397642E+03 -0.98331719257E+02  0.21493433048E+03  0.00000000000E+00 0. -1.
<mgrwt>
<rscale>  4 0.27068465E+03</rscale>
<asrwt>0</asrwt>
<pdfrwt beam="1">  1       21 0.16696283E-01 0.27068465E+03</pdfrwt>
<pdfrwt beam="2">  1       21 0.11722782E+00 0.27068465E+03</pdfrwt>
<totfact> 0.17259048E+04</totfact>
</mgrwt>
</event>
<event>
 5    0  0.1467858E+000  0.2670635E+03  0.7546771E-02  0.1102972E+00
         21   -1    0    0  504  501  0.00000000000E+00  0.00000000000E+00  0.44698409814E+02  0.44698409814E+02  0.00000000000E+00 0. -1.
         21   -1    0    0  501  502 -0.00000000000E+00 -0.00000000000E+00 -0.14990519974E+04  0.14990519974E+04  0.00000000000E+00 0. -1.
         25    1    1    2    0    0 -0.13661449436E+03 -0.19244320982E+03 -0.71455813034E+03  0.76283434028E+03  0.12500000000E+03 0.  0.
         21    1    1    2  503  502  0.82976788835E+02  0.71004555011E+02 -0.23806825471E+03  0.26192229423E+03  0.00000000000E+00 0. -1.
         21    1    1    2  504  503  0.53637705522E+02  0.12143865481E+03 -0.50172720258E+03  0.51899377274E+03  0.00000000000E+00 0. -1.
<mgrwt>
<rscale>  4 0.26706349E+03</rscale>
<asrwt>0</asrwt>
<pdfrwt beam="1">  1       21 0.68766769E-02 0.26706349E+03</pdfrwt>
<pdfrwt beam="2">  1       21 0.23062344E+00 0.26706349E+03</pdfrwt>
<totfact> 0.12780132E+04</totfact>
</mgrwt>
</event>
<event>
 5    0  0.1467858E+000  0.2637936E+03  0.7546771E-02  0.1104885E+00
         21   -1    0    0  504  501  0.00000000000E+00  0.00000000000E+00  0.13864413861E+03  0.13864413861E+03  0.00000000000E+00 0.  1.
         21   -1    0    0  501  502 -0.00000000000E+00 -0.00000000000E+00 -0.46283376690E+03  0.46283376690E+03  0.00000000000E+00 0.  1.
         25    1    1    2    0    0  0.63039924393E+02  0.22357999762E+03 -0.20005541275E+03  0.33107282518E+03  0.12500000000E+03 0.  0.
         21    1    1    2  503  502 -0.48660276850E+02 -0.19818986880E+03 -0.83774178388E+02  0.22060181233E+03  0.00000000000E+00 0.  1.
         21    1    1    2  504  503 -0.14379647543E+02 -0.25390128822E+02 -0.40360037147E+02  0.49803268001E+02  0.00000000000E+00 0. -1.
<mgrwt>
<rscale>  4 0.26379357E+03</rscale>
<asrwt>0</asrwt>
<pdfrwt beam="1">  1       21 0.21329867E-01 0.26379357E+03</pdfrwt>
<pdfrwt beam="2">  1       21 0.71205195E-01 0.26379357E+03</pdfrwt>
<totfact> 0.35296674E+04</totfact>
</mgrwt>
</event>
<event>
 5    0  0.1467858E+000  0.2464336E+03  0.7546771E-02  0.1115580E+00
         21   -1    0    0  504  501  0.00000000000E+00  0.00000000000E+00  0.56735203308E+02  0.56735203308E+02  0.00000000000E+00 0. -1.
         21   -1    0    0  501  502 -0.00000000000E+00 -0.00000000000E+00 -0.15411245447E+04  0.15411245447E+04  0.00000000000E+00 0. -1.
         25    1    1    2    0    0  0.16947866411E+03  0.16587333739E+03 -0.11427595032E+04  0.11737807562E+04  0.12500000000E+03 0.  0.
         21    1    1    2  503  502 -0.15447218947E+03 -0.13711932466E+03 -0.23620303257E+03  0.31377577840E+03  0.00000000000E+00 0. -1.
         21    1    1    2  504  503 -0.15006474640E+02 -0.28754012731E+02 -0.10542680567E+03  0.11030321339E+03  0.00000000000E+00 0. -1.
<mgrwt>
<rscale>  4 0.24643362E+03</rscale>
<asrwt>0</asrwt>
<pdfrwt beam="1">  1       21 0.87284939E-02 0.24643362E+03</pdfrwt>
<pdfrwt beam="2">  1       21 0.23709606E+00 0.24643362E+03</pdfrwt>
<totfact> 0.78033881E+03</totfact>
</mgrwt>
</event>
<event>
 5    0  0.1467858E+000  0.2437502E+03  0.7546771E-02  0.1117319E+00
         21   -1    0    0  504  501  0.00000000000E+00  0.00000000000E+00  0.26178091047E+03  0.26178091047E+03  0.00000000000E+00 0. -1.
         21   -1    0    0  501  502 -0.00000000000E+00 -0.00000000000E+00 -0.37873730473E+03  0.37873730473E+03  0.00000000000E+00 0. -1.
         25    1    1    2    0    0 -0.22584456522E+03 -0.25935686881E+02 -0.17575977522E+03  0.31336069645E+03  0.12500000000E+03 0.  0.
         21    1    1    2  503  502  0.43897761596E+02  0.10913111896E+03  0.47233041517E+02  0.12675793786E+03  0.00000000000E+00 0. -1.
         21    1    1    2  504  503  0.18194680362E+03 -0.83195432082E+02  0.11570339438E+02  0.20039958090E+03  0.00000000000E+00 0. -1.
<mgrwt>
<rscale>  4 0.24375020E+03</rscale>
<asrwt>0</asrwt>
<pdfrwt beam="1">  1       21 0.40273986E-01 0.24375020E+03</pdfrwt>
<pdfrwt beam="2">  1       21 0.58267278E-01 0.24375020E+03</pdfrwt>
<totfact> 0.15913746E+04</totfact>
</mgrwt>
</event>
<event>
 5    0  0.1467858E+000  0.3137976E+03  0.7546771E-02  0.1078540E+00
         21   -1    0    0  504  501  0.00000000000E+00  0.00000000000E+00  0.89832201143E+02  0.89832201143E+02  0.00000000000E+00 0.  1.
         21   -1    0    0  501  502 -0.00000000000E+00 -0.00000000000E+00 -0.12317451693E+04  0.12317451693E+04  0.00000000000E+00 0.  1.
         25    1    1    2    0    0 -0.20275385939E+03 -0.21256073587E+03 -0.66796916402E+03  0.74033708405E+03  0.12500000000E+03 0.  0.
         21    1    1    2  503  502 -0.76046940098E+01  0.24752384607E+02  0.41021829889E+01  0.26217166513E+02  0.00000000000E+00 0.  1.
         21    1    1    2  504  503  0.21035855340E+03  0.18780835127E+03 -0.47804598711E+03  0.55502311986E+03  0.00000000000E+00 0.  1.
<mgrwt>
<rscale>  4 0.31379759E+03</rscale>
<asrwt>0</asrwt>
<pdfrwt beam="1">  1       21 0.13820339E-01 0.31379759E+03</pdfrwt>
<pdfrwt beam="2">  1       21 0.18949925E+00 0.31379759E+03</pdfrwt>
<totfact> 0.65814354E+03</totfact>
</mgrwt>
</event>
<event>
 5    0  0.1467858E+000  0.3266330E+03  0.7546771E-02  0.1072636E+00
         21   -1    0    0  504  501  0.00000000000E+00  0.00000000000E+00  0.18890063788E+03  0.18890063788E+03  0.00000000000E+00 0.  1.
         21   -1    0    0  501  502 -0.00000000000E+00 -0.00000000000E+00 -0.55180226585E+03  0.55180226585E+03  0.00000000000E+00 0.  1.
         25    1    1    2    0    0  0.24401756400E+03  0.17753743503E+03 -0.25394667283E+03  0.41373666144E+03  0.12500000000E+03 0.  0.
         21    1    1    2  503  502 -0.18916881650E+03 -0.10248249142E+03 -0.81085028025E+02  0.22991799398E+03  0.00000000000E+00 0.  1.
         21    1    1    2  504  503 -0.54848747502E+02 -0.75054943607E+02 -0.27869927110E+02  0.97048248308E+02  0.00000000000E+00 0.  1.
<mgrwt>
<rscale>  4 0.32663299E+03</rscale>
<asrwt>0</asrwt>
<pdfrwt beam="1">  1       21 0.29061637E-01 0.32663299E+03</pdfrwt>
<pdfrwt beam="2">  1       21 0.84892656E-01 0.32663299E+03</pdfrwt>
<totfact> 0.12706681E+04</totfact>
</mgrwt>
</event>
<event>
 5    0  0.1467858E+000  0.2990698E+03  0.7546771E-02  0.1085707E+00
         21   -1    0    0  504  501  0.00000000000E+00  0.00000000000E+00  0.27391657873E+03  0.27391657873E+03  0.00000000000E+00 0.  1.
         21   -1    0    0  501  502 -0.00000000000E+00 -0.00000000000E+00 -0.45337705334E+03  0.45337705334E+03  0.00000000000E+00 0.  1.
         25    1    1    2    0    0  0.96607346010E+02 -0.27592912690E+03 -0.13619252465E+03  0.34589487731E+03  0.12500000000E+03 0.  0.
         21    1    1    2  503  502 -0.88199065590E+01  0.26563307292E+03  0.28823941889E+02  0.26733787574E+03  0.00000000000E+00 0.  1.
         21    1    1    2  504  503 -0.87787439451E+02  0.10296053983E+02 -0.72091891846E+02  0.11406087902E+03  0.00000000000E+00 0.  1.
<mgrwt>
<rscale>  4 0.29906975E+03</rscale>
<asrwt>0</asrwt>
<pdfrwt beam="1">  1       21 0.42141013E-01 0.29906975E+03</pdfrwt>
<pdfrwt beam="2">  1       21 0.69750315E-01 0.29906975E+03</pdfrwt>
<totfact> 0.95253915E+03</totfact>
</mgrwt>
</event>
<event>
 5    0  0.1467858E+000  0.2475374E+03  0.7546771E-02  0.1114871E+00
         21   -1    0    0  504  501  0.00000000000E+00  0.00000000000E+00  0.39122723060E+02  0.39122723060E+02  0.00000000000E+00 0.  1.
         21   -1    0    0  501  502 -0.00000000000E+00 -0.00000000000E+00 -0.14024327911E+04  0.14024327911E+04  0.00000000000E+00 0.  1.
         25    1    1    2    0    0 -0.14037925878E+03 -0.16106966516E+03 -0.78730200469E+03  0.82529947287E+03  0.12500000000E+03 0.  0.
         21    1    1    2  503  502  0.16040008211E+02  0.47932086641E+02 -0.11792757515E+03  0.12830307780E+03  0.00000000000E+00 0.  1.
         21    1    1    2  504  503  0.12433925057E+03  0.11313757852E+03 -0.45808048817E+03  0.48795296346E+03  0.00000000000E+00 0.  1.
<mgrwt>
<rscale>  4 0.24753742E+03</rscale>
<asrwt>0</asrwt>
<pdfrwt beam="1">  1       21 0.60188802E-02 0.24753742E+03</pdfrwt>
<pdfrwt beam="2">  1       21 0.21575890E+00 0.24753742E+03</pdfrwt>
<totfact> 0.20144055E+04</totfact>
</mgrwt>
</event>
<event>
 5    0  0.1467858E+000  0.3203134E+03  0.7546771E-02  0.1075505E+00
         21   -1    0    0  504  501  0.00000000000E+00  0.00000000000E+00  0.34560359463E+03  0.34560359463E+03  0.00000000000E+00 0. -1.
         21   -1    0    0  501  502 -0.00000000000E+00 -0.00000000000E+00 -0.38557001999E+03  0.38557001999E+03  0.00000000000E+00 0. -1.
         25    1    1    2    0    0  0.29420319293E+03  0.20497502067E+02 -0.21527858234E+03  0.38593462443E+03  0.12500000000E+03 0.  0.
         21    1    1    2  503  502 -0.27122888585E+03 -0.14850939069E+02  0.17158358516E+03  0.32128894411E+03  0.00000000000E+00 0. -1.
         21    1    1    2  504  503 -0.22974307084E+02 -0.56465629984E+01  0.37285718175E+01  0.23950046086E+02  0.00000000000E+00 0. -1.
<mgrwt>
<rscale>  4 0.32031339E+03</rscale>
<asrwt>0</asrwt>
<pdfrwt beam="1">  1       21 0.53169784E-01 0.32031339E+03</pdfrwt>
<pdfrwt beam="2">  1       21 0.59318464E-01 0.32031339E+03</pdfrwt>
<totfact> 0.82829369E+03</totfact>
</mgrwt>
</event>
<event>
 5    0  0.1467858E+000  0.3272429E+03  0.7546771E-02  0.1072363E+00
         21   -1    0    0  504  501  0.00000000000E+00  0.00000000000E+00  0.20745447787E+03  0.20745447787E+03  0.00000000000E+00 0.  1.
         21   -1    0    0  501  502 -0.00000000000E+00 -0.00000000000E+00 -0.22763025245E+04  0.22763025245E+04  0.00000000000E+00 0.  1.
         25    1    1    2    0    0  0.29992517570E+03  0.47127031345E+02 -0.21186871918E+04  0.21439767921E+04  0.12500000000E+03 0.  0.
         21    1    1    2  503  502 -0.28691820867E+03 -0.11378095960E+02  0.71624980068E+02  0.29594198300E+03  0.00000000000E+00 0.  1.
         21    1    1    2  504  503 -0.13006967030E+02 -0.35748935385E+02 -0.21785834890E+02  0.43838227317E+02  0.00000000000E+00 0.  1.
<mgrwt>
<rscale>  4 0.32724288E+03</rscale>
<asrwt>0</asrwt>
<pdfrwt beam="1">  1       21 0.31916074E-01 0.32724288E+03</pdfrwt>
<pdfrwt beam="2">  1       21 0.35020038E+00 0.32724288E+03</pdfrwt>
<totfact> 0.13883072E+02</totfact>
</mgrwt>
</event>
