<event>
 5    0  0.2159162E+000  0.3125780E+03  0.7546771E-02  0.1079117E+00
         21   -1    0    0  502  501  0.00000000000E+00  0.00000000000E+00  0.26193150589E+03  0.26193150589E+03  0.00000000000E+00 0.  1.
         21   -1    0    0  503  502 -0.00000000000E+00 -0.00000000000E+00 -0.38616337915E+03  0.38616337915E+03  0.00000000000E+00 0.  1.
         25    1    1    2    0    0  0.15275829274E+03 -0.24237352046E+03 -0.15886042696E+03  0.35063036759E+03  0.12500000000E+03 0.  0.
         21    1    1    2  503  504 -0.77615789554E+02  0.18102636993E+03  0.91810557212E+01  0.19717770965E+03  0.00000000000E+00 0.  1.
         21    1    1    2  504  501 -0.75142503187E+02  0.61347150529E+02  0.25447497980E+02  0.10028680779E+03  0.00000000000E+00 0. -1.
<mgrwt>
<rscale>  4 0.31257802E+03</rscale>
<asrwt>0</asrwt>
<pdfrwt beam="1">  1       21 0.40297155E-01 0.31257802E+03</pdfrwt>
<pdfrwt beam="2">  1       21 0.59409751E-01 0.31257802E+03</pdfrwt>
<totfact> 0.14772064E+04</totfact>
</mgrwt>
</event>
<event>
 5    0  0.2159162E+000  0.3502061E+03  0.7546771E-02  0.1062530E+00
         21   -1    0    0  502  501  0.00000000000E+00  0.00000000000E+00  0.79133899482E+03  0.79133899482E+03  0.00000000000E+00 0.  1.
         21   -1    0    0  503  502 -0.00000000000E+00 -0.00000000000E+00 -0.16469329655E+03  0.16469329655E+03  0.00000000000E+00 0. -1.
         25    1    1    2    0    0  0.30967644575E+03 -0.10545060790E+03  0.46606990124E+03  0.58297983207E+03  0.12500000000E+03 0.  0.
         21    1    1    2  503  504 -0.31599808626E+02  0.34083990297E+01 -0.72571616420E+01  0.32601096366E+02  0.00000000000E+00 0. -1.
         21    1    1    2  504  501 -0.27807663713E+03  0.10204220887E+03  0.16783295868E+03  0.34045136294E+03  0.00000000000E+00 0. -1.
<mgrwt>
<rscale>  4 0.35020613E+03</rscale>
<asrwt>0</asrwt>
<pdfrwt beam="1">  1       21 0.12174446E+00 0.35020613E+03</pdfrwt>
<pdfrwt beam="2">  1       21 0.25337431E-01 0.35020613E+03</pdfrwt>
<totfact> 0.68732945E+03</totfact>
</mgrwt>
</event>
<event>
 5    0  0.2159162E+000  0.2388117E+03  0.7546771E-02  0.1120587E+00
         21   -1    0    0  502  501  0.00000000000E+00  0.00000000000E+00  0.28753639885E+03  0.28753639885E+03  0.00000000000E+00 0. -1.
         21   -1    0    0  503  502 -0.00000000000E+00 -0.00000000000E+00 -0.59830824123E+03  0.59830824123E+03  0.00000000000E+00 0. -1.
         25    1    1    2    0    0 -0.60838566379E+02 -0.19756705312E+03  0.19583218602E+03  0.31098121603E+03  0.12500000000E+03 0.  0.
         21    1    1    2  503  504  0.61196860470E+02  0.41783127762E+01 -0.22527066648E+03  0.23347245492E+03  0.00000000000E+00 0. -1.
         21    1    1    2  504  501 -0.35829409187E+00  0.19338874035E+03 -0.28133336193E+03  0.34139096913E+03  0.00000000000E+00 0. -1.
<mgrwt>
<rscale>  4 0.23881170E+03</rscale>
<asrwt>0</asrwt>
<pdfrwt beam="1">  1       21 0.44236370E-01 0.23881170E+03</pdfrwt>
<pdfrwt beam="2">  1       21 0.92047421E-01 0.23881170E+03</pdfrwt>
<totfact> 0.47309105E+03</totfact>
</mgrwt>
</event>
<event>
 5    0  0.2795147E+000  0.2607351E+03  0.7546771E-02  0.1106702E+00
         21   -1    0    0  502  501  0.00000000000E+00  0.00000000000E+00  0.46719814763E+03  0.46719814763E+03  0.00000000000E+00 0.  1.
         21   -1    0    0  503  502 -0.00000000000E+00 -0.00000000000E+00 -0.20566929258E+03  0.20566929258E+03  0.00000000000E+00 0.  1.
         25    1    1    2    0    0 -0.20968484542E+03 -0.91597349033E+02  0.32096861101E+03  0.41352588553E+03  0.12500000000E+03 0.  0.
         21    1    1    2  503  504  0.66021472337E+02  0.68480548992E+02 -0.62463939806E+02  0.11379878811E+03  0.00000000000E+00 0.  1.
         21    1    1    2  504  501  0.14366337308E+03  0.23116800041E+02  0.30241838413E+01  0.14554276656E+03  0.00000000000E+00 0.  1.
<mgrwt>
<rscale>  4 0.26073513E+03</rscale>
<asrwt>0</asrwt>
<pdfrwt beam="1">  1       21 0.71876638E-01 0.26073513E+03</pdfrwt>
<pdfrwt beam="2">  1       21 0.31641430E-01 0.26073513E+03</pdfrwt>
<totfact> 0.16154283E+04</totfact>
</mgrwt>
</event>
<event>
 5    0  0.4365019E+000  0.2291833E+03  0.7546771E-02  0.1127216E+00
         21   -1    0    0  502  501  0.00000000000E+00  0.00000000000E+00  0.18998233067E+03  0.18998233067E+03  0.00000000000E+00 0. -1.
         21   -1    0    0  503  502 -0.00000000000E+00 -0.00000000000E+00 -0.80525823275E+03  0.80525823275E+03  0.00000000000E+00 0.  1.
         25    1    1    2    0    0  0.32087360337E+02 -0.23686815877E+03  0.36755491703E+02  0.27223535682E+03  0.12500000000E+03 0.  0.
         21    1    1    2  503  504 -0.64721110510E+02  0.17682097988E+03 -0.61918055682E+03  0.64717775226E+03  0.00000000000E+00 0.  1.
         21    1    1    2  504  501  0.32633750173E+02  0.60047178890E+02 -0.32850836963E+02  0.75827454343E+02  0.00000000000E+00 0.  1.
<mgrwt>
<rscale>  4 0.22918335E+03</rscale>
<asrwt>0</asrwt>
<pdfrwt beam="1">  1       21 0.29228052E-01 0.22918335E+03</pdfrwt>
<pdfrwt beam="2">  1       21 0.12388588E+00 0.22918335E+03</pdfrwt>
<totfact> 0.53191013E+03</totfact>
</mgrwt>
</event>
<event>
 5    0  0.2159162E+000  0.2429818E+03  0.7546771E-02  0.1117822E+00
         21   -1    0    0  502  501  0.00000000000E+00  0.00000000000E+00  0.88817585363E+03  0.88817585363E+03  0.00000000000E+00 0.  1.
         21   -1    0    0  503  502 -0.00000000000E+00 -0.00000000000E+00 -0.11945414817E+04  0.11945414817E+04  0.00000000000E+00 0. -1.
         25    1    1    2    0    0 -0.15119245500E+03  0.14337358849E+03  0.86147419476E+03  0.89508543311E+03  0.12500000000E+03 0.  0.
         21    1    1    2  503  504  0.16863176854E+02 -0.33499158612E+02 -0.12693311150E+03  0.13235775443E+03  0.00000000000E+00 0. -1.
         21    1    1    2  504  501  0.13432927815E+03 -0.10987442988E+03 -0.10409067114E+04  0.10552741478E+04  0.00000000000E+00 0. -1.
<mgrwt>
<rscale>  4 0.24298178E+03</rscale>
<asrwt>0</asrwt>
<pdfrwt beam="1">  1       21 0.13664244E+00 0.24298178E+03</pdfrwt>
<pdfrwt beam="2">  1       21 0.18377561E+00 0.24298178E+03</pdfrwt>
<totfact> 0.61058097E+01</totfact>
</mgrwt>
</event>
<event>
 5    0  0.2464063E+000  0.3098098E+03  0.7546771E-02  0.1080437E+00
         21   -1    0    0  502  501  0.00000000000E+00  0.00000000000E+00  0.14750497199E+03  0.14750497199E+03  0.00000000000E+00 0.  1.
         21   -1    0    0  503  502 -0.00000000000E+00 -0.00000000000E+00 -0.66432548619E+03  0.66432548619E+03  0.00000000000E+00 0. -1.
         25    1    1    2    0    0 -0.95951586792E+02 -0.26674038427E+03 -0.15196697989E+03  0.34507405377E+03  0.12500000000E+03 0.  0.
         21    1    1    2  503  504  0.29865900481E+02  0.54586406712E+02 -0.42951526833E+02  0.75607416743E+02  0.00000000000E+00 0.  1.
         21    1    1    2  504  501  0.66085686312E+02  0.21215397756E+03 -0.32190200748E+03  0.39114898766E+03  0.00000000000E+00 0. -1.
<mgrwt>
<rscale>  4 0.30980984E+03</rscale>
<asrwt>0</asrwt>
<pdfrwt beam="1">  1       21 0.22693073E-01 0.30980984E+03</pdfrwt>
<pdfrwt beam="2">  1       21 0.10220392E+00 0.30980984E+03</pdfrwt>
<totfact> 0.13319556E+04</totfact>
</mgrwt>
</event>
<event>
 5    0  0.2159162E+000  0.2544204E+03  0.7546771E-02  0.1110543E+00
         21   -1    0    0  502  501  0.00000000000E+00  0.00000000000E+00  0.87288859476E+03  0.87288859476E+03  0.00000000000E+00 0.  1.
         21   -1    0    0  503  502 -0.00000000000E+00 -0.00000000000E+00 -0.19203013575E+03  0.19203013575E+03  0.00000000000E+00 0.  1.
         25    1    1    2    0    0 -0.24223530021E+03 -0.49805276923E+02  0.71546068075E+03  0.76724669564E+03  0.12500000000E+03 0.  0.
         21    1    1    2  503  504  0.81457708380E+02  0.18187651446E+02 -0.91845614977E+02  0.12410385131E+03  0.00000000000E+00 0.  1.
         21    1    1    2  504  501  0.16077759183E+03  0.31617625477E+02  0.57243393239E+02  0.17356818356E+03  0.00000000000E+00 0.  1.
<mgrwt>
<rscale>  4 0.25442040E+03</rscale>
<asrwt>0</asrwt>
<pdfrwt beam="1">  1       21 0.13429055E+00 0.25442040E+03</pdfrwt>
<pdfrwt beam="2">  1       21 0.29543098E-01 0.25442040E+03</pdfrwt>
<totfact> 0.41729427E+03</totfact>
</mgrwt>
</event>
<event>
 5    0  0.3483358E+000  0.2421989E+03  0.7546771E-02  0.1118337E+00
         21   -1    0    0  502  501  0.00000000000E+00  0.00000000000E+00  0.49334854690E+03  0.49334854690E+03  0.00000000000E+00 0.  1.
         21   -1    0    0  503  502 -0.00000000000E+00 -0.00000000000E+00 -0.10663205367E+03  0.10663205367E+03  0.00000000000E+00 0.  1.
         25    1    1    2    0    0  0.16515656151E+03  0.12553328570E+03  0.18497566525E+03  0.30475611948E+03  0.12500000000E+03 0.  0.
         21    1    1    2  503  504 -0.15874047395E+03 -0.10495300217E+03  0.16157814438E+03  0.24964207874E+03  0.00000000000E+00 0.  1.
         21    1    1    2  504  501 -0.64160875598E+01 -0.20580283533E+02  0.40162683598E+02  0.45582402347E+02  0.00000000000E+00 0.  1.
<mgrwt>
<rscale>  4 0.24219888E+03</rscale>
<asrwt>0</asrwt>
<pdfrwt beam="1">  1       21 0.75899775E-01 0.24219888E+03</pdfrwt>
<pdfrwt beam="2">  1       21 0.16404932E-01 0.24219888E+03</pdfrwt>
<totfact> 0.50400919E+04</totfact>
</mgrwt>
</event>
<event>
 5    0  0.2159162E+000  0.2393481E+03  0.7546771E-02  0.1120228E+00
         21   -1    0    0  502  501  0.00000000000E+00  0.00000000000E+00  0.74940980851E+03  0.74940980851E+03  0.00000000000E+00 0.  1.
         21   -1    0    0  503  502 -0.00000000000E+00 -0.00000000000E+00 -0.26331754467E+04  0.26331754467E+04  0.00000000000E+00 0.  1.
         25    1    1    2    0    0 -0.16188174296E+03 -0.12432543896E+03  0.72601502108E+03  0.76445099536E+03  0.12500000000E+03 0.  0.
         21    1    1    2  503  504  0.14339908278E+03  0.96498365576E+02 -0.23212281308E+04  0.23276544561E+04  0.00000000000E+00 0.  1.
         21    1    1    2  504  501  0.18482660179E+02  0.27827073386E+02 -0.28855252841E+03  0.29047980376E+03  0.00000000000E+00 0. -1.
<mgrwt>
<rscale>  4 0.23934810E+03</rscale>
<asrwt>0</asrwt>
<pdfrwt beam="1">  1       21 0.11529382E+00 0.23934810E+03</pdfrwt>
<pdfrwt beam="2">  1       21 0.40510392E+00 0.23934810E+03</pdfrwt>
<totfact> 0.42912433E+00</totfact>
</mgrwt>
</event>
