<event>
 5    0  0.1911311E+001  0.2563877E+03  0.7546771E-02  0.1109333E+00
         21   -1    0    0  504  501  0.00000000000E+00  0.00000000000E+00  0.25693763522E+04  0.25693763522E+04  0.00000000000E+00 0.  1.
         21   -1    0    0  503  502 -0.00000000000E+00 -0.00000000000E+00 -0.25043743083E+03  0.25043743083E+03  0.00000000000E+00 0.  1.
         25    1    1    2    0    0 -0.10482131944E+03  0.29041797555E+03 -0.13388295363E+02  0.33336819882E+03  0.12500000000E+03 0.  0.
         21    1    1    2  503  501  0.93493255578E+01 -0.17371254509E+03  0.26827336919E+02  0.17602035171E+03  0.00000000000E+00 0.  1.
         21    1    1    2  504  502  0.95471993878E+02 -0.11670543046E+03  0.23054998798E+04  0.23104252325E+04  0.00000000000E+00 0.  1.
<mgrwt>
<rscale>  4 0.25638772E+03</rscale>
<asrwt>0</asrwt>
<pdfrwt beam="1">  1       21 0.39528865E+00 0.25638772E+03</pdfrwt>
<pdfrwt beam="2">  1       21 0.38528837E-01 0.25638772E+03</pdfrwt>
<totfact> 0.54572172E+01</totfact>
</mgrwt>
</event>
<event>
 5    0  0.1911311E+001  0.3274490E+03  0.7546771E-02  0.1072271E+00
         21   -1    0    0  504  501  0.00000000000E+00  0.00000000000E+00  0.54861521179E+03  0.54861521179E+03  0.00000000000E+00 0.  1.
         21   -1    0    0  503  502 -0.00000000000E+00 -0.00000000000E+00 -0.83952875063E+03  0.83952875063E+03  0.00000000000E+00 0.  1.
         25    1    1    2    0    0 -0.20605366075E+03  0.38801155857E+03 -0.43557251198E+03  0.63115726557E+03  0.12500000000E+03 0.  0.
         21    1    1    2  503  501 -0.26625162677E+02 -0.21055397065E+03 -0.20906546399E+03  0.29790978848E+03  0.00000000000E+00 0.  1.
         21    1    1    2  504  502  0.23267882343E+03 -0.17745758792E+03  0.35372443712E+03  0.45907690837E+03  0.00000000000E+00 0.  1.
<mgrwt>
<rscale>  4 0.32744898E+03</rscale>
<asrwt>0</asrwt>
<pdfrwt beam="1">  1       21 0.84402340E-01 0.32744898E+03</pdfrwt>
<pdfrwt beam="2">  1       21 0.12915827E+00 0.32744898E+03</pdfrwt>
<totfact> 0.47679399E+02</totfact>
</mgrwt>
</event>
<event>
 5    0  0.1911311E+001  0.2548968E+03  0.7546771E-02  0.1110249E+00
         21   -1    0    0  502  501  0.00000000000E+00  0.00000000000E+00  0.34942941419E+03  0.34942941419E+03  0.00000000000E+00 0. -1.
         21   -1    0    0  504  502 -0.00000000000E+00 -0.00000000000E+00 -0.43342923377E+03  0.43342923377E+03  0.00000000000E+00 0. -1.
         25    1    1    2    0    0  0.19189499049E+03 -0.14322486587E+03  0.22210289103E+03  0.34970236456E+03  0.12500000000E+03 0.  0.
         21    1    1    2  503  501 -0.19209954769E+02  0.66759731448E+01  0.27046396682E+02  0.33839304856E+02  0.00000000000E+00 0. -1.
         21    1    1    2  504  503 -0.17268503572E+03  0.13654889272E+03 -0.33314910729E+03  0.39931697855E+03  0.00000000000E+00 0. -1.
<mgrwt>
<rscale>  4 0.25489679E+03</rscale>
<asrwt>0</asrwt>
<pdfrwt beam="1">  1       21 0.53758372E-01 0.25489679E+03</pdfrwt>
<pdfrwt beam="2">  1       21 0.66681420E-01 0.25489679E+03</pdfrwt>
<totfact> 0.64738423E+03</totfact>
</mgrwt>
</event>
