<event>
 5    0  0.1911311E+001  0.2561647E+03  0.7546771E-02  0.1109470E+00
         21   -1    0    0  504  501  0.00000000000E+00  0.00000000000E+00  0.74566132889E+03  0.74566132889E+03  0.00000000000E+00 0. -1.
         21   -1    0    0  503  502 -0.00000000000E+00 -0.00000000000E+00 -0.33701581423E+03  0.33701581423E+03  0.00000000000E+00 0. -1.
         25    1    1    2    0    0  0.20868271915E+03 -0.43315459587E+02 -0.20573414931E+03  0.32152176677E+03  0.12500000000E+03 0.  0.
         21    1    1    2  503  501  0.15745968371E+02  0.56947189213E+02 -0.38582676579E+02  0.70565861514E+02  0.00000000000E+00 0. -1.
         21    1    1    2  504  502 -0.22442868752E+03 -0.13631729626E+02  0.65296234055E+03  0.69058951484E+03  0.00000000000E+00 0. -1.
<mgrwt>
<rscale>  4 0.25616469E+03</rscale>
<asrwt>0</asrwt>
<pdfrwt beam="1">  1       21 0.11471713E+00 0.25616469E+03</pdfrwt>
<pdfrwt beam="2">  1       21 0.51848587E-01 0.25616469E+03</pdfrwt>
<totfact> 0.19780989E+03</totfact>
</mgrwt>
</event>
<event>
 5    0  0.1911311E+001  0.2252326E+03  0.7546771E-02  0.1130041E+00
         21   -1    0    0  504  501  0.00000000000E+00  0.00000000000E+00  0.59402774705E+03  0.59402774705E+03  0.00000000000E+00 0. -1.
         21   -1    0    0  503  502 -0.00000000000E+00 -0.00000000000E+00 -0.11717831733E+04  0.11717831733E+04  0.00000000000E+00 0.  1.
         25    1    1    2    0    0 -0.83934001242E+02 -0.18628486359E+03  0.37099474408E+03  0.44159830967E+03  0.12500000000E+03 0.  0.
         21    1    1    2  503  501  0.91445027342E+02  0.16317961432E+03 -0.11279591951E+04  0.11433642138E+04  0.00000000000E+00 0.  1.
         21    1    1    2  504  502 -0.75110261005E+01  0.23105249271E+02  0.17920902483E+03  0.18084839683E+03  0.00000000000E+00 0.  1.
<mgrwt>
<rscale>  4 0.22523259E+03</rscale>
<asrwt>0</asrwt>
<pdfrwt beam="1">  1       21 0.91388885E-01 0.22523259E+03</pdfrwt>
<pdfrwt beam="2">  1       21 0.18027433E+00 0.22523259E+03</pdfrwt>
<totfact> 0.17639447E+02</totfact>
</mgrwt>
</event>
<event>
 5    0  0.1911311E+001  0.4088476E+03  0.7546771E-02  0.1040758E+00
         21   -1    0    0  502  501  0.00000000000E+00  0.00000000000E+00  0.58647394602E+03  0.58647394602E+03  0.00000000000E+00 0.  1.
         21   -1    0    0  504  502 -0.00000000000E+00 -0.00000000000E+00 -0.74009788733E+03  0.74009788733E+03  0.00000000000E+00 0. -1.
         25    1    1    2    0    0 -0.41674786407E+03 -0.93656687182E+02 -0.52744136166E+03  0.69012299429E+03  0.12500000000E+03 0.  0.
         21    1    1    2  503  501  0.38235067813E+03  0.43576289185E+02  0.41272855048E+03  0.56430115225E+03  0.00000000000E+00 0.  1.
         21    1    1    2  504  503  0.34397185937E+02  0.50080397998E+02 -0.38911130135E+02  0.72147686812E+02  0.00000000000E+00 0.  1.
<mgrwt>
<rscale>  4 0.40884759E+03</rscale>
<asrwt>0</asrwt>
<pdfrwt beam="1">  1       21 0.90226760E-01 0.40884759E+03</pdfrwt>
<pdfrwt beam="2">  1       21 0.11386121E+00 0.40884759E+03</pdfrwt>
<totfact> 0.53567603E+02</totfact>
</mgrwt>
</event>
<event>
 5    0  0.1911311E+001  0.3350254E+03  0.7546771E-02  0.1068935E+00
         21   -1    0    0  503  501  0.00000000000E+00  0.00000000000E+00  0.19967528768E+03  0.19967528768E+03  0.00000000000E+00 0.  1.
         21   -1    0    0  504  502 -0.00000000000E+00 -0.00000000000E+00 -0.92287814578E+03  0.92287814578E+03  0.00000000000E+00 0.  1.
         25    1    1    2    0    0 -0.69166182955E+02 -0.37764575732E+03 -0.50869029712E+03  0.64945446128E+03  0.12500000000E+03 0.  0.
         21    1    1    2  503  502 -0.38844133923E+01  0.98933735794E+02 -0.14689096221E+03  0.17714380465E+03  0.00000000000E+00 0.  1.
         21    1    1    2  504  501  0.73050596347E+02  0.27871202153E+03 -0.67621598777E+02  0.29595516754E+03  0.00000000000E+00 0.  1.
<mgrwt>
<rscale>  4 0.33502540E+03</rscale>
<asrwt>0</asrwt>
<pdfrwt beam="1">  1       21 0.30719276E-01 0.33502540E+03</pdfrwt>
<pdfrwt beam="2">  1       21 0.14198125E+00 0.33502540E+03</pdfrwt>
<totfact> 0.31898315E+03</totfact>
</mgrwt>
</event>
