<event>
 4    0  0.1264838E-002  0.5625513E+03  0.7546771E-02  0.9986298E-01
         -1   -1    0    0    0  501 -0.00000000000E+00  0.00000000000E+00  0.11040522369E+03  0.11040522369E+03  0.00000000000E+00 0.  1.
          1   -1    0    0  502    0  0.00000000000E+00 -0.00000000000E+00 -0.71659650537E+03  0.71659650537E+03  0.00000000000E+00 0. -1.
         25    1    1    2    0    0 -0.16491206414E+03 -0.19865785840E+03 -0.42028670097E+03  0.50884854782E+03  0.12500000000E+03 0.  0.
         21    1    1    2  502  501  0.16491206414E+03  0.19865785840E+03 -0.18590458071E+03  0.31815318124E+03  0.00000000000E+00 0.  1.
<mgrwt>
<rscale>  3 0.56255132E+03</rscale>
<asrwt>0</asrwt>
<pdfrwt beam="1">  1        1 0.11024561E+00 0.56255132E+03</pdfrwt>
<pdfrwt beam="2">  1       -1 0.16985420E-01 0.56255132E+03</pdfrwt>
<totfact> 0.71194469E+02</totfact>
</mgrwt>
</event>
<event>
 4    0  0.1264838E-002  0.4513001E+03  0.7546771E-02  0.1027335E+00
         -2   -1    0    0    0  501 -0.00000000000E+00  0.00000000000E+00  0.32877746862E+02  0.32877746862E+02  0.00000000000E+00 0. -1.
          2   -1    0    0  502    0  0.00000000000E+00 -0.00000000000E+00 -0.15487055948E+04  0.15487055948E+04  0.00000000000E+00 0.  1.
         25    1    1    2    0    0  0.13435415835E+03 -0.15864756735E+03 -0.76838766765E+03  0.80576963103E+03  0.12500000000E+03 0.  0.
         21    1    1    2  502  501 -0.13435415835E+03  0.15864756735E+03 -0.74744018026E+03  0.77581371060E+03  0.00000000000E+00 0.  1.
<mgrwt>
<rscale>  3 0.45130012E+03</rscale>
<asrwt>0</asrwt>
<pdfrwt beam="1">  1        2 0.23826239E+00 0.45130012E+03</pdfrwt>
<pdfrwt beam="2">  1       -2 0.50581150E-02 0.45130012E+03</pdfrwt>
<totfact> 0.24641284E+03</totfact>
</mgrwt>
</event>
<event>
 4    0  0.1264838E-002  0.4666851E+03  0.7546771E-02  0.1022860E+00
         -2   -1    0    0    0  501 -0.00000000000E+00  0.00000000000E+00  0.24341291099E+03  0.24341291099E+03  0.00000000000E+00 0. -1.
          2   -1    0    0  502    0  0.00000000000E+00 -0.00000000000E+00 -0.22368877474E+03  0.22368877474E+03  0.00000000000E+00 0.  1.
         25    1    1    2    0    0  0.29909794819E+02  0.21226767121E+03  0.41650769262E+02  0.25161865322E+03  0.12500000000E+03 0.  0.
         21    1    1    2  502  501 -0.29909794819E+02 -0.21226767121E+03 -0.21926633014E+02  0.21548303252E+03  0.00000000000E+00 0.  1.
<mgrwt>
<rscale>  3 0.46668506E+03</rscale>
<asrwt>0</asrwt>
<pdfrwt beam="1">  1        2 0.34413658E-01 0.46668506E+03</pdfrwt>
<pdfrwt beam="2">  1       -2 0.37448140E-01 0.46668506E+03</pdfrwt>
<totfact> 0.10256914E+03</totfact>
</mgrwt>
</event>
<event>
 4    0  0.1264838E-002  0.5032125E+03  0.7546771E-02  0.1012944E+00
         -2   -1    0    0    0  501 -0.00000000000E+00  0.00000000000E+00  0.27937476989E+02  0.27937476989E+02  0.00000000000E+00 0. -1.
          2   -1    0    0  502    0  0.00000000000E+00 -0.00000000000E+00 -0.22659774441E+04  0.22659774441E+04  0.00000000000E+00 0.  1.
         25    1    1    2    0    0 -0.10703504174E+03 -0.19073134164E+03 -0.78291500609E+03  0.82244504473E+03  0.12500000000E+03 0.  0.
         21    1    1    2  502  501  0.10703504174E+03  0.19073134164E+03 -0.14551249611E+04  0.14714698764E+04  0.00000000000E+00 0.  1.
<mgrwt>
<rscale>  3 0.50321245E+03</rscale>
<asrwt>0</asrwt>
<pdfrwt beam="1">  1        2 0.34861194E+00 0.50321245E+03</pdfrwt>
<pdfrwt beam="2">  1       -2 0.42980731E-02 0.50321245E+03</pdfrwt>
<totfact> 0.12956839E+03</totfact>
</mgrwt>
</event>
<event>
 4    0  0.1264838E-002  0.9632185E+03  0.7546771E-02  0.9349832E-01
         -2   -1    0    0    0  501 -0.00000000000E+00  0.00000000000E+00  0.29876256478E+03  0.29876256478E+03  0.00000000000E+00 0. -1.
          2   -1    0    0  502    0  0.00000000000E+00 -0.00000000000E+00 -0.77636052841E+03  0.77636052841E+03  0.00000000000E+00 0.  1.
         25    1    1    2    0    0  0.25108003870E+03  0.40138577448E+03 -0.23500558731E+03  0.54314303075E+03  0.12500000000E+03 0.  0.
         21    1    1    2  502  501 -0.25108003870E+03 -0.40138577448E+03 -0.24259237632E+03  0.53198006244E+03  0.00000000000E+00 0.  1.
<mgrwt>
<rscale>  3 0.96321849E+03</rscale>
<asrwt>0</asrwt>
<pdfrwt beam="1">  1        2 0.11944008E+00 0.96321849E+03</pdfrwt>
<pdfrwt beam="2">  1       -2 0.45963472E-01 0.96321849E+03</pdfrwt>
<totfact> 0.16086841E+02</totfact>
</mgrwt>
</event>
<event>
 4    0  0.1264838E-002  0.5221376E+03  0.7546771E-02  0.1008157E+00
          2   -1    0    0  502    0  0.00000000000E+00  0.00000000000E+00  0.83762800813E+03  0.83762800813E+03  0.00000000000E+00 0.  1.
         -2   -1    0    0    0  501 -0.00000000000E+00 -0.00000000000E+00 -0.81368961153E+02  0.81368961153E+02  0.00000000000E+00 0. -1.
         25    1    1    2    0    0  0.21714031010E+03  0.25586012720E+02  0.59864766425E+03  0.64946792395E+03  0.12500000000E+03 0.  0.
         21    1    1    2  502  501 -0.21714031010E+03 -0.25586012720E+02  0.15761138272E+03  0.26952904534E+03  0.00000000000E+00 0. -1.
<mgrwt>
<rscale>  3 0.52213761E+03</rscale>
<asrwt>0</asrwt>
<pdfrwt beam="1">  1        2 0.12886584E+00 0.52213761E+03</pdfrwt>
<pdfrwt beam="2">  1       -2 0.12518302E-01 0.52213761E+03</pdfrwt>
<totfact> 0.15425080E+03</totfact>
</mgrwt>
</event>
<event>
 4    0  0.1264838E-002  0.6419820E+03  0.7546771E-02  0.9821942E-01
         -2   -1    0    0    0  501 -0.00000000000E+00  0.00000000000E+00  0.16822059067E+03  0.16822059067E+03  0.00000000000E+00 0. -1.
          2   -1    0    0  502    0  0.00000000000E+00 -0.00000000000E+00 -0.61250070734E+03  0.61250070734E+03  0.00000000000E+00 0.  1.
         25    1    1    2    0    0 -0.67946183424E+02  0.23149563819E+03 -0.46500294110E+03  0.53857186111E+03  0.12500000000E+03 0.  0.
         21    1    1    2  502  501  0.67946183424E+02 -0.23149563819E+03  0.20722824434E+02  0.24214943691E+03  0.00000000000E+00 0. -1.
<mgrwt>
<rscale>  3 0.64198203E+03</rscale>
<asrwt>0</asrwt>
<pdfrwt beam="1">  1        2 0.94230877E-01 0.64198203E+03</pdfrwt>
<pdfrwt beam="2">  1       -2 0.25880091E-01 0.64198203E+03</pdfrwt>
<totfact> 0.65475752E+02</totfact>
</mgrwt>
</event>
<event>
 4    0  0.1264838E-002  0.6436839E+03  0.7546771E-02  0.9818704E-01
         -2   -1    0    0    0  501 -0.00000000000E+00  0.00000000000E+00  0.17398390669E+03  0.17398390669E+03  0.00000000000E+00 0.  1.
          2   -1    0    0  502    0  0.00000000000E+00 -0.00000000000E+00 -0.59535533374E+03  0.59535533374E+03  0.00000000000E+00 0. -1.
         25    1    1    2    0    0  0.22586087510E+03 -0.20874176686E+03 -0.17502952530E+03  0.37529534351E+03  0.12500000000E+03 0.  0.
         21    1    1    2  502  501 -0.22586087510E+03  0.20874176686E+03 -0.24634190176E+03  0.39404389692E+03  0.00000000000E+00 0. -1.
<mgrwt>
<rscale>  3 0.64368392E+03</rscale>
<asrwt>0</asrwt>
<pdfrwt beam="1">  1        2 0.91593128E-01 0.64368392E+03</pdfrwt>
<pdfrwt beam="2">  1       -2 0.26766755E-01 0.64368392E+03</pdfrwt>
<totfact> 0.63735234E+02</totfact>
</mgrwt>
</event>
<event>
 4    0  0.1264838E-002  0.5286723E+03  0.7546771E-02  0.1006555E+00
         -2   -1    0    0    0  501 -0.00000000000E+00  0.00000000000E+00  0.62631092045E+02  0.62631092045E+02  0.00000000000E+00 0. -1.
          2   -1    0    0  502    0  0.00000000000E+00 -0.00000000000E+00 -0.11156373990E+04  0.11156373990E+04  0.00000000000E+00 0.  1.
         25    1    1    2    0    0  0.23430043024E+03  0.19343499062E+02 -0.36935345969E+03  0.45532168931E+03  0.12500000000E+03 0.  0.
         21    1    1    2  502  501 -0.23430043024E+03 -0.19343499062E+02 -0.68365284722E+03  0.72294680169E+03  0.00000000000E+00 0.  1.
<mgrwt>
<rscale>  3 0.52867226E+03</rscale>
<asrwt>0</asrwt>
<pdfrwt beam="1">  1        2 0.17163652E+00 0.52867226E+03</pdfrwt>
<pdfrwt beam="2">  1       -2 0.96355529E-02 0.52867226E+03</pdfrwt>
<totfact> 0.15686240E+03</totfact>
</mgrwt>
</event>
<event>
 4    0  0.1264838E-002  0.4671188E+03  0.7546771E-02  0.1022737E+00
         -2   -1    0    0    0  501 -0.00000000000E+00  0.00000000000E+00  0.29062996965E+02  0.29062996965E+02  0.00000000000E+00 0.  1.
          2   -1    0    0  502    0  0.00000000000E+00 -0.00000000000E+00 -0.18769565413E+04  0.18769565413E+04  0.00000000000E+00 0. -1.
         25    1    1    2    0    0 -0.21370248652E+03 -0.15974314761E+02 -0.85519312337E+03  0.89045168861E+03  0.12500000000E+03 0.  0.
         21    1    1    2  502  501  0.21370248652E+03  0.15974314761E+02 -0.99270042091E+03  0.10155678496E+04  0.00000000000E+00 0. -1.
<mgrwt>
<rscale>  3 0.46711875E+03</rscale>
<asrwt>0</asrwt>
<pdfrwt beam="1">  1        2 0.28876258E+00 0.46711875E+03</pdfrwt>
<pdfrwt beam="2">  1       -2 0.44712297E-02 0.46711875E+03</pdfrwt>
<totfact> 0.19822180E+03</totfact>
</mgrwt>
</event>
<event>
 4    0  0.1264838E-002  0.4563461E+03  0.7546771E-02  0.1025846E+00
          1   -1    0    0  502    0  0.00000000000E+00  0.00000000000E+00  0.63293794300E+03  0.63293794300E+03  0.00000000000E+00 0. -1.
         -1   -1    0    0    0  501 -0.00000000000E+00 -0.00000000000E+00 -0.82255997537E+02  0.82255997537E+02  0.00000000000E+00 0.  1.
         25    1    1    2    0    0  0.19188969907E+03  0.60368537835E+02  0.39607493622E+03  0.46148279716E+03  0.12500000000E+03 0.  0.
         21    1    1    2  502  501 -0.19188969907E+03 -0.60368537835E+02  0.15460700924E+03  0.25371114338E+03  0.00000000000E+00 0. -1.
<mgrwt>
<rscale>  3 0.45634610E+03</rscale>
<asrwt>0</asrwt>
<pdfrwt beam="1">  1        1 0.97375065E-01 0.45634610E+03</pdfrwt>
<pdfrwt beam="2">  1       -1 0.12654769E-01 0.45634610E+03</pdfrwt>
<totfact> 0.13764525E+03</totfact>
</mgrwt>
</event>
<event>
 4    0  0.1264838E-002  0.5172466E+03  0.7546771E-02  0.1009373E+00
         -2   -1    0    0    0  501 -0.00000000000E+00  0.00000000000E+00  0.25741431482E+03  0.25741431482E+03  0.00000000000E+00 0. -1.
          2   -1    0    0  502    0  0.00000000000E+00 -0.00000000000E+00 -0.25983792263E+03  0.25983792263E+03  0.00000000000E+00 0.  1.
         25    1    1    2    0    0  0.21771400562E+03  0.98640101991E+02  0.45326670960E+02  0.27351191028E+03  0.12500000000E+03 0.  0.
         21    1    1    2  502  501 -0.21771400562E+03 -0.98640101991E+02 -0.47750278771E+02  0.24374032717E+03  0.00000000000E+00 0.  1.
<mgrwt>
<rscale>  3 0.51724656E+03</rscale>
<asrwt>0</asrwt>
<pdfrwt beam="1">  1        2 0.39975065E-01 0.51724656E+03</pdfrwt>
<pdfrwt beam="2">  1       -2 0.39602202E-01 0.51724656E+03</pdfrwt>
<totfact> 0.78075285E+02</totfact>
</mgrwt>
</event>
<event>
 4    0  0.1264838E-002  0.5287864E+03  0.7546771E-02  0.1006527E+00
         -2   -1    0    0    0  501 -0.00000000000E+00  0.00000000000E+00  0.47564673401E+03  0.47564673401E+03  0.00000000000E+00 0.  1.
          2   -1    0    0  502    0  0.00000000000E+00 -0.00000000000E+00 -0.14696572112E+03  0.14696572112E+03  0.00000000000E+00 0. -1.
         25    1    1    2    0    0 -0.21216785449E+03 -0.11173824829E+03  0.25517482411E+03  0.37180616653E+03  0.12500000000E+03 0.  0.
         21    1    1    2  502  501  0.21216785449E+03  0.11173824829E+03  0.73506188774E+02  0.25080628859E+03  0.00000000000E+00 0.  1.
<mgrwt>
<rscale>  3 0.52878640E+03</rscale>
<asrwt>0</asrwt>
<pdfrwt beam="1">  1        2 0.22610111E-01 0.52878640E+03</pdfrwt>
<pdfrwt beam="2">  1       -2 0.73176420E-01 0.52878640E+03</pdfrwt>
<totfact> 0.41911765E+02</totfact>
</mgrwt>
</event>
<event>
 4    0  0.1264838E-002  0.5291708E+03  0.7546771E-02  0.1006433E+00
         -2   -1    0    0    0  501 -0.00000000000E+00  0.00000000000E+00  0.16323963008E+03  0.16323963008E+03  0.00000000000E+00 0. -1.
          2   -1    0    0  502    0  0.00000000000E+00 -0.00000000000E+00 -0.42885065032E+03  0.42885065032E+03  0.00000000000E+00 0.  1.
         25    1    1    2    0    0 -0.14072863325E+03  0.16015424307E+03  0.54862272275E+01  0.24720240387E+03  0.12500000000E+03 0.  0.
         21    1    1    2  502  501  0.14072863325E+03 -0.16015424307E+03 -0.27109724747E+03  0.34488787653E+03  0.00000000000E+00 0.  1.
<mgrwt>
<rscale>  3 0.52917075E+03</rscale>
<asrwt>0</asrwt>
<pdfrwt beam="1">  1        2 0.65977024E-01 0.52917075E+03</pdfrwt>
<pdfrwt beam="2">  1       -2 0.25113789E-01 0.52917075E+03</pdfrwt>
<totfact> 0.10466493E+03</totfact>
</mgrwt>
</event>
<event>
 4    0  0.1264838E-002  0.6326284E+03  0.7546771E-02  0.9839933E-01
          1   -1    0    0  502    0  0.00000000000E+00  0.00000000000E+00  0.21849183365E+03  0.21849183365E+03  0.00000000000E+00 0.  1.
         -1   -1    0    0    0  501 -0.00000000000E+00 -0.00000000000E+00 -0.45793327941E+03  0.45793327941E+03  0.00000000000E+00 0. -1.
         25    1    1    2    0    0  0.33509382727E+02  0.25298138100E+03  0.52181103508E+02  0.28891231443E+03  0.12500000000E+03 0.  0.
         21    1    1    2  502  501 -0.33509382727E+02 -0.25298138100E+03 -0.29162254927E+03  0.38751279863E+03  0.00000000000E+00 0. -1.
<mgrwt>
<rscale>  3 0.63262843E+03</rscale>
<asrwt>0</asrwt>
<pdfrwt beam="1">  1        1 0.33614129E-01 0.63262843E+03</pdfrwt>
<pdfrwt beam="2">  1       -1 0.70451273E-01 0.63262843E+03</pdfrwt>
<totfact> 0.27392969E+02</totfact>
</mgrwt>
</event>
<event>
 4    0  0.1264838E-002  0.5541593E+03  0.7546771E-02  0.1000536E+00
         -1   -1    0    0    0  501 -0.00000000000E+00  0.00000000000E+00  0.14867364525E+03  0.14867364525E+03  0.00000000000E+00 0. -1.
          1   -1    0    0  502    0  0.00000000000E+00 -0.00000000000E+00 -0.51638697512E+03  0.51638697512E+03  0.00000000000E+00 0.  1.
         25    1    1    2    0    0  0.17811100308E+03 -0.14524548785E+03 -0.39803595444E+02  0.26463013315E+03  0.12500000000E+03 0.  0.
         21    1    1    2  502  501 -0.17811100308E+03  0.14524548785E+03 -0.32790973443E+03  0.40043048722E+03  0.00000000000E+00 0.  1.
<mgrwt>
<rscale>  3 0.55415931E+03</rscale>
<asrwt>0</asrwt>
<pdfrwt beam="1">  1        1 0.79444150E-01 0.55415931E+03</pdfrwt>
<pdfrwt beam="2">  1       -1 0.22872869E-01 0.55415931E+03</pdfrwt>
<totfact> 0.69641502E+02</totfact>
</mgrwt>
</event>
<event>
 4    0  0.1264838E-002  0.9850548E+03  0.7546771E-02  0.9325090E-01
          2   -1    0    0  502    0  0.00000000000E+00  0.00000000000E+00  0.17614840632E+04  0.17614840632E+04  0.00000000000E+00 0.  1.
         -2   -1    0    0    0  501 -0.00000000000E+00 -0.00000000000E+00 -0.13771526976E+03  0.13771526976E+03  0.00000000000E+00 0. -1.
         25    1    1    2    0    0  0.34271614732E+03  0.20419596997E+03  0.13553660860E+04  0.14183767408E+04  0.12500000000E+03 0.  0.
         21    1    1    2  502  501 -0.34271614732E+03 -0.20419596997E+03  0.26840270750E+03  0.48082259221E+03  0.00000000000E+00 0. -1.
<mgrwt>
<rscale>  3 0.98505483E+03</rscale>
<asrwt>0</asrwt>
<pdfrwt beam="1">  1        2 0.27099753E+00 0.98505483E+03</pdfrwt>
<pdfrwt beam="2">  1       -2 0.21186966E-01 0.98505483E+03</pdfrwt>
<totfact> 0.17504643E+02</totfact>
</mgrwt>
</event>
<event>
 4    0  0.1264838E-002  0.4951844E+03  0.7546771E-02  0.1015044E+00
          2   -1    0    0  502    0  0.00000000000E+00  0.00000000000E+00  0.50439552673E+02  0.50439552673E+02  0.00000000000E+00 0.  1.
         -2   -1    0    0    0  501 -0.00000000000E+00 -0.00000000000E+00 -0.12153536453E+04  0.12153536453E+04  0.00000000000E+00 0. -1.
         25    1    1    2    0    0  0.15976948905E+03 -0.15809951478E+03 -0.76454660818E+03  0.80664630556E+03  0.12500000000E+03 0.  0.
         21    1    1    2  502  501 -0.15976948905E+03  0.15809951478E+03 -0.40036748444E+03  0.45914689240E+03  0.00000000000E+00 0.  1.
<mgrwt>
<rscale>  3 0.49518439E+03</rscale>
<asrwt>0</asrwt>
<pdfrwt beam="1">  1        2 0.77599312E-02 0.49518439E+03</pdfrwt>
<pdfrwt beam="2">  1       -2 0.18697748E+00 0.49518439E+03</pdfrwt>
<totfact> 0.15359674E+02</totfact>
</mgrwt>
</event>
<event>
 4    0  0.1264838E-002  0.5379733E+03  0.7546771E-02  0.1004317E+00
         -4   -1    0    0    0  501 -0.00000000000E+00  0.00000000000E+00  0.18623902693E+03  0.18623902693E+03  0.00000000000E+00 0.  1.
          4   -1    0    0  502    0  0.00000000000E+00 -0.00000000000E+00 -0.38849975776E+03  0.38849975776E+03  0.00000000000E+00 0. -1.
         25    1    1    2    0    0  0.17513121099E+03 -0.15165046300E+03 -0.21906271439E+03  0.34246500088E+03  0.12500000000E+03 0.  0.
         21    1    1    2  502  501 -0.17513121099E+03  0.15165046300E+03  0.16801983558E+02  0.23227378380E+03  0.00000000000E+00 0.  1.
<mgrwt>
<rscale>  3 0.53797330E+03</rscale>
<asrwt>0</asrwt>
<pdfrwt beam="1">  1        4 0.59769193E-01 0.53797330E+03</pdfrwt>
<pdfrwt beam="2">  1       -4 0.28652158E-01 0.53797330E+03</pdfrwt>
<totfact> 0.60826570E+01</totfact>
</mgrwt>
</event>
<event>
 4    0  0.1264838E-002  0.5581803E+03  0.7546771E-02  0.9996181E-01
         -2   -1    0    0    0  501 -0.00000000000E+00  0.00000000000E+00  0.56145511947E+02  0.56145511947E+02  0.00000000000E+00 0. -1.
          2   -1    0    0  502    0  0.00000000000E+00 -0.00000000000E+00 -0.13873113842E+04  0.13873113842E+04  0.00000000000E+00 0.  1.
         25    1    1    2    0    0  0.25556744793E+03  0.32267458780E+02 -0.53707726284E+03  0.60863198700E+03  0.12500000000E+03 0.  0.
         21    1    1    2  502  501 -0.25556744793E+03 -0.32267458780E+02 -0.79408860942E+03  0.83482490915E+03  0.00000000000E+00 0.  1.
<mgrwt>
<rscale>  3 0.55818029E+03</rscale>
<asrwt>0</asrwt>
<pdfrwt beam="1">  1        2 0.21343252E+00 0.55818029E+03</pdfrwt>
<pdfrwt beam="2">  1       -2 0.86377711E-02 0.55818029E+03</pdfrwt>
<totfact> 0.13013201E+03</totfact>
</mgrwt>
</event>
<event>
 4    0  0.1264838E-002  0.5184045E+03  0.7546771E-02  0.1009084E+00
         -1   -1    0    0    0  501 -0.00000000000E+00  0.00000000000E+00  0.78445748317E+03  0.78445748317E+03  0.00000000000E+00 0. -1.
          1   -1    0    0  502    0  0.00000000000E+00 -0.00000000000E+00 -0.85646208570E+02  0.85646208570E+02  0.00000000000E+00 0.  1.
         25    1    1    2    0    0  0.23124225089E+03 -0.73782672993E+02  0.32583797665E+03  0.42510263285E+03  0.12500000000E+03 0.  0.
         21    1    1    2  502  501 -0.23124225089E+03  0.73782672993E+02  0.37297329795E+03  0.44500105889E+03  0.00000000000E+00 0.  1.
<mgrwt>
<rscale>  3 0.51840451E+03</rscale>
<asrwt>0</asrwt>
<pdfrwt beam="1">  1        1 0.13176340E-01 0.51840451E+03</pdfrwt>
<pdfrwt beam="2">  1       -1 0.12068576E+00 0.51840451E+03</pdfrwt>
<totfact> 0.28645133E+02</totfact>
</mgrwt>
</event>
<event>
 4    0  0.1264838E-002  0.4637463E+03  0.7546771E-02  0.1023700E+00
          2   -1    0    0  502    0  0.00000000000E+00  0.00000000000E+00  0.27910482352E+04  0.27910482352E+04  0.00000000000E+00 0. -1.
         -2   -1    0    0    0  501 -0.00000000000E+00 -0.00000000000E+00 -0.19263424522E+02  0.19263424522E+02  0.00000000000E+00 0.  1.
         25    1    1    2    0    0 -0.18881880200E+03  0.10284077734E+03  0.15033835517E+04  0.15238162189E+04  0.12500000000E+03 0.  0.
         21    1    1    2  502  501  0.18881880200E+03 -0.10284077734E+03  0.12684012590E+04  0.12864954408E+04  0.00000000000E+00 0. -1.
<mgrwt>
<rscale>  3 0.46374625E+03</rscale>
<asrwt>0</asrwt>
<pdfrwt beam="1">  1        2 0.42939172E+00 0.46374625E+03</pdfrwt>
<pdfrwt beam="2">  1       -2 0.29636060E-02 0.46374625E+03</pdfrwt>
<totfact> 0.11603752E+03</totfact>
</mgrwt>
</event>
<event>
 4    0  0.1264838E-002  0.4966295E+03  0.7546771E-02  0.1014662E+00
          3   -1    0    0  502    0  0.00000000000E+00  0.00000000000E+00  0.16855461542E+03  0.16855461542E+03  0.00000000000E+00 0. -1.
         -3   -1    0    0    0  501 -0.00000000000E+00 -0.00000000000E+00 -0.36581741511E+03  0.36581741511E+03  0.00000000000E+00 0.  1.
         25    1    1    2    0    0 -0.11170477385E+03 -0.20394949243E+03 -0.10990686685E+03  0.28596830479E+03  0.12500000000E+03 0.  0.
         21    1    1    2  502  501  0.11170477385E+03  0.20394949243E+03 -0.87355932835E+02  0.24840372575E+03  0.00000000000E+00 0. -1.
<mgrwt>
<rscale>  3 0.49662949E+03</rscale>
<asrwt>0</asrwt>
<pdfrwt beam="1">  1        3 0.25931480E-01 0.49662949E+03</pdfrwt>
<pdfrwt beam="2">  1       -3 0.56279602E-01 0.49662949E+03</pdfrwt>
<totfact> 0.11534274E+02</totfact>
</mgrwt>
</event>
<event>
 4    0  0.1264838E-002  0.5069810E+03  0.7546771E-02  0.1011973E+00
         -1   -1    0    0    0  501 -0.00000000000E+00  0.00000000000E+00  0.23127559798E+03  0.23127559798E+03  0.00000000000E+00 0.  1.
          1   -1    0    0  502    0  0.00000000000E+00 -0.00000000000E+00 -0.27783919718E+03  0.27783919718E+03  0.00000000000E+00 0. -1.
         25    1    1    2    0    0 -0.16623964318E+03 -0.14738502056E+03 -0.11064018752E+03  0.27789245104E+03  0.12500000000E+03 0.  0.
         21    1    1    2  502  501  0.16623964318E+03  0.14738502056E+03  0.64076588322E+02  0.23122234412E+03  0.00000000000E+00 0. -1.
<mgrwt>
<rscale>  3 0.50698097E+03</rscale>
<asrwt>0</asrwt>
<pdfrwt beam="1">  1        1 0.42744492E-01 0.50698097E+03</pdfrwt>
<pdfrwt beam="2">  1       -1 0.35580861E-01 0.50698097E+03</pdfrwt>
<totfact> 0.73496966E+02</totfact>
</mgrwt>
</event>
<event>
 4    0  0.1264838E-002  0.7026828E+03  0.7546771E-02  0.9712655E-01
         -2   -1    0    0    0  501 -0.00000000000E+00  0.00000000000E+00  0.95159021495E+02  0.95159021495E+02  0.00000000000E+00 0. -1.
          2   -1    0    0  502    0  0.00000000000E+00 -0.00000000000E+00 -0.12972051413E+04  0.12972051413E+04  0.00000000000E+00 0.  1.
         25    1    1    2    0    0  0.32257013137E+03  0.10616816386E+03 -0.57901448422E+03  0.68279275157E+03  0.12500000000E+03 0.  0.
         21    1    1    2  502  501 -0.32257013137E+03 -0.10616816386E+03 -0.62303163554E+03  0.70957141117E+03  0.00000000000E+00 0.  1.
<mgrwt>
<rscale>  3 0.70268278E+03</rscale>
<asrwt>0</asrwt>
<pdfrwt beam="1">  1        2 0.19957001E+00 0.70268278E+03</pdfrwt>
<pdfrwt beam="2">  1       -2 0.14639850E-01 0.70268278E+03</pdfrwt>
<totfact> 0.61237916E+02</totfact>
</mgrwt>
</event>
<event>
 4    0  0.1264838E-002  0.4935078E+03  0.7546771E-02  0.1015488E+00
         -1   -1    0    0    0  501 -0.00000000000E+00  0.00000000000E+00  0.62162821346E+03  0.62162821346E+03  0.00000000000E+00 0. -1.
          1   -1    0    0  502    0  0.00000000000E+00 -0.00000000000E+00 -0.97948390846E+02  0.97948390846E+02  0.00000000000E+00 0.  1.
         25    1    1    2    0    0 -0.18930580514E+03 -0.84417826709E+02  0.42706635642E+03  0.49089075171E+03  0.12500000000E+03 0.  0.
         21    1    1    2  502  501  0.18930580514E+03  0.84417826709E+02  0.96613466194E+02  0.22868585260E+03  0.00000000000E+00 0.  1.
<mgrwt>
<rscale>  3 0.49350778E+03</rscale>
<asrwt>0</asrwt>
<pdfrwt beam="1">  1        1 0.15068984E-01 0.49350778E+03</pdfrwt>
<pdfrwt beam="2">  1       -1 0.95635107E-01 0.49350778E+03</pdfrwt>
<totfact> 0.41082145E+02</totfact>
</mgrwt>
</event>
<event>
 4    0  0.1264838E-002  0.4845779E+03  0.7546771E-02  0.1017885E+00
         -2   -1    0    0    0  501 -0.00000000000E+00  0.00000000000E+00  0.10776691037E+04  0.10776691037E+04  0.00000000000E+00 0.  1.
          2   -1    0    0  502    0  0.00000000000E+00 -0.00000000000E+00 -0.54473069407E+02  0.54473069407E+02  0.00000000000E+00 0. -1.
         25    1    1    2    0    0  0.15083637267E+03  0.16643725752E+03  0.60738376157E+03  0.65953999563E+03  0.12500000000E+03 0.  0.
         21    1    1    2  502  501 -0.15083637267E+03 -0.16643725752E+03  0.41581227272E+03  0.47260217748E+03  0.00000000000E+00 0.  1.
<mgrwt>
<rscale>  3 0.48457794E+03</rscale>
<asrwt>0</asrwt>
<pdfrwt beam="1">  1        2 0.83804730E-02 0.48457794E+03</pdfrwt>
<pdfrwt beam="2">  1       -2 0.16579523E+00 0.48457794E+03</pdfrwt>
<totfact> 0.19449711E+02</totfact>
</mgrwt>
</event>
<event>
 4    0  0.1264838E-002  0.4483265E+03  0.7546771E-02  0.1028222E+00
          2   -1    0    0  502    0  0.00000000000E+00  0.00000000000E+00  0.94299399687E+03  0.94299399687E+03  0.00000000000E+00 0. -1.
         -2   -1    0    0    0  501 -0.00000000000E+00 -0.00000000000E+00 -0.53286839664E+02  0.53286839664E+02  0.00000000000E+00 0.  1.
         25    1    1    2    0    0  0.12346129250E+03  0.16352148462E+03  0.41823891444E+03  0.48221442972E+03  0.12500000000E+03 0.  0.
         21    1    1    2  502  501 -0.12346129250E+03 -0.16352148462E+03  0.47146824276E+03  0.51406640681E+03  0.00000000000E+00 0. -1.
<mgrwt>
<rscale>  3 0.44832653E+03</rscale>
<asrwt>0</asrwt>
<pdfrwt beam="1">  1        2 0.14507599E+00 0.44832653E+03</pdfrwt>
<pdfrwt beam="2">  1       -2 0.81979761E-02 0.44832653E+03</pdfrwt>
<totfact> 0.26013406E+03</totfact>
</mgrwt>
</event>
<event>
 4    0  0.1264838E-002  0.5073988E+03  0.7546771E-02  0.1011866E+00
          2   -1    0    0  502    0  0.00000000000E+00  0.00000000000E+00  0.82547874980E+03  0.82547874980E+03  0.00000000000E+00 0. -1.
         -2   -1    0    0    0  501 -0.00000000000E+00 -0.00000000000E+00 -0.77970986860E+02  0.77970986860E+02  0.00000000000E+00 0.  1.
         25    1    1    2    0    0  0.32614076752E+02 -0.22601545427E+03  0.51774101961E+03  0.57950619234E+03  0.12500000000E+03 0.  0.
         21    1    1    2  502  501 -0.32614076752E+02  0.22601545427E+03  0.22976674333E+03  0.32394354433E+03  0.00000000000E+00 0.  1.
<mgrwt>
<rscale>  3 0.50739883E+03</rscale>
<asrwt>0</asrwt>
<pdfrwt beam="1">  1        2 0.12699672E+00 0.50739883E+03</pdfrwt>
<pdfrwt beam="2">  1       -2 0.11995537E-01 0.50739883E+03</pdfrwt>
<totfact> 0.16872578E+03</totfact>
</mgrwt>
</event>
<event>
 4    0  0.1264838E-002  0.4679762E+03  0.7546771E-02  0.1022493E+00
          2   -1    0    0  502    0  0.00000000000E+00  0.00000000000E+00  0.15673924308E+04  0.15673924308E+04  0.00000000000E+00 0. -1.
         -2   -1    0    0    0  501 -0.00000000000E+00 -0.00000000000E+00 -0.34930899697E+02  0.34930899697E+02  0.00000000000E+00 0.  1.
         25    1    1    2    0    0 -0.18071945398E+03  0.98584562741E+02  0.58273920750E+03  0.63054612918E+03  0.12500000000E+03 0.  0.
         21    1    1    2  502  501  0.18071945398E+03 -0.98584562741E+02  0.94972232361E+03  0.97177720133E+03  0.00000000000E+00 0. -1.
<mgrwt>
<rscale>  3 0.46797619E+03</rscale>
<asrwt>0</asrwt>
<pdfrwt beam="1">  1        2 0.24113724E+00 0.46797619E+03</pdfrwt>
<pdfrwt beam="2">  1       -2 0.53739858E-02 0.46797619E+03</pdfrwt>
<totfact> 0.21910772E+03</totfact>
</mgrwt>
</event>
<event>
 4    0  0.1264838E-002  0.5755907E+03  0.7546771E-02  0.9957383E-01
          1   -1    0    0  502    0  0.00000000000E+00  0.00000000000E+00  0.17983725753E+04  0.17983725753E+04  0.00000000000E+00 0.  1.
         -1   -1    0    0    0  501 -0.00000000000E+00 -0.00000000000E+00 -0.46056174674E+02  0.46056174674E+02  0.00000000000E+00 0. -1.
         25    1    1    2    0    0  0.20989449637E+03 -0.15601730973E+03  0.11817373462E+04  0.12167683658E+04  0.12500000000E+03 0.  0.
         21    1    1    2  502  501 -0.20989449637E+03  0.15601730973E+03  0.57057905436E+03  0.62766038413E+03  0.00000000000E+00 0. -1.
<mgrwt>
<rscale>  3 0.57559069E+03</rscale>
<asrwt>0</asrwt>
<pdfrwt beam="1">  1        1 0.27667265E+00 0.57559069E+03</pdfrwt>
<pdfrwt beam="2">  1       -1 0.70855667E-02 0.57559069E+03</pdfrwt>
<totfact> 0.45882470E+02</totfact>
</mgrwt>
</event>
<event>
 4    0  0.1300105E-002  0.5422992E+03  0.7546771E-02  0.1003292E+00
          2   -1    0    0  502    0  0.00000000000E+00  0.00000000000E+00  0.34622332920E+03  0.34622332920E+03  0.00000000000E+00 0. -1.
         -2   -1    0    0    0  501 -0.00000000000E+00 -0.00000000000E+00 -0.21235456232E+03  0.21235456232E+03  0.00000000000E+00 0.  1.
         25    1    1    2    0    0  0.77774048937E+02  0.19527445059E+03 -0.81367100817E+02  0.25773342592E+03  0.12500000000E+03 0.  0.
         21    1    1    2  502  501 -0.77774048937E+02 -0.19527445059E+03  0.21523586769E+03  0.30084446560E+03  0.00000000000E+00 0. -1.
<mgrwt>
<rscale>  3 0.54229919E+03</rscale>
<asrwt>0</asrwt>
<pdfrwt beam="1">  1        2 0.53265128E-01 0.54229919E+03</pdfrwt>
<pdfrwt beam="2">  1       -2 0.32669933E-01 0.54229919E+03</pdfrwt>
<totfact> 0.82036090E+02</totfact>
</mgrwt>
</event>
<event>
 4    0  0.1264838E-002  0.4863631E+03  0.7546771E-02  0.1017401E+00
          2   -1    0    0  502    0  0.00000000000E+00  0.00000000000E+00  0.25099005852E+03  0.25099005852E+03  0.00000000000E+00 0.  1.
         -2   -1    0    0    0  501 -0.00000000000E+00 -0.00000000000E+00 -0.23561595605E+03  0.23561595605E+03  0.00000000000E+00 0. -1.
         25    1    1    2    0    0 -0.85278964883E+01 -0.22063629709E+03  0.61416167034E+02  0.26105563811E+03  0.12500000000E+03 0.  0.
         21    1    1    2  502  501  0.85278964883E+01  0.22063629709E+03 -0.46042064568E+02  0.22555037647E+03  0.00000000000E+00 0.  1.
<mgrwt>
<rscale>  3 0.48636308E+03</rscale>
<asrwt>0</asrwt>
<pdfrwt beam="1">  1        2 0.38613855E-01 0.48636308E+03</pdfrwt>
<pdfrwt beam="2">  1       -2 0.36248609E-01 0.48636308E+03</pdfrwt>
<totfact> 0.96109458E+02</totfact>
</mgrwt>
</event>
<event>
 4    0  0.1264838E-002  0.5958213E+03  0.7546771E-02  0.9914114E-01
          2   -1    0    0  502    0  0.00000000000E+00  0.00000000000E+00  0.46699736647E+03  0.46699736647E+03  0.00000000000E+00 0.  1.
         -2   -1    0    0    0  501 -0.00000000000E+00 -0.00000000000E+00 -0.19004549280E+03  0.19004549280E+03  0.00000000000E+00 0. -1.
         25    1    1    2    0    0 -0.18875841921E+03  0.21322499771E+03  0.14891689932E+03  0.34481282368E+03  0.12500000000E+03 0.  0.
         21    1    1    2  502  501  0.18875841921E+03 -0.21322499771E+03  0.12803497435E+03  0.31223003559E+03  0.00000000000E+00 0.  1.
<mgrwt>
<rscale>  3 0.59582126E+03</rscale>
<asrwt>0</asrwt>
<pdfrwt beam="1">  1        2 0.71845748E-01 0.59582126E+03</pdfrwt>
<pdfrwt beam="2">  1       -2 0.29237768E-01 0.59582126E+03</pdfrwt>
<totfact> 0.72062787E+02</totfact>
</mgrwt>
</event>
<event>
 4    0  0.1264838E-002  0.4550119E+03  0.7546771E-02  0.1026238E+00
         -2   -1    0    0    0  501 -0.00000000000E+00  0.00000000000E+00  0.19185542926E+03  0.19185542926E+03  0.00000000000E+00 0.  1.
          2   -1    0    0  502    0  0.00000000000E+00 -0.00000000000E+00 -0.26978106765E+03  0.26978106765E+03  0.00000000000E+00 0. -1.
         25    1    1    2    0    0  0.56091183980E+02  0.20255012256E+03 -0.33506726049E+02  0.24682073203E+03  0.12500000000E+03 0.  0.
         21    1    1    2  502  501 -0.56091183980E+02 -0.20255012256E+03 -0.44418912340E+02  0.21481576489E+03  0.00000000000E+00 0. -1.
<mgrwt>
<rscale>  3 0.45501192E+03</rscale>
<asrwt>0</asrwt>
<pdfrwt beam="1">  1        2 0.41504780E-01 0.45501192E+03</pdfrwt>
<pdfrwt beam="2">  1       -2 0.29516220E-01 0.45501192E+03</pdfrwt>
<totfact> 0.13022721E+03</totfact>
</mgrwt>
</event>
<event>
 4    0  0.1264838E-002  0.8416230E+03  0.7546771E-02  0.9501650E-01
         -3   -1    0    0    0  501 -0.00000000000E+00  0.00000000000E+00  0.24960812907E+03  0.24960812907E+03  0.00000000000E+00 0.  1.
          3   -1    0    0  502    0  0.00000000000E+00 -0.00000000000E+00 -0.70944138213E+03  0.70944138213E+03  0.00000000000E+00 0. -1.
         25    1    1    2    0    0  0.14337587047E+03 -0.21831269978E+03 -0.59738366994E+03  0.66385941601E+03  0.12500000000E+03 0.  0.
         21    1    1    2  502  501 -0.14337587047E+03  0.21831269978E+03  0.13755041688E+03  0.29519009519E+03  0.00000000000E+00 0.  1.
<mgrwt>
<rscale>  3 0.84162304E+03</rscale>
<asrwt>0</asrwt>
<pdfrwt beam="1">  1        3 0.10914483E+00 0.84162304E+03</pdfrwt>
<pdfrwt beam="2">  1       -3 0.38401251E-01 0.84162304E+03</pdfrwt>
<totfact> 0.12616865E+01</totfact>
</mgrwt>
</event>
<event>
 4    0  0.1264838E-002  0.5627622E+03  0.7546771E-02  0.9985824E-01
         -1   -1    0    0    0  501 -0.00000000000E+00  0.00000000000E+00  0.13532538020E+04  0.13532538020E+04  0.00000000000E+00 0.  1.
          1   -1    0    0  502    0  0.00000000000E+00 -0.00000000000E+00 -0.58507362722E+02  0.58507362722E+02  0.00000000000E+00 0. -1.
         25    1    1    2    0    0  0.21458998613E+03 -0.15319469635E+03  0.56606088980E+03  0.63684174494E+03  0.12500000000E+03 0.  0.
         21    1    1    2  502  501 -0.21458998613E+03  0.15319469635E+03  0.72868554950E+03  0.77491941981E+03  0.00000000000E+00 0.  1.
<mgrwt>
<rscale>  3 0.56276216E+03</rscale>
<asrwt>0</asrwt>
<pdfrwt beam="1">  1        1 0.90011338E-02 0.56276216E+03</pdfrwt>
<pdfrwt beam="2">  1       -1 0.20819287E+00 0.56276216E+03</pdfrwt>
<totfact> 0.10634402E+02</totfact>
</mgrwt>
</event>
<event>
 4    0  0.1264838E-002  0.5577296E+03  0.7546771E-02  0.9997205E-01
         -2   -1    0    0    0  501 -0.00000000000E+00  0.00000000000E+00  0.18598588806E+03  0.18598588806E+03  0.00000000000E+00 0. -1.
          2   -1    0    0  502    0  0.00000000000E+00 -0.00000000000E+00 -0.41812622977E+03  0.41812622977E+03  0.00000000000E+00 0.  1.
         25    1    1    2    0    0 -0.25476359324E+03  0.18025111996E+02 -0.19787572805E+03  0.34642343578E+03  0.12500000000E+03 0.  0.
         21    1    1    2  502  501  0.25476359324E+03 -0.18025111996E+02 -0.34264613659E+02  0.25768868204E+03  0.00000000000E+00 0.  1.
<mgrwt>
<rscale>  3 0.55772961E+03</rscale>
<asrwt>0</asrwt>
<pdfrwt beam="1">  1        2 0.64327112E-01 0.55772961E+03</pdfrwt>
<pdfrwt beam="2">  1       -2 0.28613214E-01 0.55772961E+03</pdfrwt>
<totfact> 0.84993658E+02</totfact>
</mgrwt>
</event>
<event>
 4    0  0.1264838E-002  0.6238736E+03  0.7546771E-02  0.9857077E-01
          3   -1    0    0  502    0  0.00000000000E+00  0.00000000000E+00  0.30647717058E+03  0.30647717058E+03  0.00000000000E+00 0. -1.
         -3   -1    0    0    0  501 -0.00000000000E+00 -0.00000000000E+00 -0.31749372175E+03  0.31749372175E+03  0.00000000000E+00 0.  1.
         25    1    1    2    0    0  0.35304563696E+02 -0.26948410673E+03 -0.13137062598E+03  0.32672823167E+03  0.12500000000E+03 0.  0.
         21    1    1    2  502  501 -0.35304563696E+02  0.26948410673E+03  0.12035407481E+03  0.29724266067E+03  0.00000000000E+00 0. -1.
<mgrwt>
<rscale>  3 0.62387363E+03</rscale>
<asrwt>0</asrwt>
<pdfrwt beam="1">  1        3 0.47150334E-01 0.62387363E+03</pdfrwt>
<pdfrwt beam="2">  1       -3 0.48845188E-01 0.62387363E+03</pdfrwt>
<totfact> 0.48933932E+01</totfact>
</mgrwt>
</event>
<event>
 4    0  0.1264838E-002  0.4785514E+03  0.7546771E-02  0.1019534E+00
          1   -1    0    0  502    0  0.00000000000E+00  0.00000000000E+00  0.43650739300E+02  0.43650739300E+02  0.00000000000E+00 0.  1.
         -1   -1    0    0    0  501 -0.00000000000E+00 -0.00000000000E+00 -0.13116125723E+04  0.13116125723E+04  0.00000000000E+00 0. -1.
         25    1    1    2    0    0  0.12239783240E+03 -0.17041566526E+03 -0.46372152491E+03  0.52410436080E+03  0.12500000000E+03 0.  0.
         21    1    1    2  502  501 -0.12239783240E+03  0.17041566526E+03 -0.80424030814E+03  0.83115895085E+03  0.00000000000E+00 0. -1.
<mgrwt>
<rscale>  3 0.47855139E+03</rscale>
<asrwt>0</asrwt>
<pdfrwt beam="1">  1        1 0.67154980E-02 0.47855139E+03</pdfrwt>
<pdfrwt beam="2">  1       -1 0.20178656E+00 0.47855139E+03</pdfrwt>
<totfact> 0.17731945E+02</totfact>
</mgrwt>
</event>
<event>
 4    0  0.1264838E-002  0.7293221E+03  0.7546771E-02  0.9668361E-01
         -2   -1    0    0    0  501 -0.00000000000E+00  0.00000000000E+00  0.30943086392E+03  0.30943086392E+03  0.00000000000E+00 0.  1.
          2   -1    0    0  502    0  0.00000000000E+00 -0.00000000000E+00 -0.42974921538E+03  0.42974921538E+03  0.00000000000E+00 0. -1.
         25    1    1    2    0    0 -0.89090092243E+02 -0.20990319601E+03 -0.33629474827E+03  0.42510652070E+03  0.12500000000E+03 0.  0.
         21    1    1    2  502  501  0.89090092243E+02  0.20990319601E+03  0.21597639681E+03  0.31407355860E+03  0.00000000000E+00 0.  1.
<mgrwt>
<rscale>  3 0.72932207E+03</rscale>
<asrwt>0</asrwt>
<pdfrwt beam="1">  1        2 0.66115264E-01 0.72932207E+03</pdfrwt>
<pdfrwt beam="2">  1       -2 0.47604749E-01 0.72932207E+03</pdfrwt>
<totfact> 0.30915285E+02</totfact>
</mgrwt>
</event>
<event>
 4    0  0.1264838E-002  0.5729984E+03  0.7546771E-02  0.9963066E-01
         -1   -1    0    0    0  501 -0.00000000000E+00  0.00000000000E+00  0.61465514156E+03  0.61465514156E+03  0.00000000000E+00 0.  1.
          1   -1    0    0  502    0  0.00000000000E+00 -0.00000000000E+00 -0.13354119542E+03  0.13354119542E+03  0.00000000000E+00 0. -1.
         25    1    1    2    0    0 -0.16812617659E+03  0.16267444103E+03  0.68613411411E+02  0.27397478943E+03  0.12500000000E+03 0.  0.
         21    1    1    2  502  501  0.16812617659E+03 -0.16267444103E+03  0.41250053473E+03  0.47422154756E+03  0.00000000000E+00 0.  1.
<mgrwt>
<rscale>  3 0.57299837E+03</rscale>
<asrwt>0</asrwt>
<pdfrwt beam="1">  1        1 0.20544800E-01 0.57299837E+03</pdfrwt>
<pdfrwt beam="2">  1       -1 0.94562328E-01 0.57299837E+03</pdfrwt>
<totfact> 0.27851513E+02</totfact>
</mgrwt>
</event>
<event>
 4    0  0.1264838E-002  0.6463528E+03  0.7546771E-02  0.9813647E-01
         -2   -1    0    0    0  501 -0.00000000000E+00  0.00000000000E+00  0.50968065280E+02  0.50968065280E+02  0.00000000000E+00 0. -1.
          2   -1    0    0  502    0  0.00000000000E+00 -0.00000000000E+00 -0.20491849619E+04  0.20491849619E+04  0.00000000000E+00 0.  1.
         25    1    1    2    0    0  0.20912577364E+03  0.22280693211E+03 -0.12259392854E+04  0.12696175210E+04  0.12500000000E+03 0.  0.
         21    1    1    2  502  501 -0.20912577364E+03 -0.22280693211E+03 -0.77227761118E+03  0.83053550612E+03  0.00000000000E+00 0. -1.
<mgrwt>
<rscale>  3 0.64635282E+03</rscale>
<asrwt>0</asrwt>
<pdfrwt beam="1">  1        2 0.31525924E+00 0.64635282E+03</pdfrwt>
<pdfrwt beam="2">  1       -2 0.78412404E-02 0.64635282E+03</pdfrwt>
<totfact> 0.65780322E+02</totfact>
</mgrwt>
</event>
<event>
 4    0  0.1264838E-002  0.1091353E+04  0.7546771E-02  0.9213661E-01
         -4   -1    0    0    0  501 -0.00000000000E+00  0.00000000000E+00  0.44396517669E+03  0.44396517669E+03  0.00000000000E+00 0. -1.
          4   -1    0    0  502    0  0.00000000000E+00 -0.00000000000E+00 -0.67069000535E+03  0.67069000535E+03  0.00000000000E+00 0.  1.
         25    1    1    2    0    0 -0.46529668617E+03 -0.18380224286E+03  0.88698039437E+02  0.52323667001E+03  0.12500000000E+03 0.  0.
         21    1    1    2  502  501  0.46529668617E+03  0.18380224286E+03 -0.31542286810E+03  0.59141851202E+03  0.00000000000E+00 0.  1.
<mgrwt>
<rscale>  3 0.10913533E+04</rscale>
<asrwt>0</asrwt>
<pdfrwt beam="1">  1        4 0.10318308E+00 0.10913533E+04</pdfrwt>
<pdfrwt beam="2">  1       -4 0.68302335E-01 0.10913533E+04</pdfrwt>
<totfact> 0.29937260E+00</totfact>
</mgrwt>
</event>
<event>
 4    0  0.1264838E-002  0.4559477E+03  0.7546771E-02  0.1025963E+00
          3   -1    0    0  502    0  0.00000000000E+00  0.00000000000E+00  0.13517728374E+04  0.13517728374E+04  0.00000000000E+00 0.  1.
         -3   -1    0    0    0  501 -0.00000000000E+00 -0.00000000000E+00 -0.38447342730E+02  0.38447342730E+02  0.00000000000E+00 0. -1.
         25    1    1    2    0    0  0.35279533900E+02 -0.20558517523E+03  0.79966280313E+03  0.83582026088E+03  0.12500000000E+03 0.  0.
         21    1    1    2  502  501 -0.35279533900E+02  0.20558517523E+03  0.51366269152E+03  0.55439991923E+03  0.00000000000E+00 0. -1.
<mgrwt>
<rscale>  3 0.45594769E+03</rscale>
<asrwt>0</asrwt>
<pdfrwt beam="1">  1        3 0.20796502E+00 0.45594769E+03</pdfrwt>
<pdfrwt beam="2">  1       -3 0.59149768E-02 0.45594769E+03</pdfrwt>
<totfact> 0.64215305E+01</totfact>
</mgrwt>
</event>
<event>
 4    0  0.1264838E-002  0.5133959E+03  0.7546771E-02  0.1010340E+00
          1   -1    0    0  502    0  0.00000000000E+00  0.00000000000E+00  0.14223160590E+03  0.14223160590E+03  0.00000000000E+00 0. -1.
         -1   -1    0    0    0  501 -0.00000000000E+00 -0.00000000000E+00 -0.46328554827E+03  0.46328554827E+03  0.00000000000E+00 0.  1.
         25    1    1    2    0    0 -0.12360470485E+03 -0.20609144657E+03 -0.19798124603E+03  0.33551956901E+03  0.12500000000E+03 0.  0.
         21    1    1    2  502  501  0.12360470485E+03  0.20609144657E+03 -0.12307269635E+03  0.26999758517E+03  0.00000000000E+00 0.  1.
<mgrwt>
<rscale>  3 0.51339594E+03</rscale>
<asrwt>0</asrwt>
<pdfrwt beam="1">  1        1 0.21881786E-01 0.51339594E+03</pdfrwt>
<pdfrwt beam="2">  1       -1 0.71274700E-01 0.51339594E+03</pdfrwt>
<totfact> 0.46874989E+02</totfact>
</mgrwt>
</event>
<event>
 4    0  0.1264838E-002  0.6572204E+03  0.7546771E-02  0.9793324E-01
          1   -1    0    0  502    0  0.00000000000E+00  0.00000000000E+00  0.63853472322E+03  0.63853472322E+03  0.00000000000E+00 0. -1.
         -1   -1    0    0    0  501 -0.00000000000E+00 -0.00000000000E+00 -0.16911320744E+03  0.16911320744E+03  0.00000000000E+00 0.  1.
         25    1    1    2    0    0 -0.21647026184E+03 -0.15932206964E+03  0.44909186893E+03  0.53809980754E+03  0.12500000000E+03 0.  0.
         21    1    1    2  502  501  0.21647026184E+03  0.15932206964E+03  0.20329646852E+02  0.26954812312E+03  0.00000000000E+00 0.  1.
<mgrwt>
<rscale>  3 0.65722037E+03</rscale>
<asrwt>0</asrwt>
<pdfrwt beam="1">  1        1 0.98236110E-01 0.65722037E+03</pdfrwt>
<pdfrwt beam="2">  1       -1 0.26017417E-01 0.65722037E+03</pdfrwt>
<totfact> 0.41339118E+02</totfact>
</mgrwt>
</event>
<event>
 4    0  0.1264838E-002  0.6229622E+03  0.7546771E-02  0.9858880E-01
          2   -1    0    0  502    0  0.00000000000E+00  0.00000000000E+00  0.53178933929E+03  0.53178933929E+03  0.00000000000E+00 0.  1.
         -2   -1    0    0    0  501 -0.00000000000E+00 -0.00000000000E+00 -0.18244156489E+03  0.18244156489E+03  0.00000000000E+00 0. -1.
         25    1    1    2    0    0 -0.95944354168E+02 -0.28287297426E+03  0.16800528719E+03  0.36479201634E+03  0.12500000000E+03 0.  0.
         21    1    1    2  502  501  0.95944354168E+02  0.28287297426E+03  0.18134248721E+03  0.34943888783E+03  0.00000000000E+00 0. -1.
<mgrwt>
<rscale>  3 0.62296221E+03</rscale>
<asrwt>0</asrwt>
<pdfrwt beam="1">  1        2 0.81813744E-01 0.62296221E+03</pdfrwt>
<pdfrwt beam="2">  1       -2 0.28067933E-01 0.62296221E+03</pdfrwt>
<totfact> 0.66829700E+02</totfact>
</mgrwt>
</event>
<event>
 4    0  0.1264838E-002  0.5571626E+03  0.7546771E-02  0.9998495E-01
         -1   -1    0    0    0  501 -0.00000000000E+00  0.00000000000E+00  0.23074959138E+03  0.23074959138E+03  0.00000000000E+00 0.  1.
          1   -1    0    0  502    0  0.00000000000E+00 -0.00000000000E+00 -0.33632798373E+03  0.33632798373E+03  0.00000000000E+00 0. -1.
         25    1    1    2    0    0 -0.70862018959E+02  0.21085952996E+03 -0.20120256800E+03  0.32494713490E+03  0.12500000000E+03 0.  0.
         21    1    1    2  502  501  0.70862018959E+02 -0.21085952996E+03  0.95624175657E+02  0.24213044021E+03  0.00000000000E+00 0.  1.
<mgrwt>
<rscale>  3 0.55716261E+03</rscale>
<asrwt>0</asrwt>
<pdfrwt beam="1">  1        1 0.51742766E-01 0.55716261E+03</pdfrwt>
<pdfrwt beam="2">  1       -1 0.35499937E-01 0.55716261E+03</pdfrwt>
<totfact> 0.57647993E+02</totfact>
</mgrwt>
</event>
<event>
 4    0  0.1264838E-002  0.7948931E+03  0.7546771E-02  0.9567439E-01
          2   -1    0    0  502    0  0.00000000000E+00  0.00000000000E+00  0.27302508362E+03  0.27302508362E+03  0.00000000000E+00 0.  1.
         -2   -1    0    0    0  501 -0.00000000000E+00 -0.00000000000E+00 -0.57856874063E+03  0.57856874063E+03  0.00000000000E+00 0. -1.
         25    1    1    2    0    0 -0.18842461903E+03  0.11277401014E+03  0.18564976476E+03  0.31354848043E+03  0.12500000000E+03 0.  0.
         21    1    1    2  502  501  0.18842461903E+03 -0.11277401014E+03 -0.49119342177E+03  0.53804534382E+03  0.00000000000E+00 0. -1.
<mgrwt>
<rscale>  3 0.79489315E+03</rscale>
<asrwt>0</asrwt>
<pdfrwt beam="1">  1        2 0.42003859E-01 0.79489315E+03</pdfrwt>
<pdfrwt beam="2">  1       -2 0.89010575E-01 0.79489315E+03</pdfrwt>
<totfact> 0.13321871E+02</totfact>
</mgrwt>
</event>
<event>
 4    0  0.1264838E-002  0.5000325E+03  0.7546771E-02  0.1013770E+00
          2   -1    0    0  502    0  0.00000000000E+00  0.00000000000E+00  0.37590820127E+02  0.37590820127E+02  0.00000000000E+00 0. -1.
         -2   -1    0    0    0  501 -0.00000000000E+00 -0.00000000000E+00 -0.16628563635E+04  0.16628563635E+04  0.00000000000E+00 0.  1.
         25    1    1    2    0    0 -0.14794309006E+03  0.15444625578E+03 -0.11895780125E+04  0.12150973836E+04  0.12500000000E+03 0.  0.
         21    1    1    2  502  501  0.14794309006E+03 -0.15444625578E+03 -0.43568753085E+03  0.48534980000E+03  0.00000000000E+00 0. -1.
<mgrwt>
<rscale>  3 0.50003254E+03</rscale>
<asrwt>0</asrwt>
<pdfrwt beam="1">  1        2 0.57832032E-02 0.50003254E+03</pdfrwt>
<pdfrwt beam="2">  1       -2 0.25582405E+00 0.50003254E+03</pdfrwt>
<totfact> 0.84322552E+01</totfact>
</mgrwt>
</event>
<event>
 4    0  0.1264838E-002  0.4648303E+03  0.7546771E-02  0.1023390E+00
          3   -1    0    0  502    0  0.00000000000E+00  0.00000000000E+00  0.17201758276E+03  0.17201758276E+03  0.00000000000E+00 0.  1.
         -3   -1    0    0    0  501 -0.00000000000E+00 -0.00000000000E+00 -0.31401906813E+03  0.31401906813E+03  0.00000000000E+00 0. -1.
         25    1    1    2    0    0 -0.18847303197E+03  0.88576827153E+02 -0.17740753274E+02  0.24353166615E+03  0.12500000000E+03 0.  0.
         21    1    1    2  502  501  0.18847303197E+03 -0.88576827153E+02 -0.12426073209E+03  0.24250498475E+03  0.00000000000E+00 0. -1.
<mgrwt>
<rscale>  3 0.46483030E+03</rscale>
<asrwt>0</asrwt>
<pdfrwt beam="1">  1        3 0.26464244E-01 0.46483030E+03</pdfrwt>
<pdfrwt beam="2">  1       -3 0.48310625E-01 0.46483030E+03</pdfrwt>
<totfact> 0.15145141E+02</totfact>
</mgrwt>
</event>
<event>
 4    0  0.1264838E-002  0.5282440E+03  0.7546771E-02  0.1006659E+00
         -2   -1    0    0    0  501 -0.00000000000E+00  0.00000000000E+00  0.28395815676E+02  0.28395815676E+02  0.00000000000E+00 0.  1.
          2   -1    0    0  502    0  0.00000000000E+00 -0.00000000000E+00 -0.24567155619E+04  0.24567155619E+04  0.00000000000E+00 0. -1.
         25    1    1    2    0    0 -0.20700840233E+03 -0.13787804093E+03 -0.12001431516E+04  0.12320030102E+04  0.12500000000E+03 0.  0.
         21    1    1    2  502  501  0.20700840233E+03  0.13787804093E+03 -0.12281765947E+04  0.12531083674E+04  0.00000000000E+00 0.  1.
<mgrwt>
<rscale>  3 0.52824404E+03</rscale>
<asrwt>0</asrwt>
<pdfrwt beam="1">  1        2 0.37795622E+00 0.52824404E+03</pdfrwt>
<pdfrwt beam="2">  1       -2 0.43685873E-02 0.52824404E+03</pdfrwt>
<totfact> 0.98968567E+02</totfact>
</mgrwt>
</event>
<event>
 4    0  0.1264838E-002  0.4404015E+03  0.7546771E-02  0.1030624E+00
         -2   -1    0    0    0  501 -0.00000000000E+00  0.00000000000E+00  0.22594897680E+03  0.22594897680E+03  0.00000000000E+00 0. -1.
          2   -1    0    0  502    0  0.00000000000E+00 -0.00000000000E+00 -0.21459876482E+03  0.21459876482E+03  0.00000000000E+00 0.  1.
         25    1    1    2    0    0  0.16085303799E+02 -0.20101613916E+03  0.24147600806E+02  0.23848339948E+03  0.12500000000E+03 0.  0.
         21    1    1    2  502  501 -0.16085303799E+02  0.20101613916E+03 -0.12797388831E+02  0.20206434214E+03  0.00000000000E+00 0.  1.
<mgrwt>
<rscale>  3 0.44040150E+03</rscale>
<asrwt>0</asrwt>
<pdfrwt beam="1">  1        2 0.33015195E-01 0.44040150E+03</pdfrwt>
<pdfrwt beam="2">  1       -2 0.34761381E-01 0.44040150E+03</pdfrwt>
<totfact> 0.12363590E+03</totfact>
</mgrwt>
</event>
<event>
 4    0  0.1432210E-002  0.6597535E+03  0.7546771E-02  0.9788648E-01
          1   -1    0    0  502    0  0.00000000000E+00  0.00000000000E+00  0.94985411849E+03  0.94985411849E+03  0.00000000000E+00 0.  1.
         -1   -1    0    0    0  501 -0.00000000000E+00 -0.00000000000E+00 -0.11456356485E+03  0.11456356485E+03  0.00000000000E+00 0. -1.
         25    1    1    2    0    0 -0.10317501521E+03 -0.21112675013E+03  0.86886391743E+02  0.27998898810E+03  0.12500000000E+03 0.  0.
         21    1    1    2  502  501  0.10317501521E+03  0.21112675013E+03  0.74840416190E+03  0.78442869525E+03  0.00000000000E+00 0.  1.
<mgrwt>
<rscale>  3 0.65975351E+03</rscale>
<asrwt>0</asrwt>
<pdfrwt beam="1">  1        1 0.14613140E+00 0.65975351E+03</pdfrwt>
<pdfrwt beam="2">  1       -1 0.17625164E-01 0.65975351E+03</pdfrwt>
<totfact> 0.42385846E+02</totfact>
</mgrwt>
</event>
<event>
 4    0  0.1264838E-002  0.4406614E+03  0.7546771E-02  0.1030544E+00
         -2   -1    0    0    0  501 -0.00000000000E+00  0.00000000000E+00  0.62817125097E+02  0.62817125097E+02  0.00000000000E+00 0.  1.
          2   -1    0    0  502    0  0.00000000000E+00 -0.00000000000E+00 -0.77280878783E+03  0.77280878783E+03  0.00000000000E+00 0. -1.
         25    1    1    2    0    0  0.16971998749E+03 -0.10877542008E+03 -0.42198030004E+03  0.48407575832E+03  0.12500000000E+03 0.  0.
         21    1    1    2  502  501 -0.16971998749E+03  0.10877542008E+03 -0.28801136269E+03  0.35155015461E+03  0.00000000000E+00 0.  1.
<mgrwt>
<rscale>  3 0.44066144E+03</rscale>
<asrwt>0</asrwt>
<pdfrwt beam="1">  1        2 0.11889366E+00 0.44066144E+03</pdfrwt>
<pdfrwt beam="2">  1       -2 0.96641734E-02 0.44066144E+03</pdfrwt>
<totfact> 0.26103948E+03</totfact>
</mgrwt>
</event>
<event>
 4    0  0.1465108E-002  0.6019473E+03  0.7546771E-02  0.9901374E-01
         -2   -1    0    0    0  501 -0.00000000000E+00  0.00000000000E+00  0.48130105736E+02  0.48130105736E+02  0.00000000000E+00 0.  1.
          2   -1    0    0  502    0  0.00000000000E+00 -0.00000000000E+00 -0.18820889601E+04  0.18820889601E+04  0.00000000000E+00 0. -1.
         25    1    1    2    0    0 -0.91013806033E+01 -0.22734968939E+03 -0.39038795972E+03  0.46882670091E+03  0.12500000000E+03 0.  0.
         21    1    1    2  502  501  0.91013806033E+01  0.22734968939E+03 -0.14435708946E+04  0.14613923649E+04  0.00000000000E+00 0. -1.
<mgrwt>
<rscale>  3 0.60194731E+03</rscale>
<asrwt>0</asrwt>
<pdfrwt beam="1">  1        2 0.28955217E+00 0.60194731E+03</pdfrwt>
<pdfrwt beam="2">  1       -2 0.74046312E-02 0.60194731E+03</pdfrwt>
<totfact> 0.89032559E+02</totfact>
</mgrwt>
</event>
<event>
 4    0  0.1264838E-002  0.6049743E+03  0.7546771E-02  0.9895139E-01
          2   -1    0    0  502    0  0.00000000000E+00  0.00000000000E+00  0.10022516608E+04  0.10022516608E+04  0.00000000000E+00 0.  1.
         -2   -1    0    0    0  501 -0.00000000000E+00 -0.00000000000E+00 -0.91292910875E+02  0.91292910875E+02  0.00000000000E+00 0. -1.
         25    1    1    2    0    0  0.16538365758E+03 -0.18412328948E+03  0.74666240381E+03  0.79648156614E+03  0.12500000000E+03 0.  0.
         21    1    1    2  502  501 -0.16538365758E+03  0.18412328948E+03  0.16429634615E+03  0.29706300557E+03  0.00000000000E+00 0. -1.
<mgrwt>
<rscale>  3 0.60497429E+03</rscale>
<asrwt>0</asrwt>
<pdfrwt beam="1">  1        2 0.15419256E+00 0.60497429E+03</pdfrwt>
<pdfrwt beam="2">  1       -2 0.14045064E-01 0.60497429E+03</pdfrwt>
<totfact> 0.99069115E+02</totfact>
</mgrwt>
</event>
<event>
 4    0  0.1264838E-002  0.5561086E+03  0.7546771E-02  0.1000090E+00
         -1   -1    0    0    0  501 -0.00000000000E+00  0.00000000000E+00  0.14366292660E+03  0.14366292660E+03  0.00000000000E+00 0. -1.
          1   -1    0    0  502    0  0.00000000000E+00 -0.00000000000E+00 -0.53816385458E+03  0.53816385458E+03  0.00000000000E+00 0.  1.
         25    1    1    2    0    0  0.13954678051E+03  0.22407504502E+03 -0.20229297092E+03  0.35528914398E+03  0.12500000000E+03 0.  0.
         21    1    1    2  502  501 -0.13954678051E+03 -0.22407504502E+03 -0.19220795706E+03  0.32653763720E+03  0.00000000000E+00 0. -1.
<mgrwt>
<rscale>  3 0.55610860E+03</rscale>
<asrwt>0</asrwt>
<pdfrwt beam="1">  1        1 0.82794438E-01 0.55610860E+03</pdfrwt>
<pdfrwt beam="2">  1       -1 0.22101989E-01 0.55610860E+03</pdfrwt>
<totfact> 0.69673252E+02</totfact>
</mgrwt>
</event>
<event>
 4    0  0.1328783E-002  0.5085557E+03  0.7546771E-02  0.1011570E+00
          2   -1    0    0  502    0  0.00000000000E+00  0.00000000000E+00  0.99218698075E+03  0.99218698075E+03  0.00000000000E+00 0.  1.
         -2   -1    0    0    0  501 -0.00000000000E+00 -0.00000000000E+00 -0.65166368051E+02  0.65166368051E+02  0.00000000000E+00 0. -1.
         25    1    1    2    0    0  0.12608022149E+03 -0.17043626818E+03  0.26246915789E+03  0.35980522871E+03  0.12500000000E+03 0.  0.
         21    1    1    2  502  501 -0.12608022149E+03  0.17043626818E+03  0.66455145481E+03  0.69754812010E+03  0.00000000000E+00 0.  1.
<mgrwt>
<rscale>  3 0.50855569E+03</rscale>
<asrwt>0</asrwt>
<pdfrwt beam="1">  1        2 0.15264414E+00 0.50855569E+03</pdfrwt>
<pdfrwt beam="2">  1       -2 0.10025596E-01 0.50855569E+03</pdfrwt>
<totfact> 0.17530408E+03</totfact>
</mgrwt>
</event>
<event>
 4    0  0.1264838E-002  0.5829498E+03  0.7546771E-02  0.9941425E-01
          2   -1    0    0  502    0  0.00000000000E+00  0.00000000000E+00  0.44713001594E+03  0.44713001594E+03  0.00000000000E+00 0.  1.
         -2   -1    0    0    0  501 -0.00000000000E+00 -0.00000000000E+00 -0.19000649806E+03  0.19000649806E+03  0.00000000000E+00 0. -1.
         25    1    1    2    0    0 -0.23884602839E+03 -0.27824051021E+02  0.28710758281E+03  0.39481307881E+03  0.12500000000E+03 0.  0.
         21    1    1    2  502  501  0.23884602839E+03  0.27824051021E+02 -0.29984064928E+02  0.24232343519E+03  0.00000000000E+00 0. -1.
<mgrwt>
<rscale>  3 0.58294977E+03</rscale>
<asrwt>0</asrwt>
<pdfrwt beam="1">  1        2 0.68789233E-01 0.58294977E+03</pdfrwt>
<pdfrwt beam="2">  1       -2 0.29231769E-01 0.58294977E+03</pdfrwt>
<totfact> 0.75753059E+02</totfact>
</mgrwt>
</event>
<event>
 4    0  0.1396631E-002  0.5436635E+03  0.7546771E-02  0.1002971E+00
         -1   -1    0    0    0  501 -0.00000000000E+00  0.00000000000E+00  0.72280682842E+02  0.72280682842E+02  0.00000000000E+00 0. -1.
          1   -1    0    0  502    0  0.00000000000E+00 -0.00000000000E+00 -0.10222996047E+04  0.10222996047E+04  0.00000000000E+00 0.  1.
         25    1    1    2    0    0  0.17959029864E+03  0.12804368941E+03 -0.23272729732E+03  0.34414365704E+03  0.12500000000E+03 0.  0.
         21    1    1    2  502  501 -0.17959029864E+03 -0.12804368941E+03 -0.71729162459E+03  0.75043663055E+03  0.00000000000E+00 0.  1.
<mgrwt>
<rscale>  3 0.54366355E+03</rscale>
<asrwt>0</asrwt>
<pdfrwt beam="1">  1        1 0.15727685E+00 0.54366355E+03</pdfrwt>
<pdfrwt beam="2">  1       -1 0.11120106E-01 0.54366355E+03</pdfrwt>
<totfact> 0.78665819E+02</totfact>
</mgrwt>
</event>
<event>
 4    0  0.1264838E-002  0.6514958E+03  0.7546771E-02  0.9803977E-01
          2   -1    0    0  502    0  0.00000000000E+00  0.00000000000E+00  0.70289944283E+03  0.70289944283E+03  0.00000000000E+00 0. -1.
         -2   -1    0    0    0  501 -0.00000000000E+00 -0.00000000000E+00 -0.15096281951E+03  0.15096281951E+03  0.00000000000E+00 0.  1.
         25    1    1    2    0    0 -0.14654085054E+03 -0.23572769889E+03  0.94395073712E+02  0.31871178021E+03  0.12500000000E+03 0.  0.
         21    1    1    2  502  501  0.14654085054E+03  0.23572769889E+03  0.45754154961E+03  0.53515048213E+03  0.00000000000E+00 0. -1.
<mgrwt>
<rscale>  3 0.65149576E+03</rscale>
<asrwt>0</asrwt>
<pdfrwt beam="1">  1        2 0.10813837E+00 0.65149576E+03</pdfrwt>
<pdfrwt beam="2">  1       -2 0.23225049E-01 0.65149576E+03</pdfrwt>
<totfact> 0.67092756E+02</totfact>
</mgrwt>
</event>
<event>
 4    0  0.1264838E-002  0.8928525E+03  0.7546771E-02  0.9434561E-01
          2   -1    0    0  502    0  0.00000000000E+00  0.00000000000E+00  0.33816241492E+03  0.33816241492E+03  0.00000000000E+00 0. -1.
         -2   -1    0    0    0  501 -0.00000000000E+00 -0.00000000000E+00 -0.58935111085E+03  0.58935111085E+03  0.00000000000E+00 0.  1.
         25    1    1    2    0    0 -0.14978093219E+03 -0.27610663009E+03  0.18855640642E+03  0.38710168849E+03  0.12500000000E+03 0.  0.
         21    1    1    2  502  501  0.14978093219E+03  0.27610663009E+03 -0.43974510235E+03  0.54041183728E+03  0.00000000000E+00 0.  1.
<mgrwt>
<rscale>  3 0.89285250E+03</rscale>
<asrwt>0</asrwt>
<pdfrwt beam="1">  1        2 0.52024988E-01 0.89285250E+03</pdfrwt>
<pdfrwt beam="2">  1       -2 0.90669400E-01 0.89285250E+03</pdfrwt>
<totfact> 0.10017033E+02</totfact>
</mgrwt>
</event>
<event>
 4    0  0.1264838E-002  0.7209868E+03  0.7546771E-02  0.9682000E-01
         -1   -1    0    0    0  501 -0.00000000000E+00  0.00000000000E+00  0.53079676459E+03  0.53079676459E+03  0.00000000000E+00 0. -1.
          1   -1    0    0  502    0  0.00000000000E+00 -0.00000000000E+00 -0.24483099188E+03  0.24483099188E+03  0.00000000000E+00 0.  1.
         25    1    1    2    0    0  0.32286235703E+03  0.12673510671E+03  0.19488988467E+03  0.41702392737E+03  0.12500000000E+03 0.  0.
         21    1    1    2  502  501 -0.32286235703E+03 -0.12673510671E+03  0.91075888048E+02  0.35860382909E+03  0.00000000000E+00 0.  1.
<mgrwt>
<rscale>  3 0.72098682E+03</rscale>
<asrwt>0</asrwt>
<pdfrwt beam="1">  1        1 0.37666307E-01 0.72098682E+03</pdfrwt>
<pdfrwt beam="2">  1       -1 0.81661040E-01 0.72098682E+03</pdfrwt>
<totfact> 0.17309234E+02</totfact>
</mgrwt>
</event>
<event>
 4    0  0.1264838E-002  0.4884189E+03  0.7546771E-02  0.1016847E+00
          1   -1    0    0  502    0  0.00000000000E+00  0.00000000000E+00  0.24121495630E+04  0.24121495630E+04  0.00000000000E+00 0.  1.
         -1   -1    0    0    0  501 -0.00000000000E+00 -0.00000000000E+00 -0.24724112895E+02  0.24724112895E+02  0.00000000000E+00 0. -1.
         25    1    1    2    0    0  0.21652950788E+03 -0.26921102092E+02  0.16055440736E+04  0.16251173944E+04  0.12500000000E+03 0.  0.
         21    1    1    2  502  501 -0.21652950788E+03  0.26921102092E+02  0.78188137656E+03  0.81175628148E+03  0.00000000000E+00 0.  1.
<mgrwt>
<rscale>  3 0.48841891E+03</rscale>
<asrwt>0</asrwt>
<pdfrwt beam="1">  1        1 0.37109975E+00 0.48841891E+03</pdfrwt>
<pdfrwt beam="2">  1       -1 0.38037116E-02 0.48841891E+03</pdfrwt>
<totfact> 0.46731322E+02</totfact>
</mgrwt>
</event>
<event>
 4    0  0.1264838E-002  0.4640239E+03  0.7546771E-02  0.1023621E+00
         -2   -1    0    0    0  501 -0.00000000000E+00  0.00000000000E+00  0.13758819963E+02  0.13758819963E+02  0.00000000000E+00 0. -1.
          2   -1    0    0  502    0  0.00000000000E+00 -0.00000000000E+00 -0.39123666817E+04  0.39123666817E+04  0.00000000000E+00 0.  1.
         25    1    1    2    0    0 -0.11196738361E+02 -0.20237449743E+03 -0.27020486751E+04  0.27125214924E+04  0.12500000000E+03 0.  0.
         21    1    1    2  502  501  0.11196738361E+02  0.20237449743E+03 -0.11965591867E+04  0.12136040093E+04  0.00000000000E+00 0. -1.
<mgrwt>
<rscale>  3 0.46402392E+03</rscale>
<asrwt>0</asrwt>
<pdfrwt beam="1">  1        2 0.60190289E+00 0.46402392E+03</pdfrwt>
<pdfrwt beam="2">  1       -2 0.21167404E-02 0.46402392E+03</pdfrwt>
<totfact> 0.35380699E+02</totfact>
</mgrwt>
</event>
<event>
 4    0  0.1264838E-002  0.6464210E+03  0.7546771E-02  0.9813518E-01
          2   -1    0    0  502    0  0.00000000000E+00  0.00000000000E+00  0.91447547350E+03  0.91447547350E+03  0.00000000000E+00 0.  1.
         -2   -1    0    0    0  501 -0.00000000000E+00 -0.00000000000E+00 -0.11423491892E+03  0.11423491892E+03  0.00000000000E+00 0. -1.
         25    1    1    2    0    0  0.21147977734E+03  0.21450234124E+03  0.29116101698E+03  0.43718953376E+03  0.12500000000E+03 0.  0.
         21    1    1    2  502  501 -0.21147977734E+03 -0.21450234124E+03  0.50907953761E+03  0.59152085866E+03  0.00000000000E+00 0.  1.
<mgrwt>
<rscale>  3 0.64642101E+03</rscale>
<asrwt>0</asrwt>
<pdfrwt beam="1">  1        2 0.14068853E+00 0.64642101E+03</pdfrwt>
<pdfrwt beam="2">  1       -2 0.17574603E-01 0.64642101E+03</pdfrwt>
<totfact> 0.77135916E+02</totfact>
</mgrwt>
</event>
<event>
 4    0  0.1264838E-002  0.4642234E+03  0.7546771E-02  0.1023563E+00
         -1   -1    0    0    0  501 -0.00000000000E+00  0.00000000000E+00  0.39869469620E+02  0.39869469620E+02  0.00000000000E+00 0.  1.
          1   -1    0    0  502    0  0.00000000000E+00 -0.00000000000E+00 -0.13513054371E+04  0.13513054371E+04  0.00000000000E+00 0. -1.
         25    1    1    2    0    0  0.86787739536E+02 -0.18459214474E+03 -0.90958577425E+03  0.94051988408E+03  0.12500000000E+03 0.  0.
         21    1    1    2  502  501 -0.86787739536E+02  0.18459214474E+03 -0.40185019325E+03  0.45065502266E+03  0.00000000000E+00 0. -1.
<mgrwt>
<rscale>  3 0.46422336E+03</rscale>
<asrwt>0</asrwt>
<pdfrwt beam="1">  1        1 0.20789313E+00 0.46422336E+03</pdfrwt>
<pdfrwt beam="2">  1       -1 0.61337650E-02 0.46422336E+03</pdfrwt>
<totfact> 0.11546162E+03</totfact>
</mgrwt>
</event>
<event>
 4    0  0.1264838E-002  0.6959628E+03  0.7546771E-02  0.9724161E-01
          2   -1    0    0  502    0  0.00000000000E+00  0.00000000000E+00  0.43360644382E+03  0.43360644382E+03  0.00000000000E+00 0.  1.
         -2   -1    0    0    0  501 -0.00000000000E+00 -0.00000000000E+00 -0.27926489534E+03  0.27926489534E+03  0.00000000000E+00 0. -1.
         25    1    1    2    0    0 -0.24493658911E+03  0.18296653452E+03  0.22427778622E+03  0.39924455015E+03  0.12500000000E+03 0.  0.
         21    1    1    2  502  501  0.24493658911E+03 -0.18296653452E+03 -0.69936237736E+02  0.31362678901E+03  0.00000000000E+00 0. -1.
<mgrwt>
<rscale>  3 0.69596281E+03</rscale>
<asrwt>0</asrwt>
<pdfrwt beam="1">  1        2 0.66708683E-01 0.69596281E+03</pdfrwt>
<pdfrwt beam="2">  1       -2 0.42963830E-01 0.69596281E+03</pdfrwt>
<totfact> 0.37584593E+02</totfact>
</mgrwt>
</event>
<event>
 4    0  0.1264838E-002  0.6610869E+03  0.7546771E-02  0.9786195E-01
          2   -1    0    0  502    0  0.00000000000E+00  0.00000000000E+00  0.22438119084E+04  0.22438119084E+04  0.00000000000E+00 0. -1.
         -2   -1    0    0    0  501 -0.00000000000E+00 -0.00000000000E+00 -0.48693459897E+02  0.48693459897E+02  0.00000000000E+00 0.  1.
         25    1    1    2    0    0  0.18188342139E+03  0.26171829681E+03  0.11269443037E+04  0.11777973126E+04  0.12500000000E+03 0.  0.
         21    1    1    2  502  501 -0.18188342139E+03 -0.26171829681E+03  0.10681741447E+04  0.11147080556E+04  0.00000000000E+00 0.  1.
<mgrwt>
<rscale>  3 0.66108688E+03</rscale>
<asrwt>0</asrwt>
<pdfrwt beam="1">  1        2 0.34520175E+00 0.66108688E+03</pdfrwt>
<pdfrwt beam="2">  1       -2 0.74913033E-02 0.66108688E+03</pdfrwt>
<totfact> 0.55298773E+02</totfact>
</mgrwt>
</event>
<event>
 4    0  0.1264838E-002  0.7438403E+03  0.7546771E-02  0.9645064E-01
         -2   -1    0    0    0  501 -0.00000000000E+00  0.00000000000E+00  0.33333957948E+03  0.33333957948E+03  0.00000000000E+00 0.  1.
          2   -1    0    0  502    0  0.00000000000E+00 -0.00000000000E+00 -0.41496604478E+03  0.41496604478E+03  0.00000000000E+00 0. -1.
         25    1    1    2    0    0 -0.12132169705E+03 -0.33965470655E+03 -0.18628588308E+02  0.38217312590E+03  0.12500000000E+03 0.  0.
         21    1    1    2  502  501  0.12132169705E+03  0.33965470655E+03 -0.62997876994E+02  0.36613249837E+03  0.00000000000E+00 0. -1.
<mgrwt>
<rscale>  3 0.74384032E+03</rscale>
<asrwt>0</asrwt>
<pdfrwt beam="1">  1        2 0.63840930E-01 0.74384032E+03</pdfrwt>
<pdfrwt beam="2">  1       -2 0.51283013E-01 0.74384032E+03</pdfrwt>
<totfact> 0.27642598E+02</totfact>
</mgrwt>
</event>
<event>
 4    0  0.1264838E-002  0.4473331E+03  0.7546771E-02  0.1028520E+00
         -2   -1    0    0    0  501 -0.00000000000E+00  0.00000000000E+00  0.20912569359E+02  0.20912569359E+02  0.00000000000E+00 0. -1.
          2   -1    0    0  502    0  0.00000000000E+00 -0.00000000000E+00 -0.23921846645E+04  0.23921846645E+04  0.00000000000E+00 0.  1.
         25    1    1    2    0    0 -0.20324013144E+03  0.34717841530E+02 -0.12635788172E+04  0.12863779798E+04  0.12500000000E+03 0.  0.
         21    1    1    2  502  501  0.20324013144E+03 -0.34717841530E+02 -0.11076932779E+04  0.11267192541E+04  0.00000000000E+00 0. -1.
<mgrwt>
<rscale>  3 0.44733311E+03</rscale>
<asrwt>0</asrwt>
<pdfrwt beam="1">  1        2 0.36802844E+00 0.44733311E+03</pdfrwt>
<pdfrwt beam="2">  1       -2 0.32173181E-02 0.44733311E+03</pdfrwt>
<totfact> 0.17245487E+03</totfact>
</mgrwt>
</event>
<event>
 4    0  0.1264838E-002  0.5680977E+03  0.7546771E-02  0.9973897E-01
          1   -1    0    0  502    0  0.00000000000E+00  0.00000000000E+00  0.60690410236E+03  0.60690410236E+03  0.00000000000E+00 0.  1.
         -1   -1    0    0    0  501 -0.00000000000E+00 -0.00000000000E+00 -0.13294314204E+03  0.13294314204E+03  0.00000000000E+00 0. -1.
         25    1    1    2    0    0  0.15333906270E+03 -0.19309480411E+03  0.39266449975E+03  0.48021753496E+03  0.12500000000E+03 0.  0.
         21    1    1    2  502  501 -0.15333906270E+03  0.19309480411E+03  0.81296460569E+02  0.25962970944E+03  0.00000000000E+00 0. -1.
<mgrwt>
<rscale>  3 0.56809766E+03</rscale>
<asrwt>0</asrwt>
<pdfrwt beam="1">  1        1 0.93369860E-01 0.56809766E+03</pdfrwt>
<pdfrwt beam="2">  1       -1 0.20452791E-01 0.56809766E+03</pdfrwt>
<totfact> 0.66923046E+02</totfact>
</mgrwt>
</event>
<event>
 4    0  0.1264838E-002  0.5370554E+03  0.7546771E-02  0.1004535E+00
          2   -1    0    0  502    0  0.00000000000E+00  0.00000000000E+00  0.30056804291E+03  0.30056804291E+03  0.00000000000E+00 0.  1.
         -2   -1    0    0    0  501 -0.00000000000E+00 -0.00000000000E+00 -0.23990283482E+03  0.23990283482E+03  0.00000000000E+00 0. -1.
         25    1    1    2    0    0  0.20668812561E+03 -0.12025049400E+03  0.11811264385E+03  0.29454330617E+03  0.12500000000E+03 0.  0.
         21    1    1    2  502  501 -0.20668812561E+03  0.12025049400E+03 -0.57447435760E+02  0.24592757155E+03  0.00000000000E+00 0. -1.
<mgrwt>
<rscale>  3 0.53705540E+03</rscale>
<asrwt>0</asrwt>
<pdfrwt beam="1">  1        2 0.46241237E-01 0.53705540E+03</pdfrwt>
<pdfrwt beam="2">  1       -2 0.36908128E-01 0.53705540E+03</pdfrwt>
<totfact> 0.76143509E+02</totfact>
</mgrwt>
</event>
<event>
 4    0  0.1264838E-002  0.4544464E+03  0.7546771E-02  0.1026404E+00
          2   -1    0    0  502    0  0.00000000000E+00  0.00000000000E+00  0.73467642334E+03  0.73467642334E+03  0.00000000000E+00 0.  1.
         -2   -1    0    0    0  501 -0.00000000000E+00 -0.00000000000E+00 -0.70276358997E+02  0.70276358997E+02  0.00000000000E+00 0. -1.
         25    1    1    2    0    0  0.19461012614E+03  0.73241535421E+02  0.40975875376E+03  0.47619813102E+03  0.12500000000E+03 0.  0.
         21    1    1    2  502  501 -0.19461012614E+03 -0.73241535421E+02  0.25464131058E+03  0.32875465131E+03  0.00000000000E+00 0.  1.
<mgrwt>
<rscale>  3 0.45444641E+03</rscale>
<asrwt>0</asrwt>
<pdfrwt beam="1">  1        2 0.11302714E+00 0.45444641E+03</pdfrwt>
<pdfrwt beam="2">  1       -2 0.10811748E-01 0.45444641E+03</pdfrwt>
<totfact> 0.23231389E+03</totfact>
</mgrwt>
</event>
<event>
 4    0  0.1504385E-002  0.6458537E+03  0.7546771E-02  0.9814591E-01
          3   -1    0    0  502    0  0.00000000000E+00  0.00000000000E+00  0.28830549143E+03  0.28830549143E+03  0.00000000000E+00 0.  1.
         -3   -1    0    0    0  501 -0.00000000000E+00 -0.00000000000E+00 -0.36170577976E+03  0.36170577976E+03  0.00000000000E+00 0. -1.
         25    1    1    2    0    0 -0.21198933705E+03 -0.27453705388E+02 -0.26518743584E+03  0.36282579992E+03  0.12500000000E+03 0.  0.
         21    1    1    2  502  501  0.21198933705E+03  0.27453705388E+02  0.19178714750E+03  0.28718547127E+03  0.00000000000E+00 0.  1.
<mgrwt>
<rscale>  3 0.64585374E+03</rscale>
<asrwt>0</asrwt>
<pdfrwt beam="1">  1        3 0.44354691E-01 0.64585374E+03</pdfrwt>
<pdfrwt beam="2">  1       -3 0.55647043E-01 0.64585374E+03</pdfrwt>
<totfact> 0.42338330E+01</totfact>
</mgrwt>
</event>
<event>
 4    0  0.1264838E-002  0.8015996E+03  0.7546771E-02  0.9557705E-01
         -2   -1    0    0    0  501 -0.00000000000E+00  0.00000000000E+00  0.18026694365E+03  0.18026694365E+03  0.00000000000E+00 0.  1.
          2   -1    0    0  502    0  0.00000000000E+00 -0.00000000000E+00 -0.89112553702E+03  0.89112553702E+03  0.00000000000E+00 0. -1.
         25    1    1    2    0    0  0.17047479696E+03 -0.35193848519E+03 -0.36511641465E+03  0.54941546211E+03  0.12500000000E+03 0.  0.
         21    1    1    2  502  501 -0.17047479696E+03  0.35193848519E+03 -0.34574217872E+03  0.52197701856E+03  0.00000000000E+00 0.  1.
<mgrwt>
<rscale>  3 0.80159959E+03</rscale>
<asrwt>0</asrwt>
<pdfrwt beam="1">  1        2 0.13709624E+00 0.80159959E+03</pdfrwt>
<pdfrwt beam="2">  1       -2 0.27733376E-01 0.80159959E+03</pdfrwt>
<totfact> 0.35415019E+02</totfact>
</mgrwt>
</event>
<event>
 4    0  0.1264838E-002  0.6805704E+03  0.7546771E-02  0.9751049E-01
          2   -1    0    0  502    0  0.00000000000E+00  0.00000000000E+00  0.16711222651E+04  0.16711222651E+04  0.00000000000E+00 0. -1.
         -2   -1    0    0    0  501 -0.00000000000E+00 -0.00000000000E+00 -0.69291160223E+02  0.69291160223E+02  0.00000000000E+00 0.  1.
         25    1    1    2    0    0 -0.22787641773E+03 -0.19724965718E+03  0.11640804340E+04  0.12089430697E+04  0.12500000000E+03 0.  0.
         21    1    1    2  502  501  0.22787641773E+03  0.19724965718E+03  0.43775067083E+03  0.53147035555E+03  0.00000000000E+00 0.  1.
<mgrwt>
<rscale>  3 0.68057035E+03</rscale>
<asrwt>0</asrwt>
<pdfrwt beam="1">  1        2 0.25709570E+00 0.68057035E+03</pdfrwt>
<pdfrwt beam="2">  1       -2 0.10660180E-01 0.68057035E+03</pdfrwt>
<totfact> 0.64177157E+02</totfact>
</mgrwt>
</event>
<event>
 4    0  0.1264838E-002  0.1095208E+04  0.7546771E-02  0.9209875E-01
         -2   -1    0    0    0  501 -0.00000000000E+00  0.00000000000E+00  0.25623549461E+03  0.25623549461E+03  0.00000000000E+00 0. -1.
          2   -1    0    0  502    0  0.00000000000E+00 -0.00000000000E+00 -0.11702918729E+04  0.11702918729E+04  0.00000000000E+00 0.  1.
         25    1    1    2    0    0 -0.53470351439E+03 -0.30485931254E+02 -0.55755066890E+03  0.78315068071E+03  0.12500000000E+03 0.  0.
         21    1    1    2  502  501  0.53470351439E+03  0.30485931254E+02 -0.35650570943E+03  0.64337668684E+03  0.00000000000E+00 0. -1.
<mgrwt>
<rscale>  3 0.10952083E+04</rscale>
<asrwt>0</asrwt>
<pdfrwt beam="1">  1        2 0.18004490E+00 0.10952083E+04</pdfrwt>
<pdfrwt beam="2">  1       -2 0.39420846E-01 0.10952083E+04</pdfrwt>
<totfact> 0.11918264E+02</totfact>
</mgrwt>
</event>
<event>
 4    0  0.1264838E-002  0.5223122E+03  0.7546771E-02  0.1008114E+00
          1   -1    0    0  502    0  0.00000000000E+00  0.00000000000E+00  0.13057170258E+04  0.13057170258E+04  0.00000000000E+00 0. -1.
         -1   -1    0    0    0  501 -0.00000000000E+00 -0.00000000000E+00 -0.52233761925E+02  0.52233761925E+02  0.00000000000E+00 0.  1.
         25    1    1    2    0    0  0.19269050508E+03  0.13451850187E+03  0.85349265053E+03  0.89403554884E+03  0.12500000000E+03 0.  0.
         21    1    1    2  502  501 -0.19269050508E+03 -0.13451850187E+03  0.39999061331E+03  0.46391523884E+03  0.00000000000E+00 0.  1.
<mgrwt>
<rscale>  3 0.52231221E+03</rscale>
<asrwt>0</asrwt>
<pdfrwt beam="1">  1        1 0.20087952E+00 0.52231221E+03</pdfrwt>
<pdfrwt beam="2">  1       -1 0.80359644E-02 0.52231221E+03</pdfrwt>
<totfact> 0.81631580E+02</totfact>
</mgrwt>
</event>
<event>
 4    0  0.1264838E-002  0.4731193E+03  0.7546771E-02  0.1021044E+00
         -2   -1    0    0    0  501 -0.00000000000E+00  0.00000000000E+00  0.36450836447E+02  0.36450836447E+02  0.00000000000E+00 0.  1.
          2   -1    0    0  502    0  0.00000000000E+00 -0.00000000000E+00 -0.15352311530E+04  0.15352311530E+04  0.00000000000E+00 0. -1.
         25    1    1    2    0    0 -0.77002120242E+02 -0.19631357039E+03 -0.59285821504E+03  0.64154049567E+03  0.12500000000E+03 0.  0.
         21    1    1    2  502  501  0.77002120242E+02  0.19631357039E+03 -0.90592210152E+03  0.93014149378E+03  0.00000000000E+00 0. -1.
<mgrwt>
<rscale>  3 0.47311926E+03</rscale>
<asrwt>0</asrwt>
<pdfrwt beam="1">  1        2 0.23618941E+00 0.47311926E+03</pdfrwt>
<pdfrwt beam="2">  1       -2 0.56078210E-02 0.47311926E+03</pdfrwt>
<totfact> 0.21351322E+03</totfact>
</mgrwt>
</event>
<event>
 4    0  0.1264838E-002  0.5009249E+03  0.7546771E-02  0.1013538E+00
          1   -1    0    0  502    0  0.00000000000E+00  0.00000000000E+00  0.29228099570E+03  0.29228099570E+03  0.00000000000E+00 0.  1.
         -1   -1    0    0    0  501 -0.00000000000E+00 -0.00000000000E+00 -0.21462711446E+03  0.21462711446E+03  0.00000000000E+00 0. -1.
         25    1    1    2    0    0 -0.20024640606E+03 -0.72783948981E+02 -0.58758993251E+02  0.25391680854E+03  0.12500000000E+03 0.  0.
         21    1    1    2  502  501  0.20024640606E+03  0.72783948981E+02  0.13641287449E+03  0.25299130162E+03  0.00000000000E+00 0.  1.
<mgrwt>
<rscale>  3 0.50092485E+03</rscale>
<asrwt>0</asrwt>
<pdfrwt beam="1">  1        1 0.44966307E-01 0.50092485E+03</pdfrwt>
<pdfrwt beam="2">  1       -1 0.33019556E-01 0.50092485E+03</pdfrwt>
<totfact> 0.78565066E+02</totfact>
</mgrwt>
</event>
<event>
 4    0  0.1264838E-002  0.5526444E+03  0.7546771E-02  0.1000884E+00
         -2   -1    0    0    0  501 -0.00000000000E+00  0.00000000000E+00  0.40358425331E+02  0.40358425331E+02  0.00000000000E+00 0.  1.
          2   -1    0    0  502    0  0.00000000000E+00 -0.00000000000E+00 -0.18918962254E+04  0.18918962254E+04  0.00000000000E+00 0. -1.
         25    1    1    2    0    0  0.22672570558E+03 -0.31607734088E+02 -0.52622718802E+03  0.58731903412E+03  0.12500000000E+03 0.  0.
         21    1    1    2  502  501 -0.22672570558E+03  0.31607734088E+02 -0.13253106121E+04  0.13449356166E+04  0.00000000000E+00 0. -1.
<mgrwt>
<rscale>  3 0.55264438E+03</rscale>
<asrwt>0</asrwt>
<pdfrwt beam="1">  1        2 0.29106089E+00 0.55264438E+03</pdfrwt>
<pdfrwt beam="2">  1       -2 0.62089900E-02 0.55264438E+03</pdfrwt>
<totfact> 0.11644571E+03</totfact>
</mgrwt>
</event>
<event>
 4    0  0.1264838E-002  0.5398080E+03  0.7546771E-02  0.1003881E+00
         -1   -1    0    0    0  501 -0.00000000000E+00  0.00000000000E+00  0.38219604195E+02  0.38219604195E+02  0.00000000000E+00 0. -1.
          1   -1    0    0  502    0  0.00000000000E+00 -0.00000000000E+00 -0.19060422896E+04  0.19060422896E+04  0.00000000000E+00 0.  1.
         25    1    1    2    0    0  0.22661857632E+03 -0.61035064845E+02 -0.13471052320E+04  0.13730982355E+04  0.12500000000E+03 0.  0.
         21    1    1    2  502  501 -0.22661857632E+03  0.61035064845E+02 -0.52071745348E+03  0.57116365836E+03  0.00000000000E+00 0. -1.
<mgrwt>
<rscale>  3 0.53980805E+03</rscale>
<asrwt>0</asrwt>
<pdfrwt beam="1">  1        1 0.29323727E+00 0.53980805E+03</pdfrwt>
<pdfrwt beam="2">  1       -1 0.58799393E-02 0.53980805E+03</pdfrwt>
<totfact> 0.52036714E+02</totfact>
</mgrwt>
</event>
<event>
 4    0  0.1264838E-002  0.5493127E+03  0.7546771E-02  0.1001653E+00
          1   -1    0    0  502    0  0.00000000000E+00  0.00000000000E+00  0.56965254279E+02  0.56965254279E+02  0.00000000000E+00 0. -1.
         -1   -1    0    0    0  501 -0.00000000000E+00 -0.00000000000E+00 -0.13242477290E+04  0.13242477290E+04  0.00000000000E+00 0.  1.
         25    1    1    2    0    0 -0.10081090813E+03 -0.18356331109E+03 -0.10557243378E+04  0.10835299746E+04  0.12500000000E+03 0.  0.
         21    1    1    2  502  501  0.10081090813E+03  0.18356331109E+03 -0.21155813695E+03  0.29768300873E+03  0.00000000000E+00 0. -1.
<mgrwt>
<rscale>  3 0.54931269E+03</rscale>
<asrwt>0</asrwt>
<pdfrwt beam="1">  1        1 0.87638841E-02 0.54931269E+03</pdfrwt>
<pdfrwt beam="2">  1       -1 0.20373045E+00 0.54931269E+03</pdfrwt>
<totfact> 0.11834414E+02</totfact>
</mgrwt>
</event>
<event>
 4    0  0.1264838E-002  0.9382324E+03  0.7546771E-02  0.9379012E-01
          2   -1    0    0  502    0  0.00000000000E+00  0.00000000000E+00  0.25793929803E+04  0.25793929803E+04  0.00000000000E+00 0.  1.
         -2   -1    0    0    0  501 -0.00000000000E+00 -0.00000000000E+00 -0.85318530369E+02  0.85318530369E+02  0.00000000000E+00 0. -1.
         25    1    1    2    0    0 -0.78635880180E+02  0.45394871207E+03  0.12447701742E+04  0.13331657141E+04  0.12500000000E+03 0.  0.
         21    1    1    2  502  501  0.78635880180E+02 -0.45394871207E+03  0.12493042758E+04  0.13315457965E+04  0.00000000000E+00 0.  1.
<mgrwt>
<rscale>  3 0.93823242E+03</rscale>
<asrwt>0</asrwt>
<pdfrwt beam="1">  1        2 0.39682963E+00 0.93823242E+03</pdfrwt>
<pdfrwt beam="2">  1       -2 0.13125930E-01 0.93823242E+03</pdfrwt>
<totfact> 0.14011316E+02</totfact>
</mgrwt>
</event>
<event>
 4    0  0.1264838E-002  0.5098528E+03  0.7546771E-02  0.1011239E+00
          2   -1    0    0  502    0  0.00000000000E+00  0.00000000000E+00  0.66362064669E+03  0.66362064669E+03  0.00000000000E+00 0. -1.
         -2   -1    0    0    0  501 -0.00000000000E+00 -0.00000000000E+00 -0.97928628305E+02  0.97928628305E+02  0.00000000000E+00 0.  1.
         25    1    1    2    0    0  0.21958011518E+03  0.95857459212E+02  0.29628866211E+03  0.40101876610E+03  0.12500000000E+03 0.  0.
         21    1    1    2  502  501 -0.21958011518E+03 -0.95857459212E+02  0.26940335628E+03  0.36053050890E+03  0.00000000000E+00 0.  1.
<mgrwt>
<rscale>  3 0.50985276E+03</rscale>
<asrwt>0</asrwt>
<pdfrwt beam="1">  1        2 0.10209548E+00 0.50985276E+03</pdfrwt>
<pdfrwt beam="2">  1       -2 0.15065943E-01 0.50985276E+03</pdfrwt>
<totfact> 0.15253630E+03</totfact>
</mgrwt>
</event>
<event>
 4    0  0.1264838E-002  0.4621888E+03  0.7546771E-02  0.1024148E+00
          2   -1    0    0  502    0  0.00000000000E+00  0.00000000000E+00  0.15060166338E+04  0.15060166338E+04  0.00000000000E+00 0. -1.
         -2   -1    0    0    0  501 -0.00000000000E+00 -0.00000000000E+00 -0.35460849378E+02  0.35460849378E+02  0.00000000000E+00 0.  1.
         25    1    1    2    0    0  0.20232429516E+03 -0.12944014278E+02  0.55859027393E+03  0.60724851754E+03  0.12500000000E+03 0.  0.
         21    1    1    2  502  501 -0.20232429516E+03  0.12944014278E+02  0.91196551045E+03  0.93422896560E+03  0.00000000000E+00 0.  1.
<mgrwt>
<rscale>  3 0.46218883E+03</rscale>
<asrwt>0</asrwt>
<pdfrwt beam="1">  1        2 0.23169482E+00 0.46218883E+03</pdfrwt>
<pdfrwt beam="2">  1       -2 0.54555165E-02 0.46218883E+03</pdfrwt>
<totfact> 0.23123188E+03</totfact>
</mgrwt>
</event>
<event>
 4    0  0.1264838E-002  0.5789402E+03  0.7546771E-02  0.9950088E-01
         -2   -1    0    0    0  501 -0.00000000000E+00  0.00000000000E+00  0.10489664481E+03  0.10489664481E+03  0.00000000000E+00 0. -1.
          2   -1    0    0  502    0  0.00000000000E+00 -0.00000000000E+00 -0.79881420980E+03  0.79881420980E+03  0.00000000000E+00 0.  1.
         25    1    1    2    0    0  0.21510769838E+03 -0.14292974455E+03 -0.51497604113E+03  0.58951298266E+03  0.12500000000E+03 0.  0.
         21    1    1    2  502  501 -0.21510769838E+03  0.14292974455E+03 -0.17894152385E+03  0.31419787195E+03  0.00000000000E+00 0. -1.
<mgrwt>
<rscale>  3 0.57894017E+03</rscale>
<asrwt>0</asrwt>
<pdfrwt beam="1">  1        2 0.12289449E+00 0.57894017E+03</pdfrwt>
<pdfrwt beam="2">  1       -2 0.16137946E-01 0.57894017E+03</pdfrwt>
<totfact> 0.10732051E+03</totfact>
</mgrwt>
</event>
<event>
 4    0  0.1264838E-002  0.1170560E+04  0.7546771E-02  0.9139023E-01
          1   -1    0    0  502    0  0.00000000000E+00  0.00000000000E+00  0.12554264839E+04  0.12554264839E+04  0.00000000000E+00 0. -1.
         -1   -1    0    0    0  501 -0.00000000000E+00 -0.00000000000E+00 -0.27285762570E+03  0.27285762570E+03  0.00000000000E+00 0.  1.
         25    1    1    2    0    0  0.48734645128E+03 -0.37541034085E+02  0.90113590202E+03  0.10327568962E+04  0.12500000000E+03 0.  0.
         21    1    1    2  502  501 -0.48734645128E+03  0.37541034085E+02  0.81432956159E+02  0.49552721334E+03  0.00000000000E+00 0.  1.
<mgrwt>
<rscale>  3 0.11705600E+04</rscale>
<asrwt>0</asrwt>
<pdfrwt beam="1">  1        1 0.19314253E+00 0.11705600E+04</pdfrwt>
<pdfrwt beam="2">  1       -1 0.41978097E-01 0.11705600E+04</pdfrwt>
<totfact> 0.53799666E+01</totfact>
</mgrwt>
</event>
<event>
 4    0  0.1264838E-002  0.5973570E+03  0.7546771E-02  0.9910905E-01
         -2   -1    0    0    0  501 -0.00000000000E+00  0.00000000000E+00  0.83432769460E+02  0.83432769460E+02  0.00000000000E+00 0.  1.
          2   -1    0    0  502    0  0.00000000000E+00 -0.00000000000E+00 -0.10692302953E+04  0.10692302953E+04  0.00000000000E+00 0. -1.
         25    1    1    2    0    0 -0.27363588648E+03 -0.64440212896E+02 -0.41726612186E+03  0.51842565124E+03  0.12500000000E+03 0.  0.
         21    1    1    2  502  501  0.27363588648E+03  0.64440212896E+02 -0.56853140403E+03  0.63423741357E+03  0.00000000000E+00 0. -1.
<mgrwt>
<rscale>  3 0.59735699E+03</rscale>
<asrwt>0</asrwt>
<pdfrwt beam="1">  1        2 0.16449698E+00 0.59735699E+03</pdfrwt>
<pdfrwt beam="2">  1       -2 0.12835810E-01 0.59735699E+03</pdfrwt>
<totfact> 0.10457389E+03</totfact>
</mgrwt>
</event>
<event>
 4    0  0.1264838E-002  0.5987488E+03  0.7546771E-02  0.9908005E-01
         -1   -1    0    0    0  501 -0.00000000000E+00  0.00000000000E+00  0.20758686240E+03  0.20758686240E+03  0.00000000000E+00 0.  1.
          1   -1    0    0  502    0  0.00000000000E+00 -0.00000000000E+00 -0.43174708046E+03  0.43174708046E+03  0.00000000000E+00 0. -1.
         25    1    1    2    0    0  0.21864736019E+03  0.17130394635E+03 -0.42747863964E+02  0.30757777883E+03  0.12500000000E+03 0.  0.
         21    1    1    2  502  501 -0.21864736019E+03 -0.17130394635E+03 -0.18141235410E+03  0.33175616403E+03  0.00000000000E+00 0.  1.
<mgrwt>
<rscale>  3 0.59874877E+03</rscale>
<asrwt>0</asrwt>
<pdfrwt beam="1">  1        1 0.66422626E-01 0.59874877E+03</pdfrwt>
<pdfrwt beam="2">  1       -1 0.31936441E-01 0.59874877E+03</pdfrwt>
<totfact> 0.50010341E+02</totfact>
</mgrwt>
</event>
<event>
 4    0  0.1264838E-002  0.4831073E+03  0.7546771E-02  0.1018285E+00
         -2   -1    0    0    0  501 -0.00000000000E+00  0.00000000000E+00  0.97018676743E+02  0.97018676743E+02  0.00000000000E+00 0. -1.
          2   -1    0    0  502    0  0.00000000000E+00 -0.00000000000E+00 -0.60141171456E+03  0.60141171456E+03  0.00000000000E+00 0.  1.
         25    1    1    2    0    0  0.22096718807E+03  0.63153201481E+01 -0.20555487456E+03  0.32671729052E+03  0.12500000000E+03 0.  0.
         21    1    1    2  502  501 -0.22096718807E+03 -0.63153201481E+01 -0.29883816327E+03  0.37171310079E+03  0.00000000000E+00 0. -1.
<mgrwt>
<rscale>  3 0.48310731E+03</rscale>
<asrwt>0</asrwt>
<pdfrwt beam="1">  1        2 0.92524880E-01 0.48310731E+03</pdfrwt>
<pdfrwt beam="2">  1       -2 0.14925950E-01 0.48310731E+03</pdfrwt>
<totfact> 0.17448434E+03</totfact>
</mgrwt>
</event>
<event>
 4    0  0.1264838E-002  0.4440680E+03  0.7546771E-02  0.1029506E+00
         -2   -1    0    0    0  501 -0.00000000000E+00  0.00000000000E+00  0.41261271938E+02  0.41261271938E+02  0.00000000000E+00 0.  1.
          2   -1    0    0  502    0  0.00000000000E+00 -0.00000000000E+00 -0.11948032711E+04  0.11948032711E+04  0.00000000000E+00 0. -1.
         25    1    1    2    0    0  0.20316368058E+03  0.65201403153E+01 -0.56160767366E+03  0.61020174734E+03  0.12500000000E+03 0.  0.
         21    1    1    2  502  501 -0.20316368058E+03 -0.65201403153E+01 -0.59193432550E+03  0.62586279570E+03  0.00000000000E+00 0. -1.
<mgrwt>
<rscale>  3 0.44406802E+03</rscale>
<asrwt>0</asrwt>
<pdfrwt beam="1">  1        2 0.18381586E+00 0.44406802E+03</pdfrwt>
<pdfrwt beam="2">  1       -2 0.63478891E-02 0.44406802E+03</pdfrwt>
<totfact> 0.27325026E+03</totfact>
</mgrwt>
</event>
<event>
 4    0  0.1264838E-002  0.4517960E+03  0.7546771E-02  0.1027188E+00
         -4   -1    0    0    0  501 -0.00000000000E+00  0.00000000000E+00  0.78950254534E+03  0.78950254534E+03  0.00000000000E+00 0. -1.
          4   -1    0    0  502    0  0.00000000000E+00 -0.00000000000E+00 -0.64635509271E+02  0.64635509271E+02  0.00000000000E+00 0.  1.
         25    1    1    2    0    0  0.19764501038E+03 -0.36583284885E+02  0.49568432567E+03  0.54929940613E+03  0.12500000000E+03 0.  0.
         21    1    1    2  502  501 -0.19764501038E+03  0.36583284885E+02  0.22918271040E+03  0.30483864848E+03  0.00000000000E+00 0. -1.
<mgrwt>
<rscale>  3 0.45179597E+03</rscale>
<asrwt>0</asrwt>
<pdfrwt beam="1">  1        4 0.99439250E-02 0.45179597E+03</pdfrwt>
<pdfrwt beam="2">  1       -4 0.12146192E+00 0.45179597E+03</pdfrwt>
<totfact> 0.79799652E+01</totfact>
</mgrwt>
</event>
<event>
 4    0  0.1264838E-002  0.5032997E+03  0.7546771E-02  0.1012921E+00
         -1   -1    0    0    0  501 -0.00000000000E+00  0.00000000000E+00  0.38994986788E+03  0.38994986788E+03  0.00000000000E+00 0.  1.
          1   -1    0    0  502    0  0.00000000000E+00 -0.00000000000E+00 -0.16239948811E+03  0.16239948811E+03  0.00000000000E+00 0. -1.
         25    1    1    2    0    0  0.13163691026E+03  0.18936683660E+03  0.17640763533E+03  0.31612138294E+03  0.12500000000E+03 0.  0.
         21    1    1    2  502  501 -0.13163691026E+03 -0.18936683660E+03  0.51142744440E+02  0.23622797306E+03  0.00000000000E+00 0. -1.
<mgrwt>
<rscale>  3 0.50329975E+03</rscale>
<asrwt>0</asrwt>
<pdfrwt beam="1">  1        1 0.24984537E-01 0.50329975E+03</pdfrwt>
<pdfrwt beam="2">  1       -1 0.59992287E-01 0.50329975E+03</pdfrwt>
<totfact> 0.55645298E+02</totfact>
</mgrwt>
</event>
<event>
 4    0  0.1264838E-002  0.1201495E+04  0.7546771E-02  0.9111549E-01
         -1   -1    0    0    0  501 -0.00000000000E+00  0.00000000000E+00  0.86237545394E+03  0.86237545394E+03  0.00000000000E+00 0. -1.
          1   -1    0    0  502    0  0.00000000000E+00 -0.00000000000E+00 -0.41849236674E+03  0.41849236674E+03  0.00000000000E+00 0.  1.
         25    1    1    2    0    0  0.55820481026E+03  0.10427218790E+03  0.41101731958E+03  0.71205725638E+03  0.12500000000E+03 0.  0.
         21    1    1    2  502  501 -0.55820481026E+03 -0.10427218790E+03  0.32865767620E+02  0.56881056429E+03  0.00000000000E+00 0.  1.
<mgrwt>
<rscale>  3 0.12014950E+04</rscale>
<asrwt>0</asrwt>
<pdfrwt beam="1">  1        1 0.64383441E-01 0.12014950E+04</pdfrwt>
<pdfrwt beam="2">  1       -1 0.13267315E+00 0.12014950E+04</pdfrwt>
<totfact> 0.26921952E+01</totfact>
</mgrwt>
</event>
<event>
 4    0  0.1264838E-002  0.5711309E+03  0.7546771E-02  0.9967179E-01
         -3   -1    0    0    0  501 -0.00000000000E+00  0.00000000000E+00  0.14893396844E+03  0.14893396844E+03  0.00000000000E+00 0.  1.
          3   -1    0    0  502    0  0.00000000000E+00 -0.00000000000E+00 -0.54754223061E+03  0.54754223061E+03  0.00000000000E+00 0. -1.
         25    1    1    2    0    0 -0.25110312705E+03 -0.15438917991E+02 -0.33458717282E+03  0.43688066657E+03  0.12500000000E+03 0.  0.
         21    1    1    2  502  501  0.25110312705E+03  0.15438917991E+02 -0.64021089341E+02  0.25959553248E+03  0.00000000000E+00 0.  1.
<mgrwt>
<rscale>  3 0.57113094E+03</rscale>
<asrwt>0</asrwt>
<pdfrwt beam="1">  1        3 0.84237266E-01 0.57113094E+03</pdfrwt>
<pdfrwt beam="2">  1       -3 0.22912918E-01 0.57113094E+03</pdfrwt>
<totfact> 0.60993544E+01</totfact>
</mgrwt>
</event>
<event>
 4    0  0.1264838E-002  0.5574299E+03  0.7546771E-02  0.9997887E-01
          2   -1    0    0  502    0  0.00000000000E+00  0.00000000000E+00  0.27574402812E+04  0.27574402812E+04  0.00000000000E+00 0.  1.
         -2   -1    0    0    0  501 -0.00000000000E+00 -0.00000000000E+00 -0.28171791319E+02  0.28171791319E+02  0.00000000000E+00 0. -1.
         25    1    1    2    0    0  0.39514540822E+02  0.20631294007E+03  0.22380984687E+04  0.22514076006E+04  0.12500000000E+03 0.  0.
         21    1    1    2  502  501 -0.39514540822E+02 -0.20631294007E+03  0.49117002120E+03  0.53420447200E+03  0.00000000000E+00 0. -1.
<mgrwt>
<rscale>  3 0.55742993E+03</rscale>
<asrwt>0</asrwt>
<pdfrwt beam="1">  1        2 0.42422137E+00 0.55742993E+03</pdfrwt>
<pdfrwt beam="2">  1       -2 0.43341239E-02 0.55742993E+03</pdfrwt>
<totfact> 0.67362138E+02</totfact>
</mgrwt>
</event>
<event>
 4    0  0.1264838E-002  0.1036249E+04  0.7546771E-02  0.9269657E-01
          2   -1    0    0  502    0  0.00000000000E+00  0.00000000000E+00  0.91162054948E+03  0.91162054948E+03  0.00000000000E+00 0.  1.
         -2   -1    0    0    0  501 -0.00000000000E+00 -0.00000000000E+00 -0.29447898620E+03  0.29447898620E+03  0.00000000000E+00 0. -1.
         25    1    1    2    0    0 -0.18005028639E+03  0.20872629905E+03  0.81328795561E+03  0.86778284858E+03  0.12500000000E+03 0.  0.
         21    1    1    2  502  501  0.18005028639E+03 -0.20872629905E+03 -0.19614639233E+03  0.33831668710E+03  0.00000000000E+00 0. -1.
<mgrwt>
<rscale>  3 0.10362492E+04</rscale>
<asrwt>0</asrwt>
<pdfrwt beam="1">  1        2 0.14024931E+00 0.10362492E+04</pdfrwt>
<pdfrwt beam="2">  1       -2 0.45304460E-01 0.10362492E+04</pdfrwt>
<totfact> 0.13252421E+02</totfact>
</mgrwt>
</event>
<event>
 4    0  0.1712789E-002  0.5392013E+03  0.7546771E-02  0.1004025E+00
         -1   -1    0    0    0  501 -0.00000000000E+00  0.00000000000E+00  0.35907562650E+02  0.35907562650E+02  0.00000000000E+00 0.  1.
          1   -1    0    0  502    0  0.00000000000E+00 -0.00000000000E+00 -0.20242120261E+04  0.20242120261E+04  0.00000000000E+00 0. -1.
         25    1    1    2    0    0 -0.10186113096E+03  0.17726644482E+03 -0.46459234269E+03  0.52275245322E+03  0.12500000000E+03 0.  0.
         21    1    1    2  502  501  0.10186113096E+03 -0.17726644482E+03 -0.15237121208E+04  0.15373671355E+04  0.00000000000E+00 0. -1.
<mgrwt>
<rscale>  3 0.53920134E+03</rscale>
<asrwt>0</asrwt>
<pdfrwt beam="1">  1        1 0.31141727E+00 0.53920134E+03</pdfrwt>
<pdfrwt beam="2">  1       -1 0.55242399E-02 0.53920134E+03</pdfrwt>
<totfact> 0.47818217E+02</totfact>
</mgrwt>
</event>
<event>
 4    0  0.1264838E-002  0.5439747E+03  0.7546771E-02  0.1002898E+00
          2   -1    0    0  502    0  0.00000000000E+00  0.00000000000E+00  0.55308801174E+03  0.55308801174E+03  0.00000000000E+00 0. -1.
         -2   -1    0    0    0  501 -0.00000000000E+00 -0.00000000000E+00 -0.13375288788E+03  0.13375288788E+03  0.00000000000E+00 0.  1.
         25    1    1    2    0    0  0.23924046507E+03 -0.86133099531E+02  0.27304244898E+03  0.39348708989E+03  0.12500000000E+03 0.  0.
         21    1    1    2  502  501 -0.23924046507E+03  0.86133099531E+02  0.14629267488E+03  0.29335380974E+03  0.00000000000E+00 0. -1.
<mgrwt>
<rscale>  3 0.54397470E+03</rscale>
<asrwt>0</asrwt>
<pdfrwt beam="1">  1        2 0.85090462E-01 0.54397470E+03</pdfrwt>
<pdfrwt beam="2">  1       -2 0.20577368E-01 0.54397470E+03</pdfrwt>
<totfact> 0.11125702E+03</totfact>
</mgrwt>
</event>
<event>
 4    0  0.1264838E-002  0.4844618E+03  0.7546771E-02  0.1017916E+00
         -2   -1    0    0    0  501 -0.00000000000E+00  0.00000000000E+00  0.13109704232E+03  0.13109704232E+03  0.00000000000E+00 0.  1.
          2   -1    0    0  502    0  0.00000000000E+00 -0.00000000000E+00 -0.44757529259E+03  0.44757529259E+03  0.00000000000E+00 0. -1.
         25    1    1    2    0    0  0.39443151838E+02 -0.19851736448E+03 -0.28916264908E+03  0.37443950626E+03  0.12500000000E+03 0.  0.
         21    1    1    2  502  501 -0.39443151838E+02  0.19851736448E+03 -0.27315601190E+02  0.20423282864E+03  0.00000000000E+00 0.  1.
<mgrwt>
<rscale>  3 0.48446175E+03</rscale>
<asrwt>0</asrwt>
<pdfrwt beam="1">  1        2 0.68857738E-01 0.48446175E+03</pdfrwt>
<pdfrwt beam="2">  1       -2 0.20168776E-01 0.48446175E+03</pdfrwt>
<totfact> 0.14687520E+03</totfact>
</mgrwt>
</event>
<event>
 4    0  0.1264838E-002  0.5873207E+03  0.7546771E-02  0.9932066E-01
          1   -1    0    0  502    0  0.00000000000E+00  0.00000000000E+00  0.74213993981E+03  0.74213993981E+03  0.00000000000E+00 0. -1.
         -1   -1    0    0    0  501 -0.00000000000E+00 -0.00000000000E+00 -0.11619965785E+03  0.11619965785E+03  0.00000000000E+00 0.  1.
         25    1    1    2    0    0 -0.11511046627E+03 -0.21742163466E+03  0.13064692552E+03  0.30531329124E+03  0.12500000000E+03 0.  0.
         21    1    1    2  502  501  0.11511046627E+03  0.21742163466E+03  0.49529335644E+03  0.55302630642E+03  0.00000000000E+00 0. -1.
<mgrwt>
<rscale>  3 0.58732072E+03</rscale>
<asrwt>0</asrwt>
<pdfrwt beam="1">  1        1 0.11417537E+00 0.58732072E+03</pdfrwt>
<pdfrwt beam="2">  1       -1 0.17876871E-01 0.58732072E+03</pdfrwt>
<totfact> 0.62024492E+02</totfact>
</mgrwt>
</event>
<event>
 4    0  0.1264838E-002  0.5026479E+03  0.7546771E-02  0.1013090E+00
         -3   -1    0    0    0  501 -0.00000000000E+00  0.00000000000E+00  0.63295864392E+03  0.63295864392E+03  0.00000000000E+00 0. -1.
          3   -1    0    0  502    0  0.00000000000E+00 -0.00000000000E+00 -0.99791220907E+02  0.99791220907E+02  0.00000000000E+00 0.  1.
         25    1    1    2    0    0 -0.15504174763E+03  0.17314602024E+03  0.22521070681E+03  0.34693277489E+03  0.12500000000E+03 0.  0.
         21    1    1    2  502  501  0.15504174763E+03 -0.17314602024E+03  0.30795671621E+03  0.38581708994E+03  0.00000000000E+00 0. -1.
<mgrwt>
<rscale>  3 0.50264785E+03</rscale>
<asrwt>0</asrwt>
<pdfrwt beam="1">  1        3 0.15352496E-01 0.50264785E+03</pdfrwt>
<pdfrwt beam="2">  1       -3 0.97378250E-01 0.50264785E+03</pdfrwt>
<totfact> 0.89226170E+01</totfact>
</mgrwt>
</event>
<event>
 4    0  0.1264838E-002  0.5594756E+03  0.7546771E-02  0.9993242E-01
         -2   -1    0    0    0  501 -0.00000000000E+00  0.00000000000E+00  0.33575228153E+03  0.33575228153E+03  0.00000000000E+00 0. -1.
          2   -1    0    0  502    0  0.00000000000E+00 -0.00000000000E+00 -0.23306834857E+03  0.23306834857E+03  0.00000000000E+00 0.  1.
         25    1    1    2    0    0 -0.22305206195E+03  0.19167163216E+02  0.19953183055E+03  0.32489622018E+03  0.12500000000E+03 0.  0.
         21    1    1    2  502  501  0.22305206195E+03 -0.19167163216E+02 -0.96847897588E+02  0.24392440992E+03  0.00000000000E+00 0.  1.
<mgrwt>
<rscale>  3 0.55947558E+03</rscale>
<asrwt>0</asrwt>
<pdfrwt beam="1">  1        2 0.35856669E-01 0.55947558E+03</pdfrwt>
<pdfrwt beam="2">  1       -2 0.51654197E-01 0.55947558E+03</pdfrwt>
<totfact> 0.51952197E+02</totfact>
</mgrwt>
</event>
<event>
 4    0  0.1264838E-002  0.4581139E+03  0.7546771E-02  0.1025330E+00
         -4   -1    0    0    0  501 -0.00000000000E+00  0.00000000000E+00  0.10127510257E+03  0.10127510257E+03  0.00000000000E+00 0.  1.
          4   -1    0    0  502    0  0.00000000000E+00 -0.00000000000E+00 -0.51806511537E+03  0.51806511537E+03  0.00000000000E+00 0. -1.
         25    1    1    2    0    0  0.17159247459E+03 -0.12377518107E+03 -0.20571431350E+03  0.32048034505E+03  0.12500000000E+03 0.  0.
         21    1    1    2  502  501 -0.17159247459E+03  0.12377518107E+03 -0.21107569930E+03  0.29885987288E+03  0.00000000000E+00 0. -1.
<mgrwt>
<rscale>  3 0.45811395E+03</rscale>
<asrwt>0</asrwt>
<pdfrwt beam="1">  1        4 0.79702326E-01 0.45811395E+03</pdfrwt>
<pdfrwt beam="2">  1       -4 0.15580785E-01 0.45811395E+03</pdfrwt>
<totfact> 0.98427893E+01</totfact>
</mgrwt>
</event>
<event>
 4    0  0.1264838E-002  0.4761036E+03  0.7546771E-02  0.1020212E+00
         -1   -1    0    0    0  501 -0.00000000000E+00  0.00000000000E+00  0.73618052025E+02  0.73618052025E+02  0.00000000000E+00 0.  1.
          1   -1    0    0  502    0  0.00000000000E+00 -0.00000000000E+00 -0.76976573157E+03  0.76976573157E+03  0.00000000000E+00 0. -1.
         25    1    1    2    0    0 -0.21383448413E+03  0.17867243264E+02 -0.27374089695E+03  0.36959911208E+03  0.12500000000E+03 0.  0.
         21    1    1    2  502  501  0.21383448413E+03 -0.17867243264E+02 -0.42240678260E+03  0.47378467152E+03  0.00000000000E+00 0. -1.
<mgrwt>
<rscale>  3 0.47610358E+03</rscale>
<asrwt>0</asrwt>
<pdfrwt beam="1">  1        1 0.11842550E+00 0.47610358E+03</pdfrwt>
<pdfrwt beam="2">  1       -1 0.11325854E-01 0.47610358E+03</pdfrwt>
<totfact> 0.12258870E+03</totfact>
</mgrwt>
</event>
<event>
 4    0  0.1264838E-002  0.5189725E+03  0.7546771E-02  0.1008942E+00
         -2   -1    0    0    0  501 -0.00000000000E+00  0.00000000000E+00  0.73157486379E+02  0.73157486379E+02  0.00000000000E+00 0.  1.
          2   -1    0    0  502    0  0.00000000000E+00 -0.00000000000E+00 -0.92038567625E+03  0.92038567625E+03  0.00000000000E+00 0. -1.
         25    1    1    2    0    0 -0.21833506928E+03 -0.12196698583E+02 -0.65727843857E+03  0.70388841995E+03  0.12500000000E+03 0.  0.
         21    1    1    2  502  501  0.21833506928E+03  0.12196698583E+02 -0.18994975130E+03  0.28965474267E+03  0.00000000000E+00 0.  1.
<mgrwt>
<rscale>  3 0.51897246E+03</rscale>
<asrwt>0</asrwt>
<pdfrwt beam="1">  1        2 0.14159780E+00 0.51897246E+03</pdfrwt>
<pdfrwt beam="2">  1       -2 0.11254998E-01 0.51897246E+03</pdfrwt>
<totfact> 0.16156192E+03</totfact>
</mgrwt>
</event>
<event>
 4    0  0.1264838E-002  0.4924946E+03  0.7546771E-02  0.1015757E+00
         -2   -1    0    0    0  501 -0.00000000000E+00  0.00000000000E+00  0.34003627054E+02  0.34003627054E+02  0.00000000000E+00 0. -1.
          2   -1    0    0  502    0  0.00000000000E+00 -0.00000000000E+00 -0.17832721421E+04  0.17832721421E+04  0.00000000000E+00 0.  1.
         25    1    1    2    0    0  0.21015822557E+03  0.55051564079E+02 -0.12139195741E+04  0.12395252667E+04  0.12500000000E+03 0.  0.
         21    1    1    2  502  501 -0.21015822557E+03 -0.55051564079E+02 -0.53534894102E+03  0.57775050250E+03  0.00000000000E+00 0. -1.
<mgrwt>
<rscale>  3 0.49249455E+03</rscale>
<asrwt>0</asrwt>
<pdfrwt beam="1">  1        2 0.27434957E+00 0.49249455E+03</pdfrwt>
<pdfrwt beam="2">  1       -2 0.52313271E-02 0.49249455E+03</pdfrwt>
<totfact> 0.17450893E+03</totfact>
</mgrwt>
</event>
<event>
 4    0  0.1264838E-002  0.1492230E+04  0.7546771E-02  0.8889637E-01
          2   -1    0    0  502    0  0.00000000000E+00  0.00000000000E+00  0.69534775769E+03  0.69534775769E+03  0.00000000000E+00 0. -1.
         -2   -1    0    0    0  501 -0.00000000000E+00 -0.00000000000E+00 -0.80058844566E+03  0.80058844566E+03  0.00000000000E+00 0.  1.
         25    1    1    2    0    0  0.45018449679E+03  0.58270414139E+03  0.29018827599E+02  0.74744718201E+03  0.12500000000E+03 0.  0.
         21    1    1    2  502  501 -0.45018449679E+03 -0.58270414139E+03 -0.13425951558E+03  0.74848902134E+03  0.00000000000E+00 0. -1.
<mgrwt>
<rscale>  3 0.14922297E+04</rscale>
<asrwt>0</asrwt>
<pdfrwt beam="1">  1        2 0.10697658E+00 0.14922297E+04</pdfrwt>
<pdfrwt beam="2">  1       -2 0.12316745E+00 0.14922297E+04</pdfrwt>
<totfact> 0.19872835E+01</totfact>
</mgrwt>
</event>
<event>
 4    0  0.1264838E-002  0.5841935E+03  0.7546771E-02  0.9938753E-01
          2   -1    0    0  502    0  0.00000000000E+00  0.00000000000E+00  0.11106517427E+04  0.11106517427E+04  0.00000000000E+00 0. -1.
         -2   -1    0    0    0  501 -0.00000000000E+00 -0.00000000000E+00 -0.76820231314E+02  0.76820231314E+02  0.00000000000E+00 0.  1.
         25    1    1    2    0    0 -0.15154896668E+03 -0.17439395364E+03  0.22367759636E+03  0.34501740171E+03  0.12500000000E+03 0.  0.
         21    1    1    2  502  501  0.15154896668E+03  0.17439395364E+03  0.81015391507E+03  0.84245457235E+03  0.00000000000E+00 0. -1.
<mgrwt>
<rscale>  3 0.58419354E+03</rscale>
<asrwt>0</asrwt>
<pdfrwt beam="1">  1        2 0.17086949E+00 0.58419354E+03</pdfrwt>
<pdfrwt beam="2">  1       -2 0.11818498E-01 0.58419354E+03</pdfrwt>
<totfact> 0.11312307E+03</totfact>
</mgrwt>
</event>
<event>
 4    0  0.1264838E-002  0.6328144E+03  0.7546771E-02  0.9839572E-01
          2   -1    0    0  502    0  0.00000000000E+00  0.00000000000E+00  0.12696608678E+04  0.12696608678E+04  0.00000000000E+00 0. -1.
         -2   -1    0    0    0  501 -0.00000000000E+00 -0.00000000000E+00 -0.78850595629E+02  0.78850595629E+02  0.00000000000E+00 0.  1.
         25    1    1    2    0    0  0.17289923041E+03  0.18570750933E+03  0.97567525968E+03  0.10158487266E+04  0.12500000000E+03 0.  0.
         21    1    1    2  502  501 -0.17289923041E+03 -0.18570750933E+03  0.21513501248E+03  0.33266273686E+03  0.00000000000E+00 0.  1.
<mgrwt>
<rscale>  3 0.63281440E+03</rscale>
<asrwt>0</asrwt>
<pdfrwt beam="1">  1        2 0.19533243E+00 0.63281440E+03</pdfrwt>
<pdfrwt beam="2">  1       -2 0.12130862E-01 0.63281440E+03</pdfrwt>
<totfact> 0.87172847E+02</totfact>
</mgrwt>
</event>
<event>
 4    0  0.1264838E-002  0.5955376E+03  0.7546771E-02  0.9914708E-01
         -2   -1    0    0    0  501 -0.00000000000E+00  0.00000000000E+00  0.85630467284E+02  0.85630467284E+02  0.00000000000E+00 0.  1.
          2   -1    0    0  502    0  0.00000000000E+00 -0.00000000000E+00 -0.10354523291E+04  0.10354523291E+04  0.00000000000E+00 0. -1.
         25    1    1    2    0    0 -0.10932406618E+03  0.19849096855E+03 -0.17154827133E+03  0.31049029846E+03  0.12500000000E+03 0.  0.
         21    1    1    2  502  501  0.10932406618E+03 -0.19849096855E+03 -0.77827359050E+03  0.81059249794E+03  0.00000000000E+00 0.  1.
<mgrwt>
<rscale>  3 0.59553763E+03</rscale>
<asrwt>0</asrwt>
<pdfrwt beam="1">  1        2 0.15930036E+00 0.59553763E+03</pdfrwt>
<pdfrwt beam="2">  1       -2 0.13173918E-01 0.59553763E+03</pdfrwt>
<totfact> 0.10509771E+03</totfact>
</mgrwt>
</event>
<event>
 4    0  0.1264838E-002  0.4592859E+03  0.7546771E-02  0.1024989E+00
         -2   -1    0    0    0  501 -0.00000000000E+00  0.00000000000E+00  0.23706869121E+03  0.23706869121E+03  0.00000000000E+00 0. -1.
          2   -1    0    0  502    0  0.00000000000E+00 -0.00000000000E+00 -0.22244976557E+03  0.22244976557E+03  0.00000000000E+00 0.  1.
         25    1    1    2    0    0  0.20869571353E+03 -0.27283215898E+02  0.38105973634E+02  0.24774046893E+03  0.12500000000E+03 0.  0.
         21    1    1    2  502  501 -0.20869571353E+03  0.27283215898E+02 -0.23487047994E+02  0.21177798786E+03  0.00000000000E+00 0. -1.
<mgrwt>
<rscale>  3 0.45928586E+03</rscale>
<asrwt>0</asrwt>
<pdfrwt beam="1">  1        2 0.34223041E-01 0.45928586E+03</pdfrwt>
<pdfrwt beam="2">  1       -2 0.36472107E-01 0.45928586E+03</pdfrwt>
<totfact> 0.10851916E+03</totfact>
</mgrwt>
</event>
<event>
 4    0  0.1264838E-002  0.7420277E+03  0.7546771E-02  0.9647941E-01
         -2   -1    0    0    0  501 -0.00000000000E+00  0.00000000000E+00  0.28227723645E+03  0.28227723645E+03  0.00000000000E+00 0.  1.
          2   -1    0    0  502    0  0.00000000000E+00 -0.00000000000E+00 -0.48764563211E+03  0.48764563211E+03  0.00000000000E+00 0. -1.
         25    1    1    2    0    0  0.91175893382E+02 -0.33174972161E+03  0.60513631659E+01  0.36610454834E+03  0.12500000000E+03 0.  0.
         21    1    1    2  502  501 -0.91175893382E+02  0.33174972161E+03 -0.21141975883E+03  0.40381832022E+03  0.00000000000E+00 0.  1.
<mgrwt>
<rscale>  3 0.74202766E+03</rscale>
<asrwt>0</asrwt>
<pdfrwt beam="1">  1        2 0.75022405E-01 0.74202766E+03</pdfrwt>
<pdfrwt beam="2">  1       -2 0.43427267E-01 0.74202766E+03</pdfrwt>
<totfact> 0.32125454E+02</totfact>
</mgrwt>
</event>
<event>
 4    0  0.1264838E-002  0.5502181E+03  0.7546771E-02  0.1001443E+00
         -2   -1    0    0    0  501 -0.00000000000E+00  0.00000000000E+00  0.33706575226E+03  0.33706575226E+03  0.00000000000E+00 0. -1.
          2   -1    0    0  502    0  0.00000000000E+00 -0.00000000000E+00 -0.22454068843E+03  0.22454068843E+03  0.00000000000E+00 0.  1.
         25    1    1    2    0    0 -0.76710222437E+02  0.19870089830E+03 -0.94642975648E+02  0.26447835082E+03  0.12500000000E+03 0.  0.
         21    1    1    2  502  501  0.76710222437E+02 -0.19870089830E+03  0.20716803948E+03  0.29712808988E+03  0.00000000000E+00 0. -1.
<mgrwt>
<rscale>  3 0.55021805E+03</rscale>
<asrwt>0</asrwt>
<pdfrwt beam="1">  1        2 0.34544721E-01 0.55021805E+03</pdfrwt>
<pdfrwt beam="2">  1       -2 0.51856269E-01 0.55021805E+03</pdfrwt>
<totfact> 0.53726315E+02</totfact>
</mgrwt>
</event>
<event>
 4    0  0.1264838E-002  0.7912226E+03  0.7546771E-02  0.9572810E-01
          2   -1    0    0  502    0  0.00000000000E+00  0.00000000000E+00  0.15154944136E+03  0.15154944136E+03  0.00000000000E+00 0. -1.
         -2   -1    0    0    0  501 -0.00000000000E+00 -0.00000000000E+00 -0.10327211346E+04  0.10327211346E+04  0.00000000000E+00 0.  1.
         25    1    1    2    0    0 -0.21036054188E+03 -0.23694144669E+03 -0.78087126727E+03  0.85192590217E+03  0.12500000000E+03 0.  0.
         21    1    1    2  502  501  0.21036054188E+03  0.23694144669E+03 -0.10030042595E+03  0.33234467378E+03  0.00000000000E+00 0.  1.
<mgrwt>
<rscale>  3 0.79122263E+03</rscale>
<asrwt>0</asrwt>
<pdfrwt beam="1">  1        2 0.23315298E-01 0.79122263E+03</pdfrwt>
<pdfrwt beam="2">  1       -2 0.15888018E+00 0.79122263E+03</pdfrwt>
<totfact> 0.61571470E+01</totfact>
</mgrwt>
</event>
<event>
 4    0  0.1264838E-002  0.4680990E+03  0.7546771E-02  0.1022458E+00
          2   -1    0    0  502    0  0.00000000000E+00  0.00000000000E+00  0.39478601281E+03  0.39478601281E+03  0.00000000000E+00 0. -1.
         -2   -1    0    0    0  501 -0.00000000000E+00 -0.00000000000E+00 -0.13875660824E+03  0.13875660824E+03  0.00000000000E+00 0.  1.
         25    1    1    2    0    0 -0.22249445675E+02  0.20101560739E+03  0.22792025485E+03  0.32935536252E+03  0.12500000000E+03 0.  0.
         21    1    1    2  502  501  0.22249445675E+02 -0.20101560739E+03  0.28109149719E+02  0.20418725853E+03  0.00000000000E+00 0.  1.
<mgrwt>
<rscale>  3 0.46809900E+03</rscale>
<asrwt>0</asrwt>
<pdfrwt beam="1">  1        2 0.60736309E-01 0.46809900E+03</pdfrwt>
<pdfrwt beam="2">  1       -2 0.21347171E-01 0.46809900E+03</pdfrwt>
<totfact> 0.15301957E+03</totfact>
</mgrwt>
</event>
<event>
 4    0  0.1264838E-002  0.5660454E+03  0.7546771E-02  0.9978468E-01
         -2   -1    0    0    0  501 -0.00000000000E+00  0.00000000000E+00  0.51339201620E+03  0.51339201620E+03  0.00000000000E+00 0. -1.
          2   -1    0    0  502    0  0.00000000000E+00 -0.00000000000E+00 -0.15602471880E+03  0.15602471880E+03  0.00000000000E+00 0.  1.
         25    1    1    2    0    0 -0.83092293268E+02 -0.24220728723E+03  0.28571241401E+03  0.40351614926E+03  0.12500000000E+03 0.  0.
         21    1    1    2  502  501  0.83092293268E+02  0.24220728723E+03  0.71654883387E+02  0.26590058575E+03  0.00000000000E+00 0.  1.
<mgrwt>
<rscale>  3 0.56604539E+03</rscale>
<asrwt>0</asrwt>
<pdfrwt beam="1">  1        2 0.24003803E-01 0.56604539E+03</pdfrwt>
<pdfrwt beam="2">  1       -2 0.78983386E-01 0.56604539E+03</pdfrwt>
<totfact> 0.33025906E+02</totfact>
</mgrwt>
</event>
<event>
 4    0  0.1264838E-002  0.1564680E+04  0.7546771E-02  0.8842545E-01
         -2   -1    0    0    0  501 -0.00000000000E+00  0.00000000000E+00  0.42507927116E+03  0.42507927116E+03  0.00000000000E+00 0.  1.
          2   -1    0    0  502    0  0.00000000000E+00 -0.00000000000E+00 -0.14398637424E+04  0.14398637424E+04  0.00000000000E+00 0. -1.
         25    1    1    2    0    0  0.68600626348E+03 -0.15163007335E+01 -0.74874367891E+02  0.70131167370E+03  0.12500000000E+03 0.  0.
         21    1    1    2  502  501 -0.68600626348E+03  0.15163007335E+01 -0.93991010333E+03  0.11636313398E+04  0.00000000000E+00 0. -1.
<mgrwt>
<rscale>  3 0.15646805E+04</rscale>
<asrwt>0</asrwt>
<pdfrwt beam="1">  1        2 0.22151750E+00 0.15646805E+04</pdfrwt>
<pdfrwt beam="2">  1       -2 0.65396810E-01 0.15646805E+04</pdfrwt>
<totfact> 0.28446125E+01</totfact>
</mgrwt>
</event>
<event>
 4    0  0.1264838E-002  0.5403342E+03  0.7546771E-02  0.1003756E+00
         -1   -1    0    0    0  501 -0.00000000000E+00  0.00000000000E+00  0.21559226831E+03  0.21559226831E+03  0.00000000000E+00 0. -1.
          1   -1    0    0  502    0  0.00000000000E+00 -0.00000000000E+00 -0.33855692488E+03  0.33855692488E+03  0.00000000000E+00 0.  1.
         25    1    1    2    0    0 -0.18818066391E+03 -0.74138547508E+02 -0.22522837936E+03  0.32750772413E+03  0.12500000000E+03 0.  0.
         21    1    1    2  502  501  0.18818066391E+03  0.74138547508E+02  0.10226372280E+03  0.22664146906E+03  0.00000000000E+00 0. -1.
<mgrwt>
<rscale>  3 0.54033418E+03</rscale>
<asrwt>0</asrwt>
<pdfrwt beam="1">  1        1 0.52085681E-01 0.54033418E+03</pdfrwt>
<pdfrwt beam="2">  1       -1 0.33168041E-01 0.54033418E+03</pdfrwt>
<totfact> 0.64461117E+02</totfact>
</mgrwt>
</event>
<event>
 4    0  0.1264838E-002  0.5389177E+03  0.7546771E-02  0.1004092E+00
          2   -1    0    0  502    0  0.00000000000E+00  0.00000000000E+00  0.18681923279E+04  0.18681923279E+04  0.00000000000E+00 0.  1.
         -2   -1    0    0    0  501 -0.00000000000E+00 -0.00000000000E+00 -0.38865417540E+02  0.38865417540E+02  0.00000000000E+00 0. -1.
         25    1    1    2    0    0  0.15258001784E+03  0.18123088322E+03  0.63040024526E+03  0.68494873100E+03  0.12500000000E+03 0.  0.
         21    1    1    2  502  501 -0.15258001784E+03 -0.18123088322E+03  0.11989266651E+04  0.12221090145E+04  0.00000000000E+00 0.  1.
<mgrwt>
<rscale>  3 0.53891771E+03</rscale>
<asrwt>0</asrwt>
<pdfrwt beam="1">  1        2 0.28741413E+00 0.53891771E+03</pdfrwt>
<pdfrwt beam="2">  1       -2 0.59792965E-02 0.53891771E+03</pdfrwt>
<totfact> 0.12730655E+03</totfact>
</mgrwt>
</event>
<event>
 4    0  0.1264838E-002  0.5666378E+03  0.7546771E-02  0.9977146E-01
          2   -1    0    0  502    0  0.00000000000E+00  0.00000000000E+00  0.11284731915E+03  0.11284731915E+03  0.00000000000E+00 0.  1.
         -2   -1    0    0    0  501 -0.00000000000E+00 -0.00000000000E+00 -0.71131154972E+03  0.71131154972E+03  0.00000000000E+00 0. -1.
         25    1    1    2    0    0 -0.17995040204E+03  0.19829208265E+03 -0.26907521297E+03  0.39966031511E+03  0.12500000000E+03 0.  0.
         21    1    1    2  502  501  0.17995040204E+03 -0.19829208265E+03 -0.32938901759E+03  0.42449855376E+03  0.00000000000E+00 0.  1.
<mgrwt>
<rscale>  3 0.56663781E+03</rscale>
<asrwt>0</asrwt>
<pdfrwt beam="1">  1        2 0.17361126E-01 0.56663781E+03</pdfrwt>
<pdfrwt beam="2">  1       -2 0.10943254E+00 0.56663781E+03</pdfrwt>
<totfact> 0.22654315E+02</totfact>
</mgrwt>
</event>
<event>
 4    0  0.1264838E-002  0.5012768E+03  0.7546771E-02  0.1013446E+00
         -2   -1    0    0    0  501 -0.00000000000E+00  0.00000000000E+00  0.56936899825E+02  0.56936899825E+02  0.00000000000E+00 0. -1.
          2   -1    0    0  502    0  0.00000000000E+00 -0.00000000000E+00 -0.11033197384E+04  0.11033197384E+04  0.00000000000E+00 0.  1.
         25    1    1    2    0    0 -0.16060624259E+03  0.15076424955E+03 -0.74554706205E+03  0.78739421247E+03  0.12500000000E+03 0.  0.
         21    1    1    2  502  501  0.16060624259E+03 -0.15076424955E+03 -0.30083577653E+03  0.37286242575E+03  0.00000000000E+00 0. -1.
<mgrwt>
<rscale>  3 0.50127679E+03</rscale>
<asrwt>0</asrwt>
<pdfrwt beam="1">  1        2 0.16974149E+00 0.50127679E+03</pdfrwt>
<pdfrwt beam="2">  1       -2 0.87595236E-02 0.50127679E+03</pdfrwt>
<totfact> 0.18604080E+03</totfact>
</mgrwt>
</event>
<event>
 4    0  0.1264838E-002  0.7627438E+03  0.7546771E-02  0.9615567E-01
         -2   -1    0    0    0  501 -0.00000000000E+00  0.00000000000E+00  0.28409247985E+03  0.28409247985E+03  0.00000000000E+00 0. -1.
          2   -1    0    0  502    0  0.00000000000E+00 -0.00000000000E+00 -0.51196191987E+03  0.51196191987E+03  0.00000000000E+00 0.  1.
         25    1    1    2    0    0  0.29461905496E+03  0.16716384303E+03  0.41261242522E+02  0.36341660405E+03  0.12500000000E+03 0.  0.
         21    1    1    2  502  501 -0.29461905496E+03 -0.16716384303E+03 -0.26913068254E+03  0.43263779568E+03  0.00000000000E+00 0.  1.
<mgrwt>
<rscale>  3 0.76274381E+03</rscale>
<asrwt>0</asrwt>
<pdfrwt beam="1">  1        2 0.78763372E-01 0.76274381E+03</pdfrwt>
<pdfrwt beam="2">  1       -2 0.43706536E-01 0.76274381E+03</pdfrwt>
<totfact> 0.29957548E+02</totfact>
</mgrwt>
</event>
<event>
 4    0  0.1264838E-002  0.4930585E+03  0.7546771E-02  0.1015607E+00
         -2   -1    0    0    0  501 -0.00000000000E+00  0.00000000000E+00  0.23367269948E+02  0.23367269948E+02  0.00000000000E+00 0.  1.
          2   -1    0    0  502    0  0.00000000000E+00 -0.00000000000E+00 -0.26009313975E+04  0.26009313975E+04  0.00000000000E+00 0. -1.
         25    1    1    2    0    0  0.14028877414E+03 -0.15613337292E+03 -0.18809262661E+04  0.18967253858E+04  0.12500000000E+03 0.  0.
         21    1    1    2  502  501 -0.14028877414E+03  0.15613337292E+03 -0.69663786137E+03  0.72757328166E+03  0.00000000000E+00 0.  1.
<mgrwt>
<rscale>  3 0.49305848E+03</rscale>
<asrwt>0</asrwt>
<pdfrwt beam="1">  1        2 0.40014338E+00 0.49305848E+03</pdfrwt>
<pdfrwt beam="2">  1       -2 0.35949638E-02 0.49305848E+03</pdfrwt>
<totfact> 0.11098317E+03</totfact>
</mgrwt>
</event>
<event>
 4    0  0.1264838E-002  0.5797181E+03  0.7546771E-02  0.9948401E-01
          1   -1    0    0  502    0  0.00000000000E+00  0.00000000000E+00  0.17561663490E+03  0.17561663490E+03  0.00000000000E+00 0. -1.
         -1   -1    0    0    0  501 -0.00000000000E+00 -0.00000000000E+00 -0.47841868032E+03  0.47841868032E+03  0.00000000000E+00 0.  1.
         25    1    1    2    0    0 -0.26507136546E+03 -0.32591599691E+01 -0.24665559290E+03  0.38306322249E+03  0.12500000000E+03 0.  0.
         21    1    1    2  502  501  0.26507136546E+03  0.32591599691E+01 -0.56146452522E+02  0.27097209274E+03  0.00000000000E+00 0. -1.
<mgrwt>
<rscale>  3 0.57971813E+03</rscale>
<asrwt>0</asrwt>
<pdfrwt beam="1">  1        1 0.27017944E-01 0.57971813E+03</pdfrwt>
<pdfrwt beam="2">  1       -1 0.73602873E-01 0.57971813E+03</pdfrwt>
<totfact> 0.33279051E+02</totfact>
</mgrwt>
</event>
<event>
 4    0  0.1264838E-002  0.7436151E+03  0.7546771E-02  0.9645421E-01
          2   -1    0    0  502    0  0.00000000000E+00  0.00000000000E+00  0.22980236896E+03  0.22980236896E+03  0.00000000000E+00 0. -1.
         -2   -1    0    0    0  501 -0.00000000000E+00 -0.00000000000E+00 -0.60156416491E+03  0.60156416491E+03  0.00000000000E+00 0.  1.
         25    1    1    2    0    0  0.22711338525E+03 -0.24495787825E+03 -0.34505277712E+03  0.49625726279E+03  0.12500000000E+03 0.  0.
         21    1    1    2  502  501 -0.22711338525E+03  0.24495787825E+03 -0.26709018830E+02  0.33510927107E+03  0.00000000000E+00 0. -1.
<mgrwt>
<rscale>  3 0.74361514E+03</rscale>
<asrwt>0</asrwt>
<pdfrwt beam="1">  1        2 0.35354211E-01 0.74361514E+03</pdfrwt>
<pdfrwt beam="2">  1       -2 0.92548332E-01 0.74361514E+03</pdfrwt>
<totfact> 0.14783269E+02</totfact>
</mgrwt>
</event>
<event>
 4    0  0.1264838E-002  0.5189227E+03  0.7546771E-02  0.1008955E+00
         -3   -1    0    0    0  501 -0.00000000000E+00  0.00000000000E+00  0.24129055719E+03  0.24129055719E+03  0.00000000000E+00 0.  1.
          3   -1    0    0  502    0  0.00000000000E+00 -0.00000000000E+00 -0.27900056487E+03  0.27900056487E+03  0.00000000000E+00 0. -1.
         25    1    1    2    0    0  0.18235224244E+03  0.14802971945E+03  0.47825216256E+02  0.27032829943E+03  0.12500000000E+03 0.  0.
         21    1    1    2  502  501 -0.18235224244E+03 -0.14802971945E+03 -0.85535223932E+02  0.24996282263E+03  0.00000000000E+00 0. -1.
<mgrwt>
<rscale>  3 0.51892274E+03</rscale>
<asrwt>0</asrwt>
<pdfrwt beam="1">  1        3 0.42923164E-01 0.51892274E+03</pdfrwt>
<pdfrwt beam="2">  1       -3 0.37121624E-01 0.51892274E+03</pdfrwt>
<totfact> 0.10148026E+02</totfact>
</mgrwt>
</event>
<event>
 4    0  0.1264838E-002  0.7004512E+03  0.7546771E-02  0.9716461E-01
         -2   -1    0    0    0  501 -0.00000000000E+00  0.00000000000E+00  0.97064799037E+02  0.97064799037E+02  0.00000000000E+00 0. -1.
          2   -1    0    0  502    0  0.00000000000E+00 -0.00000000000E+00 -0.12636711072E+04  0.12636711072E+04  0.00000000000E+00 0.  1.
         25    1    1    2    0    0 -0.91941909827E+01  0.28843495987E+03 -0.94770836771E+03  0.99852661930E+03  0.12500000000E+03 0.  0.
         21    1    1    2  502  501  0.91941909827E+01 -0.28843495987E+03 -0.21889794050E+03  0.36220928699E+03  0.00000000000E+00 0. -1.
<mgrwt>
<rscale>  3 0.70045123E+03</rscale>
<asrwt>0</asrwt>
<pdfrwt beam="1">  1        2 0.19441093E+00 0.70045123E+03</pdfrwt>
<pdfrwt beam="2">  1       -2 0.14933047E-01 0.70045123E+03</pdfrwt>
<totfact> 0.61932512E+02</totfact>
</mgrwt>
</event>
<event>
 4    0  0.1264838E-002  0.6327270E+03  0.7546771E-02  0.9839742E-01
          1   -1    0    0  502    0  0.00000000000E+00  0.00000000000E+00  0.46148795345E+03  0.46148795345E+03  0.00000000000E+00 0.  1.
         -1   -1    0    0    0  501 -0.00000000000E+00 -0.00000000000E+00 -0.21687643786E+03  0.21687643786E+03  0.00000000000E+00 0. -1.
         25    1    1    2    0    0  0.26272415331E+03 -0.13881981907E+03  0.19598710781E+03  0.37726763621E+03  0.12500000000E+03 0.  0.
         21    1    1    2  502  501 -0.26272415331E+03  0.13881981907E+03  0.48624407775E+02  0.30109675510E+03  0.00000000000E+00 0. -1.
<mgrwt>
<rscale>  3 0.63272700E+03</rscale>
<asrwt>0</asrwt>
<pdfrwt beam="1">  1        1 0.70998146E-01 0.63272700E+03</pdfrwt>
<pdfrwt beam="2">  1       -1 0.33365606E-01 0.63272700E+03</pdfrwt>
<totfact> 0.42309088E+02</totfact>
</mgrwt>
</event>
<event>
 4    0  0.1805011E-002  0.6856317E+03  0.7546771E-02  0.9742124E-01
         -1   -1    0    0    0  501 -0.00000000000E+00  0.00000000000E+00  0.15742045933E+03  0.15742045933E+03  0.00000000000E+00 0. -1.
          1   -1    0    0  502    0  0.00000000000E+00 -0.00000000000E+00 -0.74655286625E+03  0.74655286625E+03  0.00000000000E+00 0.  1.
         25    1    1    2    0    0 -0.10215554516E+03  0.18382075472E+03  0.33368301348E+02  0.24690943442E+03  0.12500000000E+03 0.  0.
         21    1    1    2  502  501  0.10215554516E+03 -0.18382075472E+03 -0.62250070827E+03  0.65706389116E+03  0.00000000000E+00 0.  1.
<mgrwt>
<rscale>  3 0.68563167E+03</rscale>
<asrwt>0</asrwt>
<pdfrwt beam="1">  1        1 0.11485429E+00 0.68563167E+03</pdfrwt>
<pdfrwt beam="2">  1       -1 0.24218532E-01 0.68563167E+03</pdfrwt>
<totfact> 0.36892606E+02</totfact>
</mgrwt>
</event>
<event>
 4    0  0.1264838E-002  0.5371953E+03  0.7546771E-02  0.1004502E+00
         -1   -1    0    0    0  501 -0.00000000000E+00  0.00000000000E+00  0.39877764420E+03  0.39877764420E+03  0.00000000000E+00 0.  1.
          1   -1    0    0  502    0  0.00000000000E+00 -0.00000000000E+00 -0.18091456816E+03  0.18091456816E+03  0.00000000000E+00 0. -1.
         25    1    1    2    0    0 -0.12104069328E+03 -0.21778464243E+03  0.16838089709E+03  0.32566566662E+03  0.12500000000E+03 0.  0.
         21    1    1    2  502  501  0.12104069328E+03  0.21778464243E+03  0.49482178942E+02  0.25402654574E+03  0.00000000000E+00 0. -1.
<mgrwt>
<rscale>  3 0.53719525E+03</rscale>
<asrwt>0</asrwt>
<pdfrwt beam="1">  1        1 0.27833011E-01 0.53719525E+03</pdfrwt>
<pdfrwt beam="2">  1       -1 0.61350407E-01 0.53719525E+03</pdfrwt>
<totfact> 0.46267020E+02</totfact>
</mgrwt>
</event>
<event>
 4    0  0.1264838E-002  0.8994814E+03  0.7546771E-02  0.9426230E-01
          2   -1    0    0  502    0  0.00000000000E+00  0.00000000000E+00  0.30853474028E+03  0.30853474028E+03  0.00000000000E+00 0.  1.
         -2   -1    0    0    0  501 -0.00000000000E+00 -0.00000000000E+00 -0.65557182725E+03  0.65557182725E+03  0.00000000000E+00 0. -1.
         25    1    1    2    0    0  0.41532862569E+03  0.12725707678E+03 -0.94977447294E+02  0.46188520911E+03  0.12500000000E+03 0.  0.
         21    1    1    2  502  501 -0.41532862569E+03 -0.12725707678E+03 -0.25205963967E+03  0.50222135842E+03  0.00000000000E+00 0. -1.
<mgrwt>
<rscale>  3 0.89948137E+03</rscale>
<asrwt>0</asrwt>
<pdfrwt beam="1">  1        2 0.47466883E-01 0.89948137E+03</pdfrwt>
<pdfrwt beam="2">  1       -2 0.10085720E+00 0.89948137E+03</pdfrwt>
<totfact> 0.86416804E+01</totfact>
</mgrwt>
</event>
<event>
 4    0  0.1264838E-002  0.5826892E+03  0.7546771E-02  0.9941986E-01
          2   -1    0    0  502    0  0.00000000000E+00  0.00000000000E+00  0.57032490069E+03  0.57032490069E+03  0.00000000000E+00 0.  1.
         -2   -1    0    0    0  501 -0.00000000000E+00 -0.00000000000E+00 -0.14883041233E+03  0.14883041233E+03  0.00000000000E+00 0. -1.
         25    1    1    2    0    0  0.19143218299E+03 -0.92717364857E+02  0.44124756783E+03  0.50553655313E+03  0.12500000000E+03 0.  0.
         21    1    1    2  502  501 -0.19143218299E+03  0.92717364857E+02 -0.19753079469E+02  0.21361875990E+03  0.00000000000E+00 0. -1.
<mgrwt>
<rscale>  3 0.58268925E+03</rscale>
<asrwt>0</asrwt>
<pdfrwt beam="1">  1        2 0.87742291E-01 0.58268925E+03</pdfrwt>
<pdfrwt beam="2">  1       -2 0.22896987E-01 0.58268925E+03</pdfrwt>
<totfact> 0.88887223E+02</totfact>
</mgrwt>
</event>
<event>
 4    0  0.1264838E-002  0.9402539E+03  0.7546771E-02  0.9376615E-01
          3   -1    0    0  502    0  0.00000000000E+00  0.00000000000E+00  0.23495577313E+03  0.23495577313E+03  0.00000000000E+00 0. -1.
         -3   -1    0    0    0  501 -0.00000000000E+00 -0.00000000000E+00 -0.94068486629E+03  0.94068486629E+03  0.00000000000E+00 0.  1.
         25    1    1    2    0    0  0.45118076912E+03  0.58849378076E+02 -0.26026416826E+03  0.53887825434E+03  0.12500000000E+03 0.  0.
         21    1    1    2  502  501 -0.45118076912E+03 -0.58849378076E+02 -0.44546492491E+03  0.63676238507E+03  0.00000000000E+00 0.  1.
<mgrwt>
<rscale>  3 0.94025388E+03</rscale>
<asrwt>0</asrwt>
<pdfrwt beam="1">  1        3 0.36147041E-01 0.94025388E+03</pdfrwt>
<pdfrwt beam="2">  1       -3 0.14472075E+00 0.94025388E+03</pdfrwt>
<totfact> 0.70370905E+00</totfact>
</mgrwt>
</event>
<event>
 4    0  0.1264838E-002  0.6640377E+03  0.7546771E-02  0.9780789E-01
         -2   -1    0    0    0  501 -0.00000000000E+00  0.00000000000E+00  0.16892609503E+03  0.16892609503E+03  0.00000000000E+00 0. -1.
          2   -1    0    0  502    0  0.00000000000E+00 -0.00000000000E+00 -0.65257244309E+03  0.65257244309E+03  0.00000000000E+00 0.  1.
         25    1    1    2    0    0  0.25323048619E+03  0.15688208639E+03 -0.10493243498E+03  0.33966672500E+03  0.12500000000E+03 0.  0.
         21    1    1    2  502  501 -0.25323048619E+03 -0.15688208639E+03 -0.37871391308E+03  0.48183181311E+03  0.00000000000E+00 0.  1.
<mgrwt>
<rscale>  3 0.66403769E+03</rscale>
<asrwt>0</asrwt>
<pdfrwt beam="1">  1        2 0.10039576E+00 0.66403769E+03</pdfrwt>
<pdfrwt beam="2">  1       -2 0.25988630E-01 0.66403769E+03</pdfrwt>
<totfact> 0.60118619E+02</totfact>
</mgrwt>
</event>
<event>
 4    0  0.1264838E-002  0.5025912E+03  0.7546771E-02  0.1013105E+00
         -2   -1    0    0    0  501 -0.00000000000E+00  0.00000000000E+00  0.31824825523E+02  0.31824825523E+02  0.00000000000E+00 0. -1.
          2   -1    0    0  502    0  0.00000000000E+00 -0.00000000000E+00 -0.19842831998E+04  0.19842831998E+04  0.00000000000E+00 0.  1.
         25    1    1    2    0    0 -0.20956430451E+03 -0.72488077772E+02 -0.13577025880E+04  0.13813591266E+04  0.12500000000E+03 0.  0.
         21    1    1    2  502  501  0.20956430451E+03  0.72488077772E+02 -0.59475578636E+03  0.63474889881E+03  0.00000000000E+00 0. -1.
<mgrwt>
<rscale>  3 0.50259115E+03</rscale>
<asrwt>0</asrwt>
<pdfrwt beam="1">  1        2 0.30527442E+00 0.50259115E+03</pdfrwt>
<pdfrwt beam="2">  1       -2 0.48961257E-02 0.50259115E+03</pdfrwt>
<totfact> 0.15067012E+03</totfact>
</mgrwt>
</event>
<event>
 4    0  0.1264838E-002  0.6101344E+03  0.7546771E-02  0.9884601E-01
         -3   -1    0    0    0  501 -0.00000000000E+00  0.00000000000E+00  0.24325869848E+03  0.24325869848E+03  0.00000000000E+00 0. -1.
          3   -1    0    0  502    0  0.00000000000E+00 -0.00000000000E+00 -0.38258032777E+03  0.38258032777E+03  0.00000000000E+00 0.  1.
         25    1    1    2    0    0  0.14752041364E+03  0.25067552231E+03 -0.43266477733E+02  0.31952695977E+03  0.12500000000E+03 0.  0.
         21    1    1    2  502  501 -0.14752041364E+03 -0.25067552231E+03 -0.96055151554E+02  0.30631206647E+03  0.00000000000E+00 0.  1.
<mgrwt>
<rscale>  3 0.61013439E+03</rscale>
<asrwt>0</asrwt>
<pdfrwt beam="1">  1        3 0.58858512E-01 0.61013439E+03</pdfrwt>
<pdfrwt beam="2">  1       -3 0.37424415E-01 0.61013439E+03</pdfrwt>
<totfact> 0.52662828E+01</totfact>
</mgrwt>
</event>
<event>
 4    0  0.1264838E-002  0.6481566E+03  0.7546771E-02  0.9810244E-01
         -2   -1    0    0    0  501 -0.00000000000E+00  0.00000000000E+00  0.21627997543E+02  0.21627997543E+02  0.00000000000E+00 0.  1.
          2   -1    0    0  502    0  0.00000000000E+00 -0.00000000000E+00 -0.48560544885E+04  0.48560544885E+04  0.00000000000E+00 0. -1.
         25    1    1    2    0    0  0.23894190832E+03  0.44036882293E+01 -0.40168481283E+04  0.40258920147E+04  0.12500000000E+03 0.  0.
         21    1    1    2  502  501 -0.23894190832E+03 -0.44036882293E+01 -0.81757836263E+03  0.85179047134E+03  0.00000000000E+00 0.  1.
<mgrwt>
<rscale>  3 0.64815657E+03</rscale>
<asrwt>0</asrwt>
<pdfrwt beam="1">  1        2 0.74708500E+00 0.64815657E+03</pdfrwt>
<pdfrwt beam="2">  1       -2 0.33273856E-02 0.64815657E+03</pdfrwt>
<totfact> 0.23552261E+01</totfact>
</mgrwt>
</event>
<event>
 4    0  0.1264838E-002  0.4487983E+03  0.7546771E-02  0.1028081E+00
          1   -1    0    0  502    0  0.00000000000E+00  0.00000000000E+00  0.17279765134E+03  0.17279765134E+03  0.00000000000E+00 0.  1.
         -1   -1    0    0    0  501 -0.00000000000E+00 -0.00000000000E+00 -0.29141007263E+03  0.29141007263E+03  0.00000000000E+00 0. -1.
         25    1    1    2    0    0 -0.18671454967E+03 -0.81339790655E+02 -0.10214949482E+03  0.25988074937E+03  0.12500000000E+03 0.  0.
         21    1    1    2  502  501  0.18671454967E+03  0.81339790655E+02 -0.16462926478E+02  0.20432697460E+03  0.00000000000E+00 0. -1.
<mgrwt>
<rscale>  3 0.44879829E+03</rscale>
<asrwt>0</asrwt>
<pdfrwt beam="1">  1        1 0.26584254E-01 0.44879829E+03</pdfrwt>
<pdfrwt beam="2">  1       -1 0.44832319E-01 0.44879829E+03</pdfrwt>
<totfact> 0.89147221E+02</totfact>
</mgrwt>
</event>
<event>
 4    0  0.1264838E-002  0.8218127E+03  0.7546771E-02  0.9528970E-01
         -1   -1    0    0    0  501 -0.00000000000E+00  0.00000000000E+00  0.13666946571E+03  0.13666946571E+03  0.00000000000E+00 0.  1.
          1   -1    0    0  502    0  0.00000000000E+00 -0.00000000000E+00 -0.12354188665E+04  0.12354188665E+04  0.00000000000E+00 0. -1.
         25    1    1    2    0    0  0.25407113410E+03 -0.27607354960E+03 -0.80027552342E+03  0.89265595800E+03  0.12500000000E+03 0.  0.
         21    1    1    2  502  501 -0.25407113410E+03  0.27607354960E+03 -0.29847387736E+03  0.47943237421E+03  0.00000000000E+00 0.  1.
<mgrwt>
<rscale>  3 0.82181272E+03</rscale>
<asrwt>0</asrwt>
<pdfrwt beam="1">  1        1 0.19006444E+00 0.82181272E+03</pdfrwt>
<pdfrwt beam="2">  1       -1 0.21026072E-01 0.82181272E+03</pdfrwt>
<totfact> 0.19131857E+02</totfact>
</mgrwt>
</event>
<event>
 4    0  0.1264838E-002  0.7028548E+03  0.7546771E-02  0.9712363E-01
          2   -1    0    0  502    0  0.00000000000E+00  0.00000000000E+00  0.54500743186E+03  0.54500743186E+03  0.00000000000E+00 0. -1.
         -2   -1    0    0    0  501 -0.00000000000E+00 -0.00000000000E+00 -0.22660461794E+03  0.22660461794E+03  0.00000000000E+00 0.  1.
         25    1    1    2    0    0  0.12527392497E+03 -0.28172021222E+03  0.32238630907E+03  0.46326856846E+03  0.12500000000E+03 0.  0.
         21    1    1    2  502  501 -0.12527392497E+03  0.28172021222E+03 -0.39834951621E+01  0.30834348134E+03  0.00000000000E+00 0.  1.
<mgrwt>
<rscale>  3 0.70285475E+03</rscale>
<asrwt>0</asrwt>
<pdfrwt beam="1">  1        2 0.83847297E-01 0.70285475E+03</pdfrwt>
<pdfrwt beam="2">  1       -2 0.34862249E-01 0.70285475E+03</pdfrwt>
<totfact> 0.43256147E+02</totfact>
</mgrwt>
</event>
<event>
 4    0  0.1264838E-002  0.4735967E+03  0.7546771E-02  0.1020910E+00
         -2   -1    0    0    0  501 -0.00000000000E+00  0.00000000000E+00  0.38951025692E+02  0.38951025692E+02  0.00000000000E+00 0.  1.
          2   -1    0    0  502    0  0.00000000000E+00 -0.00000000000E+00 -0.14395886956E+04  0.14395886956E+04  0.00000000000E+00 0. -1.
         25    1    1    2    0    0 -0.21268488388E+03 -0.31999237362E+02 -0.89798817881E+03  0.93180823151E+03  0.12500000000E+03 0.  0.
         21    1    1    2  502  501  0.21268488388E+03  0.31999237362E+02 -0.50264949111E+03  0.54673148980E+03  0.00000000000E+00 0.  1.
<mgrwt>
<rscale>  3 0.47359669E+03</rscale>
<asrwt>0</asrwt>
<pdfrwt beam="1">  1        2 0.22147520E+00 0.47359669E+03</pdfrwt>
<pdfrwt beam="2">  1       -2 0.59924649E-02 0.47359669E+03</pdfrwt>
<totfact> 0.21731759E+03</totfact>
</mgrwt>
</event>
<event>
 4    0  0.1264838E-002  0.5605206E+03  0.7546771E-02  0.9990877E-01
         -1   -1    0    0    0  501 -0.00000000000E+00  0.00000000000E+00  0.13318666128E+03  0.13318666128E+03  0.00000000000E+00 0.  1.
          1   -1    0    0  502    0  0.00000000000E+00 -0.00000000000E+00 -0.58974256282E+03  0.58974256282E+03  0.00000000000E+00 0. -1.
         25    1    1    2    0    0  0.26514971173E+03  0.32071779143E+01 -0.20769929789E+03  0.35927517861E+03  0.12500000000E+03 0.  0.
         21    1    1    2  502  501 -0.26514971173E+03 -0.32071779143E+01 -0.24885660364E+03  0.36365404549E+03  0.00000000000E+00 0. -1.
<mgrwt>
<rscale>  3 0.56052063E+03</rscale>
<asrwt>0</asrwt>
<pdfrwt beam="1">  1        1 0.90729625E-01 0.56052063E+03</pdfrwt>
<pdfrwt beam="2">  1       -1 0.20490256E-01 0.56052063E+03</pdfrwt>
<totfact> 0.69518119E+02</totfact>
</mgrwt>
</event>
<event>
 4    0  0.1264838E-002  0.6551241E+03  0.7546771E-02  0.9797211E-01
          2   -1    0    0  502    0  0.00000000000E+00  0.00000000000E+00  0.11997290129E+04  0.11997290129E+04  0.00000000000E+00 0.  1.
         -2   -1    0    0    0  501 -0.00000000000E+00 -0.00000000000E+00 -0.89434272987E+02  0.89434272987E+02  0.00000000000E+00 0. -1.
         25    1    1    2    0    0  0.28002370994E+03  0.61051457498E+02  0.31514436660E+03  0.44393865611E+03  0.12500000000E+03 0.  0.
         21    1    1    2  502  501 -0.28002370994E+03 -0.61051457498E+02  0.79515037328E+03  0.84522462974E+03  0.00000000000E+00 0. -1.
<mgrwt>
<rscale>  3 0.65512409E+03</rscale>
<asrwt>0</asrwt>
<pdfrwt beam="1">  1        2 0.18457368E+00 0.65512409E+03</pdfrwt>
<pdfrwt beam="2">  1       -2 0.13759120E-01 0.65512409E+03</pdfrwt>
<totfact> 0.77605951E+02</totfact>
</mgrwt>
</event>
<event>
 4    0  0.1264838E-002  0.4677024E+03  0.7546771E-02  0.1022571E+00
          2   -1    0    0  502    0  0.00000000000E+00  0.00000000000E+00  0.18923210866E+03  0.18923210866E+03  0.00000000000E+00 0. -1.
         -2   -1    0    0    0  501 -0.00000000000E+00 -0.00000000000E+00 -0.28899102562E+03  0.28899102562E+03  0.00000000000E+00 0.  1.
         25    1    1    2    0    0  0.18813173656E+03 -0.95828490833E+02 -0.10534092057E+03  0.26701752659E+03  0.12500000000E+03 0.  0.
         21    1    1    2  502  501 -0.18813173656E+03  0.95828490833E+02  0.55820036106E+01  0.21120560770E+03  0.00000000000E+00 0.  1.
<mgrwt>
<rscale>  3 0.46770239E+03</rscale>
<asrwt>0</asrwt>
<pdfrwt beam="1">  1        2 0.29112632E-01 0.46770239E+03</pdfrwt>
<pdfrwt beam="2">  1       -2 0.44460158E-01 0.46770239E+03</pdfrwt>
<totfact> 0.88562470E+02</totfact>
</mgrwt>
</event>
<event>
 4    0  0.1264838E-002  0.5517532E+03  0.7546771E-02  0.1001089E+00
          1   -1    0    0  502    0  0.00000000000E+00  0.00000000000E+00  0.94153351412E+02  0.94153351412E+02  0.00000000000E+00 0.  1.
         -1   -1    0    0    0  501 -0.00000000000E+00 -0.00000000000E+00 -0.80833964790E+03  0.80833964790E+03  0.00000000000E+00 0. -1.
         25    1    1    2    0    0 -0.17808358985E+03  0.18508755225E+03 -0.29323372211E+03  0.40936802849E+03  0.12500000000E+03 0.  0.
         21    1    1    2  502  501  0.17808358985E+03 -0.18508755225E+03 -0.42095257438E+03  0.49312497082E+03  0.00000000000E+00 0. -1.
<mgrwt>
<rscale>  3 0.55175316E+03</rscale>
<asrwt>0</asrwt>
<pdfrwt beam="1">  1        1 0.14485131E-01 0.55175316E+03</pdfrwt>
<pdfrwt beam="2">  1       -1 0.12435995E+00 0.55175316E+03</pdfrwt>
<totfact> 0.23401637E+02</totfact>
</mgrwt>
</event>
<event>
 4    0  0.1264838E-002  0.5527551E+03  0.7546771E-02  0.1000858E+00
         -2   -1    0    0    0  501 -0.00000000000E+00  0.00000000000E+00  0.26500480004E+02  0.26500480004E+02  0.00000000000E+00 0.  1.
          2   -1    0    0  502    0  0.00000000000E+00 -0.00000000000E+00 -0.28823840721E+04  0.28823840721E+04  0.00000000000E+00 0. -1.
         25    1    1    2    0    0 -0.20237753044E+03 -0.15897460730E+03 -0.17663048884E+04  0.17893260042E+04  0.12500000000E+03 0.  0.
         21    1    1    2  502  501  0.20237753044E+03  0.15897460730E+03 -0.10895787037E+04  0.11195585479E+04  0.00000000000E+00 0.  1.
<mgrwt>
<rscale>  3 0.55275514E+03</rscale>
<asrwt>0</asrwt>
<pdfrwt beam="1">  1        2 0.44344329E+00 0.55275514E+03</pdfrwt>
<pdfrwt beam="2">  1       -2 0.40770007E-02 0.55275514E+03</pdfrwt>
<totfact> 0.62519542E+02</totfact>
</mgrwt>
</event>
<event>
 4    0  0.1264838E-002  0.7725149E+03  0.7546771E-02  0.9600676E-01
         -2   -1    0    0    0  501 -0.00000000000E+00  0.00000000000E+00  0.86450577525E+02  0.86450577525E+02  0.00000000000E+00 0. -1.
          2   -1    0    0  502    0  0.00000000000E+00 -0.00000000000E+00 -0.17257814112E+04  0.17257814112E+04  0.00000000000E+00 0.  1.
         25    1    1    2    0    0 -0.11784163219E+02  0.25659288523E+03 -0.19651597031E+03  0.34673087812E+03  0.12500000000E+03 0.  0.
         21    1    1    2  502  501  0.11784163219E+02 -0.25659288523E+03 -0.14428148634E+04  0.14655011107E+04  0.00000000000E+00 0.  1.
<mgrwt>
<rscale>  3 0.77251485E+03</rscale>
<asrwt>0</asrwt>
<pdfrwt beam="1">  1        2 0.26550484E+00 0.77251485E+03</pdfrwt>
<pdfrwt beam="2">  1       -2 0.13300089E-01 0.77251485E+03</pdfrwt>
<totfact> 0.41332255E+02</totfact>
</mgrwt>
</event>
<event>
 4    0  0.1264838E-002  0.5807424E+03  0.7546771E-02  0.9946185E-01
         -2   -1    0    0    0  501 -0.00000000000E+00  0.00000000000E+00  0.21072810085E+02  0.21072810085E+02  0.00000000000E+00 0. -1.
          2   -1    0    0  502    0  0.00000000000E+00 -0.00000000000E+00 -0.40011485373E+04  0.40011485373E+04  0.00000000000E+00 0.  1.
         25    1    1    2    0    0 -0.21041821734E+03 -0.12764948612E+03 -0.12030498243E+04  0.12343111833E+04  0.12500000000E+03 0.  0.
         21    1    1    2  502  501  0.21041821734E+03  0.12764948612E+03 -0.27770259029E+04  0.27879101641E+04  0.00000000000E+00 0.  1.
<mgrwt>
<rscale>  3 0.58074243E+03</rscale>
<asrwt>0</asrwt>
<pdfrwt beam="1">  1        2 0.61556077E+00 0.58074243E+03</pdfrwt>
<pdfrwt beam="2">  1       -2 0.32419737E-02 0.58074243E+03</pdfrwt>
<totfact> 0.15558724E+02</totfact>
</mgrwt>
</event>
<event>
 4    0  0.1264838E-002  0.7500189E+03  0.7546771E-02  0.9635321E-01
          2   -1    0    0  502    0  0.00000000000E+00  0.00000000000E+00  0.73234878863E+03  0.73234878863E+03  0.00000000000E+00 0. -1.
         -2   -1    0    0    0  501 -0.00000000000E+00 -0.00000000000E+00 -0.19202885980E+03  0.19202885980E+03  0.00000000000E+00 0.  1.
         25    1    1    2    0    0 -0.12424717721E+02 -0.21584868644E+03  0.63948038711E+03  0.68651671104E+03  0.12500000000E+03 0.  0.
         21    1    1    2  502  501  0.12424717721E+02  0.21584868644E+03 -0.99160458274E+02  0.23786093739E+03  0.00000000000E+00 0.  1.
<mgrwt>
<rscale>  3 0.75001894E+03</rscale>
<asrwt>0</asrwt>
<pdfrwt beam="1">  1        2 0.11266904E+00 0.75001894E+03</pdfrwt>
<pdfrwt beam="2">  1       -2 0.29542902E-01 0.75001894E+03</pdfrwt>
<totfact> 0.41026222E+02</totfact>
</mgrwt>
</event>
<event>
 4    0  0.1264838E-002  0.5341674E+03  0.7546771E-02  0.1005226E+00
         -1   -1    0    0    0  501 -0.00000000000E+00  0.00000000000E+00  0.83297710018E+02  0.83297710018E+02  0.00000000000E+00 0.  1.
          1   -1    0    0  502    0  0.00000000000E+00 -0.00000000000E+00 -0.85637061459E+03  0.85637061459E+03  0.00000000000E+00 0. -1.
         25    1    1    2    0    0 -0.54585685293E+02  0.22588085945E+03 -0.23415170645E+03  0.35278007504E+03  0.12500000000E+03 0.  0.
         21    1    1    2  502  501  0.54585685293E+02 -0.22588085945E+03 -0.53892119812E+03  0.58688824958E+03  0.00000000000E+00 0.  1.
<mgrwt>
<rscale>  3 0.53416743E+03</rscale>
<asrwt>0</asrwt>
<pdfrwt beam="1">  1        1 0.13174933E+00 0.53416743E+03</pdfrwt>
<pdfrwt beam="2">  1       -1 0.12815032E-01 0.53416743E+03</pdfrwt>
<totfact> 0.84942614E+02</totfact>
</mgrwt>
</event>
<event>
 4    0  0.1264838E-002  0.5189937E+03  0.7546771E-02  0.1008937E+00
          1   -1    0    0  502    0  0.00000000000E+00  0.00000000000E+00  0.31788578026E+03  0.31788578026E+03  0.00000000000E+00 0. -1.
         -1   -1    0    0    0  501 -0.00000000000E+00 -0.00000000000E+00 -0.21183273969E+03  0.21183273969E+03  0.00000000000E+00 0.  1.
         25    1    1    2    0    0  0.66970627122E+02  0.22909539877E+03  0.10994631861E+03  0.29100336701E+03  0.12500000000E+03 0.  0.
         21    1    1    2  502  501 -0.66970627122E+02 -0.22909539877E+03 -0.38932780351E+01  0.23871515295E+03  0.00000000000E+00 0. -1.
<mgrwt>
<rscale>  3 0.51899370E+03</rscale>
<asrwt>0</asrwt>
<pdfrwt beam="1">  1        1 0.48905505E-01 0.51899370E+03</pdfrwt>
<pdfrwt beam="2">  1       -1 0.32589652E-01 0.51899370E+03</pdfrwt>
<totfact> 0.72143287E+02</totfact>
</mgrwt>
</event>
<event>
 4    0  0.1264838E-002  0.5228723E+03  0.7546771E-02  0.1007976E+00
          2   -1    0    0  502    0  0.00000000000E+00  0.00000000000E+00  0.90275249121E+03  0.90275249121E+03  0.00000000000E+00 0.  1.
         -2   -1    0    0    0  501 -0.00000000000E+00 -0.00000000000E+00 -0.75711619189E+02  0.75711619189E+02  0.00000000000E+00 0. -1.
         25    1    1    2    0    0 -0.81930927481E+02 -0.21374432812E+03  0.26604992493E+03  0.37256794982E+03  0.12500000000E+03 0.  0.
         21    1    1    2  502  501  0.81930927481E+02  0.21374432812E+03  0.56099094710E+03  0.60589616058E+03  0.00000000000E+00 0.  1.
<mgrwt>
<rscale>  3 0.52287227E+03</rscale>
<asrwt>0</asrwt>
<pdfrwt beam="1">  1        2 0.13888499E+00 0.52287227E+03</pdfrwt>
<pdfrwt beam="2">  1       -2 0.11647942E-01 0.52287227E+03</pdfrwt>
<totfact> 0.15688406E+03</totfact>
</mgrwt>
</event>
<event>
 4    0  0.1264838E-002  0.1217998E+04  0.7546771E-02  0.9097247E-01
          3   -1    0    0  502    0  0.00000000000E+00  0.00000000000E+00  0.23438846044E+03  0.23438846044E+03  0.00000000000E+00 0.  1.
         -3   -1    0    0    0  501 -0.00000000000E+00 -0.00000000000E+00 -0.15823289287E+04  0.15823289287E+04  0.00000000000E+00 0. -1.
         25    1    1    2    0    0  0.55541235642E+03  0.21090528503E+03 -0.53083995961E+03  0.80646139872E+03  0.12500000000E+03 0.  0.
         21    1    1    2  502  501 -0.55541235642E+03 -0.21090528503E+03 -0.81710050863E+03  0.10102559904E+04  0.00000000000E+00 0. -1.
<mgrwt>
<rscale>  3 0.12179978E+04</rscale>
<asrwt>0</asrwt>
<pdfrwt beam="1">  1        3 0.36059764E-01 0.12179978E+04</pdfrwt>
<pdfrwt beam="2">  1       -3 0.24343521E+00 0.12179978E+04</pdfrwt>
<totfact> 0.15773853E+00</totfact>
</mgrwt>
</event>
<event>
 4    0  0.1264838E-002  0.4654266E+03  0.7546771E-02  0.1023219E+00
         -2   -1    0    0    0  501 -0.00000000000E+00  0.00000000000E+00  0.11587911308E+03  0.11587911308E+03  0.00000000000E+00 0.  1.
          2   -1    0    0  502    0  0.00000000000E+00 -0.00000000000E+00 -0.46734471372E+03  0.46734471372E+03  0.00000000000E+00 0. -1.
         25    1    1    2    0    0  0.12706071455E+03  0.15610868292E+03 -0.28636173035E+03  0.37167510903E+03  0.12500000000E+03 0.  0.
         21    1    1    2  502  501 -0.12706071455E+03 -0.15610868292E+03 -0.65103870285E+02  0.21154871777E+03  0.00000000000E+00 0.  1.
<mgrwt>
<rscale>  3 0.46542665E+03</rscale>
<asrwt>0</asrwt>
<pdfrwt beam="1">  1        2 0.71899188E-01 0.46542665E+03</pdfrwt>
<pdfrwt beam="2">  1       -2 0.17827556E-01 0.46542665E+03</pdfrwt>
<totfact> 0.17297232E+03</totfact>
</mgrwt>
</event>
<event>
 4    0  0.1264838E-002  0.5703618E+03  0.7546771E-02  0.9968878E-01
         -2   -1    0    0    0  501 -0.00000000000E+00  0.00000000000E+00  0.36393469333E+02  0.36393469333E+02  0.00000000000E+00 0. -1.
          2   -1    0    0  502    0  0.00000000000E+00 -0.00000000000E+00 -0.22346902889E+04  0.22346902889E+04  0.00000000000E+00 0.  1.
         25    1    1    2    0    0 -0.25693118206E+03 -0.86221725207E+02 -0.12155801778E+04  0.12516820631E+04  0.12500000000E+03 0.  0.
         21    1    1    2  502  501  0.25693118206E+03  0.86221725207E+02 -0.98271664173E+03  0.10194016952E+04  0.00000000000E+00 0.  1.
<mgrwt>
<rscale>  3 0.57036175E+03</rscale>
<asrwt>0</asrwt>
<pdfrwt beam="1">  1        2 0.34379845E+00 0.57036175E+03</pdfrwt>
<pdfrwt beam="2">  1       -2 0.55989962E-02 0.57036175E+03</pdfrwt>
<totfact> 0.89096391E+02</totfact>
</mgrwt>
</event>
<event>
 4    0  0.1264838E-002  0.6071780E+03  0.7546771E-02  0.9890625E-01
         -2   -1    0    0    0  501 -0.00000000000E+00  0.00000000000E+00  0.74928359340E+02  0.74928359340E+02  0.00000000000E+00 0.  1.
          2   -1    0    0  502    0  0.00000000000E+00 -0.00000000000E+00 -0.12300586885E+04  0.12300586885E+04  0.00000000000E+00 0. -1.
         25    1    1    2    0    0  0.24455115994E+02  0.24063954739E+03 -0.94869520898E+03  0.98699191689E+03  0.12500000000E+03 0.  0.
         21    1    1    2  502  501 -0.24455115994E+02 -0.24063954739E+03 -0.20643512020E+03  0.31799513097E+03  0.00000000000E+00 0. -1.
<mgrwt>
<rscale>  3 0.60717800E+03</rscale>
<asrwt>0</asrwt>
<pdfrwt beam="1">  1        2 0.18923979E+00 0.60717800E+03</pdfrwt>
<pdfrwt beam="2">  1       -2 0.11527440E-01 0.60717800E+03</pdfrwt>
<totfact> 0.10005680E+03</totfact>
</mgrwt>
</event>
<event>
 4    0  0.1264838E-002  0.7516700E+03  0.7546771E-02  0.9632734E-01
          1   -1    0    0  502    0  0.00000000000E+00  0.00000000000E+00  0.44421353936E+03  0.44421353936E+03  0.00000000000E+00 0. -1.
         -1   -1    0    0    0  501 -0.00000000000E+00 -0.00000000000E+00 -0.31798212519E+03  0.31798212519E+03  0.00000000000E+00 0.  1.
         25    1    1    2    0    0 -0.10811961510E+03  0.19347931493E+03  0.35948684323E+03  0.44043147813E+03  0.12500000000E+03 0.  0.
         21    1    1    2  502  501  0.10811961510E+03 -0.19347931493E+03 -0.23325542906E+03  0.32176418642E+03  0.00000000000E+00 0.  1.
<mgrwt>
<rscale>  3 0.75167005E+03</rscale>
<asrwt>0</asrwt>
<pdfrwt beam="1">  1        1 0.68340545E-01 0.75167005E+03</pdfrwt>
<pdfrwt beam="2">  1       -1 0.48920327E-01 0.75167005E+03</pdfrwt>
<totfact> 0.22081742E+02</totfact>
</mgrwt>
</event>
<event>
 4    0  0.1264838E-002  0.1078560E+04  0.7546771E-02  0.9226344E-01
         -1   -1    0    0    0  501 -0.00000000000E+00  0.00000000000E+00  0.44039835505E+03  0.44039835505E+03  0.00000000000E+00 0.  1.
          1   -1    0    0  502    0  0.00000000000E+00 -0.00000000000E+00 -0.66036351628E+03  0.66036351628E+03  0.00000000000E+00 0. -1.
         25    1    1    2    0    0 -0.46175810683E+03 -0.17091607847E+03  0.94258523080E+02  0.51666480843E+03  0.12500000000E+03 0.  0.
         21    1    1    2  502  501  0.46175810683E+03  0.17091607847E+03 -0.31422368432E+03  0.58409706290E+03  0.00000000000E+00 0. -1.
<mgrwt>
<rscale>  3 0.10785602E+04</rscale>
<asrwt>0</asrwt>
<pdfrwt beam="1">  1        1 0.10159439E+00 0.10785602E+04</pdfrwt>
<pdfrwt beam="2">  1       -1 0.67753593E-01 0.10785602E+04</pdfrwt>
<totfact> 0.65500288E+01</totfact>
</mgrwt>
</event>
<event>
 4    0  0.1264838E-002  0.8506827E+03  0.7546771E-02  0.9489421E-01
         -2   -1    0    0    0  501 -0.00000000000E+00  0.00000000000E+00  0.14267984519E+04  0.14267984519E+04  0.00000000000E+00 0. -1.
          2   -1    0    0  502    0  0.00000000000E+00 -0.00000000000E+00 -0.12679805425E+03  0.12679805425E+03  0.00000000000E+00 0.  1.
         25    1    1    2    0    0 -0.24079686356E+03 -0.74733173842E+02  0.59371712860E+02  0.28760767907E+03  0.12500000000E+03 0.  0.
         21    1    1    2  502  501  0.24079686356E+03  0.74733173842E+02  0.12406286848E+04  0.12659888271E+04  0.00000000000E+00 0. -1.
<mgrwt>
<rscale>  3 0.85068271E+03</rscale>
<asrwt>0</asrwt>
<pdfrwt beam="1">  1        2 0.19507394E-01 0.85068271E+03</pdfrwt>
<pdfrwt beam="2">  1       -2 0.21950744E+00 0.85068271E+03</pdfrwt>
<totfact> 0.29521843E+01</totfact>
</mgrwt>
</event>
<event>
 4    0  0.1264838E-002  0.5803504E+03  0.7546771E-02  0.9947033E-01
          1   -1    0    0  502    0  0.00000000000E+00  0.00000000000E+00  0.26202886401E+03  0.26202886401E+03  0.00000000000E+00 0.  1.
         -1   -1    0    0    0  501 -0.00000000000E+00 -0.00000000000E+00 -0.32134490007E+03  0.32134490007E+03  0.00000000000E+00 0. -1.
         25    1    1    2    0    0 -0.18803555915E+03  0.15907773037E+03  0.95747142318E+02  0.29232791702E+03  0.12500000000E+03 0.  0.
         21    1    1    2  502  501  0.18803555915E+03 -0.15907773037E+03 -0.15506317838E+03  0.29104584707E+03  0.00000000000E+00 0. -1.
<mgrwt>
<rscale>  3 0.58035037E+03</rscale>
<asrwt>0</asrwt>
<pdfrwt beam="1">  1        1 0.40312133E-01 0.58035037E+03</pdfrwt>
<pdfrwt beam="2">  1       -1 0.49437677E-01 0.58035037E+03</pdfrwt>
<totfact> 0.43433273E+02</totfact>
</mgrwt>
</event>
<event>
 4    0  0.1264838E-002  0.5112483E+03  0.7546771E-02  0.1010884E+00
          2   -1    0    0  502    0  0.00000000000E+00  0.00000000000E+00  0.23977814771E+03  0.23977814771E+03  0.00000000000E+00 0.  1.
         -2   -1    0    0    0  501 -0.00000000000E+00 -0.00000000000E+00 -0.27251740024E+03  0.27251740024E+03  0.00000000000E+00 0. -1.
         25    1    1    2    0    0  0.22079889406E+03 -0.80154503424E+01 -0.11213760091E+03  0.27751800050E+03  0.12500000000E+03 0.  0.
         21    1    1    2  502  501 -0.22079889406E+03  0.80154503424E+01  0.79398348383E+02  0.23477754745E+03  0.00000000000E+00 0.  1.
<mgrwt>
<rscale>  3 0.51124834E+03</rscale>
<asrwt>0</asrwt>
<pdfrwt beam="1">  1        2 0.36888946E-01 0.51124834E+03</pdfrwt>
<pdfrwt beam="2">  1       -2 0.41925754E-01 0.51124834E+03</pdfrwt>
<totfact> 0.76372496E+02</totfact>
</mgrwt>
</event>
<event>
 4    0  0.1264838E-002  0.9194018E+03  0.7546771E-02  0.9401648E-01
         -1   -1    0    0    0  501 -0.00000000000E+00  0.00000000000E+00  0.15191952779E+03  0.15191952779E+03  0.00000000000E+00 0.  1.
          1   -1    0    0  502    0  0.00000000000E+00 -0.00000000000E+00 -0.13910319497E+04  0.13910319497E+04  0.00000000000E+00 0. -1.
         25    1    1    2    0    0 -0.17127864984E+03 -0.10339998317E+03 -0.13097134829E+04  0.13307901186E+04  0.12500000000E+03 0.  0.
         21    1    1    2  502  501  0.17127864984E+03  0.10339998317E+03  0.70601060977E+02  0.21216135892E+03  0.00000000000E+00 0.  1.
<mgrwt>
<rscale>  3 0.91940180E+03</rscale>
<asrwt>0</asrwt>
<pdfrwt beam="1">  1        1 0.21400492E+00 0.91940180E+03</pdfrwt>
<pdfrwt beam="2">  1       -1 0.23372235E-01 0.91940180E+03</pdfrwt>
<totfact> 0.12334452E+02</totfact>
</mgrwt>
</event>
<event>
 4    0  0.1264838E-002  0.4736082E+03  0.7546771E-02  0.1020907E+00
          1   -1    0    0  502    0  0.00000000000E+00  0.00000000000E+00  0.71120055398E+03  0.71120055398E+03  0.00000000000E+00 0.  1.
         -1   -1    0    0    0  501 -0.00000000000E+00 -0.00000000000E+00 -0.78847198889E+02  0.78847198889E+02  0.00000000000E+00 0. -1.
         25    1    1    2    0    0 -0.20577366348E+03  0.15571594162E+02  0.20952144928E+03  0.31954579145E+03  0.12500000000E+03 0.  0.
         21    1    1    2  502  501  0.20577366348E+03 -0.15571594162E+02  0.42283190581E+03  0.47050196142E+03  0.00000000000E+00 0.  1.
<mgrwt>
<rscale>  3 0.47360816E+03</rscale>
<asrwt>0</asrwt>
<pdfrwt beam="1">  1        1 0.10941547E+00 0.47360816E+03</pdfrwt>
<pdfrwt beam="2">  1       -1 0.12130339E-01 0.47360816E+03</pdfrwt>
<totfact> 0.12403958E+03</totfact>
</mgrwt>
</event>
<event>
 4    0  0.1264838E-002  0.4761539E+03  0.7546771E-02  0.1020198E+00
          1   -1    0    0  502    0  0.00000000000E+00  0.00000000000E+00  0.17869263589E+04  0.17869263589E+04  0.00000000000E+00 0.  1.
         -1   -1    0    0    0  501 -0.00000000000E+00 -0.00000000000E+00 -0.31719619448E+02  0.31719619448E+02  0.00000000000E+00 0. -1.
         25    1    1    2    0    0 -0.12547126304E+03 -0.17828816428E+03  0.10912265598E+04  0.11197902090E+04  0.12500000000E+03 0.  0.
         21    1    1    2  502  501  0.12547126304E+03  0.17828816428E+03  0.66398017962E+03  0.69885576932E+03  0.00000000000E+00 0. -1.
<mgrwt>
<rscale>  3 0.47615386E+03</rscale>
<asrwt>0</asrwt>
<pdfrwt beam="1">  1        1 0.27491167E+00 0.47615386E+03</pdfrwt>
<pdfrwt beam="2">  1       -1 0.48799428E-02 0.47615386E+03</pdfrwt>
<totfact> 0.83344651E+02</totfact>
</mgrwt>
</event>
<event>
 4    0  0.1264838E-002  0.4986425E+03  0.7546771E-02  0.1014134E+00
          2   -1    0    0  502    0  0.00000000000E+00  0.00000000000E+00  0.22372820966E+04  0.22372820966E+04  0.00000000000E+00 0.  1.
         -2   -1    0    0    0  501 -0.00000000000E+00 -0.00000000000E+00 -0.27784201998E+02  0.27784201998E+02  0.00000000000E+00 0. -1.
         25    1    1    2    0    0  0.19825859072E+03  0.11020590350E+03  0.91954042118E+03  0.95531743214E+03  0.12500000000E+03 0.  0.
         21    1    1    2  502  501 -0.19825859072E+03 -0.11020590350E+03  0.12899574735E+04  0.13097488665E+04  0.00000000000E+00 0.  1.
<mgrwt>
<rscale>  3 0.49864255E+03</rscale>
<asrwt>0</asrwt>
<pdfrwt beam="1">  1        2 0.34419710E+00 0.49864255E+03</pdfrwt>
<pdfrwt beam="2">  1       -2 0.42744944E-02 0.49864255E+03</pdfrwt>
<totfact> 0.13551055E+03</totfact>
</mgrwt>
</event>
<event>
 4    0  0.1264838E-002  0.4850551E+03  0.7546771E-02  0.1017755E+00
          2   -1    0    0  502    0  0.00000000000E+00  0.00000000000E+00  0.16616608545E+04  0.16616608545E+04  0.00000000000E+00 0.  1.
         -2   -1    0    0    0  501 -0.00000000000E+00 -0.00000000000E+00 -0.35398083260E+02  0.35398083260E+02  0.00000000000E+00 0. -1.
         25    1    1    2    0    0  0.29968941806E+02  0.20515480595E+03  0.54877216842E+03  0.59980207127E+03  0.12500000000E+03 0.  0.
         21    1    1    2  502  501 -0.29968941806E+02 -0.20515480595E+03  0.10774906028E+04  0.10972568665E+04  0.00000000000E+00 0.  1.
<mgrwt>
<rscale>  3 0.48505509E+03</rscale>
<asrwt>0</asrwt>
<pdfrwt beam="1">  1        2 0.25564007E+00 0.48505509E+03</pdfrwt>
<pdfrwt beam="2">  1       -2 0.54458602E-02 0.48505509E+03</pdfrwt>
<totfact> 0.19072690E+03</totfact>
</mgrwt>
</event>
<event>
 4    0  0.1264838E-002  0.5127047E+03  0.7546771E-02  0.1010515E+00
         -1   -1    0    0    0  501 -0.00000000000E+00  0.00000000000E+00  0.23643345286E+03  0.23643345286E+03  0.00000000000E+00 0. -1.
          1   -1    0    0  502    0  0.00000000000E+00 -0.00000000000E+00 -0.27794941367E+03  0.27794941367E+03  0.00000000000E+00 0.  1.
         25    1    1    2    0    0 -0.22727811034E+03 -0.25404505807E+02 -0.98632343795E+02  0.27866479433E+03  0.12500000000E+03 0.  0.
         21    1    1    2  502  501  0.22727811034E+03  0.25404505807E+02  0.57116382983E+02  0.23571807220E+03  0.00000000000E+00 0. -1.
<mgrwt>
<rscale>  3 0.51270475E+03</rscale>
<asrwt>0</asrwt>
<pdfrwt beam="1">  1        1 0.42761448E-01 0.51270475E+03</pdfrwt>
<pdfrwt beam="2">  1       -1 0.36374377E-01 0.51270475E+03</pdfrwt>
<totfact> 0.70634503E+02</totfact>
</mgrwt>
</event>
<event>
 4    0  0.1264838E-002  0.6676235E+03  0.7546771E-02  0.9774261E-01
         -1   -1    0    0    0  501 -0.00000000000E+00  0.00000000000E+00  0.17760426330E+03  0.17760426330E+03  0.00000000000E+00 0. -1.
          1   -1    0    0  502    0  0.00000000000E+00 -0.00000000000E+00 -0.62740762061E+03  0.62740762061E+03  0.00000000000E+00 0.  1.
         25    1    1    2    0    0  0.29953392675E+03 -0.10735789758E+03 -0.29317644987E+03  0.45035954770E+03  0.12500000000E+03 0.  0.
         21    1    1    2  502  501 -0.29953392675E+03  0.10735789758E+03 -0.15662690744E+03  0.35465233621E+03  0.00000000000E+00 0. -1.
<mgrwt>
<rscale>  3 0.66762345E+03</rscale>
<asrwt>0</asrwt>
<pdfrwt beam="1">  1        1 0.96524250E-01 0.66762345E+03</pdfrwt>
<pdfrwt beam="2">  1       -1 0.27323733E-01 0.66762345E+03</pdfrwt>
<totfact> 0.38979742E+02</totfact>
</mgrwt>
</event>
<event>
 4    0  0.1264838E-002  0.4734012E+03  0.7546771E-02  0.1020965E+00
          1   -1    0    0  502    0  0.00000000000E+00  0.00000000000E+00  0.27300985503E+04  0.27300985503E+04  0.00000000000E+00 0.  1.
         -1   -1    0    0    0  501 -0.00000000000E+00 -0.00000000000E+00 -0.20522037005E+02  0.20522037005E+02  0.00000000000E+00 0. -1.
         25    1    1    2    0    0 -0.96136430247E+02  0.19135712003E+03  0.17470647379E+04  0.17645735913E+04  0.12500000000E+03 0.  0.
         21    1    1    2  502  501  0.96136430247E+02 -0.19135712003E+03  0.96251177539E+03  0.98604699603E+03  0.00000000000E+00 0. -1.
<mgrwt>
<rscale>  3 0.47340124E+03</rscale>
<asrwt>0</asrwt>
<pdfrwt beam="1">  1        1 0.42001487E+00 0.47340124E+03</pdfrwt>
<pdfrwt beam="2">  1       -1 0.31572386E-02 0.47340124E+03</pdfrwt>
<totfact> 0.37674103E+02</totfact>
</mgrwt>
</event>
<event>
 4    0  0.1264838E-002  0.7356876E+03  0.7546771E-02  0.9658076E-01
         -1   -1    0    0    0  501 -0.00000000000E+00  0.00000000000E+00  0.17149412398E+03  0.17149412398E+03  0.00000000000E+00 0.  1.
          1   -1    0    0  502    0  0.00000000000E+00 -0.00000000000E+00 -0.78900116078E+03  0.78900116078E+03  0.00000000000E+00 0. -1.
         25    1    1    2    0    0  0.95491908080E+02  0.32159298597E+03 -0.15740222216E+03  0.39107699072E+03  0.12500000000E+03 0.  0.
         21    1    1    2  502  501 -0.95491908080E+02 -0.32159298597E+03 -0.46010481464E+03  0.56941829404E+03  0.00000000000E+00 0. -1.
<mgrwt>
<rscale>  3 0.73568760E+03</rscale>
<asrwt>0</asrwt>
<pdfrwt beam="1">  1        1 0.12138480E+00 0.73568760E+03</pdfrwt>
<pdfrwt beam="2">  1       -1 0.26383711E-01 0.73568760E+03</pdfrwt>
<totfact> 0.29168641E+02</totfact>
</mgrwt>
</event>
<event>
 4    0  0.1264838E-002  0.4630332E+03  0.7546771E-02  0.1023905E+00
          1   -1    0    0  502    0  0.00000000000E+00  0.00000000000E+00  0.12956855051E+03  0.12956855051E+03  0.00000000000E+00 0.  1.
         -1   -1    0    0    0  501 -0.00000000000E+00 -0.00000000000E+00 -0.41368018778E+03  0.41368018778E+03  0.00000000000E+00 0. -1.
         25    1    1    2    0    0  0.60430562591E+02  0.20072471800E+03 -0.20655396314E+03  0.31973708731E+03  0.12500000000E+03 0.  0.
         21    1    1    2  502  501 -0.60430562591E+02 -0.20072471800E+03 -0.77557674134E+02  0.22351165099E+03  0.00000000000E+00 0.  1.
<mgrwt>
<rscale>  3 0.46303323E+03</rscale>
<asrwt>0</asrwt>
<pdfrwt beam="1">  1        1 0.19933623E-01 0.46303323E+03</pdfrwt>
<pdfrwt beam="2">  1       -1 0.63643106E-01 0.46303323E+03</pdfrwt>
<totfact> 0.66552742E+02</totfact>
</mgrwt>
</event>
<event>
 4    0  0.1264838E-002  0.5991412E+03  0.7546771E-02  0.9907189E-01
          2   -1    0    0  502    0  0.00000000000E+00  0.00000000000E+00  0.10274781908E+03  0.10274781908E+03  0.00000000000E+00 0.  1.
         -2   -1    0    0    0  501 -0.00000000000E+00 -0.00000000000E+00 -0.87342532063E+03  0.87342532063E+03  0.00000000000E+00 0. -1.
         25    1    1    2    0    0  0.27085470105E+03 -0.50618133319E+02 -0.27407387440E+03  0.40824741657E+03  0.12500000000E+03 0.  0.
         21    1    1    2  502  501 -0.27085470105E+03  0.50618133319E+02 -0.49660362715E+03  0.56792572314E+03  0.00000000000E+00 0. -1.
<mgrwt>
<rscale>  3 0.59914121E+03</rscale>
<asrwt>0</asrwt>
<pdfrwt beam="1">  1        2 0.15807356E-01 0.59914121E+03</pdfrwt>
<pdfrwt beam="2">  1       -2 0.13437313E+00 0.59914121E+03</pdfrwt>
<totfact> 0.15245834E+02</totfact>
</mgrwt>
</event>
<event>
 4    0  0.1264838E-002  0.7035042E+03  0.7546771E-02  0.9711258E-01
         -3   -1    0    0    0  501 -0.00000000000E+00  0.00000000000E+00  0.33230042103E+03  0.33230042103E+03  0.00000000000E+00 0.  1.
          3   -1    0    0  502    0  0.00000000000E+00 -0.00000000000E+00 -0.37234237334E+03  0.37234237334E+03  0.00000000000E+00 0. -1.
         25    1    1    2    0    0  0.23007686136E+02  0.33901671911E+03 -0.44747378497E+02  0.36481367482E+03  0.12500000000E+03 0.  0.
         21    1    1    2  502  501 -0.23007686136E+02 -0.33901671911E+03  0.47054261934E+01  0.33982911955E+03  0.00000000000E+00 0.  1.
<mgrwt>
<rscale>  3 0.70350416E+03</rscale>
<asrwt>0</asrwt>
<pdfrwt beam="1">  1        3 0.57283442E-01 0.70350416E+03</pdfrwt>
<pdfrwt beam="2">  1       -3 0.51123142E-01 0.70350416E+03</pdfrwt>
<totfact> 0.29907471E+01</totfact>
</mgrwt>
</event>
<event>
 4    0  0.1264838E-002  0.6653847E+03  0.7546771E-02  0.9778331E-01
          2   -1    0    0  502    0  0.00000000000E+00  0.00000000000E+00  0.21026421793E+04  0.21026421793E+04  0.00000000000E+00 0. -1.
         -2   -1    0    0    0  501 -0.00000000000E+00 -0.00000000000E+00 -0.52640537183E+02  0.52640537183E+02  0.00000000000E+00 0.  1.
         25    1    1    2    0    0  0.23355391726E+03  0.15045337099E+03  0.15817212593E+04  0.16107919764E+04  0.12500000000E+03 0.  0.
         21    1    1    2  502  501 -0.23355391726E+03 -0.15045337099E+03  0.46828038282E+03  0.54449074009E+03  0.00000000000E+00 0. -1.
<mgrwt>
<rscale>  3 0.66538474E+03</rscale>
<asrwt>0</asrwt>
<pdfrwt beam="1">  1        2 0.32348335E+00 0.66538474E+03</pdfrwt>
<pdfrwt beam="2">  1       -2 0.80985458E-02 0.66538474E+03</pdfrwt>
<totfact> 0.58340476E+02</totfact>
</mgrwt>
</event>
<event>
 4    0  0.1264838E-002  0.4649312E+03  0.7546771E-02  0.1023361E+00
          1   -1    0    0  502    0  0.00000000000E+00  0.00000000000E+00  0.24935302078E+03  0.24935302078E+03  0.00000000000E+00 0. -1.
         -1   -1    0    0    0  501 -0.00000000000E+00 -0.00000000000E+00 -0.21672188047E+03  0.21672188047E+03  0.00000000000E+00 0.  1.
         25    1    1    2    0    0  0.18383723915E+03 -0.80077611353E+02 -0.62082720705E+02  0.24431090551E+03  0.12500000000E+03 0.  0.
         21    1    1    2  502  501 -0.18383723915E+03  0.80077611353E+02  0.94713861011E+02  0.22176399574E+03  0.00000000000E+00 0. -1.
<mgrwt>
<rscale>  3 0.46493120E+03</rscale>
<asrwt>0</asrwt>
<pdfrwt beam="1">  1        1 0.38362003E-01 0.46493120E+03</pdfrwt>
<pdfrwt beam="2">  1       -1 0.33341828E-01 0.46493120E+03</pdfrwt>
<totfact> 0.94672302E+02</totfact>
</mgrwt>
</event>
<event>
 4    0  0.1264838E-002  0.7787212E+03  0.7546771E-02  0.9591338E-01
          2   -1    0    0  502    0  0.00000000000E+00  0.00000000000E+00  0.14176754478E+04  0.14176754478E+04  0.00000000000E+00 0.  1.
         -2   -1    0    0    0  501 -0.00000000000E+00 -0.00000000000E+00 -0.10693680305E+03  0.10693680305E+03  0.00000000000E+00 0. -1.
         25    1    1    2    0    0 -0.27683370832E+03 -0.13512811091E+03  0.23889888777E+03  0.40938269015E+03  0.12500000000E+03 0.  0.
         21    1    1    2  502  501  0.27683370832E+03  0.13512811091E+03  0.10718397569E+04  0.11152295607E+04  0.00000000000E+00 0.  1.
<mgrwt>
<rscale>  3 0.77872121E+03</rscale>
<asrwt>0</asrwt>
<pdfrwt beam="1">  1        2 0.21810390E+00 0.77872121E+03</pdfrwt>
<pdfrwt beam="2">  1       -2 0.16451817E-01 0.77872121E+03</pdfrwt>
<totfact> 0.42727366E+02</totfact>
</mgrwt>
</event>
<event>
 4    0  0.1264838E-002  0.9031678E+03  0.7546771E-02  0.9421630E-01
         -2   -1    0    0    0  501 -0.00000000000E+00  0.00000000000E+00  0.21557483203E+03  0.21557483203E+03  0.00000000000E+00 0. -1.
          2   -1    0    0  502    0  0.00000000000E+00 -0.00000000000E+00 -0.94597317209E+03  0.94597317209E+03  0.00000000000E+00 0.  1.
         25    1    1    2    0    0  0.13343467045E+03  0.41106306396E+03 -0.49696893192E+03  0.67035868990E+03  0.12500000000E+03 0.  0.
         21    1    1    2  502  501 -0.13343467045E+03 -0.41106306396E+03 -0.23342940814E+03  0.49118931423E+03  0.00000000000E+00 0. -1.
<mgrwt>
<rscale>  3 0.90316778E+03</rscale>
<asrwt>0</asrwt>
<pdfrwt beam="1">  1        2 0.14553434E+00 0.90316778E+03</pdfrwt>
<pdfrwt beam="2">  1       -2 0.33165359E-01 0.90316778E+03</pdfrwt>
<totfact> 0.23219577E+02</totfact>
</mgrwt>
</event>
<event>
 4    0  0.1264838E-002  0.4683615E+03  0.7546771E-02  0.1022384E+00
         -1   -1    0    0    0  501 -0.00000000000E+00  0.00000000000E+00  0.17028413404E+02  0.17028413404E+02  0.00000000000E+00 0.  1.
          1   -1    0    0  502    0  0.00000000000E+00 -0.00000000000E+00 -0.32205362045E+04  0.32205362045E+04  0.00000000000E+00 0. -1.
         25    1    1    2    0    0  0.10322976107E+03  0.19051397765E+03 -0.18459777053E+04  0.18628501409E+04  0.12500000000E+03 0.  0.
         21    1    1    2  502  501 -0.10322976107E+03 -0.19051397765E+03 -0.13575300858E+04  0.13747144770E+04  0.00000000000E+00 0. -1.
<mgrwt>
<rscale>  3 0.46836149E+03</rscale>
<asrwt>0</asrwt>
<pdfrwt beam="1">  1        1 0.49546718E+00 0.46836149E+03</pdfrwt>
<pdfrwt beam="2">  1       -1 0.26197555E-02 0.46836149E+03</pdfrwt>
<totfact> 0.22400074E+02</totfact>
</mgrwt>
</event>
<event>
 4    0  0.1264838E-002  0.6127021E+03  0.7546771E-02  0.9879398E-01
         -2   -1    0    0    0  501 -0.00000000000E+00  0.00000000000E+00  0.41354227326E+02  0.41354227326E+02  0.00000000000E+00 0. -1.
          2   -1    0    0  502    0  0.00000000000E+00 -0.00000000000E+00 -0.22694408281E+04  0.22694408281E+04  0.00000000000E+00 0.  1.
         25    1    1    2    0    0 -0.27678773445E+03  0.97223010166E+02 -0.11162204936E+04  0.11608776654E+04  0.12500000000E+03 0.  0.
         21    1    1    2  502  501  0.27678773445E+03 -0.97223010166E+02 -0.11118661072E+04  0.11499173900E+04  0.00000000000E+00 0. -1.
<mgrwt>
<rscale>  3 0.61270212E+03</rscale>
<asrwt>0</asrwt>
<pdfrwt beam="1">  1        2 0.34914484E+00 0.61270212E+03</pdfrwt>
<pdfrwt beam="2">  1       -2 0.63621870E-02 0.61270212E+03</pdfrwt>
<totfact> 0.69577702E+02</totfact>
</mgrwt>
</event>
