<event>
 5    0  0.1257040E+001  0.2445633E+03  0.7546771E-02  0.1116790E+00
         21   -1    0    0  503  501  0.00000000000E+00  0.00000000000E+00  0.13036888679E+03  0.13036888679E+03  0.00000000000E+00 0. -1.
         21   -1    0    0  501  502 -0.00000000000E+00 -0.00000000000E+00 -0.59682521098E+03  0.59682521098E+03  0.00000000000E+00 0. -1.
         25    1    1    2    0    0 -0.18408835388E+03  0.11697024020E+03 -0.39434546179E+03  0.46765789030E+03  0.12500000000E+03 0.  0.
         21    1    1    2  503  504  0.45639200256E+02  0.22990553985E+02 -0.26013370772E+02  0.57342808018E+02  0.00000000000E+00 0.  1.
         21    1    1    2  504  502  0.13844915363E+03 -0.13996079418E+03 -0.46097491627E+02  0.20219339945E+03  0.00000000000E+00 0. -1.
<mgrwt>
<rscale>  4 0.24456328E+03</rscale>
<asrwt>0</asrwt>
<pdfrwt beam="1">  1       21 0.20056752E-01 0.24456328E+03</pdfrwt>
<pdfrwt beam="2">  1       21 0.91819264E-01 0.24456328E+03</pdfrwt>
<totfact> 0.22376566E+04</totfact>
</mgrwt>
</event>
<event>
 5    0  0.1257040E+001  0.3165117E+03  0.7546771E-02  0.1077266E+00
         21   -1    0    0  503  501  0.00000000000E+00  0.00000000000E+00  0.43336795140E+03  0.43336795140E+03  0.00000000000E+00 0. -1.
         21   -1    0    0  504  502 -0.00000000000E+00 -0.00000000000E+00 -0.34472488520E+03  0.34472488520E+03  0.00000000000E+00 0. -1.
         25    1    1    2    0    0 -0.13497888372E+03  0.28285354113E+03  0.15623651418E+03  0.37183366327E+03  0.12500000000E+03 0.  0.
         21    1    1    2  503  502  0.70323007837E+02 -0.27568428032E+03 -0.13295291580E+03  0.31404398684E+03  0.00000000000E+00 0. -1.
         21    1    1    2  504  501  0.64655875883E+02 -0.71692608051E+01  0.65359467822E+02  0.92215186497E+02  0.00000000000E+00 0. -1.
<mgrwt>
<rscale>  4 0.31651168E+03</rscale>
<asrwt>0</asrwt>
<pdfrwt beam="1">  1       21 0.66671993E-01 0.31651168E+03</pdfrwt>
<pdfrwt beam="2">  1       21 0.53034598E-01 0.31651168E+03</pdfrwt>
<totfact> 0.64570923E+03</totfact>
</mgrwt>
</event>
<event>
 5    0  0.1257040E+001  0.2687085E+03  0.7546771E-02  0.1102021E+00
         21   -1    0    0  504  501  0.00000000000E+00  0.00000000000E+00  0.24969315973E+03  0.24969315973E+03  0.00000000000E+00 0.  1.
         21   -1    0    0  503  502 -0.00000000000E+00 -0.00000000000E+00 -0.40882447042E+03  0.40882447042E+03  0.00000000000E+00 0.  1.
         25    1    1    2    0    0 -0.15390040705E+02 -0.25028245709E+03 -0.20647710747E+03  0.34804591305E+03  0.12500000000E+03 0.  0.
         21    1    1    2  503  501  0.20899053201E+02  0.15923500685E+02 -0.50123502995E+02  0.56592347992E+02  0.00000000000E+00 0.  1.
         21    1    1    2  504  502 -0.55090124962E+01  0.23435895641E+03  0.97469299771E+02  0.25387936912E+03  0.00000000000E+00 0.  1.
<mgrwt>
<rscale>  4 0.26870853E+03</rscale>
<asrwt>0</asrwt>
<pdfrwt beam="1">  1       21 0.38414332E-01 0.26870853E+03</pdfrwt>
<pdfrwt beam="2">  1       21 0.62896073E-01 0.26870853E+03</pdfrwt>
<totfact> 0.14660863E+04</totfact>
</mgrwt>
</event>
<event>
 5    0  0.1257040E+001  0.2805877E+03  0.7546771E-02  0.1095368E+00
         21   -1    0    0  502  501  0.00000000000E+00  0.00000000000E+00  0.32244614635E+03  0.32244614635E+03  0.00000000000E+00 0. -1.
         21   -1    0    0  504  502 -0.00000000000E+00 -0.00000000000E+00 -0.31343282220E+03  0.31343282220E+03  0.00000000000E+00 0. -1.
         25    1    1    2    0    0  0.11412605459E+03  0.24337320904E+03  0.11387221058E+03  0.31756441166E+03  0.12500000000E+03 0.  0.
         21    1    1    2  503  501 -0.50785749439E+02 -0.22357525715E+03 -0.56295658428E+02  0.23608110706E+03  0.00000000000E+00 0. -1.
         21    1    1    2  504  503 -0.63340305147E+02 -0.19797951896E+02 -0.48563228007E+02  0.82233449823E+02  0.00000000000E+00 0. -1.
<mgrwt>
<rscale>  4 0.28058766E+03</rscale>
<asrwt>0</asrwt>
<pdfrwt beam="1">  1       21 0.49607100E-01 0.28058766E+03</pdfrwt>
<pdfrwt beam="2">  1       21 0.48220434E-01 0.28058766E+03</pdfrwt>
<totfact> 0.15176579E+04</totfact>
</mgrwt>
</event>
<event>
 5    0  0.1257040E+001  0.2617641E+03  0.7546771E-02  0.1106088E+00
         21   -1    0    0  503  501  0.00000000000E+00  0.00000000000E+00  0.68948382897E+03  0.68948382897E+03  0.00000000000E+00 0. -1.
         21   -1    0    0  504  502 -0.00000000000E+00 -0.00000000000E+00 -0.11276496094E+03  0.11276496094E+03  0.00000000000E+00 0. -1.
         25    1    1    2    0    0  0.42440205679E+02  0.21689876791E+03  0.15309650656E+03  0.29649584635E+03  0.12500000000E+03 0.  0.
         21    1    1    2  503  502 -0.59905769888E+02 -0.23973974738E+03  0.38745069236E+03  0.45954530435E+03  0.00000000000E+00 0. -1.
         21    1    1    2  504  501  0.17465564208E+02  0.22840979470E+02  0.36171669098E+02  0.46207639212E+02  0.00000000000E+00 0. -1.
<mgrwt>
<rscale>  4 0.26176407E+03</rscale>
<asrwt>0</asrwt>
<pdfrwt beam="1">  1       21 0.10607443E+00 0.26176407E+03</pdfrwt>
<pdfrwt beam="2">  1       21 0.17348456E-01 0.26176407E+03</pdfrwt>
<totfact> 0.20625688E+04</totfact>
</mgrwt>
</event>
<event>
 5    0  0.1257040E+001  0.2535100E+03  0.7546771E-02  0.1111106E+00
         21   -1    0    0  503  501  0.00000000000E+00  0.00000000000E+00  0.21042603907E+03  0.21042603907E+03  0.00000000000E+00 0.  1.
         21   -1    0    0  504  502 -0.00000000000E+00 -0.00000000000E+00 -0.40011024030E+03  0.40011024030E+03  0.00000000000E+00 0.  1.
         25    1    1    2    0    0 -0.24760229094E+03 -0.24761052777E+02 -0.19556888824E+03  0.34028252124E+03  0.12500000000E+03 0.  0.
         21    1    1    2  503  502  0.38691340318E+02 -0.84122180091E+01 -0.37260256400E+02  0.54370138260E+02  0.00000000000E+00 0.  1.
         21    1    1    2  504  501  0.20891095062E+03  0.33173270786E+02  0.43144943407E+02  0.21588361986E+03  0.00000000000E+00 0.  1.
<mgrwt>
<rscale>  4 0.25350996E+03</rscale>
<asrwt>0</asrwt>
<pdfrwt beam="1">  1       21 0.32373237E-01 0.25350996E+03</pdfrwt>
<pdfrwt beam="2">  1       21 0.61555422E-01 0.25350996E+03</pdfrwt>
<totfact> 0.21795503E+04</totfact>
</mgrwt>
</event>
<event>
 5    0  0.1257040E+001  0.2164374E+03  0.7546771E-02  0.1136567E+00
         21   -1    0    0  502  501  0.00000000000E+00  0.00000000000E+00  0.39094188073E+03  0.39094188073E+03  0.00000000000E+00 0.  1.
         21   -1    0    0  504  502 -0.00000000000E+00 -0.00000000000E+00 -0.35945348525E+03  0.35945348525E+03  0.00000000000E+00 0.  1.
         25    1    1    2    0    0 -0.19806658343E+02 -0.24714747907E+03  0.79964549795E+02  0.28895243441E+03  0.12500000000E+03 0.  0.
         21    1    1    2  503  501 -0.12977787733E+02  0.84383453937E+02  0.16810531665E+03  0.18854280086E+03  0.00000000000E+00 0.  1.
         21    1    1    2  504  503  0.32784446076E+02  0.16276402513E+03 -0.21658147096E+03  0.27290013072E+03  0.00000000000E+00 0.  1.
<mgrwt>
<rscale>  4 0.21643740E+03</rscale>
<asrwt>0</asrwt>
<pdfrwt beam="1">  1       21 0.60144905E-01 0.21643740E+03</pdfrwt>
<pdfrwt beam="2">  1       21 0.55300536E-01 0.21643740E+03</pdfrwt>
<totfact> 0.78169085E+03</totfact>
</mgrwt>
</event>
<event>
 5    0  0.1257040E+001  0.2746615E+03  0.7546771E-02  0.1098641E+00
         21   -1    0    0  502  501  0.00000000000E+00  0.00000000000E+00  0.72796981680E+03  0.72796981680E+03  0.00000000000E+00 0.  1.
         21   -1    0    0  504  502 -0.00000000000E+00 -0.00000000000E+00 -0.14061898466E+03  0.14061898466E+03  0.00000000000E+00 0.  1.
         25    1    1    2    0    0  0.22850402277E+03 -0.17444255141E+03  0.32967378874E+03  0.45492208030E+03  0.12500000000E+03 0.  0.
         21    1    1    2  503  501 -0.15235555171E+03  0.16624733511E+03  0.11833478803E+03  0.25466352826E+03  0.00000000000E+00 0.  1.
         21    1    1    2  504  503 -0.76148471060E+02  0.81952163027E+01  0.13934225538E+03  0.15900319289E+03  0.00000000000E+00 0. -1.
<mgrwt>
<rscale>  4 0.27466149E+03</rscale>
<asrwt>0</asrwt>
<pdfrwt beam="1">  1       21 0.11199535E+00 0.27466149E+03</pdfrwt>
<pdfrwt beam="2">  1       21 0.21633690E-01 0.27466149E+03</pdfrwt>
<totfact> 0.11862281E+04</totfact>
</mgrwt>
</event>
<event>
 5    0  0.1257040E+001  0.3094048E+03  0.7546771E-02  0.1080632E+00
         21   -1    0    0  502  501  0.00000000000E+00  0.00000000000E+00  0.86221483829E+03  0.86221483829E+03  0.00000000000E+00 0.  1.
         21   -1    0    0  504  502 -0.00000000000E+00 -0.00000000000E+00 -0.81885694722E+03  0.81885694722E+03  0.00000000000E+00 0. -1.
         25    1    1    2    0    0  0.33014892434E+03 -0.21653970516E+03  0.52609634522E+03  0.66954471143E+03  0.12500000000E+03 0.  0.
         21    1    1    2  503  501 -0.19353586251E+03  0.90498084634E+02  0.20681997915E+03  0.29735590994E+03  0.00000000000E+00 0.  1.
         21    1    1    2  504  503 -0.13661306183E+03  0.12604162052E+03 -0.68955843329E+03  0.71417116414E+03  0.00000000000E+00 0. -1.
<mgrwt>
<rscale>  4 0.30940481E+03</rscale>
<asrwt>0</asrwt>
<pdfrwt beam="1">  1       21 0.13264844E+00 0.30940481E+03</pdfrwt>
<pdfrwt beam="2">  1       21 0.12597799E+00 0.30940481E+03</pdfrwt>
<totfact> 0.17079982E+02</totfact>
</mgrwt>
</event>
<event>
 5    0  0.1257040E+001  0.2367456E+03  0.7546771E-02  0.1121980E+00
         21   -1    0    0  504  501  0.00000000000E+00  0.00000000000E+00  0.24723094107E+03  0.24723094107E+03  0.00000000000E+00 0. -1.
         21   -1    0    0  503  502 -0.00000000000E+00 -0.00000000000E+00 -0.92206699957E+03  0.92206699957E+03  0.00000000000E+00 0.  1.
         25    1    1    2    0    0  0.18885023214E+03  0.13787676496E+03 -0.79253119350E+03  0.83570635104E+03  0.12500000000E+03 0.  0.
         21    1    1    2  503  501 -0.39118411976E+02 -0.63687519538E+01 -0.56426914875E+02  0.68955114962E+02  0.00000000000E+00 0.  1.
         21    1    1    2  504  502 -0.14973182016E+03 -0.13150801301E+03  0.17412204988E+03  0.26463647464E+03  0.00000000000E+00 0. -1.
<mgrwt>
<rscale>  4 0.23674558E+03</rscale>
<asrwt>0</asrwt>
<pdfrwt beam="1">  1       21 0.38035530E-01 0.23674558E+03</pdfrwt>
<pdfrwt beam="2">  1       21 0.14185646E+00 0.23674558E+03</pdfrwt>
<totfact> 0.22192396E+03</totfact>
</mgrwt>
</event>
<event>
 5    0  0.1257040E+001  0.2934174E+03  0.7546771E-02  0.1088578E+00
         21   -1    0    0  504  501  0.00000000000E+00  0.00000000000E+00  0.35544951385E+03  0.35544951385E+03  0.00000000000E+00 0. -1.
         21   -1    0    0  503  502 -0.00000000000E+00 -0.00000000000E+00 -0.66104603028E+03  0.66104603028E+03  0.00000000000E+00 0. -1.
         25    1    1    2    0    0 -0.23872790351E+03  0.63934086160E+02  0.24947181663E+03  0.37274624959E+03  0.12500000000E+03 0.  0.
         21    1    1    2  503  501  0.25836807484E+03 -0.68266085610E+02 -0.56214223946E+03  0.62242928749E+03  0.00000000000E+00 0. -1.
         21    1    1    2  504  502 -0.19640171334E+02  0.43319994498E+01  0.70739063907E+01  0.21320007056E+02  0.00000000000E+00 0. -1.
<mgrwt>
<rscale>  4 0.29341740E+03</rscale>
<asrwt>0</asrwt>
<pdfrwt beam="1">  1       21 0.54684541E-01 0.29341740E+03</pdfrwt>
<pdfrwt beam="2">  1       21 0.10169939E+00 0.29341740E+03</pdfrwt>
<totfact> 0.23134069E+03</totfact>
</mgrwt>
</event>
<event>
 5    0  0.1257040E+001  0.2266108E+03  0.7546771E-02  0.1129048E+00
         21   -1    0    0  503  501  0.00000000000E+00  0.00000000000E+00  0.37899040627E+02  0.37899040627E+02  0.00000000000E+00 0.  1.
         21   -1    0    0  501  502 -0.00000000000E+00 -0.00000000000E+00 -0.18893140170E+04  0.18893140170E+04  0.00000000000E+00 0.  1.
         25    1    1    2    0    0 -0.15591467750E+03 -0.15771774469E+03 -0.82401276942E+03  0.86244206635E+03  0.12500000000E+03 0.  0.
         21    1    1    2  503  504  0.11141045796E+03  0.13205999713E+03 -0.40581385380E+03  0.44106350668E+03  0.00000000000E+00 0.  1.
         21    1    1    2  504  502  0.44504219542E+02  0.25657747563E+02 -0.62158835314E+03  0.62370748458E+03  0.00000000000E+00 0.  1.
<mgrwt>
<rscale>  4 0.22661084E+03</rscale>
<asrwt>0</asrwt>
<pdfrwt beam="1">  1       21 0.58306223E-02 0.22661084E+03</pdfrwt>
<pdfrwt beam="2">  1       21 0.29066366E+00 0.22661084E+03</pdfrwt>
<totfact> 0.77282347E+03</totfact>
</mgrwt>
</event>
<event>
 5    0  0.1257040E+001  0.4000314E+03  0.7546771E-02  0.1043769E+00
         21   -1    0    0  503  501  0.00000000000E+00  0.00000000000E+00  0.76140798858E+03  0.76140798858E+03  0.00000000000E+00 0.  1.
         21   -1    0    0  504  502 -0.00000000000E+00 -0.00000000000E+00 -0.52484162614E+03  0.52484162614E+03  0.00000000000E+00 0. -1.
         25    1    1    2    0    0  0.29342944043E+03 -0.16439279861E+03 -0.32883998450E+03  0.48670993841E+03  0.12500000000E+03 0.  0.
         21    1    1    2  503  502  0.61702920453E+02  0.12561726526E+02 -0.44866377635E+02  0.77317780670E+02  0.00000000000E+00 0.  1.
         21    1    1    2  504  501 -0.35513236088E+03  0.15183107208E+03  0.61027272457E+03  0.72222189564E+03  0.00000000000E+00 0.  1.
<mgrwt>
<rscale>  4 0.40003140E+03</rscale>
<asrwt>0</asrwt>
<pdfrwt beam="1">  1       21 0.11713969E+00 0.40003140E+03</pdfrwt>
<pdfrwt beam="2">  1       21 0.80744866E-01 0.40003140E+03</pdfrwt>
<totfact> 0.64969621E+02</totfact>
</mgrwt>
</event>
<event>
 5    0  0.1257040E+001  0.2617573E+03  0.7546771E-02  0.1106092E+00
         21   -1    0    0  502  501  0.00000000000E+00  0.00000000000E+00  0.40053596159E+03  0.40053596159E+03  0.00000000000E+00 0. -1.
         21   -1    0    0  504  502 -0.00000000000E+00 -0.00000000000E+00 -0.21558727885E+03  0.21558727885E+03  0.00000000000E+00 0. -1.
         25    1    1    2    0    0 -0.16004284446E+03  0.14197300031E+03  0.24363869937E+03  0.34749800101E+03  0.12500000000E+03 0.  0.
         21    1    1    2  503  501 -0.19917563810E+02  0.88046050278E+01  0.10063147235E+02  0.23989525841E+02  0.00000000000E+00 0. -1.
         21    1    1    2  504  503  0.17996040827E+03 -0.15077760534E+03 -0.68753163864E+02  0.24463571358E+03  0.00000000000E+00 0. -1.
<mgrwt>
<rscale>  4 0.26175734E+03</rscale>
<asrwt>0</asrwt>
<pdfrwt beam="1">  1       21 0.61620917E-01 0.26175734E+03</pdfrwt>
<pdfrwt beam="2">  1       21 0.33167274E-01 0.26175734E+03</pdfrwt>
<totfact> 0.20646234E+04</totfact>
</mgrwt>
</event>
<event>
 5    0  0.1257040E+001  0.2502440E+03  0.7546771E-02  0.1113151E+00
         21   -1    0    0  503  501  0.00000000000E+00  0.00000000000E+00  0.10285981588E+04  0.10285981588E+04  0.00000000000E+00 0.  1.
         21   -1    0    0  504  502 -0.00000000000E+00 -0.00000000000E+00 -0.11021704829E+03  0.11021704829E+03  0.00000000000E+00 0.  1.
         25    1    1    2    0    0  0.16650835021E+03  0.18149312395E+03  0.17210120264E+03  0.32543602856E+03  0.12500000000E+03 0.  0.
         21    1    1    2  503  502 -0.35139853262E+02 -0.16076076181E+02  0.90765841299E+00  0.38653245096E+02  0.00000000000E+00 0. -1.
         21    1    1    2  504  501 -0.13136849695E+03 -0.16541704777E+03  0.74537224943E+03  0.77472593341E+03  0.00000000000E+00 0.  1.
<mgrwt>
<rscale>  4 0.25024396E+03</rscale>
<asrwt>0</asrwt>
<pdfrwt beam="1">  1       21 0.15824586E+00 0.25024396E+03</pdfrwt>
<pdfrwt beam="2">  1       21 0.16956470E-01 0.25024396E+03</pdfrwt>
<totfact> 0.77970352E+03</totfact>
</mgrwt>
</event>
<event>
 5    0  0.1257040E+001  0.2456630E+03  0.7546771E-02  0.1116077E+00
         21   -1    0    0  502  501  0.00000000000E+00  0.00000000000E+00  0.90293363343E+03  0.90293363343E+03  0.00000000000E+00 0.  1.
         21   -1    0    0  504  502 -0.00000000000E+00 -0.00000000000E+00 -0.29867360564E+03  0.29867360564E+03  0.00000000000E+00 0. -1.
         25    1    1    2    0    0 -0.49856055519E+02 -0.19817295919E+03 -0.18239681691E+03  0.30108428529E+03  0.12500000000E+03 0.  0.
         21    1    1    2  503  501 -0.11057215453E+02 -0.37099468404E+02  0.58062024916E+03  0.58190936262E+03  0.00000000000E+00 0.  1.
         21    1    1    2  504  503  0.60913270971E+02  0.23527242759E+03  0.20603659554E+03  0.31861359115E+03  0.00000000000E+00 0. -1.
<mgrwt>
<rscale>  4 0.24566298E+03</rscale>
<asrwt>0</asrwt>
<pdfrwt beam="1">  1       21 0.13891287E+00 0.24566298E+03</pdfrwt>
<pdfrwt beam="2">  1       21 0.45949786E-01 0.24566298E+03</pdfrwt>
<totfact> 0.15818901E+03</totfact>
</mgrwt>
</event>
<event>
 5    0  0.1257040E+001  0.3983565E+03  0.7546771E-02  0.1044350E+00
         21   -1    0    0  502  501  0.00000000000E+00  0.00000000000E+00  0.63597731349E+03  0.63597731349E+03  0.00000000000E+00 0.  1.
         21   -1    0    0  504  502 -0.00000000000E+00 -0.00000000000E+00 -0.49390930919E+03  0.49390930919E+03  0.00000000000E+00 0.  1.
         25    1    1    2    0    0 -0.39850463146E+03  0.21567808217E+03  0.10721600395E+03  0.48212368530E+03  0.12500000000E+03 0.  0.
         21    1    1    2  503  501  0.30360055120E+03 -0.15842332506E+03  0.23752628415E+03  0.41676129892E+03  0.00000000000E+00 0.  1.
         21    1    1    2  504  503  0.94904080256E+02 -0.57254757118E+02 -0.20267428380E+03  0.23100163847E+03  0.00000000000E+00 0.  1.
<mgrwt>
<rscale>  4 0.39835650E+03</rscale>
<asrwt>0</asrwt>
<pdfrwt beam="1">  1       21 0.97842663E-01 0.39835650E+03</pdfrwt>
<pdfrwt beam="2">  1       21 0.75986048E-01 0.39835650E+03</pdfrwt>
<totfact> 0.11636895E+03</totfact>
</mgrwt>
</event>
<event>
 5    0  0.1257040E+001  0.2765105E+03  0.7546771E-02  0.1097610E+00
         21   -1    0    0  503  501  0.00000000000E+00  0.00000000000E+00  0.21883689472E+03  0.21883689472E+03  0.00000000000E+00 0. -1.
         21   -1    0    0  501  502 -0.00000000000E+00 -0.00000000000E+00 -0.69489919531E+03  0.69489919531E+03  0.00000000000E+00 0.  1.
         25    1    1    2    0    0  0.27457561348E+03  0.59574181878E+02  0.30073171578E+02  0.30898259872E+03  0.12500000000E+03 0.  0.
         21    1    1    2  503  504 -0.22251708918E+03 -0.93902085949E+02 -0.47960893807E+03  0.53698807268E+03  0.00000000000E+00 0.  1.
         21    1    1    2  504  502 -0.52058524303E+02  0.34327904071E+02 -0.26526534101E+02  0.67765418629E+02  0.00000000000E+00 0. -1.
<mgrwt>
<rscale>  4 0.27651051E+03</rscale>
<asrwt>0</asrwt>
<pdfrwt beam="1">  1       21 0.33667215E-01 0.27651051E+03</pdfrwt>
<pdfrwt beam="2">  1       21 0.10690757E+00 0.27651051E+03</pdfrwt>
<totfact> 0.56224317E+03</totfact>
</mgrwt>
</event>
<event>
 5    0  0.1257040E+001  0.2796378E+03  0.7546771E-02  0.1095887E+00
         21   -1    0    0  502  501  0.00000000000E+00  0.00000000000E+00  0.17611066117E+04  0.17611066117E+04  0.00000000000E+00 0.  1.
         21   -1    0    0  504  502 -0.00000000000E+00 -0.00000000000E+00 -0.58199706935E+02  0.58199706935E+02  0.00000000000E+00 0.  1.
         25    1    1    2    0    0  0.22974472461E+03 -0.11311750334E+03  0.42192736349E+03  0.50914232598E+03  0.12500000000E+03 0.  0.
         21    1    1    2  503  501 -0.21529879372E+02 -0.14213041118E+01  0.30141082836E+03  0.30218213591E+03  0.00000000000E+00 0.  1.
         21    1    1    2  504  503 -0.20821484524E+03  0.11453880746E+03  0.97956871293E+03  0.10079818567E+04  0.00000000000E+00 0.  1.
<mgrwt>
<rscale>  4 0.27963776E+03</rscale>
<asrwt>0</asrwt>
<pdfrwt beam="1">  1       21 0.27093944E+00 0.27963776E+03</pdfrwt>
<pdfrwt beam="2">  1       21 0.89538024E-02 0.27963776E+03</pdfrwt>
<totfact> 0.45696997E+03</totfact>
</mgrwt>
</event>
<event>
 5    0  0.1257040E+001  0.2594904E+03  0.7546771E-02  0.1107450E+00
         21   -1    0    0  502  501  0.00000000000E+00  0.00000000000E+00  0.42936188159E+03  0.42936188159E+03  0.00000000000E+00 0.  1.
         21   -1    0    0  504  502 -0.00000000000E+00 -0.00000000000E+00 -0.23184814061E+03  0.23184814061E+03  0.00000000000E+00 0.  1.
         25    1    1    2    0    0 -0.29749080854E+02 -0.19843558569E+03 -0.78194945330E+01  0.23653294480E+03  0.12500000000E+03 0.  0.
         21    1    1    2  503  501  0.32172467616E+02  0.23516808568E+03  0.26425319413E+03  0.35520254335E+03  0.00000000000E+00 0.  1.
         21    1    1    2  504  503 -0.24233867613E+01 -0.36732499990E+02 -0.58919958609E+02  0.69474534049E+02  0.00000000000E+00 0.  1.
<mgrwt>
<rscale>  4 0.25949043E+03</rscale>
<asrwt>0</asrwt>
<pdfrwt beam="1">  1       21 0.66055674E-01 0.25949043E+03</pdfrwt>
<pdfrwt beam="2">  1       21 0.35668945E-01 0.25949043E+03</pdfrwt>
<totfact> 0.15357204E+04</totfact>
</mgrwt>
</event>
<event>
 5    0  0.1257040E+001  0.2169090E+03  0.7546771E-02  0.1136209E+00
         21   -1    0    0  503  501  0.00000000000E+00  0.00000000000E+00  0.60702643476E+02  0.60702643476E+02  0.00000000000E+00 0.  1.
         21   -1    0    0  504  502 -0.00000000000E+00 -0.00000000000E+00 -0.20918134264E+04  0.20918134264E+04  0.00000000000E+00 0.  1.
         25    1    1    2    0    0 -0.25903149853E+03 -0.48861407866E+02 -0.53649572223E+03  0.61068601947E+03  0.12500000000E+03 0.  0.
         21    1    1    2  503  502  0.11822780451E+03  0.70826224523E+02 -0.12586392601E+04  0.12661622940E+04  0.00000000000E+00 0.  1.
         21    1    1    2  504  501  0.14080369402E+03 -0.21964816657E+02 -0.23597580059E+03  0.27566775634E+03  0.00000000000E+00 0.  1.
<mgrwt>
<rscale>  4 0.21690899E+03</rscale>
<asrwt>0</asrwt>
<pdfrwt beam="1">  1       21 0.93388688E-02 0.21690899E+03</pdfrwt>
<pdfrwt beam="2">  1       21 0.32181743E+00 0.21690899E+03</pdfrwt>
<totfact> 0.22695404E+03</totfact>
</mgrwt>
</event>
<event>
 5    0  0.1257040E+001  0.4361809E+03  0.7546771E-02  0.1031925E+00
         21   -1    0    0  504  501  0.00000000000E+00  0.00000000000E+00  0.56274359396E+03  0.56274359396E+03  0.00000000000E+00 0. -1.
         21   -1    0    0  503  502 -0.00000000000E+00 -0.00000000000E+00 -0.18706258429E+04  0.18706258429E+04  0.00000000000E+00 0.  1.
         25    1    1    2    0    0 -0.18488725155E+02 -0.58208011830E+03  0.12637371555E+03  0.60889606097E+03  0.12500000000E+03 0.  0.
         21    1    1    2  503  501  0.34602830194E+02  0.40479675830E+03 -0.15564210368E+04  0.16085721044E+04  0.00000000000E+00 0.  1.
         21    1    1    2  504  502 -0.16114105040E+02  0.17728336000E+03  0.12216507232E+03  0.21590127144E+03  0.00000000000E+00 0. -1.
<mgrwt>
<rscale>  4 0.43618089E+03</rscale>
<asrwt>0</asrwt>
<pdfrwt beam="1">  1       21 0.86575939E-01 0.43618089E+03</pdfrwt>
<pdfrwt beam="2">  1       21 0.28778859E+00 0.43618089E+03</pdfrwt>
<totfact> 0.35334762E+01</totfact>
</mgrwt>
</event>
<event>
 5    0  0.1257040E+001  0.2873645E+03  0.7546771E-02  0.1091733E+00
         21   -1    0    0  503  501  0.00000000000E+00  0.00000000000E+00  0.16541398488E+03  0.16541398488E+03  0.00000000000E+00 0.  1.
         21   -1    0    0  504  502 -0.00000000000E+00 -0.00000000000E+00 -0.74718294972E+03  0.74718294972E+03  0.00000000000E+00 0. -1.
         25    1    1    2    0    0 -0.22187150854E+03 -0.46778645820E+02 -0.87836688933E+02  0.27341450571E+03  0.12500000000E+03 0.  0.
         21    1    1    2  503  502  0.26685474176E+03  0.42398621227E+02 -0.52071578310E+03  0.58664642082E+03  0.00000000000E+00 0. -1.
         21    1    1    2  504  501 -0.44983233221E+02  0.43800245935E+01  0.26783507197E+02  0.52536008073E+02  0.00000000000E+00 0. -1.
<mgrwt>
<rscale>  4 0.28736450E+03</rscale>
<asrwt>0</asrwt>
<pdfrwt beam="1">  1       21 0.25448305E-01 0.28736450E+03</pdfrwt>
<pdfrwt beam="2">  1       21 0.11495122E+00 0.28736450E+03</pdfrwt>
<totfact> 0.81013532E+03</totfact>
</mgrwt>
</event>
<event>
 5    0  0.1257040E+001  0.3452412E+03  0.7546771E-02  0.1064585E+00
         21   -1    0    0  504  501  0.00000000000E+00  0.00000000000E+00  0.68778103762E+03  0.68778103762E+03  0.00000000000E+00 0.  1.
         21   -1    0    0  501  502 -0.00000000000E+00 -0.00000000000E+00 -0.19569628615E+03  0.19569628615E+03  0.00000000000E+00 0.  1.
         25    1    1    2    0    0  0.22529823731E+03  0.22639636407E+03  0.10061408431E+03  0.35743923031E+03  0.12500000000E+03 0.  0.
         21    1    1    2  503  502  0.17552105939E+02 -0.13203859688E+02  0.54871959000E+01  0.22639073577E+02  0.00000000000E+00 0. -1.
         21    1    1    2  504  503 -0.24285034325E+03 -0.21319250438E+03  0.38598347125E+03  0.50339901988E+03  0.00000000000E+00 0.  1.
<mgrwt>
<rscale>  4 0.34524120E+03</rscale>
<asrwt>0</asrwt>
<pdfrwt beam="1">  1       21 0.10581247E+00 0.34524120E+03</pdfrwt>
<pdfrwt beam="2">  1       21 0.30107121E-01 0.34524120E+03</pdfrwt>
<totfact> 0.69612545E+03</totfact>
</mgrwt>
</event>
<event>
 5    0  0.1257040E+001  0.3706536E+03  0.7546771E-02  0.1054443E+00
         21   -1    0    0  502  501  0.00000000000E+00  0.00000000000E+00  0.50128490460E+03  0.50128490460E+03  0.00000000000E+00 0. -1.
         21   -1    0    0  504  502 -0.00000000000E+00 -0.00000000000E+00 -0.26865834662E+03  0.26865834662E+03  0.00000000000E+00 0. -1.
         25    1    1    2    0    0 -0.27701439784E+03  0.21218407267E+03  0.10049753288E+03  0.38403621108E+03  0.12500000000E+03 0.  0.
         21    1    1    2  503  501  0.11219886984E+02 -0.33199246239E+02  0.38515117700E+02  0.52071970447E+02  0.00000000000E+00 0.  1.
         21    1    1    2  504  503  0.26579451085E+03 -0.17898482644E+03  0.93613907404E+02  0.33383506969E+03  0.00000000000E+00 0. -1.
<mgrwt>
<rscale>  4 0.37065355E+03</rscale>
<asrwt>0</asrwt>
<pdfrwt beam="1">  1       21 0.77120755E-01 0.37065355E+03</pdfrwt>
<pdfrwt beam="2">  1       21 0.41332053E-01 0.37065355E+03</pdfrwt>
<totfact> 0.76718617E+03</totfact>
</mgrwt>
</event>
<event>
 5    0  0.1257040E+001  0.3719597E+03  0.7546771E-02  0.1053946E+00
         21   -1    0    0  502  501  0.00000000000E+00  0.00000000000E+00  0.12891751132E+04  0.12891751132E+04  0.00000000000E+00 0.  1.
         21   -1    0    0  504  502 -0.00000000000E+00 -0.00000000000E+00 -0.15053878359E+03  0.15053878359E+03  0.00000000000E+00 0.  1.
         25    1    1    2    0    0  0.17736069263E+03  0.27411357211E+03  0.38241079405E+03  0.51812940576E+03  0.12500000000E+03 0.  0.
         21    1    1    2  503  501 -0.18425263425E+03 -0.31453330839E+03  0.78897009596E+03  0.86911106749E+03  0.00000000000E+00 0.  1.
         21    1    1    2  504  503  0.68919416163E+01  0.40419736280E+02 -0.32744560406E+02  0.52473423524E+02  0.00000000000E+00 0. -1.
<mgrwt>
<rscale>  4 0.37195973E+03</rscale>
<asrwt>0</asrwt>
<pdfrwt beam="1">  1       21 0.19833463E+00 0.37195973E+03</pdfrwt>
<pdfrwt beam="2">  1       21 0.23159814E-01 0.37195973E+03</pdfrwt>
<totfact> 0.21164487E+03</totfact>
</mgrwt>
</event>
<event>
 5    0  0.1257040E+001  0.3613376E+03  0.7546771E-02  0.1058056E+00
         21   -1    0    0  502  501  0.00000000000E+00  0.00000000000E+00  0.52396134479E+03  0.52396134479E+03  0.00000000000E+00 0. -1.
         21   -1    0    0  504  502 -0.00000000000E+00 -0.00000000000E+00 -0.15310069878E+04  0.15310069878E+04  0.00000000000E+00 0.  1.
         25    1    1    2    0    0 -0.68390790548E+02  0.32468814924E+03 -0.13112244722E+04  0.13583204007E+04  0.12500000000E+03 0.  0.
         21    1    1    2  503  501  0.10755063100E+03 -0.32194196212E+03  0.43974739557E+03  0.55551015933E+03  0.00000000000E+00 0. -1.
         21    1    1    2  504  503 -0.39159840447E+02 -0.27461871196E+01 -0.13556856639E+03  0.14113777255E+03  0.00000000000E+00 0. -1.
<mgrwt>
<rscale>  4 0.36133755E+03</rscale>
<asrwt>0</asrwt>
<pdfrwt beam="1">  1       21 0.80609439E-01 0.36133755E+03</pdfrwt>
<pdfrwt beam="2">  1       21 0.23553953E+00 0.36133755E+03</pdfrwt>
<totfact> 0.91453276E+01</totfact>
</mgrwt>
</event>
<event>
 5    0  0.1257040E+001  0.2187264E+03  0.7546771E-02  0.1134836E+00
         21   -1    0    0  502  501  0.00000000000E+00  0.00000000000E+00  0.72305653888E+03  0.72305653888E+03  0.00000000000E+00 0. -1.
         21   -1    0    0  504  502 -0.00000000000E+00 -0.00000000000E+00 -0.15159086034E+03  0.15159086034E+03  0.00000000000E+00 0. -1.
         25    1    1    2    0    0  0.89114843275E+02  0.20450129672E+03  0.48998275294E+03  0.55269370706E+03  0.12500000000E+03 0.  0.
         21    1    1    2  503  501 -0.78889870262E+02 -0.11817657535E+03  0.15342723320E+03  0.20911535209E+03  0.00000000000E+00 0. -1.
         21    1    1    2  504  503 -0.10224973013E+02 -0.86324721365E+02 -0.71944307600E+02  0.11283834006E+03  0.00000000000E+00 0. -1.
<mgrwt>
<rscale>  4 0.21872640E+03</rscale>
<asrwt>0</asrwt>
<pdfrwt beam="1">  1       21 0.11123947E+00 0.21872640E+03</pdfrwt>
<pdfrwt beam="2">  1       21 0.23321671E-01 0.21872640E+03</pdfrwt>
<totfact> 0.10794112E+04</totfact>
</mgrwt>
</event>
<event>
 5    0  0.1257040E+001  0.2237386E+03  0.7546771E-02  0.1131126E+00
         21   -1    0    0  502  501  0.00000000000E+00  0.00000000000E+00  0.20381282540E+04  0.20381282540E+04  0.00000000000E+00 0.  1.
         21   -1    0    0  504  502 -0.00000000000E+00 -0.00000000000E+00 -0.40141517982E+02  0.40141517982E+02  0.00000000000E+00 0.  1.
         25    1    1    2    0    0  0.53931764995E+02  0.21450332892E+03  0.13842420226E+04  0.14073632404E+04  0.12500000000E+03 0.  0.
         21    1    1    2  503  501  0.20169024228E+02 -0.52157507320E+02  0.33702733600E+03  0.34163521528E+03  0.00000000000E+00 0.  1.
         21    1    1    2  504  503 -0.74100789223E+02 -0.16234582160E+03  0.27671737743E+03  0.32927131628E+03  0.00000000000E+00 0.  1.
<mgrwt>
<rscale>  4 0.22373860E+03</rscale>
<asrwt>0</asrwt>
<pdfrwt beam="1">  1       21 0.31355811E+00 0.22373860E+03</pdfrwt>
<pdfrwt beam="2">  1       21 0.61756197E-02 0.22373860E+03</pdfrwt>
<totfact> 0.51693234E+03</totfact>
</mgrwt>
</event>
<event>
 5    0  0.1257040E+001  0.2194921E+03  0.7546771E-02  0.1134262E+00
         21   -1    0    0  503  501  0.00000000000E+00  0.00000000000E+00  0.17436874884E+04  0.17436874884E+04  0.00000000000E+00 0.  1.
         21   -1    0    0  501  502 -0.00000000000E+00 -0.00000000000E+00 -0.62422689248E+02  0.62422689248E+02  0.00000000000E+00 0.  1.
         25    1    1    2    0    0  0.19577983681E+03 -0.42241707374E+02  0.66313525505E+03  0.70390871058E+03  0.12500000000E+03 0.  0.
         21    1    1    2  503  504 -0.35076678263E+02  0.14310031798E+03  0.13806010386E+03  0.20191252225E+03  0.00000000000E+00 0.  1.
         21    1    1    2  504  502 -0.16070315854E+03 -0.10085861061E+03  0.88006944024E+03  0.90028894481E+03  0.00000000000E+00 0.  1.
<mgrwt>
<rscale>  4 0.21949207E+03</rscale>
<asrwt>0</asrwt>
<pdfrwt beam="1">  1       21 0.26825958E+00 0.21949207E+03</pdfrwt>
<pdfrwt beam="2">  1       21 0.96034920E-02 0.21949207E+03</pdfrwt>
<totfact> 0.44092329E+03</totfact>
</mgrwt>
</event>
<event>
 5    0  0.1257040E+001  0.2076822E+03  0.7546771E-02  0.1143415E+00
         21   -1    0    0  502  501  0.00000000000E+00  0.00000000000E+00  0.20998477774E+03  0.20998477774E+03  0.00000000000E+00 0.  1.
         21   -1    0    0  504  502 -0.00000000000E+00 -0.00000000000E+00 -0.80843668588E+03  0.80843668588E+03  0.00000000000E+00 0. -1.
         25    1    1    2    0    0  0.19537775367E+03 -0.11069174316E+03 -0.64114396234E+03  0.69073562893E+03  0.12500000000E+03 0.  0.
         21    1    1    2  503  501 -0.11755579604E+03  0.11262629400E+03  0.13172692121E+03  0.20941831117E+03  0.00000000000E+00 0.  1.
         21    1    1    2  504  503 -0.77821957626E+02 -0.19345508364E+01 -0.89034867012E+02  0.11826752352E+03  0.00000000000E+00 0. -1.
<mgrwt>
<rscale>  4 0.20768223E+03</rscale>
<asrwt>0</asrwt>
<pdfrwt beam="1">  1       21 0.32305350E-01 0.20768223E+03</pdfrwt>
<pdfrwt beam="2">  1       21 0.12437487E+00 0.20768223E+03</pdfrwt>
<totfact> 0.43986241E+03</totfact>
</mgrwt>
</event>
<event>
 5    0  0.1257040E+001  0.2309202E+03  0.7546771E-02  0.1125994E+00
         21   -1    0    0  503  501  0.00000000000E+00  0.00000000000E+00  0.97225299855E+02  0.97225299855E+02  0.00000000000E+00 0. -1.
         21   -1    0    0  504  502 -0.00000000000E+00 -0.00000000000E+00 -0.95014359866E+03  0.95014359866E+03  0.00000000000E+00 0. -1.
         25    1    1    2    0    0 -0.18636157232E+03 -0.93523270798E+02 -0.11090476141E+03  0.26721172116E+03  0.12500000000E+03 0.  0.
         21    1    1    2  503  502  0.15920205512E+03  0.10743850032E+03 -0.71163539249E+03  0.73709786159E+03  0.00000000000E+00 0. -1.
         21    1    1    2  504  501  0.27159517199E+02 -0.13915229522E+02 -0.30378144898E+02  0.43059315770E+02  0.00000000000E+00 0.  1.
<mgrwt>
<rscale>  4 0.23092018E+03</rscale>
<asrwt>0</asrwt>
<pdfrwt beam="1">  1       21 0.14957739E-01 0.23092018E+03</pdfrwt>
<pdfrwt beam="2">  1       21 0.14617593E+00 0.23092018E+03</pdfrwt>
<totfact> 0.12284257E+04</totfact>
</mgrwt>
</event>
<event>
 5    0  0.1257040E+001  0.2204759E+03  0.7546771E-02  0.1133529E+00
         21   -1    0    0  504  501  0.00000000000E+00  0.00000000000E+00  0.35100451981E+03  0.35100451981E+03  0.00000000000E+00 0.  1.
         21   -1    0    0  503  502 -0.00000000000E+00 -0.00000000000E+00 -0.13103188507E+04  0.13103188507E+04  0.00000000000E+00 0.  1.
         25    1    1    2    0    0  0.12974142027E+03 -0.16078498905E+03  0.28600486171E+03  0.37431060599E+03  0.12500000000E+03 0.  0.
         21    1    1    2  503  501 -0.88884414475E+02  0.15786794864E+03 -0.12300154181E+04  0.12432862330E+04  0.00000000000E+00 0.  1.
         21    1    1    2  504  502 -0.40857005799E+02  0.29170404103E+01 -0.15303774521E+02  0.43726531560E+02  0.00000000000E+00 0. -1.
<mgrwt>
<rscale>  4 0.22047590E+03</rscale>
<asrwt>0</asrwt>
<pdfrwt beam="1">  1       21 0.54000696E-01 0.22047590E+03</pdfrwt>
<pdfrwt beam="2">  1       21 0.20158751E+00 0.22047590E+03</pdfrwt>
<totfact> 0.41152517E+02</totfact>
</mgrwt>
</event>
<event>
 5    0  0.1257040E+001  0.2830106E+03  0.7546771E-02  0.1094056E+00
         21   -1    0    0  504  501  0.00000000000E+00  0.00000000000E+00  0.20801284694E+03  0.20801284694E+03  0.00000000000E+00 0. -1.
         21   -1    0    0  503  502 -0.00000000000E+00 -0.00000000000E+00 -0.17479238795E+04  0.17479238795E+04  0.00000000000E+00 0. -1.
         25    1    1    2    0    0  0.16302989376E+03  0.21818803165E+03  0.38206677401E+02  0.30210844678E+03  0.12500000000E+03 0.  0.
         21    1    1    2  503  501 -0.13615937980E+03 -0.21308384231E+03 -0.15993412983E+04  0.16192086614E+04  0.00000000000E+00 0. -1.
         21    1    1    2  504  502 -0.26870513962E+02 -0.51041893470E+01  0.21223588341E+02  0.34619618304E+02  0.00000000000E+00 0.  1.
<mgrwt>
<rscale>  4 0.28301056E+03</rscale>
<asrwt>0</asrwt>
<pdfrwt beam="1">  1       21 0.32001978E-01 0.28301056E+03</pdfrwt>
<pdfrwt beam="2">  1       21 0.26891135E+00 0.28301056E+03</pdfrwt>
<totfact> 0.43719391E+02</totfact>
</mgrwt>
</event>
