<LesHouchesEvents version="3.0">
  <!--
  <scalesfunctionalform>
    muR  H_T/2 := sum_i mT(i)/2, i=final state
    muF1 H_T/2 := sum_i mT(i)/2, i=final state
    muF2 H_T/2 := sum_i mT(i)/2, i=final state
    QES  H_T/2 := sum_i mT(i)/2, i=final state
  </scalesfunctionalform>
HERWIG6   
  -->
  <header>
       65
  </header>
  <init>
   2212   2212 0.65000000D+04 0.65000000D+04 -1 -1   244800   244800 -4   1
 0.12971380D-03 0.32740858D-05 0.21897909D-05     66
  </init>
  <event>
  7     66 0.21897909E-05 0.22244318E+02 0.75467711E-02 0.92239362E-01
        1 -1    0    0  501    0 0.00000000E+00 0.00000000E+00 0.38999399E+03 0.38999412E+03 0.32000000E+00 0.0000E+00 0.9000E+01
       -2 -1    0    0    0  503 0.00000000E+00 0.00000000E+00 -.10834593E+04 0.10834594E+04 0.32000000E+00 0.0000E+00 0.9000E+01
      -24  2    1    2    0    0 0.45222008E+03 -.39430128E+03 -.27764623E+03 0.66526756E+03 0.74276514E+02 0.0000E+00 0.0000E+00
       25  1    1    2    0    0 -.45054829E+03 0.41089227E+03 -.29965503E+03 0.69082875E+03 0.12500000E+03 0.0000E+00 0.9000E+01
        3  1    3    3  502    0 0.75740343E+02 -.43504717E+02 -.63067160E+02 0.10773568E+03 0.50000000E+00 0.0000E+00 0.9000E+01
       -4  1    3    3    0  502 0.37647973E+03 -.35079656E+03 -.21457907E+03 0.55753188E+03 0.15500000E+01 0.0000E+00 0.9000E+01
       21  1    1    2  501  503 -.16717844E+01 -.16590993E+02 -.11616406E+03 0.11735717E+03 0.75000000E+00 0.0000E+00 0.9000E+01
#aMCatNLO 2  0  0  0  0 0.00000000D+00 0.00000000D+00  -5  6  0 0.00000000D+00 0.00000000D+00 0.00000000D+00 0.00000000D+00 0.00000000D+00
  <mgrwgt>
 0.7745887955D-03    1    2    0
 0.613482355063791D+03 0.000000000000000D+00 0.000000000000000D+00 0.613482355063791D+03
 0.613482355063791D+03 0.000000000000000D+00 0.000000000000000D+00 -.613482355063791D+03
 0.617601462744796D+03 -.451393084738372D+03 0.402508440841624D+03 -.614856781150981D+01
 0.899011298361612D+02 0.756341153015403D+02 -.447200113469617D+02 -.190214177573403D+02
 0.519462117546624D+03 0.375758969436832D+03 -.357788429494663D+03 0.251699855688501D+02
 0.000000000000000D+00 -.000000000000000D+00 -.000000000000000D+00 -.000000000000000D+00
 0.614477081500515D+03 0.000000000000000D+00 0.000000000000000D+00 0.614477081500515D+03
 0.687641891000670D+03 0.000000000000000D+00 0.000000000000000D+00 -.687641891000670D+03
 0.622486167300187D+03 -.450548291297241D+03 0.410892273963724D+03 -.614856781150981D+01
 0.894077829890760D+02 0.757562671477656D+02 -.435077615300859D+02 -.190214177573403D+02
 0.515184065077685D+03 0.376463808585127D+03 -.350793519840395D+03 0.251699855688501D+02
 0.750409571342368D+02 -.167178443565198D+01 -.165909925932432D+02 -.731648095001554D+02
0.452364149998D-03 0.000000000000D+00 0.000000000000D+00 0.317067973161D-05 0.709635221038D-07  6 1 -2 25 3 -4 21 2 0.59998907D-01 0.16668555D+00 0.38505786D+06 0.38505786D+06 0.38505786D+06 0.10766216D+01  1  2  1  2  6  2       -2 0.774588795463D-03 0.100000000000D+01
  </mgrwgt>
  </event>
  <event>
  7     66 0.21897909E-05 0.50969765E+02 0.75467711E-02 0.94412762E-01
        1 -1    0    0  503    0 0.00000000E+00 0.00000000E+00 0.70832676E+03 0.70832683E+03 0.32000000E+00 0.0000E+00 0.9000E+01
       -2 -1    0    0    0  501 0.00000000E+00 0.00000000E+00 -.11111226E+04 0.11111226E+04 0.32000000E+00 0.0000E+00 0.9000E+01
      -24  2    1    2    0    0 0.43073349E+03 0.89860127E+02 0.35274354E+02 0.44739832E+03 0.72902638E+02 0.0000E+00 0.0000E+00
       25  1    1    2    0    0 -.48814087E+03 -.52710400E+02 -.83097262E+03 0.97324220E+03 0.12500000E+03 0.0000E+00 0.9000E+01
        3  1    3    3  502    0 0.34868182E+03 0.96080185E+02 0.45237909E+02 0.36449572E+03 0.50000000E+00 0.0000E+00 0.9000E+01
       -4  1    3    3    0  502 0.82051672E+02 -.62200573E+01 -.99635547E+01 0.82902599E+02 0.15500000E+01 0.0000E+00 0.9000E+01
       21  1    1    2  503  501 0.57407377E+02 -.37149728E+02 0.39290242E+03 0.39880896E+03 0.75000000E+00 0.0000E+00 0.9000E+01
#aMCatNLO 2  0  0  1  2 0.69511701D+01 0.00000000D+00  -5  6  0 0.00000000D+00 0.00000000D+00 0.00000000D+00 0.00000000D+00 0.00000000D+00
  <mgrwgt>
 0.8389212652D-03    1    2    0
 0.587453839918669D+03 0.000000000000000D+00 0.000000000000000D+00 0.587453839918669D+03
 0.587453839918669D+03 0.000000000000000D+00 0.000000000000000D+00 -.587453839918669D+03
 0.591841506194022D+03 -.458731036908135D+03 -.717422254788040D+02 -.345065584077206D+03
 0.485581291839529D+03 0.372180366670303D+03 0.810169978778793D+02 0.301176379725503D+03
 0.974848818037863D+02 0.865506702378322D+02 -.927477239907531D+01 0.438892043517035D+02
 0.000000000000000D+00 0.000000000000000D+00 -.000000000000000D+00 0.000000000000000D+00
 0.133392580118066D+04 0.000000000000000D+00 0.000000000000000D+00 0.133392580118066D+04
 0.590015932834852D+03 0.000000000000000D+00 0.000000000000000D+00 -.590015932834852D+03
 0.612988702762360D+03 -.488140867109188D+03 -.527103999000839D+02 -.345065584077206D+03
 0.470779501955483D+03 0.348835659385101D+03 0.961239330149048D+02 0.301176379725503D+03
 0.931276127956673D+02 0.818978311417534D+02 -.626380560609971D+01 0.438892043517035D+02
 0.747045916502001D+03 0.574073765823336D+02 -.371497275087212D+02 0.743909868345807D+03
0.118224123350D-02 0.000000000000D+00 0.000000000000D+00 0.285829902874D-05 0.501383452442D-08  6 1 -2 25 3 -4 21 2 0.10897332D+00 0.17094189D+00 0.25958726D+06 0.25958726D+06 0.25958726D+06 0.10892317D+01  1  2  1  1  6  1        1 0.838921265157D-03 0.100000000000D+01
  </mgrwgt>
  </event>
  <event>
  6     66 0.21897909E-05 0.14867370E+02 0.75467711E-02 0.95167230E-01
        1 -1    0    0  501    0 0.00000000E+00 0.00000000E+00 0.32325022E+03 0.32325038E+03 0.32000000E+00 0.0000E+00 0.9000E+01
       -2 -1    0    0    0  501 -.00000000E+00 -.00000000E+00 -.75371047E+03 0.75371054E+03 0.32000000E+00 0.0000E+00 0.9000E+01
       25  1    1    2    0    0 -.14924310E+03 0.43893222E+03 -.34161085E+03 0.58928598E+03 0.12500000E+03 0.0000E+00 0.9000E+01
        3  1    1    2  503    0 0.10351596E+03 -.39140289E+03 -.59166269E+02 0.40916094E+03 0.50000000E+00 0.0000E+00 0.9000E+01
       -4  1    1    2    0  502 0.23784963E+02 -.37628889E+02 -.31198959E+02 0.54382307E+02 0.15500000E+01 0.0000E+00 0.9000E+01
       21  1    1    2  502  503 0.21942183E+02 -.99004414E+01 0.15158222E+01 0.24131688E+02 0.75000000E+00 0.0000E+00 0.9000E+01
#aMCatNLO 2  0  0  0  0 0.00000000D+00 0.00000000D+00  -5  6  0 0.00000000D+00 0.00000000D+00 0.00000000D+00 0.00000000D+00 0.00000000D+00
  <mgrwgt>
 0.3840265667D-03    1    2    0
 0.493596188152700D+03 0.000000000000000D+00 0.000000000000000D+00 0.493596188152700D+03
 0.493596188152700D+03 -.000000000000000D+00 -.000000000000000D+00 -.493596188152700D+03
 0.498113309314361D+03 -.150485080531910D+03 0.442904940452041D+03 -.116967188461479D+03
 0.443837464698095D+03 0.126854135230988D+03 -.405777672940931D+03 0.127452750409997D+03
 0.452416022929436D+02 0.236309453009220D+02 -.371272675111098D+02 -.104855619485180D+02
 0.000000000000000D+00 0.000000000000000D+00 0.000000000000000D+00 0.000000000000000D+00
 0.493596188152700D+03 0.000000000000000D+00 0.000000000000000D+00 0.493596188152700D+03
 0.493596188152700D+03 -.000000000000000D+00 -.000000000000000D+00 -.493596188152700D+03
 0.493906419926388D+03 -.149240904907160D+03 0.438925104171405D+03 -.115717141664986D+03
 0.420701776630699D+03 0.103519758566507D+03 -.391537122292840D+03 0.113896120711817D+03
 0.455740985748494D+02 0.237448449321831D+02 -.374916066573097D+02 -.103711248334134D+02
 0.270100811734635D+02 0.219763014084699D+02 -.989637522125615D+01 0.121921457865825D+02
0.623147269862D-04 0.000000000000D+00 0.000000000000D+00 0.493013510165D-04 0.165742773155D-05  6 1 -2 25 3 -4 21 2 0.49730820D-01 0.11595547D+00 0.22735279D+06 0.22735279D+06 0.22735279D+06 0.10935752D+01  1  2  1  3  6  4        3 0.384026566695D-03 0.100000000000D+01
  </mgrwgt>
  </event>
  <event>
  7     66 0.21897909E-05 0.10012496E+03 0.75467711E-02 0.92337199E-01
        1 -1    0    0  501    0 0.00000000E+00 0.00000000E+00 0.16795495E+04 0.16795496E+04 0.32000000E+00 0.0000E+00 0.9000E+01
       -2 -1    0    0    0  503 0.00000000E+00 0.00000000E+00 -.23539334E+03 0.23539356E+03 0.32000000E+00 0.0000E+00 0.9000E+01
      -24  2    1    2    0    0 -.79741664E+02 0.58084339E+03 0.62137891E+03 0.85812955E+03 0.80850520E+02 0.0000E+00 0.0000E+00
       25  1    1    2    0    0 0.14749014E+03 -.46959212E+03 0.75520528E+03 0.91007148E+03 0.12500000E+03 0.0000E+00 0.9000E+01
        3  1    3    3  502    0 -.13580480E+02 0.38093851E+03 0.40718198E+03 0.55775980E+03 0.50000000E+00 0.0000E+00 0.9000E+01
       -4  1    3    3    0  502 -.66161184E+02 0.19990488E+03 0.21419692E+03 0.30036975E+03 0.15500000E+01 0.0000E+00 0.9000E+01
       21  1    1    2  501  503 -.67748473E+02 -.11125127E+03 0.67572026E+02 0.14674209E+03 0.75000000E+00 0.0000E+00 0.9000E+01
#aMCatNLO 2  0  0  2  1 0.91474831D+00 0.00000000D+00  -5  6  0 0.00000000D+00 0.00000000D+00 0.00000000D+00 0.00000000D+00 0.00000000D+00
  <mgrwgt>
 0.5474560456D-03    1    2    0
 0.551040878543908D+03 0.000000000000000D+00 0.000000000000000D+00 0.551040878543908D+03
 0.551040878543908D+03 0.000000000000000D+00 0.000000000000000D+00 -.551040878543908D+03
 0.555164072449367D+03 0.114764477949922D+03 -.523331650588349D+03 0.743992300492551D+02
 0.348780177154665D+03 -.360200907002059D+02 0.344226389005351D+03 -.431086784107919D+02
 0.198137507483784D+03 -.787443872497166D+02 0.179105261582997D+03 -.312905516384632D+02
 0.000000000000000D+00 -.000000000000000D+00 -.000000000000000D+00 -.000000000000000D+00
 0.592689698921161D+03 0.000000000000000D+00 0.000000000000000D+00 0.592689698921161D+03
 0.667050227871523D+03 0.000000000000000D+00 0.000000000000000D+00 -.667050227871523D+03
 0.513254658863390D+03 0.147490136578961D+03 -.469592119849740D+03 0.743992300492551D+02
 0.383741980543393D+03 -.135829418853596D+02 0.381070929312089D+03 -.431086784107919D+02
 0.212755990770734D+03 -.661587221329631D+02 0.199772461747686D+03 -.312905516384632D+02
 0.149987296615167D+03 -.677484725606386D+02 -.111251271210035D+03 -.743605289503618D+02
0.121579806118D-03 0.000000000000D+00 0.000000000000D+00 0.229404147514D-03 0.854058912187D-07  6 1 -2 25 3 -4 21 2 0.25839186D+00 0.36214323D-01 0.37812991D+06 0.37812991D+06 0.37812991D+06 0.10771924D+01  1  2  1  2  6  2       -2 0.547456045561D-03 0.100000000000D+01
  </mgrwgt>
  </event>
  <event>
  7     66 0.21897909E-05 0.58201193E+02 0.75467711E-02 0.91221722E-01
        1 -1    0    0  503    0 0.00000000E+00 0.00000000E+00 0.16922724E+04 0.16922724E+04 0.32000000E+00 0.0000E+00 0.9000E+01
       -2 -1    0    0    0  501 0.00000000E+00 0.00000000E+00 -.28959046E+03 0.28959064E+03 0.32000000E+00 0.0000E+00 0.9000E+01
      -24  2    1    2    0    0 0.28215517E+03 -.61370232E+03 0.67582188E+03 0.95881282E+03 0.79653817E+02 0.0000E+00 0.0000E+00
       25  1    1    2    0    0 -.28108656E+03 0.59891204E+03 0.62035941E+03 0.91551957E+03 0.12500000E+03 0.0000E+00 0.9000E+01
        3  1    3    3  502    0 0.90872223E+02 -.25837690E+03 0.31565771E+03 0.41791916E+03 0.50000000E+00 0.0000E+00 0.9000E+01
       -4  1    3    3    0  502 0.19128295E+03 -.35532542E+03 0.36016417E+03 0.54089366E+03 0.15500000E+01 0.0000E+00 0.9000E+01
       21  1    1    2  503  501 -.10686099E+01 0.14790278E+02 0.10650064E+03 0.10753066E+03 0.75000000E+00 0.0000E+00 0.9000E+01
#aMCatNLO 2  0  0  1  1 0.71489618D+02 0.00000000D+00  -5  6  0 0.00000000D+00 0.00000000D+00 0.00000000D+00 0.00000000D+00 0.00000000D+00
  <mgrwgt>
 0.1015581137D-02    1    2    0
 0.676907691144183D+03 0.000000000000000D+00 0.000000000000000D+00 0.676907691144183D+03
 0.676907691144183D+03 0.000000000000000D+00 0.000000000000000D+00 -.676907691144183D+03
 0.680335141305273D+03 -.281620867673004D+03 0.606307232608184D+03 -.176672316160812D+02
 0.273575068847366D+03 0.906820346595362D+02 -.255456359083803D+03 0.369071197534419D+02
 0.399905172135726D+03 0.190938833013467D+03 -.350850873524381D+03 -.192398881373607D+02
 0.000000000000000D+00 -.000000000000000D+00 0.000000000000000D+00 0.000000000000000D+00
 0.722643734388530D+03 0.000000000000000D+00 0.000000000000000D+00 0.722643734388530D+03
 0.678151338986541D+03 0.000000000000000D+00 0.000000000000000D+00 -.678151338986541D+03
 0.673529822676120D+03 -.281086559161655D+03 0.598912044644129D+03 -.176672316160812D+02
 0.276453889279819D+03 0.908991059049220D+02 -.258460770630920D+03 0.369071197534419D+02
 0.403912880685860D+03 0.191256063194190D+03 -.355241551876848D+03 -.192398881373607D+02
 0.468984807332716D+02 -.106860993745740D+01 0.147902778636391D+02 0.444923954019893D+02
0.347933377256D-03 0.000000000000D+00 0.000000000000D+00 0.213282400284D-03 0.594212665848D-05  6 1 -2 25 3 -4 21 2 0.26034846D+00 0.44552198D-01 0.46618888D+06 0.46618888D+06 0.46618888D+06 0.10706661D+01  1  2  1  1  6  1        1 0.101558113739D-02 0.100000000000D+01
  </mgrwgt>
  </event>
  <event>
  7     66 0.21897909E-05 0.34696813E+02 0.75467711E-02 0.89984031E-01
        1 -1    0    0  503    0 0.00000000E+00 0.00000000E+00 0.87242385E+03 0.87242391E+03 0.32000000E+00 0.0000E+00 0.9000E+01
       -2 -1    0    0    0  501 0.00000000E+00 0.00000000E+00 -.71858589E+03 0.71858596E+03 0.32000000E+00 0.0000E+00 0.9000E+01
      -24  2    1    2    0    0 0.38081666E+03 -.65844501E+03 0.25462254E+02 0.76546423E+03 0.81951250E+02 0.0000E+00 0.0000E+00
       25  1    1    2    0    0 -.38338569E+03 0.64716995E+03 0.69659040E+02 0.76569635E+03 0.12500000E+03 0.0000E+00 0.9000E+01
        3  1    3    3  502    0 0.28150432E+03 -.54656162E+03 0.80982098E+01 0.61484967E+03 0.50000000E+00 0.0000E+00 0.9000E+01
       -4  1    3    3    0  502 0.99312346E+02 -.11188339E+03 0.17364044E+02 0.15061457E+03 0.15500000E+01 0.0000E+00 0.9000E+01
       21  1    1    2  503  501 0.25690229E+01 0.11275061E+02 0.58716670E+02 0.59849283E+02 0.75000000E+00 0.0000E+00 0.9000E+01
#aMCatNLO 2  0  0  1  1 0.71489618D+02 0.00000000D+00  -5  6  0 0.00000000D+00 0.00000000D+00 0.00000000D+00 0.00000000D+00 0.00000000D+00
  <mgrwgt>
 0.1440363296D-03    1    2    0
 0.764079668064113D+03 0.000000000000000D+00 0.000000000000000D+00 0.764079668064113D+03
 0.764079668064113D+03 0.000000000000000D+00 0.000000000000000D+00 -.764079668064113D+03
 0.766994610393107D+03 -.382099784379934D+03 0.652813584455020D+03 0.221339354808642D+02
 0.612207199999300D+03 0.282633522708549D+03 -.542223062051385D+03 -.301678396965947D+02
 0.148957525735818D+03 0.994662616713854D+02 -.110590522403635D+03 0.803390421573043D+01
 0.000000000000000D+00 0.000000000000000D+00 0.000000000000000D+00 0.000000000000000D+00
 0.819806572162290D+03 0.000000000000000D+00 0.000000000000000D+00 0.819806572162290D+03
 0.764701701099401D+03 0.000000000000000D+00 0.000000000000000D+00 -.764701701099401D+03
 0.762842339800381D+03 -.383385687539491D+03 0.647169945904568D+03 0.221339354808642D+02
 0.615750215586690D+03 0.281601364137465D+03 -.546753053177588D+03 -.301678396965947D+02
 0.149610534347101D+03 0.992153005400342D+02 -.111691953646752D+03 0.803390421573043D+01
 0.563051835275190D+02 0.256902286199198D+01 0.112750609197718D+02 0.551048710628888D+02
0.958874850396D-04 0.000000000000D+00 0.000000000000D+00 0.498453627223D-04 0.225320585894D-05  6 1 -2 25 3 -4 21 2 0.13421863D+00 0.11055132D+00 0.59173835D+06 0.59173835D+06 0.59173835D+06 0.10633780D+01  1  2  1  1  6  1        1 0.144036329637D-03 0.100000000000D+01
  </mgrwgt>
  </event>
  <event>
  7     66 0.21897909E-05 0.19464434E+03 0.75467711E-02 0.92584533E-01
        1 -1    0    0  503    0 0.00000000E+00 0.00000000E+00 0.51780626E+03 0.51780636E+03 0.32000000E+00 0.0000E+00 0.9000E+01
       -2 -1    0    0    0  501 0.00000000E+00 0.00000000E+00 -.94131610E+03 0.94131615E+03 0.32000000E+00 0.0000E+00 0.9000E+01
      -24  2    1    2    0    0 0.39740303E+03 0.21457569E+03 0.59350379E+02 0.46247343E+03 0.79920616E+02 0.0000E+00 0.0000E+00
       25  1    1    2    0    0 -.28166559E+03 -.41214873E+03 -.63061239E+02 0.51846292E+03 0.12500000E+03 0.0000E+00 0.9000E+01
        3  1    3    3  502    0 0.14833085E+03 0.12429360E+03 0.31663104E+02 0.19609626E+03 0.50000000E+00 0.0000E+00 0.9000E+01
       -4  1    3    3    0  502 0.24907218E+03 0.90282090E+02 0.27687275E+02 0.26637717E+03 0.15500000E+01 0.0000E+00 0.9000E+01
       21  1    1    2  503  501 -.11573744E+03 0.19757304E+03 -.41979898E+03 0.47818616E+03 0.75000000E+00 0.0000E+00 0.9000E+01
#aMCatNLO 2  0  0  1  1 0.62422599D+03 0.00000000D+00  -5  6  0 0.00000000D+00 0.00000000D+00 0.00000000D+00 0.00000000D+00 0.00000000D+00
  <mgrwgt>
 0.1648764446D-03    1    2    0
 0.476915111036498D+03 0.000000000000000D+00 0.000000000000000D+00 0.476915111036498D+03
 0.476915111036498D+03 0.000000000000000D+00 0.000000000000000D+00 -.476915111036498D+03
 0.481757532163095D+03 -.341484795379985D+03 -.310032582870205D+03 -.611003427076737D+02
 0.209608038856666D+03 0.124096615608318D+03 0.165785245899292D+03 0.324162334334231D+02
 0.262464651053234D+03 0.217388179771667D+03 0.144247336970913D+03 0.286841092742506D+02
 0.000000000000000D+00 -.000000000000000D+00 0.000000000000000D+00 -.000000000000000D+00
 0.519768623476058D+03 0.000000000000000D+00 0.000000000000000D+00 0.519768623476058D+03
 0.937761401008094D+03 0.000000000000000D+00 0.000000000000000D+00 -.937761401008094D+03
 0.518228070980583D+03 -.281665592794710D+03 -.412148729840170D+03 -.611003427076737D+02
 0.196280846721117D+03 0.148376914641783D+03 0.124336840079413D+03 0.324162334334231D+02
 0.266420412984186D+03 0.249026118048499D+03 0.902388544890866D+02 0.286841092742506D+02
 0.476600693798266D+03 -.115737439895572D+03 0.197573035271671D+03 -.417992777532036D+03
0.954494439686D-04 0.000000000000D+00 0.000000000000D+00 0.236555876381D-03 0.336957921557D-07  6 1 -2 25 3 -4 21 2 0.79662470D-01 0.14481779D+00 0.36122948D+06 0.36122948D+06 0.36122948D+06 0.10786341D+01  1  2  1  1  6  1        1 0.164876444603D-03 0.100000000000D+01
  </mgrwgt>
  </event>
  <event>
  7     66 0.21897909E-05 0.56324682E+02 0.75467711E-02 0.95250589E-01
        1 -1    0    0  501    0 0.00000000E+00 0.00000000E+00 0.35003617E+04 0.35003617E+04 0.32000000E+00 0.0000E+00 0.9000E+01
       -2 -1    0    0    0  503 0.00000000E+00 0.00000000E+00 -.10274587E+03 0.10274637E+03 0.32000000E+00 0.0000E+00 0.9000E+01
      -24  2    1    2    0    0 0.29919691E+03 -.33103353E+03 0.24230838E+04 0.24654373E+04 0.89130398E+02 0.0000E+00 0.0000E+00
       25  1    1    2    0    0 -.30820537E+03 0.34789906E+03 0.99763848E+03 0.11076696E+04 0.12500000E+03 0.0000E+00 0.9000E+01
        3  1    3    3  502    0 0.18905988E+03 -.21607044E+03 0.17758213E+04 0.17988807E+04 0.50000000E+00 0.0000E+00 0.9000E+01
       -4  1    3    3    0  502 0.11013703E+03 -.11496309E+03 0.64726246E+03 0.66655665E+03 0.15500000E+01 0.0000E+00 0.9000E+01
       21  1    1    2  501  503 0.90084537E+01 -.16865527E+02 -.23106472E+02 0.30001163E+02 0.75000000E+00 0.0000E+00 0.9000E+01
#aMCatNLO 2  0  0  2  1 0.91474831D+00 0.00000000D+00  -5  6  0 0.00000000D+00 0.00000000D+00 0.00000000D+00 0.00000000D+00 0.00000000D+00
  <mgrwgt>
 0.2112566616D-02    1    2    0
 0.516087788568644D+03 0.000000000000000D+00 0.000000000000000D+00 0.516087788568644D+03
 0.516087788568644D+03 0.000000000000000D+00 0.000000000000000D+00 -.516087788568644D+03
 0.519808465658232D+03 -.303632913503318D+03 0.339338562125117D+03 -.217329784112324D+03
 0.347277858902745D+03 0.192121409875929D+03 -.221763343944414D+03 0.185774848765788D+03
 0.165089252576311D+03 0.111511503627389D+03 -.117575218180703D+03 0.315549353465360D+02
 0.000000000000000D+00 0.000000000000000D+00 -.000000000000000D+00 -.000000000000000D+00
 0.516684412115403D+03 0.000000000000000D+00 0.000000000000000D+00 0.516684412115403D+03
 0.696068129465708D+03 0.000000000000000D+00 0.000000000000000D+00 -.696068129465708D+03
 0.528092363733424D+03 -.308205370272397D+03 0.347899064825561D+03 -.217329784112324D+03
 0.342037108520095D+03 0.189113622497184D+03 -.216132197871646D+03 0.185774848765788D+03
 0.162223190489696D+03 0.110083294054571D+03 -.114901340105444D+03 0.315549353465360D+02
 0.180399878837896D+03 0.900845372064080D+01 -.168655268484708D+02 -.179383717350305D+03
0.211667509983D-02 0.000000000000D+00 0.000000000000D+00 0.384666739376D-05 0.704178892158D-07  6 1 -2 25 3 -4 21 2 0.53851640D+00 0.15807073D-01 0.22407590D+06 0.22407590D+06 0.22407590D+06 0.10940540D+01  1  2  1  2  6  2       -2 0.211256661587D-02 0.100000000000D+01
  </mgrwgt>
  </event>
  <event>
  7     66 0.21897909E-05 0.34096044E+02 0.75467711E-02 0.94108102E-01
        1 -1    0    0  503    0 0.00000000E+00 0.00000000E+00 0.84424995E+03 0.84425001E+03 0.32000000E+00 0.0000E+00 0.9000E+01
       -2 -1    0    0    0  501 0.00000000E+00 0.00000000E+00 -.42355456E+03 0.42355468E+03 0.32000000E+00 0.0000E+00 0.9000E+01
      -24  2    1    2    0    0 0.25902048E+03 0.43397464E+03 0.25558785E+03 0.57301905E+03 0.87178449E+02 0.0000E+00 0.0000E+00
       25  1    1    2    0    0 -.27118255E+03 -.42611962E+03 -.86725483E+01 0.52040188E+03 0.12500000E+03 0.0000E+00 0.9000E+01
        3  1    3    3  502    0 0.24133589E+03 0.34256997E+03 0.22048559E+03 0.47350960E+03 0.50000000E+00 0.0000E+00 0.9000E+01
       -4  1    3    3    0  502 0.17684582E+02 0.91404671E+02 0.35102264E+02 0.99509446E+02 0.15500000E+01 0.0000E+00 0.9000E+01
       21  1    1    2  503  501 0.12162072E+02 -.78550259E+01 0.17378008E+03 0.17438376E+03 0.75000000E+00 0.0000E+00 0.9000E+01
#aMCatNLO 2  0  0  1  1 0.62422599D+03 0.00000000D+00  -5  6  0 0.00000000D+00 0.00000000D+00 0.00000000D+00 0.00000000D+00 0.00000000D+00
  <mgrwgt>
 0.9678858447D-03    1    2    0
 0.532539326098596D+03 0.000000000000000D+00 0.000000000000000D+00 0.532539326098596D+03
 0.532539326098596D+03 0.000000000000000D+00 0.000000000000000D+00 -.532539326098596D+03
 0.536306617954974D+03 -.265059323500954D+03 -.430074380064408D+03 -.129535211814138D+03
 0.435359021802442D+03 0.246381191263792D+03 0.339465643725483D+03 0.116605588143352D+03
 0.934130124397772D+02 0.186781322371615D+02 0.906087363389255D+02 0.129296236707863D+02
 0.000000000000000D+00 0.000000000000000D+00 -.000000000000000D+00 0.000000000000000D+00
 0.670931692782603D+03 0.000000000000000D+00 0.000000000000000D+00 0.670931692782603D+03
 0.532967325888403D+03 0.000000000000000D+00 0.000000000000000D+00 -.532967325888403D+03
 0.536211036028055D+03 -.271182549208180D+03 -.426119618257009D+03 -.129535211814138D+03
 0.435089412699767D+03 0.241411620636060D+03 0.342675302989641D+03 0.116605588143352D+03
 0.938766035892033D+02 0.176088569787951D+02 0.912993411207145D+02 0.129296236707863D+02
 0.138721966353982D+03 0.121620715933252D+02 -.785502585334603D+01 0.137964366894200D+03
0.167035491919D-03 0.000000000000D+00 0.000000000000D+00 0.379711281985D-05 0.117478663585D-06  6 1 -2 25 3 -4 21 2 0.12988437D+00 0.65162130D-01 0.27403269D+06 0.27403269D+06 0.27403269D+06 0.10874729D+01  1  2  1  1  6  1        1 0.967885844683D-03 0.100000000000D+01
  </mgrwgt>
  </event>
  <event>
  7     66 0.21897909E-05 0.10031788E+03 0.75467711E-02 0.89632176E-01
        1 -1    0    0  501    0 0.00000000E+00 0.00000000E+00 0.19579145E+04 0.19579145E+04 0.32000000E+00 0.0000E+00 0.9000E+01
       -2 -1    0    0    0  503 0.00000000E+00 0.00000000E+00 -.32774927E+03 0.32774943E+03 0.32000000E+00 0.0000E+00 0.9000E+01
      -24  2    1    2    0    0 0.45247932E+03 -.63765165E+03 0.80344883E+03 0.11239712E+04 0.80275239E+02 0.0000E+00 0.0000E+00
       25  1    1    2    0    0 -.33815168E+03 0.56780055E+03 0.61632943E+03 0.91226696E+03 0.12500000E+03 0.0000E+00 0.9000E+01
        3  1    3    3  502    0 0.23433058E+03 -.39810247E+03 0.47803472E+03 0.66476601E+03 0.50000000E+00 0.0000E+00 0.9000E+01
       -4  1    3    3    0  502 0.21814873E+03 -.23954917E+03 0.32541411E+03 0.45920521E+03 0.15500000E+01 0.0000E+00 0.9000E+01
       21  1    1    2  501  503 -.11432763E+03 0.69851093E+02 0.21038696E+03 0.24942577E+03 0.75000000E+00 0.0000E+00 0.9000E+01
#aMCatNLO 2  0  0  2  1 0.10872795D+02 0.00000000D+00  -5  6  0 0.00000000D+00 0.00000000D+00 0.00000000D+00 0.00000000D+00 0.00000000D+00
  <mgrwgt>
 0.5600216247D-04    1    2    0
 0.726729934169076D+03 0.000000000000000D+00 0.000000000000000D+00 0.726729934169076D+03
 0.726729934169076D+03 0.000000000000000D+00 0.000000000000000D+00 -.726729934169076D+03
 0.729888220918344D+03 -.393215648864819D+03 0.601443149526940D+03 -.275573295201159D+02
 0.426936373878682D+03 0.199500372002883D+03 -.376913118404396D+03 0.202674637303792D+02
 0.296635273541127D+03 0.193715276861936D+03 -.224530031122543D+03 0.728986578973671D+01
 0.000000000000000D+00 -.000000000000000D+00 0.000000000000000D+00 0.000000000000000D+00
 0.826909006361445D+03 0.000000000000000D+00 0.000000000000000D+00 0.826909006361445D+03
 0.776026942261317D+03 0.000000000000000D+00 0.000000000000000D+00 -.776026942261317D+03
 0.673148153002547D+03 -.338151681875745D+03 0.567800554354314D+03 -.275573295201159D+02
 0.462552712183989D+03 0.234409515188688D+03 -.398241661120112D+03 0.202674637303792D+02
 0.323920857013317D+03 0.218069800324664D+03 -.239409986532246D+03 0.728986578973671D+01
 0.143314226422908D+03 -.114327633637607D+03 0.698510932980453D+02 0.508820641001274D+02
0.381473830137D-04 0.000000000000D+00 0.000000000000D+00 0.280009083418D-03 0.941348849536D-07  6 1 -2 25 3 -4 21 2 0.30121725D+00 0.50422916D-01 0.63402098D+06 0.63402098D+06 0.63402098D+06 0.10612969D+01  1  2  1  2  6  2       -2 0.560021624749D-04 0.100000000000D+01
  </mgrwgt>
  </event>
  <event>
  7     66 0.21897909E-05 0.65624257E+02 0.75467711E-02 0.92095145E-01
        1 -1    0    0  501    0 0.00000000E+00 0.00000000E+00 0.19913299E+04 0.19913299E+04 0.32000000E+00 0.0000E+00 0.9000E+01
       -2 -1    0    0    0  503 0.00000000E+00 0.00000000E+00 -.25664102E+03 0.25664122E+03 0.32000000E+00 0.0000E+00 0.9000E+01
      -24  2    1    2    0    0 -.38905259E+03 -.47549879E+03 0.13801864E+04 0.15128319E+04 0.79277631E+02 0.0000E+00 0.0000E+00
       25  1    1    2    0    0 0.38023641E+03 0.48560339E+03 0.33962035E+03 0.71509255E+03 0.12500000E+03 0.0000E+00 0.9000E+01
        3  1    3    3  502    0 -.22351479E+03 -.24949463E+03 0.83988593E+03 0.90422069E+03 0.50000000E+00 0.0000E+00 0.9000E+01
       -4  1    3    3    0  502 -.16553781E+03 -.22600416E+03 0.54030045E+03 0.60861123E+03 0.15500000E+01 0.0000E+00 0.9000E+01
       21  1    1    2  501  503 0.88161869E+01 -.10104604E+02 0.14882146E+02 0.20046669E+02 0.75000000E+00 0.0000E+00 0.9000E+01
#aMCatNLO 2  0  0  2  2 0.20109107D+03 0.00000000D+00  -5  6  0 0.00000000D+00 0.00000000D+00 0.00000000D+00 0.00000000D+00 0.00000000D+00
  <mgrwgt>
 0.1227597050D-02    1    2    0
 0.708119417414462D+03 0.000000000000000D+00 0.000000000000000D+00 0.708119417414462D+03
 0.708119417414462D+03 0.000000000000000D+00 0.000000000000000D+00 -.708119417414462D+03
 0.711416904071047D+03 0.384668244528049D+03 0.480523876147515D+03 -.334090044002977D+03
 0.403071589869966D+03 -.221085849434638D+03 -.252455373214159D+03 0.223280178868090D+03
 0.301750340887910D+03 -.163582395093410D+03 -.228068502933355D+03 0.110809865134887D+03
 0.000000000000000D+00 0.000000000000000D+00 -.000000000000000D+00 -.000000000000000D+00
 0.714406307665070D+03 0.000000000000000D+00 0.000000000000000D+00 0.714406307665070D+03
 0.715338368830032D+03 0.000000000000000D+00 0.000000000000000D+00 -.715338368830032D+03
 0.712482657716778D+03 0.380236406107260D+03 0.485603393229379D+03 -.334090044002977D+03
 0.402664710913015D+03 -.223593675963042D+03 -.249581047374655D+03 0.223280178868090D+03
 0.301154952716717D+03 -.165458917086955D+03 -.225917741868603D+03 0.110809865134887D+03
 0.134423551485913D+02 0.881618694273788D+01 -.101046039861208D+02 -.932061164961769D+00
0.519352077329D-03 0.000000000000D+00 0.000000000000D+00 0.124945415879D-03 0.428898254737D-05  6 1 -2 25 3 -4 21 2 0.30635398D+00 0.39482674D-01 0.39553059D+06 0.39553059D+06 0.39553059D+06 0.10757796D+01  1  2  1  2  6  2       -2 0.122759704956D-02 0.100000000000D+01
  </mgrwgt>
  </event>
  <event>
  7     66 0.21897909E-05 0.61134632E+02 0.75467711E-02 0.90317325E-01
        1 -1    0    0  501    0 0.00000000E+00 0.00000000E+00 0.16697758E+04 0.16697758E+04 0.32000000E+00 0.0000E+00 0.9000E+01
       21 -1    0    0  503  501 0.00000000E+00 0.00000000E+00 -.36335538E+03 0.36335615E+03 0.75000000E+00 0.0000E+00 0.9000E+01
      -24  2    1    2    0    0 -.65484758E+03 -.32349345E+03 0.35230818E+03 0.81488387E+03 0.80257724E+02 0.0000E+00 0.0000E+00
       25  1    1    2    0    0 0.61752644E+03 0.25578135E+03 0.84832355E+03 0.10872170E+04 0.12500000E+03 0.0000E+00 0.9000E+01
        3  1    3    3  502    0 -.83018078E+02 -.60192850E+02 0.25937188E+02 0.10577414E+03 0.50000000E+00 0.0000E+00 0.9000E+01
        2  1    1    2  503    0 0.37321142E+02 0.67712100E+02 0.10578869E+03 0.13103108E+03 0.32000000E+00 0.0000E+00 0.9000E+01
       -4  1    3    3    0  502 -.57182951E+03 -.26330060E+03 0.32637099E+03 0.70910974E+03 0.15500000E+01 0.0000E+00 0.9000E+01
#aMCatNLO 2  0  0  2  2 0.20109107D+03 0.00000000D+00  -5  6  0 0.00000000D+00 0.00000000D+00 0.00000000D+00 0.00000000D+00 0.00000000D+00
  <mgrwgt>
 0.2044796294D-04    1    2    0
 0.736629734669298D+03 0.000000000000000D+00 0.000000000000000D+00 0.736629734669298D+03
 0.736629734669298D+03 0.000000000000000D+00 0.000000000000000D+00 -.736629734669298D+03
 0.739746530440591D+03 0.635893888072048D+03 0.289105577154724D+03 0.208942235245867D+03
 0.110573248525857D+03 -.801680510155205D+02 -.550183469721482D+02 -.526546140654932D+02
 0.000000000000000D+00 0.000000000000000D+00 0.000000000000000D+00 0.000000000000000D+00
 0.622939690372149D+03 -.555725837056528D+03 -.234087230182576D+03 -.156287621180374D+03
 0.793944617141782D+03 0.000000000000000D+00 0.000000000000000D+00 0.793944617141782D+03
 0.764187243513975D+03 0.000000000000000D+00 0.000000000000000D+00 -.764187243513975D+03
 0.711368303422248D+03 0.617526442733924D+03 0.255781347968718D+03 0.208942235245867D+03
 0.115284939954633D+03 -.830268447059138D+02 -.602050833081173D+02 -.526546140654932D+02
 0.828450206939800D+02 0.373211422688283D+02 0.677121001617210D+02 0.297573736278072D+02
 0.648633596584895D+03 -.571820740296839D+03 -.263288364822321D+03 -.156287621180374D+03
0.107849748272D-05 0.000000000000D+00 0.000000000000D+00 0.945691496628D-04 0.622963986087D-09  6 1 21 25 3 2 -4 2 0.25688854D+00 0.55900867D-01 0.55456962D+06 0.55456962D+06 0.55456962D+06 0.10653455D+01  1  2  1  6  5  2       -2 0.204479629351D-04 0.100000000000D+01
  </mgrwgt>
  </event>
  <event>
  7     66 0.21897909E-05 0.50916583E+02 0.75467711E-02 0.95182568E-01
        1 -1    0    0  501    0 0.00000000E+00 0.00000000E+00 0.11355766E+04 0.11355766E+04 0.32000000E+00 0.0000E+00 0.9000E+01
       -2 -1    0    0    0  503 0.00000000E+00 0.00000000E+00 -.21417219E+03 0.21417243E+03 0.32000000E+00 0.0000E+00 0.9000E+01
      -24  2    1    2    0    0 -.11821389E+03 0.43819940E+03 0.56062119E+03 0.72540779E+03 0.76987691E+02 0.0000E+00 0.0000E+00
       25  1    1    2    0    0 0.12719166E+03 -.44927817E+03 0.36876610E+03 0.60798193E+03 0.12500000E+03 0.0000E+00 0.9000E+01
        3  1    3    3  502    0 -.30035538E+02 0.16279654E+03 0.26039394E+03 0.30856134E+03 0.50000000E+00 0.0000E+00 0.9000E+01
       -4  1    3    3    0  502 -.88178348E+02 0.27540287E+03 0.30022725E+03 0.41684645E+03 0.15500000E+01 0.0000E+00 0.9000E+01
       21  1    1    2  501  503 -.89777714E+01 0.11078765E+02 -.79828858E+01 0.16359352E+02 0.75000000E+00 0.0000E+00 0.9000E+01
#aMCatNLO 2  0  0  2  2 0.20109107D+03 0.00000000D+00  -5  6  0 0.00000000D+00 0.00000000D+00 0.00000000D+00 0.00000000D+00 0.00000000D+00
  <mgrwgt>
 0.1650846227D-02    1    2    0
 0.478007341194632D+03 0.000000000000000D+00 0.000000000000000D+00 0.478007341194632D+03
 0.478007341194632D+03 0.000000000000000D+00 0.000000000000000D+00 -.478007341194632D+03
 0.483079384410042D+03 0.122625595134114D+03 -.443643549563588D+03 -.767076006052185D+02
 0.179449795308021D+03 -.317188069215509D+02 0.164917683946636D+03 0.632321425008015D+02
 0.293485502671200D+03 -.909067882125630D+02 0.278725865616952D+03 0.134754581044170D+02
 0.000000000000000D+00 -.000000000000000D+00 0.000000000000000D+00 -.000000000000000D+00
 0.479825636001690D+03 0.000000000000000D+00 0.000000000000000D+00 0.479825636001690D+03
 0.506860105080678D+03 0.000000000000000D+00 0.000000000000000D+00 -.506860105080678D+03
 0.489425833678612D+03 0.127191656769849D+03 -.449278168988362D+03 -.767076006052185D+02
 0.177260743640656D+03 -.300439960550786D+02 0.162850930890306D+03 0.632321425008015D+02
 0.289434446590014D+03 -.881698893584290D+02 0.275348472870772D+03 0.134754581044170D+02
 0.305647171730862D+02 -.897777135634125D+01 0.110787652272845D+02 -.270344690789873D+02
0.124361787084D-03 0.000000000000D+00 0.000000000000D+00 0.297131891190D-04 0.933921371992D-06  6 1 -2 25 3 -4 21 2 0.17470244D+00 0.32949275D-01 0.22674581D+06 0.22674581D+06 0.22674581D+06 0.10936633D+01  1  2  1  2  6  2       -2 0.165084622724D-02 0.100000000000D+01
  </mgrwgt>
  </event>
  <event>
  7     66 0.21897909E-05 0.96193156E+02 0.75467711E-02 0.93541393E-01
        1 -1    0    0  501    0 0.00000000E+00 0.00000000E+00 0.20998439E+04 0.20998440E+04 0.32000000E+00 0.0000E+00 0.9000E+01
       -2 -1    0    0    0  503 0.00000000E+00 0.00000000E+00 -.24684343E+03 0.24684363E+03 0.32000000E+00 0.0000E+00 0.9000E+01
      -24  2    1    2    0    0 -.43815308E+03 0.13667836E+03 0.11792987E+04 0.12680852E+04 0.81458399E+02 0.0000E+00 0.0000E+00
       25  1    1    2    0    0 0.43091655E+03 -.25559496E+03 0.76883031E+03 0.92614410E+03 0.12500000E+03 0.0000E+00 0.9000E+01
        3  1    3    3  502    0 -.11105283E+03 -.12629153E+01 0.27065199E+03 0.29255269E+03 0.50000000E+00 0.0000E+00 0.9000E+01
       -4  1    3    3    0  502 -.32710025E+03 0.13794128E+03 0.90864676E+03 0.97553253E+03 0.15500000E+01 0.0000E+00 0.9000E+01
       21  1    1    2  501  503 0.72365299E+01 0.11891660E+03 -.95128547E+02 0.15245828E+03 0.75000000E+00 0.0000E+00 0.9000E+01
#aMCatNLO 2  0  0  2  2 0.20109107D+03 0.00000000D+00  -5  6  0 0.00000000D+00 0.00000000D+00 0.00000000D+00 0.00000000D+00 0.00000000D+00
  <mgrwgt>
 0.7697076202D-03    1    2    0
 0.501308773054374D+03 0.000000000000000D+00 0.000000000000000D+00 0.501308773054374D+03
 0.501308773054374D+03 0.000000000000000D+00 0.000000000000000D+00 -.501308773054374D+03
 0.505791803267820D+03 0.434638819781544D+03 -.194427579264672D+03 -.116135098110347D+03
 0.113438625877205D+03 -.110264285469195D+03 0.121478302742632D+02 0.237179132830865D+02
 0.383387116963723D+03 -.324374534312349D+03 0.182279748990409D+03 0.924171848272603D+02
 0.000000000000000D+00 0.000000000000000D+00 0.000000000000000D+00 -.000000000000000D+00
 0.511822076936861D+03 0.000000000000000D+00 0.000000000000000D+00 0.511822076936861D+03
 0.101271989486957D+04 0.000000000000000D+00 0.000000000000000D+00 -.101271989486957D+04
 0.529273292633423D+03 0.430916550583983D+03 -.255594960268639D+03 -.116135098110347D+03
 0.113591708086027D+03 -.111080724959204D+03 -.126857318864692D+01 0.237179132830865D+02
 0.366805969475951D+03 -.327072355569133D+03 0.137946936951334D+03 0.924171848272603D+02
 0.514871001611027D+03 0.723652994435373D+01 0.118916596505952D+03 -.500897817932707D+03
0.347306363523D-03 0.000000000000D+00 0.000000000000D+00 0.911516230753D-04 0.525826448638D-07  6 1 -2 25 3 -4 21 2 0.32305276D+00 0.37975910D-01 0.30336525D+06 0.30336525D+06 0.30336525D+06 0.10841936D+01  1  2  1  2  6  2       -2 0.769707620166D-03 0.100000000000D+01
  </mgrwgt>
  </event>
  <event>
  7     66 0.21897909E-05 0.30020897E+02 0.75467711E-02 0.85203193E-01
        1 -1    0    0  503    0 0.00000000E+00 0.00000000E+00 0.10150048E+04 0.10150049E+04 0.32000000E+00 0.0000E+00 0.9000E+01
       -2 -1    0    0    0  501 0.00000000E+00 0.00000000E+00 -.18859094E+04 0.18859095E+04 0.32000000E+00 0.0000E+00 0.9000E+01
      -24  2    1    2    0    0 0.61989610E+03 -.10834450E+04 -.78324944E+03 0.14763604E+04 0.89644609E+02 0.0000E+00 0.0000E+00
       25  1    1    2    0    0 -.63450892E+03 0.10765658E+04 -.23385584E+03 0.12774619E+04 0.12500000E+03 0.0000E+00 0.9000E+01
        3  1    3    3  502    0 0.10379512E+03 -.16081363E+03 -.15752605E+03 0.24788941E+03 0.50000000E+00 0.0000E+00 0.9000E+01
       -4  1    3    3    0  502 0.51610098E+03 -.92263137E+03 -.62572338E+03 0.12284710E+04 0.15500000E+01 0.0000E+00 0.9000E+01
       21  1    1    2  503  501 0.14612817E+02 0.68792302E+01 0.14620067E+03 0.14709201E+03 0.75000000E+00 0.0000E+00 0.9000E+01
#aMCatNLO 2  0  0  1  2 0.22603158D+01 0.00000000D+00  -5  6  0 0.00000000D+00 0.00000000D+00 0.00000000D+00 0.00000000D+00 0.00000000D+00
  <mgrwgt>
 0.1617957009D-03    1    2    0
 0.127952857679096D+04 0.000000000000000D+00 0.000000000000000D+00 0.127952857679096D+04
 0.127952857679096D+04 0.000000000000000D+00 0.000000000000000D+00 -.127952857679096D+04
 0.128101131912260D+04 -.627192104514260D+03 0.108001028501743D+04 0.256071958659615D+03
 0.204334670419980D+03 0.104976410071438D+03 -.160283942411808D+03 -.710047087810624D+02
 0.107371116403934D+04 0.522215694442822D+03 -.919726342605618D+03 -.185067249878553D+03
 0.000000000000000D+00 0.000000000000000D+00 0.000000000000000D+00 0.000000000000000D+00
 0.149564137136306D+04 0.000000000000000D+00 0.000000000000000D+00 0.149564137136306D+04
 0.127985585760264D+04 0.000000000000000D+00 0.000000000000000D+00 -.127985585760264D+04
 0.128171497412302D+04 -.634508915823514D+03 0.107656577254708D+04 0.256071958659615D+03
 0.204170173684530D+03 0.103810092438881D+03 -.160833006130952D+03 -.710047087810624D+02
 0.107322297290925D+04 0.516086006690036D+03 -.922611996616829D+03 -.185067249878553D+03
 0.216389108248896D+03 0.146128166945968D+02 0.687923020070471D+01 0.215785513760420D+03
0.327232031751D-02 0.000000000000D+00 0.000000000000D+00 0.129619712676D-05 0.287249560309D-07  6 1 -2 25 3 -4 21 2 0.15615452D+00 0.29013977D+00 0.15883525D+07 0.15883525D+07 0.15883525D+07 0.10347439D+01  1  2  1  1  6  1        1 0.161795700910D-03 0.100000000000D+01
  </mgrwgt>
  </event>
  <event>
  7     66 0.21897909E-05 0.11734099E+03 0.75467711E-02 0.93053293E-01
        1 -1    0    0  503    0 0.00000000E+00 0.00000000E+00 0.15502232E+04 0.15502232E+04 0.32000000E+00 0.0000E+00 0.9000E+01
       -2 -1    0    0    0  501 0.00000000E+00 0.00000000E+00 -.22221825E+03 0.22221848E+03 0.32000000E+00 0.0000E+00 0.9000E+01
      -24  2    1    2    0    0 0.50557772E+03 -.21376781E+03 0.57577044E+03 0.80007315E+03 0.85439701E+02 0.0000E+00 0.0000E+00
       25  1    1    2    0    0 -.44388776E+03 0.99655378E+02 0.66757543E+03 0.81746529E+03 0.12500000E+03 0.0000E+00 0.9000E+01
        3  1    3    3  502    0 0.35514989E+02 -.24836551E+02 0.81395050E+02 0.92214819E+02 0.50000000E+00 0.0000E+00 0.9000E+01
       -4  1    3    3    0  502 0.47006273E+03 -.18893126E+03 0.49437539E+03 0.70785834E+03 0.15500000E+01 0.0000E+00 0.9000E+01
       21  1    1    2  503  501 -.61689960E+02 0.11411244E+03 0.84659069E+02 0.15490326E+03 0.75000000E+00 0.0000E+00 0.9000E+01
#aMCatNLO 2  0  0  1  2 0.18601487D+02 0.00000000D+00  -5  6  0 0.00000000D+00 0.00000000D+00 0.00000000D+00 0.00000000D+00 0.00000000D+00
  <mgrwgt>
 0.2955248059D-04    1    2    0
 0.513248076623280D+03 0.000000000000000D+00 0.000000000000000D+00 0.513248076623280D+03
 0.513248076623280D+03 0.000000000000000D+00 0.000000000000000D+00 -.513248076623280D+03
 0.517303163083975D+03 -.473610055474293D+03 0.154634880299536D+03 0.613117581306418D+02
 0.418232743142249D+02 0.328715694535727D+02 -.199566905793125D+02 0.164431352589289D+02
 0.467369715848360D+03 0.440738486020721D+03 -.134678189720224D+03 -.777548933895706D+02
 0.000000000000000D+00 -.000000000000000D+00 0.000000000000000D+00 -.000000000000000D+00
 0.560648860701121D+03 0.000000000000000D+00 0.000000000000000D+00 0.560648860701121D+03
 0.614443271313791D+03 0.000000000000000D+00 0.000000000000000D+00 -.614443271313791D+03
 0.475764302440155D+03 -.443887762189188D+03 0.996553780283410D+02 0.613117581306418D+02
 0.463499332732086D+02 0.355105743820233D+02 -.248382512336567D+02 0.164431352589289D+02
 0.512545926877749D+03 0.470067148109550D+03 -.188929563544464D+03 -.777548933895706D+02
 0.140431969423799D+03 -.616899603023857D+02 0.114112436749779D+03 -.537944106126707D+02
0.477322892013D-05 0.000000000000D+00 0.000000000000D+00 0.532051144486D-05 0.199348526352D-08  6 1 -2 25 3 -4 21 2 0.23849548D+00 0.34187384D-01 0.33146859D+06 0.33146859D+06 0.33146859D+06 0.10813613D+01  1  2  1  1  6  1        1 0.295524805902D-04 0.100000000000D+01
  </mgrwgt>
  </event>
  <event>
  6     66 -.21897909E-05 0.15565319E+02 0.75467711E-02 0.94449647E-01
        1 -1    0    0  501    0 0.00000000E+00 0.00000000E+00 0.12305334E+04 0.12305334E+04 0.32000000E+00 0.0000E+00 0.9000E+01
       -2 -1    0    0    0  501 0.00000000E+00 0.00000000E+00 -.28489833E+03 0.28489851E+03 0.32000000E+00 0.0000E+00 0.9000E+01
      -24  2    1    2    0    0 0.35025162E+03 0.31247679E+03 0.91154518E+03 0.10284976E+04 0.81084798E+02 0.0000E+00 0.0000E+00
       25  1    1    2    0    0 -.35025162E+03 -.31247679E+03 0.34089898E+02 0.48693436E+03 0.12500000E+03 0.0000E+00 0.9000E+01
        3  1    3    3  502    0 0.33386183E+03 0.31339089E+03 0.85900189E+03 0.97342800E+03 0.50000000E+00 0.0000E+00 0.9000E+01
       -4  1    3    3    0  502 0.16389794E+02 -.91409395E+00 0.52543288E+02 0.55069597E+02 0.15500000E+01 0.0000E+00 0.9000E+01
#aMCatNLO 1  0  0  2  2 0.74551275D+02 0.00000000D+00  -5  6  0 0.00000000D+00 0.00000000D+00 0.00000000D+00 0.00000000D+00 0.00000000D+00
  <mgrwgt>
 -.5960876340D-04    7    4    0
 0.592095494794665D+03 0.000000000000000D+00 0.000000000000000D+00 0.592095494794665D+03
 0.592095494794665D+03 0.000000000000000D+00 0.000000000000000D+00 -.592095494794665D+03
 0.595916776864595D+03 -.350251624276209D+03 -.312476791634888D+03 -.345215670748203D+03
 0.559962554916355D+03 0.333983257963030D+03 0.313505488078265D+03 0.322067625280252D+03
 0.283116578083789D+02 0.162683663131788D+02 -.102869644337731D+01 0.231480454679515D+02
 0.000000000000000D+00 -.000000000000000D+00 0.000000000000000D+00 -.000000000000000D+00
 0.594855734640470D+03 0.000000000000000D+00 0.000000000000000D+00 0.594855734640470D+03
 0.932608985782628D+03 0.000000000000000D+00 0.000000000000000D+00 -.932608985782628D+03
 0.580925575767013D+03 -.323440599076235D+03 -.313148278167565D+03 -.345215670748203D+03
 0.575412181391245D+03 0.359849560784719D+03 0.312857662272823D+03 0.322067625280252D+03
 0.290838977201501D+02 0.175759617461617D+02 -.106144538590707D+01 0.231480454679515D+02
 0.342043065544689D+03 -.539849234546455D+02 0.135206128064896D+01 -.337753251142158D+03
 0.592095494794665D+03 0.000000000000000D+00 0.000000000000000D+00 0.592095494794665D+03
 0.592095494794665D+03 0.000000000000000D+00 0.000000000000000D+00 -.592095494794665D+03
 0.595916776864595D+03 -.350251624276209D+03 -.312476791634888D+03 -.345215670748203D+03
 0.559962554916355D+03 0.333983257963030D+03 0.313505488078265D+03 0.322067625280252D+03
 0.000000000000000D+00 -.000000000000000D+00 0.000000000000000D+00 -.000000000000000D+00
 0.283116578083789D+02 0.162683663131788D+02 -.102869644337731D+01 0.231480454679515D+02
 0.594855734640470D+03 0.000000000000000D+00 0.000000000000000D+00 0.594855734640470D+03
 0.932608985782628D+03 0.000000000000000D+00 0.000000000000000D+00 -.932608985782628D+03
 0.580925575767013D+03 -.323440599076235D+03 -.313148278167565D+03 -.345215670748203D+03
 0.575412181391245D+03 0.359849560784719D+03 0.312857662272823D+03 0.322067625280252D+03
 0.342043065544689D+03 -.539849234546455D+02 0.135206128064896D+01 -.337753251142158D+03
 0.290838977201501D+02 0.175759617461617D+02 -.106144538590707D+01 0.231480454679515D+02
0.103295355263D-05 0.000000000000D+00 0.000000000000D+00 0.106467951978D-04 0.000000000000D+00  6 1 -2 25 3 -4 21 0 0.18931285D+00 0.43830529D-01 0.23045426D+06 0.23045426D+06 0.23045426D+06 0.10931289D+01  1  2  2  2  6  2       -2 0.577181833309D-05 0.100000000000D+01
0.316534847247D-06 0.000000000000D+00 -.396681362503D-08 0.106467951978D-04 0.000000000000D+00  6 1 -2 25 3 -4 21 2 0.18931285D+00 0.43830529D-01 0.23045426D+06 0.23045426D+06 0.23045426D+06 0.10931289D+01  1  2  3  2  6  2       -2 0.211347018204D-05 0.100000000000D+01
-.292872147220D-06 0.000000000000D+00 0.000000000000D+00 0.106467951978D-04 0.000000000000D+00  6 1 -2 25 3 -4 21 2 0.18931285D+00 0.43830529D-01 0.23045426D+06 0.23045426D+06 0.23045426D+06 0.10931289D+01  1  2 15  2  6  2       -2 -.195547680036D-05 0.100000000000D+01
-.158621939760D-04 0.000000000000D+00 0.000000000000D+00 0.106467951978D-04 0.000000000000D+00  6 1 -2 25 3 -4 21 2 0.18931285D+00 0.43830529D-01 0.23045426D+06 0.23045426D+06 0.23045426D+06 0.10931289D+01  1  2  4  2  6  2       -2 -.105910215831D-03 0.100000000000D+01
-.192345168355D-04 0.000000000000D+00 -.374338583202D-06 0.106467951978D-04 0.000000000000D+00  6 1 -2 25 3 -4 21 2 0.18931285D+00 0.69163882D-01 0.23045426D+06 0.23045426D+06 0.23045426D+06 0.10931289D+01  1  2  5  2  6  2       -2 -.509156368379D-04 0.100000000000D+01
0.175802018876D-04 0.000000000000D+00 0.338506929481D-06 0.106467951978D-04 0.000000000000D+00  6 1 -2 25 3 -4 21 2 0.18931285D+00 0.43830529D-01 0.23045426D+06 0.23045426D+06 0.23045426D+06 0.10931289D+01  1  2  6  2  6  2       -2 0.117381175585D-03 0.100000000000D+01
-.994739366691D-06 0.000000000000D+00 -.196542615848D-07 0.106467951978D-04 0.000000000000D+00  6 1 21 25 3 2 -4 2 0.18931285D+00 0.69163882D-01 0.23045426D+06 0.23045426D+06 0.23045426D+06 0.10931289D+01  3  4  5  6  5  2       -2 -.260938980300D-04 0.100000000000D+01
  </mgrwgt>
  </event>
  <event>
  7     66 0.21897909E-05 0.48281071E+02 0.75467711E-02 0.93984767E-01
        1 -1    0    0  501    0 0.00000000E+00 0.00000000E+00 0.77893561E+03 0.77893567E+03 0.32000000E+00 0.0000E+00 0.9000E+01
       -2 -1    0    0    0  503 0.00000000E+00 0.00000000E+00 -.60182058E+03 0.60182067E+03 0.32000000E+00 0.0000E+00 0.9000E+01
      -24  2    1    2    0    0 0.43176032E+03 -.28838145E+03 -.32318720E+03 0.61680759E+03 0.80129882E+02 0.0000E+00 0.0000E+00
       25  1    1    2    0    0 -.41790843E+03 0.27663443E+03 0.52286528E+03 0.73497426E+03 0.12500000E+03 0.0000E+00 0.9000E+01
        3  1    3    3  502    0 0.30534445E+03 -.16436737E+03 -.19167648E+03 0.39622215E+03 0.50000000E+00 0.0000E+00 0.9000E+01
       -4  1    3    3    0  502 0.12641586E+03 -.12401408E+03 -.13151072E+03 0.22058544E+03 0.15500000E+01 0.0000E+00 0.9000E+01
       21  1    1    2  501  503 -.13851890E+02 0.11747023E+02 -.22563053E+02 0.28974493E+02 0.75000000E+00 0.0000E+00 0.9000E+01
#aMCatNLO 2  0  0  2  1 0.59399478D+01 0.00000000D+00  -5  6  0 0.00000000D+00 0.00000000D+00 0.00000000D+00 0.00000000D+00 0.00000000D+00
  <mgrwgt>
 0.1375072266D-02    1    2    0
 0.668414721287061D+03 0.000000000000000D+00 0.000000000000000D+00 0.668414721287061D+03
 0.668414721287061D+03 0.000000000000000D+00 0.000000000000000D+00 -.668414721287061D+03
 0.671857270420067D+03 -.424834378114029D+03 0.282507940617354D+03 0.418894027740801D+03
 0.424825379736628D+03 0.301028423993207D+03 -.160671120706143D+03 -.253067742289625D+03
 0.240146792417427D+03 0.123805954120822D+03 -.121836819911211D+03 -.165826285451176D+03
 0.000000000000000D+00 -.000000000000000D+00 0.000000000000000D+00 -.000000000000000D+00
 0.671234608530948D+03 0.000000000000000D+00 0.000000000000000D+00 0.671234608530948D+03
 0.698375180599280D+03 0.000000000000000D+00 0.000000000000000D+00 -.698375180599280D+03
 0.665034785701721D+03 -.417908428437948D+03 0.276634425111820D+03 0.418894027740801D+03
 0.429395619465057D+03 0.305453831134816D+03 -.164424064155084D+03 -.253067742289625D+03
 0.242522408483845D+03 0.126306487039938D+03 -.123957383813551D+03 -.165826285451176D+03
 0.326569754796051D+02 -.138518897368067D+02 0.117470228568155D+02 -.271405720683322D+02
0.457861081243D-03 0.000000000000D+00 0.000000000000D+00 0.168678838718D-03 0.322655318134D-05  6 1 -2 25 3 -4 21 2 0.11983549D+00 0.92587201D-01 0.28013519D+06 0.28013519D+06 0.28013519D+06 0.10867601D+01  1  2  1  2  6  2       -2 0.137507226629D-02 0.100000000000D+01
  </mgrwgt>
  </event>
  <event>
  6     66 0.21897909E-05 0.59753623E+02 0.75467711E-02 0.90582466E-01
        1 -1    0    0  501    0 0.00000000E+00 0.00000000E+00 0.14132031E+04 0.14132031E+04 0.32000000E+00 0.0000E+00 0.9000E+01
       -2 -1    0    0    0  501 0.00000000E+00 0.00000000E+00 -.37966095E+03 0.37966109E+03 0.32000000E+00 0.0000E+00 0.9000E+01
       25  1    1    2    0    0 0.70186349E+03 0.14314284E+03 0.59912038E+03 0.94216371E+03 0.12500000E+03 0.0000E+00 0.9000E+01
        3  1    1    2  503    0 -.26002218E+03 -.45115082E+02 0.10837608E+03 0.28529376E+03 0.50000000E+00 0.0000E+00 0.9000E+01
       -4  1    1    2    0  502 -.44126169E+03 -.87188004E+02 0.31101685E+03 0.54685237E+03 0.15500000E+01 0.0000E+00 0.9000E+01
       21  1    1    2  502  503 -.57961842E+00 -.10839755E+02 0.15028802E+02 0.18554343E+02 0.75000000E+00 0.0000E+00 0.9000E+01
#aMCatNLO 2  0  0  4  1 0.31726737D+02 0.00000000D+00  -5  6  0 0.00000000D+00 0.00000000D+00 0.00000000D+00 0.00000000D+00 0.00000000D+00
  <mgrwgt>
 0.8653539541D-03    1    2    0
 0.732487659027645D+03 0.000000000000000D+00 0.000000000000000D+00 0.732487659027645D+03
 0.732487659027645D+03 -.000000000000000D+00 -.000000000000000D+00 -.732487659027645D+03
 0.735663866977320D+03 0.707035294417109D+03 0.144253300551659D+03 0.697739414429826D+02
 0.282725151972965D+03 -.268929841521921D+03 -.577448549640189D+02 -.653894763881389D+02
 0.446586299105005D+03 -.438105452895188D+03 -.865084455876402D+02 -.438446505484358D+01
 0.000000000000000D+00 0.000000000000000D+00 -.000000000000000D+00 0.000000000000000D+00
 0.732487659027645D+03 0.000000000000000D+00 0.000000000000000D+00 0.732487659027645D+03
 0.732487659027645D+03 -.000000000000000D+00 -.000000000000000D+00 -.732487659027645D+03
 0.730338953795909D+03 0.701845648349987D+03 0.143138975128476D+03 0.685120947209956D+02
 0.272674470765089D+03 -.260004663969442D+03 -.450741492746044D+02 -.686823324322180D+02
 0.449839558940713D+03 -.441278798036653D+03 -.871898290812221D+02 -.515605431405297D+01
 0.121223345535792D+02 -.562186343892162D+00 -.108749967726491D+02 0.532629202527538D+01
0.334612720934D-03 0.000000000000D+00 0.000000000000D+00 0.117497510733D-03 0.413368709878D-06  6 1 -2 25 3 -4 21 2 0.21741587D+00 0.58409390D-01 0.52685867D+06 0.52685867D+06 0.52685867D+06 0.10669081D+01  1  2  1  3  6  4        3 0.865353954108D-03 0.100000000000D+01
  </mgrwgt>
  </event>
  <event>
  6     66 0.21897909E-05 0.58625733E+02 0.75467711E-02 0.95317033E-01
        1 -1    0    0  501    0 0.00000000E+00 0.00000000E+00 0.10369133E+04 0.10369134E+04 0.32000000E+00 0.0000E+00 0.9000E+01
       -2 -1    0    0    0  501 0.00000000E+00 0.00000000E+00 -.24570870E+03 0.24570891E+03 0.32000000E+00 0.0000E+00 0.9000E+01
       25  1    1    2    0    0 -.43759692E+03 0.13931542E+03 0.18881570E+03 0.51203146E+03 0.12500000E+03 0.0000E+00 0.9000E+01
        3  1    1    2  503    0 0.18992451E+02 -.16108139E+02 0.78817261E+02 0.82659518E+02 0.50000000E+00 0.0000E+00 0.9000E+01
       -4  1    1    2    0  502 0.28909992E+03 -.56568959E+02 0.40097639E+03 0.49755731E+03 0.15500000E+01 0.0000E+00 0.9000E+01
       21  1    1    2  502  503 0.12950455E+03 -.66638326E+02 0.12259526E+03 0.19037398E+03 0.75000000E+00 0.0000E+00 0.9000E+01
#aMCatNLO 2  0  0  4  1 0.31726737D+02 0.00000000D+00  -5  6  0 0.00000000D+00 0.00000000D+00 0.00000000D+00 0.00000000D+00 0.00000000D+00
  <mgrwgt>
 0.1637755443D-03    1    2    0
 0.504756172028352D+03 0.000000000000000D+00 0.000000000000000D+00 0.504756172028352D+03
 0.504756172028352D+03 -.000000000000000D+00 -.000000000000000D+00 -.504756172028352D+03
 0.509238757066315D+03 -.443568432317703D+03 0.142642909884024D+03 -.163092482381865D+03
 0.186519425198950D+03 0.158186349329210D+03 -.881704937318356D+02 0.446378639445078D+02
 0.313754161791439D+03 0.285382082988494D+03 -.544724161521889D+02 0.118454618437357D+03
 0.000000000000000D+00 0.000000000000000D+00 0.000000000000000D+00 0.000000000000000D+00
 0.504756172028352D+03 0.000000000000000D+00 0.000000000000000D+00 0.504756172028352D+03
 0.504756172028352D+03 -.000000000000000D+00 -.000000000000000D+00 -.504756172028352D+03
 0.502670733321372D+03 -.437686892781422D+03 0.139364635576436D+03 -.161432798327469D+03
 0.424438145851036D+02 0.185266803240879D+02 -.157700210476253D+02 0.347785271232288D+02
 0.317842804285683D+03 0.289053125272675D+03 -.565185953078449D+02 0.119490532640515D+03
 0.146554991864546D+03 0.130107087184659D+03 -.670760192209655D+02 0.716373856372530D+01
0.133890272410D-04 0.000000000000D+00 0.000000000000D+00 0.145879517964D-03 0.990316460950D-08  6 1 -2 25 3 -4 21 2 0.15952515D+00 0.37801359D-01 0.22150186D+06 0.22150186D+06 0.22150186D+06 0.10944355D+01  1  2  1  3  6  4        3 0.163775544265D-03 0.100000000000D+01
  </mgrwgt>
  </event>
  <event>
  7     66 0.21897909E-05 0.53302060E+02 0.75467711E-02 0.94848409E-01
        1 -1    0    0  501    0 0.00000000E+00 0.00000000E+00 0.18213966E+04 0.18213966E+04 0.32000000E+00 0.0000E+00 0.9000E+01
       -2 -1    0    0    0  503 0.00000000E+00 0.00000000E+00 -.13825222E+03 0.13825259E+03 0.32000000E+00 0.0000E+00 0.9000E+01
      -24  2    1    2    0    0 -.23412086E+03 0.40987161E+03 0.94180227E+03 0.10565299E+04 0.80352882E+02 0.0000E+00 0.0000E+00
       25  1    1    2    0    0 0.22586147E+03 -.41872326E+03 0.74279258E+03 0.89090313E+03 0.12500000E+03 0.0000E+00 0.9000E+01
        3  1    3    3  502    0 -.10901099E+03 0.12757453E+03 0.38153043E+03 0.41680256E+03 0.50000000E+00 0.0000E+00 0.9000E+01
       -4  1    3    3    0  502 -.12510987E+03 0.28229708E+03 0.56027184E+03 0.63972734E+03 0.15500000E+01 0.0000E+00 0.9000E+01
       21  1    1    2  501  503 0.82593862E+01 0.88516526E+01 -.14504586E+01 0.12216200E+02 0.75000000E+00 0.0000E+00 0.9000E+01
#aMCatNLO 2  0  0  2  1 0.59399478D+01 0.00000000D+00  -5  6  0 0.00000000D+00 0.00000000D+00 0.00000000D+00 0.00000000D+00 0.00000000D+00
  <mgrwgt>
 0.2754725971D-02    1    2    0
 0.488489766813546D+03 0.000000000000000D+00 0.000000000000000D+00 0.488489766813546D+03
 0.488489766813546D+03 0.000000000000000D+00 0.000000000000000D+00 -.488489766813546D+03
 0.493181991265954D+03 0.230038475499139D+03 -.414246731936474D+03 -.555465694623407D+02
 0.173239027541860D+03 -.107583261584133D+03 0.129179483485311D+03 0.418361510781937D+02
 0.310558514819277D+03 -.122455213915006D+03 0.285067248451163D+03 0.137104183841470D+02
 0.000000000000000D+00 0.000000000000000D+00 0.000000000000000D+00 -.000000000000000D+00
 0.489970096391724D+03 0.000000000000000D+00 0.000000000000000D+00 0.489970096391724D+03
 0.513923487111916D+03 0.000000000000000D+00 0.000000000000000D+00 -.513923487111916D+03
 0.495028278063693D+03 0.225861470435596D+03 -.418723262879363D+03 -.555465694623407D+02
 0.172991442207102D+03 -.109046721811354D+03 0.127611081031597D+03 0.418361510781937D+02
 0.309034821881224D+03 -.125074134791523D+03 0.282260529243894D+03 0.137104183841470D+02
 0.268390413516222D+02 0.825938616728047D+01 0.885165260387195D+01 -.239533907201921D+02
0.284752702595D-03 0.000000000000D+00 0.000000000000D+00 0.312831713238D-03 0.135876125326D-04  6 1 -2 25 3 -4 21 2 0.28021191D+00 0.21269376D-01 0.24039190D+06 0.24039190D+06 0.24039190D+06 0.10917418D+01  1  2  1  2  6  2       -2 0.275472597065D-02 0.100000000000D+01
  </mgrwgt>
  </event>
  <event>
  7     66 0.21897909E-05 0.55467030E+02 0.75467711E-02 0.95188648E-01
        1 -1    0    0  503    0 0.00000000E+00 0.00000000E+00 0.47478372E+03 0.47478383E+03 0.32000000E+00 0.0000E+00 0.9000E+01
       -2 -1    0    0    0  501 0.00000000E+00 0.00000000E+00 -.56670847E+03 0.56670856E+03 0.32000000E+00 0.0000E+00 0.9000E+01
      -24  2    1    2    0    0 -.42725562E+03 0.17356662E+03 0.34323692E+02 0.46959578E+03 0.81666066E+02 0.0000E+00 0.0000E+00
       25  1    1    2    0    0 0.41991605E+03 -.18513170E+03 -.18591112E+03 0.51067718E+03 0.12500000E+03 0.0000E+00 0.9000E+01
        3  1    3    3  502    0 -.27600721E+03 0.93698132E+02 0.57159862E+02 0.29703000E+03 0.50000000E+00 0.0000E+00 0.9000E+01
       -4  1    3    3    0  502 -.15124842E+03 0.79868484E+02 -.22836171E+02 0.17256579E+03 0.15500000E+01 0.0000E+00 0.9000E+01
       21  1    1    2  503  501 0.73395708E+01 0.11565087E+02 0.59662681E+02 0.61219430E+02 0.75000000E+00 0.0000E+00 0.9000E+01
#aMCatNLO 2  0  0  1  2 0.18601487D+02 0.00000000D+00  -5  6  0 0.00000000D+00 0.00000000D+00 0.00000000D+00 0.00000000D+00 0.00000000D+00
  <mgrwgt>
 0.1719100441D-02    1    2    0
 0.484192296646644D+03 0.000000000000000D+00 0.000000000000000D+00 0.484192296646644D+03
 0.484192296646644D+03 0.000000000000000D+00 0.000000000000000D+00 -.484192296646644D+03
 0.488816313805544D+03 0.423616833160390D+03 -.179300321745621D+03 -.108243068727371D+03
 0.308755998589537D+03 -.273757428395484D+03 0.974217140297745D+02 0.104384609492083D+03
 0.170812280898207D+03 -.149859404764907D+03 0.818786077158462D+02 0.385845923528888D+01
 0.000000000000000D+00 0.000000000000000D+00 0.000000000000000D+00 0.000000000000000D+00
 0.554875696094317D+03 0.000000000000000D+00 0.000000000000000D+00 0.554875696094317D+03
 0.484904780534869D+03 0.000000000000000D+00 0.000000000000000D+00 -.484904780534869D+03
 0.487795860629452D+03 0.419916053641369D+03 -.185131703427501D+03 -.108243068727371D+03
 0.309698268846391D+03 -.276101002381444D+03 0.937289043550510D+02 0.104384609492083D+03
 0.170987331924518D+03 -.151154622088483D+03 0.798377115922225D+02 0.385845923528888D+01
 0.712990152288245D+02 0.733957082855808D+01 0.115650874802271D+02 0.699709155594481D+02
0.235714897708D-03 0.000000000000D+00 0.000000000000D+00 0.137831546003D-03 0.472931365774D-05  6 1 -2 25 3 -4 21 2 0.73043369D-01 0.87185580D-01 0.22650572D+06 0.22650572D+06 0.22650572D+06 0.10936982D+01  1  2  1  1  6  1        1 0.171910044068D-02 0.100000000000D+01
  </mgrwgt>
  </event>
  <event>
  7     66 0.21897909E-05 0.15365639E+03 0.75467711E-02 0.91565106E-01
        1 -1    0    0  501    0 0.00000000E+00 0.00000000E+00 0.22444675E+04 0.22444675E+04 0.32000000E+00 0.0000E+00 0.9000E+01
       21 -1    0    0  503  501 0.00000000E+00 0.00000000E+00 -.29215834E+03 0.29215930E+03 0.75000000E+00 0.0000E+00 0.9000E+01
      -24  2    1    2    0    0 -.57951650E+02 -.64865607E+03 0.80649500E+03 0.10392791E+04 0.74523616E+02 0.0000E+00 0.0000E+00
       25  1    1    2    0    0 0.25444047E+02 0.47836166E+03 0.12139874E+04 0.13110559E+04 0.12500000E+03 0.0000E+00 0.9000E+01
        3  1    3    3  502    0 0.94871765E+01 -.14251198E+03 0.21161832E+03 0.25530811E+03 0.50000000E+00 0.0000E+00 0.9000E+01
        2  1    1    2  503    0 0.32507603E+02 0.17029441E+03 -.68173243E+02 0.18629177E+03 0.32000000E+00 0.0000E+00 0.9000E+01
       -4  1    3    3    0  502 -.67438827E+02 -.50614409E+03 0.59487669E+03 0.78397099E+03 0.15500000E+01 0.0000E+00 0.9000E+01
#aMCatNLO 2  0  0  2  1 0.60763469D+01 0.00000000D+00  -5  6  0 0.00000000D+00 0.00000000D+00 0.00000000D+00 0.00000000D+00 0.00000000D+00
  <mgrwgt>
 0.3599602157D-03    1    2    0
 0.594068336327841D+03 0.000000000000000D+00 0.000000000000000D+00 0.594068336327841D+03
 0.594068336327841D+03 0.000000000000000D+00 0.000000000000000D+00 -.594068336327841D+03
 0.598306582229577D+03 0.407096664151262D+02 0.558332173866354D+03 0.170157788611857D+03
 0.125042296892617D+03 0.131512707986419D+02 -.123393552387457D+03 -.153834754774795D+02
 0.000000000000000D+00 0.000000000000000D+00 0.000000000000000D+00 -.000000000000000D+00
 0.464787793533487D+03 -.538609372137681D+02 -.434938621478898D+03 -.154774313134377D+03
 0.616583684026284D+03 0.000000000000000D+00 0.000000000000000D+00 0.616583684026284D+03
 0.106350692796742D+04 0.000000000000000D+00 0.000000000000000D+00 -.106350692796742D+04
 0.523503538205125D+03 0.254440472525114D+02 0.478361664378971D+03 0.170157788611857D+03
 0.143692521836543D+03 0.949432090692230D+01 -.142550858939873D+03 -.153834754774795D+02
 0.479371792829517D+03 0.325076031213837D+02 0.170294408378614D+03 -.446923243941134D+03
 0.533522759122517D+03 -.674459712808174D+02 -.506105213817712D+03 -.154774313134377D+03
0.277189621485D-04 0.000000000000D+00 0.000000000000D+00 0.708263077443D-05 0.110272860441D-09  6 1 21 25 3 2 -4 2 0.34530273D+00 0.44947508D-01 0.43685068D+06 0.43685068D+06 0.43685068D+06 0.10726794D+01  1  2  1  6  5  2       -2 0.359960215663D-03 0.100000000000D+01
  </mgrwgt>
  </event>
  <event>
  7     66 0.21897909E-05 0.54946656E+02 0.75467711E-02 0.95187341E-01
        1 -1    0    0  503    0 0.00000000E+00 0.00000000E+00 0.10471799E+04 0.10471799E+04 0.32000000E+00 0.0000E+00 0.9000E+01
       -2 -1    0    0    0  501 0.00000000E+00 0.00000000E+00 -.36416268E+03 0.36416282E+03 0.32000000E+00 0.0000E+00 0.9000E+01
      -24  2    1    2    0    0 0.38206728E+03 -.26100970E+03 0.32481353E+03 0.57098897E+03 0.80144287E+02 0.0000E+00 0.0000E+00
       25  1    1    2    0    0 -.37219577E+03 0.26301830E+03 -.93375297E+01 0.47267379E+03 0.12500000E+03 0.0000E+00 0.9000E+01
        3  1    3    3  502    0 0.22608204E+03 -.19985464E+03 0.19909922E+03 0.36151862E+03 0.50000000E+00 0.0000E+00 0.9000E+01
       -4  1    3    3    0  502 0.15598524E+03 -.61155061E+02 0.12571431E+03 0.20947035E+03 0.15500000E+01 0.0000E+00 0.9000E+01
       21  1    1    2  503  501 -.98715056E+01 -.20086002E+01 0.36754120E+03 0.36767999E+03 0.75000000E+00 0.0000E+00 0.9000E+01
#aMCatNLO 2  0  0  1  1 0.50045758D+02 0.00000000D+00  -5  6  0 0.00000000D+00 0.00000000D+00 0.00000000D+00 0.00000000D+00 0.00000000D+00
  <mgrwgt>
 0.4922276700D-02    1    2    0
 0.497394553057172D+03 0.000000000000000D+00 0.000000000000000D+00 0.497394553057172D+03
 0.497394553057172D+03 0.000000000000000D+00 0.000000000000000D+00 -.497394553057172D+03
 0.502019600392193D+03 -.377161474751038D+03 0.262007909153078D+03 -.159686432369164D+03
 0.314410602834660D+03 0.223031630117015D+03 -.200563706202995D+03 0.942609086330049D+02
 0.178358902887492D+03 0.154129844634023D+03 -.614442029500828D+02 0.654255237361595D+02
 0.000000000000000D+00 -.000000000000000D+00 -.000000000000000D+00 0.000000000000000D+00
 0.766496827726461D+03 0.000000000000000D+00 0.000000000000000D+00 0.766496827726461D+03
 0.497514341949596D+03 0.000000000000000D+00 0.000000000000000D+00 -.497514341949596D+03
 0.498831711701873D+03 -.372195770986396D+03 0.263018303500862D+03 -.159686432369164D+03
 0.316234951527104D+03 0.226160565420000D+03 -.199927047494671D+03 0.942609086330049D+02
 0.179773447914760D+03 0.155906711128705D+03 -.610826558365039D+02 0.654255237361595D+02
 0.269171058532320D+03 -.987150556230893D+01 -.200860016968683D+01 0.268982485776864D+03
0.880530773916D-03 0.000000000000D+00 0.000000000000D+00 0.204264157643D-03 0.141058473310D-04  6 1 -2 25 3 -4 21 2 0.16110444D+00 0.56024984D-01 0.22655733D+06 0.22655733D+06 0.22655733D+06 0.10936907D+01  1  2  1  1  6  1        1 0.492227669959D-02 0.100000000000D+01
  </mgrwgt>
  </event>
  <event>
  7     66 0.21897909E-05 0.73553834E+02 0.75467711E-02 0.91701984E-01
        1 -1    0    0  501    0 0.00000000E+00 0.00000000E+00 0.64983529E+03 0.64983537E+03 0.32000000E+00 0.0000E+00 0.9000E+01
       -2 -1    0    0    0  503 0.00000000E+00 0.00000000E+00 -.84979071E+03 0.84979077E+03 0.32000000E+00 0.0000E+00 0.9000E+01
      -24  2    1    2    0    0 -.44721620E+03 0.46397573E+03 0.25756703E+03 0.69893805E+03 0.83053113E+02 0.0000E+00 0.0000E+00
       25  1    1    2    0    0 0.43698619E+03 -.45582213E+03 -.44487362E+03 0.78247574E+03 0.12500000E+03 0.0000E+00 0.9000E+01
        3  1    3    3  502    0 -.24016573E+03 0.19896852E+03 0.14817840E+03 0.34528993E+03 0.50000000E+00 0.0000E+00 0.9000E+01
       -4  1    3    3    0  502 -.20705047E+03 0.26500720E+03 0.10938864E+03 0.35364812E+03 0.15500000E+01 0.0000E+00 0.9000E+01
       21  1    1    2  501  503 0.10230012E+02 -.81535928E+01 -.12648829E+02 0.18212347E+02 0.75000000E+00 0.0000E+00 0.9000E+01
#aMCatNLO 2  0  0  2  1 0.92373995D+01 0.00000000D+00  -5  6  0 0.00000000D+00 0.00000000D+00 0.00000000D+00 0.00000000D+00 0.00000000D+00
  <mgrwgt>
 0.7235224924D-03    1    2    0
 0.734733273862811D+03 0.000000000000000D+00 0.000000000000000D+00 0.734733273862811D+03
 0.734733273862811D+03 0.000000000000000D+00 0.000000000000000D+00 -.734733273862811D+03
 0.737702780280362D+03 0.442102273351250D+03 -.459899788375071D+03 -.348737948298714D+03
 0.364322516150762D+03 -.237696031726621D+03 0.196999109301769D+03 0.193449846756592D+03
 0.367441251294498D+03 -.204406241624629D+03 0.262900679073302D+03 0.155288101542122D+03
 0.000000000000000D+00 0.000000000000000D+00 -.000000000000000D+00 -.000000000000000D+00
 0.737912839131722D+03 0.000000000000000D+00 0.000000000000000D+00 0.737912839131722D+03
 0.748342525439977D+03 0.000000000000000D+00 0.000000000000000D+00 -.748342525439977D+03
 0.732102386402146D+03 0.436986190156761D+03 -.455822133298066D+03 -.348737948298714D+03
 0.367084809603148D+03 -.240241907066046D+03 0.199028240007543D+03 0.193449846756592D+03
 0.370337580615149D+03 -.206974294839262D+03 0.264947486138509D+03 0.155288101542122D+03
 0.167305879512570D+02 0.102300117485474D+02 -.815359284798602D+01 -.104296863082550D+02
0.450222366245D-03 0.000000000000D+00 0.000000000000D+00 0.325858846841D-04 0.117025933887D-05  6 1 -2 25 3 -4 21 2 0.99973536D-01 0.13073556D+00 0.42573610D+06 0.42573610D+06 0.42573610D+06 0.10734808D+01  1  2  1  2  6  2       -2 0.723522492373D-03 0.100000000000D+01
  </mgrwgt>
  </event>
  <event>
  7     66 0.21897909E-05 0.16547227E+02 0.75467711E-02 0.93426406E-01
        1 -1    0    0  501    0 0.00000000E+00 0.00000000E+00 0.55370735E+03 0.55370745E+03 0.32000000E+00 0.0000E+00 0.9000E+01
       -2 -1    0    0    0  503 0.00000000E+00 0.00000000E+00 -.61539168E+03 0.61539176E+03 0.32000000E+00 0.0000E+00 0.9000E+01
      -24  2    1    2    0    0 0.71234172E+02 0.53611426E+03 0.12459184E+02 0.54663744E+03 0.78514018E+02 0.0000E+00 0.0000E+00
       25  1    1    2    0    0 -.88068678E+02 -.53129725E+03 -.68315256E+01 0.55290553E+03 0.12500000E+03 0.0000E+00 0.9000E+01
        3  1    3    3  502    0 -.64666652E+01 0.50960856E+02 0.20297094E+02 0.55236298E+02 0.50000000E+00 0.0000E+00 0.9000E+01
       -4  1    3    3    0  502 0.77700837E+02 0.48515341E+03 -.78379100E+01 0.49140114E+03 0.15500000E+01 0.0000E+00 0.9000E+01
       21  1    1    2  501  503 0.16834506E+02 -.48170156E+01 -.67311984E+02 0.69556236E+02 0.75000000E+00 0.0000E+00 0.9000E+01
#aMCatNLO 2  0  0  2  1 0.92373995D+01 0.00000000D+00  -5  6  0 0.00000000D+00 0.00000000D+00 0.00000000D+00 0.00000000D+00 0.00000000D+00
  <mgrwgt>
 0.1029732048D-03    1    2    0
 0.549694568374830D+03 0.000000000000000D+00 0.000000000000000D+00 0.549694568374830D+03
 0.549694568374830D+03 0.000000000000000D+00 0.000000000000000D+00 -.549694568374830D+03
 0.553997207348390D+03 -.795941129807251D+02 -.533722154235243D+03 -.966152198764713D+01
 0.548192828959488D+02 -.563055314831923D+01 0.507201664262123D+02 0.200228710770293D+02
 0.490572646505321D+03 0.852246661290443D+02 0.483001987809031D+03 -.103613490893822D+02
 0.000000000000000D+00 0.000000000000000D+00 -.000000000000000D+00 -.000000000000000D+00
 0.550878674814048D+03 0.000000000000000D+00 0.000000000000000D+00 0.550878674814048D+03
 0.618547299607367D+03 0.000000000000000D+00 0.000000000000000D+00 -.618547299607367D+03
 0.552947738896706D+03 -.880686781947399D+02 -.531297247183620D+03 -.966152198764713D+01
 0.551346863164306D+02 -.647234034450357D+01 0.509610349140278D+02 0.200228710770293D+02
 0.491446145693441D+03 0.777065123815554D+02 0.485153227852275D+03 -.103613490893822D+02
 0.698974035148379D+02 0.168345061576880D+02 -.481701558268309D+01 -.676686247933193D+02
0.218868427665D-04 0.000000000000D+00 0.000000000000D+00 0.331589506605D-04 0.682065234938D-06  6 1 -2 25 3 -4 21 2 0.85185450D-01 0.94675311D-01 0.30973719D+06 0.30973719D+06 0.30973719D+06 0.10835270D+01  1  2  1  2  6  2       -2 0.102973204780D-03 0.100000000000D+01
  </mgrwgt>
  </event>
  <event>
  7     66 0.21897909E-05 0.49877300E+02 0.75467711E-02 0.95244709E-01
        1 -1    0    0  501    0 0.00000000E+00 0.00000000E+00 0.13655302E+04 0.13655302E+04 0.32000000E+00 0.0000E+00 0.9000E+01
       -2 -1    0    0    0  503 0.00000000E+00 0.00000000E+00 -.33583780E+03 0.33583796E+03 0.32000000E+00 0.0000E+00 0.9000E+01
      -24  2    1    2    0    0 0.79751057E+02 0.37160604E+03 0.10403682E+04 0.11105311E+04 0.80387563E+02 0.0000E+00 0.0000E+00
       25  1    1    2    0    0 -.14296731E+03 -.43358523E+03 0.60551505E+02 0.47720781E+03 0.12500000E+03 0.0000E+00 0.9000E+01
        3  1    3    3  502    0 0.10532878E+02 0.20020345E+03 0.61130127E+03 0.64333651E+03 0.50000000E+00 0.0000E+00 0.9000E+01
       -4  1    3    3    0  502 0.69218179E+02 0.17140259E+03 0.42906692E+03 0.46719463E+03 0.15500000E+01 0.0000E+00 0.9000E+01
       21  1    1    2  501  503 0.63216256E+02 0.61979195E+02 -.71227298E+02 0.11362925E+03 0.75000000E+00 0.0000E+00 0.9000E+01
#aMCatNLO 2  0  0  2  1 0.92373995D+01 0.00000000D+00  -5  6  0 0.00000000D+00 0.00000000D+00 0.00000000D+00 0.00000000D+00 0.00000000D+00
  <mgrwgt>
 0.8696376683D-03    1    2    0
 0.570318567718912D+03 0.000000000000000D+00 0.000000000000000D+00 0.570318567718912D+03
 0.570318567718912D+03 0.000000000000000D+00 0.000000000000000D+00 -.570318567718912D+03
 0.574335112270516D+03 -.110363513559387D+03 -.401619448758862D+03 -.375176670970145D+03
 0.317063648749654D+03 0.277373830444230D+02 0.217137901226926D+03 0.229371155098144D+03
 0.249238374417654D+03 0.826261305149638D+02 0.184481547531937D+03 0.145805515872002D+03
 0.000000000000000D+00 0.000000000000000D+00 0.000000000000000D+00 -.000000000000000D+00
 0.581054569880723D+03 0.000000000000000D+00 0.000000000000000D+00 0.581054569880723D+03
 0.789247487249049D+03 0.000000000000000D+00 0.000000000000000D+00 -.789247487249049D+03
 0.604001938643308D+03 -.142967312938486D+03 -.433585233692043D+03 -.375176670970145D+03
 0.304681276158980D+03 0.105341161345239D+02 0.200271280137898D+03 0.229371155098144D+03
 0.235384436325311D+03 0.692169409424685D+02 0.171334758563611D+03 0.145805515872002D+03
 0.226234406002171D+03 0.632162558614933D+02 0.619791949905337D+02 -.208192917368326D+03
0.222105234738D-03 0.000000000000D+00 0.000000000000D+00 0.203085612511D-03 0.180192528499D-06  6 1 -2 25 3 -4 21 2 0.21008136D+00 0.51667315D-01 0.22430528D+06 0.22430528D+06 0.22430528D+06 0.10940203D+01  1  2  1  2  6  2       -2 0.869637668337D-03 0.100000000000D+01
  </mgrwgt>
  </event>
  <event>
  7     66 0.21897909E-05 0.58225328E+02 0.75467711E-02 0.94853865E-01
       21 -1    0    0  501  503 0.00000000E+00 0.00000000E+00 0.12856630E+03 0.12856849E+03 0.75000000E+00 0.0000E+00 0.9000E+01
       -2 -1    0    0    0  501 0.00000000E+00 0.00000000E+00 -.23803555E+04 0.23803555E+04 0.32000000E+00 0.0000E+00 0.9000E+01
      -24  2    1    2    0    0 -.43622780E+03 0.16699387E+03 -.81426149E+03 0.94186798E+03 0.76888806E+02 0.0000E+00 0.0000E+00
       25  1    1    2    0    0 0.44006699E+03 -.18333186E+03 -.14588899E+04 0.15398878E+04 0.12500000E+03 0.0000E+00 0.9000E+01
        3  1    3    3  502    0 -.23963670E+03 0.12163935E+03 -.51575446E+03 0.58157097E+03 0.50000000E+00 0.0000E+00 0.9000E+01
       -4  1    3    3    0  502 -.19659110E+03 0.45354518E+02 -.29850703E+03 0.36029702E+03 0.15500000E+01 0.0000E+00 0.9000E+01
       -1  1    1    2    0  503 -.38391881E+01 0.16337994E+02 0.21362191E+02 0.27168272E+02 0.32000000E+00 0.0000E+00 0.9000E+01
#aMCatNLO 2  0  0  1  5 0.50317245D+03 0.00000000D+00  -5  6  0 0.00000000D+00 0.00000000D+00 0.00000000D+00 0.00000000D+00 0.00000000D+00
  <mgrwgt>
 0.3525870245D-03    1    2    0
 0.497898737046468D+03 0.000000000000000D+00 0.000000000000000D+00 0.497898737046468D+03
 0.497898737046468D+03 0.000000000000000D+00 0.000000000000000D+00 -.497898737046468D+03
 0.502775788839926D+03 0.438119799894796D+03 -.175045431443990D+03 -.120700587050523D+03
 0.275094716624182D+03 -.240780632984212D+03 0.126175751904034D+03 0.422074581764066D+02
 0.217926968628829D+03 -.197339166910585D+03 0.488696795399567D+02 0.784931288741168D+02
 0.000000000000000D+00 -.000000000000000D+00 0.000000000000000D+00 0.000000000000000D+00
 0.613818574474273D+03 0.000000000000000D+00 0.000000000000000D+00 0.613818574474273D+03
 0.498577283269549D+03 0.000000000000000D+00 0.000000000000000D+00 -.498577283269549D+03
 0.507408274566142D+03 0.440066988640027D+03 -.183331860005690D+03 -.120700587050523D+03
 0.272135322506596D+03 -.239725815142743D+03 0.121686884191368D+03 0.422074581764066D+02
 0.216395296043507D+03 -.196501985394652D+03 0.453069818600625D+02 0.784931288741168D+02
 0.116456964627578D+03 -.383918810263207D+01 0.163379939542598D+02 0.115241291204724D+03
0.116633573137D-03 0.000000000000D+00 0.000000000000D+00 0.169258734002D-04 0.115925558335D-07  6 21 -2 25 3 -4 -1 2 0.19779592D-01 0.36620855D+00 0.24016179D+06 0.24016179D+06 0.24016179D+06 0.10917732D+01  1  2  1  5  6  1        1 0.352587024494D-03 0.100000000000D+01
  </mgrwgt>
  </event>
  <event>
  7     66 0.21897909E-05 0.51738106E+02 0.75467711E-02 0.89676550E-01
        1 -1    0    0  503    0 0.00000000E+00 0.00000000E+00 0.40380319E+04 0.40380319E+04 0.32000000E+00 0.0000E+00 0.9000E+01
       -2 -1    0    0    0  501 0.00000000E+00 0.00000000E+00 -.20329449E+03 0.20329474E+03 0.32000000E+00 0.0000E+00 0.9000E+01
      -24  2    1    2    0    0 -.11789298E+03 0.77159231E+03 0.19505921E+04 0.21026444E+04 0.83966306E+02 0.0000E+00 0.0000E+00
       25  1    1    2    0    0 0.10044457E+03 -.76779702E+03 0.10822980E+04 0.13366358E+04 0.12500000E+03 0.0000E+00 0.9000E+01
        3  1    3    3  502    0 -.71296982E+02 0.25877138E+03 0.73535344E+03 0.78280957E+03 0.50000000E+00 0.0000E+00 0.9000E+01
       -4  1    3    3    0  502 -.46595998E+02 0.51282092E+03 0.12152387E+04 0.13198348E+04 0.15500000E+01 0.0000E+00 0.9000E+01
       21  1    1    2  503  501 0.17448412E+02 -.37952899E+01 0.80184730E+03 0.80204645E+03 0.75000000E+00 0.0000E+00 0.9000E+01
#aMCatNLO 2  0  0  1  5 0.50317245D+03 0.00000000D+00  -5  6  0 0.00000000D+00 0.00000000D+00 0.00000000D+00 0.00000000D+00 0.00000000D+00
  <mgrwgt>
 0.5004234764D-03    1    2    0
 0.810849406329693D+03 0.000000000000000D+00 0.000000000000000D+00 0.810849406329693D+03
 0.810849406329693D+03 0.000000000000000D+00 0.000000000000000D+00 -.810849406329693D+03
 0.813493133920667D+03 0.109181209364235D+03 -.769697368259689D+03 -.204429703692834D+03
 0.283625853225549D+03 -.682608046324444D+02 0.258176062170881D+03 0.955468894877741D+02
 0.524579825513169D+03 -.409204047317911D+02 0.511521306088808D+03 0.108882814205060D+03
 0.000000000000000D+00 0.000000000000000D+00 -.000000000000000D+00 0.000000000000000D+00
 0.101184962020510D+04 0.000000000000000D+00 0.000000000000000D+00 0.101184962020510D+04
 0.811295236544456D+03 0.000000000000000D+00 0.000000000000000D+00 -.811295236544456D+03
 0.810566392505441D+03 0.100444568380599D+03 -.767797018482216D+03 -.204429703692834D+03
 0.284981701434922D+03 -.713196334406370D+02 0.258841403078888D+03 0.955468894877741D+02
 0.526249023544541D+03 -.465733467823006D+02 0.512750905335003D+03 0.108882814205060D+03
 0.201347739264652D+03 0.174484118423384D+02 -.379528993167509D+01 0.200554383660645D+03
0.548647009213D-02 0.000000000000D+00 0.000000000000D+00 0.206080028901D-04 0.398044794233D-06  6 1 -2 25 3 -4 21 2 0.62123516D+00 0.31276069D-01 0.62850723D+06 0.62850723D+06 0.62850723D+06 0.10615596D+01  1  2  1  1  6  1        1 0.500423476414D-03 0.100000000000D+01
  </mgrwgt>
  </event>
  <event>
  7     66 0.21897909E-05 0.30331113E+02 0.75467711E-02 0.94265914E-01
        1 -1    0    0  501    0 0.00000000E+00 0.00000000E+00 0.10681206E+04 0.10681207E+04 0.32000000E+00 0.0000E+00 0.9000E+01
       21 -1    0    0  503  501 0.00000000E+00 0.00000000E+00 -.39060793E+03 0.39060865E+03 0.75000000E+00 0.0000E+00 0.9000E+01
      -24  2    1    2    0    0 -.37018767E+03 -.34391611E+03 0.46270987E+03 0.68981762E+03 0.80191729E+02 0.0000E+00 0.0000E+00
       25  1    1    2    0    0 0.34915465E+03 0.30466519E+03 0.37091341E+03 0.60657366E+03 0.12500000E+03 0.0000E+00 0.9000E+01
        3  1    3    3  502    0 -.50801131E+02 -.25366557E+02 0.80861663E+02 0.98808277E+02 0.50000000E+00 0.0000E+00 0.9000E+01
        2  1    1    2  503    0 0.21033025E+02 0.39250923E+02 -.15611059E+03 0.16233805E+03 0.32000000E+00 0.0000E+00 0.9000E+01
       -4  1    3    3    0  502 -.31938654E+03 -.31854955E+03 0.38184821E+03 0.59100934E+03 0.15500000E+01 0.0000E+00 0.9000E+01
#aMCatNLO 2  0  0  2  5 0.19713992D+03 0.00000000D+00  -5  6  0 0.00000000D+00 0.00000000D+00 0.00000000D+00 0.00000000D+00 0.00000000D+00
  <mgrwgt>
 0.2637127139D-03    1    2    0
 0.495913182487493D+03 0.000000000000000D+00 0.000000000000000D+00 0.495913182487493D+03
 0.495913182487493D+03 0.000000000000000D+00 0.000000000000000D+00 -.495913182487493D+03
 0.500548210836302D+03 0.359552730665843D+03 0.324069640289106D+03 -.249842647489997D+02
 0.591102407387068D+02 -.495334069191290D+02 -.229856281693906D+02 0.226301360320785D+02
 0.000000000000000D+00 0.000000000000000D+00 0.000000000000000D+00 -.000000000000000D+00
 0.432167913399978D+03 -.310019323746714D+03 -.301084012119715D+03 0.235412871692123D+01
 0.497864044456009D+03 0.000000000000000D+00 0.000000000000000D+00 0.497864044456009D+03
 0.838013566609664D+03 0.000000000000000D+00 0.000000000000000D+00 -.838013566609664D+03
 0.480602807767802D+03 0.349154648567427D+03 0.304665187924388D+03 -.249842647489997D+02
 0.611298545486777D+02 -.508076922825570D+02 -.253636445573801D+02 0.226301360320785D+02
 0.343052066789723D+03 0.210330245781423D+02 0.392509233577474D+02 -.340149522153656D+03
 0.451092881959470D+03 -.319379980863013D+03 -.318552466724756D+03 0.235412871692123D+01
0.567149961131D-05 0.000000000000D+00 0.000000000000D+00 0.159808310899D-03 0.336734488376D-07  6 1 21 25 3 2 -4 2 0.16432628D+00 0.60093578D-01 0.26644056D+06 0.26644056D+06 0.26644056D+06 0.10883843D+01  1  2  1  6  5  2       -2 0.263712713861D-03 0.100000000000D+01
  </mgrwgt>
  </event>
  <event>
  6     66 0.21897909E-05 0.18705014E+02 0.75467711E-02 0.95316746E-01
        3 -1    0    0  501    0 0.00000000E+00 0.00000000E+00 0.25499868E+03 0.25499917E+03 0.50000000E+00 0.0000E+00 0.9000E+01
       -4 -1    0    0    0  501 0.00000000E+00 0.00000000E+00 -.91213548E+03 0.91213679E+03 0.15500000E+01 0.0000E+00 0.9000E+01
      -24  2    1    2    0    0 0.34316518E+03 -.29860003E+03 -.18190871E+03 0.49751588E+03 0.86642684E+02 0.0000E+00 0.0000E+00
       25  1    1    2    0    0 -.34316518E+03 0.29860003E+03 -.47522809E+03 0.66962008E+03 0.12500000E+03 0.0000E+00 0.9000E+01
        1  1    3    3  502    0 0.20356463E+02 -.41181301E+01 0.63728576E+01 0.21726949E+02 0.32000000E+00 0.0000E+00 0.9000E+01
       -2  1    3    3    0  502 0.32280871E+03 -.29448190E+03 -.18828157E+03 0.47578893E+03 0.32000000E+00 0.0000E+00 0.9000E+01
#aMCatNLO 1  0  0  1  2 0.11771854D+02 0.00000000D+00  -5  6  0 0.00000000D+00 0.00000000D+00 0.00000000D+00 0.00000000D+00 0.00000000D+00
  <mgrwgt>
 0.7539040690D-04    9    2    0
 0.482280409436815D+03 0.000000000000000D+00 0.000000000000000D+00 0.482280409436815D+03
 0.482280409436815D+03 0.000000000000000D+00 0.000000000000000D+00 -.482280409436815D+03
 0.486488566926374D+03 -.343165176969856D+03 0.298600031261708D+03 -.118835215301830D+03
 0.306260178494110D+02 0.203523374531007D+02 -.411417151290662D+01 0.225124170685856D+02
 0.447446234097844D+03 0.322812839516755D+03 -.294485859748801D+03 0.963227982332440D+02
 0.000000000000000D+00 0.000000000000000D+00 -.000000000000000D+00 0.000000000000000D+00
 0.512047777753592D+03 0.000000000000000D+00 0.000000000000000D+00 0.512047777753592D+03
 0.483481560392071D+03 0.000000000000000D+00 0.000000000000000D+00 -.483481560392071D+03
 0.490893652852049D+03 -.344290239263278D+03 0.304456895409894D+03 -.118835215301830D+03
 0.305321324380944D+02 0.202819384552148D+02 -.374768747980288D+01 0.225124170685856D+02
 0.443206864922893D+03 0.321787610903066D+03 -.289148711089285D+03 0.963227982332440D+02
 0.308966879326261D+02 0.222068990499720D+01 -.115604968408065D+02 0.285662173615204D+02
0.476870092089D-05 0.000000000000D+00 0.000000000000D+00 0.230530746276D-05 0.000000000000D+00  6 3 -4 25 1 -2 21 0 0.39230705D-01 0.14032867D+00 0.21597898D+06 0.21597898D+06 0.21597898D+06 0.10952708D+01  1  2  2  1  6  1        3 0.252925031310D-05 0.100000000000D+01
0.133783263021D-05 0.000000000000D+00 -.183130671640D-07 0.230530746276D-05 0.000000000000D+00  6 3 -4 25 1 -2 21 2 0.39230705D-01 0.14032867D+00 0.21597898D+06 0.21597898D+06 0.21597898D+06 0.10952708D+01  1  2  3  1  6  1        3 0.851209579002D-06 0.100000000000D+01
-.126828738685D-05 0.000000000000D+00 0.000000000000D+00 0.230530746276D-05 0.000000000000D+00  6 3 -4 25 1 -2 21 2 0.39230705D-01 0.14032867D+00 0.21597898D+06 0.21597898D+06 0.21597898D+06 0.10952708D+01  1  2 15  1  6  1        3 -.806960712600D-06 0.100000000000D+01
0.120450305652D-03 0.000000000000D+00 0.000000000000D+00 0.230530746276D-05 0.000000000000D+00  6 3 -4 25 1 -2 21 2 0.41699262D-01 0.14032867D+00 0.22151290D+06 0.22151290D+06 0.22151290D+06 0.10944339D+01  1  2 12  1  6  1        3 0.678955529402D-04 0.100000000000D+01
-.101186699538D-04 0.000000000000D+00 0.000000000000D+00 0.230530746276D-05 0.000000000000D+00  6 3 -4 25 1 -2 21 2 0.39230705D-01 0.14032867D+00 0.21597898D+06 0.21597898D+06 0.21597898D+06 0.10952708D+01  1  2  4  1  6  1        3 -.643810637961D-05 0.100000000000D+01
-.230330697602D-03 0.000000000000D+00 -.134459270084D-04 0.230530746276D-05 0.000000000000D+00  6 3 -4 25 1 -2 21 2 0.41712985D-01 0.14032867D+00 0.21597898D+06 0.21597898D+06 0.21597898D+06 0.10952708D+01  1  2  5  1  6  1        3 -.129964472027D-03 0.100000000000D+01
0.230746489293D-03 0.000000000000D+00 0.134206603257D-04 0.230530746276D-05 0.000000000000D+00  6 3 -4 25 1 -2 21 2 0.39230705D-01 0.14032867D+00 0.21597898D+06 0.21597898D+06 0.21597898D+06 0.10952708D+01  1  2  6  1  6  1        3 0.146814793997D-03 0.100000000000D+01
0.179893187439D-05 0.000000000000D+00 0.000000000000D+00 0.230530746276D-05 0.000000000000D+00  6 21 -4 25 1 -2 -3 2 0.41699262D-01 0.14032867D+00 0.22151290D+06 0.22151290D+06 0.22151290D+06 0.10944339D+01  1  2 12  5  6  1        3 0.153713265721D-04 0.100000000000D+01
-.243694482271D-05 0.000000000000D+00 -.141398514664D-06 0.230530746276D-05 0.000000000000D+00  6 21 -4 25 1 -2 -3 2 0.41712985D-01 0.14032867D+00 0.21597898D+06 0.21597898D+06 0.21597898D+06 0.10952708D+01  1  2  5  5  6  1        3 -.208621873835D-04 0.100000000000D+01
  </mgrwgt>
  </event>
  <event>
  7     66 0.21897909E-05 0.62718146E+02 0.75467711E-02 0.94807883E-01
        1 -1    0    0  501    0 0.00000000E+00 0.00000000E+00 0.16262888E+04 0.16262888E+04 0.32000000E+00 0.0000E+00 0.9000E+01
       -2 -1    0    0    0  503 0.00000000E+00 0.00000000E+00 -.16900989E+03 0.16901019E+03 0.32000000E+00 0.0000E+00 0.9000E+01
      -24  2    1    2    0    0 0.85409146E+01 0.48081233E+03 0.51376583E+03 0.70848722E+03 0.82130218E+02 0.0000E+00 0.0000E+00
       25  1    1    2    0    0 -.78176694E+01 -.46906389E+03 0.95438275E+03 0.10707724E+04 0.12500000E+03 0.0000E+00 0.9000E+01
        3  1    3    3  502    0 0.40703369E+02 0.19498886E+03 0.23300748E+03 0.30654552E+03 0.50000000E+00 0.0000E+00 0.9000E+01
       -4  1    3    3    0  502 -.32162455E+02 0.28582347E+03 0.28075835E+03 0.40194170E+03 0.15500000E+01 0.0000E+00 0.9000E+01
       21  1    1    2  501  503 -.72324522E+00 -.11748436E+02 -.10869705E+02 0.16039383E+02 0.75000000E+00 0.0000E+00 0.9000E+01
#aMCatNLO 2  0  0  2  5 0.19713992D+03 0.00000000D+00  -5  6  0 0.00000000D+00 0.00000000D+00 0.00000000D+00 0.00000000D+00 0.00000000D+00
  <mgrwgt>
 0.1966059603D-02    1    2    0
 0.502535055664315D+03 0.000000000000000D+00 0.000000000000000D+00 0.502535055664315D+03
 0.502535055664315D+03 0.000000000000000D+00 0.000000000000000D+00 -.502535055664315D+03
 0.506952472747354D+03 -.818047116911482D+01 -.474957267027629D+03 0.125397304651073D+03
 0.200060392322975D+03 0.405742804535681D+02 0.192695865000329D+03 -.353014440763103D+02
 0.298057246258301D+03 -.323938092844533D+02 0.282261402027299D+03 -.900958605747630D+02
 0.000000000000000D+00 -.000000000000000D+00 -.000000000000000D+00 -.000000000000000D+00
 0.503366405438964D+03 0.000000000000000D+00 0.000000000000000D+00 0.503366405438964D+03
 0.546035083154796D+03 0.000000000000000D+00 0.000000000000000D+00 -.546035083154796D+03
 0.501429493742689D+03 -.781766939972239D+01 -.469063894609734D+03 0.125397304651073D+03
 0.202355763435051D+03 0.407190641746111D+02 0.195047739936287D+03 -.353014440763103D+02
 0.301353776748094D+03 -.321781495573193D+02 0.285764590806313D+03 -.900958605747630D+02
 0.442624546679263D+02 -.723245217569406D+00 -.117484361328659D+02 -.426686777158311D+02
0.212776849469D-03 0.000000000000D+00 0.000000000000D+00 0.770986172770D-04 0.354921017087D-05  6 1 -2 25 3 -4 21 2 0.25019672D+00 0.26001383D-01 0.24210864D+06 0.24210864D+06 0.24210864D+06 0.10915086D+01  1  2  1  2  6  2       -2 0.196605960318D-02 0.100000000000D+01
  </mgrwgt>
  </event>
  <event>
  7     66 0.21897909E-05 0.15239032E+03 0.75467711E-02 0.91926492E-01
        1 -1    0    0  503    0 0.00000000E+00 0.00000000E+00 0.15775746E+04 0.15775746E+04 0.32000000E+00 0.0000E+00 0.9000E+01
       -2 -1    0    0    0  501 0.00000000E+00 0.00000000E+00 -.29152146E+03 0.29152164E+03 0.32000000E+00 0.0000E+00 0.9000E+01
      -24  2    1    2    0    0 0.61085202E+03 0.24391106E+02 0.75849670E+03 0.97736281E+03 0.78649239E+02 0.0000E+00 0.0000E+00
       25  1    1    2    0    0 -.44369659E+03 -.11149965E+03 0.20187577E+03 0.51543929E+03 0.12500000E+03 0.0000E+00 0.9000E+01
        3  1    3    3  502    0 0.27989527E+03 -.22363580E+02 0.37854635E+03 0.47131633E+03 0.50000000E+00 0.0000E+00 0.9000E+01
       -4  1    3    3    0  502 0.33095676E+03 0.46754687E+02 0.37995035E+03 0.50604648E+03 0.15500000E+01 0.0000E+00 0.9000E+01
       21  1    1    2  503  501 -.16715543E+03 0.87108546E+02 0.32568064E+03 0.37629414E+03 0.75000000E+00 0.0000E+00 0.9000E+01
#aMCatNLO 2  0  0  1  2 0.11771854D+02 0.00000000D+00  -5  6  0 0.00000000D+00 0.00000000D+00 0.00000000D+00 0.00000000D+00 0.00000000D+00
  <mgrwgt>
 0.1378543533D-03    1    2    0
 0.563607577320419D+03 0.000000000000000D+00 0.000000000000000D+00 0.563607577320419D+03
 0.563607577320419D+03 0.000000000000000D+00 0.000000000000000D+00 -.563607577320419D+03
 0.567794576213657D+03 -.522589435863380D+03 -.703867736904916D+02 -.169445166325525D+03
 0.258514896703265D+03 0.239039299061674D+03 -.103347259141547D+01 0.984332121593429D+02
 0.300905681723916D+03 0.283550136801706D+03 0.714202462819070D+02 0.710119541661825D+02
 0.000000000000000D+00 -.000000000000000D+00 0.000000000000000D+00 0.000000000000000D+00
 0.734947608354082D+03 0.000000000000000D+00 0.000000000000000D+00 0.734947608354082D+03
 0.625753630135855D+03 0.000000000000000D+00 0.000000000000000D+00 -.625753630135855D+03
 0.503622379646676D+03 -.443696590596742D+03 -.111499651939919D+03 -.169445166325525D+03
 0.297631418003607D+03 0.279990643831599D+03 -.223741612937435D+02 0.984332121593429D+02
 0.341612267442923D+03 0.330861380913905D+03 0.467652675897354D+02 0.710119541661825D+02
 0.217835173396731D+03 -.167155434148762D+03 0.871085456439270D+02 0.109193978218226D+03
0.395148689895D-04 0.000000000000D+00 0.000000000000D+00 0.770583607478D-04 0.138339238020D-07  6 1 -2 25 3 -4 21 2 0.24270356D+00 0.44849428D-01 0.40818396D+06 0.40818396D+06 0.40818396D+06 0.10747941D+01  1  2  1  1  6  1        1 0.137854353283D-03 0.100000000000D+01
  </mgrwgt>
  </event>
  <event>
  6     66 0.21897909E-05 0.15668327E+02 0.75467711E-02 0.95293993E-01
        1 -1    0    0  501    0 0.00000000E+00 0.00000000E+00 0.82934738E+03 0.82934745E+03 0.32000000E+00 0.0000E+00 0.9000E+01
       -2 -1    0    0    0  501 0.00000000E+00 0.00000000E+00 -.30674475E+03 0.30674492E+03 0.32000000E+00 0.0000E+00 0.9000E+01
      -24  2    1    2    0    0 0.44182769E+03 0.13841747E+03 0.64801230E+02 0.47308540E+03 0.72384383E+02 0.0000E+00 0.0000E+00
       25  1    1    2    0    0 -.44182769E+03 -.13841747E+03 0.45780140E+03 0.66300696E+03 0.12500000E+03 0.0000E+00 0.9000E+01
        3  1    3    3  502    0 0.21400846E+02 0.16127136E+01 0.18864002E+02 0.28577922E+02 0.50000000E+00 0.0000E+00 0.9000E+01
       -4  1    3    3    0  502 0.42042684E+03 0.13680476E+03 0.45937228E+02 0.44450748E+03 0.15500000E+01 0.0000E+00 0.9000E+01
#aMCatNLO 1  0  0  5  1 0.43648633D+02 0.00000000D+00  -5  6  0 0.00000000D+00 0.00000000D+00 0.00000000D+00 0.00000000D+00 0.00000000D+00
  <mgrwgt>
 0.1947232262D-02    6    2    0
 0.504378911720114D+03 0.000000000000000D+00 0.000000000000000D+00 0.504378911720114D+03
 0.504378911720114D+03 -.000000000000000D+00 -.000000000000000D+00 -.504378911720114D+03
 0.509526580063676D+03 -.441827687213860D+03 -.138417473664449D+03 0.172108203136831D+03
 0.224000065308585D+02 0.213905847303894D+02 0.160691973594284D+01 0.645143289795152D+01
 0.476831236845695D+03 0.420437102483470D+03 0.136810553928506D+03 -.178559636034783D+03
 0.000000000000000D+00 0.000000000000000D+00 0.000000000000000D+00 -.000000000000000D+00
 0.504378911720114D+03 0.000000000000000D+00 0.000000000000000D+00 0.504378911720114D+03
 0.504378911720114D+03 -.000000000000000D+00 -.000000000000000D+00 -.504378911720114D+03
 0.504943210348051D+03 -.437655916864663D+03 -.137059976409890D+03 0.170336452283319D+03
 0.225586779877892D+02 0.215754668321400D+02 0.166708051291175D+01 0.637291346994926D+01
 0.330877816145515D+03 0.287014932090132D+03 0.131036466492658D+03 -.996594321860255D+02
 0.150378118958873D+03 0.129065517942391D+03 0.435642940432029D+01 -.770499335672431D+02
0.585142514262D-05 0.000000000000D+00 0.000000000000D+00 0.154084061060D-05 0.000000000000D+00  6 1 -2 25 3 -4 21 0 0.12759192D+00 0.47191518D-01 0.22239063D+06 0.22239063D+06 0.22239063D+06 0.10943033D+01  1  2  2  4  6  5       -4 0.572444933084D-04 0.100000000000D+01
0.209295088756D-05 0.000000000000D+00 -.224710132633D-07 0.154084061060D-05 0.000000000000D+00  6 1 -2 25 3 -4 21 2 0.12759192D+00 0.47191518D-01 0.22239063D+06 0.22239063D+06 0.22239063D+06 0.10943033D+01  1  2  3  4  6  5       -4 0.245192109715D-04 0.100000000000D+01
-.177384904817D-05 0.000000000000D+00 0.000000000000D+00 0.154084061060D-05 0.000000000000D+00  6 1 -2 25 3 -4 21 2 0.12759192D+00 0.47191518D-01 0.22239063D+06 0.22239063D+06 0.22239063D+06 0.10943033D+01  1  2 15  4  6  5       -4 -.207808885064D-04 0.100000000000D+01
-.616813486887D-04 0.000000000000D+00 0.000000000000D+00 0.154084061060D-05 0.000000000000D+00  6 1 -2 25 3 -4 21 2 0.12759192D+00 0.47191518D-01 0.22239063D+06 0.22239063D+06 0.22239063D+06 0.10943033D+01  1  2  4  4  6  5       -4 -.722605585490D-03 0.100000000000D+01
-.615625423785D-03 0.000000000000D+00 0.000000000000D+00 0.154084061060D-05 0.000000000000D+00  6 1 -2 25 3 -4 21 2 0.12759192D+00 0.47191518D-01 0.22239063D+06 0.22239063D+06 0.22239063D+06 0.10943033D+01  1  2  5  4  6  5       -4 -.721213753029D-02 0.100000000000D+01
0.838316335879D-03 0.000000000000D+00 -.000000000000D+00 0.154084061060D-05 0.000000000000D+00  6 1 -2 25 3 -4 21 2 0.12759192D+00 0.47191518D-01 0.22239063D+06 0.22239063D+06 0.22239063D+06 0.10943033D+01  1  2  6  4  6  5       -4 0.982099256245D-02 0.100000000000D+01
  </mgrwgt>
  </event>
  <event>
  7     66 0.21897909E-05 0.15641198E+02 0.75467711E-02 0.93584194E-01
        1 -1    0    0  501    0 0.00000000E+00 0.00000000E+00 0.10965611E+04 0.10965611E+04 0.32000000E+00 0.0000E+00 0.9000E+01
       -2 -1    0    0    0  503 0.00000000E+00 0.00000000E+00 -.40020965E+03 0.40020978E+03 0.32000000E+00 0.0000E+00 0.9000E+01
      -24  2    1    2    0    0 0.10467669E+03 0.51220251E+03 0.49128411E+03 0.72144389E+03 0.76240309E+02 0.0000E+00 0.0000E+00
       25  1    1    2    0    0 -.11804605E+03 -.52381239E+03 0.33439281E+03 0.64479287E+03 0.12500000E+03 0.0000E+00 0.9000E+01
        3  1    3    3  502    0 0.74858285E+02 0.47375159E+03 0.44706825E+03 0.65567874E+03 0.50000000E+00 0.0000E+00 0.9000E+01
       -4  1    3    3    0  502 0.29818406E+02 0.38450918E+02 0.44215856E+02 0.65765149E+02 0.15500000E+01 0.0000E+00 0.9000E+01
       21  1    1    2  501  503 0.13369363E+02 0.11609882E+02 -.12932547E+03 0.13053416E+03 0.75000000E+00 0.0000E+00 0.9000E+01
#aMCatNLO 2  0  0  2  1 0.12380649D+03 0.00000000D+00  -5  6  0 0.00000000D+00 0.00000000D+00 0.00000000D+00 0.00000000D+00 0.00000000D+00
  <mgrwgt>
 0.1206505376D-02    1    2    0
 0.544184475477502D+03 0.000000000000000D+00 0.000000000000000D+00 0.544184475477502D+03
 0.544184475477502D+03 0.000000000000000D+00 0.000000000000000D+00 -.544184475477502D+03
 0.548692328917290D+03 -.111263673781013D+03 -.517922611659372D+03 -.693890123965338D+02
 0.490088970222347D+03 0.808706474694737D+02 0.479141185400361D+03 0.638033037123088D+02
 0.495876518153671D+02 0.303930263115393D+02 0.387814262590114D+02 0.558570868422497D+01
 0.000000000000000D+00 0.000000000000000D+00 0.000000000000000D+00 -.000000000000000D+00
 0.544556074280240D+03 0.000000000000000D+00 0.000000000000000D+00 0.544556074280240D+03
 0.805892389321654D+03 0.000000000000000D+00 0.000000000000000D+00 -.805892389321654D+03
 0.555656484836903D+03 -.118046053541698D+03 -.523812393269926D+03 -.693890123965338D+02
 0.484049312797061D+03 0.748879582207758D+02 0.473945850670965D+03 0.638033037123088D+02
 0.488071800648549D+02 0.297887325340762D+02 0.382566608369238D+02 0.558570868422497D+01
 0.261935485903075D+03 0.133693627868463D+02 0.116098817620368D+02 -.261336315041414D+03
0.293529710833D-03 0.000000000000D+00 0.000000000000D+00 0.573492404461D-05 0.123978104396D-06  6 1 -2 25 3 -4 21 2 0.16870155D+00 0.61570668D-01 0.30103111D+06 0.30103111D+06 0.30103111D+06 0.10844416D+01  1  2  1  2  6  2       -2 0.120650537583D-02 0.100000000000D+01
  </mgrwgt>
  </event>
  <event>
  7     66 0.21897909E-05 0.20495402E+02 0.75467711E-02 0.90765544E-01
        1 -1    0    0  501    0 0.00000000E+00 0.00000000E+00 0.27651659E+04 0.27651660E+04 0.32000000E+00 0.0000E+00 0.9000E+01
       21 -1    0    0  503  501 0.00000000E+00 0.00000000E+00 -.18655556E+03 0.18655707E+03 0.75000000E+00 0.0000E+00 0.9000E+01
      -24  2    1    2    0    0 -.43161625E+03 -.55457867E+03 0.14153661E+04 0.15823378E+04 0.81740364E+02 0.0000E+00 0.0000E+00
       25  1    1    2    0    0 0.41871123E+03 0.55736910E+03 0.11505763E+04 0.13510848E+04 0.12500000E+03 0.0000E+00 0.9000E+01
        3  1    3    3  502    0 -.37681046E+03 -.51091005E+03 0.12300844E+04 0.13842410E+04 0.50000000E+00 0.0000E+00 0.9000E+01
        2  1    1    2  503    0 0.12905024E+02 -.27904284E+01 0.12668004E+02 0.18300461E+02 0.32000000E+00 0.0000E+00 0.9000E+01
       -4  1    3    3    0  502 -.54805795E+02 -.43668620E+02 0.18528168E+03 0.19809676E+03 0.15500000E+01 0.0000E+00 0.9000E+01
#aMCatNLO 2  0  0  2  1 0.12380649D+03 0.00000000D+00  -5  6  0 0.00000000D+00 0.00000000D+00 0.00000000D+00 0.00000000D+00 0.00000000D+00
  <mgrwgt>
 0.3749143931D-04    1    2    0
 0.710762510502616D+03 0.000000000000000D+00 0.000000000000000D+00 0.710762510502616D+03
 0.710762510502616D+03 0.000000000000000D+00 0.000000000000000D+00 -.710762510502616D+03
 0.713908256413937D+03 0.425179731845635D+03 0.555970430652879D+03 -.644908865136311D+02
 0.633911504971067D+03 -.371178390104758D+03 -.512338886973732D+03 0.397399515404854D+02
 0.000000000000000D+00 0.000000000000000D+00 -.000000000000000D+00 -.000000000000000D+00
 0.737052596202279D+02 -.540013417408770D+02 -.436315436791470D+02 0.247509349731458D+02
 0.714794129507055D+03 0.000000000000000D+00 0.000000000000000D+00 0.714794129507055D+03
 0.721685933924927D+03 0.000000000000000D+00 0.000000000000000D+00 -.721685933924927D+03
 0.711170502574732D+03 0.418711228302530D+03 0.557369102644261D+03 -.644908865136311D+02
 0.636302802726355D+03 -.376943956181734D+03 -.511092209789034D+03 0.397399515404854D+02
 0.148937271567586D+02 0.129050242114772D+02 -.279042838771286D+01 -.689180441787215D+01
 0.741130309741360D+02 -.546722963322737D+02 -.434864644675145D+02 0.247509349731458D+02
0.271534166962D-05 0.000000000000D+00 0.000000000000D+00 0.282542850980D-04 0.277775486197D-08  6 1 21 25 3 2 -4 2 0.42540924D+00 0.28700904D-01 0.50862727D+06 0.50862727D+06 0.50862727D+06 0.10679857D+01  1  2  1  6  5  2       -2 0.374914393098D-04 0.100000000000D+01
  </mgrwgt>
  </event>
  <event>
  7     66 0.21897909E-05 0.67960512E+02 0.75467711E-02 0.95175010E-01
        1 -1    0    0  501    0 0.00000000E+00 0.00000000E+00 0.85489163E+03 0.85489169E+03 0.32000000E+00 0.0000E+00 0.9000E+01
       -2 -1    0    0    0  503 0.00000000E+00 0.00000000E+00 -.30144101E+03 0.30144118E+03 0.32000000E+00 0.0000E+00 0.9000E+01
      -24  2    1    2    0    0 0.24490000E+03 -.38986121E+03 0.41967484E+03 0.62833724E+03 0.81932527E+02 0.0000E+00 0.0000E+00
       25  1    1    2    0    0 -.22876761E+03 0.39022439E+03 0.16116769E+03 0.49619525E+03 0.12500000E+03 0.0000E+00 0.9000E+01
        3  1    3    3  502    0 0.16684947E+03 -.18929293E+03 0.22079948E+03 0.33529572E+03 0.50000000E+00 0.0000E+00 0.9000E+01
       -4  1    3    3    0  502 0.78050531E+02 -.20056828E+03 0.19887536E+03 0.29304152E+03 0.15500000E+01 0.0000E+00 0.9000E+01
       21  1    1    2  501  503 -.16132384E+02 -.36318089E+00 -.27391906E+02 0.31800389E+02 0.75000000E+00 0.0000E+00 0.9000E+01
#aMCatNLO 2  0  0  2  1 0.12380649D+03 0.00000000D+00  -5  6  0 0.00000000D+00 0.00000000D+00 0.00000000D+00 0.00000000D+00 0.00000000D+00
  <mgrwgt>
 0.1617303636D-02    1    2    0
 0.481387285847220D+03 0.000000000000000D+00 0.000000000000000D+00 0.481387285847220D+03
 0.481387285847220D+03 0.000000000000000D+00 0.000000000000000D+00 -.481387285847220D+03
 0.486015607916224D+03 -.236879339298986D+03 0.390041777776835D+03 -.111093480187357D+03
 0.255779997596443D+03 0.162598184947259D+03 -.189450220152739D+03 0.556224011201619D+02
 0.220978966181773D+03 0.742811543517266D+02 -.200591557624097D+03 0.554710790671947D+02
 0.000000000000000D+00 -.000000000000000D+00 -.000000000000000D+00 -.000000000000000D+00
 0.482696866033507D+03 0.000000000000000D+00 0.000000000000000D+00 0.482696866033507D+03
 0.533868679156303D+03 0.000000000000000D+00 0.000000000000000D+00 -.533868679156303D+03
 0.482261816307987D+03 -.228767613532243D+03 0.390224393301216D+03 -.111093480187357D+03
 0.258468973432802D+03 0.166906295953938D+03 -.189353233645404D+03 0.556224011201619D+02
 0.222178999192031D+03 0.779937018061303D+02 -.200507978763116D+03 0.554710790671947D+02
 0.536557562569890D+02 -.161323842278259D+02 -.363180892696281D+00 -.511718131227963D+02
0.140441227088D-03 0.000000000000D+00 0.000000000000D+00 0.809577323656D-04 0.199408006309D-05  6 1 -2 25 3 -4 21 2 0.13152109D+00 0.46375307D-01 0.22704469D+06 0.22704469D+06 0.22704469D+06 0.10936199D+01  1  2  1  2  6  2       -2 0.161730363636D-02 0.100000000000D+01
  </mgrwgt>
  </event>
  <event>
  7     66 0.21897909E-05 0.45486306E+02 0.75467711E-02 0.89746506E-01
        1 -1    0    0  501    0 0.00000000E+00 0.00000000E+00 0.17561655E+04 0.17561656E+04 0.32000000E+00 0.0000E+00 0.9000E+01
       -2 -1    0    0    0  503 0.00000000E+00 0.00000000E+00 -.38909680E+03 0.38909693E+03 0.32000000E+00 0.0000E+00 0.9000E+01
      -24  2    1    2    0    0 -.76428483E+03 0.14210783E+03 0.94731029E+03 0.12281174E+04 0.80930185E+02 0.0000E+00 0.0000E+00
       25  1    1    2    0    0 0.75116146E+03 -.11921892E+03 0.43660123E+03 0.88583425E+03 0.12500000E+03 0.0000E+00 0.9000E+01
        3  1    3    3  502    0 -.26243876E+03 0.56626811E+02 0.38785246E+03 0.47171016E+03 0.50000000E+00 0.0000E+00 0.9000E+01
       -4  1    3    3    0  502 -.50184607E+03 0.85481017E+02 0.55945783E+03 0.75640727E+03 0.15500000E+01 0.0000E+00 0.9000E+01
       21  1    1    2  501  503 0.13123369E+02 -.22888910E+02 -.16842784E+02 0.31310811E+02 0.75000000E+00 0.0000E+00 0.9000E+01
#aMCatNLO 2  0  0  2  1 0.12380649D+03 0.00000000D+00  -5  6  0 0.00000000D+00 0.00000000D+00 0.00000000D+00 0.00000000D+00 0.00000000D+00
  <mgrwgt>
 0.7545957327D-03    1    2    0
 0.798887427280160D+03 0.000000000000000D+00 0.000000000000000D+00 0.798887427280160D+03
 0.798887427280160D+03 0.000000000000000D+00 0.000000000000000D+00 -.798887427280160D+03
 0.801727409781166D+03 0.757713228029163D+03 -.130646077361192D+03 -.189589309124160D+03
 0.285281021367832D+03 -.260160868039748D+03 0.525368399792027D+02 0.104601454762723D+03
 0.510766423411322D+03 -.497552359989416D+03 0.781092373819896D+02 0.849878543614368D+02
 0.000000000000000D+00 0.000000000000000D+00 -.000000000000000D+00 -.000000000000000D+00
 0.802298685409393D+03 0.000000000000000D+00 0.000000000000000D+00 0.802298685409393D+03
 0.851695643082110D+03 0.000000000000000D+00 0.000000000000000D+00 -.851695643082110D+03
 0.793741642238617D+03 0.751161459520155D+03 -.119218917211282D+03 -.189589309124160D+03
 0.288209368885717D+03 -.262515897286053D+03 0.566443258157758D+02 0.104601454762723D+03
 0.516041670610290D+03 -.501768931239537D+03 0.854635013326160D+02 0.849878543614368D+02
 0.560016467568788D+02 0.131233690054359D+02 -.228889099371100D+02 -.493969576727178D+02
0.533182441741D-03 0.000000000000D+00 0.000000000000D+00 0.242063819236D-03 0.209504676486D-05  6 1 -2 25 3 -4 21 2 0.27017848D+00 0.59860871D-01 0.61992307D+06 0.61992307D+06 0.61992307D+06 0.10619736D+01  1  2  1  2  6  2       -2 0.754595732652D-03 0.100000000000D+01
  </mgrwgt>
  </event>
  <event>
  7     66 0.21897909E-05 0.41401673E+02 0.75467711E-02 0.91732239E-01
        1 -1    0    0  501    0 0.00000000E+00 0.00000000E+00 0.19339942E+04 0.19339942E+04 0.32000000E+00 0.0000E+00 0.9000E+01
       -2 -1    0    0    0  503 0.00000000E+00 0.00000000E+00 -.47070002E+03 0.47070013E+03 0.32000000E+00 0.0000E+00 0.9000E+01
      -24  2    1    2    0    0 0.49308671E+03 -.39989206E+03 0.60603489E+02 0.64278143E+03 0.80293357E+02 0.0000E+00 0.0000E+00
       25  1    1    2    0    0 -.44641116E+03 0.40566277E+03 0.15175410E+04 0.16378037E+04 0.12500000E+03 0.0000E+00 0.9000E+01
        3  1    3    3  502    0 0.21421205E+03 -.13258227E+03 0.46810133E+02 0.25623485E+03 0.50000000E+00 0.0000E+00 0.9000E+01
       -4  1    3    3    0  502 0.27887466E+03 -.26730979E+03 0.13793356E+02 0.38654658E+03 0.15500000E+01 0.0000E+00 0.9000E+01
       21  1    1    2  501  503 -.46675546E+02 -.57707082E+01 -.11485040E+03 0.12410916E+03 0.75000000E+00 0.0000E+00 0.9000E+01
#aMCatNLO 2  0  0  2  1 0.14271497D+03 0.00000000D+00  -5  6  0 0.00000000D+00 0.00000000D+00 0.00000000D+00 0.00000000D+00 0.00000000D+00
  <mgrwgt>
 0.1541692273D-02    1    2    0
 0.822848185626965D+03 0.000000000000000D+00 0.000000000000000D+00 0.822848185626965D+03
 0.822848185626965D+03 0.000000000000000D+00 0.000000000000000D+00 -.822848185626965D+03
 0.825636663780278D+03 -.469659185320423D+03 0.402788509953933D+03 0.532195985020063D+03
 0.304681247745164D+03 0.205563645840789D+03 -.133699102882939D+03 -.180828095506452D+03
 0.515378459728487D+03 0.264095539479634D+03 -.269089407070994D+03 -.351367889513611D+03
 0.000000000000000D+00 -.000000000000000D+00 -.000000000000000D+00 -.000000000000000D+00
 0.825158808839897D+03 0.000000000000000D+00 0.000000000000000D+00 0.825158808839897D+03
 0.110321812533209D+04 0.000000000000000D+00 0.000000000000000D+00 -.110321812533209D+04
 0.814065582473534D+03 -.446411161127446D+03 0.405662767970324D+03 0.532195985020063D+03
 0.310167052806938D+03 0.214281087192658D+03 -.132621326316636D+03 -.180828095506452D+03
 0.522135626701262D+03 0.278805620311066D+03 -.267270733475314D+03 -.351367889513611D+03
 0.282008672190253D+03 -.466755463762784D+02 -.577070817837427D+01 -.278059316492193D+03
0.205880733788D-02 0.000000000000D+00 0.000000000000D+00 0.181782580407D-03 0.532520515869D-06  6 1 -2 25 3 -4 21 2 0.29753739D+00 0.72415355D-01 0.42332231D+06 0.42332231D+06 0.42332231D+06 0.10736579D+01  1  2  1  2  6  2       -2 0.154169227336D-02 0.100000000000D+01
  </mgrwgt>
  </event>
  <event>
  7     66 0.21897909E-05 0.55909726E+02 0.75467711E-02 0.91748079E-01
        1 -1    0    0  503    0 0.00000000E+00 0.00000000E+00 0.73339126E+03 0.73339133E+03 0.32000000E+00 0.0000E+00 0.9000E+01
       -2 -1    0    0    0  501 0.00000000E+00 0.00000000E+00 -.72784074E+03 0.72784082E+03 0.32000000E+00 0.0000E+00 0.9000E+01
      -24  2    1    2    0    0 -.33008919E+03 -.52783443E+03 0.35922889E+02 0.62875881E+03 0.80493043E+02 0.0000E+00 0.0000E+00
       25  1    1    2    0    0 0.34206061E+03 0.54208979E+03 -.18339122E+03 0.67832451E+03 0.12500000E+03 0.0000E+00 0.9000E+01
        3  1    3    3  502    0 -.16283822E+03 -.18681631E+03 0.19103288E+02 0.24855947E+03 0.50000000E+00 0.0000E+00 0.9000E+01
       -4  1    3    3    0  502 -.16725097E+03 -.34101811E+03 0.16819601E+02 0.38019934E+03 0.15500000E+01 0.0000E+00 0.9000E+01
       21  1    1    2  503  501 -.11971414E+02 -.14255363E+02 0.15301885E+03 0.15414883E+03 0.75000000E+00 0.0000E+00 0.9000E+01
#aMCatNLO 2  0  0  1  2 0.11771854D+02 0.00000000D+00  -5  6  0 0.00000000D+00 0.00000000D+00 0.00000000D+00 0.00000000D+00 0.00000000D+00
  <mgrwgt>
 0.1330452914D-02    1    2    0
 0.649302195879203D+03 0.000000000000000D+00 0.000000000000000D+00 0.649302195879203D+03
 0.649302195879203D+03 0.000000000000000D+00 0.000000000000000D+00 -.649302195879203D+03
 0.652823618636767D+03 0.336001097869167D+03 0.534874226842022D+03 -.107547667296258D+03
 0.255983525344050D+03 -.165235387006575D+03 -.189662707975226D+03 0.474646113631972D+02
 0.389797247777588D+03 -.170765710862592D+03 -.345211518866796D+03 0.600830559330605D+02
 0.000000000000000D+00 -.000000000000000D+00 -.000000000000000D+00 0.000000000000000D+00
 0.821377673260652D+03 0.000000000000000D+00 0.000000000000000D+00 0.821377673260652D+03
 0.649872556288066D+03 0.000000000000000D+00 0.000000000000000D+00 -.649872556288066D+03
 0.661859728639901D+03 0.342060606842747D+03 0.542089790441388D+03 -.107547667296258D+03
 0.252404560653048D+03 -.162892174722384D+03 -.186872449335934D+03 0.474646113631972D+02
 0.384473519660796D+03 -.167197018315454D+03 -.340961978491043D+03 0.600830559330605D+02
 0.172512420594973D+03 -.119714138049085D+02 -.142553626144106D+02 0.171505116972586D+03
0.667701672156D-03 0.000000000000D+00 0.000000000000D+00 0.275547494140D-03 0.501918119370D-05  6 1 -2 25 3 -4 21 2 0.11282929D+00 0.11197537D+00 0.42206465D+06 0.42206465D+06 0.42206465D+06 0.10737506D+01  1  2  1  1  6  1        1 0.133045291399D-02 0.100000000000D+01
  </mgrwgt>
  </event>
  <event>
  7     66 0.21897909E-05 0.20553130E+02 0.75467711E-02 0.89362672E-01
        1 -1    0    0  503    0 0.00000000E+00 0.00000000E+00 0.92167467E+03 0.92167473E+03 0.32000000E+00 0.0000E+00 0.9000E+01
       -2 -1    0    0    0  501 0.00000000E+00 0.00000000E+00 -.85223601E+03 0.85223607E+03 0.32000000E+00 0.0000E+00 0.9000E+01
      -24  2    1    2    0    0 0.71870633E+03 -.36177756E+03 -.19648277E+03 0.83297653E+03 0.88445623E+02 0.0000E+00 0.0000E+00
       25  1    1    2    0    0 -.71068820E+03 0.37576013E+03 0.15420244E+03 0.82805603E+03 0.12500000E+03 0.0000E+00 0.9000E+01
        3  1    3    3  502    0 0.61954687E+02 -.45311095E+02 0.40833870E+01 0.76866135E+02 0.50000000E+00 0.0000E+00 0.9000E+01
       -4  1    3    3    0  502 0.65675164E+03 -.31646646E+03 -.20056615E+03 0.75611040E+03 0.15500000E+01 0.0000E+00 0.9000E+01
       21  1    1    2  503  501 -.80181292E+01 -.13982569E+02 0.11171899E+03 0.11287825E+03 0.75000000E+00 0.0000E+00 0.9000E+01
#aMCatNLO 2  0  0  1  2 0.11771854D+02 0.00000000D+00  -5  6  0 0.00000000D+00 0.00000000D+00 0.00000000D+00 0.00000000D+00 0.00000000D+00
  <mgrwgt>
 0.2832006516D-03    1    2    0
 0.830208065687224D+03 0.000000000000000D+00 0.000000000000000D+00 0.830208065687224D+03
 0.830208065687224D+03 0.000000000000000D+00 0.000000000000000D+00 -.830208065687224D+03
 0.832557589275011D+03 -.714707777693467D+03 0.368750515290864D+03 0.175336788600130D+03
 0.770807131447341D+02 0.615807148722132D+02 -.459636228262698D+02 0.604956786988748D+01
 0.750777828954702D+03 0.653127062821254D+03 -.322786892464594D+03 -.181386356470018D+03
 0.000000000000000D+00 -.000000000000000D+00 -.000000000000000D+00 0.000000000000000D+00
 0.945440220278967D+03 0.000000000000000D+00 0.000000000000000D+00 0.945440220278967D+03
 0.830811023702242D+03 0.000000000000000D+00 0.000000000000000D+00 -.830811023702242D+03
 0.832250794502004D+03 -.710688202726225D+03 0.375760128297799D+03 0.175336788600130D+03
 0.769946520824848D+02 0.619527201355041D+02 -.453148943031141D+02 0.604956786988748D+01
 0.751248917136238D+03 0.656753611778809D+03 -.316462665413145D+03 -.181386356470018D+03
 0.115756880260483D+03 -.801812918808787D+01 -.139825685815399D+02 0.114629196576725D+03
0.325457951650D-03 0.000000000000D+00 0.000000000000D+00 0.190291260178D-05 0.442465896564D-07  6 1 -2 25 3 -4 21 2 0.14179591D+00 0.13111305D+00 0.66868970D+06 0.66868970D+06 0.66868970D+06 0.10597002D+01  1  2  1  1  6  1        1 0.283200651641D-03 0.100000000000D+01
  </mgrwgt>
  </event>
  <event>
  7     66 0.21897909E-05 0.23220253E+02 0.75467711E-02 0.89631285E-01
       21 -1    0    0  501  503 0.00000000E+00 0.00000000E+00 0.92111576E+03 0.92111607E+03 0.75000000E+00 0.0000E+00 0.9000E+01
       -2 -1    0    0    0  501 0.00000000E+00 0.00000000E+00 -.84774325E+03 0.84774331E+03 0.32000000E+00 0.0000E+00 0.9000E+01
      -24  2    1    2    0    0 0.74701029E+03 0.23439203E+03 0.35174301E+03 0.86201870E+03 0.79931852E+02 0.0000E+00 0.0000E+00
       25  1    1    2    0    0 -.75180899E+03 -.22240833E+03 -.32544030E+03 0.85803182E+03 0.12500000E+03 0.0000E+00 0.9000E+01
        3  1    3    3  502    0 0.65211471E+03 0.22752766E+03 0.29342619E+03 0.75041429E+03 0.50000000E+00 0.0000E+00 0.9000E+01
       -4  1    3    3    0  502 0.94895584E+02 0.68643719E+01 0.58316812E+02 0.11160441E+03 0.15500000E+01 0.0000E+00 0.9000E+01
       -1  1    1    2    0  503 0.47986908E+01 -.11983698E+02 0.47069800E+02 0.48808861E+02 0.32000000E+00 0.0000E+00 0.9000E+01
#aMCatNLO 2  0  0  1  2 0.11771854D+02 0.00000000D+00  -5  6  0 0.00000000D+00 0.00000000D+00 0.00000000D+00 0.00000000D+00 0.00000000D+00
  <mgrwgt>
 0.3822094707D-05    1    2    0
 0.859900478979704D+03 0.000000000000000D+00 0.000000000000000D+00 0.859900478979704D+03
 0.859900478979704D+03 0.000000000000000D+00 0.000000000000000D+00 -.859900478979704D+03
 0.862585644100236D+03 -.749401451023276D+03 -.228420630935099D+03 -.338600758970263D+03
 0.746546059299567D+03 0.654438993174000D+03 0.222411960691091D+03 0.282087827831437D+03
 0.110669254559605D+03 0.949624578492766D+02 0.600867024400827D+01 0.565129311388262D+02
 0.000000000000000D+00 0.000000000000000D+00 -.000000000000000D+00 0.000000000000000D+00
 0.907135912338692D+03 0.000000000000000D+00 0.000000000000000D+00 0.907135912338692D+03
 0.860807100596470D+03 0.000000000000000D+00 0.000000000000000D+00 -.860807100596470D+03
 0.863109315493862D+03 -.751808985385889D+03 -.222408331701139D+03 -.338600758970263D+03
 0.746290817210463D+03 0.652356321460791D+03 0.227612985332884D+03 0.282087827831437D+03
 0.110449271007742D+03 0.946539731744190D+02 0.677904436748349D+01 0.565129311388262D+02
 0.480936092230938D+02 0.479869075067937D+01 -.119836979992290D+02 0.463288117422223D+02
0.301132007543D-05 0.000000000000D+00 0.000000000000D+00 0.715422280519D-04 0.240421798658D-07  6 21 -2 25 3 -4 -1 2 0.14171006D+00 0.13042199D+00 0.63413225D+06 0.63413225D+06 0.63413225D+06 0.10612916D+01  1  2  1  5  6  1        1 0.382209470673D-05 0.100000000000D+01
  </mgrwgt>
  </event>
  <event>
  7     66 0.21897909E-05 0.29730446E+02 0.75467711E-02 0.94639130E-01
        1 -1    0    0  503    0 0.00000000E+00 0.00000000E+00 0.13373994E+04 0.13373994E+04 0.32000000E+00 0.0000E+00 0.9000E+01
       -2 -1    0    0    0  501 0.00000000E+00 0.00000000E+00 -.32236939E+03 0.32236955E+03 0.32000000E+00 0.0000E+00 0.9000E+01
      -24  2    1    2    0    0 0.76252058E+02 0.46497904E+03 0.50461214E+03 0.69500825E+03 0.79894712E+02 0.0000E+00 0.0000E+00
       25  1    1    2    0    0 -.43738870E+02 -.47023642E+03 0.36707197E+02 0.48990591E+03 0.12500000E+03 0.0000E+00 0.9000E+01
        3  1    3    3  502    0 -.13991665E+02 0.11781272E+03 0.11109226E+03 0.16253413E+03 0.50000000E+00 0.0000E+00 0.9000E+01
       -4  1    3    3    0  502 0.90243723E+02 0.34716633E+03 0.39351989E+03 0.53247413E+03 0.15500000E+01 0.0000E+00 0.9000E+01
       21  1    1    2  503  501 -.32513188E+02 0.52573779E+01 0.47371068E+03 0.47485484E+03 0.75000000E+00 0.0000E+00 0.9000E+01
#aMCatNLO 2  0  0  1  2 0.11771854D+02 0.00000000D+00  -5  6  0 0.00000000D+00 0.00000000D+00 0.00000000D+00 0.00000000D+00 0.00000000D+00
  <mgrwgt>
 0.6810260990D-03    1    2    0
 0.526761376182782D+03 0.000000000000000D+00 0.000000000000000D+00 0.526761376182782D+03
 0.526761376182782D+03 0.000000000000000D+00 0.000000000000000D+00 -.526761376182782D+03
 0.531147534458386D+03 -.601381919319529D+02 -.467584654056523D+03 -.210334715449494D+03
 0.126775469644085D+03 -.178952991635236D+02 0.118473263073129D+03 0.414229876775154D+02
 0.395599748263093D+03 0.780334910954764D+02 0.349111390983394D+03 0.168911727771979D+03
 0.000000000000000D+00 -.000000000000000D+00 0.000000000000000D+00 0.000000000000000D+00
 0.816614826621488D+03 0.000000000000000D+00 0.000000000000000D+00 0.816614826621488D+03
 0.527955154206112D+03 0.000000000000000D+00 0.000000000000000D+00 -.527955154206112D+03
 0.531884455450980D+03 -.437388695862220D+02 -.470236422147929D+03 -.210334715449494D+03
 0.125693915936563D+03 -.140004710907403D+02 0.117843469927584D+03 0.414229876775154D+02
 0.396459074425078D+03 0.902525287851614D+02 0.347135574326455D+03 0.168911727771979D+03
 0.290532535014980D+03 -.325131881081991D+02 0.525737789389013D+01 0.288659672415376D+03
0.155125282983D-03 0.000000000000D+00 0.000000000000D+00 0.127743652813D-03 0.823420155428D-06  6 1 -2 25 3 -4 21 2 0.20575358D+00 0.49595261D-01 0.24940672D+06 0.24940672D+06 0.24940672D+06 0.10905367D+01  1  2  1  1  6  1        1 0.681026099018D-03 0.100000000000D+01
  </mgrwgt>
  </event>
  <event>
  7     66 0.21897909E-05 0.65603810E+02 0.75467711E-02 0.92624113E-01
        1 -1    0    0  501    0 0.00000000E+00 0.00000000E+00 0.11708543E+04 0.11708544E+04 0.32000000E+00 0.0000E+00 0.9000E+01
       -2 -1    0    0    0  503 0.00000000E+00 0.00000000E+00 -.35314331E+03 0.35314346E+03 0.32000000E+00 0.0000E+00 0.9000E+01
      -24  2    1    2    0    0 0.54348075E+03 0.21887489E+03 0.16017413E+03 0.61271891E+03 0.80567782E+02 0.0000E+00 0.0000E+00
       25  1    1    2    0    0 -.54811074E+03 -.20806073E+03 0.66654043E+03 0.89644621E+03 0.12500000E+03 0.0000E+00 0.9000E+01
        3  1    3    3  502    0 0.30811615E+03 0.11038267E+03 0.12852408E+03 0.35162279E+03 0.50000000E+00 0.0000E+00 0.9000E+01
       -4  1    3    3    0  502 0.23536460E+03 0.10849223E+03 0.31650049E+02 0.26109612E+03 0.15500000E+01 0.0000E+00 0.9000E+01
       21  1    1    2  501  503 0.46299941E+01 -.10814160E+02 -.90035484E+01 0.14832710E+02 0.75000000E+00 0.0000E+00 0.9000E+01
#aMCatNLO 2  0  0  2  4 0.12819071D+02 0.00000000D+00  -5  6  0 0.00000000D+00 0.00000000D+00 0.00000000D+00 0.00000000D+00 0.00000000D+00
  <mgrwgt>
 0.1264736457D-02    1    2    0
 0.631265397809599D+03 0.000000000000000D+00 0.000000000000000D+00 0.631265397809599D+03
 0.631265397809599D+03 0.000000000000000D+00 0.000000000000000D+00 -.631265397809599D+03
 0.634882668992382D+03 -.545782164402391D+03 -.213499538101425D+03 0.209739790306012D+03
 0.336451249221856D+03 0.309454625671765D+03 0.107538413657971D+03 -.766339829398299D+02
 0.291196877404961D+03 0.236327538730625D+03 0.105961124443454D+03 -.133105807366182D+03
 0.000000000000000D+00 0.000000000000000D+00 -.000000000000000D+00 -.000000000000000D+00
 0.632862241971833D+03 0.000000000000000D+00 0.000000000000000D+00 0.632862241971833D+03
 0.653336113649869D+03 0.000000000000000D+00 0.000000000000000D+00 -.653336113649869D+03
 0.635083015285929D+03 -.548110743663280D+03 -.208060734757771D+03 0.209739790306012D+03
 0.336252127626987D+03 0.308221172554526D+03 0.110419358726476D+03 -.766339829398299D+02
 0.291250455285670D+03 0.235259576976813D+03 0.108455535544287D+03 -.133105807366182D+03
 0.236127574231159D+02 0.462999413194145D+01 -.108141595129929D+02 -.204738716780351D+02
0.274124570831D-03 0.000000000000D+00 0.000000000000D+00 0.316341861392D-03 0.141988132633D-04  6 1 -2 25 3 -4 21 2 0.18012976D+00 0.54329245D-01 0.35860422D+06 0.35860422D+06 0.35860422D+06 0.10788647D+01  1  2  1  2  6  2       -2 0.126473645653D-02 0.100000000000D+01
  </mgrwgt>
  </event>
  <event>
  7     66 0.21897909E-05 0.23035990E+02 0.75467711E-02 0.94452930E-01
        1 -1    0    0  503    0 0.00000000E+00 0.00000000E+00 0.10872954E+04 0.10872954E+04 0.32000000E+00 0.0000E+00 0.9000E+01
       -2 -1    0    0    0  501 0.00000000E+00 0.00000000E+00 -.31996656E+03 0.31996672E+03 0.32000000E+00 0.0000E+00 0.9000E+01
      -24  2    1    2    0    0 -.10975908E+03 -.48097940E+03 0.12563810E+03 0.51573353E+03 0.82510033E+02 0.0000E+00 0.0000E+00
       25  1    1    2    0    0 0.12977945E+03 0.44817452E+03 0.34802186E+03 0.59535478E+03 0.12500000E+03 0.0000E+00 0.9000E+01
        3  1    3    3  502    0 -.13608825E+02 -.10263201E+03 0.60638083E+02 0.11998232E+03 0.50000000E+00 0.0000E+00 0.9000E+01
       -4  1    3    3    0  502 -.96150258E+02 -.37834739E+03 0.65000020E+02 0.39575121E+03 0.15500000E+01 0.0000E+00 0.9000E+01
       21  1    1    2  503  501 -.20020372E+02 0.32804879E+02 0.29366884E+03 0.29617381E+03 0.75000000E+00 0.0000E+00 0.9000E+01
#aMCatNLO 2  0  0  1  2 0.11771854D+02 0.00000000D+00  -5  6  0 0.00000000D+00 0.00000000D+00 0.00000000D+00 0.00000000D+00 0.00000000D+00
  <mgrwgt>
 0.7932856890D-03    1    2    0
 0.502166932281321D+03 0.000000000000000D+00 0.000000000000000D+00 0.502166932281321D+03
 0.502166932281321D+03 0.000000000000000D+00 0.000000000000000D+00 -.502166932281321D+03
 0.506556456282180D+03 0.119809141421572D+03 0.464511623628892D+03 0.104159322898319D+03
 0.101077876523543D+03 -.156541890664331D+02 -.993049423608720D+02 0.104981860282993D+02
 0.396699531756920D+03 -.104154952355139D+03 -.365206681268020D+03 -.114657508926618D+03
 0.000000000000000D+00 -.000000000000000D+00 0.000000000000000D+00 0.000000000000000D+00
 0.689576549565828D+03 0.000000000000000D+00 0.000000000000000D+00 0.689576549565828D+03
 0.504508569888594D+03 0.000000000000000D+00 0.000000000000000D+00 -.504508569888594D+03
 0.494142965726575D+03 0.129779454532704D+03 0.448174518699594D+03 0.104159322898319D+03
 0.104083430297297D+03 -.136100962826213D+02 -.102654341514352D+03 0.104981860282993D+02
 0.406842500574006D+03 -.961489862437439D+02 -.378325056484966D+03 -.114657508926618D+03
 0.189016222856545D+03 -.200203720063385D+02 0.328048792997241D+02 0.185067979677234D+03
0.118783715729D-03 0.000000000000D+00 0.000000000000D+00 0.502687380367D-04 0.225740888905D-06  6 1 -2 25 3 -4 21 2 0.16727598D+00 0.49225568D-01 0.25774725D+06 0.25774725D+06 0.25774725D+06 0.10894634D+01  1  2  1  1  6  1        1 0.793285689007D-03 0.100000000000D+01
  </mgrwgt>
  </event>
  <event>
  7     66 0.21897909E-05 0.15522857E+02 0.75467711E-02 0.89478547E-01
        1 -1    0    0  501    0 0.00000000E+00 0.00000000E+00 0.13857291E+04 0.13857292E+04 0.32000000E+00 0.0000E+00 0.9000E+01
       21 -1    0    0  503  501 0.00000000E+00 0.00000000E+00 -.51751312E+03 0.51751366E+03 0.75000000E+00 0.0000E+00 0.9000E+01
      -24  2    1    2    0    0 -.76344866E+03 -.24258908E+03 0.42155639E+03 0.90896699E+03 0.82509809E+02 0.0000E+00 0.0000E+00
       25  1    1    2    0    0 0.74788695E+03 0.22745384E+03 0.50025085E+03 0.93645398E+03 0.12500000E+03 0.0000E+00 0.9000E+01
        3  1    3    3  502    0 -.63390784E+02 -.38945686E+02 0.57615203E+02 0.94100582E+02 0.50000000E+00 0.0000E+00 0.9000E+01
        2  1    1    2  503    0 0.15561716E+02 0.15135242E+02 -.53591245E+02 0.57821851E+02 0.32000000E+00 0.0000E+00 0.9000E+01
       -4  1    3    3    0  502 -.70005788E+03 -.20364340E+03 0.36394119E+03 0.81486641E+03 0.15500000E+01 0.0000E+00 0.9000E+01
#aMCatNLO 2  0  0  2  4 0.18698323D+02 0.00000000D+00  -5  6  0 0.00000000D+00 0.00000000D+00 0.00000000D+00 0.00000000D+00 0.00000000D+00
  <mgrwgt>
 0.3429727782D-04    1    2    0
 0.799277596768151D+03 0.000000000000000D+00 0.000000000000000D+00 0.799277596768151D+03
 0.799277596768151D+03 0.000000000000000D+00 0.000000000000000D+00 -.799277596768151D+03
 0.802035440711668D+03 0.755648019945990D+03 0.235002219883851D+03 0.374949964518840D+02
 0.744226637220697D+02 -.626582117410938D+02 -.382427106953038D+02 0.122546503651397D+02
 0.000000000000000D+00 0.000000000000000D+00 0.000000000000000D+00 -.000000000000000D+00
 0.722097089102563D+03 -.692989808204896D+03 -.196759509188547D+03 -.497496468170237D+02
 0.800573097592318D+03 0.000000000000000D+00 0.000000000000000D+00 0.800573097592318D+03
 0.895774643645453D+03 0.000000000000000D+00 0.000000000000000D+00 -.895774643645453D+03
 0.792528241145484D+03 0.747886948378839D+03 0.227453843007358D+03 0.374949964518840D+02
 0.754015796006063D+02 -.633874373519314D+02 -.389519516410889D+02 0.122546503651397D+02
 0.976451581059048D+02 0.155617155374144D+02 0.151352416615190D+02 -.952015460531349D+02
 0.730772762385776D+03 -.700061226564322D+03 -.203637133027788D+03 -.497496468170237D+02
0.271164654408D-05 0.000000000000D+00 0.000000000000D+00 0.230902881520D-04 0.537620107101D-08  6 1 21 25 3 2 -4 2 0.21318907D+00 0.79617421D-01 0.65353105D+06 0.65353105D+06 0.65353105D+06 0.10603870D+01  1  2  1  6  5  2       -2 0.342972778224D-04 0.100000000000D+01
  </mgrwgt>
  </event>
  <event>
  7     66 0.21897909E-05 0.24637931E+02 0.75467711E-02 0.93403333E-01
        1 -1    0    0  501    0 0.00000000E+00 0.00000000E+00 0.12473895E+04 0.12473896E+04 0.32000000E+00 0.0000E+00 0.9000E+01
       -2 -1    0    0    0  503 0.00000000E+00 0.00000000E+00 -.35686321E+03 0.35686336E+03 0.32000000E+00 0.0000E+00 0.9000E+01
      -24  2    1    2    0    0 -.12352814E+03 -.50213102E+03 0.47296601E+03 0.70543070E+03 0.80875546E+02 0.0000E+00 0.0000E+00
       25  1    1    2    0    0 0.13219713E+03 0.53205819E+03 0.53570359E+03 0.77663719E+03 0.12500000E+03 0.0000E+00 0.9000E+01
        3  1    3    3  502    0 -.50890236E+02 -.89413831E+02 0.73164371E+02 0.12624549E+03 0.50000000E+00 0.0000E+00 0.9000E+01
       -4  1    3    3    0  502 -.72637902E+02 -.41271719E+03 0.39980164E+03 0.57918521E+03 0.15500000E+01 0.0000E+00 0.9000E+01
       21  1    1    2  501  503 -.86689909E+01 -.29927165E+02 -.11814328E+03 0.12218504E+03 0.75000000E+00 0.0000E+00 0.9000E+01
#aMCatNLO 2  0  0  2  4 0.18698323D+02 0.00000000D+00  -5  6  0 0.00000000D+00 0.00000000D+00 0.00000000D+00 0.00000000D+00 0.00000000D+00
  <mgrwgt>
 0.1022431069D-02    1    2    0
 0.542710807205215D+03 0.000000000000000D+00 0.000000000000000D+00 0.542710807205215D+03
 0.542710807205215D+03 0.000000000000000D+00 0.000000000000000D+00 -.542710807205215D+03
 0.546895423600873D+03 0.127768250609369D+03 0.516768776038403D+03 0.974220732537439D+01
 0.107283343612621D+03 -.517511869278533D+02 -.923481177276793D+02 -.174171071196352D+02
 0.431242847196936D+03 -.760170636815157D+02 -.424420658310724D+03 0.767489979426086D+01
 0.000000000000000D+00 -.000000000000000D+00 -.000000000000000D+00 -.000000000000000D+00
 0.543814878195163D+03 0.000000000000000D+00 0.000000000000000D+00 0.543814878195163D+03
 0.818563025879717D+03 0.000000000000000D+00 0.000000000000000D+00 -.818563025879717D+03
 0.562389461813139D+03 0.132197128902729D+03 0.532058187856156D+03 0.974220732537439D+01
 0.104367995892190D+03 -.509061578143956D+02 -.894309009387205D+02 -.174171071196352D+02
 0.419111257955409D+03 -.726219801574371D+02 -.412700121705974D+03 0.767489979426086D+01
 0.276509188414142D+03 -.866899093089592D+01 -.299271652114612D+02 -.274748147684554D+03
0.252900103024D-03 0.000000000000D+00 0.000000000000D+00 0.126120768031D-03 0.880859815769D-06  6 1 -2 25 3 -4 21 2 0.19190592D+00 0.54901996D-01 0.31103372D+06 0.31103372D+06 0.31103372D+06 0.10833932D+01  1  2  1  2  6  2       -2 0.102243106905D-02 0.100000000000D+01
  </mgrwgt>
  </event>
  <event>
  7     66 0.21897909E-05 0.34015865E+02 0.75467711E-02 0.93723483E-01
        1 -1    0    0  501    0 0.00000000E+00 0.00000000E+00 0.99232172E+03 0.99232177E+03 0.32000000E+00 0.0000E+00 0.9000E+01
       21 -1    0    0  503  501 0.00000000E+00 0.00000000E+00 -.49418440E+03 0.49418497E+03 0.75000000E+00 0.0000E+00 0.9000E+01
      -24  2    1    2    0    0 0.19686390E+03 -.49088239E+03 0.58946408E+03 0.79594881E+03 0.79659842E+02 0.0000E+00 0.0000E+00
       25  1    1    2    0    0 -.18098711E+03 0.48530303E+03 0.61902654E+02 0.53640685E+03 0.12500000E+03 0.0000E+00 0.9000E+01
        3  1    3    3  502    0 0.70344276E+02 -.93833056E+02 0.14862364E+03 0.18932035E+03 0.50000000E+00 0.0000E+00 0.9000E+01
        2  1    1    2  503    0 -.15876789E+02 0.55793562E+01 -.15322941E+03 0.15415108E+03 0.32000000E+00 0.0000E+00 0.9000E+01
       -4  1    3    3    0  502 0.12651962E+03 -.39704933E+03 0.44084044E+03 0.60662845E+03 0.15500000E+01 0.0000E+00 0.9000E+01
#aMCatNLO 2  0  0  2  4 0.18698323D+02 0.00000000D+00  -5  6  0 0.00000000D+00 0.00000000D+00 0.00000000D+00 0.00000000D+00 0.00000000D+00
  <mgrwgt>
 0.2894998488D-03    1    2    0
 0.581078688737597D+03 0.000000000000000D+00 0.000000000000000D+00 0.581078688737597D+03
 0.581078688737597D+03 0.000000000000000D+00 0.000000000000000D+00 -.581078688737597D+03
 0.585070966264024D+03 -.188946404902074D+03 0.488100058197947D+03 -.229653270882131D+03
 0.132366798847307D+03 0.685481529558494D+02 -.932141460667156D+02 0.642903035960947D+02
 0.000000000000000D+00 -.000000000000000D+00 0.000000000000000D+00 -.000000000000000D+00
 0.444719612363862D+03 0.120398251946225D+03 -.394885912131232D+03 0.165362967286036D+03
 0.581409517267929D+03 0.000000000000000D+00 0.000000000000000D+00 0.581409517267929D+03
 0.843450604264141D+03 0.000000000000000D+00 0.000000000000000D+00 -.843450604264141D+03
 0.580207715132424D+03 -.180987106822294D+03 0.485303034233686D+03 -.229653270882131D+03
 0.133764653084560D+03 0.703659323318453D+02 -.938529426572487D+02 0.642903035960947D+02
 0.262580907374240D+03 -.158767889567693D+02 0.557935621237923D+01 -.262041086996213D+03
 0.448306845940846D+03 0.126497963447218D+03 -.397029447788817D+03 0.165362967286036D+03
0.954711292472D-05 0.000000000000D+00 0.000000000000D+00 0.123177814627D-03 0.132175934103D-06  6 1 21 25 3 2 -4 2 0.15266490D+00 0.76028404D-01 0.29357314D+06 0.29357314D+06 0.29357314D+06 0.10852484D+01  1  2  1  6  5  2       -2 0.289499848752D-03 0.100000000000D+01
  </mgrwgt>
  </event>
  <event>
  7     66 0.21897909E-05 0.64988682E+02 0.75467711E-02 0.87251289E-01
        1 -1    0    0  501    0 0.00000000E+00 0.00000000E+00 0.44237209E+04 0.44237209E+04 0.32000000E+00 0.0000E+00 0.9000E+01
       -2 -1    0    0    0  503 0.00000000E+00 0.00000000E+00 -.26994204E+03 0.26994223E+03 0.32000000E+00 0.0000E+00 0.9000E+01
      -24  2    1    2    0    0 -.82086269E+03 0.57441345E+03 0.23170125E+04 0.25256419E+04 0.80954786E+02 0.0000E+00 0.0000E+00
       25  1    1    2    0    0 0.81348246E+03 -.58454188E+03 0.18740692E+04 0.21286624E+04 0.12500000E+03 0.0000E+00 0.9000E+01
        3  1    3    3  502    0 -.33759072E+03 0.27908484E+03 0.10595225E+04 0.11464921E+04 0.50000000E+00 0.0000E+00 0.9000E+01
       -4  1    3    3    0  502 -.48327197E+03 0.29532861E+03 0.12574900E+04 0.13791498E+04 0.15500000E+01 0.0000E+00 0.9000E+01
       21  1    1    2  501  503 0.73802237E+01 0.10128436E+02 -.37302898E+02 0.39358882E+02 0.75000000E+00 0.0000E+00 0.9000E+01
#aMCatNLO 2  0  0  2  5 0.18948124D+03 0.00000000D+00  -5  6  0 0.00000000D+00 0.00000000D+00 0.00000000D+00 0.00000000D+00 0.00000000D+00
  <mgrwgt>
 0.5085952181D-03    1    2    0
 0.101208014173683D+04 0.000000000000000D+00 0.000000000000000D+00 0.101208014173683D+04
 0.101208014173683D+04 0.000000000000000D+00 0.000000000000000D+00 -.101208014173683D+04
 0.101432090369159D+04 0.817180598664671D+03 -.579466651382700D+03 -.982657863505731D+02
 0.442750194150564D+03 -.336082115862887D+03 0.281390881917564D+03 0.624156822532828D+02
 0.567089185631501D+03 -.481098482801784D+03 0.298075769465136D+03 0.358501040972903D+02
 0.000000000000000D+00 0.000000000000000D+00 0.000000000000000D+00 -.000000000000000D+00
 0.101233394880663D+04 0.000000000000000D+00 0.000000000000000D+00 0.101233394880663D+04
 0.117959765959403D+04 0.000000000000000D+00 0.000000000000000D+00 -.117959765959403D+04
 0.101426036743308D+04 0.813482462635566D+03 -.584541881444569D+03 -.982657863505731D+02
 0.442576041870383D+03 -.337696079719078D+03 0.279175917995944D+03 0.624156822532828D+02
 0.567362668382740D+03 -.483166606635092D+03 0.295237527667684D+03 0.358501040972903D+02
 0.167732530714463D+03 0.738022371860507D+01 0.101284357809408D+02 -.167263710787406D+03
0.249084095678D-01 0.000000000000D+00 0.000000000000D+00 0.238625061226D-03 0.898810700747D-05  6 1 -2 25 3 -4 21 2 0.68057190D+00 0.41529526D-01 0.10265769D+07 0.10265769D+07 0.10265769D+07 0.10471065D+01  1  2  1  2  6  2       -2 0.508595218128D-03 0.100000000000D+01
  </mgrwgt>
  </event>
  <event>
  7     66 0.21897909E-05 0.29190705E+02 0.75467711E-02 0.89179417E-01
        1 -1    0    0  503    0 0.00000000E+00 0.00000000E+00 0.19488289E+04 0.19488290E+04 0.32000000E+00 0.0000E+00 0.9000E+01
       -2 -1    0    0    0  501 0.00000000E+00 0.00000000E+00 -.10103025E+04 0.10103025E+04 0.32000000E+00 0.0000E+00 0.9000E+01
      -24  2    1    2    0    0 0.67485890E+03 -.47589468E+03 -.72073649E+03 0.10989393E+04 0.79348045E+02 0.0000E+00 0.0000E+00
       25  1    1    2    0    0 -.65519458E+03 0.45586040E+03 0.15567896E+04 0.17539405E+04 0.12500000E+03 0.0000E+00 0.9000E+01
        3  1    3    3  502    0 0.17122486E+03 -.80445607E+02 -.15863784E+03 0.24689200E+03 0.50000000E+00 0.0000E+00 0.9000E+01
       -4  1    3    3    0  502 0.50363404E+03 -.39544907E+03 -.56209865E+03 0.85204725E+03 0.15500000E+01 0.0000E+00 0.9000E+01
       21  1    1    2  503  501 -.19664324E+02 0.20034274E+02 0.10247343E+03 0.10625170E+03 0.75000000E+00 0.0000E+00 0.9000E+01
#aMCatNLO 2  0  0  1  2 0.20281563D+02 0.00000000D+00  -5  6  0 0.00000000D+00 0.00000000D+00 0.00000000D+00 0.00000000D+00 0.00000000D+00
  <mgrwgt>
 0.1680244329D-03    1    2    0
 0.136374028115624D+04 0.000000000000000D+00 0.000000000000000D+00 0.136374028115624D+04
 0.136374028115624D+04 0.000000000000000D+00 0.000000000000000D+00 -.136374028115624D+04
 0.136545044693024D+04 -.665009453349170D+03 0.465859926851840D+03 0.109067267249704D+04
 0.305119398115523D+03 0.169063931000948D+03 -.782128103989554D+02 -.241656762020810D+03
 0.105691071726672D+04 0.495945522348222D+03 -.387647116452884D+03 -.849015910476227D+03
 0.000000000000000D+00 -.000000000000000D+00 0.000000000000000D+00 0.000000000000000D+00
 0.144097712966115D+04 0.000000000000000D+00 0.000000000000000D+00 0.144097712966115D+04
 0.136636568315008D+04 0.000000000000000D+00 0.000000000000000D+00 -.136636568315008D+04
 0.135730634833492D+04 -.655194579776947D+03 0.455860403335663D+03 0.109067267249704D+04
 0.306928959351114D+03 0.171270215917423D+03 -.804606027666644D+02 -.241656762020810D+03
 0.106338971705202D+04 0.503588687809844D+03 -.395434074910283D+03 -.849015910476227D+03
 0.797177880731711D+02 -.196643239503197D+02 0.200342743412848D+02 0.746114465110686D+02
0.162983189450D-02 0.000000000000D+00 0.000000000000D+00 0.362835276260D-04 0.275261677906D-06  6 1 -2 25 3 -4 21 2 0.29981946D+00 0.15543095D+00 0.69346963D+06 0.69346963D+06 0.69346963D+06 0.10586131D+01  1  2  1  1  6  1        1 0.168024432914D-03 0.100000000000D+01
  </mgrwgt>
  </event>
  <event>
  7     66 0.21897909E-05 0.66215147E+02 0.75467711E-02 0.94605319E-01
        1 -1    0    0  503    0 0.00000000E+00 0.00000000E+00 0.10438351E+04 0.10438351E+04 0.32000000E+00 0.0000E+00 0.9000E+01
       -2 -1    0    0    0  501 0.00000000E+00 0.00000000E+00 -.26984633E+03 0.26984652E+03 0.32000000E+00 0.0000E+00 0.9000E+01
      -24  2    1    2    0    0 0.19996089E+03 0.44885254E+03 0.17658510E+03 0.52841311E+03 0.81149005E+02 0.0000E+00 0.0000E+00
       25  1    1    2    0    0 -.18877652E+03 -.44033014E+03 0.58584679E+03 0.76705193E+03 0.12500000E+03 0.0000E+00 0.9000E+01
        3  1    3    3  502    0 0.10576053E+03 0.19493960E+03 0.11839249E+03 0.25140359E+03 0.50000000E+00 0.0000E+00 0.9000E+01
       -4  1    3    3    0  502 0.94200360E+02 0.25391294E+03 0.58192607E+02 0.27700951E+03 0.15500000E+01 0.0000E+00 0.9000E+01
       21  1    1    2  503  501 -.11184370E+02 -.85223981E+01 0.11556854E+02 0.18216607E+02 0.75000000E+00 0.0000E+00 0.9000E+01
#aMCatNLO 2  0  0  1  2 0.20281563D+02 0.00000000D+00  -5  6  0 0.00000000D+00 0.00000000D+00 0.00000000D+00 0.00000000D+00 0.00000000D+00
  <mgrwgt>
 0.4559371634D-02    1    2    0
 0.523624282429824D+03 0.000000000000000D+00 0.000000000000000D+00 0.523624282429824D+03
 0.523624282429824D+03 0.000000000000000D+00 0.000000000000000D+00 -.523624282429824D+03
 0.527940277467780D+03 -.194384389977441D+03 -.444603291440080D+03 0.166248484944982D+03
 0.222150888967990D+03 0.103408737716212D+03 0.193182371011484D+03 -.365817162471857D+02
 0.297157398423877D+03 0.909756522612296D+02 0.251420920428597D+03 -.129666768697796D+03
 0.000000000000000D+00 -.000000000000000D+00 -.000000000000000D+00 0.000000000000000D+00
 0.531237933511314D+03 0.000000000000000D+00 0.000000000000000D+00 0.531237933511314D+03
 0.530204310730414D+03 0.000000000000000D+00 0.000000000000000D+00 -.530204310730414D+03
 0.522293750054380D+03 -.188776515483527D+03 -.440330137284814D+03 0.166248484944982D+03
 0.224847391963134D+03 0.105795548839035D+03 0.195001101419661D+03 -.365817162471857D+02
 0.300201819008969D+03 0.941653370661012D+02 0.253851433966786D+03 -.129666768697796D+03
 0.140992832152446D+02 -.111843704216096D+02 -.852239810163248D+01 0.103362278089999D+01
0.454779497202D-03 0.000000000000D+00 0.000000000000D+00 0.223769287017D-03 0.717621844544D-05  6 1 -2 25 3 -4 21 2 0.16058701D+00 0.41514059D-01 0.25089845D+06 0.25089845D+06 0.25089845D+06 0.10903419D+01  1  2  1  1  6  1        1 0.455937163382D-02 0.100000000000D+01
  </mgrwgt>
  </event>
  <event>
  7     66 0.21897909E-05 0.52072595E+02 0.75467711E-02 0.94180600E-01
        1 -1    0    0  503    0 0.00000000E+00 0.00000000E+00 0.68593888E+03 0.68593895E+03 0.32000000E+00 0.0000E+00 0.9000E+01
       -2 -1    0    0    0  501 0.00000000E+00 0.00000000E+00 -.48083588E+03 0.48083599E+03 0.32000000E+00 0.0000E+00 0.9000E+01
      -24  2    1    2    0    0 0.46985637E+03 -.19045169E+03 0.41033177E+02 0.51616365E+03 0.87774349E+02 0.0000E+00 0.0000E+00
       25  1    1    2    0    0 -.44983339E+03 0.20301401E+03 0.25187186E+02 0.50972950E+03 0.12500000E+03 0.0000E+00 0.9000E+01
        3  1    3    3  502    0 0.15957319E+03 -.76128770E+02 -.26159741E+02 0.17872821E+03 0.50000000E+00 0.0000E+00 0.9000E+01
       -4  1    3    3    0  502 0.31028318E+03 -.11432292E+03 0.67192918E+02 0.33743544E+03 0.15500000E+01 0.0000E+00 0.9000E+01
       21  1    1    2  503  501 -.20022984E+02 -.12562322E+02 0.13888263E+03 0.14088179E+03 0.75000000E+00 0.0000E+00 0.9000E+01
#aMCatNLO 2  0  0  1  2 0.87092726D+03 0.00000000D+00  -5  6  0 0.00000000D+00 0.00000000D+00 0.00000000D+00 0.00000000D+00 0.00000000D+00
  <mgrwgt>
 0.5028544017D-03    1    2    0
 0.511740385142113D+03 0.000000000000000D+00 0.000000000000000D+00 0.511740385142113D+03
 0.511740385142113D+03 0.000000000000000D+00 0.000000000000000D+00 -.511740385142113D+03
 0.515609862880217D+03 -.459856211257473D+03 0.196725748675235D+03 -.773146011091724D+01
 0.178699669605857D+03 0.156096422975031D+03 -.783550196849971D+02 -.377884842485952D+02
 0.329171237798152D+03 0.303759788282442D+03 -.118370728990238D+03 0.455199443595124D+02
 0.000000000000000D+00 -.000000000000000D+00 -.000000000000000D+00 0.000000000000000D+00
 0.643001927289853D+03 0.000000000000000D+00 0.000000000000000D+00 0.643001927289853D+03
 0.512942110256328D+03 0.000000000000000D+00 0.000000000000000D+00 -.512942110256328D+03
 0.509165539464281D+03 -.449833391654243D+03 0.203014016401197D+03 -.773146011091724D+01
 0.180839393250083D+03 0.159612896105704D+03 -.761488017371351D+02 -.377884842485952D+02
 0.333748757861167D+03 0.310243479745632D+03 -.114302892853594D+03 0.455199443595124D+02
 0.132190346970650D+03 -.200229841970934D+02 -.125623218104677D+02 0.130059817033525D+03
0.822978078500D-04 0.000000000000D+00 0.000000000000D+00 0.311580891169D-05 0.361250073398D-07  6 1 -2 25 3 -4 21 2 0.10552885D+00 0.73974612D-01 0.27051517D+06 0.27051517D+06 0.27051517D+06 0.10878917D+01  1  2  1  1  6  1        1 0.502854401677D-03 0.100000000000D+01
  </mgrwgt>
  </event>
  <event>
  7     66 0.21897909E-05 0.39146037E+02 0.75467711E-02 0.92231962E-01
        1 -1    0    0  503    0 0.00000000E+00 0.00000000E+00 0.13837868E+04 0.13837869E+04 0.32000000E+00 0.0000E+00 0.9000E+01
       -2 -1    0    0    0  501 0.00000000E+00 0.00000000E+00 -.29280953E+03 0.29280971E+03 0.32000000E+00 0.0000E+00 0.9000E+01
      -24  2    1    2    0    0 -.24970700E+03 -.54587389E+03 0.55338063E+03 0.82036542E+03 0.80233472E+02 0.0000E+00 0.0000E+00
       25  1    1    2    0    0 0.26328688E+03 0.55343934E+03 0.45830035E+03 0.77542201E+03 0.12500000E+03 0.0000E+00 0.9000E+01
        3  1    3    3  502    0 -.74428711E+02 -.13454897E+03 0.18849642E+03 0.24325749E+03 0.50000000E+00 0.0000E+00 0.9000E+01
       -4  1    3    3    0  502 -.17527828E+03 -.41132492E+03 0.36488422E+03 0.57710793E+03 0.15500000E+01 0.0000E+00 0.9000E+01
       21  1    1    2  503  501 -.13579882E+02 -.75654498E+01 0.79296314E+02 0.80809140E+02 0.75000000E+00 0.0000E+00 0.9000E+01
#aMCatNLO 2  0  0  1  2 0.87092726D+03 0.00000000D+00  -5  6  0 0.00000000D+00 0.00000000D+00 0.00000000D+00 0.00000000D+00 0.00000000D+00
  <mgrwgt>
 0.2197138837D-03    1    2    0
 0.617008400625664D+03 0.000000000000000D+00 0.000000000000000D+00 0.617008400625664D+03
 0.617008400625664D+03 0.000000000000000D+00 0.000000000000000D+00 -.617008400625664D+03
 0.620731036325856D+03 0.256421905097386D+03 0.549614815013975D+03 -.430509135971916D+02
 0.161724298070873D+03 -.762202145799657D+02 -.135569593936318D+03 0.443408691371998D+02
 0.451561466854599D+03 -.180201690517420D+03 -.414045221077657D+03 -.128995554000829D+01
 0.000000000000000D+00 -.000000000000000D+00 -.000000000000000D+00 0.000000000000000D+00
 0.654942545769017D+03 0.000000000000000D+00 0.000000000000000D+00 0.654942545769017D+03
 0.618651969732398D+03 0.000000000000000D+00 0.000000000000000D+00 -.618651969732398D+03
 0.626971661848687D+03 0.263286877535882D+03 0.553439340594032D+03 -.430509135971916D+02
 0.160067211740165D+03 -.744496887575667D+02 -.134583221251128D+03 0.443408691371998D+02
 0.447075835416143D+03 -.175257307275066D+03 -.411290669568907D+03 -.128995554000829D+01
 0.394798064964195D+02 -.135798815032494D+02 -.756544977399646D+01 0.362905760366183D+02
0.466557091987D-04 0.000000000000D+00 0.000000000000D+00 0.277250228805D-03 0.710333007464D-05  6 1 -2 25 3 -4 21 2 0.21288907D+00 0.45047378D-01 0.38558762D+06 0.38558762D+06 0.38558762D+06 0.10765784D+01  1  2  1  1  6  1        1 0.219713883652D-03 0.100000000000D+01
  </mgrwgt>
  </event>
  <event>
  7     66 0.21897909E-05 0.27903426E+02 0.75467711E-02 0.93813432E-01
        1 -1    0    0  501    0 0.00000000E+00 0.00000000E+00 0.15288802E+04 0.15288802E+04 0.32000000E+00 0.0000E+00 0.9000E+01
       -2 -1    0    0    0  503 0.00000000E+00 0.00000000E+00 -.93045064E+03 0.93045070E+03 0.32000000E+00 0.0000E+00 0.9000E+01
      -24  2    1    2    0    0 0.40147698E+02 0.50463886E+03 0.33435104E+03 0.61194595E+03 0.80093762E+02 0.0000E+00 0.0000E+00
       25  1    1    2    0    0 -.79764601E+02 -.50721387E+03 0.98902647E+03 0.11213504E+04 0.12500000E+03 0.0000E+00 0.9000E+01
        3  1    3    3  502    0 0.19205344E+02 0.37238669E+03 0.20385603E+03 0.42496850E+03 0.50000000E+00 0.0000E+00 0.9000E+01
       -4  1    3    3    0  502 0.20942354E+02 0.13225218E+03 0.13049500E+03 0.18697745E+03 0.15500000E+01 0.0000E+00 0.9000E+01
       21  1    1    2  501  503 0.39616903E+02 0.25750061E+01 -.72494796E+03 0.72603460E+03 0.75000000E+00 0.0000E+00 0.9000E+01
#aMCatNLO 2  0  0  2  1 0.11787532D+03 0.00000000D+00  -5  6  0 0.00000000D+00 0.00000000D+00 0.00000000D+00 0.00000000D+00 0.00000000D+00
  <mgrwgt>
 0.3762741626D-03    1    2    0
 0.559332636926343D+03 0.000000000000000D+00 0.000000000000000D+00 0.559332636926343D+03
 0.559332636926343D+03 0.000000000000000D+00 0.000000000000000D+00 -.559332636926343D+03
 0.563449145065214D+03 -.597522932708292D+02 -.505913117504831D+03 0.205746251630839D+03
 0.418987888364441D+03 0.340134032578842D+02 0.373483132237046D+03 -.186826895626178D+03
 0.136228240423031D+03 0.257388900129450D+02 0.132429985267785D+03 -.189193560046608D+02
 0.000000000000000D+00 0.000000000000000D+00 0.000000000000000D+00 -.000000000000000D+00
 0.559883655677269D+03 0.000000000000000D+00 0.000000000000000D+00 0.559883655677269D+03
 0.254079090731348D+04 0.000000000000000D+00 0.000000000000000D+00 -.254079090731348D+04
 0.567084493156631D+03 -.797646014420913D+02 -.507213870744243D+03 0.205746251630839D+03
 0.417187389088169D+03 0.192117230850660D+02 0.372521057634318D+03 -.186826895626178D+03
 0.135097638789574D+03 0.209359748885604D+02 0.132117807014622D+03 -.189193560046608D+02
 0.198130504195637D+04 0.396169034684650D+02 0.257500609530270D+01 -.198090725163621D+04
0.135404568862D-02 0.000000000000D+00 0.000000000000D+00 0.122432694099D-03 0.116279492418D-05  6 1 -2 25 3 -4 21 2 0.23521231D+00 0.14314624D+00 0.28886711D+06 0.28886711D+06 0.28886711D+06 0.10857690D+01  1  2  1  2  6  2       -2 0.376274162553D-03 0.100000000000D+01
  </mgrwgt>
  </event>
  <event>
  7     66 0.21897909E-05 0.12517860E+03 0.75467711E-02 0.91069366E-01
        1 -1    0    0  501    0 0.00000000E+00 0.00000000E+00 0.27721127E+04 0.27721127E+04 0.32000000E+00 0.0000E+00 0.9000E+01
       21 -1    0    0  503  501 0.00000000E+00 0.00000000E+00 -.33420001E+03 0.33420085E+03 0.75000000E+00 0.0000E+00 0.9000E+01
      -24  2    1    2    0    0 0.35314324E+03 -.58452277E+03 0.22697157E+04 0.23715873E+04 0.80248625E+02 0.0000E+00 0.0000E+00
       25  1    1    2    0    0 -.25377986E+03 0.46457508E+03 0.19269473E+03 0.57705327E+03 0.12500000E+03 0.0000E+00 0.9000E+01
        3  1    3    3  502    0 0.10324426E+03 -.22957204E+03 0.91726572E+03 0.95117788E+03 0.50000000E+00 0.0000E+00 0.9000E+01
        2  1    1    2  503    0 -.99363383E+02 0.11994769E+03 -.24497755E+02 0.15767299E+03 0.32000000E+00 0.0000E+00 0.9000E+01
       -4  1    3    3    0  502 0.24989899E+03 -.35495073E+03 0.13524500E+04 0.14204094E+04 0.15500000E+01 0.0000E+00 0.9000E+01
#aMCatNLO 2  0  0  2  1 0.11787532D+03 0.00000000D+00  -5  6  0 0.00000000D+00 0.00000000D+00 0.00000000D+00 0.00000000D+00 0.00000000D+00
  <mgrwgt>
 0.1108810575D-03    1    2    0
 0.807272491356750D+03 0.000000000000000D+00 0.000000000000000D+00 0.807272491356750D+03
 0.807272491356750D+03 0.000000000000000D+00 0.000000000000000D+00 -.807272491356750D+03
 0.810116995016612D+03 -.301874255182326D+03 0.522632803888382D+03 -.525729428482589D+03
 0.314863083544193D+03 0.832695570234083D+02 -.205496438779132D+03 0.223553474366150D+03
 0.000000000000000D+00 -.000000000000000D+00 0.000000000000000D+00 -.000000000000000D+00
 0.489564904152696D+03 0.218604698158918D+03 -.317136365109250D+03 0.302175954116439D+03
 0.830980873140836D+03 0.000000000000000D+00 0.000000000000000D+00 0.830980873140836D+03
 0.111487674690783D+04 0.000000000000000D+00 0.000000000000000D+00 -.111487674690783D+04
 0.756472507640997D+03 -.253779859312932D+03 0.464575080962310D+03 -.525729428482589D+03
 0.336716233119893D+03 0.103273082862686D+03 -.229643933299597D+03 0.223553474366150D+03
 0.323816920224233D+03 -.993633832073585D+02 0.119947691762585D+03 -.283895873766990D+03
 0.528851959063540D+03 0.249870159657605D+03 -.354878839425299D+03 0.302175954116439D+03
0.270667128009D-04 0.000000000000D+00 0.000000000000D+00 0.175363245983D-03 0.200599430221D-08  6 1 21 25 3 2 -4 2 0.42647891D+00 0.51415447D-01 0.47990607D+06 0.47990607D+06 0.47990607D+06 0.10697717D+01  1  2  1  6  5  2       -2 0.110881057498D-03 0.100000000000D+01
  </mgrwgt>
  </event>
  <event>
  7     66 0.21897909E-05 0.51182138E+02 0.75467711E-02 0.90862173E-01
        3 -1    0    0  501    0 0.00000000E+00 0.00000000E+00 0.33663672E+03 0.33663709E+03 0.50000000E+00 0.0000E+00 0.9000E+01
       -4 -1    0    0    0  503 0.00000000E+00 0.00000000E+00 -.16378676E+04 0.16378683E+04 0.15500000E+01 0.0000E+00 0.9000E+01
      -24  2    1    2    0    0 -.43664301E+03 0.53172333E+03 -.92679807E+03 0.11571019E+04 0.80891382E+02 0.0000E+00 0.0000E+00
       25  1    1    2    0    0 0.45482761E+03 -.51868884E+03 -.34782897E+03 0.78263419E+03 0.12500000E+03 0.0000E+00 0.9000E+01
        1  1    3    3  502    0 -.29212580E+03 0.31874528E+03 -.63221350E+03 0.76591778E+03 0.32000000E+00 0.0000E+00 0.9000E+01
       -2  1    3    3    0  502 -.14451721E+03 0.21297805E+03 -.29458458E+03 0.39118416E+03 0.32000000E+00 0.0000E+00 0.9000E+01
       21  1    1    2  501  503 -.18184601E+02 -.13034486E+02 -.26603825E+02 0.34769290E+02 0.75000000E+00 0.0000E+00 0.9000E+01
#aMCatNLO 2  0  0  2  2 0.64625095D+02 0.00000000D+00  -5  6  0 0.00000000D+00 0.00000000D+00 0.00000000D+00 0.00000000D+00 0.00000000D+00
  <mgrwgt>
 0.2315851709D-04    1    2    0
 0.730992741141015D+03 0.000000000000000D+00 0.000000000000000D+00 0.730992741141015D+03
 0.730992741141015D+03 0.000000000000000D+00 0.000000000000000D+00 -.730992741141015D+03
 0.734098648995431D+03 0.445691326387137D+03 -.525237613933836D+03 0.220817836574137D+03
 0.465807729748362D+03 -.297916363249036D+03 0.314597995145084D+03 -.171028603024422D+03
 0.262079103538237D+03 -.147774963138101D+03 0.210639618788752D+03 -.497892335497150D+02
 0.000000000000000D+00 -.000000000000000D+00 -.000000000000000D+00 -.000000000000000D+00
 0.740047580321403D+03 0.000000000000000D+00 0.000000000000000D+00 0.740047580321403D+03
 0.745030946161562D+03 0.000000000000000D+00 0.000000000000000D+00 -.745030946161562D+03
 0.735045433668901D+03 0.454827612618379D+03 -.518688842571427D+03 0.220817836574137D+03
 0.464961533604622D+03 -.292128112453502D+03 0.318746938171695D+03 -.171028603024422D+03
 0.262149702843461D+03 -.144514898667719D+03 0.212976390678652D+03 -.497892335497150D+02
 0.229218563659811D+02 -.181846014971577D+02 -.130344862789204D+02 -.498336584015989D+01
0.603814441909D-03 0.000000000000D+00 0.000000000000D+00 0.165121375277D-03 0.200931284302D-05  6 3 -4 25 1 -2 21 2 0.51789922D-01 0.25197763D+00 0.49928951D+06 0.49928951D+06 0.49928951D+06 0.10685540D+01  1  2  1  2  6  2       -4 0.231585170879D-04 0.100000000000D+01
  </mgrwgt>
  </event>
  <event>
  7     66 0.21897909E-05 0.21234818E+02 0.75467711E-02 0.89746448E-01
        1 -1    0    0  501    0 0.00000000E+00 0.00000000E+00 0.10479794E+04 0.10479794E+04 0.32000000E+00 0.0000E+00 0.9000E+01
       -2 -1    0    0    0  503 0.00000000E+00 0.00000000E+00 -.13376106E+04 0.13376106E+04 0.32000000E+00 0.0000E+00 0.9000E+01
      -24  2    1    2    0    0 0.72313820E+03 0.21330166E+03 0.57252181E+03 0.95046825E+03 0.84747896E+02 0.0000E+00 0.0000E+00
       25  1    1    2    0    0 -.73005160E+03 -.25128376E+03 -.24909434E+03 0.82084825E+03 0.12500000E+03 0.0000E+00 0.9000E+01
        3  1    3    3  502    0 0.61754531E+03 0.18443027E+03 0.44938130E+03 0.78569748E+03 0.50000000E+00 0.0000E+00 0.9000E+01
       -4  1    3    3    0  502 0.10559290E+03 0.28871389E+02 0.12314051E+03 0.16477077E+03 0.15500000E+01 0.0000E+00 0.9000E+01
       21  1    1    2  501  503 0.69134012E+01 0.37982094E+02 -.61305868E+03 0.61427350E+03 0.75000000E+00 0.0000E+00 0.9000E+01
#aMCatNLO 2  0  0  2  2 0.64625095D+02 0.00000000D+00  -5  6  0 0.00000000D+00 0.00000000D+00 0.00000000D+00 0.00000000D+00 0.00000000D+00
  <mgrwgt>
 0.1755181743D-03    1    2    0
 0.870555337576922D+03 0.000000000000000D+00 0.000000000000000D+00 0.870555337576922D+03
 0.870555337576922D+03 0.000000000000000D+00 0.000000000000000D+00 -.870555337576922D+03
 0.872979880363097D+03 -.726569494777897D+03 -.232153122979906D+03 -.405796215196292D+03
 0.722563521366514D+03 0.620603794829393D+03 0.200179111271574D+03 0.311251177770393D+03
 0.145567273424234D+03 0.105965699948504D+03 0.319740117083317D+02 0.945450374258990D+02
 0.000000000000000D+00 0.000000000000000D+00 0.000000000000000D+00 -.000000000000000D+00
 0.871274122034113D+03 0.000000000000000D+00 0.000000000000000D+00 0.871274122034113D+03
 0.160889404890198D+04 0.000000000000000D+00 0.000000000000000D+00 -.160889404890198D+04
 0.881143823588601D+03 -.730051602730894D+03 -.251283757793371D+03 -.405796215196292D+03
 0.715910023239554D+03 0.617748283465762D+03 0.184490986193112D+03 0.311251177770393D+03
 0.144484788329420D+03 0.105389918098718D+03 0.288106771853439D+02 0.945450374258990D+02
 0.738629535778516D+03 0.691340116641454D+01 0.379820944149147D+02 -.737619926867866D+03
0.926790127494D-03 0.000000000000D+00 0.000000000000D+00 0.407779987323D-05 0.198289387705D-07  6 1 -2 25 3 -4 21 2 0.16122757D+00 0.20578620D+00 0.61993013D+06 0.61993013D+06 0.61993013D+06 0.10619732D+01  1  2  1  2  6  2       -2 0.175518174326D-03 0.100000000000D+01
  </mgrwgt>
  </event>
  <event>
  7     66 0.21897909E-05 0.60199716E+02 0.75467711E-02 0.89448328E-01
        1 -1    0    0  503    0 0.00000000E+00 0.00000000E+00 0.90821666E+03 0.90821672E+03 0.32000000E+00 0.0000E+00 0.9000E+01
       -2 -1    0    0    0  501 0.00000000E+00 0.00000000E+00 -.84410701E+03 0.84410707E+03 0.32000000E+00 0.0000E+00 0.9000E+01
      -24  2    1    2    0    0 0.92276892E+02 -.78971171E+03 -.26832598E+03 0.84313200E+03 0.81933697E+02 0.0000E+00 0.0000E+00
       25  1    1    2    0    0 -.85243428E+02 0.79758942E+03 0.28468641E+03 0.86028290E+03 0.12500000E+03 0.0000E+00 0.9000E+01
        3  1    3    3  502    0 0.96096188E+02 -.47874750E+03 -.16224170E+03 0.51454472E+03 0.50000000E+00 0.0000E+00 0.9000E+01
       -4  1    3    3    0  502 -.38192955E+01 -.31096421E+03 -.10608428E+03 0.32858728E+03 0.15500000E+01 0.0000E+00 0.9000E+01
       21  1    1    2  503  501 -.70334644E+01 -.78777105E+01 0.47749231E+02 0.48908890E+02 0.75000000E+00 0.0000E+00 0.9000E+01
#aMCatNLO 2  0  0  1  2 0.87092726D+03 0.00000000D+00  -5  6  0 0.00000000D+00 0.00000000D+00 0.00000000D+00 0.00000000D+00 0.00000000D+00
  <mgrwgt>
 0.9254636103D-03    1    2    0
 0.851651795323285D+03 0.000000000000000D+00 0.000000000000000D+00 0.851651795323285D+03
 0.851651795323285D+03 0.000000000000000D+00 0.000000000000000D+00 -.851651795323285D+03
 0.854267849642417D+03 -.887777838720475D+02 0.793630821467372D+03 0.276436580865254D+03
 0.518127173725151D+03 0.939950236770224D+02 -.481299384651164D+03 -.167247140516003D+03
 0.330908567279002D+03 -.521723980497490D+01 -.312331436816207D+03 -.109189440349251D+03
 0.000000000000000D+00 -.000000000000000D+00 -.000000000000000D+00 0.000000000000000D+00
 0.899532195763707D+03 0.000000000000000D+00 0.000000000000000D+00 0.899532195763707D+03
 0.852250689343524D+03 0.000000000000000D+00 0.000000000000000D+00 -.852250689343524D+03
 0.857588188956617D+03 -.852434278041457D+02 0.797589416061683D+03 0.276436580865254D+03
 0.516299276484898D+03 0.961307356286478D+02 -.478907317291712D+03 -.167247140516003D+03
 0.329448863606320D+03 -.385384344441193D+01 -.310804388222591D+03 -.109189440349251D+03
 0.484465560593960D+02 -.703346438009026D+01 -.787771054738095D+01 0.472815064201838D+02
0.100929504139D-02 0.000000000000D+00 0.000000000000D+00 0.766794758465D-04 0.412823775549D-05  6 1 -2 25 3 -4 21 2 0.13972517D+00 0.12986218D+00 0.65744700D+06 0.65744700D+06 0.65744700D+06 0.10602079D+01  1  2  1  1  6  1        1 0.925463610321D-03 0.100000000000D+01
  </mgrwgt>
  </event>
  <event>
  7     66 0.21897909E-05 0.14791927E+03 0.75467711E-02 0.93337451E-01
        1 -1    0    0  501    0 0.00000000E+00 0.00000000E+00 0.25641132E+04 0.25641132E+04 0.32000000E+00 0.0000E+00 0.9000E+01
       -2 -1    0    0    0  503 0.00000000E+00 0.00000000E+00 -.36317137E+03 0.36317151E+03 0.32000000E+00 0.0000E+00 0.9000E+01
      -24  2    1    2    0    0 0.40877006E+03 0.20859586E+03 0.99611015E+03 0.10996214E+04 0.79539870E+02 0.0000E+00 0.0000E+00
       25  1    1    2    0    0 -.47970481E+03 -.64206764E+02 0.14503840E+04 0.15341050E+04 0.12500000E+03 0.0000E+00 0.9000E+01
        3  1    3    3  502    0 0.37718349E+03 0.17694898E+03 0.93733111E+03 0.10257525E+04 0.50000000E+00 0.0000E+00 0.9000E+01
       -4  1    3    3    0  502 0.31586572E+02 0.31646879E+02 0.58779048E+02 0.73868907E+02 0.15500000E+01 0.0000E+00 0.9000E+01
       21  1    1    2  501  503 0.70934749E+02 -.14438910E+03 -.24555239E+03 0.29355833E+03 0.75000000E+00 0.0000E+00 0.9000E+01
#aMCatNLO 2  0  0  2  2 0.64625095D+02 0.00000000D+00  -5  6  0 0.00000000D+00 0.00000000D+00 0.00000000D+00 0.00000000D+00 0.00000000D+00
  <mgrwgt>
 0.1300908598D-03    1    2    0
 0.480962793826509D+03 0.000000000000000D+00 0.000000000000000D+00 0.480962793826509D+03
 0.480962793826509D+03 0.000000000000000D+00 0.000000000000000D+00 -.480962793826509D+03
 0.485796020662123D+03 -.443442235884084D+03 -.138019957349114D+03 0.684269573971192D+02
 0.425953839037783D+03 0.408260858710606D+03 0.114045498173755D+03 -.418732442283099D+02
 0.501757279531129D+02 0.351813771734775D+02 0.239744591753583D+02 -.265537131688093D+02
 0.000000000000000D+00 0.000000000000000D+00 -.000000000000000D+00 -.000000000000000D+00
 0.492250404335941D+03 0.000000000000000D+00 0.000000000000000D+00 0.492250404335941D+03
 0.189174522151638D+04 0.000000000000000D+00 0.000000000000000D+00 -.189174522151638D+04
 0.504525977470874D+03 -.479704810186853D+03 -.642067638797372D+02 0.684269573971192D+02
 0.418882115375287D+03 0.377325540068476D+03 0.177014956461606D+03 -.418732442283099D+02
 0.518768838800828D+02 0.314445214574885D+02 0.315809035394137D+02 -.265537131688093D+02
 0.140871064912608D+04 0.709347486608889D+02 -.144389096121283D+03 -.139949481718044D+04
0.259292570786D-03 0.000000000000D+00 0.000000000000D+00 0.865319459705D-04 0.422109967861D-07  6 1 -2 25 3 -4 21 2 0.39447888D+00 0.55872520D-01 0.31476948D+06 0.31476948D+06 0.31476948D+06 0.10830111D+01  1  2  1  2  6  2       -2 0.130090859812D-03 0.100000000000D+01
  </mgrwgt>
  </event>
  <event>
  7     66 0.21897909E-05 0.51553269E+02 0.75467711E-02 0.93793440E-01
        1 -1    0    0  501    0 0.00000000E+00 0.00000000E+00 0.19355020E+04 0.19355020E+04 0.32000000E+00 0.0000E+00 0.9000E+01
       -2 -1    0    0    0  503 0.00000000E+00 0.00000000E+00 -.17942120E+03 0.17942148E+03 0.32000000E+00 0.0000E+00 0.9000E+01
      -24  2    1    2    0    0 0.16717798E+03 0.48203144E+03 0.12060656E+04 0.13120097E+04 0.80450591E+02 0.0000E+00 0.0000E+00
       25  1    1    2    0    0 -.20573953E+03 -.46213876E+03 0.55247990E+03 0.75944719E+03 0.12500000E+03 0.0000E+00 0.9000E+01
        3  1    3    3  502    0 0.98022443E+02 0.21080559E+03 0.63038061E+03 0.67188344E+03 0.50000000E+00 0.0000E+00 0.9000E+01
       -4  1    3    3    0  502 0.69155534E+02 0.27122585E+03 0.57568504E+03 0.64012625E+03 0.15500000E+01 0.0000E+00 0.9000E+01
       21  1    1    2  501  503 0.38561550E+02 -.19892673E+02 -.24647354E+01 0.43466642E+02 0.75000000E+00 0.0000E+00 0.9000E+01
#aMCatNLO 2  0  0  2  2 0.64625095D+02 0.00000000D+00  -5  6  0 0.00000000D+00 0.00000000D+00 0.00000000D+00 0.00000000D+00 0.00000000D+00
  <mgrwgt>
 0.8047324197D-03    1    2    0
 0.546938852885958D+03 0.000000000000000D+00 0.000000000000000D+00 0.546938852885958D+03
 0.546938852885958D+03 0.000000000000000D+00 0.000000000000000D+00 -.546938852885958D+03
 0.551122456953315D+03 -.186346808419770D+03 -.472142847468011D+03 -.174547876340055D+03
 0.258624866927478D+03 0.107172749036996D+03 0.206170435901786D+03 0.113554282249398D+03
 0.284130381891124D+03 0.791740593827733D+02 0.265972411566225D+03 0.609935940906567D+02
 0.000000000000000D+00 0.000000000000000D+00 -.000000000000000D+00 -.000000000000000D+00
 0.553227183288249D+03 0.000000000000000D+00 0.000000000000000D+00 0.553227183288249D+03
 0.627713891651797D+03 0.000000000000000D+00 0.000000000000000D+00 -.627713891651797D+03
 0.549538852197292D+03 -.205739526416325D+03 -.462138762937584D+03 -.174547876340055D+03
 0.258799484756981D+03 0.980561711639075D+02 0.210873387581216D+03 0.113554282249398D+03
 0.286399598244490D+03 0.691218054138491D+02 0.271158048692712D+03 0.609935940906567D+02
 0.862031397412829D+02 0.385615498385688D+02 -.198926733363437D+02 -.744867083635479D+02
0.157884927709D-03 0.000000000000D+00 0.000000000000D+00 0.324741456620D-03 0.109334822095D-05  6 1 -2 25 3 -4 21 2 0.29776869D+00 0.27603204D-01 0.28990572D+06 0.28990572D+06 0.28990572D+06 0.10856533D+01  1  2  1  2  6  2       -2 0.804732419658D-03 0.100000000000D+01
  </mgrwgt>
  </event>
  <event>
  7     66 0.21897909E-05 0.12529152E+03 0.75467711E-02 0.91171468E-01
        1 -1    0    0  501    0 0.00000000E+00 0.00000000E+00 0.21294212E+04 0.21294212E+04 0.32000000E+00 0.0000E+00 0.9000E+01
       -2 -1    0    0    0  503 0.00000000E+00 0.00000000E+00 -.29996060E+03 0.29996077E+03 0.32000000E+00 0.0000E+00 0.9000E+01
      -24  2    1    2    0    0 -.58626352E+03 0.26858258E+03 0.14667728E+04 0.16043585E+04 0.81867218E+02 0.0000E+00 0.0000E+00
       25  1    1    2    0    0 0.44689609E+03 -.33535842E+03 0.34747630E+03 0.66973589E+03 0.12500000E+03 0.0000E+00 0.9000E+01
        3  1    3    3  502    0 -.20159950E+03 0.84896264E+02 0.59528579E+03 0.63420435E+03 0.50000000E+00 0.0000E+00 0.9000E+01
       -4  1    3    3    0  502 -.38466402E+03 0.18368632E+03 0.87148699E+03 0.97015413E+03 0.15500000E+01 0.0000E+00 0.9000E+01
       21  1    1    2  501  503 0.13936742E+03 0.66775840E+02 0.15211527E+02 0.15528762E+03 0.75000000E+00 0.0000E+00 0.9000E+01
#aMCatNLO 2  0  0  2  2 0.16563001D+02 0.00000000D+00  -5  6  0 0.00000000D+00 0.00000000D+00 0.00000000D+00 0.00000000D+00 0.00000000D+00
  <mgrwgt>
 0.3083966465D-03    1    2    0
 0.681198064404178D+03 0.000000000000000D+00 0.000000000000000D+00 0.681198064404178D+03
 0.681198064404178D+03 0.000000000000000D+00 0.000000000000000D+00 -.681198064404178D+03
 0.684472720948894D+03 0.514985394985750D+03 -.302734437543302D+03 -.309870632683858D+03
 0.249499046080913D+03 -.175463173826964D+03 0.974704466210925D+02 0.148195683679853D+03
 0.428424361778548D+03 -.339522221158786D+03 0.205263990922209D+03 0.161674949004005D+03
 0.000000000000000D+00 0.000000000000000D+00 0.000000000000000D+00 -.000000000000000D+00
 0.714156563271331D+03 0.000000000000000D+00 0.000000000000000D+00 0.714156563271331D+03
 0.894400046691235D+03 0.000000000000000D+00 0.000000000000000D+00 -.894400046691235D+03
 0.651019350954448D+03 0.446896091033894D+03 -.335358420404023D+03 -.309870632683858D+03
 0.264270816279396D+03 -.201657438140115D+03 0.849198523220863D+02 0.148195683679853D+03
 0.455842759829745D+03 -.384606077577350D+03 0.183662727967099D+03 0.161674949004005D+03
 0.237423682898978D+03 0.139367424683571D+03 0.667758401148379D+02 -.180243483419904D+03
0.222214919252D-03 0.000000000000D+00 0.000000000000D+00 0.877952828555D-04 0.229914823112D-07  6 1 -2 25 3 -4 21 2 0.32760301D+00 0.46147762D-01 0.47066446D+06 0.47066446D+06 0.47066446D+06 0.10703712D+01  1  2  1  2  6  2       -2 0.308396646496D-03 0.100000000000D+01
  </mgrwgt>
  </event>
  <event>
  7     66 0.21897909E-05 0.54659900E+02 0.75467711E-02 0.93730026E-01
        1 -1    0    0  503    0 0.00000000E+00 0.00000000E+00 0.13067195E+04 0.13067196E+04 0.32000000E+00 0.0000E+00 0.9000E+01
       -2 -1    0    0    0  501 0.00000000E+00 0.00000000E+00 -.23208500E+03 0.23208522E+03 0.32000000E+00 0.0000E+00 0.9000E+01
      -24  2    1    2    0    0 0.51424657E+03 0.13035283E+03 0.43450677E+03 0.69102355E+03 0.85299494E+02 0.0000E+00 0.0000E+00
       25  1    1    2    0    0 -.50535916E+03 -.13922701E+03 0.60363263E+03 0.80917823E+03 0.12500000E+03 0.0000E+00 0.9000E+01
        3  1    3    3  502    0 0.33604600E+03 0.10152890E+03 0.33327721E+03 0.48405473E+03 0.50000000E+00 0.0000E+00 0.9000E+01
       -4  1    3    3    0  502 0.17820058E+03 0.28823935E+02 0.10122956E+03 0.20696882E+03 0.15500000E+01 0.0000E+00 0.9000E+01
       21  1    1    2  503  501 -.88874101E+01 0.88741747E+01 0.36495131E+02 0.38603032E+02 0.75000000E+00 0.0000E+00 0.9000E+01
#aMCatNLO 2  0  0  1  2 0.10520431D+03 0.00000000D+00  -5  6  0 0.00000000D+00 0.00000000D+00 0.00000000D+00 0.00000000D+00 0.00000000D+00
  <mgrwgt>
 0.1672138452D-02    1    2    0
 0.541459645615211D+03 0.000000000000000D+00 0.000000000000000D+00 0.541459645615211D+03
 0.541459645615211D+03 0.000000000000000D+00 0.000000000000000D+00 -.541459645615211D+03
 0.545314503223830D+03 -.509821870689986D+03 -.134770951090257D+03 0.605091590971399D+02
 0.349263187920581D+03 0.333276798215934D+03 0.104431243069543D+03 -.233787902433173D+01
 0.188341600086012D+03 0.176545072474052D+03 0.303397080207135D+02 -.581712800728081D+02
 0.000000000000000D+00 -.000000000000000D+00 0.000000000000000D+00 0.000000000000000D+00
 0.557508733699096D+03 0.000000000000000D+00 0.000000000000000D+00 0.557508733699096D+03
 0.543958749485103D+03 0.000000000000000D+00 0.000000000000000D+00 -.543958749485103D+03
 0.542271523549484D+03 -.505359165998909D+03 -.139227009803858D+03 0.605091590971399D+02
 0.351166065002076D+03 0.336150877907873D+03 0.101561443532851D+03 -.233787902433173D+01
 0.189554529773172D+03 0.178095698162455D+03 0.287913915649649D+02 -.581712800728081D+02
 0.184753648594662D+02 -.888741007141897D+01 0.887417470604282D+01 0.135499842139934D+02
0.197264870191D-03 0.000000000000D+00 0.000000000000D+00 0.135971388280D-04 0.541714124688D-06  6 1 -2 25 3 -4 21 2 0.20103099D+00 0.35704907D-01 0.29322797D+06 0.29322797D+06 0.29322797D+06 0.10852862D+01  1  2  1  1  6  1        1 0.167213845241D-02 0.100000000000D+01
  </mgrwgt>
  </event>
  <event>
  7     66 0.21897909E-05 0.43890900E+02 0.75467711E-02 0.93516552E-01
        1 -1    0    0  501    0 0.00000000E+00 0.00000000E+00 0.87553282E+03 0.87553288E+03 0.32000000E+00 0.0000E+00 0.9000E+01
       -2 -1    0    0    0  503 0.00000000E+00 0.00000000E+00 -.62462317E+03 0.62462325E+03 0.32000000E+00 0.0000E+00 0.9000E+01
      -24  2    1    2    0    0 0.50175076E+03 -.18970260E+03 0.16743083E+03 0.56755843E+03 0.79678061E+02 0.0000E+00 0.0000E+00
       25  1    1    2    0    0 -.48122818E+03 0.14643147E+03 0.37336115E+03 0.63878501E+03 0.12500000E+03 0.0000E+00 0.9000E+01
        3  1    3    3  502    0 0.28369962E+03 -.12792143E+03 0.60812464E+02 0.31709269E+03 0.50000000E+00 0.0000E+00 0.9000E+01
       -4  1    3    3    0  502 0.21805113E+03 -.61781171E+02 0.10661837E+03 0.25046574E+03 0.15500000E+01 0.0000E+00 0.9000E+01
       21  1    1    2  501  503 -.20522574E+02 0.43271127E+02 -.28988233E+03 0.29381269E+03 0.75000000E+00 0.0000E+00 0.9000E+01
#aMCatNLO 2  0  0  2  2 0.13889235D+03 0.00000000D+00  -5  6  0 0.00000000D+00 0.00000000D+00 0.00000000D+00 0.00000000D+00 0.00000000D+00
  <mgrwgt>
 0.2130711699D-03    1    2    0
 0.538636002093074D+03 0.000000000000000D+00 0.000000000000000D+00 0.538636002093074D+03
 0.538636002093074D+03 0.000000000000000D+00 0.000000000000000D+00 -.538636002093074D+03
 0.542941510188834D+03 -.491418149820896D+03 0.167916657461521D+03 0.973277024268483D+02
 0.314123975175030D+03 0.277719815377889D+03 -.115150855018449D+03 -.910266802358223D+02
 0.220206518822283D+03 0.213698334443007D+03 -.527658024430729D+02 -.630102219102597D+01
 0.000000000000000D+00 -.000000000000000D+00 0.000000000000000D+00 -.000000000000000D+00
 0.540380618266100D+03 0.000000000000000D+00 0.000000000000000D+00 0.540380618266100D+03
 0.101202295756892D+04 0.000000000000000D+00 0.000000000000000D+00 -.101202295756892D+04
 0.527371237592678D+03 -.481228183604101D+03 0.146431471635853D+03 0.973277024268483D+02
 0.324350232393117D+03 0.283798441105649D+03 -.127967423841843D+03 -.910266802358223D+02
 0.226614533989426D+03 0.217952316694962D+03 -.617351745918946D+02 -.630102219102597D+01
 0.474067571859800D+03 -.205225741965108D+02 0.432711267978843D+02 -.471642339302820D+03
0.944273051932D-04 0.000000000000D+00 0.000000000000D+00 0.134305622197D-03 0.446362897597D-06  6 1 -2 25 3 -4 21 2 0.13469729D+00 0.96095830D-01 0.30472929D+06 0.30472929D+06 0.30472929D+06 0.10840497D+01  1  2  1  2  6  2       -2 0.213071169934D-03 0.100000000000D+01
  </mgrwgt>
  </event>
  <event>
  7     66 0.21897909E-05 0.56637380E+02 0.75467711E-02 0.94255464E-01
        1 -1    0    0  501    0 0.00000000E+00 0.00000000E+00 0.10753822E+04 0.10753823E+04 0.32000000E+00 0.0000E+00 0.9000E+01
       -2 -1    0    0    0  503 0.00000000E+00 0.00000000E+00 -.38105249E+03 0.38105262E+03 0.32000000E+00 0.0000E+00 0.9000E+01
      -24  2    1    2    0    0 -.37991957E+03 0.20895769E+03 0.20082270E+03 0.48447516E+03 0.79901384E+02 0.0000E+00 0.0000E+00
       25  1    1    2    0    0 0.38496431E+03 -.30056060E+03 0.63038251E+03 0.80718108E+03 0.12500000E+03 0.0000E+00 0.9000E+01
        3  1    3    3  502    0 -.17879827E+03 0.65627740E+02 0.57616867E+02 0.19898687E+03 0.50000000E+00 0.0000E+00 0.9000E+01
       -4  1    3    3    0  502 -.20112130E+03 0.14332995E+03 0.14320584E+03 0.28548829E+03 0.15500000E+01 0.0000E+00 0.9000E+01
       21  1    1    2  501  503 -.50447400E+01 0.91602911E+02 -.13687548E+03 0.16477864E+03 0.75000000E+00 0.0000E+00 0.9000E+01
#aMCatNLO 2  0  0  2  2 0.13889235D+03 0.00000000D+00  -5  6  0 0.00000000D+00 0.00000000D+00 0.00000000D+00 0.00000000D+00 0.00000000D+00
  <mgrwgt>
 0.2405494933D-03    1    2    0
 0.492203517562507D+03 0.000000000000000D+00 0.000000000000000D+00 0.492203517562507D+03
 0.492203517562507D+03 0.000000000000000D+00 0.000000000000000D+00 -.492203517562507D+03
 0.496897088738260D+03 0.382352650737555D+03 -.253137824682568D+03 0.144946227910563D+03
 0.219539138825815D+03 -.179960023153040D+03 0.856629108037643D+02 -.920526439368460D+02
 0.267970807560938D+03 -.202392627584515D+03 0.167474913878804D+03 -.528935839737168D+02
 0.000000000000000D+00 -.000000000000000D+00 0.000000000000000D+00 -.000000000000000D+00
 0.500833562508197D+03 0.000000000000000D+00 0.000000000000000D+00 0.500833562508197D+03
 0.818189003760407D+03 0.000000000000000D+00 0.000000000000000D+00 -.818189003760407D+03
 0.524565155293512D+03 0.384964309713106D+03 -.300560598564944D+03 0.144946227910563D+03
 0.211596958627654D+03 -.178857701001461D+03 0.656468311282537D+02 -.920526439368460D+02
 0.252510609251155D+03 -.201061868692772D+03 0.143310856241162D+03 -.528935839737168D+02
 0.330349843096283D+03 -.504474001887293D+01 0.916029111955282D+02 -.317355441252210D+03
0.503730835674D-04 0.000000000000D+00 0.000000000000D+00 0.158059922201D-03 0.133129329526D-06  6 1 -2 25 3 -4 21 2 0.16544329D+00 0.58623424D-01 0.26693595D+06 0.26693595D+06 0.26693595D+06 0.10883240D+01  1  2  1  2  6  2       -2 0.240549493259D-03 0.100000000000D+01
  </mgrwgt>
  </event>
  <event>
  7     66 0.21897909E-05 0.55942485E+02 0.75467711E-02 0.89128126E-01
        1 -1    0    0  503    0 0.00000000E+00 0.00000000E+00 0.70246485E+03 0.70246492E+03 0.32000000E+00 0.0000E+00 0.9000E+01
       -2 -1    0    0    0  501 0.00000000E+00 0.00000000E+00 -.11445345E+04 0.11445346E+04 0.32000000E+00 0.0000E+00 0.9000E+01
      -24  2    1    2    0    0 0.43424090E+03 -.70705738E+03 -.54659737E+03 0.99672461E+03 0.78714555E+02 0.0000E+00 0.0000E+00
       25  1    1    2    0    0 -.43319644E+03 0.68952582E+03 0.92615359E+02 0.82904017E+03 0.12500000E+03 0.0000E+00 0.9000E+01
        3  1    3    3  502    0 0.20340983E+03 -.26670116E+03 -.24266865E+03 0.41399685E+03 0.50000000E+00 0.0000E+00 0.9000E+01
       -4  1    3    3    0  502 0.23083107E+03 -.44035621E+03 -.30392872E+03 0.58272776E+03 0.15500000E+01 0.0000E+00 0.9000E+01
       21  1    1    2  503  501 -.10444613E+01 0.17531560E+02 0.11912332E+02 0.21234704E+02 0.75000000E+00 0.0000E+00 0.9000E+01
#aMCatNLO 2  0  0  1  2 0.98061197D+01 0.00000000D+00  -5  6  0 0.00000000D+00 0.00000000D+00 0.00000000D+00 0.00000000D+00 0.00000000D+00
  <mgrwgt>
 0.1802793530D-02    1    2    0
 0.884167538488872D+03 0.000000000000000D+00 0.000000000000000D+00 0.884167538488872D+03
 0.884167538488872D+03 0.000000000000000D+00 0.000000000000000D+00 -.884167538488872D+03
 0.886833610927421D+03 -.433718120712403D+03 0.698282442263090D+03 0.308446228803927D+03
 0.362497501905299D+03 0.203264503380829D+03 -.263179454919112D+03 -.144307155267528D+03
 0.519003964145023D+03 0.230453617331574D+03 -.435102987343978D+03 -.164139073536399D+03
 0.000000000000000D+00 -.000000000000000D+00 0.000000000000000D+00 0.000000000000000D+00
 0.905571029688618D+03 0.000000000000000D+00 0.000000000000000D+00 0.905571029688618D+03
 0.887821258326293D+03 0.000000000000000D+00 0.000000000000000D+00 -.887821258326293D+03
 0.879698289096566D+03 -.433196435465550D+03 0.689525816830670D+03 0.308446228803927D+03
 0.365244640896396D+03 0.203479417325722D+03 -.266786842567087D+03 -.144307155267528D+03
 0.523479358646066D+03 0.230761479402779D+03 -.440270533979904D+03 -.164139073536399D+03
 0.249699993758817D+02 -.104446126295107D+01 0.175315597163202D+02 0.177497713623253D+02
0.306092730650D-02 0.000000000000D+00 0.000000000000D+00 0.597207407543D-04 0.115669474835D-05  6 1 -2 25 3 -4 21 2 0.10807084D+00 0.17608113D+00 0.70058735D+06 0.70058735D+06 0.70058735D+06 0.10583086D+01  1  2  1  1  6  1        1 0.180279352982D-02 0.100000000000D+01
  </mgrwgt>
  </event>
</LesHouchesEvents>
