<event>
 5    0  0.2349231E+000  0.5743242E+03  0.7546771E-02  0.9960155E-01
         21   -1    0    0  503  501  0.00000000000E+00  0.00000000000E+00  0.28800810579E+03  0.28800810579E+03  0.00000000000E+00 0. -1.
         21   -1    0    0  504  502 -0.00000000000E+00 -0.00000000000E+00 -0.23637947401E+04  0.23637947401E+04  0.00000000000E+00 0. -1.
         25    1    1    2    0    0  0.26565242290E+03  0.28338135590E+02 -0.84274660492E+03  0.89287238720E+03  0.12500000000E+03 0.  0.
         21    1    1    2  503  502 -0.23910839981E+03 -0.40573633271E+02 -0.14853064185E+04  0.15049764794E+04  0.00000000000E+00 0. -1.
         21    1    1    2  504  501 -0.26544023090E+02  0.12235497681E+02  0.25226638909E+03  0.25395397935E+03  0.00000000000E+00 0. -1.
<mgrwt>
<rscale>  4 0.57432422E+03</rscale>
<asrwt>0</asrwt>
<pdfrwt beam="1">  1       21 0.44308938E-01 0.57432422E+03</pdfrwt>
<pdfrwt beam="2">  1       21 0.36366074E+00 0.57432422E+03</pdfrwt>
<totfact> 0.49210254E+01</totfact>
</mgrwt>
</event>
<event>
 5    0  0.2349231E+000  0.6479119E+03  0.7546771E-02  0.9810705E-01
         21   -1    0    0  504  501  0.00000000000E+00  0.00000000000E+00  0.21131042855E+04  0.21131042855E+04  0.00000000000E+00 0. -1.
         21   -1    0    0  503  502 -0.00000000000E+00 -0.00000000000E+00 -0.79681335838E+03  0.79681335838E+03  0.00000000000E+00 0.  1.
         25    1    1    2    0    0 -0.26650056964E+03 -0.17231264843E+03 -0.22810692421E+03  0.41033153827E+03  0.12500000000E+03 0.  0.
         21    1    1    2  503  501  0.22238172917E+03  0.16774767604E+03 -0.43670822079E+03  0.51798357734E+03  0.00000000000E+00 0.  1.
         21    1    1    2  504  502  0.44118840471E+02  0.45649723846E+01  0.19811060721E+04  0.19816025283E+04  0.00000000000E+00 0. -1.
<mgrwt>
<rscale>  4 0.64791186E+03</rscale>
<asrwt>0</asrwt>
<pdfrwt beam="1">  1       21 0.32509296E+00 0.64791186E+03</pdfrwt>
<pdfrwt beam="2">  1       21 0.12258667E+00 0.64791186E+03</pdfrwt>
<totfact> 0.78414073E+00</totfact>
</mgrwt>
</event>
<event>
 5    0  0.2349231E+000  0.5646266E+03  0.7546771E-02  0.9981640E-01
         21   -1    0    0  503  501  0.00000000000E+00  0.00000000000E+00  0.89780768659E+02  0.89780768659E+02  0.00000000000E+00 0. -1.
         21   -1    0    0  504  502 -0.00000000000E+00 -0.00000000000E+00 -0.11424218432E+04  0.11424218432E+04  0.00000000000E+00 0. -1.
         25    1    1    2    0    0 -0.11334426249E+03 -0.18116910902E+03 -0.23328810728E+03  0.34017276332E+03  0.12500000000E+03 0.  0.
         21    1    1    2  503  502 -0.60091547655E+01 -0.26043879785E+02  0.10268618340E+02  0.28632815751E+02  0.00000000000E+00 0.  1.
         21    1    1    2  504  501  0.11935341726E+03  0.20721298881E+03 -0.82962158562E+03  0.86339703281E+03  0.00000000000E+00 0. -1.
<mgrwt>
<rscale>  4 0.56462664E+03</rscale>
<asrwt>0</asrwt>
<pdfrwt beam="1">  1       21 0.13812426E-01 0.56462664E+03</pdfrwt>
<pdfrwt beam="2">  1       21 0.17575720E+00 0.56462664E+03</pdfrwt>
<totfact> 0.74684067E+03</totfact>
</mgrwt>
</event>
