<event>
 5    0  0.1856407E+000  0.2710047E+03  0.7546771E-02  0.1100706E+00
         21   -1    0    0  502  501  0.00000000000E+00  0.00000000000E+00  0.69073822355E+02  0.69073822355E+02  0.00000000000E+00 0.  1.
         21   -1    0    0  503  502 -0.00000000000E+00 -0.00000000000E+00 -0.10861216604E+04  0.10861216604E+04  0.00000000000E+00 0.  1.
         25    1    1    2    0    0  0.18072763052E+03 -0.15860673391E+03 -0.72057329206E+03  0.76985027226E+03  0.12500000000E+03 0.  0.
         21    1    1    2  503  504 -0.42955511033E+02  0.11202082353E+02 -0.53182113888E+02  0.69274813711E+02  0.00000000000E+00 0.  1.
         21    1    1    2  504  501 -0.13777211948E+03  0.14740465156E+03 -0.24329243211E+03  0.31607039679E+03  0.00000000000E+00 0.  1.
<mgrwt>
<rscale>  4 0.27100475E+03</rscale>
<asrwt>0</asrwt>
<pdfrwt beam="1">  1       21 0.10626741E-01 0.27100475E+03</pdfrwt>
<pdfrwt beam="2">  1       21 0.16709565E+00 0.27100475E+03</pdfrwt>
<totfact> 0.15513311E+04</totfact>
</mgrwt>
</event>
<event>
 5    0  0.1856407E+000  0.2433884E+03  0.7546771E-02  0.1117556E+00
         21   -1    0    0  502  501  0.00000000000E+00  0.00000000000E+00  0.21329072970E+03  0.21329072970E+03  0.00000000000E+00 0. -1.
         21   -1    0    0  503  502 -0.00000000000E+00 -0.00000000000E+00 -0.26681882116E+03  0.26681882116E+03  0.00000000000E+00 0. -1.
         25    1    1    2    0    0  0.14128251629E+03  0.15379254001E+03  0.29429798508E+02  0.24516118741E+03  0.12500000000E+03 0.  0.
         21    1    1    2  503  504 -0.16433819375E+02 -0.62343238347E+02 -0.32289110357E+02  0.72106424364E+02  0.00000000000E+00 0. -1.
         21    1    1    2  504  501 -0.12484869692E+03 -0.91449301668E+02 -0.50668779609E+02  0.16284193908E+03  0.00000000000E+00 0. -1.
<mgrwt>
<rscale>  4 0.24338836E+03</rscale>
<asrwt>0</asrwt>
<pdfrwt beam="1">  1       21 0.32813959E-01 0.24338836E+03</pdfrwt>
<pdfrwt beam="2">  1       21 0.41049049E-01 0.24338836E+03</pdfrwt>
<totfact> 0.49945154E+04</totfact>
</mgrwt>
</event>
<event>
 5    0  0.3152357E+000  0.2405656E+03  0.7546771E-02  0.1119417E+00
         21   -1    0    0  502  501  0.00000000000E+00  0.00000000000E+00  0.14031370713E+04  0.14031370713E+04  0.00000000000E+00 0. -1.
         21   -1    0    0  503  502 -0.00000000000E+00 -0.00000000000E+00 -0.46386651023E+02  0.46386651023E+02  0.00000000000E+00 0. -1.
         25    1    1    2    0    0  0.15655172717E+03  0.13795426503E+03  0.99995190577E+03  0.10291106045E+04  0.12500000000E+03 0.  0.
         21    1    1    2  503  504 -0.16135080506E+03 -0.11851602551E+03  0.33859473828E+03  0.39335292981E+03  0.00000000000E+00 0. -1.
         21    1    1    2  504  501  0.47990778905E+01 -0.19438239519E+02  0.18203776217E+02  0.27060187965E+02  0.00000000000E+00 0. -1.
<mgrwt>
<rscale>  4 0.24056556E+03</rscale>
<asrwt>0</asrwt>
<pdfrwt beam="1">  1       21 0.21586721E+00 0.24056556E+03</pdfrwt>
<pdfrwt beam="2">  1       21 0.71364089E-02 0.24056556E+03</pdfrwt>
<totfact> 0.15048691E+04</totfact>
</mgrwt>
</event>
<event>
 5    0  0.1856407E+000  0.3123395E+03  0.7546771E-02  0.1079230E+00
         21   -1    0    0  502  501  0.00000000000E+00  0.00000000000E+00  0.29162803117E+03  0.29162803117E+03  0.00000000000E+00 0. -1.
         21   -1    0    0  503  502 -0.00000000000E+00 -0.00000000000E+00 -0.19430240128E+04  0.19430240128E+04  0.00000000000E+00 0.  1.
         25    1    1    2    0    0 -0.20842045976E+03 -0.19845093642E+03  0.18745491792E+03  0.36549447118E+03  0.12500000000E+03 0.  0.
         21    1    1    2  503  504  0.28396625322E+02  0.26095655651E+01 -0.66212555086E+03  0.66273933281E+03  0.00000000000E+00 0.  1.
         21    1    1    2  504  501  0.18002383444E+03  0.19584137086E+03 -0.11767253487E+04  0.12064182400E+04  0.00000000000E+00 0.  1.
<mgrwt>
<rscale>  4 0.31233949E+03</rscale>
<asrwt>0</asrwt>
<pdfrwt beam="1">  1       21 0.44865850E-01 0.31233949E+03</pdfrwt>
<pdfrwt beam="2">  1       21 0.29892678E+00 0.31233949E+03</pdfrwt>
<totfact> 0.14261100E+02</totfact>
</mgrwt>
</event>
<event>
 5    0  0.3577270E+000  0.2392806E+03  0.7546771E-02  0.1120273E+00
         21   -1    0    0  502  501  0.00000000000E+00  0.00000000000E+00  0.17952251170E+03  0.17952251170E+03  0.00000000000E+00 0. -1.
         21   -1    0    0  503  502 -0.00000000000E+00 -0.00000000000E+00 -0.71882874952E+03  0.71882874952E+03  0.00000000000E+00 0. -1.
         25    1    1    2    0    0  0.21036195431E+03  0.14064829621E+02  0.53338226856E+02  0.25083846934E+03  0.12500000000E+03 0.  0.
         21    1    1    2  503  504 -0.27575889308E+02 -0.14097838584E+02 -0.30590176204E+03  0.30746555375E+03  0.00000000000E+00 0. -1.
         21    1    1    2  504  501 -0.18278606501E+03  0.33008962908E-01 -0.28674270263E+03  0.34004723813E+03  0.00000000000E+00 0. -1.
<mgrwt>
<rscale>  4 0.23928062E+03</rscale>
<asrwt>0</asrwt>
<pdfrwt beam="1">  1       21 0.27618848E-01 0.23928062E+03</pdfrwt>
<pdfrwt beam="2">  1       21 0.11058904E+00 0.23928062E+03</pdfrwt>
<totfact> 0.78107790E+03</totfact>
</mgrwt>
</event>
<event>
 5    0  0.1856407E+000  0.4314061E+03  0.7546771E-02  0.1033417E+00
         21   -1    0    0  502  501  0.00000000000E+00  0.00000000000E+00  0.13140124599E+04  0.13140124599E+04  0.00000000000E+00 0. -1.
         21   -1    0    0  503  502 -0.00000000000E+00 -0.00000000000E+00 -0.29479283383E+03  0.29479283383E+03  0.00000000000E+00 0. -1.
         25    1    1    2    0    0 -0.42103968285E+03 -0.34967466260E+02  0.10410297655E+04  0.11304269596E+04  0.12500000000E+03 0.  0.
         21    1    1    2  503  504  0.37733035873E+03  0.28914073837E+02  0.62171680010E+02  0.38350950585E+03  0.00000000000E+00 0. -1.
         21    1    1    2  504  501  0.43709324123E+02  0.60533924233E+01 -0.83981819488E+02  0.94868828282E+02  0.00000000000E+00 0. -1.
<mgrwt>
<rscale>  4 0.43140606E+03</rscale>
<asrwt>0</asrwt>
<pdfrwt beam="1">  1       21 0.20215576E+00 0.43140606E+03</pdfrwt>
<pdfrwt beam="2">  1       21 0.45352744E-01 0.43140606E+03</pdfrwt>
<totfact> 0.50377420E+02</totfact>
</mgrwt>
</event>
<event>
 5    0  0.1856407E+000  0.2479016E+03  0.7546771E-02  0.1114638E+00
         21   -1    0    0  502  501  0.00000000000E+00  0.00000000000E+00  0.10042572334E+03  0.10042572334E+03  0.00000000000E+00 0. -1.
         21   -1    0    0  503  502 -0.00000000000E+00 -0.00000000000E+00 -0.60778163199E+03  0.60778163199E+03  0.00000000000E+00 0. -1.
         25    1    1    2    0    0 -0.18627033480E+03 -0.10551577228E+03 -0.15935606752E+03  0.29470251454E+03  0.12500000000E+03 0.  0.
         21    1    1    2  503  504  0.57987058905E+02  0.15533693502E+01 -0.98595295200E+02  0.11439381186E+03  0.00000000000E+00 0. -1.
         21    1    1    2  504  501  0.12828327589E+03  0.10396240293E+03 -0.24940454593E+03  0.29911102893E+03  0.00000000000E+00 0. -1.
<mgrwt>
<rscale>  4 0.24790163E+03</rscale>
<asrwt>0</asrwt>
<pdfrwt beam="1">  1       21 0.15450111E-01 0.24790163E+03</pdfrwt>
<pdfrwt beam="2">  1       21 0.93504866E-01 0.24790163E+03</pdfrwt>
<totfact> 0.34752353E+04</totfact>
</mgrwt>
</event>
<event>
 5    0  0.1856407E+000  0.2813641E+03  0.7546771E-02  0.1094946E+00
         21   -1    0    0  502  501  0.00000000000E+00  0.00000000000E+00  0.26899695913E+03  0.26899695913E+03  0.00000000000E+00 0. -1.
         21   -1    0    0  503  502 -0.00000000000E+00 -0.00000000000E+00 -0.49410788813E+03  0.49410788813E+03  0.00000000000E+00 0.  1.
         25    1    1    2    0    0  0.24389113736E+03  0.63701502641E+02  0.13741927735E+03  0.31312908857E+03  0.12500000000E+03 0.  0.
         21    1    1    2  503  504 -0.65935514000E+02 -0.55043220470E+02 -0.90289064501E+02  0.12461686601E+03  0.00000000000E+00 0.  1.
         21    1    1    2  504  501 -0.17795562336E+03 -0.86582821713E+01 -0.27224114185E+03  0.32535889269E+03  0.00000000000E+00 0.  1.
<mgrwt>
<rscale>  4 0.28136412E+03</rscale>
<asrwt>0</asrwt>
<pdfrwt beam="1">  1       21 0.41384147E-01 0.28136412E+03</pdfrwt>
<pdfrwt beam="2">  1       21 0.76016598E-01 0.28136412E+03</pdfrwt>
<totfact> 0.82194425E+03</totfact>
</mgrwt>
</event>
<event>
 5    0  0.1856407E+000  0.3217419E+03  0.7546771E-02  0.1074850E+00
         21   -1    0    0  502  501  0.00000000000E+00  0.00000000000E+00  0.21022030411E+03  0.21022030411E+03  0.00000000000E+00 0.  1.
         21   -1    0    0  503  502 -0.00000000000E+00 -0.00000000000E+00 -0.63165504453E+03  0.63165504453E+03  0.00000000000E+00 0. -1.
         25    1    1    2    0    0 -0.10577270939E+03  0.28197942298E+03 -0.96345489814E+02  0.34001134458E+03  0.12500000000E+03 0.  0.
         21    1    1    2  503  504  0.21587728926E+02 -0.29594497693E+03 -0.26026492401E+03  0.39469898667E+03  0.00000000000E+00 0. -1.
         21    1    1    2  504  501  0.84184980460E+02  0.13965553949E+02 -0.64824326595E+02  0.10716501738E+03  0.00000000000E+00 0. -1.
<mgrwt>
<rscale>  4 0.32174193E+03</rscale>
<asrwt>0</asrwt>
<pdfrwt beam="1">  1       21 0.32341585E-01 0.32174193E+03</pdfrwt>
<pdfrwt beam="2">  1       21 0.97177701E-01 0.32174193E+03</pdfrwt>
<totfact> 0.74981555E+03</totfact>
</mgrwt>
</event>
<event>
 5    0  0.1856407E+000  0.3080231E+03  0.7546771E-02  0.1081297E+00
         21   -1    0    0  502  501  0.00000000000E+00  0.00000000000E+00  0.81467809907E+03  0.81467809907E+03  0.00000000000E+00 0. -1.
         21   -1    0    0  503  502 -0.00000000000E+00 -0.00000000000E+00 -0.24572156244E+03  0.24572156244E+03  0.00000000000E+00 0. -1.
         25    1    1    2    0    0  0.95708991195E+01 -0.28135670829E+03  0.67956251563E+03  0.74611219804E+03  0.12500000000E+03 0.  0.
         21    1    1    2  503  504 -0.41450541410E+02  0.84406710606E+02 -0.45135360794E+02  0.10430647618E+03  0.00000000000E+00 0.  1.
         21    1    1    2  504  501  0.31879642291E+02  0.19694999768E+03 -0.65470618208E+02  0.20998098730E+03  0.00000000000E+00 0. -1.
<mgrwt>
<rscale>  4 0.30802305E+03</rscale>
<asrwt>0</asrwt>
<pdfrwt beam="1">  1       21 0.12533509E+00 0.30802305E+03</pdfrwt>
<pdfrwt beam="2">  1       21 0.37803318E-01 0.30802305E+03</pdfrwt>
<totfact> 0.29495666E+03</totfact>
</mgrwt>
</event>
<event>
 5    0  0.1856407E+000  0.3096487E+03  0.7546771E-02  0.1080514E+00
         21   -1    0    0  502  501  0.00000000000E+00  0.00000000000E+00  0.23829990129E+04  0.23829990129E+04  0.00000000000E+00 0. -1.
         21   -1    0    0  503  502 -0.00000000000E+00 -0.00000000000E+00 -0.13904692772E+03  0.13904692772E+03  0.00000000000E+00 0. -1.
         25    1    1    2    0    0 -0.26906487769E+03 -0.92499618647E+02  0.21524601670E+04  0.21747785768E+04  0.12500000000E+03 0.  0.
         21    1    1    2  503  504  0.22176739973E+02 -0.29590193166E+02 -0.28649867171E+02  0.46778223741E+02  0.00000000000E+00 0. -1.
         21    1    1    2  504  501  0.24688813772E+03  0.12208981181E+03  0.12014178539E+03  0.30048914006E+03  0.00000000000E+00 0. -1.
<mgrwt>
<rscale>  4 0.30964866E+03</rscale>
<asrwt>0</asrwt>
<pdfrwt beam="1">  1       21 0.36661520E+00 0.30964866E+03</pdfrwt>
<pdfrwt beam="2">  1       21 0.21391837E-01 0.30964866E+03</pdfrwt>
<totfact> 0.24407046E+02</totfact>
</mgrwt>
</event>
<event>
 5    0  0.1856407E+000  0.3365609E+03  0.7546771E-02  0.1068270E+00
         21   -1    0    0  502  501  0.00000000000E+00  0.00000000000E+00  0.46742579806E+03  0.46742579806E+03  0.00000000000E+00 0. -1.
         21   -1    0    0  503  502 -0.00000000000E+00 -0.00000000000E+00 -0.27379327851E+03  0.27379327851E+03  0.00000000000E+00 0. -1.
         25    1    1    2    0    0  0.26748158024E+03  0.16156056513E+03  0.24665434951E+03  0.41726679727E+03  0.12500000000E+03 0.  0.
         21    1    1    2  503  504 -0.21786522203E+03 -0.11120002333E+03 -0.62920866996E+02  0.25256629953E+03  0.00000000000E+00 0. -1.
         21    1    1    2  504  501 -0.49616358214E+02 -0.50360541806E+02  0.98990370328E+01  0.71385979769E+02  0.00000000000E+00 0. -1.
<mgrwt>
<rscale>  4 0.33656086E+03</rscale>
<asrwt>0</asrwt>
<pdfrwt beam="1">  1       21 0.71911661E-01 0.33656086E+03</pdfrwt>
<pdfrwt beam="2">  1       21 0.42122043E-01 0.33656086E+03</pdfrwt>
<totfact> 0.87609129E+03</totfact>
</mgrwt>
</event>
<event>
 5    0  0.6102603E+000  0.2967468E+03  0.7546771E-02  0.1086878E+00
         21   -1    0    0  502  501  0.00000000000E+00  0.00000000000E+00  0.76219004689E+02  0.76219004689E+02  0.00000000000E+00 0. -1.
         21   -1    0    0  503  502 -0.00000000000E+00 -0.00000000000E+00 -0.14688907935E+04  0.14688907935E+04  0.00000000000E+00 0. -1.
         25    1    1    2    0    0 -0.26397413741E+03 -0.83677232670E+02 -0.35967593460E+03  0.47082481075E+03  0.12500000000E+03 0.  0.
         21    1    1    2  503  504  0.24191602450E+03  0.77744948166E+02 -0.78191094673E+03  0.82216322497E+03  0.00000000000E+00 0. -1.
         21    1    1    2  504  501  0.22058112917E+02  0.59322845041E+01 -0.25108490747E+03  0.25212176245E+03  0.00000000000E+00 0. -1.
<mgrwt>
<rscale>  4 0.29674678E+03</rscale>
<asrwt>0</asrwt>
<pdfrwt beam="1">  1       21 0.11726002E-01 0.29674678E+03</pdfrwt>
<pdfrwt beam="2">  1       21 0.22598318E+00 0.29674678E+03</pdfrwt>
<totfact> 0.52097440E+03</totfact>
</mgrwt>
</event>
