<event>
 5    0  0.2094471E+000  0.2380710E+03  0.7546771E-02  0.1121085E+00
         21   -1    0    0  502  501  0.00000000000E+00  0.00000000000E+00  0.64485285852E+03  0.64485285852E+03  0.00000000000E+00 0. -1.
         21   -1    0    0  503  502 -0.00000000000E+00 -0.00000000000E+00 -0.98161005966E+02  0.98161005966E+02  0.00000000000E+00 0. -1.
         25    1    1    2    0    0  0.11215370643E+03  0.16874339023E+03  0.46104069704E+03  0.51887986080E+03  0.12500000000E+03 0.  0.
         21    1    1    2  503  504 -0.95769912977E+02 -0.12486730916E+03  0.81222501537E+02  0.17708985257E+03  0.00000000000E+00 0. -1.
         21    1    1    2  504  501 -0.16383793452E+02 -0.43876081072E+02  0.44286539761E+01  0.47044151115E+02  0.00000000000E+00 0. -1.
<mgrwt>
<rscale>  4 0.23807097E+03</rscale>
<asrwt>0</asrwt>
<pdfrwt beam="1">  1       21 0.99208130E-01 0.23807097E+03</pdfrwt>
<pdfrwt beam="2">  1       21 0.15101694E-01 0.23807097E+03</pdfrwt>
<totfact> 0.31646196E+04</totfact>
</mgrwt>
</event>
<event>
 5    0  0.1856407E+000  0.2347031E+03  0.7546771E-02  0.1123373E+00
         21   -1    0    0  502  501  0.00000000000E+00  0.00000000000E+00  0.64055649620E+03  0.64055649620E+03  0.00000000000E+00 0. -1.
         21   -1    0    0  503  502 -0.00000000000E+00 -0.00000000000E+00 -0.16939695280E+03  0.16939695280E+03  0.00000000000E+00 0. -1.
         25    1    1    2    0    0 -0.16542834243E+03 -0.11284622740E+03  0.38694668887E+03  0.45326983966E+03  0.12500000000E+03 0.  0.
         21    1    1    2  503  504 -0.56124484117E+02  0.11171657585E+03  0.28456619861E+02  0.12821985123E+03  0.00000000000E+00 0. -1.
         21    1    1    2  504  501  0.22155282655E+03  0.11296515477E+01  0.55756234661E+02  0.22846375810E+03  0.00000000000E+00 0. -1.
<mgrwt>
<rscale>  4 0.23470314E+03</rscale>
<asrwt>0</asrwt>
<pdfrwt beam="1">  1       21 0.98547152E-01 0.23470314E+03</pdfrwt>
<pdfrwt beam="2">  1       21 0.26061070E-01 0.23470314E+03</pdfrwt>
<totfact> 0.11571062E+04</totfact>
</mgrwt>
</event>
<event>
 5    0  0.1856407E+000  0.4177688E+03  0.7546771E-02  0.1037795E+00
         21   -1    0    0  502  501  0.00000000000E+00  0.00000000000E+00  0.38567024362E+03  0.38567024362E+03  0.00000000000E+00 0. -1.
         21   -1    0    0  503  502 -0.00000000000E+00 -0.00000000000E+00 -0.71736608837E+03  0.71736608837E+03  0.00000000000E+00 0. -1.
         25    1    1    2    0    0 -0.23597088942E+03  0.40173708558E+03  0.19117905231E+02  0.48276851688E+03  0.12500000000E+03 0.  0.
         21    1    1    2  503  504  0.19694197471E+02 -0.92350779555E+02  0.13817699044E+02  0.95432995894E+02  0.00000000000E+00 0.  1.
         21    1    1    2  504  501  0.21627669195E+03 -0.30938630603E+03 -0.36463144903E+03  0.52483481921E+03  0.00000000000E+00 0. -1.
<mgrwt>
<rscale>  4 0.41776877E+03</rscale>
<asrwt>0</asrwt>
<pdfrwt beam="1">  1       21 0.59333884E-01 0.41776877E+03</pdfrwt>
<pdfrwt beam="2">  1       21 0.11036401E+00 0.41776877E+03</pdfrwt>
<totfact> 0.14919892E+03</totfact>
</mgrwt>
</event>
<event>
 5    0  0.1856407E+000  0.2823343E+03  0.7546771E-02  0.1094421E+00
         21   -1    0    0  502  501  0.00000000000E+00  0.00000000000E+00  0.26718313565E+04  0.26718313565E+04  0.00000000000E+00 0.  1.
         21   -1    0    0  503  502 -0.00000000000E+00 -0.00000000000E+00 -0.50713950625E+03  0.50713950625E+03  0.00000000000E+00 0.  1.
         25    1    1    2    0    0 -0.73397966884E+02  0.24544114432E+03  0.26224298781E+04  0.26378764343E+04  0.12500000000E+03 0.  0.
         21    1    1    2  503  504  0.36085452540E+02 -0.16798360554E+03 -0.17366256915E+03  0.24429355198E+03  0.00000000000E+00 0.  1.
         21    1    1    2  504  501  0.37312514343E+02 -0.77457538780E+02 -0.28407545872E+03  0.29680087649E+03  0.00000000000E+00 0.  1.
<mgrwt>
<rscale>  4 0.28233431E+03</rscale>
<asrwt>0</asrwt>
<pdfrwt beam="1">  1       21 0.41105097E+00 0.28233431E+03</pdfrwt>
<pdfrwt beam="2">  1       21 0.78021464E-01 0.28233431E+03</pdfrwt>
<totfact> 0.92465921E+00</totfact>
</mgrwt>
</event>
<event>
 5    0  0.1856407E+000  0.2387587E+03  0.7546771E-02  0.1120623E+00
         21   -1    0    0  502  501  0.00000000000E+00  0.00000000000E+00  0.78566657005E+02  0.78566657005E+02  0.00000000000E+00 0.  1.
         21   -1    0    0  503  502 -0.00000000000E+00 -0.00000000000E+00 -0.89222795146E+03  0.89222795146E+03  0.00000000000E+00 0.  1.
         25    1    1    2    0    0 -0.16248273492E+03 -0.15064267505E+03 -0.37086431902E+03  0.44973236243E+03  0.12500000000E+03 0.  0.
         21    1    1    2  503  504  0.90334727399E+02  0.17449208519E+03 -0.34720683587E+03  0.39894916674E+03  0.00000000000E+00 0.  1.
         21    1    1    2  504  501  0.72148007519E+02 -0.23849410137E+02 -0.95590139559E+02  0.12211307929E+03  0.00000000000E+00 0. -1.
<mgrwt>
<rscale>  4 0.23875865E+03</rscale>
<asrwt>0</asrwt>
<pdfrwt beam="1">  1       21 0.12087177E-01 0.23875865E+03</pdfrwt>
<pdfrwt beam="2">  1       21 0.13726585E+00 0.23875865E+03</pdfrwt>
<totfact> 0.21208583E+04</totfact>
</mgrwt>
</event>
<event>
 5    0  0.2221326E+000  0.2382222E+03  0.7546771E-02  0.1120983E+00
         21   -1    0    0  502  501  0.00000000000E+00  0.00000000000E+00  0.28687644189E+03  0.28687644189E+03  0.00000000000E+00 0.  1.
         21   -1    0    0  503  502 -0.00000000000E+00 -0.00000000000E+00 -0.21378782737E+03  0.21378782737E+03  0.00000000000E+00 0.  1.
         25    1    1    2    0    0  0.27340702571E+02 -0.20094106265E+03  0.14514356142E+03  0.27895605048E+03  0.12500000000E+03 0.  0.
         21    1    1    2  503  504  0.87224106014E+01  0.38257179331E+02  0.21535851559E+01  0.39297966183E+02  0.00000000000E+00 0.  1.
         21    1    1    2  504  501 -0.36063113172E+02  0.16268388332E+03 -0.74208532060E+02  0.18241025260E+03  0.00000000000E+00 0.  1.
<mgrwt>
<rscale>  4 0.23822222E+03</rscale>
<asrwt>0</asrwt>
<pdfrwt beam="1">  1       21 0.44134837E-01 0.23822222E+03</pdfrwt>
<pdfrwt beam="2">  1       21 0.32890435E-01 0.23822222E+03</pdfrwt>
<totfact> 0.42945892E+04</totfact>
</mgrwt>
</event>
<event>
 5    0  0.1856407E+000  0.3812087E+03  0.7546771E-02  0.1050488E+00
         21   -1    0    0  502  501  0.00000000000E+00  0.00000000000E+00  0.31568914264E+03  0.31568914264E+03  0.00000000000E+00 0.  1.
         21   -1    0    0  503  502 -0.00000000000E+00 -0.00000000000E+00 -0.14915629902E+04  0.14915629902E+04  0.00000000000E+00 0.  1.
         25    1    1    2    0    0 -0.24015472493E+03  0.30674769928E+03  0.84403709402E+02  0.41775283252E+03  0.12500000000E+03 0.  0.
         21    1    1    2  503  504 -0.85460033109E+01 -0.13427452970E+03 -0.93718654717E+03  0.94679528289E+03  0.00000000000E+00 0.  1.
         21    1    1    2  504  501  0.24870072824E+03 -0.17247316958E+03 -0.32309100980E+03  0.44270401745E+03  0.00000000000E+00 0.  1.
<mgrwt>
<rscale>  4 0.38120874E+03</rscale>
<asrwt>0</asrwt>
<pdfrwt beam="1">  1       21 0.48567561E-01 0.38120874E+03</pdfrwt>
<pdfrwt beam="2">  1       21 0.22947123E+00 0.38120874E+03</pdfrwt>
<totfact> 0.29987185E+02</totfact>
</mgrwt>
</event>
<event>
 5    0  0.1856407E+000  0.2904683E+03  0.7546771E-02  0.1090105E+00
         21   -1    0    0  502  501  0.00000000000E+00  0.00000000000E+00  0.14139315869E+04  0.14139315869E+04  0.00000000000E+00 0. -1.
         21   -1    0    0  503  502 -0.00000000000E+00 -0.00000000000E+00 -0.17744308772E+04  0.17744308772E+04  0.00000000000E+00 0. -1.
         25    1    1    2    0    0 -0.21629222826E+03 -0.14881186570E+03  0.13866831775E+04  0.14168424521E+04  0.12500000000E+03 0.  0.
         21    1    1    2  503  504  0.43133195087E+02  0.44970734955E+01 -0.10017860842E+03  0.10916249252E+03  0.00000000000E+00 0. -1.
         21    1    1    2  504  501  0.17315903318E+03  0.14431479220E+03 -0.16470038593E+04  0.16623575195E+04  0.00000000000E+00 0. -1.
<mgrwt>
<rscale>  4 0.29046834E+03</rscale>
<asrwt>0</asrwt>
<pdfrwt beam="1">  1       21 0.21752794E+00 0.29046834E+03</pdfrwt>
<pdfrwt beam="2">  1       21 0.27298937E+00 0.29046834E+03</pdfrwt>
<totfact> 0.42974077E+00</totfact>
</mgrwt>
</event>
<event>
 5    0  0.1856407E+000  0.2411884E+03  0.7546771E-02  0.1119004E+00
         21   -1    0    0  502  501  0.00000000000E+00  0.00000000000E+00  0.16245724707E+04  0.16245724707E+04  0.00000000000E+00 0.  1.
         21   -1    0    0  503  502 -0.00000000000E+00 -0.00000000000E+00 -0.31942533727E+02  0.31942533727E+02  0.00000000000E+00 0.  1.
         25    1    1    2    0    0 -0.28821523310E+02 -0.20424535638E+03  0.75420020546E+03  0.79182687231E+03  0.12500000000E+03 0.  0.
         21    1    1    2  503  504  0.35836896885E+02  0.91607527882E+02  0.41149007608E+03  0.42308427654E+03  0.00000000000E+00 0.  1.
         21    1    1    2  504  501 -0.70153735748E+01  0.11263782849E+03  0.42693965543E+03  0.44160385557E+03  0.00000000000E+00 0.  1.
<mgrwt>
<rscale>  4 0.24118840E+03</rscale>
<asrwt>0</asrwt>
<pdfrwt beam="1">  1       21 0.24993416E+00 0.24118840E+03</pdfrwt>
<pdfrwt beam="2">  1       21 0.49142372E-02 0.24118840E+03</pdfrwt>
<totfact> 0.17723044E+04</totfact>
</mgrwt>
</event>
<event>
 5    0  0.2973884E+000  0.1772726E+03  0.7546771E-02  0.1170469E+00
         21   -1    0    0  502  501  0.00000000000E+00  0.00000000000E+00  0.78364704818E+02  0.78364704818E+02  0.00000000000E+00 0. -1.
         21   -1    0    0  503  502 -0.00000000000E+00 -0.00000000000E+00 -0.11731135227E+04  0.11731135227E+04  0.00000000000E+00 0. -1.
         25    1    1    2    0    0  0.17905675157E+03  0.94400685544E+02 -0.17880568360E+03  0.29760591762E+03  0.12500000000E+03 0.  0.
         21    1    1    2  503  504 -0.73710017629E+02 -0.36899800285E+02 -0.10207451631E+03  0.13120201538E+03  0.00000000000E+00 0. -1.
         21    1    1    2  504  501 -0.10534673394E+03 -0.57500885258E+02 -0.81386861796E+03  0.82267029450E+03  0.00000000000E+00 0. -1.
<mgrwt>
<rscale>  4 0.17727256E+03</rscale>
<asrwt>0</asrwt>
<pdfrwt beam="1">  1       21 0.12056108E-01 0.17727256E+03</pdfrwt>
<pdfrwt beam="2">  1       21 0.18047901E+00 0.17727256E+03</pdfrwt>
<totfact> 0.10642842E+04</totfact>
</mgrwt>
</event>
<event>
 5    0  0.1856407E+000  0.3189857E+03  0.7546771E-02  0.1076117E+00
         21   -1    0    0  502  501  0.00000000000E+00  0.00000000000E+00  0.10469232966E+04  0.10469232966E+04  0.00000000000E+00 0.  1.
         21   -1    0    0  503  502 -0.00000000000E+00 -0.00000000000E+00 -0.15605398817E+03  0.15605398817E+03  0.00000000000E+00 0. -1.
         25    1    1    2    0    0  0.28500797761E+03  0.69980832429E+02  0.84363556198E+03  0.90192728401E+03  0.12500000000E+03 0.  0.
         21    1    1    2  503  504 -0.38370122798E+02 -0.24825999180E+02  0.15773884828E+02  0.48346788946E+02  0.00000000000E+00 0.  1.
         21    1    1    2  504  501 -0.24663785481E+03 -0.45154833249E+02  0.31459861664E+02  0.25270321186E+03  0.00000000000E+00 0. -1.
<mgrwt>
<rscale>  4 0.31898568E+03</rscale>
<asrwt>0</asrwt>
<pdfrwt beam="1">  1       21 0.16106512E+00 0.31898568E+03</pdfrwt>
<pdfrwt beam="2">  1       21 0.24008307E-01 0.31898568E+03</pdfrwt>
<totfact> 0.37033600E+03</totfact>
</mgrwt>
</event>
