<event>
 5    0  0.2401476E+000  0.2664991E+03  0.7546771E-02  0.1103300E+00
         21   -1    0    0  502  501  0.00000000000E+00  0.00000000000E+00  0.38325069228E+03  0.38325069228E+03  0.00000000000E+00 0.  1.
         21   -1    0    0  503  502 -0.00000000000E+00 -0.00000000000E+00 -0.19795528899E+03  0.19795528899E+03  0.00000000000E+00 0.  1.
         25    1    1    2    0    0  0.76212121096E+02 -0.22359019173E+03  0.14678040870E+03  0.30491039604E+03  0.12500000000E+03 0.  0.
         21    1    1    2  503  504 -0.41167949253E+02  0.23221055858E+03  0.43668817277E+02  0.23984059115E+03  0.00000000000E+00 0.  1.
         21    1    1    2  504  501 -0.35044171843E+02 -0.86203668513E+01 -0.51538226885E+01  0.36454994077E+02  0.00000000000E+00 0.  1.
<mgrwt>
<rscale>  4 0.26649906E+03</rscale>
<asrwt>0</asrwt>
<pdfrwt beam="1">  1       21 0.58961645E-01 0.26649906E+03</pdfrwt>
<pdfrwt beam="2">  1       21 0.30454660E-01 0.26649906E+03</pdfrwt>
<totfact> 0.26834201E+04</totfact>
</mgrwt>
</event>
<event>
 5    0  0.3465908E+000  0.2978150E+03  0.7546771E-02  0.1086338E+00
         21   -1    0    0  502  501  0.00000000000E+00  0.00000000000E+00  0.30710668304E+03  0.30710668304E+03  0.00000000000E+00 0. -1.
         21   -1    0    0  503  502 -0.00000000000E+00 -0.00000000000E+00 -0.27958348833E+03  0.27958348833E+03  0.00000000000E+00 0. -1.
         25    1    1    2    0    0 -0.25465616702E+02 -0.26911012226E+03 -0.51384518184E+02  0.30221536070E+03  0.12500000000E+03 0.  0.
         21    1    1    2  503  504  0.14405912617E+02  0.24853873526E+03  0.65037848145E+02  0.25731100819E+03  0.00000000000E+00 0. -1.
         21    1    1    2  504  501  0.11059704085E+02  0.20571386997E+02  0.13869864747E+02  0.27163802486E+02  0.00000000000E+00 0. -1.
<mgrwt>
<rscale>  4 0.29781497E+03</rscale>
<asrwt>0</asrwt>
<pdfrwt beam="1">  1       21 0.47247182E-01 0.29781497E+03</pdfrwt>
<pdfrwt beam="2">  1       21 0.43012845E-01 0.29781497E+03</pdfrwt>
<totfact> 0.21160245E+04</totfact>
</mgrwt>
</event>
<event>
 5    0  0.1856407E+000  0.2360980E+03  0.7546771E-02  0.1122420E+00
         21   -1    0    0  502  501  0.00000000000E+00  0.00000000000E+00  0.35071610901E+03  0.35071610901E+03  0.00000000000E+00 0. -1.
         21   -1    0    0  503  502 -0.00000000000E+00 -0.00000000000E+00 -0.28677347430E+03  0.28677347430E+03  0.00000000000E+00 0.  1.
         25    1    1    2    0    0 -0.19540036204E+03  0.43999825439E+02  0.25726406279E+03  0.34918058956E+03  0.12500000000E+03 0.  0.
         21    1    1    2  503  504  0.54002193432E+02  0.16448980867E+02 -0.29782709990E+02  0.63826449701E+02  0.00000000000E+00 0.  1.
         21    1    1    2  504  501  0.14139816861E+03 -0.60448806306E+02 -0.16353871808E+03  0.22448254405E+03  0.00000000000E+00 0.  1.
<mgrwt>
<rscale>  4 0.23609804E+03</rscale>
<asrwt>0</asrwt>
<pdfrwt beam="1">  1       21 0.53956325E-01 0.23609804E+03</pdfrwt>
<pdfrwt beam="2">  1       21 0.44118996E-01 0.23609804E+03</pdfrwt>
<totfact> 0.15621703E+04</totfact>
</mgrwt>
</event>
<event>
 5    0  0.1856407E+000  0.4036271E+03  0.7546771E-02  0.1042531E+00
         21   -1    0    0  502  501  0.00000000000E+00  0.00000000000E+00  0.88922811180E+03  0.88922811180E+03  0.00000000000E+00 0.  1.
         21   -1    0    0  503  502 -0.00000000000E+00 -0.00000000000E+00 -0.25475684820E+03  0.25475684820E+03  0.00000000000E+00 0.  1.
         25    1    1    2    0    0  0.25607389510E+03  0.28967254640E+03  0.20994200866E+02  0.40687809029E+03  0.12500000000E+03 0.  0.
         21    1    1    2  503  504  0.14540895273E+02 -0.27920442751E+02  0.59298179252E+02  0.67136151374E+02  0.00000000000E+00 0.  1.
         21    1    1    2  504  501 -0.27061479038E+03 -0.26175210364E+03  0.55417888348E+03  0.66997071833E+03  0.00000000000E+00 0.  1.
<mgrwt>
<rscale>  4 0.40362709E+03</rscale>
<asrwt>0</asrwt>
<pdfrwt beam="1">  1       21 0.13680432E+00 0.40362709E+03</pdfrwt>
<pdfrwt beam="2">  1       21 0.39193362E-01 0.40362709E+03</pdfrwt>
<totfact> 0.20860730E+03</totfact>
</mgrwt>
</event>
<event>
 5    0  0.1856407E+000  0.2830315E+03  0.7546771E-02  0.1094045E+00
         21   -1    0    0  502  501  0.00000000000E+00  0.00000000000E+00  0.57610038234E+03  0.57610038234E+03  0.00000000000E+00 0.  1.
         21   -1    0    0  503  502 -0.00000000000E+00 -0.00000000000E+00 -0.27876471727E+03  0.27876471727E+03  0.00000000000E+00 0. -1.
         25    1    1    2    0    0  0.12634862463E+03  0.25093520713E+03  0.42455375086E+03  0.52421688307E+03  0.12500000000E+03 0.  0.
         21    1    1    2  503  504 -0.13064756085E+03 -0.21309312762E+03 -0.14461780255E+03  0.28877634081E+03  0.00000000000E+00 0. -1.
         21    1    1    2  504  501  0.42989362208E+01 -0.37842079511E+02  0.17399716757E+02  0.41871875735E+02  0.00000000000E+00 0. -1.
<mgrwt>
<rscale>  4 0.28303146E+03</rscale>
<asrwt>0</asrwt>
<pdfrwt beam="1">  1       21 0.88630827E-01 0.28303146E+03</pdfrwt>
<pdfrwt beam="2">  1       21 0.42886880E-01 0.28303146E+03</pdfrwt>
<totfact> 0.53651563E+03</totfact>
</mgrwt>
</event>
<event>
 5    0  0.2621281E+000  0.2575267E+03  0.7546771E-02  0.1108638E+00
         21   -1    0    0  502  501  0.00000000000E+00  0.00000000000E+00  0.12793449699E+04  0.12793449699E+04  0.00000000000E+00 0.  1.
         21   -1    0    0  503  502 -0.00000000000E+00 -0.00000000000E+00 -0.67662127023E+02  0.67662127023E+02  0.00000000000E+00 0.  1.
         25    1    1    2    0    0 -0.13392445393E+03 -0.18313518998E+03  0.93665031248E+03  0.97180917110E+03  0.12500000000E+03 0.  0.
         21    1    1    2  503  504  0.15565231373E+03  0.15892946945E+03  0.23450891201E+03  0.32323466529E+03  0.00000000000E+00 0.  1.
         21    1    1    2  504  501 -0.21727859806E+02  0.24205720522E+02  0.40523618368E+02  0.51963260515E+02  0.00000000000E+00 0.  1.
<mgrwt>
<rscale>  4 0.25752669E+03</rscale>
<asrwt>0</asrwt>
<pdfrwt beam="1">  1       21 0.19682228E+00 0.25752669E+03</pdfrwt>
<pdfrwt beam="2">  1       21 0.10409559E-01 0.25752669E+03</pdfrwt>
<totfact> 0.10141677E+04</totfact>
</mgrwt>
</event>
<event>
 5    0  0.1856407E+000  0.2635077E+03  0.7546771E-02  0.1105054E+00
         21   -1    0    0  502  501  0.00000000000E+00  0.00000000000E+00  0.33814557175E+03  0.33814557175E+03  0.00000000000E+00 0.  1.
         21   -1    0    0  503  502 -0.00000000000E+00 -0.00000000000E+00 -0.22665761900E+03  0.22665761900E+03  0.00000000000E+00 0. -1.
         25    1    1    2    0    0  0.15189254184E+03  0.17532818086E+03  0.16782341329E+03  0.31241160880E+03  0.12500000000E+03 0.  0.
         21    1    1    2  503  504 -0.33005163904E+02 -0.74242637287E+02  0.11821564963E+02  0.82103955044E+02  0.00000000000E+00 0. -1.
         21    1    1    2  504  501 -0.11888737793E+03 -0.10108554357E+03 -0.68157025505E+02  0.17028762690E+03  0.00000000000E+00 0. -1.
<mgrwt>
<rscale>  4 0.26350771E+03</rscale>
<asrwt>0</asrwt>
<pdfrwt beam="1">  1       21 0.52022396E-01 0.26350771E+03</pdfrwt>
<pdfrwt beam="2">  1       21 0.34870403E-01 0.26350771E+03</pdfrwt>
<totfact> 0.26838558E+04</totfact>
</mgrwt>
</event>
<event>
 5    0  0.1856407E+000  0.2949076E+03  0.7546771E-02  0.1087814E+00
         21   -1    0    0  502  501  0.00000000000E+00  0.00000000000E+00  0.42536149806E+03  0.42536149806E+03  0.00000000000E+00 0. -1.
         21   -1    0    0  503  502 -0.00000000000E+00 -0.00000000000E+00 -0.67802757806E+03  0.67802757806E+03  0.00000000000E+00 0. -1.
         25    1    1    2    0    0  0.23082736435E+03  0.13747449698E+03  0.32379405944E+03  0.43891696525E+03  0.12500000000E+03 0.  0.
         21    1    1    2  503  504 -0.47686466060E+02  0.47978112787E+02 -0.89998600533E+02  0.11258617344E+03  0.00000000000E+00 0. -1.
         21    1    1    2  504  501 -0.18314089829E+03 -0.18545260977E+03 -0.48646153891E+03  0.55188593743E+03  0.00000000000E+00 0. -1.
<mgrwt>
<rscale>  4 0.29490760E+03</rscale>
<asrwt>0</asrwt>
<pdfrwt beam="1">  1       21 0.65440231E-01 0.29490760E+03</pdfrwt>
<pdfrwt beam="2">  1       21 0.10431193E+00 0.29490760E+03</pdfrwt>
<totfact> 0.14724323E+03</totfact>
</mgrwt>
</event>
<event>
 5    0  0.1856407E+000  0.2683127E+03  0.7546771E-02  0.1102249E+00
         21   -1    0    0  502  501  0.00000000000E+00  0.00000000000E+00  0.13728852275E+03  0.13728852275E+03  0.00000000000E+00 0.  1.
         21   -1    0    0  503  502 -0.00000000000E+00 -0.00000000000E+00 -0.66336232381E+03  0.66336232381E+03  0.00000000000E+00 0. -1.
         25    1    1    2    0    0 -0.21061294652E+03  0.10958514992E+03 -0.57865345551E+02  0.27448154135E+03  0.12500000000E+03 0.  0.
         21    1    1    2  503  504  0.27994888989E+02 -0.28514461961E+02 -0.88383500301E+02  0.96997069419E+02  0.00000000000E+00 0. -1.
         21    1    1    2  504  501  0.18261805753E+03 -0.81070687956E+02 -0.37982495521E+03  0.42917223580E+03  0.00000000000E+00 0. -1.
<mgrwt>
<rscale>  4 0.26831272E+03</rscale>
<asrwt>0</asrwt>
<pdfrwt beam="1">  1       21 0.21121311E-01 0.26831272E+03</pdfrwt>
<pdfrwt beam="2">  1       21 0.10205574E+00 0.26831272E+03</pdfrwt>
<totfact> 0.15613044E+04</totfact>
</mgrwt>
</event>
<event>
 5    0  0.1856407E+000  0.3106127E+03  0.7546771E-02  0.1080053E+00
         21   -1    0    0  502  501  0.00000000000E+00  0.00000000000E+00  0.12043703936E+04  0.12043703936E+04  0.00000000000E+00 0. -1.
         21   -1    0    0  503  502 -0.00000000000E+00 -0.00000000000E+00 -0.49505106624E+03  0.49505106624E+03  0.00000000000E+00 0.  1.
         25    1    1    2    0    0 -0.19030333303E+03 -0.24049646480E+03  0.10574607554E+04  0.11081074666E+04  0.12500000000E+03 0.  0.
         21    1    1    2  503  504  0.20119179750E+03  0.19979358660E+03 -0.42074647810E+03  0.50736891456E+03  0.00000000000E+00 0.  1.
         21    1    1    2  504  501 -0.10888464466E+02  0.40702878191E+02  0.72605049988E+02  0.83945078683E+02  0.00000000000E+00 0.  1.
<mgrwt>
<rscale>  4 0.31061275E+03</rscale>
<asrwt>0</asrwt>
<pdfrwt beam="1">  1       21 0.18528775E+00 0.31061275E+03</pdfrwt>
<pdfrwt beam="2">  1       21 0.76161703E-01 0.31061275E+03</pdfrwt>
<totfact> 0.22859874E+02</totfact>
</mgrwt>
</event>
<event>
 5    0  0.1856407E+000  0.2962550E+03  0.7546771E-02  0.1087128E+00
         21   -1    0    0  502  501  0.00000000000E+00  0.00000000000E+00  0.82250186771E+03  0.82250186771E+03  0.00000000000E+00 0.  1.
         21   -1    0    0  503  502 -0.00000000000E+00 -0.00000000000E+00 -0.10572427934E+03  0.10572427934E+03  0.00000000000E+00 0.  1.
         25    1    1    2    0    0 -0.10653299306E+03 -0.24656180065E+03  0.25710317418E+03  0.39226144639E+03  0.12500000000E+03 0.  0.
         21    1    1    2  503  504  0.52389198438E+02  0.15264603357E+03  0.32681454047E+03  0.36449030652E+03  0.00000000000E+00 0.  1.
         21    1    1    2  504  501  0.54143794623E+02  0.93915767078E+02  0.13285987371E+03  0.17147439414E+03  0.00000000000E+00 0.  1.
<mgrwt>
<rscale>  4 0.29625496E+03</rscale>
<asrwt>0</asrwt>
<pdfrwt beam="1">  1       21 0.12653874E+00 0.29625496E+03</pdfrwt>
<pdfrwt beam="2">  1       21 0.16265274E-01 0.29625496E+03</pdfrwt>
<totfact> 0.14767110E+04</totfact>
</mgrwt>
</event>
<event>
 5    0  0.1856407E+000  0.2391042E+03  0.7546771E-02  0.1120391E+00
         21   -1    0    0  502  501  0.00000000000E+00  0.00000000000E+00  0.10756696984E+04  0.10756696984E+04  0.00000000000E+00 0. -1.
         21   -1    0    0  503  502 -0.00000000000E+00 -0.00000000000E+00 -0.25843815050E+03  0.25843815050E+03  0.00000000000E+00 0.  1.
         25    1    1    2    0    0  0.88492310912E+02 -0.18841969622E+03  0.98749136799E+03  0.10169056362E+04  0.12500000000E+03 0.  0.
         21    1    1    2  503  504 -0.26931091090E+02  0.14270954637E+03 -0.18891848003E+03  0.23828867029E+03  0.00000000000E+00 0.  1.
         21    1    1    2  504  501 -0.61561219822E+02  0.45710149856E+02  0.18658659905E+02  0.78913542407E+02  0.00000000000E+00 0. -1.
<mgrwt>
<rscale>  4 0.23910417E+03</rscale>
<asrwt>0</asrwt>
<pdfrwt beam="1">  1       21 0.16548764E+00 0.23910417E+03</pdfrwt>
<pdfrwt beam="2">  1       21 0.39759716E-01 0.23910417E+03</pdfrwt>
<totfact> 0.13404694E+03</totfact>
</mgrwt>
</event>
