<event>
 5    0  0.1781295E-001  0.2533876E+03  0.7546771E-02  0.1111182E+00
         21   -1    0    0  501  502  0.00000000000E+00  0.00000000000E+00  0.33214935678E+03  0.33214935678E+03  0.00000000000E+00 0. -1.
         21   -1    0    0  502  503 -0.00000000000E+00 -0.00000000000E+00 -0.17953525589E+03  0.17953525589E+03  0.00000000000E+00 0.  1.
         25    1    1    2    0    0  0.21126615785E+03 -0.62824224545E+02  0.62757345486E+02  0.26104359225E+03  0.12500000000E+03 0.  0.
          3    1    1    2  501    0 -0.48849976698E+02 -0.18582259535E+02  0.18163429289E+02  0.55331101167E+02  0.00000000000E+00 0. -1.
         -3    1    1    2    0  503 -0.16241618115E+03  0.81406484080E+02  0.71693326110E+02  0.19530991926E+03  0.00000000000E+00 0.  1.
<mgrwt>
<rscale>  4 0.25338759E+03</rscale>
<asrwt>0</asrwt>
<pdfrwt beam="1">  1       21 0.51099901E-01 0.25338759E+03</pdfrwt>
<pdfrwt beam="2">  1       21 0.27620809E-01 0.25338759E+03</pdfrwt>
<totfact> 0.44304973E+04</totfact>
</mgrwt>
</event>
<event>
 5    0  0.1781295E-001  0.2356271E+03  0.7546771E-02  0.1122741E+00
         21   -1    0    0  501  502  0.00000000000E+00  0.00000000000E+00  0.19513497823E+03  0.19513497823E+03  0.00000000000E+00 0. -1.
         21   -1    0    0  502  503 -0.00000000000E+00 -0.00000000000E+00 -0.46360174866E+03  0.46360174866E+03  0.00000000000E+00 0. -1.
         25    1    1    2    0    0  0.17264215710E+03  0.12346550769E+03  0.52180140838E+02  0.25178723775E+03  0.12500000000E+03 0.  0.
          3    1    1    2  501    0 -0.73022757435E+02  0.19801689107E+02 -0.86267677806E+02  0.11474555429E+03  0.00000000000E+00 0.  1.
         -3    1    1    2    0  503 -0.99619399661E+02 -0.14326719679E+03 -0.23437923346E+03  0.29220393485E+03  0.00000000000E+00 0. -1.
<mgrwt>
<rscale>  4 0.23562708E+03</rscale>
<asrwt>0</asrwt>
<pdfrwt beam="1">  1       21 0.30020766E-01 0.23562708E+03</pdfrwt>
<pdfrwt beam="2">  1       21 0.71323345E-01 0.23562708E+03</pdfrwt>
<totfact> 0.18456319E+04</totfact>
</mgrwt>
</event>
<event>
 5    0  0.1781295E-001  0.2284284E+03  0.7546771E-02  0.1127751E+00
         21   -1    0    0  501  502  0.00000000000E+00  0.00000000000E+00  0.20008902863E+03  0.20008902863E+03  0.00000000000E+00 0.  1.
         21   -1    0    0  502  503 -0.00000000000E+00 -0.00000000000E+00 -0.41585198166E+03  0.41585198166E+03  0.00000000000E+00 0.  1.
         25    1    1    2    0    0 -0.20322509762E+03  0.11947102029E+03  0.19039507772E+02  0.26750937899E+03  0.12500000000E+03 0.  0.
          2    1    1    2  501    0  0.14695577202E+03 -0.10645561730E+03 -0.22627534102E+03  0.29005055997E+03  0.00000000000E+00 0.  1.
         -2    1    1    2    0  503  0.56269325599E+02 -0.13015402983E+02 -0.85271197809E+01  0.58381071333E+02  0.00000000000E+00 0. -1.
<mgrwt>
<rscale>  4 0.22842840E+03</rscale>
<asrwt>0</asrwt>
<pdfrwt beam="1">  1       21 0.30782928E-01 0.22842840E+03</pdfrwt>
<pdfrwt beam="2">  1       21 0.63977227E-01 0.22842840E+03</pdfrwt>
<totfact> 0.22406165E+04</totfact>
</mgrwt>
</event>
<event>
 5    0  0.1781295E-001  0.3265144E+03  0.7546771E-02  0.1072690E+00
         21   -1    0    0  501  502  0.00000000000E+00  0.00000000000E+00  0.59768115518E+03  0.59768115518E+03  0.00000000000E+00 0. -1.
         21   -1    0    0  502  503 -0.00000000000E+00 -0.00000000000E+00 -0.42360140585E+03  0.42360140585E+03  0.00000000000E+00 0. -1.
         25    1    1    2    0    0 -0.27480250279E+03 -0.12437944588E+03 -0.30274637271E+03  0.44527185885E+03  0.12500000000E+03 0.  0.
          4    1    1    2  501    0  0.20895496944E+03  0.92949422912E+02  0.25518059702E+03  0.34266442998E+03  0.00000000000E+00 0. -1.
         -4    1    1    2    0  503  0.65847533347E+02  0.31430022968E+02  0.22164552501E+03  0.23334627220E+03  0.00000000000E+00 0.  1.
<mgrwt>
<rscale>  4 0.32651441E+03</rscale>
<asrwt>0</asrwt>
<pdfrwt beam="1">  1       21 0.91950946E-01 0.32651441E+03</pdfrwt>
<pdfrwt beam="2">  1       21 0.65169447E-01 0.32651441E+03</pdfrwt>
<totfact> 0.19731426E+03</totfact>
</mgrwt>
</event>
<event>
 5    0  0.1781295E-001  0.2445882E+03  0.7546771E-02  0.1116774E+00
         21   -1    0    0  501  502  0.00000000000E+00  0.00000000000E+00  0.26133087709E+02  0.26133087709E+02  0.00000000000E+00 0. -1.
         21   -1    0    0  502  503 -0.00000000000E+00 -0.00000000000E+00 -0.25912501025E+04  0.25912501025E+04  0.00000000000E+00 0. -1.
         25    1    1    2    0    0  0.19256120921E+03 -0.84371614020E+02 -0.75538210005E+03  0.79399339143E+03  0.12500000000E+03 0.  0.
          1    1    1    2  501    0 -0.82562927038E+02 -0.12156245030E+01 -0.74901614947E+03  0.75355378496E+03  0.00000000000E+00 0.  1.
         -1    1    1    2    0  503 -0.10999828217E+03  0.85587238523E+02 -0.10607187653E+04  0.10698360138E+04  0.00000000000E+00 0. -1.
<mgrwt>
<rscale>  4 0.24458820E+03</rscale>
<asrwt>0</asrwt>
<pdfrwt beam="1">  1       21 0.40204749E-02 0.24458820E+03</pdfrwt>
<pdfrwt beam="2">  1       21 0.39865387E+00 0.24458820E+03</pdfrwt>
<totfact> 0.32339263E+03</totfact>
</mgrwt>
</event>
<event>
 5    0  0.1781295E-001  0.2520808E+03  0.7546771E-02  0.1111997E+00
         21   -1    0    0  501  502  0.00000000000E+00  0.00000000000E+00  0.55772924821E+03  0.55772924821E+03  0.00000000000E+00 0. -1.
         21   -1    0    0  502  503 -0.00000000000E+00 -0.00000000000E+00 -0.13338894030E+03  0.13338894030E+03  0.00000000000E+00 0. -1.
         25    1    1    2    0    0  0.22247009877E+03 -0.78002329749E+02  0.11884508749E+03  0.29210693780E+03  0.12500000000E+03 0.  0.
          2    1    1    2  501    0 -0.31341290320E+02  0.17962576462E+02  0.12236584769E+03  0.12758656400E+03  0.00000000000E+00 0.  1.
         -2    1    1    2    0  503 -0.19112880845E+03  0.60039753287E+02  0.18312937274E+03  0.27142468670E+03  0.00000000000E+00 0. -1.
<mgrwt>
<rscale>  4 0.25208078E+03</rscale>
<asrwt>0</asrwt>
<pdfrwt beam="1">  1       21 0.85804498E-01 0.25208078E+03</pdfrwt>
<pdfrwt beam="2">  1       21 0.20521376E-01 0.25208078E+03</pdfrwt>
<totfact> 0.24998641E+04</totfact>
</mgrwt>
</event>
<event>
 5    0  0.1781295E-001  0.1864924E+03  0.7546771E-02  0.1161664E+00
         21   -1    0    0  501  502  0.00000000000E+00  0.00000000000E+00  0.10036731751E+04  0.10036731751E+04  0.00000000000E+00 0.  1.
         21   -1    0    0  502  503 -0.00000000000E+00 -0.00000000000E+00 -0.59054614127E+02  0.59054614127E+02  0.00000000000E+00 0.  1.
         25    1    1    2    0    0  0.83159607556E+02  0.18787321250E+03  0.36311923313E+03  0.43553695799E+03  0.12500000000E+03 0.  0.
          2    1    1    2  501    0 -0.12693555231E+02 -0.10399951580E+03  0.41398955396E+03  0.42704142237E+03  0.00000000000E+00 0. -1.
         -2    1    1    2    0  503 -0.70466052325E+02 -0.83873696696E+02  0.16750977392E+03  0.20014940891E+03  0.00000000000E+00 0.  1.
<mgrwt>
<rscale>  4 0.18649236E+03</rscale>
<asrwt>0</asrwt>
<pdfrwt beam="1">  1       21 0.15441125E+00 0.18649236E+03</pdfrwt>
<pdfrwt beam="2">  1       21 0.90853260E-02 0.18649236E+03</pdfrwt>
<totfact> 0.26705638E+04</totfact>
</mgrwt>
</event>
<event>
 5    0  0.1781295E-001  0.2240980E+03  0.7546771E-02  0.1130864E+00
         21   -1    0    0  501  502  0.00000000000E+00  0.00000000000E+00  0.81027813070E+03  0.81027813070E+03  0.00000000000E+00 0.  1.
         21   -1    0    0  502  503 -0.00000000000E+00 -0.00000000000E+00 -0.13425763671E+03  0.13425763671E+03  0.00000000000E+00 0.  1.
         25    1    1    2    0    0  0.16281848222E+03 -0.15977796295E+03  0.31140104872E+03  0.40575173289E+03  0.12500000000E+03 0.  0.
          4    1    1    2  501    0 -0.18939677681E+03 -0.87233932222E+01  0.77526092896E+02  0.20483537716E+03  0.00000000000E+00 0.  1.
         -4    1    1    2    0  503  0.26578294597E+02  0.16850135617E+03  0.28709335237E+03  0.33394865736E+03  0.00000000000E+00 0. -1.
<mgrwt>
<rscale>  4 0.22409798E+03</rscale>
<asrwt>0</asrwt>
<pdfrwt beam="1">  1       21 0.12465817E+00 0.22409798E+03</pdfrwt>
<pdfrwt beam="2">  1       21 0.20655022E-01 0.22409798E+03</pdfrwt>
<totfact> 0.10212932E+04</totfact>
</mgrwt>
</event>
<event>
 5    0  0.1781295E-001  0.2585558E+03  0.7546771E-02  0.1108014E+00
         21   -1    0    0  501  502  0.00000000000E+00  0.00000000000E+00  0.18655327330E+03  0.18655327330E+03  0.00000000000E+00 0. -1.
         21   -1    0    0  502  503 -0.00000000000E+00 -0.00000000000E+00 -0.54175444322E+03  0.54175444322E+03  0.00000000000E+00 0. -1.
         25    1    1    2    0    0  0.16250541583E+03  0.16593248757E+03 -0.39565541478E+03  0.47551005021E+03  0.12500000000E+03 0.  0.
          3    1    1    2  501    0 -0.13101505588E+03 -0.16485801216E+03  0.12954348978E+02  0.21097612234E+03  0.00000000000E+00 0. -1.
         -3    1    1    2    0  503 -0.31490359950E+02 -0.10744754108E+01  0.27499895882E+02  0.41821543979E+02  0.00000000000E+00 0.  1.
<mgrwt>
<rscale>  4 0.25855583E+03</rscale>
<asrwt>0</asrwt>
<pdfrwt beam="1">  1       21 0.28700503E-01 0.25855583E+03</pdfrwt>
<pdfrwt beam="2">  1       21 0.83346838E-01 0.25855583E+03</pdfrwt>
<totfact> 0.14007819E+04</totfact>
</mgrwt>
</event>
<event>
 5    0  0.1781295E-001  0.2570251E+03  0.7546771E-02  0.1108944E+00
         21   -1    0    0  501  502  0.00000000000E+00  0.00000000000E+00  0.33695067657E+03  0.33695067657E+03  0.00000000000E+00 0. -1.
         21   -1    0    0  502  503 -0.00000000000E+00 -0.00000000000E+00 -0.42814553698E+03  0.42814553698E+03  0.00000000000E+00 0.  1.
         25    1    1    2    0    0  0.17287377975E+03 -0.17214391538E+03  0.16675872303E+03  0.32086187532E+03  0.12500000000E+03 0.  0.
          2    1    1    2  501    0 -0.29182621375E+02  0.36488806996E+02 -0.24145872836E+03  0.24593774807E+03  0.00000000000E+00 0.  1.
         -2    1    1    2    0  503 -0.14369115838E+03  0.13565510838E+03 -0.16494855078E+02  0.19829659016E+03  0.00000000000E+00 0. -1.
<mgrwt>
<rscale>  4 0.25702514E+03</rscale>
<asrwt>0</asrwt>
<pdfrwt beam="1">  1       21 0.51838566E-01 0.25702514E+03</pdfrwt>
<pdfrwt beam="2">  1       21 0.65868544E-01 0.25702514E+03</pdfrwt>
<totfact> 0.71744331E+03</totfact>
</mgrwt>
</event>
<event>
 5    0  0.1781295E-001  0.3085620E+03  0.7546771E-02  0.1081037E+00
         21   -1    0    0  501  502  0.00000000000E+00  0.00000000000E+00  0.12677559597E+04  0.12677559597E+04  0.00000000000E+00 0. -1.
         21   -1    0    0  502  503 -0.00000000000E+00 -0.00000000000E+00 -0.19328922237E+03  0.19328922237E+03  0.00000000000E+00 0. -1.
         25    1    1    2    0    0  0.28970827319E+03  0.23961466163E+02  0.10954785985E+04  0.11402646163E+04  0.12500000000E+03 0.  0.
          4    1    1    2  501    0 -0.48715070915E+02  0.62416694981E+00 -0.57980729994E+02  0.75731847787E+02  0.00000000000E+00 0.  1.
         -4    1    1    2    0  503 -0.24099320228E+03 -0.24585633113E+02  0.36968868763E+02  0.24504871793E+03  0.00000000000E+00 0. -1.
<mgrwt>
<rscale>  4 0.30856202E+03</rscale>
<asrwt>0</asrwt>
<pdfrwt beam="1">  1       21 0.19503937E+00 0.30856202E+03</pdfrwt>
<pdfrwt beam="2">  1       21 0.29736804E-01 0.30856202E+03</pdfrwt>
<totfact> 0.14208912E+03</totfact>
</mgrwt>
</event>
<event>
 5    0  0.1781295E-001  0.2536463E+03  0.7546771E-02  0.1111022E+00
         21   -1    0    0  501  502  0.00000000000E+00  0.00000000000E+00  0.21682630674E+04  0.21682630674E+04  0.00000000000E+00 0.  1.
         21   -1    0    0  502  503 -0.00000000000E+00 -0.00000000000E+00 -0.11116586226E+03  0.11116586226E+03  0.00000000000E+00 0. -1.
         25    1    1    2    0    0 -0.21329556367E+03 -0.56713714236E+02  0.20308371122E+04  0.20466156989E+04  0.12500000000E+03 0.  0.
          2    1    1    2  501    0  0.64062681267E+02 -0.63634165461E+01 -0.13972085930E+02  0.65876698358E+02  0.00000000000E+00 0. -1.
         -2    1    1    2    0  503  0.14923288240E+03  0.63077130782E+02  0.40232178857E+02  0.16693653235E+03  0.00000000000E+00 0.  1.
<mgrwt>
<rscale>  4 0.25364629E+03</rscale>
<asrwt>0</asrwt>
<pdfrwt beam="1">  1       21 0.33357890E+00 0.25364629E+03</pdfrwt>
<pdfrwt beam="2">  1       21 0.17102442E-01 0.25364629E+03</pdfrwt>
<totfact> 0.62253070E+02</totfact>
</mgrwt>
</event>
<event>
 5    0  0.1781295E-001  0.2189614E+03  0.7546771E-02  0.1134660E+00
         21   -1    0    0  501  502  0.00000000000E+00  0.00000000000E+00  0.74641782596E+03  0.74641782596E+03  0.00000000000E+00 0.  1.
         21   -1    0    0  502  503 -0.00000000000E+00 -0.00000000000E+00 -0.11517522232E+03  0.11517522232E+03  0.00000000000E+00 0.  1.
         25    1    1    2    0    0 -0.25559939855E+03  0.42960477706E+02  0.26287899376E+03  0.38975251191E+03  0.12500000000E+03 0.  0.
          1    1    1    2  501    0  0.11715970804E+03  0.31392210660E+02  0.85973639555E+02  0.14867190312E+03  0.00000000000E+00 0.  1.
         -1    1    1    2    0  503  0.13843969050E+03 -0.74352688366E+02  0.28238997033E+03  0.32316863325E+03  0.00000000000E+00 0. -1.
<mgrwt>
<rscale>  4 0.21896138E+03</rscale>
<asrwt>0</asrwt>
<pdfrwt beam="1">  1       21 0.11483351E+00 0.21896138E+03</pdfrwt>
<pdfrwt beam="2">  1       21 0.17719265E-01 0.21896138E+03</pdfrwt>
<totfact> 0.16722601E+04</totfact>
</mgrwt>
</event>
<event>
 5    0  0.1781295E-001  0.3430225E+03  0.7546771E-02  0.1065516E+00
         21   -1    0    0  501  502  0.00000000000E+00  0.00000000000E+00  0.80523154790E+03  0.80523154790E+03  0.00000000000E+00 0. -1.
         21   -1    0    0  502  503 -0.00000000000E+00 -0.00000000000E+00 -0.22223943695E+03  0.22223943695E+03  0.00000000000E+00 0. -1.
         25    1    1    2    0    0 -0.38214610784E+03  0.39632309382E+02  0.25187851818E+03  0.47610309347E+03  0.12500000000E+03 0.  0.
          2    1    1    2  501    0  0.12469302722E+03  0.88488519567E+02  0.10380914886E+03  0.18481046647E+03  0.00000000000E+00 0.  1.
         -2    1    1    2    0  503  0.25745308063E+03 -0.12812082895E+03  0.22730444391E+03  0.36655742491E+03  0.00000000000E+00 0. -1.
<mgrwt>
<rscale>  4 0.34302247E+03</rscale>
<asrwt>0</asrwt>
<pdfrwt beam="1">  1       21 0.12388178E+00 0.34302247E+03</pdfrwt>
<pdfrwt beam="2">  1       21 0.34190683E-01 0.34302247E+03</pdfrwt>
<totfact> 0.36538846E+03</totfact>
</mgrwt>
</event>
<event>
 5    0  0.1781295E-001  0.2360829E+03  0.7546771E-02  0.1122430E+00
         21   -1    0    0  501  502  0.00000000000E+00  0.00000000000E+00  0.34999982044E+03  0.34999982044E+03  0.00000000000E+00 0. -1.
         21   -1    0    0  502  503 -0.00000000000E+00 -0.00000000000E+00 -0.39939711938E+03  0.39939711938E+03  0.00000000000E+00 0. -1.
         25    1    1    2    0    0  0.29489539151E+02  0.19809220957E+03  0.27712200839E+03  0.36404912299E+03  0.12500000000E+03 0.  0.
          3    1    1    2  501    0 -0.37608090484E+02 -0.16241699108E+03 -0.28338120584E+03  0.32878344740E+03  0.00000000000E+00 0. -1.
         -3    1    1    2    0  503  0.81185513326E+01 -0.35675218488E+02 -0.43138101493E+02  0.56564369441E+02  0.00000000000E+00 0.  1.
<mgrwt>
<rscale>  4 0.23608294E+03</rscale>
<asrwt>0</asrwt>
<pdfrwt beam="1">  1       21 0.53846126E-01 0.23608294E+03</pdfrwt>
<pdfrwt beam="2">  1       21 0.61445711E-01 0.23608294E+03</pdfrwt>
<totfact> 0.77993262E+03</totfact>
</mgrwt>
</event>
<event>
 5    0  0.1781295E-001  0.2221037E+03  0.7546771E-02  0.1132324E+00
         21   -1    0    0  501  502  0.00000000000E+00  0.00000000000E+00  0.12400212981E+03  0.12400212981E+03  0.00000000000E+00 0.  1.
         21   -1    0    0  502  503 -0.00000000000E+00 -0.00000000000E+00 -0.70101450336E+03  0.70101450336E+03  0.00000000000E+00 0.  1.
         25    1    1    2    0    0  0.30448092226E+01 -0.24104439503E+03 -0.17102947680E+03  0.32091705030E+03  0.12500000000E+03 0.  0.
          3    1    1    2  501    0 -0.77182722584E+01  0.17004999281E+03 -0.39754056833E+03  0.43245239651E+03  0.00000000000E+00 0.  1.
         -3    1    1    2    0  503  0.46734630358E+01  0.70994402224E+02 -0.84423284345E+01  0.71647186360E+02  0.00000000000E+00 0. -1.
<mgrwt>
<rscale>  4 0.22210370E+03</rscale>
<asrwt>0</asrwt>
<pdfrwt beam="1">  1       21 0.19077251E-01 0.22210370E+03</pdfrwt>
<pdfrwt beam="2">  1       21 0.10784839E+00 0.22210370E+03</pdfrwt>
<totfact> 0.16953175E+04</totfact>
</mgrwt>
</event>
<event>
 5    0  0.1781295E-001  0.2723074E+03  0.7546771E-02  0.1099966E+00
         21   -1    0    0  501  502  0.00000000000E+00  0.00000000000E+00  0.11471924052E+04  0.11471924052E+04  0.00000000000E+00 0.  1.
         21   -1    0    0  502  503 -0.00000000000E+00 -0.00000000000E+00 -0.99807041472E+03  0.99807041472E+03  0.00000000000E+00 0. -1.
         25    1    1    2    0    0  0.20717658064E+03 -0.12636250971E+03  0.11073871537E+04  0.11405353689E+04  0.12500000000E+03 0.  0.
          2    1    1    2  501    0 -0.15371988654E+03  0.13243810820E+03 -0.91033433799E+03  0.93267264512E+03  0.00000000000E+00 0. -1.
         -2    1    1    2    0  503 -0.53456694095E+02 -0.60755984911E+01 -0.47930825280E+02  0.72054805895E+02  0.00000000000E+00 0.  1.
<mgrwt>
<rscale>  4 0.27230737E+03</rscale>
<asrwt>0</asrwt>
<pdfrwt beam="1">  1       21 0.17649114E+00 0.27230737E+03</pdfrwt>
<pdfrwt beam="2">  1       21 0.15354929E+00 0.27230737E+03</pdfrwt>
<totfact> 0.48739216E+01</totfact>
</mgrwt>
</event>
<event>
 5    0  0.1781295E-001  0.3315131E+03  0.7546771E-02  0.1070469E+00
         21   -1    0    0  501  502  0.00000000000E+00  0.00000000000E+00  0.10789383637E+04  0.10789383637E+04  0.00000000000E+00 0. -1.
         21   -1    0    0  502  503 -0.00000000000E+00 -0.00000000000E+00 -0.12295873249E+03  0.12295873249E+03  0.00000000000E+00 0.  1.
         25    1    1    2    0    0  0.57166243132E+02 -0.31135336450E+03  0.53582501659E+03  0.63477739826E+03  0.12500000000E+03 0.  0.
          4    1    1    2  501    0 -0.56670112107E+02  0.11250957948E+02  0.95881848605E+01  0.58566363639E+02  0.00000000000E+00 0. -1.
         -4    1    1    2    0  503 -0.49613102556E+00  0.30010240655E+03  0.41056642974E+03  0.50855333427E+03  0.00000000000E+00 0.  1.
<mgrwt>
<rscale>  4 0.33151308E+03</rscale>
<asrwt>0</asrwt>
<pdfrwt beam="1">  1       21 0.16599051E+00 0.33151308E+03</pdfrwt>
<pdfrwt beam="2">  1       21 0.18916729E-01 0.33151308E+03</pdfrwt>
<totfact> 0.53253475E+03</totfact>
</mgrwt>
</event>
<event>
 5    0  0.1781295E-001  0.4150603E+03  0.7546771E-02  0.1038686E+00
         21   -1    0    0  501  502  0.00000000000E+00  0.00000000000E+00  0.11863767099E+04  0.11863767099E+04  0.00000000000E+00 0. -1.
         21   -1    0    0  502  503 -0.00000000000E+00 -0.00000000000E+00 -0.15596826138E+03  0.15596826138E+03  0.00000000000E+00 0. -1.
         25    1    1    2    0    0  0.22981225106E+03  0.32223650041E+03  0.32012692218E+03  0.52417199395E+03  0.12500000000E+03 0.  0.
          3    1    1    2  501    0 -0.82239986765E+02 -0.69288737658E+02  0.25613810455E+03  0.27779681998E+03  0.00000000000E+00 0. -1.
         -3    1    1    2    0  503 -0.14757226430E+03 -0.25294776275E+03  0.45414342177E+03  0.54037615733E+03  0.00000000000E+00 0.  1.
<mgrwt>
<rscale>  4 0.41506028E+03</rscale>
<asrwt>0</asrwt>
<pdfrwt beam="1">  1       21 0.18251949E+00 0.41506028E+03</pdfrwt>
<pdfrwt beam="2">  1       21 0.23995118E-01 0.41506028E+03</pdfrwt>
<totfact> 0.24798902E+03</totfact>
</mgrwt>
</event>
<event>
 5    0  0.1781295E-001  0.2168566E+03  0.7546771E-02  0.1136248E+00
         21   -1    0    0  501  502  0.00000000000E+00  0.00000000000E+00  0.49721226346E+02  0.49721226346E+02  0.00000000000E+00 0. -1.
         21   -1    0    0  502  503 -0.00000000000E+00 -0.00000000000E+00 -0.12255420028E+04  0.12255420028E+04  0.00000000000E+00 0.  1.
         25    1    1    2    0    0  0.19516352669E+03 -0.50995856920E+02 -0.36124301377E+03  0.43221625903E+03  0.12500000000E+03 0.  0.
          3    1    1    2  501    0 -0.26263935338E+02  0.25767668324E+02 -0.69386042631E+02  0.78537824915E+02  0.00000000000E+00 0. -1.
         -3    1    1    2    0  503 -0.16889959135E+03  0.25228188595E+02 -0.74519172007E+03  0.76450914521E+03  0.00000000000E+00 0.  1.
<mgrwt>
<rscale>  4 0.21685660E+03</rscale>
<asrwt>0</asrwt>
<pdfrwt beam="1">  1       21 0.76494197E-02 0.21685660E+03</pdfrwt>
<pdfrwt beam="2">  1       21 0.18854492E+00 0.21685660E+03</pdfrwt>
<totfact> 0.20330699E+04</totfact>
</mgrwt>
</event>
<event>
 5    0  0.1781295E-001  0.2304173E+03  0.7546771E-02  0.1126346E+00
         21   -1    0    0  501  502  0.00000000000E+00  0.00000000000E+00  0.21544511485E+03  0.21544511485E+03  0.00000000000E+00 0. -1.
         21   -1    0    0  502  503 -0.00000000000E+00 -0.00000000000E+00 -0.83313383687E+03  0.83313383687E+03  0.00000000000E+00 0.  1.
         25    1    1    2    0    0  0.47636265173E+02 -0.21381459448E+03  0.11284716822E+03  0.27630667373E+03  0.12500000000E+03 0.  0.
          3    1    1    2  501    0 -0.58939491388E+02  0.93058144807E+02 -0.49767122601E+03  0.50971593183E+03  0.00000000000E+00 0.  1.
         -3    1    1    2    0  503  0.11303226214E+02  0.12075644967E+03 -0.23286466423E+03  0.26255634616E+03  0.00000000000E+00 0. -1.
<mgrwt>
<rscale>  4 0.23041733E+03</rscale>
<asrwt>0</asrwt>
<pdfrwt beam="1">  1       21 0.33145402E-01 0.23041733E+03</pdfrwt>
<pdfrwt beam="2">  1       21 0.12817444E+00 0.23041733E+03</pdfrwt>
<totfact> 0.38089148E+03</totfact>
</mgrwt>
</event>
<event>
 5    0  0.1781295E-001  0.3926719E+03  0.7546771E-02  0.1046347E+00
         21   -1    0    0  501  502  0.00000000000E+00  0.00000000000E+00  0.82058186911E+02  0.82058186911E+02  0.00000000000E+00 0. -1.
         21   -1    0    0  502  503 -0.00000000000E+00 -0.00000000000E+00 -0.24006652513E+04  0.24006652513E+04  0.00000000000E+00 0.  1.
         25    1    1    2    0    0  0.30814817081E+03  0.20883237985E+03 -0.57578407537E+03  0.69693511857E+03  0.12500000000E+03 0.  0.
          2    1    1    2  501    0 -0.13889682652E+03 -0.16236894674E+03 -0.98400173948E+03  0.10069336754E+04  0.00000000000E+00 0.  1.
         -2    1    1    2    0  503 -0.16925134429E+03 -0.46463433115E+02 -0.75882124955E+03  0.77885464429E+03  0.00000000000E+00 0. -1.
<mgrwt>
<rscale>  4 0.39267195E+03</rscale>
<asrwt>0</asrwt>
<pdfrwt beam="1">  1       21 0.12624337E-01 0.39267195E+03</pdfrwt>
<pdfrwt beam="2">  1       21 0.36933311E+00 0.39267195E+03</pdfrwt>
<totfact> 0.58422312E+02</totfact>
</mgrwt>
</event>
<event>
 5    0  0.1781295E-001  0.3084245E+03  0.7546771E-02  0.1081103E+00
         21   -1    0    0  501  502  0.00000000000E+00  0.00000000000E+00  0.14227802165E+03  0.14227802165E+03  0.00000000000E+00 0.  1.
         21   -1    0    0  502  503 -0.00000000000E+00 -0.00000000000E+00 -0.70634224618E+03  0.70634224618E+03  0.00000000000E+00 0. -1.
         25    1    1    2    0    0 -0.91613385250E+02  0.26666021597E+03 -0.15081910497E+03  0.34332504360E+03  0.12500000000E+03 0.  0.
          1    1    1    2  501    0  0.56892003615E+02 -0.66161137680E+02 -0.12770375585E+03  0.15466817860E+03  0.00000000000E+00 0.  1.
         -1    1    1    2    0  503  0.34721381634E+02 -0.20049907829E+03 -0.28554136372E+03  0.35062704563E+03  0.00000000000E+00 0. -1.
<mgrwt>
<rscale>  4 0.30842452E+03</rscale>
<asrwt>0</asrwt>
<pdfrwt beam="1">  1       21 0.21888926E-01 0.30842452E+03</pdfrwt>
<pdfrwt beam="2">  1       21 0.10866804E+00 0.30842452E+03</pdfrwt>
<totfact> 0.12295519E+04</totfact>
</mgrwt>
</event>
<event>
 5    0  0.1781295E-001  0.3218466E+03  0.7546771E-02  0.1074803E+00
         21   -1    0    0  501  502  0.00000000000E+00  0.00000000000E+00  0.10499354402E+03  0.10499354402E+03  0.00000000000E+00 0.  1.
         21   -1    0    0  502  503 -0.00000000000E+00 -0.00000000000E+00 -0.10084315836E+04  0.10084315836E+04  0.00000000000E+00 0. -1.
         25    1    1    2    0    0  0.17537270829E+03 -0.23917488235E+03 -0.30977320302E+03  0.44670420691E+03  0.12500000000E+03 0.  0.
          2    1    1    2  501    0 -0.23825478909E+02  0.62869552036E+02 -0.93487590076E+02  0.11515278337E+03  0.00000000000E+00 0.  1.
         -2    1    1    2    0  503 -0.15154722938E+03  0.17630533031E+03 -0.50017724644E+03  0.55156813730E+03  0.00000000000E+00 0. -1.
<mgrwt>
<rscale>  4 0.32184656E+03</rscale>
<asrwt>0</asrwt>
<pdfrwt beam="1">  1       21 0.16152854E-01 0.32184656E+03</pdfrwt>
<pdfrwt beam="2">  1       21 0.15514331E+00 0.32184656E+03</pdfrwt>
<totfact> 0.86572066E+03</totfact>
</mgrwt>
</event>
<event>
 5    0  0.1781295E-001  0.2658322E+03  0.7546771E-02  0.1103689E+00
         21   -1    0    0  501  502  0.00000000000E+00  0.00000000000E+00  0.31561722366E+03  0.31561722366E+03  0.00000000000E+00 0.  1.
         21   -1    0    0  502  503 -0.00000000000E+00 -0.00000000000E+00 -0.23063036540E+03  0.23063036540E+03  0.00000000000E+00 0.  1.
         25    1    1    2    0    0  0.22251143952E+03  0.74366919352E+02 -0.49231255149E+02  0.27035254002E+03  0.12500000000E+03 0.  0.
          4    1    1    2  501    0 -0.61158258322E+02 -0.34932291305E+02  0.16585708823E+02  0.72358021490E+02  0.00000000000E+00 0. -1.
         -4    1    1    2    0  503 -0.16135318120E+03 -0.39434628047E+02  0.11763240459E+03  0.20353702755E+03  0.00000000000E+00 0.  1.
<mgrwt>
<rscale>  4 0.26583224E+03</rscale>
<asrwt>0</asrwt>
<pdfrwt beam="1">  1       21 0.48556496E-01 0.26583224E+03</pdfrwt>
<pdfrwt beam="2">  1       21 0.35481595E-01 0.26583224E+03</pdfrwt>
<totfact> 0.29936854E+04</totfact>
</mgrwt>
</event>
<event>
 5    0  0.1781295E-001  0.2379103E+03  0.7546771E-02  0.1121193E+00
         21   -1    0    0  501  502  0.00000000000E+00  0.00000000000E+00  0.17740851597E+03  0.17740851597E+03  0.00000000000E+00 0. -1.
         21   -1    0    0  502  503 -0.00000000000E+00 -0.00000000000E+00 -0.50913138480E+03  0.50913138480E+03  0.00000000000E+00 0. -1.
         25    1    1    2    0    0 -0.20136989171E+03  0.20651365660E+02  0.58600328075E+02  0.24502104123E+03  0.12500000000E+03 0.  0.
          3    1    1    2  501    0  0.15716042864E+03 -0.29839828783E+01 -0.32101942080E+03  0.35743778901E+03  0.00000000000E+00 0. -1.
         -3    1    1    2    0  503  0.44209463078E+02 -0.17667382782E+02 -0.69303776105E+02  0.84081070536E+02  0.00000000000E+00 0.  1.
<mgrwt>
<rscale>  4 0.23791030E+03</rscale>
<asrwt>0</asrwt>
<pdfrwt beam="1">  1       21 0.27293618E-01 0.23791030E+03</pdfrwt>
<pdfrwt beam="2">  1       21 0.78327905E-01 0.23791030E+03</pdfrwt>
<totfact> 0.17985790E+04</totfact>
</mgrwt>
</event>
<event>
 5    0  0.1781295E-001  0.2543903E+03  0.7546771E-02  0.1110561E+00
         21   -1    0    0  501  502  0.00000000000E+00  0.00000000000E+00  0.13955937617E+03  0.13955937617E+03  0.00000000000E+00 0. -1.
         21   -1    0    0  502  503 -0.00000000000E+00 -0.00000000000E+00 -0.43277743836E+03  0.43277743836E+03  0.00000000000E+00 0. -1.
         25    1    1    2    0    0 -0.11595815177E+03  0.18879394062E+03 -0.15457999985E+03  0.29767334669E+03  0.12500000000E+03 0.  0.
          1    1    1    2  501    0  0.35470271310E+02 -0.82231397028E+02 -0.10291503410E+03  0.13642451044E+03  0.00000000000E+00 0. -1.
         -1    1    1    2    0  503  0.80487880463E+02 -0.10656254359E+03 -0.35723028234E+02  0.13823895740E+03  0.00000000000E+00 0.  1.
<mgrwt>
<rscale>  4 0.25439034E+03</rscale>
<asrwt>0</asrwt>
<pdfrwt beam="1">  1       21 0.21470673E-01 0.25439034E+03</pdfrwt>
<pdfrwt beam="2">  1       21 0.66581145E-01 0.25439034E+03</pdfrwt>
<totfact> 0.40606935E+04</totfact>
</mgrwt>
</event>
<event>
 5    0  0.1781295E-001  0.2963981E+03  0.7546771E-02  0.1087055E+00
         21   -1    0    0  501  502  0.00000000000E+00  0.00000000000E+00  0.92986630620E+02  0.92986630620E+02  0.00000000000E+00 0. -1.
         21   -1    0    0  502  503 -0.00000000000E+00 -0.00000000000E+00 -0.90214313633E+03  0.90214313633E+03  0.00000000000E+00 0.  1.
         25    1    1    2    0    0  0.17100964353E+03  0.20732233182E+03 -0.32492783532E+03  0.43980671393E+03  0.12500000000E+03 0.  0.
          4    1    1    2  501    0 -0.16319922497E+03 -0.17910106104E+03 -0.43934311524E+03  0.50173055519E+03  0.00000000000E+00 0.  1.
         -4    1    1    2    0  503 -0.78104185567E+01 -0.28221270789E+02 -0.44885555155E+02  0.53592497838E+02  0.00000000000E+00 0. -1.
<mgrwt>
<rscale>  4 0.29639812E+03</rscale>
<asrwt>0</asrwt>
<pdfrwt beam="1">  1       21 0.14305635E-01 0.29639812E+03</pdfrwt>
<pdfrwt beam="2">  1       21 0.13879125E+00 0.29639812E+03</pdfrwt>
<totfact> 0.14743003E+04</totfact>
</mgrwt>
</event>
<event>
 5    0  0.1781295E-001  0.2365443E+03  0.7546771E-02  0.1122117E+00
         21   -1    0    0  501  502  0.00000000000E+00  0.00000000000E+00  0.18780163759E+03  0.18780163759E+03  0.00000000000E+00 0. -1.
         21   -1    0    0  502  503 -0.00000000000E+00 -0.00000000000E+00 -0.47621530938E+03  0.47621530938E+03  0.00000000000E+00 0. -1.
         25    1    1    2    0    0 -0.10360690862E+03 -0.17740315985E+03  0.55221556932E+02  0.24674013250E+03  0.12500000000E+03 0.  0.
          4    1    1    2  501    0 -0.26173228221E+02  0.38783869522E+02 -0.70925596115E+02  0.84968621237E+02  0.00000000000E+00 0.  1.
         -4    1    1    2    0  503  0.12978013684E+03  0.13861929033E+03 -0.27270963261E+03  0.33230819323E+03  0.00000000000E+00 0. -1.
<mgrwt>
<rscale>  4 0.23654433E+03</rscale>
<asrwt>0</asrwt>
<pdfrwt beam="1">  1       21 0.28892560E-01 0.23654433E+03</pdfrwt>
<pdfrwt beam="2">  1       21 0.73263894E-01 0.23654433E+03</pdfrwt>
<totfact> 0.18726596E+04</totfact>
</mgrwt>
</event>
<event>
 5    0  0.1781295E-001  0.2358900E+03  0.7546771E-02  0.1122561E+00
         21   -1    0    0  501  502  0.00000000000E+00  0.00000000000E+00  0.17245789776E+03  0.17245789776E+03  0.00000000000E+00 0. -1.
         21   -1    0    0  502  503 -0.00000000000E+00 -0.00000000000E+00 -0.68455539384E+03  0.68455539384E+03  0.00000000000E+00 0. -1.
         25    1    1    2    0    0 -0.22540419894E+03 -0.11455886576E+03 -0.13668599437E+02  0.28238735317E+03  0.12500000000E+03 0.  0.
          4    1    1    2  501    0  0.17438089304E+03  0.81771791682E+02 -0.46942016143E+03  0.50739591024E+03  0.00000000000E+00 0. -1.
         -4    1    1    2    0  503  0.51023305893E+02  0.32787074076E+02 -0.29008735208E+02  0.67230028180E+02  0.00000000000E+00 0.  1.
<mgrwt>
<rscale>  4 0.23589000E+03</rscale>
<asrwt>0</asrwt>
<pdfrwt beam="1">  1       21 0.26531984E-01 0.23589000E+03</pdfrwt>
<pdfrwt beam="2">  1       21 0.10531621E+00 0.23589000E+03</pdfrwt>
<totfact> 0.95246855E+03</totfact>
</mgrwt>
</event>
<event>
 5    0  0.1781295E-001  0.3432326E+03  0.7546771E-02  0.1065427E+00
         21   -1    0    0  501  502  0.00000000000E+00  0.00000000000E+00  0.10749167154E+03  0.10749167154E+03  0.00000000000E+00 0.  1.
         21   -1    0    0  502  503 -0.00000000000E+00 -0.00000000000E+00 -0.14987673450E+04  0.14987673450E+04  0.00000000000E+00 0.  1.
         25    1    1    2    0    0  0.18215613901E+03  0.26610686364E+03 -0.34277017521E+03  0.48693953924E+03  0.12500000000E+03 0.  0.
          4    1    1    2  501    0 -0.13255118929E+03 -0.28846132350E+03 -0.72768071124E+03  0.79391370466E+03  0.00000000000E+00 0.  1.
         -4    1    1    2    0  503 -0.49604949726E+02  0.22354459855E+02 -0.32082478696E+03  0.32540577260E+03  0.00000000000E+00 0. -1.
<mgrwt>
<rscale>  4 0.34323256E+03</rscale>
<asrwt>0</asrwt>
<pdfrwt beam="1">  1       21 0.16537180E-01 0.34323256E+03</pdfrwt>
<pdfrwt beam="2">  1       21 0.23057959E+00 0.34323256E+03</pdfrwt>
<totfact> 0.25261863E+03</totfact>
</mgrwt>
</event>
<event>
 5    0  0.1865932E-001  0.2559342E+03  0.7546771E-02  0.1109611E+00
         21   -1    0    0  501  502  0.00000000000E+00  0.00000000000E+00  0.18267929416E+04  0.18267929416E+04  0.00000000000E+00 0.  1.
         21   -1    0    0  502  503 -0.00000000000E+00 -0.00000000000E+00 -0.15749445176E+03  0.15749445176E+03  0.00000000000E+00 0.  1.
         25    1    1    2    0    0  0.20067087153E+03 -0.98022919397E+02 -0.40219362194E+02  0.25907506346E+03  0.12500000000E+03 0.  0.
          1    1    1    2  501    0 -0.37418489165E+02  0.48827835141E+02  0.48179826752E+03  0.48570965751E+03  0.00000000000E+00 0. -1.
         -1    1    1    2    0  503 -0.16325238237E+03  0.49195084257E+02  0.12277195846E+04  0.12395026724E+04  0.00000000000E+00 0.  1.
<mgrwt>
<rscale>  4 0.25593415E+03</rscale>
<asrwt>0</asrwt>
<pdfrwt beam="1">  1       21 0.28104505E+00 0.25593415E+03</pdfrwt>
<pdfrwt beam="2">  1       21 0.24229917E-01 0.25593415E+03</pdfrwt>
<totfact> 0.65485058E+02</totfact>
</mgrwt>
</event>
