<event>
 5    0  0.1972931E+000  0.2665949E+03  0.7546771E-02  0.1103244E+00
         21   -1    0    0  502  501  0.00000000000E+00  0.00000000000E+00  0.60491932455E+03  0.60491932455E+03  0.00000000000E+00 0. -1.
         21   -1    0    0  503  502 -0.00000000000E+00 -0.00000000000E+00 -0.19981000909E+03  0.19981000909E+03  0.00000000000E+00 0. -1.
         25    1    1    2    0    0  0.22868445588E+03  0.56136028525E+02  0.48105341138E+03  0.54998656225E+03  0.12500000000E+03 0.  0.
         21    1    1    2  503  504 -0.33814988156E+02 -0.19745597161E+02  0.71298615225E+01  0.39801720522E+02  0.00000000000E+00 0. -1.
         21    1    1    2  504  501 -0.19486946772E+03 -0.36390431364E+02 -0.83073957431E+02  0.21494105087E+03  0.00000000000E+00 0. -1.
<mgrwt>
<rscale>  4 0.26659489E+03</rscale>
<asrwt>0</asrwt>
<pdfrwt beam="1">  1       21 0.93064511E-01 0.26659489E+03</pdfrwt>
<pdfrwt beam="2">  1       21 0.30740002E-01 0.26659489E+03</pdfrwt>
<totfact> 0.94354196E+03</totfact>
</mgrwt>
</event>
<event>
 5    0  0.1856407E+000  0.3086950E+03  0.7546771E-02  0.1080973E+00
         21   -1    0    0  502  501  0.00000000000E+00  0.00000000000E+00  0.57371400931E+03  0.57371400931E+03  0.00000000000E+00 0.  1.
         21   -1    0    0  503  502 -0.00000000000E+00 -0.00000000000E+00 -0.16274200937E+03  0.16274200937E+03  0.00000000000E+00 0.  1.
         25    1    1    2    0    0 -0.28128315532E+03  0.23396091917E+02  0.27555272709E+03  0.41378967603E+03  0.12500000000E+03 0.  0.
         21    1    1    2  503  504  0.15668433298E+03 -0.19681948777E+02  0.32985191959E+02  0.16132384262E+03  0.00000000000E+00 0.  1.
         21    1    1    2  504  501  0.12459882234E+03 -0.37141431403E+01  0.10243408089E+03  0.16134250003E+03  0.00000000000E+00 0.  1.
<mgrwt>
<rscale>  4 0.30869498E+03</rscale>
<asrwt>0</asrwt>
<pdfrwt beam="1">  1       21 0.88263692E-01 0.30869498E+03</pdfrwt>
<pdfrwt beam="2">  1       21 0.25037233E-01 0.30869498E+03</pdfrwt>
<totfact> 0.15628982E+04</totfact>
</mgrwt>
</event>
<event>
 5    0  0.1856407E+000  0.2351628E+03  0.7546771E-02  0.1123058E+00
         21   -1    0    0  502  501  0.00000000000E+00  0.00000000000E+00  0.10558974623E+04  0.10558974623E+04  0.00000000000E+00 0. -1.
         21   -1    0    0  503  502 -0.00000000000E+00 -0.00000000000E+00 -0.14043619315E+03  0.14043619315E+03  0.00000000000E+00 0. -1.
         25    1    1    2    0    0  0.17295541213E+03 -0.13971557980E+03  0.77482310789E+03  0.81572658798E+03  0.12500000000E+03 0.  0.
         21    1    1    2  503  504 -0.90024295079E+02  0.17692488978E+03 -0.16370602384E+02  0.19918530807E+03  0.00000000000E+00 0. -1.
         21    1    1    2  504  501 -0.82931117050E+02 -0.37209309986E+02  0.15700876367E+03  0.18142175943E+03  0.00000000000E+00 0. -1.
<mgrwt>
<rscale>  4 0.23516284E+03</rscale>
<asrwt>0</asrwt>
<pdfrwt beam="1">  1       21 0.16244576E+00 0.23516284E+03</pdfrwt>
<pdfrwt beam="2">  1       21 0.21605569E-01 0.23516284E+03</pdfrwt>
<totfact> 0.46617804E+03</totfact>
</mgrwt>
</event>
<event>
 5    0  0.1856407E+000  0.4692286E+03  0.7546771E-02  0.1022721E+00
         21   -1    0    0  502  501  0.00000000000E+00  0.00000000000E+00  0.42098732556E+03  0.42098732556E+03  0.00000000000E+00 0. -1.
         21   -1    0    0  503  502 -0.00000000000E+00 -0.00000000000E+00 -0.51610294151E+03  0.51610294151E+03  0.00000000000E+00 0. -1.
         25    1    1    2    0    0  0.43857477237E+03 -0.67865653493E+02 -0.16779746602E+02  0.46136768177E+03  0.12500000000E+03 0.  0.
         21    1    1    2  503  504 -0.36407033707E+03  0.32559561425E+02 -0.52738952371E+01  0.36556141666E+03  0.00000000000E+00 0. -1.
         21    1    1    2  504  501 -0.74504435297E+02  0.35306092067E+02 -0.73061974113E+02  0.11016116865E+03  0.00000000000E+00 0. -1.
<mgrwt>
<rscale>  4 0.46717359E+03</rscale>
<asrwt>0</asrwt>
<pdfrwt beam="1">  1       21 0.64767281E-01 0.46922859E+03</pdfrwt>
<pdfrwt beam="2">  1       21 0.79400452E-01 0.46922859E+03</pdfrwt>
<totfact> 0.26512304E+03</totfact>
</mgrwt>
</event>
<event>
 5    0  0.1856407E+000  0.2485567E+03  0.7546771E-02  0.1114220E+00
         21   -1    0    0  502  501  0.00000000000E+00  0.00000000000E+00  0.47350230761E+03  0.47350230761E+03  0.00000000000E+00 0. -1.
         21   -1    0    0  503  502 -0.00000000000E+00 -0.00000000000E+00 -0.57241383600E+03  0.57241383600E+03  0.00000000000E+00 0. -1.
         25    1    1    2    0    0 -0.14247973989E+03  0.16079476667E+03  0.41456365722E+03  0.48336679567E+03  0.12500000000E+03 0.  0.
         21    1    1    2  503  504  0.73368991030E+02 -0.79399445877E+02 -0.15846795474E+03  0.19183162807E+03  0.00000000000E+00 0. -1.
         21    1    1    2  504  501  0.69110748858E+02 -0.81395320795E+02 -0.35500723088E+03  0.37071771987E+03  0.00000000000E+00 0. -1.
<mgrwt>
<rscale>  4 0.24855670E+03</rscale>
<asrwt>0</asrwt>
<pdfrwt beam="1">  1       21 0.72846509E-01 0.24855670E+03</pdfrwt>
<pdfrwt beam="2">  1       21 0.88063667E-01 0.24855670E+03</pdfrwt>
<totfact> 0.17893547E+03</totfact>
</mgrwt>
</event>
<event>
 5    0  0.1856407E+000  0.3361923E+03  0.7546771E-02  0.1068429E+00
         21   -1    0    0  502  501  0.00000000000E+00  0.00000000000E+00  0.16638449960E+03  0.16638449960E+03  0.00000000000E+00 0.  1.
         21   -1    0    0  503  502 -0.00000000000E+00 -0.00000000000E+00 -0.13257770383E+04  0.13257770383E+04  0.00000000000E+00 0.  1.
         25    1    1    2    0    0 -0.73165870943E+02  0.30859996313E+03 -0.64442207786E+02  0.34693656489E+03  0.12500000000E+03 0.  0.
         21    1    1    2  503  504  0.85128623121E+02 -0.27360416106E+03 -0.10417008053E+04  0.10803919137E+04  0.00000000000E+00 0.  1.
         21    1    1    2  504  501 -0.11962752178E+02 -0.34995802071E+02 -0.53249525615E+02  0.64833059317E+02  0.00000000000E+00 0. -1.
<mgrwt>
<rscale>  4 0.33619226E+03</rscale>
<asrwt>0</asrwt>
<pdfrwt beam="1">  1       21 0.25597614E-01 0.33619226E+03</pdfrwt>
<pdfrwt beam="2">  1       21 0.20396570E+00 0.33619226E+03</pdfrwt>
<totfact> 0.16340821E+03</totfact>
</mgrwt>
</event>
<event>
 5    0  0.1856407E+000  0.2834592E+03  0.7546771E-02  0.1093814E+00
         21   -1    0    0  502  501  0.00000000000E+00  0.00000000000E+00  0.10988879600E+03  0.10988879600E+03  0.00000000000E+00 0. -1.
         21   -1    0    0  503  502 -0.00000000000E+00 -0.00000000000E+00 -0.87944889022E+03  0.87944889022E+03  0.00000000000E+00 0. -1.
         25    1    1    2    0    0  0.19041908544E+03  0.16871476584E+03 -0.16486645588E+03  0.32791774668E+03  0.12500000000E+03 0.  0.
         21    1    1    2  503  504 -0.49423398870E+02 -0.58243979602E+02 -0.99688305481E+02  0.12558977572E+03  0.00000000000E+00 0. -1.
         21    1    1    2  504  501 -0.14099568657E+03 -0.11047078624E+03 -0.50500533286E+03  0.53583016383E+03  0.00000000000E+00 0. -1.
<mgrwt>
<rscale>  4 0.28345917E+03</rscale>
<asrwt>0</asrwt>
<pdfrwt beam="1">  1       21 0.16905969E-01 0.28345917E+03</pdfrwt>
<pdfrwt beam="2">  1       21 0.13529983E+00 0.28345917E+03</pdfrwt>
<totfact> 0.11650290E+04</totfact>
</mgrwt>
</event>
<event>
 5    0  0.1856407E+000  0.3919455E+03  0.7546771E-02  0.1046605E+00
         21   -1    0    0  502  501  0.00000000000E+00  0.00000000000E+00  0.63370913128E+03  0.63370913128E+03  0.00000000000E+00 0. -1.
         21   -1    0    0  503  502 -0.00000000000E+00 -0.00000000000E+00 -0.70192922588E+03  0.70192922588E+03  0.00000000000E+00 0.  1.
         25    1    1    2    0    0 -0.14714335604E+03  0.34109393848E+03  0.51184852244E+03  0.64467833221E+03  0.12500000000E+03 0.  0.
         21    1    1    2  503  504  0.14832393145E+03 -0.30376628277E+03 -0.51939559254E+03  0.61971422829E+03  0.00000000000E+00 0.  1.
         21    1    1    2  504  501 -0.11805754068E+01 -0.37327655709E+02 -0.60673024509E+02  0.71245796663E+02  0.00000000000E+00 0. -1.
<mgrwt>
<rscale>  4 0.39194546E+03</rscale>
<asrwt>0</asrwt>
<pdfrwt beam="1">  1       21 0.97493713E-01 0.39194546E+03</pdfrwt>
<pdfrwt beam="2">  1       21 0.10798911E+00 0.39194546E+03</pdfrwt>
<totfact> 0.51227683E+02</totfact>
</mgrwt>
</event>
<event>
 5    0  0.1856407E+000  0.3025638E+03  0.7546771E-02  0.1085291E+00
         21   -1    0    0  502  501  0.00000000000E+00  0.00000000000E+00  0.15622579447E+04  0.15622579447E+04  0.00000000000E+00 0. -1.
         21   -1    0    0  503  502 -0.00000000000E+00 -0.00000000000E+00 -0.83693675627E+02  0.83693675627E+02  0.00000000000E+00 0. -1.
         25    1    1    2    0    0 -0.96050986574E+02 -0.24584415985E+03  0.11988258694E+04  0.12338855734E+04  0.12500000000E+03 0.  0.
         21    1    1    2  503  504  0.11024801003E+03  0.88677158280E+02  0.16257570946E+03  0.21552058701E+03  0.00000000000E+00 0. -1.
         21    1    1    2  504  501 -0.14197023460E+02  0.15716700157E+03  0.11716269019E+03  0.19654545996E+03  0.00000000000E+00 0. -1.
<mgrwt>
<rscale>  4 0.29989905E+03</rscale>
<asrwt>0</asrwt>
<pdfrwt beam="1">  1       21 0.24034735E+00 0.30256380E+03</pdfrwt>
<pdfrwt beam="2">  1       21 0.12875951E-01 0.30256380E+03</pdfrwt>
<totfact> 0.35757173E+03</totfact>
</mgrwt>
</event>
<event>
 5    0  0.2840538E+000  0.2513824E+03  0.7546771E-02  0.1112434E+00
         21   -1    0    0  502  501  0.00000000000E+00  0.00000000000E+00  0.38839084602E+03  0.38839084602E+03  0.00000000000E+00 0. -1.
         21   -1    0    0  503  502 -0.00000000000E+00 -0.00000000000E+00 -0.31793694851E+03  0.31793694851E+03  0.00000000000E+00 0.  1.
         25    1    1    2    0    0  0.41782400137E+02 -0.21112647800E+03  0.25807288643E+03  0.35853420114E+03  0.12500000000E+03 0.  0.
         21    1    1    2  503  504  0.42294098891E+00  0.21910033536E+03 -0.20631392411E+03  0.30094944944E+03  0.00000000000E+00 0.  1.
         21    1    1    2  504  501 -0.42205341126E+02 -0.79738573550E+01  0.18694935196E+02  0.46844143953E+02  0.00000000000E+00 0.  1.
<mgrwt>
<rscale>  4 0.25138243E+03</rscale>
<asrwt>0</asrwt>
<pdfrwt beam="1">  1       21 0.59752438E-01 0.25138243E+03</pdfrwt>
<pdfrwt beam="2">  1       21 0.48913377E-01 0.25138243E+03</pdfrwt>
<totfact> 0.10054790E+04</totfact>
</mgrwt>
</event>
<event>
 5    0  0.1856407E+000  0.3185116E+03  0.7546771E-02  0.1076336E+00
         21   -1    0    0  502  501  0.00000000000E+00  0.00000000000E+00  0.74971821412E+03  0.74971821412E+03  0.00000000000E+00 0.  1.
         21   -1    0    0  503  502 -0.00000000000E+00 -0.00000000000E+00 -0.13755990800E+03  0.13755990800E+03  0.00000000000E+00 0.  1.
         25    1    1    2    0    0  0.13603464106E+01 -0.29295528777E+03  0.40027211526E+03  0.51153437561E+03  0.12500000000E+03 0.  0.
         21    1    1    2  503  504 -0.41689752647E+02  0.20372235526E+03  0.17256265456E+03  0.27021973144E+03  0.00000000000E+00 0.  1.
         21    1    1    2  504  501  0.40329406236E+02  0.89232932506E+02  0.39323536294E+02  0.10552401508E+03  0.00000000000E+00 0.  1.
<mgrwt>
<rscale>  4 0.31851162E+03</rscale>
<asrwt>0</asrwt>
<pdfrwt beam="1">  1       21 0.11534126E+00 0.31851162E+03</pdfrwt>
<pdfrwt beam="2">  1       21 0.21163063E-01 0.31851162E+03</pdfrwt>
<totfact> 0.11270130E+04</totfact>
</mgrwt>
</event>
<event>
 5    0  0.1856407E+000  0.4292583E+03  0.7546771E-02  0.1034095E+00
         21   -1    0    0  502  501  0.00000000000E+00  0.00000000000E+00  0.10311632836E+03  0.10311632836E+03  0.00000000000E+00 0.  1.
         21   -1    0    0  503  502 -0.00000000000E+00 -0.00000000000E+00 -0.17196552110E+04  0.17196552110E+04  0.00000000000E+00 0. -1.
         25    1    1    2    0    0 -0.23966857745E+03  0.33346164078E+03 -0.80772967070E+03  0.91470755644E+03  0.12500000000E+03 0.  0.
         21    1    1    2  503  504  0.94606653302E+01 -0.25228498310E+02 -0.38005956593E+02  0.46587917447E+02  0.00000000000E+00 0. -1.
         21    1    1    2  504  501  0.23020791212E+03 -0.30823314247E+03 -0.77080325539E+03  0.86147606551E+03  0.00000000000E+00 0. -1.
<mgrwt>
<rscale>  4 0.42925831E+03</rscale>
<asrwt>0</asrwt>
<pdfrwt beam="1">  1       21 0.15864051E-01 0.42925831E+03</pdfrwt>
<pdfrwt beam="2">  1       21 0.26456233E+00 0.42925831E+03</pdfrwt>
<totfact> 0.16127947E+03</totfact>
</mgrwt>
</event>
<event>
 5    0  0.1856407E+000  0.2633597E+03  0.7546771E-02  0.1105141E+00
         21   -1    0    0  502  501  0.00000000000E+00  0.00000000000E+00  0.16884598082E+04  0.16884598082E+04  0.00000000000E+00 0. -1.
         21   -1    0    0  503  502 -0.00000000000E+00 -0.00000000000E+00 -0.25106444457E+03  0.25106444457E+03  0.00000000000E+00 0.  1.
         25    1    1    2    0    0  0.49633342921E+02  0.22714967102E+03  0.16068119847E+04  0.16283519877E+04  0.12500000000E+03 0.  0.
         21    1    1    2  503  504  0.16715947794E+02 -0.19933269520E+02  0.11269025728E+02  0.28350468872E+02  0.00000000000E+00 0. -1.
         21    1    1    2  504  501 -0.66349290715E+02 -0.20721640150E+03 -0.18068564680E+03  0.28282179617E+03  0.00000000000E+00 0.  1.
<mgrwt>
<rscale>  4 0.26335968E+03</rscale>
<asrwt>0</asrwt>
<pdfrwt beam="1">  1       21 0.25976304E+00 0.26335968E+03</pdfrwt>
<pdfrwt beam="2">  1       21 0.38625300E-01 0.26335968E+03</pdfrwt>
<totfact> 0.34641652E+02</totfact>
</mgrwt>
</event>
<event>
 5    0  0.1856407E+000  0.2567028E+03  0.7546771E-02  0.1109141E+00
         21   -1    0    0  502  501  0.00000000000E+00  0.00000000000E+00  0.60772852399E+03  0.60772852399E+03  0.00000000000E+00 0.  1.
         21   -1    0    0  503  502 -0.00000000000E+00 -0.00000000000E+00 -0.82756187870E+03  0.82756187870E+03  0.00000000000E+00 0. -1.
         25    1    1    2    0    0 -0.10194828792E+03 -0.19969443489E+03  0.56222278573E+03  0.61805402801E+03  0.12500000000E+03 0.  0.
         21    1    1    2  503  504  0.45095245174E+02  0.11065931246E+03 -0.54115263488E+03  0.55418881151E+03  0.00000000000E+00 0. -1.
         21    1    1    2  504  501  0.56853042746E+02  0.89035122430E+02 -0.24090350556E+03  0.26304756317E+03  0.00000000000E+00 0. -1.
<mgrwt>
<rscale>  4 0.25670279E+03</rscale>
<asrwt>0</asrwt>
<pdfrwt beam="1">  1       21 0.93496695E-01 0.25670279E+03</pdfrwt>
<pdfrwt beam="2">  1       21 0.12731721E+00 0.25670279E+03</pdfrwt>
<totfact> 0.41071560E+02</totfact>
</mgrwt>
</event>
