<event>
 5    0  0.2465569E-003  0.8861656E+03  0.7546771E-02  0.9443042E-01
         -2   -1    0    0    0  501 -0.00000000000E+00  0.00000000000E+00  0.83533759973E+03  0.83533759973E+03  0.00000000000E+00 0. -1.
          2   -1    0    0  503    0  0.00000000000E+00 -0.00000000000E+00 -0.58492951490E+03  0.58492951490E+03  0.00000000000E+00 0.  1.
         25    1    1    2    0    0  0.99747167020E+02 -0.32024678529E+03  0.82991217101E+02  0.36745073538E+03  0.12500000000E+03 0.  0.
         21    1    1    2  502  501 -0.41244342938E+01 -0.11592727827E+03  0.48897856112E+03  0.50254967719E+03  0.00000000000E+00 0. -1.
         21    1    1    2  503  502 -0.95622732726E+02  0.43617406356E+03 -0.32156169339E+03  0.55026670206E+03  0.00000000000E+00 0.  1.
<mgrwt>
<rscale>  4 0.88616557E+03</rscale>
<asrwt>0</asrwt>
<pdfrwt beam="1">  1        2 0.89989156E-01 0.88616557E+03</pdfrwt>
<pdfrwt beam="2">  1       -2 0.12851348E+00 0.88616557E+03</pdfrwt>
<totfact> 0.22919302E+01</totfact>
</mgrwt>
</event>
<event>
 5    0  0.2465569E-003  0.8390733E+03  0.7546771E-02  0.9505121E-01
          2   -1    0    0  502    0  0.00000000000E+00  0.00000000000E+00  0.27615678315E+04  0.27615678315E+04  0.00000000000E+00 0.  1.
         -2   -1    0    0    0  501 -0.00000000000E+00 -0.00000000000E+00 -0.12107356067E+03  0.12107356067E+03  0.00000000000E+00 0. -1.
         25    1    1    2    0    0 -0.11253689068E+03  0.28134678810E+03  0.10318664512E+04  0.10826790568E+04  0.12500000000E+03 0.  0.
         21    1    1    2  502  503 -0.77183204612E+02 -0.49792925160E+03  0.11857577382E+04  0.12883757993E+04  0.00000000000E+00 0.  1.
         21    1    1    2  503  501  0.18972009529E+03  0.21658246351E+03  0.42287008148E+03  0.51158653605E+03  0.00000000000E+00 0.  1.
<mgrwt>
<rscale>  4 0.83907335E+03</rscale>
<asrwt>0</asrwt>
<pdfrwt beam="1">  1        2 0.42485654E+00 0.83907335E+03</pdfrwt>
<pdfrwt beam="2">  1       -2 0.18626704E-01 0.83907335E+03</pdfrwt>
<totfact> 0.61038715E+01</totfact>
</mgrwt>
</event>
<event>
 5    0  0.2465569E-003  0.4114301E+03  0.7546771E-02  0.1039892E+00
         -1   -1    0    0    0  501 -0.00000000000E+00  0.00000000000E+00  0.43968528657E+03  0.43968528657E+03  0.00000000000E+00 0. -1.
          1   -1    0    0  502    0  0.00000000000E+00 -0.00000000000E+00 -0.46487684337E+03  0.46487684337E+03  0.00000000000E+00 0.  1.
         25    1    1    2    0    0 -0.13481147890E+03  0.16963490986E+03 -0.25730552591E+03  0.35886107500E+03  0.12500000000E+03 0.  0.
         21    1    1    2  502  503  0.15436464506E+03 -0.26897518835E+02 -0.98487091144E+02  0.18507195165E+03  0.00000000000E+00 0. -1.
         21    1    1    2  503  501 -0.19553166163E+02 -0.14273739102E+03  0.33060106025E+03  0.36062910329E+03  0.00000000000E+00 0. -1.
<mgrwt>
<rscale>  4 0.41143013E+03</rscale>
<asrwt>0</asrwt>
<pdfrwt beam="1">  1        1 0.71519514E-01 0.41143013E+03</pdfrwt>
<pdfrwt beam="2">  1       -1 0.67643890E-01 0.41143013E+03</pdfrwt>
<totfact> 0.11341815E+02</totfact>
</mgrwt>
</event>
<event>
 5    0  0.2465569E-003  0.4724837E+03  0.7546771E-02  0.1021222E+00
          3   -1    0    0  502    0  0.00000000000E+00  0.00000000000E+00  0.73128430228E+03  0.73128430228E+03  0.00000000000E+00 0. -1.
         -3   -1    0    0    0  501 -0.00000000000E+00 -0.00000000000E+00 -0.65581034338E+03  0.65581034338E+03  0.00000000000E+00 0.  1.
         25    1    1    2    0    0 -0.15327161130E+03  0.18569642242E+03 -0.18601398958E+03  0.32894004385E+03  0.12500000000E+03 0.  0.
         21    1    1    2  502  503  0.73638439964E+02 -0.59543298253E+02  0.64225816956E+03  0.64920226477E+03  0.00000000000E+00 0. -1.
         21    1    1    2  503  501  0.79633171331E+02 -0.12615312416E+03 -0.38077022108E+03  0.40895233704E+03  0.00000000000E+00 0. -1.
<mgrwt>
<rscale>  4 0.47248368E+03</rscale>
<asrwt>0</asrwt>
<pdfrwt beam="1">  1        3 0.11250528E+00 0.47248368E+03</pdfrwt>
<pdfrwt beam="2">  1       -3 0.10089390E+00 0.47248368E+03</pdfrwt>
<totfact> 0.14851122E+00</totfact>
</mgrwt>
</event>
<event>
 5    0  0.2465569E-003  0.1283143E+04  0.7546771E-02  0.9043041E-01
         -1   -1    0    0    0  501 -0.00000000000E+00  0.00000000000E+00  0.25974141095E+04  0.25974141095E+04  0.00000000000E+00 0.  1.
          1   -1    0    0  502    0  0.00000000000E+00 -0.00000000000E+00 -0.20889993884E+03  0.20889993884E+03  0.00000000000E+00 0. -1.
         25    1    1    2    0    0 -0.52776491171E+03 -0.25138355635E+03  0.13086157758E+04  0.14386902874E+04  0.12500000000E+03 0.  0.
         21    1    1    2  502  503  0.47542882187E+03  0.43408476767E+03  0.76526211264E+03  0.10000441246E+04  0.00000000000E+00 0. -1.
         21    1    1    2  503  501  0.52336089841E+02 -0.18270121132E+03  0.31463628225E+03  0.36757963630E+03  0.00000000000E+00 0. -1.
<mgrwt>
<rscale>  4 0.12831430E+04</rscale>
<asrwt>0</asrwt>
<pdfrwt beam="1">  1        1 0.32138454E-01 0.12831430E+04</pdfrwt>
<pdfrwt beam="2">  1       -1 0.39960215E+00 0.12831430E+04</pdfrwt>
<totfact> 0.10054949E+00</totfact>
</mgrwt>
</event>
<event>
 5    0  0.2465569E-003  0.6043162E+03  0.7546771E-02  0.9896492E-01
          1   -1    0    0  502    0  0.00000000000E+00  0.00000000000E+00  0.15363865308E+03  0.15363865308E+03  0.00000000000E+00 0.  1.
         -1   -1    0    0    0  501 -0.00000000000E+00 -0.00000000000E+00 -0.72615492864E+03  0.72615492864E+03  0.00000000000E+00 0. -1.
         25    1    1    2    0    0 -0.19018228688E+03 -0.23433674224E+03 -0.26044382224E+03  0.41777864420E+03  0.12500000000E+03 0.  0.
         21    1    1    2  502  503  0.38315752759E+02  0.86340503981E+01  0.98990951057E+01  0.40504762926E+02  0.00000000000E+00 0.  1.
         21    1    1    2  503  501  0.15186653412E+03  0.22570269185E+03 -0.32197154842E+03  0.42151017459E+03  0.00000000000E+00 0.  1.
<mgrwt>
<rscale>  4 0.60431619E+03</rscale>
<asrwt>0</asrwt>
<pdfrwt beam="1">  1        1 0.23636716E-01 0.60431619E+03</pdfrwt>
<pdfrwt beam="2">  1       -1 0.11171614E+00 0.60431619E+03</pdfrwt>
<totfact> 0.15789829E+02</totfact>
</mgrwt>
</event>
<event>
 5    0  0.2465569E-003  0.6256585E+03  0.7546771E-02  0.9853558E-01
          2   -1    0    0  502    0  0.00000000000E+00  0.00000000000E+00  0.52931426641E+03  0.52931426641E+03  0.00000000000E+00 0.  1.
         -2   -1    0    0    0  501 -0.00000000000E+00 -0.00000000000E+00 -0.26511952582E+03  0.26511952582E+03  0.00000000000E+00 0. -1.
         25    1    1    2    0    0  0.15845619208E+03  0.27500002030E+03  0.13925227854E+03  0.36844208915E+03  0.12500000000E+03 0.  0.
         21    1    1    2  502  503 -0.38886685643E+02 -0.28185353769E+03  0.11103318421E+03  0.30542095381E+03  0.00000000000E+00 0. -1.
         21    1    1    2  503  501 -0.11956950644E+03  0.68535173876E+01  0.13909277842E+02  0.12057074927E+03  0.00000000000E+00 0.  1.
<mgrwt>
<rscale>  4 0.62565852E+03</rscale>
<asrwt>0</asrwt>
<pdfrwt beam="1">  1        2 0.81432964E-01 0.62565852E+03</pdfrwt>
<pdfrwt beam="2">  1       -2 0.40787620E-01 0.62565852E+03</pdfrwt>
<totfact> 0.33165013E+02</totfact>
</mgrwt>
</event>
<event>
 5    0  0.2465569E-003  0.5516787E+03  0.7546771E-02  0.1001106E+00
         -1   -1    0    0    0  501 -0.00000000000E+00  0.00000000000E+00  0.47612388306E+03  0.47612388306E+03  0.00000000000E+00 0. -1.
          1   -1    0    0  503    0  0.00000000000E+00 -0.00000000000E+00 -0.23831072547E+03  0.23831072547E+03  0.00000000000E+00 0.  1.
         25    1    1    2    0    0  0.34744359596E+02 -0.27467276171E+03  0.52765674577E+02  0.30832047120E+03  0.12500000000E+03 0.  0.
         21    1    1    2  502  501 -0.20080688554E+02  0.27319027013E+02  0.15246936520E+03  0.15619369582E+03  0.00000000000E+00 0.  1.
         21    1    1    2  503  502 -0.14663671042E+02  0.24735373470E+03  0.32578117810E+02  0.24992044150E+03  0.00000000000E+00 0.  1.
<mgrwt>
<rscale>  4 0.55167867E+03</rscale>
<asrwt>0</asrwt>
<pdfrwt beam="1">  1        1 0.36663189E-01 0.55167867E+03</pdfrwt>
<pdfrwt beam="2">  1       -1 0.73249828E-01 0.55167867E+03</pdfrwt>
<totfact> 0.22694192E+02</totfact>
</mgrwt>
</event>
<event>
 5    0  0.2465569E-003  0.1098741E+04  0.7546771E-02  0.9206420E-01
          2   -1    0    0  502    0  0.00000000000E+00  0.00000000000E+00  0.15786003614E+04  0.15786003614E+04  0.00000000000E+00 0. -1.
         -2   -1    0    0    0  501 -0.00000000000E+00 -0.00000000000E+00 -0.22108455857E+03  0.22108455857E+03  0.00000000000E+00 0.  1.
         25    1    1    2    0    0  0.15226700751E+03 -0.52199438118E+03  0.46120563397E+03  0.72387776066E+03  0.12500000000E+03 0.  0.
         21    1    1    2  502  503  0.14092663580E+02  0.23098940826E+02  0.20714168747E+03  0.20890151489E+03  0.00000000000E+00 0. -1.
         21    1    1    2  503  501 -0.16635967109E+03  0.49889544036E+03  0.68916848134E+03  0.86690564438E+03  0.00000000000E+00 0.  1.
<mgrwt>
<rscale>  4 0.10987408E+04</rscale>
<asrwt>0</asrwt>
<pdfrwt beam="1">  1        2 0.24286159E+00 0.10987408E+04</pdfrwt>
<pdfrwt beam="2">  1       -2 0.34013010E-01 0.10987408E+04</pdfrwt>
<totfact> 0.92062371E+01</totfact>
</mgrwt>
</event>
<event>
 5    0  0.2465569E-003  0.5923784E+03  0.7546771E-02  0.9921346E-01
         -2   -1    0    0    0  501 -0.00000000000E+00  0.00000000000E+00  0.33350431801E+02  0.33350431801E+02  0.00000000000E+00 0.  1.
          2   -1    0    0  503    0  0.00000000000E+00 -0.00000000000E+00 -0.33981330640E+04  0.33981330640E+04  0.00000000000E+00 0. -1.
         25    1    1    2    0    0 -0.20269503971E+03 -0.26166749661E+02 -0.20745441160E+04  0.20883314553E+04  0.12500000000E+03 0.  0.
         21    1    1    2  502  501 -0.79873632153E+02 -0.12883713490E+02 -0.40798385209E+03  0.41592861256E+03  0.00000000000E+00 0. -1.
         21    1    1    2  503  502  0.28256867186E+03  0.39050463152E+02 -0.88225466410E+03  0.92722342794E+03  0.00000000000E+00 0.  1.
<mgrwt>
<rscale>  4 0.59237845E+03</rscale>
<asrwt>0</asrwt>
<pdfrwt beam="1">  1        2 0.52278966E+00 0.59237845E+03</pdfrwt>
<pdfrwt beam="2">  1       -2 0.51308361E-02 0.59237845E+03</pdfrwt>
<totfact> 0.20761692E+02</totfact>
</mgrwt>
</event>
<event>
 5    0  0.2465569E-003  0.2558424E+04  0.7546771E-02  0.8382462E-01
          1   -1    0    0  502    0  0.00000000000E+00  0.00000000000E+00  0.19758884038E+04  0.19758884038E+04  0.00000000000E+00 0. -1.
         -1   -1    0    0    0  501 -0.00000000000E+00 -0.00000000000E+00 -0.88635134668E+03  0.88635134668E+03  0.00000000000E+00 0.  1.
         25    1    1    2    0    0  0.82841520227E+03  0.88088610902E+03  0.13837028199E+03  0.12235209109E+04  0.12500000000E+03 0.  0.
         21    1    1    2  502  503  0.74398103027E+02 -0.38496533177E+02  0.64987737107E+01  0.84019609975E+02  0.00000000000E+00 0.  1.
         21    1    1    2  503  501 -0.90281330530E+03 -0.84238957585E+03  0.94466800147E+03  0.15546992297E+04  0.00000000000E+00 0. -1.
<mgrwt>
<rscale>  4 0.25584244E+04</rscale>
<asrwt>0</asrwt>
<pdfrwt beam="1">  1        1 0.30398283E+00 0.25584244E+04</pdfrwt>
<pdfrwt beam="2">  1       -1 0.13636175E+00 0.25584244E+04</pdfrwt>
<totfact> 0.12242193E+00</totfact>
</mgrwt>
</event>
<event>
 5    0  0.2465569E-003  0.9767671E+03  0.7546771E-02  0.9334400E-01
         -2   -1    0    0    0  501 -0.00000000000E+00  0.00000000000E+00  0.37880962912E+03  0.37880962912E+03  0.00000000000E+00 0.  1.
          2   -1    0    0  503    0  0.00000000000E+00 -0.00000000000E+00 -0.11582303205E+04  0.11582303205E+04  0.00000000000E+00 0. -1.
         25    1    1    2    0    0  0.77667087718E+02 -0.28363318946E+03  0.13225001539E+03  0.34582514259E+03  0.12500000000E+03 0.  0.
         21    1    1    2  502  501 -0.30241457032E+03  0.39550093529E+03 -0.47839483875E+03  0.69046157308E+03  0.00000000000E+00 0.  1.
         21    1    1    2  503  502  0.22474748260E+03 -0.11186774584E+03 -0.43327586799E+03  0.50075323392E+03  0.00000000000E+00 0. -1.
<mgrwt>
<rscale>  4 0.97676707E+03</rscale>
<asrwt>0</asrwt>
<pdfrwt beam="1">  1        2 0.17818928E+00 0.97676707E+03</pdfrwt>
<pdfrwt beam="2">  1       -2 0.58278404E-01 0.97676707E+03</pdfrwt>
<totfact> 0.55212668E+01</totfact>
</mgrwt>
</event>
<event>
 5    0  0.2465569E-003  0.4638199E+03  0.7546771E-02  0.1023679E+00
          1   -1    0    0  503    0  0.00000000000E+00  0.00000000000E+00  0.17532681869E+04  0.17532681869E+04  0.00000000000E+00 0. -1.
         -1   -1    0    0    0  501 -0.00000000000E+00 -0.00000000000E+00 -0.48267748903E+02  0.48267748903E+02  0.00000000000E+00 0.  1.
         25    1    1    2    0    0 -0.20438311738E+03 -0.59020392247E+02  0.73197207757E+03  0.77244028100E+03  0.12500000000E+03 0.  0.
         21    1    1    2  502  501  0.11231885079E+01  0.29819432619E+02 -0.45477002719E+01  0.30185123685E+02  0.00000000000E+00 0.  1.
         21    1    1    2  503  502  0.20325992887E+03  0.29200959629E+02  0.97757606074E+03  0.99891053116E+03  0.00000000000E+00 0. -1.
<mgrwt>
<rscale>  4 0.46381986E+03</rscale>
<asrwt>0</asrwt>
<pdfrwt beam="1">  1        1 0.26973352E+00 0.46381986E+03</pdfrwt>
<pdfrwt beam="2">  1       -1 0.74258089E-02 0.46381986E+03</pdfrwt>
<totfact> 0.46137237E+02</totfact>
</mgrwt>
</event>
<event>
 5    0  0.2465569E-003  0.6552357E+03  0.7546771E-02  0.9797004E-01
         -1   -1    0    0    0  501 -0.00000000000E+00  0.00000000000E+00  0.73553420204E+03  0.73553420204E+03  0.00000000000E+00 0.  1.
          1   -1    0    0  502    0  0.00000000000E+00 -0.00000000000E+00 -0.20970840800E+03  0.20970840800E+03  0.00000000000E+00 0. -1.
         25    1    1    2    0    0  0.23101435212E+03  0.68176062029E+02  0.44470486906E+03  0.52096355620E+03  0.12500000000E+03 0.  0.
         21    1    1    2  502  503 -0.20882538935E+03  0.38532804210E+02 -0.82388583733E+02  0.22777334999E+03  0.00000000000E+00 0. -1.
         21    1    1    2  503  501 -0.22188962774E+02 -0.10670886624E+03  0.16350950871E+03  0.19650570384E+03  0.00000000000E+00 0. -1.
<mgrwt>
<rscale>  4 0.65523573E+03</rscale>
<asrwt>0</asrwt>
<pdfrwt beam="1">  1        1 0.32262832E-01 0.65523573E+03</pdfrwt>
<pdfrwt beam="2">  1       -1 0.11315911E+00 0.65523573E+03</pdfrwt>
<totfact> 0.10192002E+02</totfact>
</mgrwt>
</event>
<event>
 5    0  0.2465569E-003  0.5693509E+03  0.7546771E-02  0.9971116E-01
         -4   -1    0    0    0  501 -0.00000000000E+00  0.00000000000E+00  0.11765035710E+04  0.11765035710E+04  0.00000000000E+00 0.  1.
          4   -1    0    0  503    0  0.00000000000E+00 -0.00000000000E+00 -0.12119111157E+03  0.12119111157E+03  0.00000000000E+00 0. -1.
         25    1    1    2    0    0 -0.33815366641E+03  0.23865675151E+02  0.41470434053E+03  0.55002014746E+03  0.12500000000E+03 0.  0.
         21    1    1    2  502  501  0.13712120680E+03 -0.77393171195E+02  0.39841105658E+03  0.42839619315E+03  0.00000000000E+00 0. -1.
         21    1    1    2  503  502  0.20103245961E+03  0.53527496044E+02  0.24219706237E+03  0.31927834200E+03  0.00000000000E+00 0.  1.
<mgrwt>
<rscale>  4 0.56935087E+03</rscale>
<asrwt>0</asrwt>
<pdfrwt beam="1">  1        4 0.18644787E-01 0.56935087E+03</pdfrwt>
<pdfrwt beam="2">  1       -4 0.18100054E+00 0.56935087E+03</pdfrwt>
<totfact> 0.92326682E+00</totfact>
</mgrwt>
</event>
<event>
 5    0  0.2465569E-003  0.1406541E+04  0.7546771E-02  0.8949098E-01
         -2   -1    0    0    0  501 -0.00000000000E+00  0.00000000000E+00  0.73737417366E+03  0.73737417366E+03  0.00000000000E+00 0. -1.
          2   -1    0    0  502    0  0.00000000000E+00 -0.00000000000E+00 -0.85942609782E+03  0.85942609782E+03  0.00000000000E+00 0.  1.
         25    1    1    2    0    0 -0.33218561273E+03 -0.39050698402E+03 -0.40268497414E+03  0.66379452715E+03  0.12500000000E+03 0.  0.
         21    1    1    2  502  503 -0.10138500711E+03 -0.23473510581E+02 -0.15870514129E+03  0.18978210463E+03  0.00000000000E+00 0.  1.
         21    1    1    2  503  501  0.43357061983E+03  0.41398049460E+03  0.43933819127E+03  0.74322363970E+03  0.00000000000E+00 0. -1.
<mgrwt>
<rscale>  4 0.14065407E+04</rscale>
<asrwt>0</asrwt>
<pdfrwt beam="1">  1        2 0.13221940E+00 0.14065407E+04</pdfrwt>
<pdfrwt beam="2">  1       -2 0.11344218E+00 0.14065407E+04</pdfrwt>
<totfact> 0.18456632E+01</totfact>
</mgrwt>
</event>
<event>
 5    0  0.2465569E-003  0.6797478E+03  0.7546771E-02  0.9752507E-01
          2   -1    0    0  502    0  0.00000000000E+00  0.00000000000E+00  0.43956585362E+03  0.43956585362E+03  0.00000000000E+00 0.  1.
         -2   -1    0    0    0  501 -0.00000000000E+00 -0.00000000000E+00 -0.35513089177E+03  0.35513089177E+03  0.00000000000E+00 0. -1.
         25    1    1    2    0    0 -0.85700468330E+02 -0.26223762122E+03  0.24954689244E+03  0.39244336124E+03  0.12500000000E+03 0.  0.
         21    1    1    2  502  503  0.10725030724E+03  0.14610235125E+02 -0.87383911736E+01  0.10859303318E+03  0.00000000000E+00 0. -1.
         21    1    1    2  503  501 -0.21549838914E+02  0.24762738610E+03 -0.15637353941E+03  0.29366035097E+03  0.00000000000E+00 0. -1.
<mgrwt>
<rscale>  4 0.67974777E+03</rscale>
<asrwt>0</asrwt>
<pdfrwt beam="1">  1        2 0.67625516E-01 0.67974777E+03</pdfrwt>
<pdfrwt beam="2">  1       -2 0.54635522E-01 0.67974777E+03</pdfrwt>
<totfact> 0.22782127E+02</totfact>
</mgrwt>
</event>
<event>
 5    0  0.2465569E-003  0.4680715E+03  0.7546771E-02  0.1022466E+00
          1   -1    0    0  502    0  0.00000000000E+00  0.00000000000E+00  0.10697195141E+04  0.10697195141E+04  0.00000000000E+00 0. -1.
         -1   -1    0    0    0  501 -0.00000000000E+00 -0.00000000000E+00 -0.33368787743E+03  0.33368787743E+03  0.00000000000E+00 0.  1.
         25    1    1    2    0    0  0.61328932737E+02 -0.23088722076E+03 -0.19133696749E+03  0.33061303941E+03  0.12500000000E+03 0.  0.
         21    1    1    2  502  503 -0.11098043479E+03  0.76617045435E+02  0.89802655735E+03  0.90809609968E+03  0.00000000000E+00 0. -1.
         21    1    1    2  503  501  0.49651502054E+02  0.15427017533E+03  0.29342046852E+02  0.16469825247E+03  0.00000000000E+00 0. -1.
<mgrwt>
<rscale>  4 0.46807149E+03</rscale>
<asrwt>0</asrwt>
<pdfrwt beam="1">  1        1 0.16457223E+00 0.46807149E+03</pdfrwt>
<pdfrwt beam="2">  1       -1 0.51336597E-01 0.46807149E+03</pdfrwt>
<totfact> 0.54113520E+01</totfact>
</mgrwt>
</event>
<event>
 5    0  0.2465569E-003  0.8474007E+03  0.7546771E-02  0.9493832E-01
          2   -1    0    0  503    0  0.00000000000E+00  0.00000000000E+00  0.12595425568E+04  0.12595425568E+04  0.00000000000E+00 0.  1.
         -2   -1    0    0    0  501 -0.00000000000E+00 -0.00000000000E+00 -0.21338179848E+03  0.21338179848E+03  0.00000000000E+00 0. -1.
         25    1    1    2    0    0 -0.29383319010E+03 -0.84627089432E+02  0.73588877556E+03  0.80663311231E+03  0.12500000000E+03 0.  0.
         21    1    1    2  502  501  0.21556138862E+03  0.12519572970E+03 -0.83405293694E+02  0.26286332193E+03  0.00000000000E+00 0. -1.
         21    1    1    2  503  502  0.78271801478E+02 -0.40568640272E+02  0.39367727646E+03  0.40342792104E+03  0.00000000000E+00 0. -1.
<mgrwt>
<rscale>  4 0.84740069E+03</rscale>
<asrwt>0</asrwt>
<pdfrwt beam="1">  1        2 0.19377577E+00 0.84740069E+03</pdfrwt>
<pdfrwt beam="2">  1       -2 0.32827970E-01 0.84740069E+03</pdfrwt>
<totfact> 0.15209143E+02</totfact>
</mgrwt>
</event>
<event>
 5    0  0.2465569E-003  0.5605840E+03  0.7546771E-02  0.9990734E-01
          2   -1    0    0  502    0  0.00000000000E+00  0.00000000000E+00  0.22846005156E+04  0.22846005156E+04  0.00000000000E+00 0.  1.
         -2   -1    0    0    0  501 -0.00000000000E+00 -0.00000000000E+00 -0.52608824658E+02  0.52608824658E+02  0.00000000000E+00 0. -1.
         25    1    1    2    0    0 -0.23919312611E+03 -0.46086923124E+02  0.14111131227E+04  0.14374291638E+04  0.12500000000E+03 0.  0.
         21    1    1    2  502  503  0.29433661415E+02  0.12936746265E+03  0.41089063775E+03  0.43177933833E+03  0.00000000000E+00 0. -1.
         21    1    1    2  503  501  0.20975946469E+03 -0.83280539528E+02  0.40998793056E+03  0.46800083814E+03  0.00000000000E+00 0. -1.
<mgrwt>
<rscale>  4 0.56058402E+03</rscale>
<asrwt>0</asrwt>
<pdfrwt beam="1">  1        2 0.35147693E+00 0.56058402E+03</pdfrwt>
<pdfrwt beam="2">  1       -2 0.80936671E-02 0.56058402E+03</pdfrwt>
<totfact> 0.46849804E+02</totfact>
</mgrwt>
</event>
<event>
 5    0  0.2465569E-003  0.6353263E+03  0.7546771E-02  0.9834710E-01
          2   -1    0    0  502    0  0.00000000000E+00  0.00000000000E+00  0.41408320324E+03  0.41408320324E+03  0.00000000000E+00 0.  1.
         -2   -1    0    0    0  501 -0.00000000000E+00 -0.00000000000E+00 -0.24369470515E+03  0.24369470515E+03  0.00000000000E+00 0. -1.
         25    1    1    2    0    0  0.22152855373E+03  0.18589493583E+03  0.16032414037E+03  0.35349774719E+03  0.12500000000E+03 0.  0.
         21    1    1    2  502  503 -0.42755917286E+02 -0.77761755841E+02  0.31696148893E+02  0.94231655982E+02  0.00000000000E+00 0.  1.
         21    1    1    2  503  501 -0.17877263644E+03 -0.10813317999E+03 -0.21631791175E+02  0.21004850522E+03  0.00000000000E+00 0. -1.
<mgrwt>
<rscale>  4 0.63532632E+03</rscale>
<asrwt>0</asrwt>
<pdfrwt beam="1">  1        2 0.63705108E-01 0.63532632E+03</pdfrwt>
<pdfrwt beam="2">  1       -2 0.37491493E-01 0.63532632E+03</pdfrwt>
<totfact> 0.51696960E+02</totfact>
</mgrwt>
</event>
