<event>
 5    0  0.1911311E+001  0.3095644E+03  0.7546771E-02  0.1080555E+00
         21   -1    0    0  502  501  0.00000000000E+00  0.00000000000E+00  0.13915943149E+04  0.13915943149E+04  0.00000000000E+00 0. -1.
         21   -1    0    0  504  502 -0.00000000000E+00 -0.00000000000E+00 -0.18899571565E+03  0.18899571565E+03  0.00000000000E+00 0. -1.
         25    1    1    2    0    0  0.28978095470E+03 -0.12100211800E+03  0.11656080834E+03  0.35752753224E+03  0.12500000000E+03 0.  0.
         21    1    1    2  503  501 -0.14333953086E+03  0.24925287643E+03  0.93044487767E+03  0.97385876178E+03  0.00000000000E+00 0. -1.
         21    1    1    2  504  503 -0.14644142384E+03 -0.12825075843E+03  0.15559291327E+03  0.24920373656E+03  0.00000000000E+00 0. -1.
<mgrwt>
<rscale>  4 0.30956439E+03</rscale>
<asrwt>0</asrwt>
<pdfrwt beam="1">  1       21 0.21409143E+00 0.30956439E+03</pdfrwt>
<pdfrwt beam="2">  1       21 0.29076265E-01 0.30956439E+03</pdfrwt>
<totfact> 0.11161414E+03</totfact>
</mgrwt>
</event>
<event>
 5    0  0.1911311E+001  0.3635582E+03  0.7546771E-02  0.1057184E+00
         21   -1    0    0  504  501  0.00000000000E+00  0.00000000000E+00  0.88170575292E+03  0.88170575292E+03  0.00000000000E+00 0.  1.
         21   -1    0    0  503  502 -0.00000000000E+00 -0.00000000000E+00 -0.48979301916E+03  0.48979301916E+03  0.00000000000E+00 0.  1.
         25    1    1    2    0    0 -0.15527522100E+03 -0.23781090436E+03  0.15439352123E+03  0.34659310421E+03  0.12500000000E+03 0.  0.
         21    1    1    2  503  501  0.16566579746E+03  0.32060370402E+03 -0.30714424093E+03  0.47388761981E+03  0.00000000000E+00 0.  1.
         21    1    1    2  504  502 -0.10390576456E+02 -0.82792799658E+02  0.54466345346E+03  0.55101804806E+03  0.00000000000E+00 0.  1.
<mgrwt>
<rscale>  4 0.36355819E+03</rscale>
<asrwt>0</asrwt>
<pdfrwt beam="1">  1       21 0.13564704E+00 0.36355819E+03</pdfrwt>
<pdfrwt beam="2">  1       21 0.75352772E-01 0.36355819E+03</pdfrwt>
<totfact> 0.53302649E+02</totfact>
</mgrwt>
</event>
<event>
 5    0  0.1911311E+001  0.2547830E+03  0.7546771E-02  0.1110319E+00
         21   -1    0    0  502  501  0.00000000000E+00  0.00000000000E+00  0.45569903785E+03  0.45569903785E+03  0.00000000000E+00 0.  1.
         21   -1    0    0  504  502 -0.00000000000E+00 -0.00000000000E+00 -0.73802302031E+03  0.73802302031E+03  0.00000000000E+00 0.  1.
         25    1    1    2    0    0  0.15098034710E+03 -0.13606789183E+03  0.38525510428E+03  0.45316225766E+03  0.12500000000E+03 0.  0.
         21    1    1    2  503  501  0.97742629205E+01 -0.18214398997E+02  0.13011442183E+02  0.24425359242E+02  0.00000000000E+00 0. -1.
         21    1    1    2  504  503 -0.16075461002E+03  0.15428229083E+03 -0.68059052891E+03  0.71613444126E+03  0.00000000000E+00 0.  1.
<mgrwt>
<rscale>  4 0.25478303E+03</rscale>
<asrwt>0</asrwt>
<pdfrwt beam="1">  1       21 0.70107545E-01 0.25478303E+03</pdfrwt>
<pdfrwt beam="2">  1       21 0.11354200E+00 0.25478303E+03</pdfrwt>
<totfact> 0.10568839E+03</totfact>
</mgrwt>
</event>
