<LesHouchesEvents version="3.0">
  <!--
  <scalesfunctionalform>
    muR  H_T/2 := sum_i mT(i)/2, i=final state
    muF1 H_T/2 := sum_i mT(i)/2, i=final state
    muF2 H_T/2 := sum_i mT(i)/2, i=final state
    QES  H_T/2 := sum_i mT(i)/2, i=final state
  </scalesfunctionalform>
HERWIG6   
  -->
  <header>
       21
  </header>
  <init>
   2212   2212 0.65000000D+04 0.65000000D+04 -1 -1   244800   244800 -4   1
 0.20282932D-04 0.98309914D-06 0.20870961D-05     66
  </init>
  <event>
  5     66 0.20870961E-05 0.64018834E+02 0.75467711E-02 0.94809499E-01
        2 -1    0    0  502    0 0.00000000E+00 0.00000000E+00 0.22217969E+04 0.22217969E+04 0.32000000E+00 0.0000E+00 0.9000E+01
       -4 -1    0    0    0  501 0.00000000E+00 0.00000000E+00 -.21344584E+03 0.21345147E+03 0.15500000E+01 0.0000E+00 0.9000E+01
       25  1    1    2    0    0 -.38839460E+03 0.23622957E+03 0.28156897E+03 0.54914557E+03 0.12500000E+03 0.0000E+00 0.9000E+01
        2  1    1    2  502    0 0.34637608E+03 -.28467147E+03 0.17583507E+04 0.18146105E+04 0.32000000E+00 0.0000E+00 0.9000E+01
       -4  1    1    2    0  501 0.42018514E+02 0.48441899E+02 -.31568560E+02 0.71492304E+02 0.15500000E+01 0.0000E+00 0.9000E+01
#aMCatNLO 1  0  0  1  4 0.19239130D+02 0.00000000D+00  -5  6  0 0.00000000D+00 0.00000000D+00 0.00000000D+00 0.00000000D+00 0.00000000D+00
  <mgrwgt>
 0.1259598884D-02    9    2    0
 0.688650992256581D+03 0.000000000000000D+00 0.000000000000000D+00 0.688650992256581D+03
 0.688650992256581D+03 0.000000000000000D+00 0.000000000000000D+00 -.688650992256581D+03
 0.560667146885070D+03 -.388370942143114D+03 0.236348388414304D+03 -.303364632396519D+03
 0.644594395567507D+03 0.346438238051100D+03 -.284722549847977D+03 0.463050269000198D+03
 0.172040442060585D+03 0.419327040920145D+02 0.483741614336735D+02 -.159685636603678D+03
 0.000000000000000D+00 -.000000000000000D+00 -.000000000000000D+00 0.000000000000000D+00
 0.727844281139726D+03 0.000000000000000D+00 0.000000000000000D+00 0.727844281139726D+03
 0.691083246761608D+03 0.000000000000000D+00 0.000000000000000D+00 -.691083246761608D+03
 0.555559227474207D+03 -.380597084659365D+03 0.236932087720204D+03 -.303364632396519D+03
 0.649185201640759D+03 0.355448648873772D+03 -.284046004059214D+03 0.463050269000198D+03
 0.172691921744014D+03 0.443335614161313D+02 0.485544295639528D+02 -.159685636603678D+03
 0.414911770423536D+02 -.191851256305379D+02 -.144051322494249D+01 0.367610343781180D+02
0.260913081625D-04 0.000000000000D+00 0.000000000000D+00 0.474882872107D-06 0.000000000000D+00  6 2 -4 25 2 -4 21 0 0.34181534D+00 0.32838256D-01 0.24203990D+06 0.24203990D+06 0.24203990D+06 0.10915179D+01  1  2  2  1  6  1        2 0.830990104898D-04 0.100000000000D+01
0.412158186663D-05 0.000000000000D+00 -.100197493343D-06 0.474882872107D-06 0.000000000000D+00  6 2 -4 25 2 -4 21 2 0.34181534D+00 0.32838256D-01 0.24203990D+06 0.24203990D+06 0.24203990D+06 0.10915179D+01  1  2  3  1  6  1        2 0.156396001322D-04 0.100000000000D+01
-.165036124946D-04 0.000000000000D+00 0.000000000000D+00 0.474882872107D-06 0.000000000000D+00  6 2 -4 25 2 -4 21 2 0.34181534D+00 0.32838256D-01 0.24203990D+06 0.24203990D+06 0.24203990D+06 0.10915179D+01  1  2 15  1  6  1        2 -.626239896490D-04 0.100000000000D+01
0.399739647210D-03 0.000000000000D+00 0.000000000000D+00 0.474882872107D-06 0.000000000000D+00  6 2 -4 25 2 -4 21 2 0.36588056D+00 0.32838256D-01 0.25271221D+06 0.25271221D+06 0.25271221D+06 0.10901067D+01  1  2 12  1  6  1        2 0.123365930019D-02 0.100000000000D+01
-.177850690757D-03 0.000000000000D+00 0.000000000000D+00 0.474882872107D-06 0.000000000000D+00  6 2 -4 25 2 -4 21 2 0.34181534D+00 0.32838256D-01 0.24203990D+06 0.24203990D+06 0.24203990D+06 0.10915179D+01  1  2  4  1  6  1        2 -.674865567808D-03 0.100000000000D+01
-.112134828298D-02 0.000000000000D+00 -.880630250546D-04 0.474882872107D-06 0.000000000000D+00  6 2 -4 25 2 -4 21 2 0.36168204D+00 0.32838256D-01 0.24203990D+06 0.24203990D+06 0.24203990D+06 0.10915179D+01  1  2  5  1  6  1        2 -.360110289383D-02 0.100000000000D+01
0.112466847535D-02 0.000000000000D+00 0.879226778467D-04 0.474882872107D-06 0.000000000000D+00  6 2 -4 25 2 -4 21 2 0.34181534D+00 0.32838256D-01 0.24203990D+06 0.24203990D+06 0.24203990D+06 0.10915179D+01  1  2  6  1  6  1        2 0.426762485984D-02 0.100000000000D+01
0.720759684336D-05 0.000000000000D+00 0.000000000000D+00 0.474882872107D-06 0.000000000000D+00  6 21 -4 25 2 -4 -2 2 0.36588056D+00 0.32838256D-01 0.25271221D+06 0.25271221D+06 0.25271221D+06 0.10901067D+01  1  2 12  5  6  1        2 0.298314961468D-05 0.100000000000D+01
-.108358390651D-04 0.000000000000D+00 -.858677589132D-06 0.474882872107D-06 0.000000000000D+00  6 21 -4 25 2 -4 -2 2 0.36168204D+00 0.32838256D-01 0.24203990D+06 0.24203990D+06 0.24203990D+06 0.10915179D+01  1  2  5  5  6  1        2 -.481458535257D-05 0.100000000000D+01
  </mgrwgt>
  </event>
  <event>
  5     66 0.20870961E-05 0.36160819E+02 0.75467711E-02 0.82566392E-01
        2 -1    0    0  502    0 0.00000000E+00 0.00000000E+00 0.98946559E+03 0.98946564E+03 0.32000000E+00 0.0000E+00 0.9000E+01
       -4 -1    0    0    0  501 0.00000000E+00 0.00000000E+00 -.11924114E+04 0.11924124E+04 0.15500000E+01 0.0000E+00 0.9000E+01
       25  1    1    2    0    0 0.47936473E+03 -.51509615E+03 0.52758862E+02 0.71660525E+03 0.12500000E+03 0.0000E+00 0.9000E+01
        2  1    1    2  502    0 -.35642425E+02 -.61528602E+01 0.46783405E+03 0.46923026E+03 0.32000000E+00 0.0000E+00 0.9000E+01
       -4  1    1    2    0  501 -.44372231E+03 0.52124901E+03 -.72353867E+03 0.99604249E+03 0.15500000E+01 0.0000E+00 0.9000E+01
#aMCatNLO 1  0  0  1  2 0.44789641D+03 0.00000000D+00  -5  6  0 0.00000000D+00 0.00000000D+00 0.00000000D+00 0.00000000D+00 0.00000000D+00
  <mgrwgt>
 0.1095439825D-03    3    2    0
 0.108620953495078D+04 0.000000000000000D+00 0.000000000000000D+00 0.108620953495078D+04
 0.108620953495078D+04 0.000000000000000D+00 0.000000000000000D+00 -.108620953495078D+04
 0.724741668029671D+03 0.479409044270254D+03 -.515155399381141D+03 0.120030696652022D+03
 0.514852888216097D+03 -.356337693990810D+02 -.615136607247385D+01 0.513581436267231D+03
 0.932824513655800D+03 -.443775274871173D+03 0.521306765453615D+03 -.633612132919253D+03
 0.000000000000000D+00 0.000000000000000D+00 0.000000000000000D+00 -.000000000000000D+00
 0.168317054704224D+04 0.000000000000000D+00 0.000000000000000D+00 0.168317054704224D+04
 0.228404791200600D+04 0.000000000000000D+00 0.000000000000000D+00 -.228404791200600D+04
 0.562806406072877D+03 0.123079514996635D+03 -.521123896560206D+03 0.120030696652022D+03
 0.621707779448806D+03 -.350177463608116D+03 -.114199531452495D+02 0.513581436267231D+03
 0.134839060870797D+04 -.107510262262114D+04 0.510732072130293D+03 -.633612132919253D+03
 0.143431366481859D+04 0.130220057123262D+04 0.218117775751621D+02 -.600877364963760D+03
0.784828319358D-03 0.000000000000D+00 0.000000000000D+00 0.415188263568D-05 0.000000000000D+00  6 2 -4 25 2 -4 21 0 0.15222556D+00 0.18344798D+00 0.51517108D+06 0.51517108D+06 0.51517108D+06 0.10675941D+01  1  2  2  1  6  1        2 0.126639642091D-03 0.100000000000D+01
0.439217032612D-03 0.000000000000D+00 -.301394739638D-05 0.415188263568D-05 0.000000000000D+00  6 2 -4 25 2 -4 21 2 0.15222556D+00 0.18344798D+00 0.51517108D+06 0.51517108D+06 0.51517108D+06 0.10675941D+01  1  2  3  1  6  1        2 0.807767820716D-04 0.100000000000D+01
-.532173259417D-03 0.000000000000D+00 0.000000000000D+00 0.415188263568D-05 0.000000000000D+00  6 2 -4 25 2 -4 21 2 0.15222556D+00 0.18344798D+00 0.51517108D+06 0.51517108D+06 0.51517108D+06 0.10675941D+01  1  2 15  1  6  1        2 -.978724416597D-04 0.100000000000D+01
  </mgrwgt>
  </event>
  <event>
  6     66 0.20870961E-05 0.54428580E+02 0.75467711E-02 0.92338386E-01
        2 -1    0    0  502    0 0.00000000E+00 0.00000000E+00 0.38395770E+04 0.38395771E+04 0.32000000E+00 0.0000E+00 0.9000E+01
       -4 -1    0    0    0  503 0.00000000E+00 0.00000000E+00 -.20213634E+03 0.20214228E+03 0.15500000E+01 0.0000E+00 0.9000E+01
       25  1    1    2    0    0 -.26069135E+03 -.53258915E+03 0.12925031E+04 0.14275154E+04 0.12500000E+03 0.0000E+00 0.9000E+01
        2  1    1    2  502    0 0.92566285E+01 0.46281691E+00 0.79468086E+03 0.79473496E+03 0.32000000E+00 0.0000E+00 0.9000E+01
       -4  1    1    2    0  501 0.19357334E+03 0.52031193E+03 0.16290224E+04 0.17210205E+04 0.15500000E+01 0.0000E+00 0.9000E+01
       21  1    1    2  501  503 0.57861387E+02 0.11814406E+02 -.78765585E+02 0.98448464E+02 0.75000000E+00 0.0000E+00 0.9000E+01
#aMCatNLO 2  0  0  2  4 0.59055231D+02 0.00000000D+00  -5  6  0 0.00000000D+00 0.00000000D+00 0.00000000D+00 0.00000000D+00 0.00000000D+00
  <mgrwgt>
 0.8812877073D-04    1    2    0
 0.658731448099689D+03 0.000000000000000D+00 0.000000000000000D+00 0.658731448099689D+03
 0.658731448099689D+03 0.000000000000000D+00 0.000000000000000D+00 -.658731448099689D+03
 0.610727277808685D+03 -.233582951357704D+03 -.527160244336495D+03 -.157809662206463D+03
 0.137314229533269D+03 0.152573932500632D+02 0.169037626788711D+01 0.136453480027449D+03
 0.569421388857423D+03 0.218325558107641D+03 0.525469868068608D+03 0.213561821790145D+02
 0.000000000000000D+00 0.000000000000000D+00 0.000000000000000D+00 -.000000000000000D+00
 0.661087101123872D+03 0.000000000000000D+00 0.000000000000000D+00 0.661087101123872D+03
 0.117401994833281D+04 0.000000000000000D+00 0.000000000000000D+00 -.117401994833281D+04
 0.626326545143952D+03 -.260734278136673D+03 -.532704127889759D+03 -.157809662206463D+03
 0.136766866617527D+03 0.924175733555932D+01 0.462075887565573D+00 0.136453480027449D+03
 0.555692394634620D+03 0.193631133796983D+03 0.520427646231433D+03 0.213561821790145D+02
 0.516321243060585D+03 0.578613870041308D+02 0.118144057707599D+02 -.512932847208940D+03
0.243699245688D-03 0.000000000000D+00 0.000000000000D+00 0.135552576169D-06 0.358244732476D-09  6 2 -4 25 2 -4 21 2 0.59070438D+00 0.31098344D-01 0.37804671D+06 0.37804671D+06 0.37804671D+06 0.10771993D+01  1  2  1  2  6  2       -4 0.881287707346D-04 0.100000000000D+01
  </mgrwgt>
  </event>
  <event>
  6     66 0.20870961E-05 0.56532511E+02 0.75467711E-02 0.92605036E-01
        2 -1    0    0  503    0 0.00000000E+00 0.00000000E+00 0.11115614E+04 0.11115614E+04 0.32000000E+00 0.0000E+00 0.9000E+01
       -4 -1    0    0    0  501 0.00000000E+00 0.00000000E+00 -.68433943E+03 0.68434118E+03 0.15500000E+01 0.0000E+00 0.9000E+01
       25  1    1    2    0    0 -.14649316E+03 0.43664381E+03 0.31597082E+03 0.57234659E+03 0.12500000E+03 0.0000E+00 0.9000E+01
        2  1    1    2  502    0 -.86323535E+02 -.25862204E+02 0.70987362E+02 0.11471667E+03 0.32000000E+00 0.0000E+00 0.9000E+01
       -4  1    1    2    0  501 0.33430624E+03 -.41243590E+03 -.39510362E+03 0.66179551E+03 0.15500000E+01 0.0000E+00 0.9000E+01
       21  1    1    2  503  502 -.10148954E+03 0.16542914E+01 0.43536736E+03 0.44704381E+03 0.75000000E+00 0.0000E+00 0.9000E+01
#aMCatNLO 2  0  0  1  2 0.10150302D+03 0.00000000D+00  -5  6  0 0.00000000D+00 0.00000000D+00 0.00000000D+00 0.00000000D+00 0.00000000D+00
  <mgrwgt>
 0.5867629333D-04    1    2    0
 0.672504790821784D+03 0.000000000000000D+00 0.000000000000000D+00 0.672504790821784D+03
 0.672504790821784D+03 0.000000000000000D+00 0.000000000000000D+00 -.672504790821784D+03
 0.587660532940739D+03 -.190464458930983D+03 0.437409905384954D+03 0.319555576592628D+03
 0.121721603071496D+03 -.950730268393422D+02 -.256671078959565D+02 0.715434678650523D+02
 0.635627445631334D+03 0.285537485770325D+03 -.411742797488997D+03 -.391099044457681D+03
 0.000000000000000D+00 -.000000000000000D+00 0.000000000000000D+00 0.000000000000000D+00
 0.111829459249817D+04 0.000000000000000D+00 0.000000000000000D+00 0.111829459249817D+04
 0.680219850980232D+03 0.000000000000000D+00 0.000000000000000D+00 -.680219850980232D+03
 0.574421824767643D+03 -.146683449054334D+03 0.436696269747598D+03 0.319555576592628D+03
 0.114925427931424D+03 -.861574401488691D+02 -.258124330131290D+02 0.715434678650523D+02
 0.659486924460458D+03 0.334330426005812D+03 -.412538128183778D+03 -.391099044457681D+03
 0.449680266318876D+03 -.101489536802608D+03 0.165429144930947D+01 0.438074741517938D+03
0.623427852652D-04 0.000000000000D+00 0.000000000000D+00 0.169630424325D-07 0.272835705815D-10  6 2 -4 25 2 -4 21 2 0.17100950D+00 0.10528308D+00 0.35986690D+06 0.35986690D+06 0.35986690D+06 0.10787535D+01  1  2  1  1  6  1        2 0.586762933287D-04 0.100000000000D+01
  </mgrwgt>
  </event>
  <event>
  6     66 -.20870961E-05 0.16204588E+03 0.75467711E-02 0.94738669E-01
        2 -1    0    0  502    0 0.00000000E+00 0.00000000E+00 0.21024742E+04 0.21024742E+04 0.32000000E+00 0.0000E+00 0.9000E+01
       -4 -1    0    0    0  501 0.00000000E+00 0.00000000E+00 -.53865069E+03 0.53865292E+03 0.15500000E+01 0.0000E+00 0.9000E+01
       25  1    1    2    0    0 -.10039260E+03 0.47050338E+03 0.10434776E+03 0.50790310E+03 0.12500000E+03 0.0000E+00 0.9000E+01
        2  1    1    2  503    0 0.77755029E+02 -.14578395E+03 0.14841429E+04 0.14933114E+04 0.32000000E+00 0.0000E+00 0.9000E+01
       -4  1    1    2    0  501 0.27017120E+02 -.32013037E+03 -.25458022E+03 0.40991081E+03 0.15500000E+01 0.0000E+00 0.9000E+01
       21  1    1    2  502  503 -.43795469E+01 -.45890545E+01 0.22991305E+03 0.23000177E+03 0.75000000E+00 0.0000E+00 0.9000E+01
#aMCatNLO 2  0  0  4  1 0.20906385D+02 0.00000000D+00  -5  6  0 0.00000000D+00 0.00000000D+00 0.00000000D+00 0.00000000D+00 0.00000000D+00
  <mgrwgt>
 -.2094914498D-03    2    2    0
 0.106419083665524D+04 0.000000000000000D+00 0.000000000000000D+00 0.106419083665524D+04
 0.106419083665524D+04 -.000000000000000D+00 -.000000000000000D+00 -.106419083665524D+04
 0.553935792865837D+03 -.100445621866190D+03 0.470692982188049D+03 -.244087394563380D+03
 0.878068870634287D+03 0.734734982773470D+02 -.150573879146456D+03 0.861936246799408D+03
 0.696377009810364D+03 0.269721235888432D+02 -.320119103041593D+03 -.617848852236028D+03
 0.000000000000000D+00 0.000000000000000D+00 0.000000000000000D+00 0.000000000000000D+00
 0.106419083665524D+04 0.000000000000000D+00 0.000000000000000D+00 0.106419083665524D+04
 0.106419083665524D+04 -.000000000000000D+00 -.000000000000000D+00 -.106419083665524D+04
 0.553599468430248D+03 -.100398172323314D+03 0.470595740843863D+03 -.243530751939065D+03
 0.762496379466061D+03 0.777552157238709D+02 -.145776322995288D+03 0.744381702341318D+03
 0.695814842106503D+03 0.270317685223069D+02 -.320241337169730D+03 -.617149142391040D+03
 0.116470983307677D+03 -.438881192286343D+01 -.457808067884550D+01 0.116298191988788D+03
-.874261602621D-03 0.000000000000D+00 0.000000000000D+00 0.533570852618D-05 0.000000000000D+00  6 2 -4 25 2 -4 21 2 0.32345774D+00 0.82869510D-01 0.24507256D+06 0.24507256D+06 0.24507256D+06 0.10911101D+01  1  2 13  3  6  4        2 -.462118005193D-03 0.100000000000D+01
0.477933546707D-03 0.000000000000D+00 0.000000000000D+00 0.533570852618D-05 0.708056560094D-06  6 2 -4 25 2 -4 21 2 0.32345774D+00 0.82869510D-01 0.24507256D+06 0.24507256D+06 0.24507256D+06 0.10911101D+01  1  2  1  3  6  4        2 0.252626555435D-03 0.100000000000D+01
  </mgrwgt>
  </event>
  <event>
  5     66 -.20870961E-05 0.27222177E+02 0.75467711E-02 0.93237810E-01
        2 -1    0    0  502    0 0.00000000E+00 0.00000000E+00 0.95997132E+03 0.95997137E+03 0.32000000E+00 0.0000E+00 0.9000E+01
       -4 -1    0    0    0  501 0.00000000E+00 0.00000000E+00 -.51606892E+03 0.51607125E+03 0.15500000E+01 0.0000E+00 0.9000E+01
       25  1    1    2    0    0 -.36310997E+03 -.41307937E+03 0.64531187E+02 0.56769067E+03 0.12500000E+03 0.0000E+00 0.9000E+01
        2  1    1    2  502    0 0.33739943E+03 0.40409928E+03 0.53486910E+03 0.75047962E+03 0.32000000E+00 0.0000E+00 0.9000E+01
       -4  1    1    2    0  501 0.25710541E+02 0.89800929E+01 -.15549789E+03 0.15787233E+03 0.15500000E+01 0.0000E+00 0.9000E+01
#aMCatNLO 1  0  0  2  5 0.17142084D+02 0.00000000D+00  -5  6  0 0.00000000D+00 0.00000000D+00 0.00000000D+00 0.00000000D+00 0.00000000D+00
  <mgrwgt>
 -.2330351804D-03    9    4    0
 0.703855893722983D+03 0.000000000000000D+00 0.000000000000000D+00 0.703855893722983D+03
 0.703855893722983D+03 0.000000000000000D+00 0.000000000000000D+00 -.703855893722983D+03
 0.575004047624090D+03 -.363145316131914D+03 -.413133913976464D+03 -.111581823242076D+03
 0.618330561877809D+03 0.337446381997847D+03 0.404155510649074D+03 0.324223605310712D+03
 0.214377177944066D+03 0.256989341340673D+02 0.897840332739037D+01 -.212641782068636D+03
 0.000000000000000D+00 0.000000000000000D+00 0.000000000000000D+00 -.000000000000000D+00
 0.704080515905596D+03 0.000000000000000D+00 0.000000000000000D+00 0.704080515905596D+03
 0.112993183279500D+04 0.000000000000000D+00 0.000000000000000D+00 -.112993183279500D+04
 0.581682827343835D+03 -.367034011029094D+03 -.419005301991021D+03 -.111581823242076D+03
 0.612004211238153D+03 0.333310088366806D+03 0.397910283010466D+03 0.324223605310712D+03
 0.214129116871599D+03 0.242583279699269D+02 0.680328854223084D+01 -.212641782068636D+03
 0.426196193247007D+03 0.946559469236098D+01 0.142917304383243D+02 -.425851316889403D+03
 0.703855893722983D+03 0.000000000000000D+00 0.000000000000000D+00 0.703855893722983D+03
 0.703855893722983D+03 0.000000000000000D+00 0.000000000000000D+00 -.703855893722983D+03
 0.575004047624090D+03 -.363145316131914D+03 -.413133913976464D+03 -.111581823242076D+03
 0.618330561877809D+03 0.337446381997847D+03 0.404155510649074D+03 0.324223605310712D+03
 0.000000000000000D+00 0.000000000000000D+00 0.000000000000000D+00 -.000000000000000D+00
 0.214377177944066D+03 0.256989341340673D+02 0.897840332739037D+01 -.212641782068636D+03
 0.704080515905596D+03 0.000000000000000D+00 0.000000000000000D+00 0.704080515905596D+03
 0.112993183279500D+04 0.000000000000000D+00 0.000000000000000D+00 -.112993183279500D+04
 0.581682827343835D+03 -.367034011029094D+03 -.419005301991021D+03 -.111581823242076D+03
 0.612004211238153D+03 0.333310088366806D+03 0.397910283010466D+03 0.324223605310712D+03
 0.426196193247007D+03 0.946559469236098D+01 0.142917304383243D+02 -.425851316889403D+03
 0.214129116871599D+03 0.242583279699269D+02 0.680328854223084D+01 -.212641782068636D+03
0.128223524932D-05 0.000000000000D+00 0.000000000000D+00 0.110923831315D-05 0.000000000000D+00  6 2 -4 25 2 -4 21 0 0.14768808D+00 0.79395402D-01 0.31237195D+06 0.31237195D+06 0.31237195D+06 0.10832558D+01  1  2  2  2  6  2       -4 0.276831833352D-05 0.100000000000D+01
0.574346579306D-06 0.000000000000D+00 -.492412097768D-08 0.110923831315D-05 0.000000000000D+00  6 2 -4 25 2 -4 21 2 0.14768808D+00 0.79395402D-01 0.31237195D+06 0.31237195D+06 0.31237195D+06 0.10832558D+01  1  2  3  2  6  2       -4 0.145507163802D-05 0.100000000000D+01
-.781704991025D-06 0.000000000000D+00 0.000000000000D+00 0.110923831315D-05 0.000000000000D+00  6 2 -4 25 2 -4 21 2 0.14768808D+00 0.79395402D-01 0.31237195D+06 0.31237195D+06 0.31237195D+06 0.10832558D+01  1  2 15  2  6  2       -4 -.198040138606D-05 0.100000000000D+01
0.429318695272D-03 0.000000000000D+00 0.000000000000D+00 0.110923831315D-05 0.000000000000D+00  6 2 -4 25 2 -4 21 2 0.14768808D+00 0.13905521D+00 0.32051534D+06 0.32051534D+06 0.32051534D+06 0.10824329D+01  1  2 12  2  6  2       -4 0.220252739765D-03 0.100000000000D+01
-.472822179648D-03 0.000000000000D+00 0.000000000000D+00 0.110923831315D-05 0.000000000000D+00  6 2 -4 25 2 -4 21 2 0.14768808D+00 0.79395402D-01 0.31237195D+06 0.31237195D+06 0.31237195D+06 0.10832558D+01  1  2  4  2  6  2       -4 -.119786583262D-02 0.100000000000D+01
-.553938357491D-03 0.000000000000D+00 -.718976905974D-06 0.110923831315D-05 0.000000000000D+00  6 2 -4 25 2 -4 21 2 0.14768808D+00 0.12747071D+00 0.31237195D+06 0.31237195D+06 0.31237195D+06 0.10832558D+01  1  2  5  2  6  2       -4 -.372943192138D-03 0.100000000000D+01
0.497540824043D-03 0.000000000000D+00 0.645294109487D-06 0.110923831315D-05 0.000000000000D+00  6 2 -4 25 2 -4 21 2 0.14768808D+00 0.79395402D-01 0.31237195D+06 0.31237195D+06 0.31237195D+06 0.10832558D+01  1  2  6  2  6  2       -4 0.126048899376D-02 0.100000000000D+01
0.265701244051D-04 0.000000000000D+00 0.000000000000D+00 0.110923831315D-05 0.000000000000D+00  6 2 21 25 2 4 -4 2 0.14768808D+00 0.13905521D+00 0.32051534D+06 0.32051534D+06 0.32051534D+06 0.10824329D+01  3  4 12  6  5  2       -4 0.324892411416D-03 0.100000000000D+01
-.298963320484D-04 0.000000000000D+00 -.388430539748D-07 0.110923831315D-05 0.000000000000D+00  6 2 21 25 2 4 -4 2 0.14768808D+00 0.12747071D+00 0.31237195D+06 0.31237195D+06 0.31237195D+06 0.10832558D+01  3  4  5  6  5  2       -4 -.470103289218D-03 0.100000000000D+01
  </mgrwgt>
  </event>
  <event>
  5     66 -.20870961E-05 0.16478185E+03 0.75467711E-02 0.92909567E-01
        2 -1    0    0  502    0 0.00000000E+00 0.00000000E+00 0.31630583E+04 0.31630583E+04 0.32000000E+00 0.0000E+00 0.9000E+01
       -4 -1    0    0    0  501 0.00000000E+00 0.00000000E+00 -.61514650E+03 0.61514845E+03 0.15500000E+01 0.0000E+00 0.9000E+01
       25  1    1    2    0    0 -.35147809E+03 -.42602714E+03 0.67542239E+03 0.88139456E+03 0.12500000E+03 0.0000E+00 0.9000E+01
        2  1    1    2  502    0 0.34621715E+03 0.25454933E+03 0.23502333E+04 0.23891962E+04 0.32000000E+00 0.0000E+00 0.9000E+01
       -4  1    1    2    0  501 0.52609422E+01 0.17147781E+03 -.47774394E+03 0.50761599E+03 0.15500000E+01 0.0000E+00 0.9000E+01
#aMCatNLO 1  0  0  4  1 0.53505121D+02 0.00000000D+00  -5  6  0 0.00000000D+00 0.00000000D+00 0.00000000D+00 0.00000000D+00 0.00000000D+00
  <mgrwgt>
 -.7359375889D-03    7    2    0
 0.139490069240909D+04 0.000000000000000D+00 0.000000000000000D+00 0.139490069240909D+04
 0.139490069240909D+04 -.000000000000000D+00 -.000000000000000D+00 -.139490069240909D+04
 0.576809669208587D+03 -.351474227247799D+03 -.426028715231395D+03 0.109771562216125D+03
 0.108919877389654D+04 0.346212405612557D+03 0.254545845055515D+03 0.100084831619116D+04
 0.112379294171305D+04 0.526182163524172D+01 0.171482870175880D+03 -.111061987840728D+04
 0.000000000000000D+00 0.000000000000000D+00 0.000000000000000D+00 0.000000000000000D+00
 0.139490069240909D+04 0.000000000000000D+00 0.000000000000000D+00 0.139490069240909D+04
 0.139490069240909D+04 -.000000000000000D+00 -.000000000000000D+00 -.139490069240909D+04
 0.576591214797656D+03 -.351109658035590D+03 -.425760672906225D+03 0.110825477316392D+03
 0.668407211111517D+03 0.255586187700154D+03 0.178233485441851D+03 0.591334698111000D+03
 0.112184854320611D+04 0.597162839749916D+01 0.172004741602773D+03 -.110856793315255D+04
 0.422954415702904D+03 0.895518419379367D+02 0.755224458616016D+02 0.406407757725156D+03
0.178396159775D-03 0.000000000000D+00 0.000000000000D+00 0.800135253243D-05 0.000000000000D+00  6 2 -4 25 2 -4 21 0 0.48662450D+00 0.94638075D-01 0.34079244D+06 0.34079244D+06 0.34079244D+06 0.10804791D+01  1  2  2  3  6  4        2 0.127356429519D-04 0.100000000000D+01
0.300532692497D-04 0.000000000000D+00 -.685088226323D-06 0.800135253243D-05 0.000000000000D+00  6 2 -4 25 2 -4 21 2 0.48662450D+00 0.94638075D-01 0.34079244D+06 0.34079244D+06 0.34079244D+06 0.10804791D+01  1  2  3  3  6  4        2 0.250472359964D-05 0.100000000000D+01
-.108796192637D-03 0.000000000000D+00 0.000000000000D+00 0.800135253243D-05 0.000000000000D+00  6 2 -4 25 2 -4 21 2 0.48662450D+00 0.94638075D-01 0.34079244D+06 0.34079244D+06 0.34079244D+06 0.10804791D+01  1  2 15  3  6  4        2 -.906737929191D-05 0.100000000000D+01
0.436419382140D-02 0.000000000000D+00 0.000000000000D+00 0.800135253243D-05 0.000000000000D+00  6 2 -4 25 2 -4 21 2 0.48662450D+00 0.94638075D-01 0.34029114D+06 0.34029114D+06 0.34029114D+06 0.10805258D+01  1  2 12  3  6  4        2 0.363794038285D-03 0.100000000000D+01
-.153801424414D-01 0.000000000000D+00 0.000000000000D+00 0.800135253243D-05 0.000000000000D+00  6 2 -4 25 2 -4 21 2 0.48662450D+00 0.94638075D-01 0.34079244D+06 0.34079244D+06 0.34079244D+06 0.10804791D+01  1  2  4  3  6  4        2 -.128182413097D-02 0.100000000000D+01
-.463463950136D-02 0.000000000000D+00 0.000000000000D+00 0.800135253243D-05 0.000000000000D+00  6 2 -4 25 2 -4 21 2 0.48662450D+00 0.94638075D-01 0.34079244D+06 0.34079244D+06 0.34079244D+06 0.10804791D+01  1  2  5  3  6  4        2 -.386263831679D-03 0.100000000000D+01
0.674543392138D-02 0.000000000000D+00 -.000000000000D+00 0.800135253243D-05 0.000000000000D+00  6 2 -4 25 2 -4 21 2 0.48662450D+00 0.94638075D-01 0.34079244D+06 0.34079244D+06 0.34079244D+06 0.10804791D+01  1  2  6  3  6  4        2 0.562183348250D-03 0.100000000000D+01
  </mgrwgt>
  </event>
  <event>
  5     66 -.20870961E-05 0.20941630E+02 0.75467711E-02 0.94556717E-01
        2 -1    0    0  502    0 0.00000000E+00 0.00000000E+00 0.27578089E+04 0.27578089E+04 0.32000000E+00 0.0000E+00 0.9000E+01
       -4 -1    0    0    0  501 0.00000000E+00 0.00000000E+00 -.49435535E+03 0.49435778E+03 0.15500000E+01 0.0000E+00 0.9000E+01
       25  1    1    2    0    0 0.49021604E+03 -.12072157E+02 0.42051397E+03 0.65796239E+03 0.12500000E+03 0.0000E+00 0.9000E+01
        2  1    1    2  502    0 -.46981020E+03 0.16779858E+02 0.21933503E+04 0.22431650E+04 0.32000000E+00 0.0000E+00 0.9000E+01
       -4  1    1    2    0  501 -.20405844E+02 -.47077006E+01 -.35041074E+03 0.35103939E+03 0.15500000E+01 0.0000E+00 0.9000E+01
#aMCatNLO 1  0  0  2  5 0.77090043D+01 0.00000000D+00  -5  6  0 0.00000000D+00 0.00000000D+00 0.00000000D+00 0.00000000D+00 0.00000000D+00
  <mgrwgt>
 -.8688441319D-03    9    4    0
 0.116762219430711D+04 0.000000000000000D+00 0.000000000000000D+00 0.116762219430711D+04
 0.116762219430711D+04 0.000000000000000D+00 0.000000000000000D+00 -.116762219430711D+04
 0.508740094078518D+03 0.490228109407014D+03 -.120730021092441D+02 -.521740039704989D+02
 0.998036927549482D+03 -.469822393043948D+03 0.167802934187566D+02 0.880376652064131D+03
 0.828467366986212D+03 -.204057163630665D+02 -.470729130951250D+01 -.828202648093632D+03
 0.000000000000000D+00 0.000000000000000D+00 0.000000000000000D+00 -.000000000000000D+00
 0.116771522468552D+04 0.000000000000000D+00 0.000000000000000D+00 0.116771522468552D+04
 0.133905452189331D+04 0.000000000000000D+00 0.000000000000000D+00 -.133905452189331D+04
 0.508567096282602D+03 0.490004748468059D+03 -.137372198700474D+02 -.521740039704989D+02
 0.998193773444448D+03 -.470260687364454D+03 0.135146499447578D+02 0.880376652064131D+03
 0.828496243162560D+03 -.207695208768695D+02 -.741792610610274D+01 -.828202648093632D+03
 0.171512633689214D+03 0.102545977326456D+01 0.764049603139235D+01 -.171339297207787D+03
 0.116762219430711D+04 0.000000000000000D+00 0.000000000000000D+00 0.116762219430711D+04
 0.116762219430711D+04 0.000000000000000D+00 0.000000000000000D+00 -.116762219430711D+04
 0.508740094078518D+03 0.490228109407014D+03 -.120730021092441D+02 -.521740039704989D+02
 0.998036927549482D+03 -.469822393043948D+03 0.167802934187566D+02 0.880376652064131D+03
 0.000000000000000D+00 0.000000000000000D+00 0.000000000000000D+00 -.000000000000000D+00
 0.828467366986212D+03 -.204057163630665D+02 -.470729130951250D+01 -.828202648093632D+03
 0.116771522468552D+04 0.000000000000000D+00 0.000000000000000D+00 0.116771522468552D+04
 0.133905452189331D+04 0.000000000000000D+00 0.000000000000000D+00 -.133905452189331D+04
 0.508567096282602D+03 0.490004748468059D+03 -.137372198700474D+02 -.521740039704989D+02
 0.998193773444448D+03 -.470260687364454D+03 0.135146499447578D+02 0.880376652064131D+03
 0.171512633689214D+03 0.102545977326456D+01 0.764049603139235D+01 -.171339297207787D+03
 0.828496243162560D+03 -.207695208768695D+02 -.741792610610274D+01 -.828202648093632D+03
0.195205388506D-04 0.000000000000D+00 0.000000000000D+00 0.772337856948D-04 0.000000000000D+00  6 2 -4 25 2 -4 21 0 0.42427848D+00 0.76054858D-01 0.24856270D+06 0.24856270D+06 0.24856270D+06 0.10906475D+01  1  2  2  2  6  2       -4 0.454743273732D-05 0.100000000000D+01
0.155361664331D-04 0.000000000000D+00 -.749640090624D-07 0.772337856948D-04 0.000000000000D+00  6 2 -4 25 2 -4 21 2 0.42427848D+00 0.76054858D-01 0.24856270D+06 0.24856270D+06 0.24856270D+06 0.10906475D+01  1  2  3  2  6  2       -4 0.430513914362D-05 0.100000000000D+01
-.121996613500D-04 0.000000000000D+00 0.000000000000D+00 0.772337856948D-04 0.000000000000D+00  6 2 -4 25 2 -4 21 2 0.42427848D+00 0.76054858D-01 0.24856270D+06 0.24856270D+06 0.24856270D+06 0.10906475D+01  1  2 15  2  6  2       -4 -.338057910509D-05 0.100000000000D+01
-.234279455294D-02 0.000000000000D+00 0.000000000000D+00 0.772337856948D-04 0.000000000000D+00  6 2 -4 25 2 -4 21 2 0.42427848D+00 0.76054858D-01 0.24856270D+06 0.24856270D+06 0.24856270D+06 0.10906475D+01  1  2  4  2  6  2       -4 -.649198538052D-03 0.100000000000D+01
-.253397468166D-01 0.000000000000D+00 -.293113803185D-04 0.772337856948D-04 0.000000000000D+00  6 2 -4 25 2 -4 21 2 0.42427848D+00 0.87224326D-01 0.24856270D+06 0.24856270D+06 0.24856270D+06 0.10906475D+01  1  2  5  2  6  2       -4 -.492006180738D-02 0.100000000000D+01
0.251079442036D-01 0.000000000000D+00 0.290383304064D-04 0.772337856948D-04 0.000000000000D+00  6 2 -4 25 2 -4 21 2 0.42427848D+00 0.76054858D-01 0.24856270D+06 0.24856270D+06 0.24856270D+06 0.10906475D+01  1  2  6  2  6  2       -4 0.695752030413D-02 0.100000000000D+01
0.210516266348D-04 0.000000000000D+00 0.000000000000D+00 0.772337856948D-04 0.122509469453D-05  6 2 -4 25 2 -4 21 2 0.42431229D+00 0.87221365D-01 0.25306033D+06 0.25306033D+06 0.25306033D+06 0.10900618D+01  1  2 11  2  6  2       -4 0.407763756582D-05 0.100000000000D+01
-.536723538116D-03 0.000000000000D+00 -.621046935898D-06 0.772337856948D-04 0.000000000000D+00  6 2 21 25 2 4 -4 2 0.42427848D+00 0.87224326D-01 0.24856270D+06 0.24856270D+06 0.24856270D+06 0.10906475D+01  3  4  5  6  5  2       -4 -.227957340218D-02 0.100000000000D+01
0.305202179695D-05 0.000000000000D+00 0.000000000000D+00 0.772337856948D-04 0.144333661859D-06  6 2 21 25 2 4 -4 2 0.42431229D+00 0.87221365D-01 0.25306033D+06 0.25306033D+06 0.25306033D+06 0.10900618D+01  3  4 11  6  5  2       -4 0.129196812261D-04 0.100000000000D+01
  </mgrwgt>
  </event>
  <event>
  5     66 0.20870961E-05 0.70568980E+02 0.75467711E-02 0.94811778E-01
        2 -1    0    0  502    0 0.00000000E+00 0.00000000E+00 0.21919220E+04 0.21919220E+04 0.32000000E+00 0.0000E+00 0.9000E+01
       -4 -1    0    0    0  501 0.00000000E+00 0.00000000E+00 -.16225485E+03 0.16226226E+03 0.15500000E+01 0.0000E+00 0.9000E+01
       25  1    1    2    0    0 0.37572325E+03 0.29266562E+03 0.12327272E+04 0.13274270E+04 0.12500000E+03 0.0000E+00 0.9000E+01
        2  1    1    2  502    0 -.30514936E+03 -.29251594E+03 0.84260028E+03 0.94268608E+03 0.32000000E+00 0.0000E+00 0.9000E+01
       -4  1    1    2    0  501 -.70573890E+02 -.14967577E+00 -.45660330E+02 0.84071187E+02 0.15500000E+01 0.0000E+00 0.9000E+01
#aMCatNLO 1  0  0  4  1 0.14159618D+02 0.00000000D+00  -5  6  0 0.00000000D+00 0.00000000D+00 0.00000000D+00 0.00000000D+00 0.00000000D+00
  <mgrwgt>
 0.1080919644D-02    7    2    0
 0.596371293638679D+03 0.000000000000000D+00 0.000000000000000D+00 0.596371293638679D+03
 0.596371293638679D+03 -.000000000000000D+00 -.000000000000000D+00 -.596371293638679D+03
 0.522321063018871D+03 0.375739586429851D+03 0.292687247160526D+03 0.174207437878755D+03
 0.426826551379973D+03 -.305170767505397D+03 -.292536461408730D+03 0.589417201101772D+02
 0.243594972878513D+03 -.705688189244545D+02 -.150785751795681D+00 -.233149157988932D+03
 0.000000000000000D+00 0.000000000000000D+00 -.000000000000000D+00 0.000000000000000D+00
 0.596371293638679D+03 0.000000000000000D+00 0.000000000000000D+00 0.596371293638679D+03
 0.596371293638679D+03 -.000000000000000D+00 -.000000000000000D+00 -.596371293638679D+03
 0.520062811506790D+03 0.373843698218836D+03 0.290869850189609D+03 0.174573616176917D+03
 0.408823171327468D+03 -.298662000659202D+03 -.271374485648055D+03 0.655231509906627D+02
 0.243691547598666D+03 -.714550958442500D+02 -.100037012078553D+01 -.232977979449868D+03
 0.201650568444328D+02 -.372660171538431D+01 -.184949944207686D+02 -.711878771771144D+01
0.365254562925D-04 0.000000000000D+00 0.000000000000D+00 0.106539436492D-06 0.000000000000D+00  6 2 -4 25 2 -4 21 0 0.33721934D+00 0.24962856D-01 0.24291085D+06 0.24291085D+06 0.24291085D+06 0.10914002D+01  1  2  2  3  6  4        2 0.208250799161D-03 0.100000000000D+01
0.653969818858D-05 0.000000000000D+00 -.140267369537D-06 0.106539436492D-06 0.000000000000D+00  6 2 -4 25 2 -4 21 2 0.33721934D+00 0.24962856D-01 0.24291085D+06 0.24291085D+06 0.24291085D+06 0.10914002D+01  1  2  3  3  6  4        2 0.444136836073D-04 0.100000000000D+01
-.222884861545D-04 0.000000000000D+00 0.000000000000D+00 0.106539436492D-06 0.000000000000D+00  6 2 -4 25 2 -4 21 2 0.33721934D+00 0.24962856D-01 0.24291085D+06 0.24291085D+06 0.24291085D+06 0.10914002D+01  1  2 15  3  6  4        2 -.151369947604D-03 0.100000000000D+01
0.157838050020D-03 0.000000000000D+00 0.000000000000D+00 0.106539436492D-06 0.000000000000D+00  6 2 -4 25 2 -4 21 2 0.33721934D+00 0.24962856D-01 0.24194305D+06 0.24194305D+06 0.24194305D+06 0.10915310D+01  1  2 12  3  6  4        2 0.107231923261D-02 0.100000000000D+01
-.493832370238D-04 0.000000000000D+00 0.000000000000D+00 0.106539436492D-06 0.000000000000D+00  6 2 -4 25 2 -4 21 2 0.33721934D+00 0.24962856D-01 0.24291085D+06 0.24291085D+06 0.24291085D+06 0.10914002D+01  1  2  4  3  6  4        2 -.335381144731D-03 0.100000000000D+01
-.738943992053D-03 0.000000000000D+00 0.000000000000D+00 0.106539436492D-06 0.000000000000D+00  6 2 -4 25 2 -4 21 2 0.33721934D+00 0.24962856D-01 0.24291085D+06 0.24291085D+06 0.24291085D+06 0.10914002D+01  1  2  5  3  6  4        2 -.501846166600D-02 0.100000000000D+01
0.774678471700D-03 0.000000000000D+00 -.000000000000D+00 0.106539436492D-06 0.000000000000D+00  6 2 -4 25 2 -4 21 2 0.33721934D+00 0.24962856D-01 0.24291085D+06 0.24291085D+06 0.24291085D+06 0.10914002D+01  1  2  6  3  6  4        2 0.526114868719D-02 0.100000000000D+01
  </mgrwgt>
  </event>
  <event>
  5     66 0.20870961E-05 0.22358324E+03 0.75467711E-02 0.93793360E-01
        2 -1    0    0  502    0 0.00000000E+00 0.00000000E+00 0.24262538E+04 0.24262539E+04 0.32000000E+00 0.0000E+00 0.9000E+01
       -4 -1    0    0    0  501 0.00000000E+00 0.00000000E+00 -.23349863E+03 0.23350378E+03 0.15500000E+01 0.0000E+00 0.9000E+01
       25  1    1    2    0    0 0.43537188E+03 0.12099973E+03 0.10092802E+04 0.11128617E+04 0.12500000E+03 0.0000E+00 0.9000E+01
        2  1    1    2  502    0 -.70903084E+02 -.21209252E+03 0.11479581E+04 0.11695377E+04 0.32000000E+00 0.0000E+00 0.9000E+01
       -4  1    1    2    0  501 -.36446880E+03 0.91092791E+02 0.35516894E+02 0.37735826E+03 0.15500000E+01 0.0000E+00 0.9000E+01
#aMCatNLO 1  0  0  2  5 0.81190446D+01 0.00000000D+00  -5  6  0 0.00000000D+00 0.00000000D+00 0.00000000D+00 0.00000000D+00 0.00000000D+00
  <mgrwgt>
 0.7189234295D-04   11    4    0
 0.752684408866087D+03 0.000000000000000D+00 0.000000000000000D+00 0.752684408866087D+03
 0.752684408866087D+03 0.000000000000000D+00 0.000000000000000D+00 -.752684408866087D+03
 0.496161660511435D+03 0.435405162363599D+03 0.120955826634137D+03 0.162306580124914D+03
 0.394169684526407D+03 -.708881828917231D+02 -.212047943807403D+03 0.324623282056308D+03
 0.615037472694332D+03 -.364516979471876D+03 0.910921171732666D+02 -.486929862181222D+03
 0.000000000000000D+00 0.000000000000000D+00 -.000000000000000D+00 -.000000000000000D+00
 0.752948192112962D+03 0.000000000000000D+00 0.000000000000000D+00 0.752948192112962D+03
 0.817874837914084D+03 0.000000000000000D+00 0.000000000000000D+00 -.817874837914084D+03
 0.495089931934575D+03 0.433623428165005D+03 0.122948514824564D+03 0.162306580124914D+03
 0.393577700979700D+03 -.723041266009742D+02 -.210464355015113D+03 0.324623282056308D+03
 0.616723079255032D+03 -.366731018689176D+03 0.935682944868850D+02 -.486929862181222D+03
 0.654323178577388D+02 0.541171712514506D+01 -.605245429633557D+01 -.649266458011219D+02
 0.752684408866087D+03 0.000000000000000D+00 0.000000000000000D+00 0.752684408866087D+03
 0.752684408866087D+03 0.000000000000000D+00 0.000000000000000D+00 -.752684408866087D+03
 0.496161660511435D+03 0.435405162363599D+03 0.120955826634137D+03 0.162306580124914D+03
 0.394169684526407D+03 -.708881828917231D+02 -.212047943807403D+03 0.324623282056308D+03
 0.000000000000000D+00 0.000000000000000D+00 -.000000000000000D+00 -.000000000000000D+00
 0.615037472694332D+03 -.364516979471876D+03 0.910921171732666D+02 -.486929862181222D+03
 0.752948192112962D+03 0.000000000000000D+00 0.000000000000000D+00 0.752948192112962D+03
 0.817874837914084D+03 0.000000000000000D+00 0.000000000000000D+00 -.817874837914084D+03
 0.495089931934575D+03 0.433623428165005D+03 0.122948514824564D+03 0.162306580124914D+03
 0.393577700979700D+03 -.723041266009742D+02 -.210464355015113D+03 0.324623282056308D+03
 0.654323178577388D+02 0.541171712514506D+01 -.605245429633557D+01 -.649266458011219D+02
 0.616723079255032D+03 -.366731018689176D+03 0.935682944868850D+02 -.486929862181222D+03
0.457909195117D-06 0.000000000000D+00 0.000000000000D+00 0.101175147600D-06 0.000000000000D+00  6 2 -4 25 2 -4 21 0 0.37327022D+00 0.35923264D-01 0.28524851D+06 0.28524851D+06 0.28524851D+06 0.10861757D+01  1  2  2  2  6  2       -4 0.923532023264D-06 0.100000000000D+01
0.224610503287D-07 0.000000000000D+00 -.175849187951D-08 0.101175147600D-06 0.000000000000D+00  6 2 -4 25 2 -4 21 2 0.37327022D+00 0.35923264D-01 0.28524851D+06 0.28524851D+06 0.28524851D+06 0.10861757D+01  1  2  3  2  6  2       -4 0.534444749866D-07 0.100000000000D+01
-.294521262817D-06 0.000000000000D+00 0.000000000000D+00 0.101175147600D-06 0.000000000000D+00  6 2 -4 25 2 -4 21 2 0.37327022D+00 0.35923264D-01 0.28524851D+06 0.28524851D+06 0.28524851D+06 0.10861757D+01  1  2 15  2  6  2       -4 -.700792439947D-06 0.100000000000D+01
0.125033561426D-03 0.000000000000D+00 0.000000000000D+00 0.101175147600D-06 0.000000000000D+00  6 2 -4 25 2 -4 21 2 0.37327022D+00 0.39110918D-01 0.28990988D+06 0.28990988D+06 0.28990988D+06 0.10856529D+01  1  2 12  2  6  2       -4 0.248400179511D-03 0.100000000000D+01
-.943196881824D-04 0.000000000000D+00 0.000000000000D+00 0.101175147600D-06 0.000000000000D+00  6 2 -4 25 2 -4 21 2 0.37327022D+00 0.35923264D-01 0.28524851D+06 0.28524851D+06 0.28524851D+06 0.10861757D+01  1  2  4  2  6  2       -4 -.224427003280D-03 0.100000000000D+01
-.132426881901D-03 0.000000000000D+00 -.114364427832D-05 0.101175147600D-06 0.000000000000D+00  6 2 -4 25 2 -4 21 2 0.37327022D+00 0.39041098D-01 0.28524851D+06 0.28524851D+06 0.28524851D+06 0.10861757D+01  1  2  5  2  6  2       -4 -.264519869599D-03 0.100000000000D+01
0.132068321094D-03 0.000000000000D+00 0.113969455436D-05 0.101175147600D-06 0.000000000000D+00  6 2 -4 25 2 -4 21 2 0.37327022D+00 0.35923264D-01 0.28524851D+06 0.28524851D+06 0.28524851D+06 0.10861757D+01  1  2  6  2  6  2       -4 0.314247195920D-03 0.100000000000D+01
0.379454775860D-06 0.000000000000D+00 0.000000000000D+00 0.101175147600D-06 0.731244351810D-08  6 2 -4 25 2 -4 21 2 0.37340103D+00 0.39034598D-01 0.28990988D+06 0.28990988D+06 0.28990988D+06 0.10856529D+01  1  2 11  2  6  2       -4 0.756134507515D-06 0.100000000000D+01
0.187220043690D-05 0.000000000000D+00 0.000000000000D+00 0.101175147600D-06 0.000000000000D+00  6 2 21 25 2 4 -4 2 0.37327022D+00 0.39110918D-01 0.28990988D+06 0.28990988D+06 0.28990988D+06 0.10856529D+01  3  4 12  6  5  2       -4 0.740200414880D-04 0.100000000000D+01
-.193940748846D-05 0.000000000000D+00 -.158209916510D-07 0.101175147600D-06 0.000000000000D+00  6 2 21 25 2 4 -4 2 0.37327022D+00 0.39041098D-01 0.28524851D+06 0.28524851D+06 0.28524851D+06 0.10861757D+01  3  4  5  6  5  2       -4 -.771413560659D-04 0.100000000000D+01
0.708254706442D-08 0.000000000000D+00 0.000000000000D+00 0.101175147600D-06 0.135420788058D-09  6 2 21 25 2 4 -4 2 0.37340103D+00 0.39034598D-01 0.28990988D+06 0.28990988D+06 0.28990988D+06 0.10856529D+01  3  4 11  6  5  2       -4 0.280836410674D-06 0.100000000000D+01
  </mgrwgt>
  </event>
  <event>
  5     66 0.20870961E-05 0.21058912E+03 0.75467711E-02 0.94367058E-01
        2 -1    0    0  502    0 0.00000000E+00 0.00000000E+00 0.28801428E+04 0.28801428E+04 0.32000000E+00 0.0000E+00 0.9000E+01
       -4 -1    0    0    0  501 0.00000000E+00 0.00000000E+00 -.48650815E+03 0.48651062E+03 0.15500000E+01 0.0000E+00 0.9000E+01
       25  1    1    2    0    0 0.46763285E+03 -.18633701E+03 0.73956142E+03 0.90331504E+03 0.12500000E+03 0.0000E+00 0.9000E+01
        2  1    1    2  502    0 -.20099727E+03 0.62861249E+02 0.19990886E+04 0.20101509E+04 0.32000000E+00 0.0000E+00 0.9000E+01
       -4  1    1    2    0  501 -.26663558E+03 0.12347576E+03 -.34501541E+03 0.45318742E+03 0.15500000E+01 0.0000E+00 0.9000E+01
#aMCatNLO 1  0  0  4  1 0.14159618D+02 0.00000000D+00  -5  6  0 0.00000000D+00 0.00000000D+00 0.00000000D+00 0.00000000D+00 0.00000000D+00
  <mgrwgt>
 0.1770147057D-03    1    2    0
 0.118373016552665D+04 0.000000000000000D+00 0.000000000000000D+00 0.118373016552665D+04
 0.118373016552665D+04 -.000000000000000D+00 -.000000000000000D+00 -.118373016552665D+04
 0.536843107009535D+03 0.467639960481048D+03 -.186341330861982D+03 0.138438785452345D+03
 0.837315759467242D+03 -.200988975679227D+03 0.628586549937791D+02 0.810401074900566D+03
 0.993301464576532D+03 -.266650984801821D+03 0.123482675868203D+03 -.948839860352910D+03
 0.000000000000000D+00 0.000000000000000D+00 0.000000000000000D+00 -.000000000000000D+00
 0.118373016552665D+04 0.000000000000000D+00 0.000000000000000D+00 0.118373016552665D+04
 0.118373016552665D+04 -.000000000000000D+00 -.000000000000000D+00 -.118373016552665D+04
 0.540575255467937D+03 0.454165130104794D+03 -.182127121048443D+03 0.192770208278476D+03
 0.176840669433653D+03 0.116250454078475D+02 -.175091351907835D+03 -.219202913323407D+02
 0.910410038157183D+03 -.290459925207918D+03 0.130928845319521D+03 -.852840610482915D+03
 0.739634367994536D+03 -.175330250304723D+03 0.226289627636757D+03 0.681990693536779D+03
0.732827390334D-03 0.000000000000D+00 0.000000000000D+00 0.774006937238D-05 0.000000000000D+00  6 2 -4 25 2 -4 21 2 0.44309908D+00 0.74847599D-01 0.26169880D+06 0.26169880D+06 0.26169880D+06 0.10889681D+01  1  2 14  3  6  4        2 0.177014705745D-03 0.100000000000D+01
  </mgrwgt>
  </event>
  <event>
  6     66 0.20870961E-05 0.81909479E+02 0.75467711E-02 0.93950764E-01
        2 -1    0    0  502    0 0.00000000E+00 0.00000000E+00 0.35357754E+03 0.35357768E+03 0.32000000E+00 0.0000E+00 0.9000E+01
       21 -1    0    0  503  501 0.00000000E+00 0.00000000E+00 -.10383331E+04 0.10383334E+04 0.75000000E+00 0.0000E+00 0.9000E+01
       25  1    1    2    0    0 -.39173114E+03 0.32980852E+03 -.42397012E+02 0.52881893E+03 0.12500000E+03 0.0000E+00 0.9000E+01
        2  1    1    2  502    0 -.16788191E+01 0.70892215E+01 0.76555658E+01 0.10572870E+02 0.32000000E+00 0.0000E+00 0.9000E+01
        4  1    1    2  503    0 0.87383115E+02 -.26524713E+02 -.22889335E+03 0.24644256E+03 0.15500000E+01 0.0000E+00 0.9000E+01
       -4  1    1    2    0  501 0.30602685E+03 -.31037303E+03 -.42112076E+03 0.60607668E+03 0.15500000E+01 0.0000E+00 0.9000E+01
#aMCatNLO 2  0  0  2  5 0.74165396D+02 0.00000000D+00  -5  6  0 0.00000000D+00 0.00000000D+00 0.00000000D+00 0.00000000D+00 0.00000000D+00
  <mgrwgt>
 0.6192599249D-04    1    2    0
 0.523437751392214D+03 0.000000000000000D+00 0.000000000000000D+00 0.523437751392214D+03
 0.523437751392214D+03 0.000000000000000D+00 0.000000000000000D+00 -.523437751392214D+03
 0.519353936822824D+03 -.346976130708997D+03 0.316384606547609D+03 0.183335367977086D+03
 0.142764771428075D+02 -.443552148641188D+00 0.657774868543039D+01 0.126631071752497D+02
 0.000000000000000D+00 0.000000000000000D+00 -.000000000000000D+00 -.000000000000000D+00
 0.513245088818797D+03 0.347419682857639D+03 -.322962355233039D+03 -.195998475152336D+03
 0.538793106745309D+03 0.000000000000000D+00 0.000000000000000D+00 0.538793106745309D+03
 0.681387356707561D+03 0.000000000000000D+00 0.000000000000000D+00 -.681387356707561D+03
 0.558304625876985D+03 -.391867189882288D+03 0.330011065902503D+03 0.183335367977086D+03
 0.145343750775775D+02 -.164370005877152D+01 0.694204765761820D+01 0.126631071752497D+02
 0.169329528525174D+03 0.873831145634786D+02 -.265247129569120D+02 -.142594249962252D+03
 0.478011933973132D+03 0.306127775377581D+03 -.310428400603209D+03 -.195998475152336D+03
0.228068439126D-05 0.000000000000D+00 0.000000000000D+00 0.562047897873D-07 0.144966843605D-11  6 2 21 25 2 4 -4 2 0.54396225D-01 0.15974255D+00 0.28184434D+06 0.28184434D+06 0.28184434D+06 0.10865634D+01  1  2  1  6  5  2       -4 0.619259924903D-04 0.100000000000D+01
  </mgrwgt>
  </event>
  <event>
  5     66 0.20870961E-05 0.14053967E+03 0.75467711E-02 0.93201568E-01
        2 -1    0    0  502    0 0.00000000E+00 0.00000000E+00 0.24397935E+04 0.24397936E+04 0.32000000E+00 0.0000E+00 0.9000E+01
       -4 -1    0    0    0  501 0.00000000E+00 0.00000000E+00 -.94302547E+03 0.94302674E+03 0.15500000E+01 0.0000E+00 0.9000E+01
       25  1    1    2    0    0 -.52194010E+03 -.20129600E+03 -.11706402E+03 0.58503892E+03 0.12500000E+03 0.0000E+00 0.9000E+01
        2  1    1    2  502    0 0.11929221E+03 0.74298447E+02 0.21279126E+04 0.21325485E+04 0.32000000E+00 0.0000E+00 0.9000E+01
       -4  1    1    2    0  501 0.40264789E+03 0.12699755E+03 -.51408048E+03 0.66523292E+03 0.15500000E+01 0.0000E+00 0.9000E+01
#aMCatNLO 1  0  0  4  1 0.80863057D+01 0.00000000D+00  -5  6  0 0.00000000D+00 0.00000000D+00 0.00000000D+00 0.00000000D+00 0.00000000D+00
  <mgrwgt>
 0.9948226390D-03    8    2    0
 0.151683539867341D+04 0.000000000000000D+00 0.000000000000000D+00 0.151683539867341D+04
 0.151683539867341D+04 -.000000000000000D+00 -.000000000000000D+00 -.151683539867341D+04
 0.710129893616771D+03 -.521922409675149D+03 -.201290448440841D+03 -.419211902805177D+03
 0.132812308400238D+04 0.119293742446385D+03 0.742994007556460D+02 0.132066631982514D+04
 0.995417819727674D+03 0.402628667228765D+03 0.126991047685195D+03 -.901454417019963D+03
 0.000000000000000D+00 0.000000000000000D+00 0.000000000000000D+00 0.000000000000000D+00
 0.151683539867341D+04 0.000000000000000D+00 0.000000000000000D+00 0.151683539867341D+04
 0.151683539867341D+04 -.000000000000000D+00 -.000000000000000D+00 -.151683539867341D+04
 0.710108427197685D+03 -.521919527022414D+03 -.201288653045991D+03 -.419179989795314D+03
 0.101657780581469D+04 0.834743584785269D+02 0.550320760455466D+02 0.101164911770719D+04
 0.995379264558836D+03 0.402632707942620D+03 0.126993564352138D+03 -.901409683452325D+03
 0.311605299775611D+03 0.358124606012675D+02 0.192630126483070D+02 0.308940555540451D+03
0.167074710139D-04 0.000000000000D+00 0.000000000000D+00 0.162784186579D-04 0.000000000000D+00  6 2 -4 25 2 -4 21 0 0.37535295D+00 0.14508094D+00 0.32257265D+06 0.32257265D+06 0.32257265D+06 0.10822286D+01  1  2  2  3  6  4        2 0.936035365583D-06 0.100000000000D+01
0.351885808369D-05 0.000000000000D+00 -.641610878716D-07 0.162784186579D-04 0.000000000000D+00  6 2 -4 25 2 -4 21 2 0.37535295D+00 0.14508094D+00 0.32257265D+06 0.32257265D+06 0.32257265D+06 0.10822286D+01  1  2  3  3  6  4        2 0.230898587603D-06 0.100000000000D+01
-.106558968262D-04 0.000000000000D+00 0.000000000000D+00 0.162784186579D-04 0.000000000000D+00  6 2 -4 25 2 -4 21 2 0.37535295D+00 0.14508094D+00 0.32257265D+06 0.32257265D+06 0.32257265D+06 0.10822286D+01  1  2 15  3  6  4        2 -.699213059548D-06 0.100000000000D+01
0.295038104209D-01 0.000000000000D+00 0.000000000000D+00 0.162784186579D-04 0.000000000000D+00  6 2 -4 25 2 -4 21 2 0.37535295D+00 0.14508094D+00 0.32263433D+06 0.32263433D+06 0.32263433D+06 0.10822225D+01  1  2 12  3  6  4        2 0.193591920996D-02 0.100000000000D+01
-.224693637172D-01 0.000000000000D+00 0.000000000000D+00 0.162784186579D-04 0.000000000000D+00  6 2 -4 25 2 -4 21 2 0.37535295D+00 0.14508094D+00 0.32257265D+06 0.32257265D+06 0.32257265D+06 0.10822286D+01  1  2  4  3  6  4        2 -.147438294562D-02 0.100000000000D+01
-.307829332975D-01 0.000000000000D+00 0.000000000000D+00 0.162784186579D-04 0.000000000000D+00  6 2 -4 25 2 -4 21 2 0.37535295D+00 0.14508094D+00 0.32257265D+06 0.32257265D+06 0.32257265D+06 0.10822286D+01  1  2  5  3  6  4        2 -.201989840216D-02 0.100000000000D+01
0.388230924665D-01 0.000000000000D+00 -.000000000000D+00 0.162784186579D-04 0.000000000000D+00  6 2 -4 25 2 -4 21 2 0.37535295D+00 0.14508094D+00 0.32257265D+06 0.32257265D+06 0.32257265D+06 0.10822286D+01  1  2  6  3  6  4        2 0.254747335746D-02 0.100000000000D+01
0.799150526009D-04 0.000000000000D+00 0.000000000000D+00 0.162784186579D-04 0.613206626609D-06  6 2 -4 25 2 -4 21 2 0.37535295D+00 0.14508094D+00 0.32263433D+06 0.32263433D+06 0.32263433D+06 0.10822225D+01  1  2 11  3  6  4        2 0.524369846769D-05 0.100000000000D+01
  </mgrwgt>
  </event>
  <event>
  5     66 0.20870961E-05 0.14921240E+03 0.75467711E-02 0.91919352E-01
        2 -1    0    0  502    0 0.00000000E+00 0.00000000E+00 0.22610072E+04 0.22610072E+04 0.32000000E+00 0.0000E+00 0.9000E+01
       -4 -1    0    0    0  501 0.00000000E+00 0.00000000E+00 -.43419195E+03 0.43419471E+03 0.15500000E+01 0.0000E+00 0.9000E+01
       25  1    1    2    0    0 0.17471947E+03 -.42020241E+03 0.85809698E+03 0.97931220E+03 0.12500000E+03 0.0000E+00 0.9000E+01
        2  1    1    2  502    0 -.41890339E+02 0.35225252E+03 0.13026780E+04 0.13501136E+04 0.32000000E+00 0.0000E+00 0.9000E+01
       -4  1    1    2    0  501 -.13282914E+03 0.67949889E+02 -.33395967E+03 0.36577620E+03 0.15500000E+01 0.0000E+00 0.9000E+01
#aMCatNLO 1  0  0  2  5 0.28744932D+03 0.00000000D+00  -5  6  0 0.00000000D+00 0.00000000D+00 0.00000000D+00 0.00000000D+00 0.00000000D+00
  <mgrwgt>
 0.1141357375D-03    7    4    0
 0.990815262645996D+03 0.000000000000000D+00 0.000000000000000D+00 0.990815262645996D+03
 0.990815262645996D+03 0.000000000000000D+00 0.000000000000000D+00 -.990815262645996D+03
 0.540918357081553D+03 0.174726228282062D+03 -.420180945480633D+03 0.264360335968036D+03
 0.635323419937033D+03 -.418870030446124D+02 0.352224474960004D+03 0.527085615565041D+03
 0.805388748273406D+03 -.132839225237450D+03 0.679564705206288D+02 -.791445951533077D+03
 0.000000000000000D+00 -.000000000000000D+00 -.000000000000000D+00 -.000000000000000D+00
 0.104784040204930D+04 0.000000000000000D+00 0.000000000000000D+00 0.104784040204930D+04
 0.144393846173093D+04 0.000000000000000D+00 0.000000000000000D+00 -.144393846173093D+04
 0.542793276565433D+03 0.245082678782489D+03 -.386066878160126D+03 0.264360335968036D+03
 0.658796827604276D+03 0.421295418653398D+02 0.392961977331263D+03 0.527085615565041D+03
 0.800780153664594D+03 -.285639371109997D+02 0.118516926224536D+03 -.791445951533077D+03
 0.489408605945936D+03 -.258648283536829D+03 -.125412025395673D+03 -.396098059681629D+03
 0.990815262645996D+03 0.000000000000000D+00 0.000000000000000D+00 0.990815262645996D+03
 0.990815262645996D+03 0.000000000000000D+00 0.000000000000000D+00 -.990815262645996D+03
 0.540918357081553D+03 0.174726228282062D+03 -.420180945480633D+03 0.264360335968036D+03
 0.635323419937033D+03 -.418870030446124D+02 0.352224474960004D+03 0.527085615565041D+03
 0.000000000000000D+00 -.000000000000000D+00 -.000000000000000D+00 -.000000000000000D+00
 0.805388748273406D+03 -.132839225237450D+03 0.679564705206288D+02 -.791445951533077D+03
 0.104784040204930D+04 0.000000000000000D+00 0.000000000000000D+00 0.104784040204930D+04
 0.144393846173093D+04 0.000000000000000D+00 0.000000000000000D+00 -.144393846173093D+04
 0.542793276565433D+03 0.245082678782489D+03 -.386066878160126D+03 0.264360335968036D+03
 0.658796827604276D+03 0.421295418653398D+02 0.392961977331263D+03 0.527085615565041D+03
 0.489408605945936D+03 -.258648283536829D+03 -.125412025395673D+03 -.396098059681629D+03
 0.800780153664594D+03 -.285639371109997D+02 0.118516926224536D+03 -.791445951533077D+03
0.134036263493D-03 0.000000000000D+00 0.000000000000D+00 0.328853329411D-05 0.000000000000D+00  6 2 -4 25 2 -4 21 0 0.34784748D+00 0.66798976D-01 0.23806418D+06 0.23806418D+06 0.23806418D+06 0.10920610D+01  1  2  2  2  6  2       -4 0.838264273659D-04 0.100000000000D+01
0.194973906984D-04 0.000000000000D+00 -.514734544370D-06 0.328853329411D-05 0.000000000000D+00  6 2 -4 25 2 -4 21 2 0.34784748D+00 0.66798976D-01 0.23806418D+06 0.23806418D+06 0.23806418D+06 0.10920610D+01  1  2  3  2  6  2       -4 0.145421616076D-04 0.100000000000D+01
-.887435566915D-04 0.000000000000D+00 0.000000000000D+00 0.328853329411D-05 0.000000000000D+00  6 2 -4 25 2 -4 21 2 0.34784748D+00 0.66798976D-01 0.23806418D+06 0.23806418D+06 0.23806418D+06 0.10920610D+01  1  2 15  2  6  2       -4 -.661895308455D-04 0.100000000000D+01
-.975244497101D-05 0.000000000000D+00 0.000000000000D+00 0.328853329411D-05 0.000000000000D+00  6 2 -4 25 2 -4 21 2 0.34784748D+00 0.66798976D-01 0.23806418D+06 0.23806418D+06 0.23806418D+06 0.10920610D+01  1  2  4  2  6  2       -4 -.727387746552D-05 0.100000000000D+01
-.293031329628D-03 0.000000000000D+00 -.831782015338D-04 0.328853329411D-05 0.000000000000D+00  6 2 -4 25 2 -4 21 2 0.34784748D+00 0.10067566D+00 0.23806418D+06 0.23806418D+06 0.23806418D+06 0.10920610D+01  1  2  5  2  6  2       -4 -.750794441119D-04 0.100000000000D+01
0.307457719568D-03 0.000000000000D+00 0.766389634982D-04 0.328853329411D-05 0.000000000000D+00  6 2 -4 25 2 -4 21 2 0.34784748D+00 0.66798976D-01 0.23806418D+06 0.23806418D+06 0.23806418D+06 0.10920610D+01  1  2  6  2  6  2       -4 0.229317856662D-03 0.100000000000D+01
-.112725070701D-04 0.000000000000D+00 -.403343634027D-05 0.328853329411D-05 0.000000000000D+00  6 2 21 25 2 4 -4 2 0.34784748D+00 0.10067566D+00 0.23806418D+06 0.23806418D+06 0.23806418D+06 0.10920610D+01  3  4  5  6  5  2       -4 -.650078557230D-04 0.100000000000D+01
  </mgrwgt>
  </event>
  <event>
  5     66 0.20870961E-05 0.49031428E+02 0.75467711E-02 0.91973484E-01
        2 -1    0    0  502    0 0.00000000E+00 0.00000000E+00 0.17044274E+04 0.17044274E+04 0.32000000E+00 0.0000E+00 0.9000E+01
       -4 -1    0    0    0  501 0.00000000E+00 0.00000000E+00 -.82795038E+03 0.82795183E+03 0.15500000E+01 0.0000E+00 0.9000E+01
       25  1    1    2    0    0 0.62735914E+03 0.35718149E+02 0.12843159E+03 0.65343320E+03 0.12500000E+03 0.0000E+00 0.9000E+01
        2  1    1    2  502    0 -.45625121E+02 -.17963650E+02 0.11630801E+04 0.11641133E+04 0.32000000E+00 0.0000E+00 0.9000E+01
       -4  1    1    2    0  501 -.58173402E+03 -.17754499E+02 -.41503467E+03 0.71483276E+03 0.15500000E+01 0.0000E+00 0.9000E+01
#aMCatNLO 1  0  0  4  1 0.52451018D+01 0.00000000D+00  -5  6  0 0.00000000D+00 0.00000000D+00 0.00000000D+00 0.00000000D+00 0.00000000D+00
  <mgrwgt>
 0.5790308602D-03    8    2    0
 0.118793230579595D+04 0.000000000000000D+00 0.000000000000000D+00 0.118793230579595D+04
 0.118793230579595D+04 -.000000000000000D+00 -.000000000000000D+00 -.118793230579595D+04
 0.649127597903223D+03 0.627393968332132D+03 0.357188499208655D+02 -.104127857081561D+03
 0.811686628344742D+03 -.456226210687804D+02 -.179626657772292D+02 0.810204357997811D+03
 0.915050385343941D+03 -.581771347263352D+03 -.177561841436364D+02 -.706076500916251D+03
 0.000000000000000D+00 -.000000000000000D+00 0.000000000000000D+00 0.000000000000000D+00
 0.118793230579595D+04 0.000000000000000D+00 0.000000000000000D+00 0.118793230579595D+04
 0.118793230579595D+04 -.000000000000000D+00 -.000000000000000D+00 -.118793230579595D+04
 0.649122572965559D+03 0.627392658597890D+03 0.357183342486421D+02 -.104104597734205D+03
 0.589670133702985D+03 -.280437272880574D+02 -.142517973129663D+02 0.588830452859259D+03
 0.915026273852927D+03 -.581773193528517D+03 -.177569110603132D+02 -.706043713407604D+03
 0.222045631070435D+03 -.175757377813159D+02 -.370962587536258D+01 0.221317858282550D+03
0.318928734278D-05 0.000000000000D+00 0.000000000000D+00 0.120574263758D-04 0.000000000000D+00  6 2 -4 25 2 -4 21 0 0.26221971D+00 0.12737710D+00 0.40436574D+06 0.40436574D+06 0.40436574D+06 0.10750879D+01  1  2  2  3  6  4        2 0.679534858155D-06 0.100000000000D+01
0.164015713850D-05 0.000000000000D+00 -.122477031549D-07 0.120574263758D-04 0.000000000000D+00  6 2 -4 25 2 -4 21 2 0.26221971D+00 0.12737710D+00 0.40436574D+06 0.40436574D+06 0.40436574D+06 0.10750879D+01  1  2  3  3  6  4        2 0.403916434617D-06 0.100000000000D+01
-.197095469551D-05 0.000000000000D+00 0.000000000000D+00 0.120574263758D-04 0.000000000000D+00  6 2 -4 25 2 -4 21 2 0.26221971D+00 0.12737710D+00 0.40436574D+06 0.40436574D+06 0.40436574D+06 0.10750879D+01  1  2 15  3  6  4        2 -.485380927666D-06 0.100000000000D+01
0.242156744940D-02 0.000000000000D+00 0.000000000000D+00 0.120574263758D-04 0.000000000000D+00  6 2 -4 25 2 -4 21 2 0.26221971D+00 0.12737710D+00 0.40461341D+06 0.40461341D+06 0.40461341D+06 0.10750688D+01  1  2 12  3  6  4        2 0.596313050401D-03 0.100000000000D+01
-.309533965244D-02 0.000000000000D+00 0.000000000000D+00 0.120574263758D-04 0.000000000000D+00  6 2 -4 25 2 -4 21 2 0.26221971D+00 0.12737710D+00 0.40436574D+06 0.40436574D+06 0.40436574D+06 0.10750879D+01  1  2  4  3  6  4        2 -.762279739544D-03 0.100000000000D+01
-.527863462596D-02 0.000000000000D+00 0.000000000000D+00 0.120574263758D-04 0.000000000000D+00  6 2 -4 25 2 -4 21 2 0.26221971D+00 0.12737710D+00 0.40436574D+06 0.40436574D+06 0.40436574D+06 0.10750879D+01  1  2  5  3  6  4        2 -.129995305189D-02 0.100000000000D+01
0.691050138468D-02 0.000000000000D+00 -.000000000000D+00 0.120574263758D-04 0.000000000000D+00  6 2 -4 25 2 -4 21 2 0.26221971D+00 0.12737710D+00 0.40436574D+06 0.40436574D+06 0.40436574D+06 0.10750879D+01  1  2  6  3  6  4        2 0.170182784027D-02 0.100000000000D+01
0.139095839159D-02 0.000000000000D+00 0.000000000000D+00 0.120574263758D-04 0.804528347325D-06  6 2 -4 25 2 -4 21 2 0.26221971D+00 0.12737710D+00 0.40461341D+06 0.40461341D+06 0.40461341D+06 0.10750688D+01  1  2 11  3  6  4        2 0.342524690641D-03 0.100000000000D+01
  </mgrwgt>
  </event>
  <event>
  5     66 0.20870961E-05 0.19905994E+02 0.75467711E-02 0.94616389E-01
        2 -1    0    0  502    0 0.00000000E+00 0.00000000E+00 0.30595136E+04 0.30595136E+04 0.32000000E+00 0.0000E+00 0.9000E+01
       -4 -1    0    0    0  501 0.00000000E+00 0.00000000E+00 -.25056613E+03 0.25057093E+03 0.15500000E+01 0.0000E+00 0.9000E+01
       25  1    1    2    0    0 -.33184508E+02 -.46118695E+03 0.14890547E+04 0.15641942E+04 0.12500000E+03 0.0000E+00 0.9000E+01
        2  1    1    2  502    0 0.54390640E+01 0.19156008E+02 0.13024928E+04 0.13026451E+04 0.32000000E+00 0.0000E+00 0.9000E+01
       -4  1    1    2    0  501 0.27745444E+02 0.44203094E+03 0.17399895E+02 0.44324522E+03 0.15500000E+01 0.0000E+00 0.9000E+01
#aMCatNLO 1  0  0  1  4 0.51730779D+01 0.00000000D+00  -5  6  0 0.00000000D+00 0.00000000D+00 0.00000000D+00 0.00000000D+00 0.00000000D+00
  <mgrwgt>
 0.5300436935D-03    7    2    0
 0.875567503865718D+03 0.000000000000000D+00 0.000000000000000D+00 0.875567503865718D+03
 0.875567503865718D+03 0.000000000000000D+00 0.000000000000000D+00 -.875567503865718D+03
 0.568279759055011D+03 -.331867396084625D+02 -.461242486253141D+03 0.305730099500855D+03
 0.372897786836900D+03 0.543709221396049D+01 0.191490637468124D+02 0.372366097830798D+03
 0.809957461839526D+03 0.277496473945020D+02 0.442093422506328D+03 -.678096197331653D+03
 0.000000000000000D+00 0.000000000000000D+00 -.000000000000000D+00 0.000000000000000D+00
 0.106217539436942D+04 0.000000000000000D+00 0.000000000000000D+00 0.106217539436942D+04
 0.880182664707361D+03 0.000000000000000D+00 0.000000000000000D+00 -.880182664707361D+03
 0.567984399715880D+03 -.511528961478811D+02 -.459231712532453D+03 0.305730099500855D+03
 0.372982433198609D+03 -.635646889537655D+01 0.204690000782116D+02 0.372366097830798D+03
 0.811054958203738D+03 0.211884432284472D+01 0.444962024098636D+03 -.678096197331653D+03
 0.190336267958552D+03 0.553905207204130D+02 -.619931164439470D+01 0.181992729662058D+03
0.511229726916D-04 0.000000000000D+00 0.000000000000D+00 0.201824728691D-04 0.000000000000D+00  6 2 -4 25 2 -4 21 0 0.47069477D+00 0.38549006D-01 0.22179427D+06 0.22179427D+06 0.22179427D+06 0.10943920D+01  1  2  2  1  6  1        2 0.373879865369D-04 0.100000000000D+01
0.304023330394D-04 0.000000000000D+00 -.196325676123D-06 0.201824728691D-04 0.000000000000D+00  6 2 -4 25 2 -4 21 2 0.47069477D+00 0.38549006D-01 0.22179427D+06 0.22179427D+06 0.22179427D+06 0.10943920D+01  1  2  3  1  6  1        2 0.266298475152D-04 0.100000000000D+01
-.324725435244D-04 0.000000000000D+00 0.000000000000D+00 0.201824728691D-04 0.000000000000D+00  6 2 -4 25 2 -4 21 2 0.47069477D+00 0.38549006D-01 0.22179427D+06 0.22179427D+06 0.22179427D+06 0.10943920D+01  1  2 15  1  6  1        2 -.284431751131D-04 0.100000000000D+01
-.520594063326D-05 0.000000000000D+00 0.000000000000D+00 0.201824728691D-04 0.000000000000D+00  6 2 -4 25 2 -4 21 2 0.47069477D+00 0.38549006D-01 0.22179427D+06 0.22179427D+06 0.22179427D+06 0.10943920D+01  1  2  4  1  6  1        2 -.455995942999D-05 0.100000000000D+01
-.892140912692D-03 0.000000000000D+00 -.439225386948D-04 0.201824728691D-04 0.000000000000D+00  6 2 -4 25 2 -4 21 2 0.57160304D+00 0.38549006D-01 0.22179427D+06 0.22179427D+06 0.22179427D+06 0.10943920D+01  1  2  5  1  6  1        2 -.275730478766D-03 0.100000000000D+01
0.884745880483D-03 0.000000000000D+00 0.431068287934D-04 0.201824728691D-04 0.000000000000D+00  6 2 -4 25 2 -4 21 2 0.47069477D+00 0.38549006D-01 0.22179427D+06 0.22179427D+06 0.22179427D+06 0.10943920D+01  1  2  6  1  6  1        2 0.774961837844D-03 0.100000000000D+01
-.244813832256D-04 0.000000000000D+00 -.122896433870D-05 0.201824728691D-04 0.000000000000D+00  6 21 -4 25 2 -4 -2 2 0.57160304D+00 0.38549006D-01 0.22179427D+06 0.22179427D+06 0.22179427D+06 0.10943920D+01  1  2  5  5  6  1        2 -.202365136686D-06 0.100000000000D+01
  </mgrwgt>
  </event>
  <event>
  5     66 0.20870961E-05 0.24964585E+03 0.75467711E-02 0.82368324E-01
        2 -1    0    0  502    0 0.00000000E+00 0.00000000E+00 0.20092722E+04 0.20092722E+04 0.32000000E+00 0.0000E+00 0.9000E+01
       -4 -1    0    0    0  501 0.00000000E+00 0.00000000E+00 -.74592634E+03 0.74592795E+03 0.15500000E+01 0.0000E+00 0.9000E+01
       25  1    1    2    0    0 -.13138112E+03 -.66955085E+03 0.14625409E+04 0.16187063E+04 0.12500000E+03 0.0000E+00 0.9000E+01
        2  1    1    2  502    0 0.21793777E+03 0.43542316E+03 0.30453282E+03 0.57430875E+03 0.32000000E+00 0.0000E+00 0.9000E+01
       -4  1    1    2    0  501 -.86556657E+02 0.23412769E+03 -.50372790E+03 0.56218505E+03 0.15500000E+01 0.0000E+00 0.9000E+01
#aMCatNLO 1  0  0  2  1 0.35755339D+02 0.00000000D+00  -5  6  0 0.00000000D+00 0.00000000D+00 0.00000000D+00 0.00000000D+00 0.00000000D+00
  <mgrwgt>
 0.9614957869D-05    3    2    0
 0.122424314419539D+04 0.000000000000000D+00 0.000000000000000D+00 0.122424314419539D+04
 0.122424314419539D+04 0.000000000000000D+00 0.000000000000000D+00 -.122424314419539D+04
 0.106687798260413D+04 -.131302234563272D+03 -.669438199583620D+03 0.810688503620462D+03
 0.488960695599399D+03 0.217866535557331D+03 0.435280830276449D+03 0.463393279962023D+02
 0.892647610187248D+03 -.865643009940586D+02 0.234157369307170D+03 -.857027831616664D+03
 0.000000000000000D+00 -.000000000000000D+00 0.000000000000000D+00 0.000000000000000D+00
 0.259985254040843D+04 0.000000000000000D+00 0.000000000000000D+00 0.259985254040843D+04
 0.189879141782844D+04 0.000000000000000D+00 0.000000000000000D+00 -.189879141782844D+04
 0.155449852484105D+04 0.240696012779951D+03 -.129834134312301D+04 0.810688503620462D+03
 0.411932455331204D+03 0.345711838297272D+03 0.219144562554438D+03 0.463393279962023D+02
 0.894586262889837D+03 0.167061176494135D+03 -.194623844618379D+03 -.857027831616664D+03
 0.163762671517477D+04 -.753469027571358D+03 0.127382062518695D+04 0.701061122579986D+03
0.137550159862D-03 0.000000000000D+00 0.000000000000D+00 0.144302954640D-07 0.000000000000D+00  6 2 -4 25 2 -4 21 0 0.30911892D+00 0.11475802D+00 0.51119399D+06 0.51119399D+06 0.51119399D+06 0.10678315D+01  1  2  2  2  6  2       -4 0.269127270888D-04 0.100000000000D+01
0.108875137189D-04 0.000000000000D+00 -.528228831660D-06 0.144302954640D-07 0.000000000000D+00  6 2 -4 25 2 -4 21 2 0.30911892D+00 0.11475802D+00 0.51119399D+06 0.51119399D+06 0.51119399D+06 0.10678315D+01  1  2  3  2  6  2       -4 0.242901812469D-05 0.100000000000D+01
-.884207761386D-04 0.000000000000D+00 0.000000000000D+00 0.144302954640D-07 0.000000000000D+00  6 2 -4 25 2 -4 21 2 0.30911892D+00 0.11475802D+00 0.51119399D+06 0.51119399D+06 0.51119399D+06 0.10678315D+01  1  2 15  2  6  2       -4 -.197267873443D-04 0.100000000000D+01
  </mgrwgt>
  </event>
  <event>
  6     66 0.20870961E-05 0.14146245E+03 0.75467711E-02 0.92633131E-01
        2 -1    0    0  502    0 0.00000000E+00 0.00000000E+00 0.30072703E+04 0.30072703E+04 0.32000000E+00 0.0000E+00 0.9000E+01
       -4 -1    0    0    0  501 0.00000000E+00 0.00000000E+00 -.57631543E+03 0.57631751E+03 0.15500000E+01 0.0000E+00 0.9000E+01
       25  1    1    2    0    0 -.22812482E+02 -.56539344E+03 0.15624439E+03 0.60018952E+03 0.12500000E+03 0.0000E+00 0.9000E+01
        2  1    1    2  502    0 -.31904018E+02 0.18751189E+03 0.24573509E+04 0.24647013E+04 0.32000000E+00 0.0000E+00 0.9000E+01
       -4  1    1    2    0  503 -.66361637E+02 0.71785773E+02 -.16156993E+03 0.18884997E+03 0.15500000E+01 0.0000E+00 0.9000E+01
       21  1    1    2  503  501 0.12107814E+03 0.30609578E+03 -.21070568E+02 0.32984704E+03 0.75000000E+00 0.0000E+00 0.9000E+01
#aMCatNLO 2  0  0  5  2 0.14942581D+03 0.00000000D+00  -5  6  0 0.00000000D+00 0.00000000D+00 0.00000000D+00 0.00000000D+00 0.00000000D+00
  <mgrwgt>
 0.2201489884D-04    1    2    0
 0.131648775584638D+04 0.000000000000000D+00 0.000000000000000D+00 0.131648775584638D+04
 0.131648775584638D+04 -.000000000000000D+00 -.000000000000000D+00 -.131648775584638D+04
 0.671936035945368D+03 -.237170192561807D+02 -.571645345848748D+03 -.329442161796334D+03
 0.110355733767255D+04 -.333875892927177D+02 0.177281410651572D+03 0.108871271134746D+04
 0.857482138074835D+03 0.571046085488984D+02 0.394363935197176D+03 -.759270549551124D+03
 0.000000000000000D+00 0.000000000000000D+00 0.000000000000000D+00 0.000000000000000D+00
 0.131648775584638D+04 0.000000000000000D+00 0.000000000000000D+00 0.131648775584638D+04
 0.131648775584638D+04 -.000000000000000D+00 -.000000000000000D+00 -.131648775584638D+04
 0.672628252475336D+03 -.228070427503743D+02 -.565361055930895D+03 -.341541331709225D+03
 0.108580169175673D+04 -.319058711653564D+02 0.187514143287483D+03 0.106901158799805D+04
 0.405342873564186D+03 -.663888974172799D+02 0.713967346591143D+02 -.393443599171476D+03
 0.469202693896503D+03 0.121101811333011D+03 0.306450177984298D+03 -.334026657117349D+03
0.176780996474D-03 0.000000000000D+00 0.000000000000D+00 0.443427142324D-05 0.707523156521D-10  6 2 -4 25 2 -4 21 2 0.46265712D+00 0.88664074D-01 0.35800912D+06 0.35800912D+06 0.35800912D+06 0.10789172D+01  1  2  1  4  6  5       -4 0.220148988381D-04 0.100000000000D+01
  </mgrwgt>
  </event>
  <event>
  5     66 0.20870961E-05 0.48888759E+02 0.75467711E-02 0.90379570E-01
        2 -1    0    0  502    0 0.00000000E+00 0.00000000E+00 0.42907640E+04 0.42907640E+04 0.32000000E+00 0.0000E+00 0.9000E+01
       -4 -1    0    0    0  501 0.00000000E+00 0.00000000E+00 -.16648187E+03 0.16648908E+03 0.15500000E+01 0.0000E+00 0.9000E+01
       25  1    1    2    0    0 -.62833410E+03 0.21664657E+02 0.19448570E+04 0.20477712E+04 0.12500000E+03 0.0000E+00 0.9000E+01
        2  1    1    2  502    0 0.48805147E+02 0.32615822E+01 0.15603332E+04 0.15610997E+04 0.32000000E+00 0.0000E+00 0.9000E+01
       -4  1    1    2    0  501 0.57952895E+03 -.24926239E+02 0.61909200E+03 0.84838224E+03 0.15500000E+01 0.0000E+00 0.9000E+01
#aMCatNLO 1  0  0  2  2 0.22301820D+03 0.00000000D+00  -5  6  0 0.00000000D+00 0.00000000D+00 0.00000000D+00 0.00000000D+00 0.00000000D+00
  <mgrwgt>
 0.7295824787D-04    7    4    0
 0.845192594119867D+03 0.000000000000000D+00 0.000000000000000D+00 0.845192594119867D+03
 0.845192594119867D+03 0.000000000000000D+00 0.000000000000000D+00 -.845192594119867D+03
 0.654560507456983D+03 -.628406420868725D+03 0.216695688191102D+02 0.132137269233537D+03
 0.309214754659964D+03 0.487799529984219D+02 0.325989848003564D+01 0.305325488203644D+03
 0.726609926122788D+03 0.579626467870303D+03 -.249294672991458D+02 -.437462757437180D+03
 0.000000000000000D+00 0.000000000000000D+00 0.000000000000000D+00 -.000000000000000D+00
 0.928321115222078D+03 0.000000000000000D+00 0.000000000000000D+00 0.928321115222078D+03
 0.101654791612077D+04 0.000000000000000D+00 0.000000000000000D+00 -.101654791612077D+04
 0.718725411710624D+03 -.694172847086037D+03 -.400626744810637D+02 0.132137269233537D+03
 0.306907584552997D+03 0.192739602571231D+02 -.244361651117478D+02 0.305325488203644D+03
 0.679400494017401D+03 0.512292870935900D+03 -.881327493886350D+02 -.437462757437180D+03
 0.239835541061823D+03 0.162606015893014D+03 0.152631588981446D+03 -.882268008986884D+02
 0.845192594119867D+03 0.000000000000000D+00 0.000000000000000D+00 0.845192594119867D+03
 0.845192594119867D+03 0.000000000000000D+00 0.000000000000000D+00 -.845192594119867D+03
 0.654560507456983D+03 -.628406420868725D+03 0.216695688191102D+02 0.132137269233537D+03
 0.309214754659964D+03 0.487799529984219D+02 0.325989848003564D+01 0.305325488203644D+03
 0.000000000000000D+00 0.000000000000000D+00 0.000000000000000D+00 -.000000000000000D+00
 0.726609926122788D+03 0.579626467870303D+03 -.249294672991458D+02 -.437462757437180D+03
 0.928321115222078D+03 0.000000000000000D+00 0.000000000000000D+00 0.928321115222078D+03
 0.101654791612077D+04 0.000000000000000D+00 0.000000000000000D+00 -.101654791612077D+04
 0.718725411710624D+03 -.694172847086037D+03 -.400626744810637D+02 0.132137269233537D+03
 0.306907584552997D+03 0.192739602571231D+02 -.244361651117478D+02 0.305325488203644D+03
 0.239835541061823D+03 0.162606015893014D+03 0.152631588981446D+03 -.882268008986884D+02
 0.679400494017401D+03 0.512292870935900D+03 -.881327493886350D+02 -.437462757437180D+03
0.340348082744D-03 0.000000000000D+00 0.000000000000D+00 0.106666279119D-05 0.000000000000D+00  6 2 -4 25 2 -4 21 0 0.66011810D+00 0.25613151D-01 0.40331103D+06 0.40331103D+06 0.40331103D+06 0.10751696D+01  1  2  2  2  6  2       -4 0.644453519213D-04 0.100000000000D+01
0.116923944182D-03 0.000000000000D+00 -.130702625344D-05 0.106666279119D-05 0.000000000000D+00  6 2 -4 25 2 -4 21 2 0.66011810D+00 0.25613151D-01 0.40331103D+06 0.40331103D+06 0.40331103D+06 0.10751696D+01  1  2  3  2  6  2       -4 0.255932669115D-04 0.100000000000D+01
-.222356316949D-03 0.000000000000D+00 0.000000000000D+00 0.106666279119D-05 0.000000000000D+00  6 2 -4 25 2 -4 21 2 0.66011810D+00 0.25613151D-01 0.40331103D+06 0.40331103D+06 0.40331103D+06 0.10751696D+01  1  2 15  2  6  2       -4 -.486711649093D-04 0.100000000000D+01
-.539049221597D-04 0.000000000000D+00 0.000000000000D+00 0.106666279119D-05 0.000000000000D+00  6 2 -4 25 2 -4 21 2 0.66011810D+00 0.25613151D-01 0.40331103D+06 0.40331103D+06 0.40331103D+06 0.10751696D+01  1  2  4  2  6  2       -4 -.117991491847D-04 0.100000000000D+01
-.408270184898D-03 0.000000000000D+00 -.217958634627D-03 0.106666279119D-05 0.000000000000D+00  6 2 -4 25 2 -4 21 2 0.66011810D+00 0.38894302D-01 0.40331103D+06 0.40331103D+06 0.40331103D+06 0.10751696D+01  1  2  5  2  6  2       -4 -.382122924058D-04 0.100000000000D+01
0.474995684809D-03 0.000000000000D+00 0.200232014356D-03 0.106666279119D-05 0.000000000000D+00  6 2 -4 25 2 -4 21 2 0.66011810D+00 0.25613151D-01 0.40331103D+06 0.40331103D+06 0.40331103D+06 0.10751696D+01  1  2  6  2  6  2       -4 0.103970931088D-03 0.100000000000D+01
-.121816986442D-04 0.000000000000D+00 -.107122159664D-04 0.106666279119D-05 0.000000000000D+00  6 2 21 25 2 4 -4 2 0.66011810D+00 0.38894302D-01 0.40331103D+06 0.40331103D+06 0.40331103D+06 0.10751696D+01  3  4  5  6  5  2       -4 -.223686955532D-04 0.100000000000D+01
  </mgrwgt>
  </event>
  <event>
  5     66 0.20870961E-05 0.41359520E+02 0.75467711E-02 0.95063132E-01
        2 -1    0    0  502    0 0.00000000E+00 0.00000000E+00 0.35913441E+04 0.35913441E+04 0.32000000E+00 0.0000E+00 0.9000E+01
       -4 -1    0    0    0  501 0.00000000E+00 0.00000000E+00 -.44519987E+03 0.44520257E+03 0.15500000E+01 0.0000E+00 0.9000E+01
       25  1    1    2    0    0 0.38621787E+03 0.23205354E+03 0.41383436E+03 0.62441730E+03 0.12500000E+03 0.0000E+00 0.9000E+01
        2  1    1    2  502    0 -.20497062E+02 0.35923075E+02 0.29208168E+04 0.29211096E+04 0.32000000E+00 0.0000E+00 0.9000E+01
       -4  1    1    2    0  501 -.36572081E+03 -.26797662E+03 -.18850690E+03 0.49101978E+03 0.15500000E+01 0.0000E+00 0.9000E+01
#aMCatNLO 1  0  0  5  2 0.67618431D+02 0.00000000D+00  -5  6  0 0.00000000D+00 0.00000000D+00 0.00000000D+00 0.00000000D+00 0.00000000D+00
  <mgrwgt>
 0.7116995735D-03    4    2    0
 0.126446487079749D+04 0.000000000000000D+00 0.000000000000000D+00 0.126446487079749D+04
 0.126446487079749D+04 -.000000000000000D+00 -.000000000000000D+00 -.126446487079749D+04
 0.481825268677092D+03 0.386215599367955D+03 0.232051717568971D+03 -.116275967912092D+03
 0.102885193187776D+04 -.204971402773271D+02 0.359232117008487D+02 0.102802027598202D+04
 0.101825254104013D+04 -.365718459090628D+03 -.267974929269820D+03 -.911744308069923D+03
 0.000000000000000D+00 0.000000000000000D+00 0.000000000000000D+00 0.000000000000000D+00
 0.126446487079749D+04 0.000000000000000D+00 0.000000000000000D+00 0.126446487079749D+04
 0.126446487079749D+04 -.000000000000000D+00 -.000000000000000D+00 -.126446487079749D+04
 0.477648491504806D+03 0.377617366439831D+03 0.225751486329649D+03 -.137711555142688D+03
 0.984066691249413D+03 -.385357192414094D+02 0.227057029810327D+02 0.983049694685498D+03
 0.985411413029766D+03 -.366511999132086D+03 -.189429030398620D+03 -.894886165869023D+03
 0.818031458109983D+02 0.274303519336641D+02 -.590281589120624D+02 0.495480263262128D+02
0.929529939054D-02 0.000000000000D+00 0.000000000000D+00 0.884762975553D-04 0.000000000000D+00  6 2 -4 25 2 -4 21 0 0.55251469D+00 0.68492497D-01 0.23152078D+06 0.23152078D+06 0.23152078D+06 0.10929769D+01  1  2  2  4  6  5       -4 0.799844361614D-03 0.100000000000D+01
0.498303457031D-02 0.000000000000D+00 -.356963971682D-04 0.884762975553D-04 0.000000000000D+00  6 2 -4 25 2 -4 21 2 0.55251469D+00 0.68492497D-01 0.23152078D+06 0.23152078D+06 0.23152078D+06 0.10929769D+01  1  2  3  4  6  5       -4 0.512221719647D-03 0.100000000000D+01
-.576094085953D-02 0.000000000000D+00 0.000000000000D+00 0.884762975553D-04 0.000000000000D+00  6 2 -4 25 2 -4 21 2 0.55251469D+00 0.68492497D-01 0.23152078D+06 0.23152078D+06 0.23152078D+06 0.10929769D+01  1  2 15  4  6  5       -4 -.592185141848D-03 0.100000000000D+01
-.795905906724D-04 0.000000000000D+00 0.000000000000D+00 0.884762975553D-04 0.000000000000D+00  6 2 -4 25 2 -4 21 2 0.55251469D+00 0.68492497D-01 0.23152078D+06 0.23152078D+06 0.23152078D+06 0.10929769D+01  1  2  4  4  6  5       -4 -.818136592205D-05 0.100000000000D+01
  </mgrwgt>
  </event>
  <event>
  5     66 -.20870961E-05 0.73773758E+02 0.75467711E-02 0.91842234E-01
        2 -1    0    0  502    0 0.00000000E+00 0.00000000E+00 0.22173223E+04 0.22173224E+04 0.32000000E+00 0.0000E+00 0.9000E+01
       -4 -1    0    0    0  501 0.00000000E+00 0.00000000E+00 -.13599995E+04 0.13600004E+04 0.15500000E+01 0.0000E+00 0.9000E+01
       25  1    1    2    0    0 -.39475013E+03 0.49993302E+03 -.58035797E+02 0.65173142E+03 0.12500000E+03 0.0000E+00 0.9000E+01
        2  1    1    2  502    0 0.35884876E+03 -.43548117E+03 0.18775815E+04 0.19605430E+04 0.32000000E+00 0.0000E+00 0.9000E+01
       -4  1    1    2    0  501 0.35901368E+02 -.64451850E+02 -.96222291E+03 0.96504833E+03 0.15500000E+01 0.0000E+00 0.9000E+01
#aMCatNLO 1  0  0  5  2 0.98949336D+01 0.00000000D+00  -5  6  0 0.00000000D+00 0.00000000D+00 0.00000000D+00 0.00000000D+00 0.00000000D+00
  <mgrwgt>
 -.4400517392D-02    8    2    0
 0.173653646678710D+04 0.000000000000000D+00 0.000000000000000D+00 0.173653646678710D+04
 0.173653646678710D+04 -.000000000000000D+00 -.000000000000000D+00 -.173653646678710D+04
 0.685640943215837D+03 -.394753050000773D+03 0.499935569575451D+03 -.220710123923349D+03
 0.155593106960996D+04 0.358852793953070D+03 -.435486062543986D+03 0.144999932930315D+04
 0.123150092074842D+04 0.359002560477042D+02 -.644495070314676D+02 -.122928920537980D+04
 0.000000000000000D+00 0.000000000000000D+00 0.000000000000000D+00 -.000000000000000D+00
 0.173653646678710D+04 0.000000000000000D+00 0.000000000000000D+00 0.173653646678710D+04
 0.173653646678710D+04 -.000000000000000D+00 -.000000000000000D+00 -.173653646678710D+04
 0.685649592958849D+03 -.394752103490398D+03 0.499933870363976D+03 -.220742534137481D+03
 0.155586410502352D+04 0.358854941817682D+03 -.435489918472346D+03 0.144992578256358D+04
 0.727866801773194D+03 0.295091700327994D+02 -.434615982291557D+02 -.725968580233938D+03
 0.503692433818649D+03 0.638799163991850D+01 -.209823536624775D+02 -.503214668192160D+03
0.134079389114D-03 0.000000000000D+00 0.000000000000D+00 0.716368096401D-04 0.000000000000D+00  6 2 -4 25 2 -4 21 0 0.34112658D+00 0.20923076D+00 0.41422738D+06 0.41422738D+06 0.41422738D+06 0.10743351D+01  1  2  2  4  6  5       -4 0.269546597045D-05 0.100000000000D+01
0.530579823508D-04 0.000000000000D+00 -.514900158112D-06 0.716368096401D-04 0.000000000000D+00  6 2 -4 25 2 -4 21 2 0.34112658D+00 0.20923076D+00 0.41422738D+06 0.41422738D+06 0.41422738D+06 0.10743351D+01  1  2  3  4  6  5       -4 0.123112484255D-05 0.100000000000D+01
-.856695443337D-04 0.000000000000D+00 0.000000000000D+00 0.716368096401D-04 0.000000000000D+00  6 2 -4 25 2 -4 21 2 0.34112658D+00 0.20923076D+00 0.41422738D+06 0.41422738D+06 0.41422738D+06 0.10743351D+01  1  2 15  4  6  5       -4 -.198782350188D-05 0.100000000000D+01
0.116179290457D+00 0.000000000000D+00 0.000000000000D+00 0.716368096401D-04 0.000000000000D+00  6 2 -4 25 2 -4 21 2 0.34112658D+00 0.20923076D+00 0.41467466D+06 0.41467466D+06 0.41467466D+06 0.10743014D+01  1  2 12  4  6  5       -4 0.269537066489D-02 0.100000000000D+01
-.366095642678D+00 0.000000000000D+00 0.000000000000D+00 0.716368096401D-04 0.000000000000D+00  6 2 -4 25 2 -4 21 2 0.34112658D+00 0.20923076D+00 0.41422738D+06 0.41422738D+06 0.41422738D+06 0.10743351D+01  1  2  4  4  6  5       -4 -.849465849401D-02 0.100000000000D+01
-.124822672625D+00 0.000000000000D+00 0.000000000000D+00 0.716368096401D-04 0.000000000000D+00  6 2 -4 25 2 -4 21 2 0.34112658D+00 0.20923076D+00 0.41422738D+06 0.41422738D+06 0.41422738D+06 0.10743351D+01  1  2  5  4  6  5       -4 -.289630864902D-02 0.100000000000D+01
0.185022145037D+00 0.000000000000D+00 -.000000000000D+00 0.716368096401D-04 0.000000000000D+00  6 2 -4 25 2 -4 21 2 0.34112658D+00 0.20923076D+00 0.41422738D+06 0.41422738D+06 0.41422738D+06 0.10743351D+01  1  2  6  4  6  5       -4 0.429314024176D-02 0.100000000000D+01
0.333123902844D-08 0.000000000000D+00 0.000000000000D+00 0.716368096401D-04 0.343286054232D-05  6 2 -4 25 2 -4 21 2 0.34112658D+00 0.20923076D+00 0.41467466D+06 0.41467466D+06 0.41467466D+06 0.10743014D+01  1  2 11  4  6  5       -4 0.772850644866D-10 0.100000000000D+01
  </mgrwgt>
  </event>
</LesHouchesEvents>
