<event>
 5    0  0.1875083E+000  0.2440450E+03  0.7546771E-02  0.1117127E+00
         21   -1    0    0  502  501  0.00000000000E+00  0.00000000000E+00  0.12742192682E+03  0.12742192682E+03  0.00000000000E+00 0. -1.
         21   -1    0    0  503  502 -0.00000000000E+00 -0.00000000000E+00 -0.86350695413E+03  0.86350695413E+03  0.00000000000E+00 0. -1.
         25    1    1    2    0    0  0.97379121388E+02  0.18216468803E+03 -0.68408934961E+03  0.72544462580E+03  0.12500000000E+03 0.  0.
         21    1    1    2  503  504 -0.83366129676E+02 -0.20653288002E+03 -0.68334530628E+02  0.23297070671E+03  0.00000000000E+00 0. -1.
         21    1    1    2  504  501 -0.14012991712E+02  0.24368191989E+02  0.16338852931E+02  0.32513548448E+02  0.00000000000E+00 0.  1.
<mgrwt>
<rscale>  4 0.24404504E+03</rscale>
<asrwt>0</asrwt>
<pdfrwt beam="1">  1       21 0.19603374E-01 0.24404504E+03</pdfrwt>
<pdfrwt beam="2">  1       21 0.13284722E+00 0.24404504E+03</pdfrwt>
<totfact> 0.94690778E+03</totfact>
</mgrwt>
</event>
<event>
 5    0  0.1856407E+000  0.2592242E+03  0.7546771E-02  0.1107610E+00
         21   -1    0    0  502  501  0.00000000000E+00  0.00000000000E+00  0.15072551119E+03  0.15072551119E+03  0.00000000000E+00 0. -1.
         21   -1    0    0  503  502 -0.00000000000E+00 -0.00000000000E+00 -0.53719247450E+03  0.53719247450E+03  0.00000000000E+00 0.  1.
         25    1    1    2    0    0  0.17908298522E+03 -0.13964763962E+03 -0.32196681582E+02  0.26121601243E+03  0.12500000000E+03 0.  0.
         21    1    1    2  503  504 -0.11573870873E+03  0.12411986715E+03 -0.22411623395E+03  0.28112146207E+03  0.00000000000E+00 0. -1.
         21    1    1    2  504  501 -0.63344276485E+02  0.15527772476E+02 -0.13015404779E+03  0.14558051118E+03  0.00000000000E+00 0.  1.
<mgrwt>
<rscale>  4 0.25922419E+03</rscale>
<asrwt>0</asrwt>
<pdfrwt beam="1">  1       21 0.23188541E-01 0.25922419E+03</pdfrwt>
<pdfrwt beam="2">  1       21 0.82644994E-01 0.25922419E+03</pdfrwt>
<totfact> 0.21545580E+04</totfact>
</mgrwt>
</event>
<event>
 5    0  0.2367869E+000  0.2665595E+03  0.7546771E-02  0.1103265E+00
         21   -1    0    0  502  501  0.00000000000E+00  0.00000000000E+00  0.77719581842E+02  0.77719581842E+02  0.00000000000E+00 0. -1.
         21   -1    0    0  503  502 -0.00000000000E+00 -0.00000000000E+00 -0.85568356210E+03  0.85568356210E+03  0.00000000000E+00 0. -1.
         25    1    1    2    0    0  0.18430642333E+03  0.14649272346E+03 -0.32436878066E+03  0.41984411580E+03  0.12500000000E+03 0.  0.
         21    1    1    2  503  504 -0.25977758889E+02 -0.36399146066E+02 -0.12237612390E+03  0.13029066541E+03  0.00000000000E+00 0. -1.
         21    1    1    2  504  501 -0.15832866444E+03 -0.11009357739E+03 -0.33121907570E+03  0.38326836274E+03  0.00000000000E+00 0. -1.
<mgrwt>
<rscale>  4 0.26655952E+03</rscale>
<asrwt>0</asrwt>
<pdfrwt beam="1">  1       21 0.11956859E-01 0.26655952E+03</pdfrwt>
<pdfrwt beam="2">  1       21 0.13164362E+00 0.26655952E+03</pdfrwt>
<totfact> 0.23741035E+04</totfact>
</mgrwt>
</event>
<event>
 5    0  0.1856407E+000  0.2559280E+03  0.7546771E-02  0.1109615E+00
         21   -1    0    0  502  501  0.00000000000E+00  0.00000000000E+00  0.36345949119E+03  0.36345949119E+03  0.00000000000E+00 0. -1.
         21   -1    0    0  503  502 -0.00000000000E+00 -0.00000000000E+00 -0.27968595459E+03  0.27968595459E+03  0.00000000000E+00 0. -1.
         25    1    1    2    0    0 -0.93157031229E+02  0.19561315347E+03  0.20957617635E+03  0.32632792092E+03  0.12500000000E+03 0.  0.
         21    1    1    2  503  504  0.10944438019E+03 -0.21497405032E+03 -0.63312768384E+02  0.24940012291E+03  0.00000000000E+00 0. -1.
         21    1    1    2  504  501 -0.16287348962E+02  0.19360896848E+02 -0.62489871362E+02  0.67417401951E+02  0.00000000000E+00 0. -1.
<mgrwt>
<rscale>  4 0.25592804E+03</rscale>
<asrwt>0</asrwt>
<pdfrwt beam="1">  1       21 0.55916845E-01 0.25592804E+03</pdfrwt>
<pdfrwt beam="2">  1       21 0.43028608E-01 0.25592804E+03</pdfrwt>
<totfact> 0.15089473E+04</totfact>
</mgrwt>
</event>
<event>
 5    0  0.1856407E+000  0.2528538E+03  0.7546771E-02  0.1111514E+00
         21   -1    0    0  502  501  0.00000000000E+00  0.00000000000E+00  0.36964767146E+03  0.36964767146E+03  0.00000000000E+00 0. -1.
         21   -1    0    0  503  502 -0.00000000000E+00 -0.00000000000E+00 -0.19378684027E+03  0.19378684027E+03  0.00000000000E+00 0.  1.
         25    1    1    2    0    0 -0.44000720728E+02 -0.21534614039E+03  0.20094307499E+03  0.32297545262E+03  0.12500000000E+03 0.  0.
         21    1    1    2  503  504  0.36263203188E+01  0.13141663942E+03  0.26327115109E+02  0.13407684478E+03  0.00000000000E+00 0.  1.
         21    1    1    2  504  501  0.40374400410E+02  0.83929500975E+02 -0.51409358914E+02  0.10638221433E+03  0.00000000000E+00 0.  1.
<mgrwt>
<rscale>  4 0.25285376E+03</rscale>
<asrwt>0</asrwt>
<pdfrwt beam="1">  1       21 0.56868872E-01 0.25285376E+03</pdfrwt>
<pdfrwt beam="2">  1       21 0.29813360E-01 0.25285376E+03</pdfrwt>
<totfact> 0.30419288E+04</totfact>
</mgrwt>
</event>
<event>
 5    0  0.3089139E+000  0.2391819E+03  0.7546771E-02  0.1120339E+00
         21   -1    0    0  502  501  0.00000000000E+00  0.00000000000E+00  0.19217566655E+03  0.19217566655E+03  0.00000000000E+00 0. -1.
         21   -1    0    0  503  502 -0.00000000000E+00 -0.00000000000E+00 -0.59234341380E+03  0.59234341380E+03  0.00000000000E+00 0. -1.
         25    1    1    2    0    0 -0.10182732175E+03  0.17667535727E+03  0.87144971435E+02  0.25456282401E+03  0.12500000000E+03 0.  0.
         21    1    1    2  503  504  0.13604668855E+02 -0.49899252382E+02 -0.91994763257E+02  0.10553700237E+03  0.00000000000E+00 0.  1.
         21    1    1    2  504  501  0.88222652895E+02 -0.12677610489E+03 -0.39531795542E+03  0.42441925397E+03  0.00000000000E+00 0. -1.
<mgrwt>
<rscale>  4 0.23918191E+03</rscale>
<asrwt>0</asrwt>
<pdfrwt beam="1">  1       21 0.29565487E-01 0.23918191E+03</pdfrwt>
<pdfrwt beam="2">  1       21 0.91129755E-01 0.23918191E+03</pdfrwt>
<totfact> 0.10861559E+04</totfact>
</mgrwt>
</event>
<event>
 5    0  0.1856407E+000  0.2991689E+03  0.7546771E-02  0.1085657E+00
         21   -1    0    0  502  501  0.00000000000E+00  0.00000000000E+00  0.24336314790E+03  0.24336314790E+03  0.00000000000E+00 0. -1.
         21   -1    0    0  503  502 -0.00000000000E+00 -0.00000000000E+00 -0.10447663140E+04  0.10447663140E+04  0.00000000000E+00 0.  1.
         25    1    1    2    0    0 -0.26517311917E+03 -0.76843680294E+02  0.11505949699E+03  0.32416881741E+03  0.12500000000E+03 0.  0.
         21    1    1    2  503  504  0.23028178455E+03  0.51947783449E+02 -0.86674148774E+03  0.89831457690E+03  0.00000000000E+00 0.  1.
         21    1    1    2  504  501  0.34891334619E+02  0.24895896844E+02 -0.49721175304E+02  0.65646067550E+02  0.00000000000E+00 0. -1.
<mgrwt>
<rscale>  4 0.29916888E+03</rscale>
<asrwt>0</asrwt>
<pdfrwt beam="1">  1       21 0.37440484E-01 0.29916888E+03</pdfrwt>
<pdfrwt beam="2">  1       21 0.16073328E+00 0.29916888E+03</pdfrwt>
<totfact> 0.15694553E+03</totfact>
</mgrwt>
</event>
<event>
 5    0  0.1856407E+000  0.2833509E+03  0.7546771E-02  0.1093873E+00
         21   -1    0    0  502  501  0.00000000000E+00  0.00000000000E+00  0.15582283877E+03  0.15582283877E+03  0.00000000000E+00 0.  1.
         21   -1    0    0  503  502 -0.00000000000E+00 -0.00000000000E+00 -0.11824514615E+04  0.11824514615E+04  0.00000000000E+00 0.  1.
         25    1    1    2    0    0  0.87464360704E+02 -0.24821187929E+03 -0.61676635149E+02  0.29780557204E+03  0.12500000000E+03 0.  0.
         21    1    1    2  503  504 -0.77153848630E+02  0.70452667900E+01 -0.58645572945E+03  0.59155107535E+03  0.00000000000E+00 0.  1.
         21    1    1    2  504  501 -0.10310512074E+02  0.24116661250E+03 -0.37849625811E+03  0.44891765286E+03  0.00000000000E+00 0.  1.
<mgrwt>
<rscale>  4 0.28335091E+03</rscale>
<asrwt>0</asrwt>
<pdfrwt beam="1">  1       21 0.23972744E-01 0.28335091E+03</pdfrwt>
<pdfrwt beam="2">  1       21 0.18191561E+00 0.28335091E+03</pdfrwt>
<totfact> 0.26927944E+03</totfact>
</mgrwt>
</event>
<event>
 5    0  0.1856407E+000  0.2547990E+03  0.7546771E-02  0.1110309E+00
         21   -1    0    0  502  501  0.00000000000E+00  0.00000000000E+00  0.22503571037E+03  0.22503571037E+03  0.00000000000E+00 0.  1.
         21   -1    0    0  503  502 -0.00000000000E+00 -0.00000000000E+00 -0.55385415100E+03  0.55385415100E+03  0.00000000000E+00 0. -1.
         25    1    1    2    0    0 -0.18174659880E+03 -0.12753714460E+03  0.11028090646E+03  0.27764082509E+03  0.12500000000E+03 0.  0.
         21    1    1    2  503  504  0.16419076449E+03  0.64712148574E+02 -0.32428580523E+03  0.36919852762E+03  0.00000000000E+00 0. -1.
         21    1    1    2  504  501  0.17555834307E+02  0.62824996025E+02 -0.11481354186E+03  0.13205050866E+03  0.00000000000E+00 0. -1.
<mgrwt>
<rscale>  4 0.25479904E+03</rscale>
<asrwt>0</asrwt>
<pdfrwt beam="1">  1       21 0.34620878E-01 0.25479904E+03</pdfrwt>
<pdfrwt beam="2">  1       21 0.85208332E-01 0.25479904E+03</pdfrwt>
<totfact> 0.92125583E+03</totfact>
</mgrwt>
</event>
<event>
 5    0  0.1856407E+000  0.4121393E+03  0.7546771E-02  0.1040528E+00
         21   -1    0    0  502  501  0.00000000000E+00  0.00000000000E+00  0.27528107940E+04  0.27528107940E+04  0.00000000000E+00 0.  1.
         21   -1    0    0  503  502 -0.00000000000E+00 -0.00000000000E+00 -0.17162659103E+03  0.17162659103E+03  0.00000000000E+00 0. -1.
         25    1    1    2    0    0 -0.36227987527E+03  0.12073032232E+03  0.24631804122E+04  0.24957374184E+04  0.12500000000E+03 0.  0.
         21    1    1    2  503  504  0.22781696705E+03 -0.14690802928E+03  0.10644120526E+03  0.29122546200E+03  0.00000000000E+00 0. -1.
         21    1    1    2  504  501  0.13446290823E+03  0.26177706956E+02  0.11562585507E+02  0.13747450460E+03  0.00000000000E+00 0. -1.
<mgrwt>
<rscale>  4 0.40953112E+03</rscale>
<asrwt>0</asrwt>
<pdfrwt beam="1">  1       21 0.42350932E+00 0.41213926E+03</pdfrwt>
<pdfrwt beam="2">  1       21 0.26404093E-01 0.41213926E+03</pdfrwt>
<totfact> 0.64673019E+01</totfact>
</mgrwt>
</event>
