<event>
 5    0  0.1856407E+000  0.2637362E+03  0.7546771E-02  0.1104919E+00
         21   -1    0    0  502  501  0.00000000000E+00  0.00000000000E+00  0.10239408887E+03  0.10239408887E+03  0.00000000000E+00 0. -1.
         21   -1    0    0  503  502 -0.00000000000E+00 -0.00000000000E+00 -0.13701812105E+04  0.13701812105E+04  0.00000000000E+00 0. -1.
         25    1    1    2    0    0 -0.19938134613E+03  0.20464736951E+03 -0.25382141289E+03  0.40209921247E+03  0.12500000000E+03 0.  0.
         21    1    1    2  503  504  0.16998147440E+03 -0.43855767907E+02 -0.44115636811E+03  0.47480098056E+03  0.00000000000E+00 0. -1.
         21    1    1    2  504  501  0.29399871727E+02 -0.16079160160E+03 -0.57280934067E+03  0.59567510638E+03  0.00000000000E+00 0. -1.
<mgrwt>
<rscale>  4 0.26373618E+03</rscale>
<asrwt>0</asrwt>
<pdfrwt beam="1">  1       21 0.15752938E-01 0.26373618E+03</pdfrwt>
<pdfrwt beam="2">  1       21 0.21079710E+00 0.26373618E+03</pdfrwt>
<totfact> 0.38746781E+03</totfact>
</mgrwt>
</event>
<event>
 5    0  0.1856407E+000  0.2497137E+03  0.7546771E-02  0.1113486E+00
         21   -1    0    0  502  501  0.00000000000E+00  0.00000000000E+00  0.38093633201E+03  0.38093633201E+03  0.00000000000E+00 0.  1.
         21   -1    0    0  503  502 -0.00000000000E+00 -0.00000000000E+00 -0.15179649883E+03  0.15179649883E+03  0.00000000000E+00 0.  1.
         25    1    1    2    0    0  0.28157206078E+02 -0.21433408597E+03  0.86653535041E+02  0.26432132679E+03  0.12500000000E+03 0.  0.
         21    1    1    2  503  504  0.23721338815E+01  0.15926323186E+03  0.12661727991E+03  0.20347564870E+03  0.00000000000E+00 0.  1.
         21    1    1    2  504  501 -0.30529339959E+02  0.55070854106E+02  0.15869018229E+02  0.64935855349E+02  0.00000000000E+00 0.  1.
<mgrwt>
<rscale>  4 0.24971369E+03</rscale>
<asrwt>0</asrwt>
<pdfrwt beam="1">  1       21 0.58605589E-01 0.24971369E+03</pdfrwt>
<pdfrwt beam="2">  1       21 0.23353308E-01 0.24971369E+03</pdfrwt>
<totfact> 0.45781234E+04</totfact>
</mgrwt>
</event>
<event>
 5    0  0.1856407E+000  0.2411465E+03  0.7546771E-02  0.1119031E+00
         21   -1    0    0  502  501  0.00000000000E+00  0.00000000000E+00  0.16239089234E+03  0.16239089234E+03  0.00000000000E+00 0. -1.
         21   -1    0    0  503  502 -0.00000000000E+00 -0.00000000000E+00 -0.11605753666E+04  0.11605753666E+04  0.00000000000E+00 0. -1.
         25    1    1    2    0    0 -0.19092535208E+03 -0.75953406653E+02  0.44134371278E+02  0.24452863386E+03  0.12500000000E+03 0.  0.
         21    1    1    2  503  504  0.21573716623E+03  0.33083271181E+02 -0.93653572967E+03  0.96163205056E+03  0.00000000000E+00 0. -1.
         21    1    1    2  504  501 -0.24811814153E+02  0.42870135471E+02 -0.10578311586E+03  0.11680557452E+03  0.00000000000E+00 0. -1.
<mgrwt>
<rscale>  4 0.24114651E+03</rscale>
<asrwt>0</asrwt>
<pdfrwt beam="1">  1       21 0.24983214E-01 0.24114651E+03</pdfrwt>
<pdfrwt beam="2">  1       21 0.17855006E+00 0.24114651E+03</pdfrwt>
<totfact> 0.27054278E+03</totfact>
</mgrwt>
</event>
<event>
 5    0  0.5638046E+000  0.2668930E+03  0.7546771E-02  0.1103071E+00
         21   -1    0    0  502  501  0.00000000000E+00  0.00000000000E+00  0.47458968244E+02  0.47458968244E+02  0.00000000000E+00 0.  1.
         21   -1    0    0  503  502 -0.00000000000E+00 -0.00000000000E+00 -0.14273700244E+04  0.14273700244E+04  0.00000000000E+00 0.  1.
         25    1    1    2    0    0 -0.33804794741E+02  0.23337543810E+03 -0.77695991337E+03  0.82152210332E+03  0.12500000000E+03 0.  0.
         21    1    1    2  503  504  0.33444115049E+02 -0.19290181401E+03 -0.56447215496E+03  0.59745998394E+03  0.00000000000E+00 0.  1.
         21    1    1    2  504  501  0.36067969200E+00 -0.40473624098E+02 -0.38478987824E+02  0.55846905388E+02  0.00000000000E+00 0. -1.
<mgrwt>
<rscale>  4 0.26689297E+03</rscale>
<asrwt>0</asrwt>
<pdfrwt beam="1">  1       21 0.73013802E-02 0.26689297E+03</pdfrwt>
<pdfrwt beam="2">  1       21 0.21959537E+00 0.26689297E+03</pdfrwt>
<totfact> 0.13473196E+04</totfact>
</mgrwt>
</event>
<event>
 5    0  0.1305111E+001  0.2678853E+03  0.7546771E-02  0.1102496E+00
         21   -1    0    0  502  501  0.00000000000E+00  0.00000000000E+00  0.95474657962E+02  0.95474657962E+02  0.00000000000E+00 0.  1.
         21   -1    0    0  503  502 -0.00000000000E+00 -0.00000000000E+00 -0.11656233316E+04  0.11656233316E+04  0.00000000000E+00 0.  1.
         25    1    1    2    0    0  0.22099243625E+03 -0.97595851828E+02 -0.93355818296E+03  0.97237774972E+03  0.12500000000E+03 0.  0.
         21    1    1    2  503  504 -0.21139128711E+02 -0.50853355367E+00  0.87077698156E+01  0.22868026242E+02  0.00000000000E+00 0. -1.
         21    1    1    2  504  501 -0.19985330754E+03  0.98104385382E+02 -0.14529826046E+03  0.26585221357E+03  0.00000000000E+00 0.  1.
<mgrwt>
<rscale>  4 0.26788531E+03</rscale>
<asrwt>0</asrwt>
<pdfrwt beam="1">  1       21 0.14688409E-01 0.26788531E+03</pdfrwt>
<pdfrwt beam="2">  1       21 0.17932667E+00 0.26788531E+03</pdfrwt>
<totfact> 0.70936242E+03</totfact>
</mgrwt>
</event>
<event>
 5    0  0.1856407E+000  0.2955525E+03  0.7546771E-02  0.1087485E+00
         21   -1    0    0  502  501  0.00000000000E+00  0.00000000000E+00  0.59326467012E+03  0.59326467012E+03  0.00000000000E+00 0. -1.
         21   -1    0    0  503  502 -0.00000000000E+00 -0.00000000000E+00 -0.14624976230E+03  0.14624976230E+03  0.00000000000E+00 0.  1.
         25    1    1    2    0    0 -0.25338523663E+03  0.86730535952E+02  0.31928169626E+03  0.43507708004E+03  0.12500000000E+03 0.  0.
         21    1    1    2  503  504  0.20670467613E+03 -0.66730201255E+02  0.13081488041E+03  0.25355921563E+03  0.00000000000E+00 0.  1.
         21    1    1    2  504  501  0.46680560498E+02 -0.20000334697E+02 -0.30816688503E+01  0.50878136752E+02  0.00000000000E+00 0.  1.
<mgrwt>
<rscale>  4 0.29555247E+03</rscale>
<asrwt>0</asrwt>
<pdfrwt beam="1">  1       21 0.91271486E-01 0.29555247E+03</pdfrwt>
<pdfrwt beam="2">  1       21 0.22499964E-01 0.29555247E+03</pdfrwt>
<totfact> 0.17834797E+04</totfact>
</mgrwt>
</event>
<event>
 5    0  0.1856407E+000  0.1797806E+03  0.7546771E-02  0.1168016E+00
         21   -1    0    0  502  501  0.00000000000E+00  0.00000000000E+00  0.36208093280E+03  0.36208093280E+03  0.00000000000E+00 0.  1.
         21   -1    0    0  503  502 -0.00000000000E+00 -0.00000000000E+00 -0.55016235801E+03  0.55016235801E+03  0.00000000000E+00 0. -1.
         25    1    1    2    0    0 -0.21588893666E+03 -0.27897900261E+02  0.26174241580E+03  0.36265743897E+03  0.12500000000E+03 0.  0.
         21    1    1    2  503  504  0.12625744961E+03  0.10412357430E+02 -0.43983943600E+03  0.45772053726E+03  0.00000000000E+00 0. -1.
         21    1    1    2  504  501  0.89631487052E+02  0.17485542831E+02 -0.99844050143E+01  0.91865314579E+02  0.00000000000E+00 0. -1.
<mgrwt>
<rscale>  4 0.17978062E+03</rscale>
<asrwt>0</asrwt>
<pdfrwt beam="1">  1       21 0.55704759E-01 0.17978062E+03</pdfrwt>
<pdfrwt beam="2">  1       21 0.84640363E-01 0.17978062E+03</pdfrwt>
<totfact> 0.37134980E+03</totfact>
</mgrwt>
</event>
<event>
 5    0  0.1856407E+000  0.2628554E+03  0.7546771E-02  0.1105440E+00
         21   -1    0    0  502  501  0.00000000000E+00  0.00000000000E+00  0.94019699447E+03  0.94019699447E+03  0.00000000000E+00 0.  1.
         21   -1    0    0  503  502 -0.00000000000E+00 -0.00000000000E+00 -0.37661944478E+03  0.37661944478E+03  0.00000000000E+00 0. -1.
         25    1    1    2    0    0 -0.35009237120E+03  0.23840078800E+02  0.71443065868E+03  0.80571035974E+03  0.12500000000E+03 0.  0.
         21    1    1    2  503  504  0.22199094564E+03 -0.34777935789E+02 -0.25915470431E+03  0.34300239872E+03  0.00000000000E+00 0. -1.
         21    1    1    2  504  501  0.12810142556E+03  0.10937856989E+02  0.10830159532E+03  0.16810368079E+03  0.00000000000E+00 0.  1.
<mgrwt>
<rscale>  4 0.26285544E+03</rscale>
<asrwt>0</asrwt>
<pdfrwt beam="1">  1       21 0.14464569E+00 0.26285544E+03</pdfrwt>
<pdfrwt beam="2">  1       21 0.57941453E-01 0.26285544E+03</pdfrwt>
<totfact> 0.86070820E+02</totfact>
</mgrwt>
</event>
<event>
 5    0  0.2239865E+000  0.2642412E+03  0.7546771E-02  0.1104621E+00
         21   -1    0    0  502  501  0.00000000000E+00  0.00000000000E+00  0.43127909428E+02  0.43127909428E+02  0.00000000000E+00 0. -1.
         21   -1    0    0  503  502 -0.00000000000E+00 -0.00000000000E+00 -0.14546205450E+04  0.14546205450E+04  0.00000000000E+00 0. -1.
         25    1    1    2    0    0  0.20557906043E+03  0.10925042446E+03 -0.67984717482E+03  0.72939398574E+03  0.12500000000E+03 0.  0.
         21    1    1    2  503  504 -0.18635554393E+03 -0.98631868739E+02 -0.62942531243E+03  0.66380182149E+03  0.00000000000E+00 0. -1.
         21    1    1    2  504  501 -0.19223516498E+02 -0.10618555723E+02 -0.10222014834E+03  0.10455264721E+03  0.00000000000E+00 0. -1.
<mgrwt>
<rscale>  4 0.26424119E+03</rscale>
<asrwt>0</asrwt>
<pdfrwt beam="1">  1       21 0.66350629E-02 0.26424119E+03</pdfrwt>
<pdfrwt beam="2">  1       21 0.22378778E+00 0.26424119E+03</pdfrwt>
<totfact> 0.15010600E+04</totfact>
</mgrwt>
</event>
<event>
 5    0  0.1856407E+000  0.2382218E+03  0.7546771E-02  0.1120983E+00
         21   -1    0    0  502  501  0.00000000000E+00  0.00000000000E+00  0.79019277574E+02  0.79019277574E+02  0.00000000000E+00 0. -1.
         21   -1    0    0  503  502 -0.00000000000E+00 -0.00000000000E+00 -0.22627696055E+04  0.22627696055E+04  0.00000000000E+00 0. -1.
         25    1    1    2    0    0  0.18858796546E+03  0.81673629371E+02 -0.12391803840E+03  0.27058581392E+03  0.12500000000E+03 0.  0.
         21    1    1    2  503  504 -0.21494683655E+02 -0.10084506469E+02 -0.54266847453E+03  0.54318762131E+03  0.00000000000E+00 0. -1.
         21    1    1    2  504  501 -0.16709328180E+03 -0.71589122902E+02 -0.15171638150E+04  0.15280154478E+04  0.00000000000E+00 0. -1.
<mgrwt>
<rscale>  4 0.23822185E+03</rscale>
<asrwt>0</asrwt>
<pdfrwt beam="1">  1       21 0.12156813E-01 0.23822185E+03</pdfrwt>
<pdfrwt beam="2">  1       21 0.34811836E+00 0.23822185E+03</pdfrwt>
<totfact> 0.96846312E+02</totfact>
</mgrwt>
</event>
<event>
 5    0  0.2139974E+000  0.2422595E+03  0.7546771E-02  0.1118297E+00
         21   -1    0    0  502  501  0.00000000000E+00  0.00000000000E+00  0.44068645040E+03  0.44068645040E+03  0.00000000000E+00 0. -1.
         21   -1    0    0  503  502 -0.00000000000E+00 -0.00000000000E+00 -0.12028295333E+03  0.12028295333E+03  0.00000000000E+00 0. -1.
         25    1    1    2    0    0 -0.20720584640E+03 -0.11419431603E+02  0.14380447383E+03  0.28172574056E+03  0.12500000000E+03 0.  0.
         21    1    1    2  503  504  0.31497709630E+02 -0.61647935406E+00  0.60764101690E+02  0.68445319876E+02  0.00000000000E+00 0. -1.
         21    1    1    2  504  501  0.17570813677E+03  0.12035910957E+02  0.11583492155E+03  0.21079834329E+03  0.00000000000E+00 0. -1.
<mgrwt>
<rscale>  4 0.24225950E+03</rscale>
<asrwt>0</asrwt>
<pdfrwt beam="1">  1       21 0.67797914E-01 0.24225950E+03</pdfrwt>
<pdfrwt beam="2">  1       21 0.18505070E-01 0.24225950E+03</pdfrwt>
<totfact> 0.51842552E+04</totfact>
</mgrwt>
</event>
