<event>
 5    0  0.1531977E+001  0.2528627E+03  0.7546771E-02  0.1111509E+00
         21   -1    0    0  503  501  0.00000000000E+00  0.00000000000E+00  0.49013562802E+03  0.49013562802E+03  0.00000000000E+00 0.  1.
         21   -1    0    0  504  502 -0.00000000000E+00 -0.00000000000E+00 -0.55039001241E+03  0.55039001241E+03  0.00000000000E+00 0.  1.
         25    1    1    2    0    0 -0.27413217802E+03  0.15710936581E+03  0.65800935922E+02  0.34610196044E+03  0.12500000000E+03 0.  0.
         21    1    1    2  503  502  0.19493679078E+03 -0.71472230777E+02 -0.36986036120E+03  0.42415247136E+03  0.00000000000E+00 0.  1.
         21    1    1    2  504  501  0.79195387240E+02 -0.85637135035E+02  0.24380504088E+03  0.27027120863E+03  0.00000000000E+00 0.  1.
<mgrwt>
<rscale>  4 0.25286269E+03</rscale>
<asrwt>0</asrwt>
<pdfrwt beam="1">  1       21 0.75405482E-01 0.25286269E+03</pdfrwt>
<pdfrwt beam="2">  1       21 0.84675386E-01 0.25286269E+03</pdfrwt>
<totfact> 0.18076354E+03</totfact>
</mgrwt>
</event>
<event>
 5    0  0.1531977E+001  0.3282425E+03  0.7546771E-02  0.1071917E+00
         21   -1    0    0  504  501  0.00000000000E+00  0.00000000000E+00  0.31201252749E+03  0.31201252749E+03  0.00000000000E+00 0.  1.
         21   -1    0    0  503  502 -0.00000000000E+00 -0.00000000000E+00 -0.77141395836E+03  0.77141395836E+03  0.00000000000E+00 0. -1.
         25    1    1    2    0    0  0.32020877282E+03 -0.13704963469E+03  0.70907276367E+02  0.37678787454E+03  0.12500000000E+03 0.  0.
         21    1    1    2  503  501 -0.28107002601E+03  0.93994656279E+02 -0.56563032486E+03  0.63857107618E+03  0.00000000000E+00 0. -1.
         21    1    1    2  504  502 -0.39138746807E+02  0.43054978407E+02  0.35321617621E+02  0.68067535129E+02  0.00000000000E+00 0. -1.
<mgrwt>
<rscale>  4 0.32824251E+03</rscale>
<asrwt>0</asrwt>
<pdfrwt beam="1">  1       21 0.48001928E-01 0.32824251E+03</pdfrwt>
<pdfrwt beam="2">  1       21 0.11867907E+00 0.32824251E+03</pdfrwt>
<totfact> 0.20461872E+03</totfact>
</mgrwt>
</event>
<event>
 5    0  0.1531977E+001  0.2802097E+03  0.7546771E-02  0.1095574E+00
         21   -1    0    0  503  501  0.00000000000E+00  0.00000000000E+00  0.10474331328E+03  0.10474331328E+03  0.00000000000E+00 0. -1.
         21   -1    0    0  504  502 -0.00000000000E+00 -0.00000000000E+00 -0.16223264778E+04  0.16223264778E+04  0.00000000000E+00 0. -1.
         25    1    1    2    0    0  0.15000861275E+03 -0.22859415145E+03 -0.42188308292E+03  0.51804266777E+03  0.12500000000E+03 0.  0.
         21    1    1    2  503  502 -0.24248696334E+02  0.25783070789E+02 -0.89920744650E+03  0.89990377144E+03  0.00000000000E+00 0. -1.
         21    1    1    2  504  501 -0.12575991642E+03  0.20281108066E+03 -0.19649263506E+03  0.30912335183E+03  0.00000000000E+00 0. -1.
<mgrwt>
<rscale>  4 0.28020970E+03</rscale>
<asrwt>0</asrwt>
<pdfrwt beam="1">  1       21 0.16114355E-01 0.28020970E+03</pdfrwt>
<pdfrwt beam="2">  1       21 0.24958870E+00 0.28020970E+03</pdfrwt>
<totfact> 0.21178631E+03</totfact>
</mgrwt>
</event>
<event>
 5    0  0.1531977E+001  0.2528810E+03  0.7546771E-02  0.1111498E+00
         21   -1    0    0  503  501  0.00000000000E+00  0.00000000000E+00  0.65342973556E+03  0.65342973556E+03  0.00000000000E+00 0. -1.
         21   -1    0    0  504  502 -0.00000000000E+00 -0.00000000000E+00 -0.23999204432E+03  0.23999204432E+03  0.00000000000E+00 0. -1.
         25    1    1    2    0    0 -0.30429170467E+03  0.58996132857E+02  0.24352018682E+03  0.41352275223E+03  0.12500000000E+03 0.  0.
         21    1    1    2  503  502  0.12485372989E+03 -0.19291256126E+01 -0.93576958557E+02  0.15604109256E+03  0.00000000000E+00 0. -1.
         21    1    1    2  504  501  0.17943797478E+03 -0.57067007245E+02  0.26349446297E+03  0.32385793510E+03  0.00000000000E+00 0. -1.
<mgrwt>
<rscale>  4 0.25288102E+03</rscale>
<asrwt>0</asrwt>
<pdfrwt beam="1">  1       21 0.10052765E+00 0.25288102E+03</pdfrwt>
<pdfrwt beam="2">  1       21 0.36921853E-01 0.25288102E+03</pdfrwt>
<totfact> 0.54994968E+03</totfact>
</mgrwt>
</event>
<event>
 5    0  0.1531977E+001  0.2638307E+03  0.7546771E-02  0.1104863E+00
         21   -1    0    0  503  501  0.00000000000E+00  0.00000000000E+00  0.12491274642E+03  0.12491274642E+03  0.00000000000E+00 0.  1.
         21   -1    0    0  501  502 -0.00000000000E+00 -0.00000000000E+00 -0.53071845992E+03  0.53071845992E+03  0.00000000000E+00 0.  1.
         25    1    1    2    0    0  0.81986973992E+02  0.21739318053E+03 -0.27294355704E+03  0.37961143841E+03  0.12500000000E+03 0.  0.
         21    1    1    2  503  504  0.45961113183E+01 -0.25649240993E+02 -0.35912020604E+02  0.44369821125E+02  0.00000000000E+00 0.  1.
         21    1    1    2  504  502 -0.86583085310E+02 -0.19174393954E+03 -0.96950135863E+02  0.23164994680E+03  0.00000000000E+00 0.  1.
<mgrwt>
<rscale>  4 0.26383074E+03</rscale>
<asrwt>0</asrwt>
<pdfrwt beam="1">  1       21 0.19217346E-01 0.26383074E+03</pdfrwt>
<pdfrwt beam="2">  1       21 0.81648993E-01 0.26383074E+03</pdfrwt>
<totfact> 0.31535987E+04</totfact>
</mgrwt>
</event>
<event>
 5    0  0.1531977E+001  0.3094078E+03  0.7546771E-02  0.1080630E+00
         21   -1    0    0  504  501  0.00000000000E+00  0.00000000000E+00  0.70913398840E+02  0.70913398840E+02  0.00000000000E+00 0.  1.
         21   -1    0    0  501  502 -0.00000000000E+00 -0.00000000000E+00 -0.14013493541E+04  0.14013493541E+04  0.00000000000E+00 0.  1.
         25    1    1    2    0    0  0.19844083949E+03 -0.21189762847E+03 -0.75987327533E+03  0.82298952988E+03  0.12500000000E+03 0.  0.
         21    1    1    2  503  502  0.80587977733E+01  0.24794035225E+02 -0.90669209091E+02  0.94342958834E+02  0.00000000000E+00 0.  1.
         21    1    1    2  504  503 -0.20649963727E+03  0.18710359325E+03 -0.47989347082E+03  0.55493026421E+03  0.00000000000E+00 0.  1.
<mgrwt>
<rscale>  4 0.30940776E+03</rscale>
<asrwt>0</asrwt>
<pdfrwt beam="1">  1       21 0.10909754E-01 0.30940776E+03</pdfrwt>
<pdfrwt beam="2">  1       21 0.21559220E+00 0.30940776E+03</pdfrwt>
<totfact> 0.68401022E+03</totfact>
</mgrwt>
</event>
<event>
 5    0  0.1531977E+001  0.3059379E+03  0.7546771E-02  0.1082309E+00
         21   -1    0    0  502  501  0.00000000000E+00  0.00000000000E+00  0.19371566081E+04  0.19371566081E+04  0.00000000000E+00 0.  1.
         21   -1    0    0  504  502 -0.00000000000E+00 -0.00000000000E+00 -0.32680735233E+03  0.32680735233E+03  0.00000000000E+00 0.  1.
         25    1    1    2    0    0  0.20708581596E+03  0.19165423509E+03 -0.13194129977E+03  0.33563281661E+03  0.12500000000E+03 0.  0.
         21    1    1    2  503  501 -0.19062418005E+03 -0.20390958523E+03  0.18234120396E+04  0.18446539413E+04  0.00000000000E+00 0.  1.
         21    1    1    2  504  503 -0.16461635913E+02  0.12255350141E+02 -0.81121484009E+02  0.83677202581E+02  0.00000000000E+00 0.  1.
<mgrwt>
<rscale>  4 0.30593795E+03</rscale>
<asrwt>0</asrwt>
<pdfrwt beam="1">  1       21 0.29802409E+00 0.30593795E+03</pdfrwt>
<pdfrwt beam="2">  1       21 0.50278055E-01 0.30593795E+03</pdfrwt>
<totfact> 0.11445113E+02</totfact>
</mgrwt>
</event>
<event>
 5    0  0.1531977E+001  0.1837688E+03  0.7546771E-02  0.1164205E+00
         21   -1    0    0  503  501  0.00000000000E+00  0.00000000000E+00  0.33580941250E+03  0.33580941250E+03  0.00000000000E+00 0.  1.
         21   -1    0    0  504  502 -0.00000000000E+00 -0.00000000000E+00 -0.58351516350E+03  0.58351516350E+03  0.00000000000E+00 0.  1.
         25    1    1    2    0    0  0.17419702601E+03 -0.98277669544E+02 -0.48812177837E+03  0.54211712270E+03  0.12500000000E+03 0.  0.
         21    1    1    2  503  502 -0.77695828716E+02  0.69263551830E+01 -0.23719085252E+02  0.81530431136E+02  0.00000000000E+00 0.  1.
         21    1    1    2  504  501 -0.96501197292E+02  0.91351314361E+02  0.26413511262E+03  0.29567702216E+03  0.00000000000E+00 0.  1.
<mgrwt>
<rscale>  4 0.18376880E+03</rscale>
<asrwt>0</asrwt>
<pdfrwt beam="1">  1       21 0.51662987E-01 0.18376880E+03</pdfrwt>
<pdfrwt beam="2">  1       21 0.89771563E-01 0.18376880E+03</pdfrwt>
<totfact> 0.37885138E+03</totfact>
</mgrwt>
</event>
<event>
 5    0  0.1531977E+001  0.3240380E+03  0.7546771E-02  0.1073806E+00
         21   -1    0    0  502  501  0.00000000000E+00  0.00000000000E+00  0.77177860835E+03  0.77177860835E+03  0.00000000000E+00 0. -1.
         21   -1    0    0  504  502 -0.00000000000E+00 -0.00000000000E+00 -0.22694612009E+03  0.22694612009E+03  0.00000000000E+00 0.  1.
         25    1    1    2    0    0 -0.26787736348E+03 -0.48199468236E+02  0.56769474766E+03  0.64185963973E+03  0.12500000000E+03 0.  0.
         21    1    1    2  503  501 -0.30141490723E+02 -0.14757711860E+02  0.33137997329E+02  0.47163825007E+02  0.00000000000E+00 0. -1.
         21    1    1    2  504  503  0.29801885420E+03  0.62957180096E+02 -0.56000256723E+02  0.30970126370E+03  0.00000000000E+00 0.  1.
<mgrwt>
<rscale>  4 0.32403804E+03</rscale>
<asrwt>0</asrwt>
<pdfrwt beam="1">  1       21 0.11873517E+00 0.32403804E+03</pdfrwt>
<pdfrwt beam="2">  1       21 0.34914788E-01 0.32403804E+03</pdfrwt>
<totfact> 0.39370779E+03</totfact>
</mgrwt>
</event>
<event>
 5    0  0.1531977E+001  0.2594916E+03  0.7546771E-02  0.1107449E+00
         21   -1    0    0  502  501  0.00000000000E+00  0.00000000000E+00  0.80855421714E+03  0.80855421714E+03  0.00000000000E+00 0. -1.
         21   -1    0    0  504  502 -0.00000000000E+00 -0.00000000000E+00 -0.67599155536E+03  0.67599155536E+03  0.00000000000E+00 0.  1.
         25    1    1    2    0    0  0.15633638136E+03 -0.17362432060E+03 -0.31448677423E+03  0.41123399666E+03  0.12500000000E+03 0.  0.
         21    1    1    2  503  501 -0.12840895602E+03  0.18743206315E+03  0.74236679742E+03  0.77635565316E+03  0.00000000000E+00 0. -1.
         21    1    1    2  504  503 -0.27927425348E+02 -0.13807742552E+02 -0.29531736142E+03  0.29695612268E+03  0.00000000000E+00 0. -1.
<mgrwt>
<rscale>  4 0.25949160E+03</rscale>
<asrwt>0</asrwt>
<pdfrwt beam="1">  1       21 0.12439296E+00 0.25949160E+03</pdfrwt>
<pdfrwt beam="2">  1       21 0.10399870E+00 0.25949160E+03</pdfrwt>
<totfact> 0.33711909E+02</totfact>
</mgrwt>
</event>
<event>
 5    0  0.1531977E+001  0.2485969E+03  0.7546771E-02  0.1114195E+00
         21   -1    0    0  502  501  0.00000000000E+00  0.00000000000E+00  0.10579047583E+03  0.10579047583E+03  0.00000000000E+00 0. -1.
         21   -1    0    0  504  502 -0.00000000000E+00 -0.00000000000E+00 -0.73049443570E+03  0.73049443570E+03  0.00000000000E+00 0. -1.
         25    1    1    2    0    0  0.11558112811E+03  0.18115307406E+03 -0.53841787806E+03  0.59303814788E+03  0.12500000000E+03 0.  0.
         21    1    1    2  503  501 -0.11086410500E+03 -0.15008029957E+03 -0.46041648808E+02  0.19218423328E+03  0.00000000000E+00 0. -1.
         21    1    1    2  504  503 -0.47170231151E+01 -0.31072774488E+02 -0.40244432991E+02  0.51062530374E+02  0.00000000000E+00 0. -1.
<mgrwt>
<rscale>  4 0.24859693E+03</rscale>
<asrwt>0</asrwt>
<pdfrwt beam="1">  1       21 0.16275458E-01 0.24859693E+03</pdfrwt>
<pdfrwt beam="2">  1       21 0.11238376E+00 0.24859693E+03</pdfrwt>
<totfact> 0.20292401E+04</totfact>
</mgrwt>
</event>
<event>
 5    0  0.1531977E+001  0.2530211E+03  0.7546771E-02  0.1111410E+00
         21   -1    0    0  503  501  0.00000000000E+00  0.00000000000E+00  0.17349118893E+03  0.17349118893E+03  0.00000000000E+00 0. -1.
         21   -1    0    0  504  502 -0.00000000000E+00 -0.00000000000E+00 -0.58626253451E+03  0.58626253451E+03  0.00000000000E+00 0. -1.
         25    1    1    2    0    0  0.70388869201E+02 -0.18966180186E+03 -0.40113055858E+03  0.46632276056E+03  0.12500000000E+03 0.  0.
         21    1    1    2  503  502  0.28070227323E+02 -0.11419763186E+02 -0.57401286264E+02  0.64909601123E+02  0.00000000000E+00 0. -1.
         21    1    1    2  504  501 -0.98459096524E+02  0.20108156504E+03  0.45760499261E+02  0.22852136176E+03  0.00000000000E+00 0. -1.
<mgrwt>
<rscale>  4 0.25302108E+03</rscale>
<asrwt>0</asrwt>
<pdfrwt beam="1">  1       21 0.26690953E-01 0.25302108E+03</pdfrwt>
<pdfrwt beam="2">  1       21 0.90194235E-01 0.25302108E+03</pdfrwt>
<totfact> 0.13474243E+04</totfact>
</mgrwt>
</event>
<event>
 5    0  0.1531977E+001  0.1928873E+03  0.7546771E-02  0.1155883E+00
         21   -1    0    0  502  501  0.00000000000E+00  0.00000000000E+00  0.73670536252E+02  0.73670536252E+02  0.00000000000E+00 0. -1.
         21   -1    0    0  504  502 -0.00000000000E+00 -0.00000000000E+00 -0.23075168374E+04  0.23075168374E+04  0.00000000000E+00 0. -1.
         25    1    1    2    0    0  0.19469674162E+02  0.20621729967E+03 -0.17820710609E+03  0.30047864410E+03  0.12500000000E+03 0.  0.
         21    1    1    2  503  501  0.24130816266E+02 -0.68515356359E+02 -0.12424994207E+03  0.14392601730E+03  0.00000000000E+00 0.  1.
         21    1    1    2  504  503 -0.43600490427E+02 -0.13770194331E+03 -0.19313892530E+04  0.19367827122E+04  0.00000000000E+00 0. -1.
<mgrwt>
<rscale>  4 0.19288733E+03</rscale>
<asrwt>0</asrwt>
<pdfrwt beam="1">  1       21 0.11333929E-01 0.19288733E+03</pdfrwt>
<pdfrwt beam="2">  1       21 0.35500258E+00 0.19288733E+03</pdfrwt>
<totfact> 0.10610316E+03</totfact>
</mgrwt>
</event>
<event>
 5    0  0.1531977E+001  0.2789063E+03  0.7546771E-02  0.1096288E+00
         21   -1    0    0  503  501  0.00000000000E+00  0.00000000000E+00  0.11727189910E+04  0.11727189910E+04  0.00000000000E+00 0. -1.
         21   -1    0    0  501  502 -0.00000000000E+00 -0.00000000000E+00 -0.87161662594E+02  0.87161662594E+02  0.00000000000E+00 0. -1.
         25    1    1    2    0    0  0.18203673824E+03 -0.10005147108E+03  0.45538327855E+03  0.51589398263E+03  0.12500000000E+03 0.  0.
         21    1    1    2  503  504 -0.22191768418E+03  0.18238784832E+03  0.37143393175E+03  0.46954866779E+03  0.00000000000E+00 0. -1.
         21    1    1    2  504  502  0.39880945939E+02 -0.82336377239E+02  0.25874011807E+03  0.27443800314E+03  0.00000000000E+00 0. -1.
<mgrwt>
<rscale>  4 0.27890626E+03</rscale>
<asrwt>0</asrwt>
<pdfrwt beam="1">  1       21 0.18041829E+00 0.27890626E+03</pdfrwt>
<pdfrwt beam="2">  1       21 0.13409487E-01 0.27890626E+03</pdfrwt>
<totfact> 0.81779278E+03</totfact>
</mgrwt>
</event>
<event>
 5    0  0.1531977E+001  0.2780006E+03  0.7546771E-02  0.1096786E+00
         21   -1    0    0  504  501  0.00000000000E+00  0.00000000000E+00  0.52586238226E+03  0.52586238226E+03  0.00000000000E+00 0.  1.
         21   -1    0    0  503  502 -0.00000000000E+00 -0.00000000000E+00 -0.22681582331E+03  0.22681582331E+03  0.00000000000E+00 0.  1.
         25    1    1    2    0    0 -0.26794536921E+03  0.47110842950E+02  0.16692362498E+03  0.34278659393E+03  0.12500000000E+03 0.  0.
         21    1    1    2  503  501  0.23464946905E+03 -0.43507430722E+02 -0.33435623303E+02  0.24097968952E+03  0.00000000000E+00 0.  1.
         21    1    1    2  504  502  0.33295900153E+02 -0.36034122278E+01  0.16555855728E+03  0.16891192212E+03  0.00000000000E+00 0.  1.
<mgrwt>
<rscale>  4 0.27800064E+03</rscale>
<asrwt>0</asrwt>
<pdfrwt beam="1">  1       21 0.80901905E-01 0.27800064E+03</pdfrwt>
<pdfrwt beam="2">  1       21 0.34894742E-01 0.27800064E+03</pdfrwt>
<totfact> 0.10092675E+04</totfact>
</mgrwt>
</event>
<event>
 5    0  0.1531977E+001  0.2374323E+03  0.7546771E-02  0.1121515E+00
         21   -1    0    0  504  501  0.00000000000E+00  0.00000000000E+00  0.10649061768E+04  0.10649061768E+04  0.00000000000E+00 0.  1.
         21   -1    0    0  503  502 -0.00000000000E+00 -0.00000000000E+00 -0.70155009878E+02  0.70155009878E+02  0.00000000000E+00 0.  1.
         25    1    1    2    0    0 -0.10459976075E+03 -0.17147218201E+03  0.70393331421E+03  0.74262435323E+03  0.12500000000E+03 0.  0.
         21    1    1    2  503  501  0.82383264437E+02  0.18500978343E+03  0.15737350746E+03  0.25648010268E+03  0.00000000000E+00 0.  1.
         21    1    1    2  504  502  0.22216496312E+02 -0.13537601414E+02  0.13344434522E+03  0.13595673073E+03  0.00000000000E+00 0. -1.
<mgrwt>
<rscale>  4 0.23743232E+03</rscale>
<asrwt>0</asrwt>
<pdfrwt beam="1">  1       21 0.16383171E+00 0.23743232E+03</pdfrwt>
<pdfrwt beam="2">  1       21 0.10793079E-01 0.23743232E+03</pdfrwt>
<totfact> 0.16239113E+04</totfact>
</mgrwt>
</event>
<event>
 5    0  0.1531977E+001  0.2425846E+03  0.7546771E-02  0.1118083E+00
         21   -1    0    0  504  501  0.00000000000E+00  0.00000000000E+00  0.39540466044E+03  0.39540466044E+03  0.00000000000E+00 0.  1.
         21   -1    0    0  503  502 -0.00000000000E+00 -0.00000000000E+00 -0.10094595442E+04  0.10094595442E+04  0.00000000000E+00 0.  1.
         25    1    1    2    0    0  0.13015436966E+03  0.15798790496E+03  0.28257504021E+03  0.37063997546E+03  0.12500000000E+03 0.  0.
         21    1    1    2  503  501 -0.11189387543E+03 -0.17541019077E+03 -0.95141822619E+03  0.97390226178E+03  0.00000000000E+00 0.  1.
         21    1    1    2  504  502 -0.18260494232E+02  0.17422285810E+02  0.54788302215E+02  0.60321967409E+02  0.00000000000E+00 0.  1.
<mgrwt>
<rscale>  4 0.24258458E+03</rscale>
<asrwt>0</asrwt>
<pdfrwt beam="1">  1       21 0.60831487E-01 0.24258458E+03</pdfrwt>
<pdfrwt beam="2">  1       21 0.15530147E+00 0.24258458E+03</pdfrwt>
<totfact> 0.65234064E+02</totfact>
</mgrwt>
</event>
<event>
 5    0  0.1531977E+001  0.2248953E+03  0.7546771E-02  0.1130285E+00
         21   -1    0    0  502  501  0.00000000000E+00  0.00000000000E+00  0.57543816662E+03  0.57543816662E+03  0.00000000000E+00 0. -1.
         21   -1    0    0  504  502 -0.00000000000E+00 -0.00000000000E+00 -0.35117230769E+03  0.35117230769E+03  0.00000000000E+00 0. -1.
         25    1    1    2    0    0 -0.24503341602E+03 -0.15990966637E+03 -0.17734929206E+03  0.36426672612E+03  0.12500000000E+03 0.  0.
         21    1    1    2  503  501  0.12940722031E+03  0.12485940189E+03  0.40323178101E+03  0.44151100566E+03  0.00000000000E+00 0. -1.
         21    1    1    2  504  503  0.11562619571E+03  0.35050264484E+02 -0.16166300158E+01  0.12083274253E+03  0.00000000000E+00 0. -1.
<mgrwt>
<rscale>  4 0.22489530E+03</rscale>
<asrwt>0</asrwt>
<pdfrwt beam="1">  1       21 0.88528948E-01 0.22489530E+03</pdfrwt>
<pdfrwt beam="2">  1       21 0.54026509E-01 0.22489530E+03</pdfrwt>
<totfact> 0.34456272E+03</totfact>
</mgrwt>
</event>
<event>
 5    0  0.1531977E+001  0.2971350E+03  0.7546771E-02  0.1086682E+00
         21   -1    0    0  503  501  0.00000000000E+00  0.00000000000E+00  0.50745568776E+03  0.50745568776E+03  0.00000000000E+00 0. -1.
         21   -1    0    0  504  502 -0.00000000000E+00 -0.00000000000E+00 -0.14633725321E+04  0.14633725321E+04  0.00000000000E+00 0.  1.
         25    1    1    2    0    0  0.10367444658E+03 -0.26855071600E+03  0.24887629987E+03  0.40053999873E+03  0.12500000000E+03 0.  0.
         21    1    1    2  503  502 -0.71557920575E+02  0.25918536532E+03 -0.13728502680E+04  0.13989336825E+04  0.00000000000E+00 0.  1.
         21    1    1    2  504  501 -0.32116526006E+02  0.93653506870E+01  0.16805712383E+03  0.17135453862E+03  0.00000000000E+00 0. -1.
<mgrwt>
<rscale>  4 0.29713498E+03</rscale>
<asrwt>0</asrwt>
<pdfrwt beam="1">  1       21 0.78070107E-01 0.29713498E+03</pdfrwt>
<pdfrwt beam="2">  1       21 0.22513423E+00 0.29713498E+03</pdfrwt>
<totfact> 0.12049949E+02</totfact>
</mgrwt>
</event>
<event>
 5    0  0.1531977E+001  0.3343305E+03  0.7546771E-02  0.1069237E+00
         21   -1    0    0  502  501  0.00000000000E+00  0.00000000000E+00  0.44567086548E+03  0.44567086548E+03  0.00000000000E+00 0.  1.
         21   -1    0    0  504  502 -0.00000000000E+00 -0.00000000000E+00 -0.37096594889E+03  0.37096594889E+03  0.00000000000E+00 0.  1.
         25    1    1    2    0    0  0.24956148299E+03 -0.23123542197E+03  0.16565446273E+02  0.36283628288E+03  0.12500000000E+03 0.  0.
         21    1    1    2  503  501 -0.23400442971E+03  0.18016122582E+03  0.16213273647E+03  0.33690230728E+03  0.00000000000E+00 0.  1.
         21    1    1    2  504  503 -0.15557053276E+02  0.51074196152E+02 -0.10399326615E+03  0.11689822421E+03  0.00000000000E+00 0.  1.
<mgrwt>
<rscale>  4 0.33433053E+03</rscale>
<asrwt>0</asrwt>
<pdfrwt beam="1">  1       21 0.68564748E-01 0.33433053E+03</pdfrwt>
<pdfrwt beam="2">  1       21 0.57071685E-01 0.33433053E+03</pdfrwt>
<totfact> 0.51430445E+03</totfact>
</mgrwt>
</event>
<event>
 5    0  0.1531977E+001  0.2574581E+03  0.7546771E-02  0.1108680E+00
         21   -1    0    0  504  501  0.00000000000E+00  0.00000000000E+00  0.33373755278E+03  0.33373755278E+03  0.00000000000E+00 0.  1.
         21   -1    0    0  503  502 -0.00000000000E+00 -0.00000000000E+00 -0.99069878514E+03  0.99069878514E+03  0.00000000000E+00 0.  1.
         25    1    1    2    0    0  0.17660636397E+03 -0.14551678117E+03 -0.88913802682E+03  0.92658317065E+03  0.12500000000E+03 0.  0.
         21    1    1    2  503  501 -0.18293650801E+03  0.89289419584E+02  0.53565650654E+02  0.21049381307E+03  0.00000000000E+00 0.  1.
         21    1    1    2  504  502  0.63301440331E+01  0.56227361585E+02  0.17861114381E+03  0.18735935420E+03  0.00000000000E+00 0.  1.
<mgrwt>
<rscale>  4 0.25745813E+03</rscale>
<asrwt>0</asrwt>
<pdfrwt beam="1">  1       21 0.51344240E-01 0.25745813E+03</pdfrwt>
<pdfrwt beam="2">  1       21 0.15241520E+00 0.25745813E+03</pdfrwt>
<totfact> 0.97308466E+02</totfact>
</mgrwt>
</event>
<event>
 5    0  0.1531977E+001  0.2177149E+03  0.7546771E-02  0.1135598E+00
         21   -1    0    0  502  501  0.00000000000E+00  0.00000000000E+00  0.37241139033E+03  0.37241139033E+03  0.00000000000E+00 0.  1.
         21   -1    0    0  504  502 -0.00000000000E+00 -0.00000000000E+00 -0.48789925385E+03  0.48789925385E+03  0.00000000000E+00 0.  1.
         25    1    1    2    0    0 -0.20729284381E+03 -0.42179785686E+02 -0.13324898508E+03  0.27951699311E+03  0.12500000000E+03 0.  0.
         21    1    1    2  503  501  0.17419348076E+03  0.83453181427E+01  0.27149638481E+03  0.32268142190E+03  0.00000000000E+00 0.  1.
         21    1    1    2  504  503  0.33099363045E+02  0.33834467543E+02 -0.25373526325E+03  0.25811222916E+03  0.00000000000E+00 0.  1.
<mgrwt>
<rscale>  4 0.21771489E+03</rscale>
<asrwt>0</asrwt>
<pdfrwt beam="1">  1       21 0.57294060E-01 0.21771489E+03</pdfrwt>
<pdfrwt beam="2">  1       21 0.75061424E-01 0.21771489E+03</pdfrwt>
<totfact> 0.44520797E+03</totfact>
</mgrwt>
</event>
<event>
 5    0  0.1531977E+001  0.2496576E+03  0.7546771E-02  0.1113521E+00
         21   -1    0    0  502  501  0.00000000000E+00  0.00000000000E+00  0.77296067477E+03  0.77296067477E+03  0.00000000000E+00 0. -1.
         21   -1    0    0  504  502 -0.00000000000E+00 -0.00000000000E+00 -0.10095832212E+03  0.10095832212E+03  0.00000000000E+00 0. -1.
         25    1    1    2    0    0 -0.20138603076E+03  0.35601812334E+02  0.14751315589E+03  0.28144085273E+03  0.12500000000E+03 0.  0.
         21    1    1    2  503  501  0.21937830787E+03 -0.18659022129E+02  0.52330584621E+03  0.56773586266E+03  0.00000000000E+00 0. -1.
         21    1    1    2  504  503 -0.17992277110E+02 -0.16942790205E+02  0.11833505547E+01  0.24742281506E+02  0.00000000000E+00 0. -1.
<mgrwt>
<rscale>  4 0.24965757E+03</rscale>
<asrwt>0</asrwt>
<pdfrwt beam="1">  1       21 0.11891702E+00 0.24965757E+03</pdfrwt>
<pdfrwt beam="2">  1       21 0.15532050E-01 0.24965757E+03</pdfrwt>
<totfact> 0.19232870E+04</totfact>
</mgrwt>
</event>
<event>
 5    0  0.1531977E+001  0.3274069E+03  0.7546771E-02  0.1072290E+00
         21   -1    0    0  502  501  0.00000000000E+00  0.00000000000E+00  0.12018107472E+04  0.12018107472E+04  0.00000000000E+00 0. -1.
         21   -1    0    0  504  502 -0.00000000000E+00 -0.00000000000E+00 -0.20180179672E+03  0.20180179672E+03  0.00000000000E+00 0. -1.
         25    1    1    2    0    0 -0.12460991542E+03  0.29755082827E+03  0.92085280800E+03  0.98369660995E+03  0.12500000000E+03 0.  0.
         21    1    1    2  503  501  0.21303553805E+02 -0.16056886040E+02  0.11488634114E+03  0.11794293694E+03  0.00000000000E+00 0.  1.
         21    1    1    2  504  503  0.10330636162E+03 -0.28149394223E+03 -0.35730198627E+02  0.30197299706E+03  0.00000000000E+00 0. -1.
<mgrwt>
<rscale>  4 0.32740695E+03</rscale>
<asrwt>0</asrwt>
<pdfrwt beam="1">  1       21 0.18489396E+00 0.32740695E+03</pdfrwt>
<pdfrwt beam="2">  1       21 0.31046431E-01 0.32740695E+03</pdfrwt>
<totfact> 0.15093605E+03</totfact>
</mgrwt>
</event>
<event>
 5    0  0.1531977E+001  0.3403225E+03  0.7546771E-02  0.1066659E+00
         21   -1    0    0  504  501  0.00000000000E+00  0.00000000000E+00  0.73585378680E+03  0.73585378680E+03  0.00000000000E+00 0.  1.
         21   -1    0    0  503  502 -0.00000000000E+00 -0.00000000000E+00 -0.45742821701E+03  0.45742821701E+03  0.00000000000E+00 0.  1.
         25    1    1    2    0    0 -0.18385329176E+03 -0.36635928620E+03 -0.20552211554E+03  0.47527413085E+03  0.12500000000E+03 0.  0.
         21    1    1    2  503  501  0.81910043325E+02  0.21166803473E+03  0.31549755076E+02  0.22914623970E+03  0.00000000000E+00 0.  1.
         21    1    1    2  504  502  0.10194324844E+03  0.15469125147E+03  0.45239793025E+03  0.48886163326E+03  0.00000000000E+00 0.  1.
<mgrwt>
<rscale>  4 0.34032249E+03</rscale>
<asrwt>0</asrwt>
<pdfrwt beam="1">  1       21 0.11320827E+00 0.34032249E+03</pdfrwt>
<pdfrwt beam="2">  1       21 0.70373572E-01 0.34032249E+03</pdfrwt>
<totfact> 0.99778785E+02</totfact>
</mgrwt>
</event>
<event>
 5    0  0.1531977E+001  0.2196633E+03  0.7546771E-02  0.1134134E+00
         21   -1    0    0  504  501  0.00000000000E+00  0.00000000000E+00  0.86413410246E+02  0.86413410246E+02  0.00000000000E+00 0.  1.
         21   -1    0    0  503  502 -0.00000000000E+00 -0.00000000000E+00 -0.79949329093E+03  0.79949329093E+03  0.00000000000E+00 0.  1.
         25    1    1    2    0    0 -0.14715247405E+03 -0.16492498480E+03 -0.45514687091E+03  0.52118880968E+03  0.12500000000E+03 0.  0.
         21    1    1    2  503  501  0.69843526412E+02  0.14512960110E+02 -0.14430309266E+03  0.16097244095E+03  0.00000000000E+00 0.  1.
         21    1    1    2  504  502  0.77308947640E+02  0.15041202469E+03 -0.11362991711E+03  0.20374545055E+03  0.00000000000E+00 0.  1.
<mgrwt>
<rscale>  4 0.21966335E+03</rscale>
<asrwt>0</asrwt>
<pdfrwt beam="1">  1       21 0.13294371E-01 0.21966335E+03</pdfrwt>
<pdfrwt beam="2">  1       21 0.12299896E+00 0.21966335E+03</pdfrwt>
<totfact> 0.23855664E+04</totfact>
</mgrwt>
</event>
<event>
 5    0  0.1531977E+001  0.2187561E+03  0.7546771E-02  0.1134814E+00
         21   -1    0    0  503  501  0.00000000000E+00  0.00000000000E+00  0.10667877445E+04  0.10667877445E+04  0.00000000000E+00 0. -1.
         21   -1    0    0  501  502 -0.00000000000E+00 -0.00000000000E+00 -0.62024559358E+02  0.62024559358E+02  0.00000000000E+00 0. -1.
         25    1    1    2    0    0  0.19518378399E+02  0.20515110635E+03  0.70334493443E+03  0.74349649651E+03  0.12500000000E+03 0.  0.
         21    1    1    2  503  504 -0.70533312730E+02 -0.13218644693E+03  0.17028037664E+03  0.22681184190E+03  0.00000000000E+00 0. -1.
         21    1    1    2  504  502  0.51014934331E+02 -0.72964659423E+02  0.13113787407E+03  0.15850396546E+03  0.00000000000E+00 0. -1.
<mgrwt>
<rscale>  4 0.21875607E+03</rscale>
<asrwt>0</asrwt>
<pdfrwt beam="1">  1       21 0.16412118E+00 0.21875607E+03</pdfrwt>
<pdfrwt beam="2">  1       21 0.95422407E-02 0.21875607E+03</pdfrwt>
<totfact> 0.20346560E+04</totfact>
</mgrwt>
</event>
<event>
 5    0  0.1531977E+001  0.2462707E+03  0.7546771E-02  0.1115685E+00
         21   -1    0    0  502  501  0.00000000000E+00  0.00000000000E+00  0.15829528728E+04  0.15829528728E+04  0.00000000000E+00 0. -1.
         21   -1    0    0  504  502 -0.00000000000E+00 -0.00000000000E+00 -0.12347597323E+03  0.12347597323E+03  0.00000000000E+00 0. -1.
         25    1    1    2    0    0 -0.41179584731E+02  0.29780006997E+03  0.43157197581E+03  0.54061077512E+03  0.12500000000E+03 0.  0.
         21    1    1    2  503  501  0.69277999642E+02 -0.11056507384E+03  0.95350846595E+03  0.96239413517E+03  0.00000000000E+00 0. -1.
         21    1    1    2  504  503 -0.28098414911E+02 -0.18723499613E+03  0.74396457811E+02  0.20342393574E+03  0.00000000000E+00 0. -1.
<mgrwt>
<rscale>  4 0.24627068E+03</rscale>
<asrwt>0</asrwt>
<pdfrwt beam="1">  1       21 0.24353120E+00 0.24627068E+03</pdfrwt>
<pdfrwt beam="2">  1       21 0.18996305E-01 0.24627068E+03</pdfrwt>
<totfact> 0.17457001E+03</totfact>
</mgrwt>
</event>
<event>
 5    0  0.1531977E+001  0.3365556E+03  0.7546771E-02  0.1068272E+00
         21   -1    0    0  502  501  0.00000000000E+00  0.00000000000E+00  0.28965048232E+03  0.28965048232E+03  0.00000000000E+00 0.  1.
         21   -1    0    0  504  502 -0.00000000000E+00 -0.00000000000E+00 -0.52536318961E+03  0.52536318961E+03  0.00000000000E+00 0.  1.
         25    1    1    2    0    0 -0.12080453505E+03  0.32692781568E+03 -0.14043871877E+03  0.39600955302E+03  0.12500000000E+03 0.  0.
         21    1    1    2  503  501 -0.13686768687E+02 -0.71132220973E+02  0.57156511549E+02  0.92271270231E+02  0.00000000000E+00 0.  1.
         21    1    1    2  504  503  0.13449130373E+03 -0.25579559471E+03 -0.15243050007E+03  0.32673284868E+03  0.00000000000E+00 0.  1.
<mgrwt>
<rscale>  4 0.33655559E+03</rscale>
<asrwt>0</asrwt>
<pdfrwt beam="1">  1       21 0.44561613E-01 0.33655559E+03</pdfrwt>
<pdfrwt beam="2">  1       21 0.80825105E-01 0.33655559E+03</pdfrwt>
<totfact> 0.59786519E+03</totfact>
</mgrwt>
</event>
<event>
 5    0  0.1531977E+001  0.2757749E+03  0.7546771E-02  0.1098019E+00
         21   -1    0    0  503  501  0.00000000000E+00  0.00000000000E+00  0.71419962278E+03  0.71419962278E+03  0.00000000000E+00 0.  1.
         21   -1    0    0  504  502 -0.00000000000E+00 -0.00000000000E+00 -0.62560273714E+03  0.62560273714E+03  0.00000000000E+00 0.  1.
         25    1    1    2    0    0 -0.94578240312E+02 -0.27778592364E+03 -0.19393484703E+03  0.37329048716E+03  0.12500000000E+03 0.  0.
         21    1    1    2  503  502  0.51376746591E+02  0.22030268040E+03 -0.30213678808E+03  0.37743804762E+03  0.00000000000E+00 0.  1.
         21    1    1    2  504  501  0.43201493721E+02  0.57483243244E+02  0.58466852075E+03  0.58907382514E+03  0.00000000000E+00 0.  1.
<mgrwt>
<rscale>  4 0.27577494E+03</rscale>
<asrwt>0</asrwt>
<pdfrwt beam="1">  1       21 0.10987687E+00 0.27577494E+03</pdfrwt>
<pdfrwt beam="2">  1       21 0.96246575E-01 0.27577494E+03</pdfrwt>
<totfact> 0.54482103E+02</totfact>
</mgrwt>
</event>
<event>
 5    0  0.1531977E+001  0.2652417E+03  0.7546771E-02  0.1104034E+00
         21   -1    0    0  502  501  0.00000000000E+00  0.00000000000E+00  0.12483642797E+03  0.12483642797E+03  0.00000000000E+00 0.  1.
         21   -1    0    0  504  502 -0.00000000000E+00 -0.00000000000E+00 -0.10473405598E+04  0.10473405598E+04  0.00000000000E+00 0.  1.
         25    1    1    2    0    0 -0.14505229761E+03 -0.24554923798E+03 -0.20536181193E+03  0.37300545722E+03  0.12500000000E+03 0.  0.
         21    1    1    2  503  501  0.39759658774E+02  0.48586513466E+02 -0.18130033036E+02  0.65346597880E+02  0.00000000000E+00 0. -1.
         21    1    1    2  504  503  0.10529263883E+03  0.19696272451E+03 -0.69901228683E+03  0.73382493265E+03  0.00000000000E+00 0.  1.
<mgrwt>
<rscale>  4 0.26524171E+03</rscale>
<asrwt>0</asrwt>
<pdfrwt beam="1">  1       21 0.19205604E-01 0.26524171E+03</pdfrwt>
<pdfrwt beam="2">  1       21 0.16112932E+00 0.26524171E+03</pdfrwt>
<totfact> 0.58306997E+03</totfact>
</mgrwt>
</event>
<event>
 5    0  0.1531977E+001  0.3776916E+03  0.7546771E-02  0.1051790E+00
         21   -1    0    0  504  501  0.00000000000E+00  0.00000000000E+00  0.15774711311E+04  0.15774711311E+04  0.00000000000E+00 0.  1.
         21   -1    0    0  503  502 -0.00000000000E+00 -0.00000000000E+00 -0.25697550557E+03  0.25697550557E+03  0.00000000000E+00 0.  1.
         25    1    1    2    0    0 -0.36250398644E+03 -0.23996174449E+03  0.11582694148E+04  0.12434644411E+04  0.12500000000E+03 0.  0.
         21    1    1    2  503  501  0.26849690338E+03  0.21986602507E+03 -0.56928265898E+02  0.35167098766E+03  0.00000000000E+00 0.  1.
         21    1    1    2  504  502  0.94007083056E+02  0.20095719423E+02  0.21915447658E+03  0.23931120787E+03  0.00000000000E+00 0.  1.
<mgrwt>
<rscale>  4 0.37769156E+03</rscale>
<asrwt>0</asrwt>
<pdfrwt beam="1">  1       21 0.24268786E+00 0.37769156E+03</pdfrwt>
<pdfrwt beam="2">  1       21 0.39534694E-01 0.37769156E+03</pdfrwt>
<totfact> 0.38187839E+02</totfact>
</mgrwt>
</event>
<event>
 5    0  0.1531977E+001  0.1862710E+03  0.7546771E-02  0.1161868E+00
         21   -1    0    0  502  501  0.00000000000E+00  0.00000000000E+00  0.52023171298E+03  0.52023171298E+03  0.00000000000E+00 0.  1.
         21   -1    0    0  504  502 -0.00000000000E+00 -0.00000000000E+00 -0.71360122479E+03  0.71360122479E+03  0.00000000000E+00 0.  1.
         25    1    1    2    0    0  0.11262692992E+03  0.20079846818E+03 -0.52285863121E+03  0.58481706405E+03  0.12500000000E+03 0.  0.
         21    1    1    2  503  501 -0.67447199322E+02 -0.11863694029E+03  0.46478463866E+03  0.48440541764E+03  0.00000000000E+00 0.  1.
         21    1    1    2  504  503 -0.45179730596E+02 -0.82161527891E+02 -0.13529551925E+03  0.16461045608E+03  0.00000000000E+00 0.  1.
<mgrwt>
<rscale>  4 0.18627103E+03</rscale>
<asrwt>0</asrwt>
<pdfrwt beam="1">  1       21 0.80035649E-01 0.18627103E+03</pdfrwt>
<pdfrwt beam="2">  1       21 0.10978480E+00 0.18627103E+03</pdfrwt>
<totfact> 0.90763907E+02</totfact>
</mgrwt>
</event>
<event>
 5    0  0.1531977E+001  0.2914757E+03  0.7546771E-02  0.1089581E+00
         21   -1    0    0  503  501  0.00000000000E+00  0.00000000000E+00  0.33072938252E+03  0.33072938252E+03  0.00000000000E+00 0. -1.
         21   -1    0    0  504  502 -0.00000000000E+00 -0.00000000000E+00 -0.80180807257E+03  0.80180807257E+03  0.00000000000E+00 0.  1.
         25    1    1    2    0    0 -0.44526006219E+02 -0.26138414698E+03 -0.49420741650E+03  0.57460439264E+03  0.12500000000E+03 0.  0.
         21    1    1    2  503  502  0.36368717987E+02 -0.18483482616E+01 -0.20579138551E+03  0.20898850301E+03  0.00000000000E+00 0. -1.
         21    1    1    2  504  501  0.81572882321E+01  0.26323249525E+03  0.22892011196E+03  0.34894455944E+03  0.00000000000E+00 0. -1.
<mgrwt>
<rscale>  4 0.29147567E+03</rscale>
<asrwt>0</asrwt>
<pdfrwt beam="1">  1       21 0.50881444E-01 0.29147567E+03</pdfrwt>
<pdfrwt beam="2">  1       21 0.12335509E+00 0.29147567E+03</pdfrwt>
<totfact> 0.16773184E+03</totfact>
</mgrwt>
</event>
<event>
 5    0  0.1531977E+001  0.6823450E+03  0.7546771E-02  0.9747910E-01
         21   -1    0    0  503  501  0.00000000000E+00  0.00000000000E+00  0.92547834943E+03  0.92547834943E+03  0.00000000000E+00 0.  1.
         21   -1    0    0  501  502 -0.00000000000E+00 -0.00000000000E+00 -0.52886692944E+03  0.52886692944E+03  0.00000000000E+00 0.  1.
         25    1    1    2    0    0 -0.40475340060E+03  0.54315068877E+03  0.19382646506E+03  0.71556389272E+03  0.12500000000E+03 0.  0.
         21    1    1    2  503  504  0.37138515701E+03 -0.55170564282E+03  0.16033861430E+03  0.68411586913E+03  0.00000000000E+00 0.  1.
         21    1    1    2  504  502  0.33368243593E+02  0.85549540505E+01  0.42446340624E+02  0.54665517025E+02  0.00000000000E+00 0.  1.
<mgrwt>
<rscale>  4 0.68234502E+03</rscale>
<asrwt>0</asrwt>
<pdfrwt beam="1">  1       21 0.14238128E+00 0.68234502E+03</pdfrwt>
<pdfrwt beam="2">  1       21 0.81364143E-01 0.68234502E+03</pdfrwt>
<totfact> 0.34425438E+02</totfact>
</mgrwt>
</event>
<event>
 5    0  0.1531977E+001  0.3963483E+03  0.7546771E-02  0.1045052E+00
         21   -1    0    0  502  501  0.00000000000E+00  0.00000000000E+00  0.75009328715E+03  0.75009328715E+03  0.00000000000E+00 0.  1.
         21   -1    0    0  504  502 -0.00000000000E+00 -0.00000000000E+00 -0.24301642621E+03  0.24301642621E+03  0.00000000000E+00 0.  1.
         25    1    1    2    0    0 -0.16023879351E+03 -0.34682256886E+03  0.80473940187E+02  0.40995538814E+03  0.12500000000E+03 0.  0.
         21    1    1    2  503  501  0.16806028691E+03  0.32485023875E+03  0.36256014996E+03  0.51499689318E+03  0.00000000000E+00 0.  1.
         21    1    1    2  504  503 -0.78214933947E+01  0.21972330117E+02  0.64042770794E+02  0.68157432028E+02  0.00000000000E+00 0. -1.
<mgrwt>
<rscale>  4 0.39634826E+03</rscale>
<asrwt>0</asrwt>
<pdfrwt beam="1">  1       21 0.11539897E+00 0.39634826E+03</pdfrwt>
<pdfrwt beam="2">  1       21 0.37387143E-01 0.39634826E+03</pdfrwt>
<totfact> 0.35633277E+03</totfact>
</mgrwt>
</event>
<event>
 5    0  0.1531977E+001  0.2292150E+03  0.7546771E-02  0.1127194E+00
         21   -1    0    0  503  501  0.00000000000E+00  0.00000000000E+00  0.83670466114E+03  0.83670466114E+03  0.00000000000E+00 0.  1.
         21   -1    0    0  504  502 -0.00000000000E+00 -0.00000000000E+00 -0.11884196926E+03  0.11884196926E+03  0.00000000000E+00 0.  1.
         25    1    1    2    0    0 -0.22694925295E+03 -0.63771129306E+02  0.37617781335E+03  0.46120219818E+03  0.12500000000E+03 0.  0.
         21    1    1    2  503  502  0.17641649696E+03  0.39018361759E+02  0.36900721743E+02  0.18440953397E+03  0.00000000000E+00 0.  1.
         21    1    1    2  504  501  0.50532755992E+02  0.24752767547E+02  0.30478415679E+03  0.30993489826E+03  0.00000000000E+00 0.  1.
<mgrwt>
<rscale>  4 0.22921495E+03</rscale>
<asrwt>0</asrwt>
<pdfrwt beam="1">  1       21 0.12872379E+00 0.22921495E+03</pdfrwt>
<pdfrwt beam="2">  1       21 0.18283380E-01 0.22921495E+03</pdfrwt>
<totfact> 0.11792443E+04</totfact>
</mgrwt>
</event>
<event>
 5    0  0.1531977E+001  0.2820884E+03  0.7546771E-02  0.1094554E+00
         21   -1    0    0  502  501  0.00000000000E+00  0.00000000000E+00  0.70799637052E+03  0.70799637052E+03  0.00000000000E+00 0. -1.
         21   -1    0    0  504  502 -0.00000000000E+00 -0.00000000000E+00 -0.15551400216E+03  0.15551400216E+03  0.00000000000E+00 0. -1.
         25    1    1    2    0    0 -0.25967950592E+03 -0.66578975688E+02  0.13615736197E+03  0.32562253149E+03  0.12500000000E+03 0.  0.
         21    1    1    2  503  501  0.22679987422E+03  0.10141723131E+03  0.42194634617E+03  0.48965534491E+03  0.00000000000E+00 0. -1.
         21    1    1    2  504  503  0.32879631694E+02 -0.34838255624E+02 -0.56213397856E+01  0.48232496268E+02  0.00000000000E+00 0.  1.
<mgrwt>
<rscale>  4 0.28208842E+03</rscale>
<asrwt>0</asrwt>
<pdfrwt beam="1">  1       21 0.10892252E+00 0.28208842E+03</pdfrwt>
<pdfrwt beam="2">  1       21 0.23925231E-01 0.28208842E+03</pdfrwt>
<totfact> 0.10440840E+04</totfact>
</mgrwt>
</event>
<event>
 5    0  0.1531977E+001  0.2647769E+03  0.7546771E-02  0.1104307E+00
         21   -1    0    0  503  501  0.00000000000E+00  0.00000000000E+00  0.62394000759E+03  0.62394000759E+03  0.00000000000E+00 0.  1.
         21   -1    0    0  504  502 -0.00000000000E+00 -0.00000000000E+00 -0.16493788189E+03  0.16493788189E+03  0.00000000000E+00 0.  1.
         25    1    1    2    0    0 -0.10206146632E+03  0.24915893023E+03  0.20888932393E+03  0.36298273385E+03  0.12500000000E+03 0.  0.
         21    1    1    2  503  502  0.95251889442E+02 -0.19405426216E+03  0.55031317367E+02  0.22306596557E+03  0.00000000000E+00 0.  1.
         21    1    1    2  504  501  0.68095768821E+01 -0.55104668072E+02  0.19508148441E+03  0.20282919006E+03  0.00000000000E+00 0.  1.
<mgrwt>
<rscale>  4 0.26477692E+03</rscale>
<asrwt>0</asrwt>
<pdfrwt beam="1">  1       21 0.95990769E-01 0.26477692E+03</pdfrwt>
<pdfrwt beam="2">  1       21 0.25375059E-01 0.26477692E+03</pdfrwt>
<totfact> 0.12755060E+04</totfact>
</mgrwt>
</event>
<event>
 5    0  0.1531977E+001  0.3451312E+03  0.7546771E-02  0.1064631E+00
         21   -1    0    0  502  501  0.00000000000E+00  0.00000000000E+00  0.86152117859E+03  0.86152117859E+03  0.00000000000E+00 0. -1.
         21   -1    0    0  504  502 -0.00000000000E+00 -0.00000000000E+00 -0.69219807383E+03  0.69219807383E+03  0.00000000000E+00 0.  1.
         25    1    1    2    0    0  0.87972511152E+02  0.31584768792E+03  0.72850883643E+03  0.80860933054E+03  0.12500000000E+03 0.  0.
         21    1    1    2  503  501  0.47185906704E+02 -0.24039586483E+02  0.39129654747E+02  0.65844828122E+02  0.00000000000E+00 0. -1.
         21    1    1    2  504  503 -0.13515841786E+03 -0.29180810143E+03 -0.59831538641E+03  0.67926509376E+03  0.00000000000E+00 0.  1.
<mgrwt>
<rscale>  4 0.34513122E+03</rscale>
<asrwt>0</asrwt>
<pdfrwt beam="1">  1       21 0.13254172E+00 0.34513122E+03</pdfrwt>
<pdfrwt beam="2">  1       21 0.10649201E+00 0.34513122E+03</pdfrwt>
<totfact> 0.25348414E+02</totfact>
</mgrwt>
</event>
<event>
 5    0  0.1531977E+001  0.3265779E+03  0.7546771E-02  0.1072661E+00
         21   -1    0    0  503  501  0.00000000000E+00  0.00000000000E+00  0.20068949376E+03  0.20068949376E+03  0.00000000000E+00 0. -1.
         21   -1    0    0  501  502 -0.00000000000E+00 -0.00000000000E+00 -0.65393733570E+03  0.65393733570E+03  0.00000000000E+00 0. -1.
         25    1    1    2    0    0  0.94317556553E+02 -0.24265173567E+03 -0.28531730407E+03  0.40596382881E+03  0.12500000000E+03 0.  0.
         21    1    1    2  503  504  0.62212684339E+02 -0.46439064095E+02 -0.72800032080E+02  0.10642767233E+03  0.00000000000E+00 0.  1.
         21    1    1    2  504  502 -0.15653024089E+03  0.28909079976E+03 -0.95130505781E+02  0.34223532832E+03  0.00000000000E+00 0. -1.
<mgrwt>
<rscale>  4 0.32657787E+03</rscale>
<asrwt>0</asrwt>
<pdfrwt beam="1">  1       21 0.30875307E-01 0.32657787E+03</pdfrwt>
<pdfrwt beam="2">  1       21 0.10060574E+00 0.32657787E+03</pdfrwt>
<totfact> 0.75488409E+03</totfact>
</mgrwt>
</event>
<event>
 5    0  0.1531977E+001  0.2804034E+03  0.7546771E-02  0.1095469E+00
         21   -1    0    0  503  501  0.00000000000E+00  0.00000000000E+00  0.29922136321E+03  0.29922136321E+03  0.00000000000E+00 0. -1.
         21   -1    0    0  504  502 -0.00000000000E+00 -0.00000000000E+00 -0.48011694027E+03  0.48011694027E+03  0.00000000000E+00 0. -1.
         25    1    1    2    0    0 -0.14786557235E+03 -0.21791796804E+03 -0.22441560153E+01  0.29151758869E+03  0.12500000000E+03 0.  0.
         21    1    1    2  503  502 -0.32725879119E+02  0.51825601338E+02 -0.22924872380E+03  0.23730118727E+03  0.00000000000E+00 0. -1.
         21    1    1    2  504  501  0.18059145147E+03  0.16609236670E+03  0.50597302748E+02  0.25051952751E+03  0.00000000000E+00 0. -1.
<mgrwt>
<rscale>  4 0.28040340E+03</rscale>
<asrwt>0</asrwt>
<pdfrwt beam="1">  1       21 0.46034056E-01 0.28040340E+03</pdfrwt>
<pdfrwt beam="2">  1       21 0.73864145E-01 0.28040340E+03</pdfrwt>
<totfact> 0.70427140E+03</totfact>
</mgrwt>
</event>
