<event>
 5    0  0.1856407E+000  0.3664663E+03  0.7546771E-02  0.1056052E+00
         21   -1    0    0  502  501  0.00000000000E+00  0.00000000000E+00  0.37236232693E+03  0.37236232693E+03  0.00000000000E+00 0.  1.
         21   -1    0    0  503  502 -0.00000000000E+00 -0.00000000000E+00 -0.49429990057E+03  0.49429990057E+03  0.00000000000E+00 0.  1.
         25    1    1    2    0    0  0.24269037387E+03 -0.24448709220E+03  0.17577773312E+03  0.40644232959E+03  0.12500000000E+03 0.  0.
         21    1    1    2  503  504 -0.20548541077E+02  0.19419293213E+02 -0.38635505447E+01  0.28535565739E+02  0.00000000000E+00 0.  1.
         21    1    1    2  504  501 -0.22214183279E+03  0.22506779899E+03 -0.29385175621E+03  0.43168433218E+03  0.00000000000E+00 0.  1.
<mgrwt>
<rscale>  4 0.36646631E+03</rscale>
<asrwt>0</asrwt>
<pdfrwt beam="1">  1       21 0.57286512E-01 0.36646631E+03</pdfrwt>
<pdfrwt beam="2">  1       21 0.76046138E-01 0.36646631E+03</pdfrwt>
<totfact> 0.39844278E+03</totfact>
</mgrwt>
</event>
<event>
 5    0  0.2259001E+000  0.2476471E+03  0.7546771E-02  0.1114801E+00
         21   -1    0    0  502  501  0.00000000000E+00  0.00000000000E+00  0.50068494156E+03  0.50068494156E+03  0.00000000000E+00 0.  1.
         21   -1    0    0  503  502 -0.00000000000E+00 -0.00000000000E+00 -0.11286653701E+03  0.11286653701E+03  0.00000000000E+00 0.  1.
         25    1    1    2    0    0  0.14239586791E+03 -0.15946002101E+03  0.21831229773E+03  0.33013533716E+03  0.12500000000E+03 0.  0.
         21    1    1    2  503  504 -0.10710523118E+03  0.15878438834E+03  0.14835632329E+03  0.24226764370E+03  0.00000000000E+00 0.  1.
         21    1    1    2  504  501 -0.35290636726E+02  0.67563267731E+00  0.21149783532E+02  0.41148497706E+02  0.00000000000E+00 0.  1.
<mgrwt>
<rscale>  4 0.24764709E+03</rscale>
<asrwt>0</asrwt>
<pdfrwt beam="1">  1       21 0.77028452E-01 0.24764709E+03</pdfrwt>
<pdfrwt beam="2">  1       21 0.17364083E-01 0.24764709E+03</pdfrwt>
<totfact> 0.43789647E+04</totfact>
</mgrwt>
</event>
<event>
 5    0  0.1856407E+000  0.4337530E+03  0.7546771E-02  0.1032681E+00
         21   -1    0    0  502  501  0.00000000000E+00  0.00000000000E+00  0.22802854627E+04  0.22802854627E+04  0.00000000000E+00 0. -1.
         21   -1    0    0  503  502 -0.00000000000E+00 -0.00000000000E+00 -0.22214515854E+03  0.22214515854E+03  0.00000000000E+00 0. -1.
         25    1    1    2    0    0  0.58978322389E+02  0.41196414030E+03  0.19930096691E+04  0.20398297568E+04  0.12500000000E+03 0.  0.
         21    1    1    2  503  504 -0.45039627737E+02 -0.10954856251E+01  0.19072960287E+02  0.48923879339E+02  0.00000000000E+00 0. -1.
         21    1    1    2  504  501 -0.13938694652E+02 -0.41086865468E+03  0.46057674718E+02  0.41367698510E+03  0.00000000000E+00 0. -1.
<mgrwt>
<rscale>  4 0.43375297E+03</rscale>
<asrwt>0</asrwt>
<pdfrwt beam="1">  1       21 0.35081313E+00 0.43375297E+03</pdfrwt>
<pdfrwt beam="2">  1       21 0.34176180E-01 0.43375297E+03</pdfrwt>
<totfact> 0.11002048E+02</totfact>
</mgrwt>
</event>
<event>
 5    0  0.1856407E+000  0.2388218E+03  0.7546771E-02  0.1120580E+00
         21   -1    0    0  502  501  0.00000000000E+00  0.00000000000E+00  0.84697138267E+03  0.84697138267E+03  0.00000000000E+00 0.  1.
         21   -1    0    0  503  502 -0.00000000000E+00 -0.00000000000E+00 -0.80835168708E+02  0.80835168708E+02  0.00000000000E+00 0.  1.
         25    1    1    2    0    0 -0.18708413968E+03  0.80064803302E+02  0.62749338257E+03  0.67140434405E+03  0.12500000000E+03 0.  0.
         21    1    1    2  503  504  0.45501733312E+02 -0.49463566231E+02  0.22950520143E+02  0.71019564160E+02  0.00000000000E+00 0.  1.
         21    1    1    2  504  501  0.14158240637E+03 -0.30601237071E+02  0.11569231125E+03  0.18538264317E+03  0.00000000000E+00 0.  1.
<mgrwt>
<rscale>  4 0.23882179E+03</rscale>
<asrwt>0</asrwt>
<pdfrwt beam="1">  1       21 0.13030328E+00 0.23882179E+03</pdfrwt>
<pdfrwt beam="2">  1       21 0.12436180E-01 0.23882179E+03</pdfrwt>
<totfact> 0.23019685E+04</totfact>
</mgrwt>
</event>
<event>
 5    0  0.1856407E+000  0.2393125E+03  0.7546771E-02  0.1120252E+00
         21   -1    0    0  502  501  0.00000000000E+00  0.00000000000E+00  0.31895835963E+03  0.31895835963E+03  0.00000000000E+00 0.  1.
         21   -1    0    0  503  502 -0.00000000000E+00 -0.00000000000E+00 -0.10637329778E+04  0.10637329778E+04  0.00000000000E+00 0.  1.
         25    1    1    2    0    0  0.21298873875E+02 -0.20295775985E+03  0.26182365321E+03  0.35471413799E+03  0.12500000000E+03 0.  0.
         21    1    1    2  503  504 -0.32155736977E+01  0.46029209298E+02 -0.15004301991E+03  0.15697750108E+03  0.00000000000E+00 0.  1.
         21    1    1    2  504  501 -0.18083300177E+02  0.15692855055E+03 -0.85655525143E+03  0.87099969832E+03  0.00000000000E+00 0.  1.
<mgrwt>
<rscale>  4 0.23931255E+03</rscale>
<asrwt>0</asrwt>
<pdfrwt beam="1">  1       21 0.49070517E-01 0.23931255E+03</pdfrwt>
<pdfrwt beam="2">  1       21 0.16365123E+00 0.23931255E+03</pdfrwt>
<totfact> 0.89596737E+02</totfact>
</mgrwt>
</event>
<event>
 5    0  0.1856407E+000  0.3178832E+03  0.7546771E-02  0.1076628E+00
         21   -1    0    0  502  501  0.00000000000E+00  0.00000000000E+00  0.92240131190E+02  0.92240131190E+02  0.00000000000E+00 0. -1.
         21   -1    0    0  503  502 -0.00000000000E+00 -0.00000000000E+00 -0.13255009534E+04  0.13255009534E+04  0.00000000000E+00 0. -1.
         25    1    1    2    0    0 -0.11098338297E+03  0.27806091852E+03 -0.39409289512E+03  0.51045998441E+03  0.12500000000E+03 0.  0.
         21    1    1    2  503  504  0.22910475178E+02 -0.22707000617E+01 -0.40142764333E+01  0.23370074175E+02  0.00000000000E+00 0. -1.
         21    1    1    2  504  501  0.88072907788E+02 -0.27579021846E+03 -0.83515365063E+03  0.88391102597E+03  0.00000000000E+00 0. -1.
<mgrwt>
<rscale>  4 0.31788321E+03</rscale>
<asrwt>0</asrwt>
<pdfrwt beam="1">  1       21 0.14190790E-01 0.31788321E+03</pdfrwt>
<pdfrwt beam="2">  1       21 0.20392322E+00 0.31788321E+03</pdfrwt>
<totfact> 0.50201418E+03</totfact>
</mgrwt>
</event>
<event>
 5    0  0.1856407E+000  0.3237485E+03  0.7546771E-02  0.1073937E+00
         21   -1    0    0  502  501  0.00000000000E+00  0.00000000000E+00  0.87431070492E+03  0.87431070492E+03  0.00000000000E+00 0. -1.
         21   -1    0    0  503  502 -0.00000000000E+00 -0.00000000000E+00 -0.48945278907E+03  0.48945278907E+03  0.00000000000E+00 0.  1.
         25    1    1    2    0    0  0.25613338582E+03  0.15357011678E+03  0.79300756950E+03  0.85654777881E+03  0.12500000000E+03 0.  0.
         21    1    1    2  503  504 -0.22904419284E+03 -0.14409531627E+03 -0.35036160555E+03  0.44269397679E+03  0.00000000000E+00 0.  1.
         21    1    1    2  504  501 -0.27089192973E+02 -0.94748005182E+01 -0.57788048103E+02  0.64521738386E+02  0.00000000000E+00 0.  1.
<mgrwt>
<rscale>  4 0.32374850E+03</rscale>
<asrwt>0</asrwt>
<pdfrwt beam="1">  1       21 0.13450934E+00 0.32374850E+03</pdfrwt>
<pdfrwt beam="2">  1       21 0.75300429E-01 0.32374850E+03</pdfrwt>
<totfact> 0.55908696E+02</totfact>
</mgrwt>
</event>
<event>
 5    0  0.1993630E+000  0.2850562E+03  0.7546771E-02  0.1092959E+00
         21   -1    0    0  502  501  0.00000000000E+00  0.00000000000E+00  0.17512498606E+03  0.17512498606E+03  0.00000000000E+00 0. -1.
         21   -1    0    0  503  502 -0.00000000000E+00 -0.00000000000E+00 -0.45463128574E+03  0.45463128574E+03  0.00000000000E+00 0. -1.
         25    1    1    2    0    0  0.12251219284E+03  0.22499517213E+03 -0.19818077739E+03  0.34717817530E+03  0.12500000000E+03 0.  0.
         21    1    1    2  503  504 -0.31083194812E+01 -0.63854107071E+02  0.52212733791E+01  0.64142578179E+02  0.00000000000E+00 0. -1.
         21    1    1    2  504  501 -0.11940387336E+03 -0.16114106506E+03 -0.86546795679E+02  0.21843551832E+03  0.00000000000E+00 0. -1.
<mgrwt>
<rscale>  4 0.28505625E+03</rscale>
<asrwt>0</asrwt>
<pdfrwt beam="1">  1       21 0.26942305E-01 0.28505625E+03</pdfrwt>
<pdfrwt beam="2">  1       21 0.69943275E-01 0.28505625E+03</pdfrwt>
<totfact> 0.23268456E+04</totfact>
</mgrwt>
</event>
<event>
 5    0  0.2654998E+000  0.2584079E+03  0.7546771E-02  0.1108104E+00
         21   -1    0    0  502  501  0.00000000000E+00  0.00000000000E+00  0.44088628621E+03  0.44088628621E+03  0.00000000000E+00 0. -1.
         21   -1    0    0  503  502 -0.00000000000E+00 -0.00000000000E+00 -0.14312602770E+03  0.14312602770E+03  0.00000000000E+00 0. -1.
         25    1    1    2    0    0  0.20576648169E+03  0.93860405417E+02  0.11109525642E+03  0.28127704615E+03  0.12500000000E+03 0.  0.
         21    1    1    2  503  504 -0.19681289896E+03 -0.65588666653E+02  0.15238011094E+03  0.25740413478E+03  0.00000000000E+00 0. -1.
         21    1    1    2  504  501 -0.89535827350E+01 -0.28271738764E+02  0.34284891150E+02  0.45331132985E+02  0.00000000000E+00 0. -1.
<mgrwt>
<rscale>  4 0.25840786E+03</rscale>
<asrwt>0</asrwt>
<pdfrwt beam="1">  1       21 0.67828659E-01 0.25840786E+03</pdfrwt>
<pdfrwt beam="2">  1       21 0.22019389E-01 0.25840786E+03</pdfrwt>
<totfact> 0.37096315E+04</totfact>
</mgrwt>
</event>
