<event>
 5    0  0.1911311E+001  0.3929785E+03  0.7546771E-02  0.1046238E+00
         21   -1    0    0  502  501  0.00000000000E+00  0.00000000000E+00  0.10618588966E+04  0.10618588966E+04  0.00000000000E+00 0. -1.
         21   -1    0    0  504  502 -0.00000000000E+00 -0.00000000000E+00 -0.24663647853E+03  0.24663647853E+03  0.00000000000E+00 0. -1.
         25    1    1    2    0    0 -0.20759073605E+03 -0.32665116232E+03  0.73373598835E+03  0.83892097133E+03  0.12500000000E+03 0.  0.
         21    1    1    2  503  501 -0.36088928250E+01  0.23613335462E+02  0.96976970499E+02  0.99875655323E+02  0.00000000000E+00 0. -1.
         21    1    1    2  504  503  0.21119962887E+03  0.30303782686E+03 -0.15490540823E+02  0.36969874844E+03  0.00000000000E+00 0. -1.
<mgrwt>
<rscale>  4 0.39297848E+03</rscale>
<asrwt>0</asrwt>
<pdfrwt beam="1">  1       21 0.16336290E+00 0.39297848E+03</pdfrwt>
<pdfrwt beam="2">  1       21 0.37944074E-01 0.39297848E+03</pdfrwt>
<totfact> 0.13855455E+03</totfact>
</mgrwt>
</event>
<event>
 5    0  0.1911311E+001  0.2353148E+03  0.7546771E-02  0.1122954E+00
         21   -1    0    0  502  501  0.00000000000E+00  0.00000000000E+00  0.25516015247E+03  0.25516015247E+03  0.00000000000E+00 0.  1.
         21   -1    0    0  504  502 -0.00000000000E+00 -0.00000000000E+00 -0.11275602792E+04  0.11275602792E+04  0.00000000000E+00 0.  1.
         25    1    1    2    0    0 -0.22948502359E+03 -0.19616490703E+03  0.19574853562E+02  0.32734113962E+03  0.12500000000E+03 0.  0.
         21    1    1    2  503  501  0.95082902098E+02  0.56961301883E+02  0.28777713461E+02  0.11451421299E+03  0.00000000000E+00 0.  1.
         21    1    1    2  504  503  0.13440212149E+03  0.13920360514E+03 -0.92075269375E+03  0.94086507906E+03  0.00000000000E+00 0.  1.
<mgrwt>
<rscale>  4 0.23531476E+03</rscale>
<asrwt>0</asrwt>
<pdfrwt beam="1">  1       21 0.39255408E-01 0.23531476E+03</pdfrwt>
<pdfrwt beam="2">  1       21 0.17347081E+00 0.23531476E+03</pdfrwt>
<totfact> 0.12110309E+03</totfact>
</mgrwt>
</event>
<event>
 5    0  0.1911311E+001  0.2906861E+03  0.7546771E-02  0.1089991E+00
         21   -1    0    0  502  501  0.00000000000E+00  0.00000000000E+00  0.18703913398E+03  0.18703913398E+03  0.00000000000E+00 0. -1.
         21   -1    0    0  504  502 -0.00000000000E+00 -0.00000000000E+00 -0.49257073094E+03  0.49257073094E+03  0.00000000000E+00 0. -1.
         25    1    1    2    0    0  0.25237736759E+03 -0.87942529281E+01 -0.61678332057E+02  0.28844564688E+03  0.12500000000E+03 0.  0.
         21    1    1    2  503  501 -0.27857141616E+03  0.29315430797E+01 -0.21631008388E+03  0.35270480609E+03  0.00000000000E+00 0. -1.
         21    1    1    2  504  503  0.26194048571E+02  0.58627098484E+01 -0.27543181013E+02  0.38459411951E+02  0.00000000000E+00 0.  1.
<mgrwt>
<rscale>  4 0.29068606E+03</rscale>
<asrwt>0</asrwt>
<pdfrwt beam="1">  1       21 0.28775251E-01 0.29068606E+03</pdfrwt>
<pdfrwt beam="2">  1       21 0.75780112E-01 0.29068606E+03</pdfrwt>
<totfact> 0.17055784E+04</totfact>
</mgrwt>
</event>
<event>
 5    0  0.1911311E+001  0.1967631E+03  0.7546771E-02  0.1152499E+00
         21   -1    0    0  503  501  0.00000000000E+00  0.00000000000E+00  0.24015418953E+04  0.24015418953E+04  0.00000000000E+00 0.  1.
         21   -1    0    0  504  502 -0.00000000000E+00 -0.00000000000E+00 -0.38126022925E+02  0.38126022925E+02  0.00000000000E+00 0.  1.
         25    1    1    2    0    0  0.22964523076E+03  0.10836098697E+02  0.13488925865E+04  0.13740416889E+04  0.12500000000E+03 0.  0.
         21    1    1    2  503  502 -0.13859962286E+03  0.20755144275E+02  0.19324864876E+03  0.23871671855E+03  0.00000000000E+00 0.  1.
         21    1    1    2  504  501 -0.91045607901E+02 -0.31591242971E+02  0.82127463711E+03  0.82690951072E+03  0.00000000000E+00 0.  1.
<mgrwt>
<rscale>  4 0.19676310E+03</rscale>
<asrwt>0</asrwt>
<pdfrwt beam="1">  1       21 0.36946787E+00 0.19676310E+03</pdfrwt>
<pdfrwt beam="2">  1       21 0.58655439E-02 0.19676310E+03</pdfrwt>
<totfact> 0.27291391E+03</totfact>
</mgrwt>
</event>
<event>
 5    0  0.1911311E+001  0.2493001E+03  0.7546771E-02  0.1113748E+00
         21   -1    0    0  503  501  0.00000000000E+00  0.00000000000E+00  0.43111705754E+03  0.43111705754E+03  0.00000000000E+00 0.  1.
         21   -1    0    0  504  502 -0.00000000000E+00 -0.00000000000E+00 -0.16505834852E+03  0.16505834852E+03  0.00000000000E+00 0.  1.
         25    1    1    2    0    0  0.17328398822E+03  0.12844526770E+03  0.26879218935E+03  0.36660573976E+03  0.12500000000E+03 0.  0.
         21    1    1    2  503  502 -0.32665654283E+02 -0.27039635281E+02 -0.32804384261E+02  0.53612633517E+02  0.00000000000E+00 0.  1.
         21    1    1    2  504  501 -0.14061833394E+03 -0.10140563242E+03  0.30070903932E+02  0.17595703279E+03  0.00000000000E+00 0.  1.
<mgrwt>
<rscale>  4 0.24930007E+03</rscale>
<asrwt>0</asrwt>
<pdfrwt beam="1">  1       21 0.66325701E-01 0.24930007E+03</pdfrwt>
<pdfrwt beam="2">  1       21 0.25393592E-01 0.24930007E+03</pdfrwt>
<totfact> 0.29796110E+04</totfact>
</mgrwt>
</event>
