<event>
 4    0  0.1032225E-001  0.2401226E+03  0.7546771E-02  0.1119711E+00
         21   -1    0    0  502  501  0.00000000000E+00  0.00000000000E+00  0.10888863404E+04  0.10888863404E+04  0.00000000000E+00 0.  1.
         21   -1    0    0  503  502 -0.00000000000E+00 -0.00000000000E+00 -0.11475278269E+03  0.11475278269E+03  0.00000000000E+00 0.  1.
         25    1    1    2    0    0  0.10151093252E+03  0.17812749223E+03  0.96925861860E+03  0.99855953385E+03  0.12500000000E+03 0.  0.
         21    1    1    2  503  501 -0.10151093252E+03 -0.17812749223E+03  0.48749391570E+01  0.20507958929E+03  0.00000000000E+00 0.  1.
<mgrwt>
<rscale>  3 0.24012262E+03</rscale>
<asrwt>0</asrwt>
<pdfrwt beam="1">  1       21 0.16752097E+00 0.24012262E+03</pdfrwt>
<pdfrwt beam="2">  1       21 0.17654275E-01 0.24012262E+03</pdfrwt>
<totfact> 0.62316028E+03</totfact>
</mgrwt>
</event>
<event>
 4    0  0.1541849E-001  0.2705767E+03  0.7546771E-02  0.1100950E+00
         21   -1    0    0  503  501  0.00000000000E+00  0.00000000000E+00  0.83457861271E+02  0.83457861271E+02  0.00000000000E+00 0. -1.
         21   -1    0    0  501  502 -0.00000000000E+00 -0.00000000000E+00 -0.10486956450E+04  0.10486956450E+04  0.00000000000E+00 0. -1.
         25    1    1    2    0    0 -0.23938106661E+03 -0.16836255927E+02 -0.21843939689E+03  0.34774635106E+03  0.12500000000E+03 0.  0.
         21    1    1    2  503  502  0.23938106661E+03  0.16836255927E+02 -0.74679838684E+03  0.78440715522E+03  0.00000000000E+00 0. -1.
<mgrwt>
<rscale>  3 0.27057671E+03</rscale>
<asrwt>0</asrwt>
<pdfrwt beam="1">  1       21 0.12839672E-01 0.27057671E+03</pdfrwt>
<pdfrwt beam="2">  1       21 0.16133778E+00 0.27057671E+03</pdfrwt>
<totfact> 0.12161039E+04</totfact>
</mgrwt>
</event>
<event>
 4    0  0.1095484E-001  0.2399182E+03  0.7546771E-02  0.1119847E+00
         21   -1    0    0  503  501  0.00000000000E+00  0.00000000000E+00  0.65743515354E+03  0.65743515354E+03  0.00000000000E+00 0.  1.
         21   -1    0    0  501  502 -0.00000000000E+00 -0.00000000000E+00 -0.21976671966E+03  0.21976671966E+03  0.00000000000E+00 0.  1.
         25    1    1    2    0    0  0.17798847350E+03  0.10127105857E+03  0.58010148946E+03  0.62775669019E+03  0.12500000000E+03 0.  0.
         21    1    1    2  503  502 -0.17798847350E+03 -0.10127105857E+03 -0.14243305558E+03  0.24944518300E+03  0.00000000000E+00 0.  1.
<mgrwt>
<rscale>  3 0.23991816E+03</rscale>
<asrwt>0</asrwt>
<pdfrwt beam="1">  1       21 0.10114387E+00 0.23991816E+03</pdfrwt>
<pdfrwt beam="2">  1       21 0.33810265E-01 0.23991816E+03</pdfrwt>
<totfact> 0.65141539E+03</totfact>
</mgrwt>
</event>
<event>
 4    0  0.1196307E-001  0.3119529E+03  0.7546771E-02  0.1079414E+00
         21   -1    0    0  503  501  0.00000000000E+00  0.00000000000E+00  0.49575517837E+02  0.49575517837E+02  0.00000000000E+00 0. -1.
         21   -1    0    0  501  502 -0.00000000000E+00 -0.00000000000E+00 -0.18032117197E+04  0.18032117197E+04  0.00000000000E+00 0. -1.
         25    1    1    2    0    0  0.28571037424E+03 -0.76946551776E+01 -0.93986458577E+03  0.99028282084E+03  0.12500000000E+03 0.  0.
         21    1    1    2  503  502 -0.28571037424E+03  0.76946551776E+01 -0.81377161610E+03  0.86250441671E+03  0.00000000000E+00 0. -1.
<mgrwt>
<rscale>  3 0.31195292E+03</rscale>
<asrwt>0</asrwt>
<pdfrwt beam="1">  1       21 0.76270046E-02 0.31195292E+03</pdfrwt>
<pdfrwt beam="2">  1       21 0.27741712E+00 0.31195292E+03</pdfrwt>
<totfact> 0.54246934E+03</totfact>
</mgrwt>
</event>
<event>
 4    0  0.1003929E-001  0.4573596E+03  0.7546771E-02  0.1025550E+00
         21   -1    0    0  502  501  0.00000000000E+00  0.00000000000E+00  0.22674015920E+04  0.22674015920E+04  0.00000000000E+00 0.  1.
         21   -1    0    0  503  502 -0.00000000000E+00 -0.00000000000E+00 -0.91373258945E+02  0.91373258945E+02  0.00000000000E+00 0.  1.
         25    1    1    2    0    0  0.35975558967E+03 -0.25323643883E+03  0.13073551329E+04  0.13850470107E+04  0.12500000000E+03 0.  0.
         21    1    1    2  503  501 -0.35975558967E+03  0.25323643883E+03  0.86867320011E+03  0.97372784023E+03  0.00000000000E+00 0.  1.
<mgrwt>
<rscale>  3 0.45735957E+03</rscale>
<asrwt>0</asrwt>
<pdfrwt beam="1">  1       21 0.34883097E+00 0.45735957E+03</pdfrwt>
<pdfrwt beam="2">  1       21 0.14057426E-01 0.45735957E+03</pdfrwt>
<totfact> 0.61545335E+02</totfact>
</mgrwt>
</event>
<event>
 4    0  0.1366796E-001  0.2572471E+03  0.7546771E-02  0.1108809E+00
         21   -1    0    0  503  501  0.00000000000E+00  0.00000000000E+00  0.79069078571E+03  0.79069078571E+03  0.00000000000E+00 0. -1.
         21   -1    0    0  501  502 -0.00000000000E+00 -0.00000000000E+00 -0.93984726372E+02  0.93984726372E+02  0.00000000000E+00 0. -1.
         25    1    1    2    0    0 -0.11510073507E+03 -0.19313952750E+03  0.57290307686E+03  0.62800795518E+03  0.12500000000E+03 0.  0.
         21    1    1    2  503  502  0.11510073507E+03  0.19313952750E+03  0.12380298248E+03  0.25666755690E+03  0.00000000000E+00 0. -1.
<mgrwt>
<rscale>  3 0.25724707E+03</rscale>
<asrwt>0</asrwt>
<pdfrwt beam="1">  1       21 0.12164473E+00 0.25724707E+03</pdfrwt>
<pdfrwt beam="2">  1       21 0.14459189E-01 0.25724707E+03</pdfrwt>
<totfact> 0.20638473E+04</totfact>
</mgrwt>
</event>
<event>
 4    0  0.1669896E-001  0.3066247E+03  0.7546771E-02  0.1081975E+00
         21   -1    0    0  502  501  0.00000000000E+00  0.00000000000E+00  0.48124584218E+03  0.48124584218E+03  0.00000000000E+00 0. -1.
         21   -1    0    0  503  502 -0.00000000000E+00 -0.00000000000E+00 -0.19417046043E+03  0.19417046043E+03  0.00000000000E+00 0. -1.
         25    1    1    2    0    0 -0.42178417970E+02 -0.27679361409E+03  0.24457787375E+03  0.39222067777E+03  0.12500000000E+03 0.  0.
         21    1    1    2  503  501  0.42178417970E+02  0.27679361409E+03  0.42497507998E+02  0.28319562484E+03  0.00000000000E+00 0. -1.
<mgrwt>
<rscale>  3 0.30662473E+03</rscale>
<asrwt>0</asrwt>
<pdfrwt beam="1">  1       21 0.74037822E-01 0.30662473E+03</pdfrwt>
<pdfrwt beam="2">  1       21 0.29872379E-01 0.30662473E+03</pdfrwt>
<totfact> 0.16591587E+04</totfact>
</mgrwt>
</event>
<event>
 4    0  0.1237509E-001  0.2404099E+03  0.7546771E-02  0.1119520E+00
         21   -1    0    0  503  501  0.00000000000E+00  0.00000000000E+00  0.66485780167E+03  0.66485780167E+03  0.00000000000E+00 0.  1.
         21   -1    0    0  501  502 -0.00000000000E+00 -0.00000000000E+00 -0.12249530068E+03  0.12249530068E+03  0.00000000000E+00 0.  1.
         25    1    1    2    0    0 -0.18310299274E+03  0.92979550868E+02  0.52958403115E+03  0.58159792716E+03  0.12500000000E+03 0.  0.
         21    1    1    2  503  502  0.18310299274E+03 -0.92979550868E+02  0.12778469842E+02  0.20575517520E+03  0.00000000000E+00 0.  1.
<mgrwt>
<rscale>  3 0.24040986E+03</rscale>
<asrwt>0</asrwt>
<pdfrwt beam="1">  1       21 0.10228581E+00 0.24040986E+03</pdfrwt>
<pdfrwt beam="2">  1       21 0.18845431E-01 0.24040986E+03</pdfrwt>
<totfact> 0.19511462E+04</totfact>
</mgrwt>
</event>
<event>
 4    0  0.1599214E-001  0.3170578E+03  0.7546771E-02  0.1077011E+00
         21   -1    0    0  502  501  0.00000000000E+00  0.00000000000E+00  0.43680008461E+03  0.43680008461E+03  0.00000000000E+00 0.  1.
         21   -1    0    0  503  502 -0.00000000000E+00 -0.00000000000E+00 -0.22760815083E+03  0.22760815083E+03  0.00000000000E+00 0.  1.
         25    1    1    2    0    0 -0.27498457823E+03 -0.96354077845E+02  0.19596648151E+03  0.37273112086E+03  0.12500000000E+03 0.  0.
         21    1    1    2  503  501  0.27498457823E+03  0.96354077845E+02  0.13225452275E+02  0.29167711458E+03  0.00000000000E+00 0.  1.
<mgrwt>
<rscale>  3 0.31705777E+03</rscale>
<asrwt>0</asrwt>
<pdfrwt beam="1">  1       21 0.67200013E-01 0.31705777E+03</pdfrwt>
<pdfrwt beam="2">  1       21 0.35016639E-01 0.31705777E+03</pdfrwt>
<totfact> 0.14959499E+04</totfact>
</mgrwt>
</event>
<event>
 4    0  0.1224320E-001  0.2736639E+03  0.7546771E-02  0.1099201E+00
         21   -1    0    0  503  501  0.00000000000E+00  0.00000000000E+00  0.34710252843E+03  0.34710252843E+03  0.00000000000E+00 0.  1.
         21   -1    0    0  501  502 -0.00000000000E+00 -0.00000000000E+00 -0.35086779224E+03  0.35086779224E+03  0.00000000000E+00 0.  1.
         25    1    1    2    0    0  0.17154474952E+03 -0.17274070229E+03  0.23222472915E+03  0.35891541642E+03  0.12500000000E+03 0.  0.
         21    1    1    2  503  502 -0.17154474952E+03  0.17274070229E+03 -0.23598999296E+03  0.33905490424E+03  0.00000000000E+00 0.  1.
<mgrwt>
<rscale>  3 0.27366394E+03</rscale>
<asrwt>0</asrwt>
<pdfrwt beam="1">  1       21 0.53400389E-01 0.27366394E+03</pdfrwt>
<pdfrwt beam="2">  1       21 0.53979660E-01 0.27366394E+03</pdfrwt>
<totfact> 0.10270204E+04</totfact>
</mgrwt>
</event>
<event>
 4    0  0.1456291E-001  0.3061965E+03  0.7546771E-02  0.1082183E+00
         21   -1    0    0  502  501  0.00000000000E+00  0.00000000000E+00  0.28269009436E+03  0.28269009436E+03  0.00000000000E+00 0.  1.
         21   -1    0    0  503  502 -0.00000000000E+00 -0.00000000000E+00 -0.31592061136E+03  0.31592061136E+03  0.00000000000E+00 0.  1.
         25    1    1    2    0    0 -0.23237557768E+03  0.15534765812E+03  0.42202996422E+02  0.30909124363E+03  0.12500000000E+03 0.  0.
         21    1    1    2  503  501  0.23237557768E+03 -0.15534765812E+03 -0.75433513423E+02  0.28951946209E+03  0.00000000000E+00 0.  1.
<mgrwt>
<rscale>  3 0.30619651E+03</rscale>
<asrwt>0</asrwt>
<pdfrwt beam="1">  1       21 0.43490784E-01 0.30619651E+03</pdfrwt>
<pdfrwt beam="2">  1       21 0.48603171E-01 0.30619651E+03</pdfrwt>
<totfact> 0.19428497E+04</totfact>
</mgrwt>
</event>
<event>
 4    0  0.1831391E-001  0.2922146E+03  0.7546771E-02  0.1089199E+00
         21   -1    0    0  502  501  0.00000000000E+00  0.00000000000E+00  0.56953339948E+03  0.56953339948E+03  0.00000000000E+00 0. -1.
         21   -1    0    0  503  502 -0.00000000000E+00 -0.00000000000E+00 -0.42377229594E+03  0.42377229594E+03  0.00000000000E+00 0.  1.
         25    1    1    2    0    0  0.24943740967E+03 -0.86863900338E+02  0.48325997705E+03  0.56473849165E+03  0.12500000000E+03 0.  0.
         21    1    1    2  503  501 -0.24943740967E+03  0.86863900338E+02 -0.33749887352E+03  0.42856720377E+03  0.00000000000E+00 0.  1.
<mgrwt>
<rscale>  3 0.29221458E+03</rscale>
<asrwt>0</asrwt>
<pdfrwt beam="1">  1       21 0.87620522E-01 0.29221458E+03</pdfrwt>
<pdfrwt beam="2">  1       21 0.65195738E-01 0.29221458E+03</pdfrwt>
<totfact> 0.22503171E+03</totfact>
</mgrwt>
</event>
<event>
 4    0  0.1003929E-001  0.3321548E+03  0.7546771E-02  0.1070187E+00
         21   -1    0    0  503  501  0.00000000000E+00  0.00000000000E+00  0.11619575971E+04  0.11619575971E+04  0.00000000000E+00 0. -1.
         21   -1    0    0  501  502 -0.00000000000E+00 -0.00000000000E+00 -0.11922578227E+03  0.11922578227E+03  0.00000000000E+00 0.  1.
         25    1    1    2    0    0  0.30513653089E+03  0.39918557504E+02  0.86321302688E+03  0.92491271128E+03  0.12500000000E+03 0.  0.
         21    1    1    2  503  502 -0.30513653089E+03 -0.39918557504E+02  0.17951878796E+03  0.35627066810E+03  0.00000000000E+00 0.  1.
<mgrwt>
<rscale>  3 0.33215477E+03</rscale>
<asrwt>0</asrwt>
<pdfrwt beam="1">  1       21 0.17876270E+00 0.33215477E+03</pdfrwt>
<pdfrwt beam="2">  1       21 0.18342429E-01 0.33215477E+03</pdfrwt>
<totfact> 0.45725488E+03</totfact>
</mgrwt>
</event>
<event>
 4    0  0.1322224E-001  0.2464107E+03  0.7546771E-02  0.1115594E+00
         21   -1    0    0  502  501  0.00000000000E+00  0.00000000000E+00  0.73255163289E+03  0.73255163289E+03  0.00000000000E+00 0.  1.
         21   -1    0    0  503  502 -0.00000000000E+00 -0.00000000000E+00 -0.76998594665E+02  0.76998594665E+02  0.00000000000E+00 0.  1.
         25    1    1    2    0    0  0.56029094159E+02 -0.20482663716E+03  0.45512591101E+03  0.51754980974E+03  0.12500000000E+03 0.  0.
         21    1    1    2  503  501 -0.56029094159E+02  0.20482663716E+03  0.20042712722E+03  0.29200041782E+03  0.00000000000E+00 0.  1.
<mgrwt>
<rscale>  3 0.24641065E+03</rscale>
<asrwt>0</asrwt>
<pdfrwt beam="1">  1       21 0.11270025E+00 0.24641065E+03</pdfrwt>
<pdfrwt beam="2">  1       21 0.11845938E-01 0.24641065E+03</pdfrwt>
<totfact> 0.35969880E+04</totfact>
</mgrwt>
</event>
<event>
 4    0  0.1262596E-001  0.2855474E+03  0.7546771E-02  0.1092697E+00
         21   -1    0    0  503  501  0.00000000000E+00  0.00000000000E+00  0.67243164047E+03  0.67243164047E+03  0.00000000000E+00 0.  1.
         21   -1    0    0  501  502 -0.00000000000E+00 -0.00000000000E+00 -0.17025328058E+03  0.17025328058E+03  0.00000000000E+00 0.  1.
         25    1    1    2    0    0  0.67315625252E+02  0.24775171264E+03  0.51147259243E+03  0.58578282437E+03  0.12500000000E+03 0.  0.
         21    1    1    2  503  502 -0.67315625252E+02 -0.24775171264E+03 -0.92942325347E+01  0.25690209668E+03  0.00000000000E+00 0.  1.
<mgrwt>
<rscale>  3 0.28554738E+03</rscale>
<asrwt>0</asrwt>
<pdfrwt beam="1">  1       21 0.10345102E+00 0.28554738E+03</pdfrwt>
<pdfrwt beam="2">  1       21 0.26192813E-01 0.28554738E+03</pdfrwt>
<totfact> 0.99244752E+03</totfact>
</mgrwt>
</event>
<event>
 4    0  0.1003929E-001  0.3219231E+03  0.7546771E-02  0.1074768E+00
         21   -1    0    0  503  501  0.00000000000E+00  0.00000000000E+00  0.67565332169E+03  0.67565332169E+03  0.00000000000E+00 0.  1.
         21   -1    0    0  501  502 -0.00000000000E+00 -0.00000000000E+00 -0.37398386583E+03  0.37398386583E+03  0.00000000000E+00 0.  1.
         25    1    1    2    0    0 -0.24401301405E+03 -0.16872207563E+03  0.56674933611E+03  0.65179697745E+03  0.12500000000E+03 0.  0.
         21    1    1    2  503  502  0.24401301405E+03  0.16872207563E+03 -0.26507988026E+03  0.39784021007E+03  0.00000000000E+00 0.  1.
<mgrwt>
<rscale>  3 0.32192311E+03</rscale>
<asrwt>0</asrwt>
<pdfrwt beam="1">  1       21 0.10394666E+00 0.32192311E+03</pdfrwt>
<pdfrwt beam="2">  1       21 0.57535979E-01 0.32192311E+03</pdfrwt>
<totfact> 0.19355770E+03</totfact>
</mgrwt>
</event>
<event>
 4    0  0.1003929E-001  0.2657055E+03  0.7546771E-02  0.1103763E+00
         21   -1    0    0  502  501  0.00000000000E+00  0.00000000000E+00  0.15835366595E+03  0.15835366595E+03  0.00000000000E+00 0. -1.
         21   -1    0    0  503  502 -0.00000000000E+00 -0.00000000000E+00 -0.42839799484E+03  0.42839799484E+03  0.00000000000E+00 0.  1.
         25    1    1    2    0    0  0.21818944118E+03 -0.85835778484E+02 -0.60977670780E+02  0.27261270961E+03  0.12500000000E+03 0.  0.
         21    1    1    2  503  501 -0.21818944118E+03  0.85835778484E+02 -0.20906665811E+03  0.31413895117E+03  0.00000000000E+00 0.  1.
<mgrwt>
<rscale>  3 0.26570550E+03</rscale>
<asrwt>0</asrwt>
<pdfrwt beam="1">  1       21 0.24362102E-01 0.26570550E+03</pdfrwt>
<pdfrwt beam="2">  1       21 0.65907384E-01 0.26570550E+03</pdfrwt>
<totfact> 0.32489675E+04</totfact>
</mgrwt>
</event>
<event>
 4    0  0.1003929E-001  0.3398289E+03  0.7546771E-02  0.1066869E+00
         21   -1    0    0  503  501  0.00000000000E+00  0.00000000000E+00  0.18687558198E+04  0.18687558198E+04  0.00000000000E+00 0.  1.
         21   -1    0    0  501  502 -0.00000000000E+00 -0.00000000000E+00 -0.59680870301E+02  0.59680870301E+02  0.00000000000E+00 0. -1.
         25    1    1    2    0    0 -0.30962186157E+03 -0.63190217978E+02  0.11186994137E+04  0.11691758118E+04  0.12500000000E+03 0.  0.
         21    1    1    2  503  502  0.30962186157E+03  0.63190217978E+02  0.69037553584E+03  0.75926087829E+03  0.00000000000E+00 0. -1.
<mgrwt>
<rscale>  3 0.33982893E+03</rscale>
<asrwt>0</asrwt>
<pdfrwt beam="1">  1       21 0.28750085E+00 0.33982893E+03</pdfrwt>
<pdfrwt beam="2">  1       21 0.91816738E-02 0.33982893E+03</pdfrwt>
<totfact> 0.33436754E+03</totfact>
</mgrwt>
</event>
<event>
 4    0  0.1187401E-001  0.2428147E+03  0.7546771E-02  0.1117932E+00
         21   -1    0    0  502  501  0.00000000000E+00  0.00000000000E+00  0.97731520443E+03  0.97731520443E+03  0.00000000000E+00 0. -1.
         21   -1    0    0  503  502 -0.00000000000E+00 -0.00000000000E+00 -0.53152157544E+02  0.53152157544E+02  0.00000000000E+00 0. -1.
         25    1    1    2    0    0  0.12009238315E+03  0.17003473035E+03  0.42206917973E+03  0.48693057256E+03  0.12500000000E+03 0.  0.
         21    1    1    2  503  501 -0.12009238315E+03 -0.17003473035E+03  0.50209386715E+03  0.54353678941E+03  0.00000000000E+00 0. -1.
<mgrwt>
<rscale>  3 0.24281472E+03</rscale>
<asrwt>0</asrwt>
<pdfrwt beam="1">  1       21 0.15035617E+00 0.24281472E+03</pdfrwt>
<pdfrwt beam="2">  1       21 0.81772557E-02 0.24281472E+03</pdfrwt>
<totfact> 0.33346001E+04</totfact>
</mgrwt>
</event>
<event>
 4    0  0.1003929E-001  0.2476010E+03  0.7546771E-02  0.1114830E+00
         21   -1    0    0  502  501  0.00000000000E+00  0.00000000000E+00  0.23417427927E+02  0.23417427927E+02  0.00000000000E+00 0.  1.
         21   -1    0    0  503  502 -0.00000000000E+00 -0.00000000000E+00 -0.23313277675E+04  0.23313277675E+04  0.00000000000E+00 0.  1.
         25    1    1    2    0    0  0.21353395503E+03 -0.91915550938E+01 -0.10493688008E+04  0.10781841748E+04  0.12500000000E+03 0.  0.
         21    1    1    2  503  501 -0.21353395503E+03  0.91915550938E+01 -0.12585415388E+04  0.12765610207E+04  0.00000000000E+00 0.  1.
<mgrwt>
<rscale>  3 0.24760096E+03</rscale>
<asrwt>0</asrwt>
<pdfrwt beam="1">  1       21 0.36026809E-02 0.24760096E+03</pdfrwt>
<pdfrwt beam="2">  1       21 0.35866584E+00 0.24760096E+03</pdfrwt>
<totfact> 0.68241086E+03</totfact>
</mgrwt>
</event>
<event>
 4    0  0.1379048E-001  0.2741865E+03  0.7546771E-02  0.1098907E+00
         21   -1    0    0  503  501  0.00000000000E+00  0.00000000000E+00  0.76809470344E+02  0.76809470344E+02  0.00000000000E+00 0. -1.
         21   -1    0    0  501  502 -0.00000000000E+00 -0.00000000000E+00 -0.11497779039E+04  0.11497779039E+04  0.00000000000E+00 0. -1.
         25    1    1    2    0    0  0.84727039948E+02  0.22885489048E+03 -0.26029045664E+03  0.37805998732E+03  0.12500000000E+03 0.  0.
         21    1    1    2  503  502 -0.84727039948E+02 -0.22885489048E+03 -0.81267797688E+03  0.84852738689E+03  0.00000000000E+00 0. -1.
<mgrwt>
<rscale>  3 0.27418649E+03</rscale>
<asrwt>0</asrwt>
<pdfrwt beam="1">  1       21 0.11816842E-01 0.27418649E+03</pdfrwt>
<pdfrwt beam="2">  1       21 0.17688890E+00 0.27418649E+03</pdfrwt>
<totfact> 0.10908648E+04</totfact>
</mgrwt>
</event>
<event>
 4    0  0.1452506E-001  0.2381706E+03  0.7546771E-02  0.1121018E+00
         21   -1    0    0  503  501  0.00000000000E+00  0.00000000000E+00  0.25640138460E+03  0.25640138460E+03  0.00000000000E+00 0.  1.
         21   -1    0    0  501  502 -0.00000000000E+00 -0.00000000000E+00 -0.19133878676E+03  0.19133878676E+03  0.00000000000E+00 0.  1.
         25    1    1    2    0    0  0.12218946279E+03 -0.16177139857E+03  0.56747464707E+02  0.24483775232E+03  0.12500000000E+03 0.  0.
         21    1    1    2  503  502 -0.12218946279E+03  0.16177139857E+03  0.83151331264E+01  0.20290241904E+03  0.00000000000E+00 0.  1.
<mgrwt>
<rscale>  3 0.23817063E+03</rscale>
<asrwt>0</asrwt>
<pdfrwt beam="1">  1       21 0.39446367E-01 0.23817063E+03</pdfrwt>
<pdfrwt beam="2">  1       21 0.29436736E-01 0.23817063E+03</pdfrwt>
<totfact> 0.67198651E+04</totfact>
</mgrwt>
</event>
<event>
 4    0  0.1153942E-001  0.4278131E+03  0.7546771E-02  0.1034553E+00
         21   -1    0    0  503  501  0.00000000000E+00  0.00000000000E+00  0.11077937550E+04  0.11077937550E+04  0.00000000000E+00 0.  1.
         21   -1    0    0  501  502 -0.00000000000E+00 -0.00000000000E+00 -0.24720070415E+03  0.24720070415E+03  0.00000000000E+00 0. -1.
         25    1    1    2    0    0  0.17209175514E+03 -0.37119192265E+03  0.84315234166E+03  0.94547865490E+03  0.12500000000E+03 0.  0.
         21    1    1    2  503  502 -0.17209175514E+03  0.37119192265E+03  0.17440709238E+02  0.40951580429E+03  0.00000000000E+00 0. -1.
<mgrwt>
<rscale>  3 0.42781306E+03</rscale>
<asrwt>0</asrwt>
<pdfrwt beam="1">  1       21 0.17042981E+00 0.42781306E+03</pdfrwt>
<pdfrwt beam="2">  1       21 0.38030878E-01 0.42781306E+03</pdfrwt>
<totfact> 0.12040018E+03</totfact>
</mgrwt>
</event>
<event>
 4    0  0.1287742E-001  0.2383900E+03  0.7546771E-02  0.1120870E+00
         21   -1    0    0  502  501  0.00000000000E+00  0.00000000000E+00  0.30975079354E+03  0.30975079354E+03  0.00000000000E+00 0.  1.
         21   -1    0    0  503  502 -0.00000000000E+00 -0.00000000000E+00 -0.16118028094E+03  0.16118028094E+03  0.00000000000E+00 0.  1.
         25    1    1    2    0    0  0.19675385981E+03  0.49927089624E+02  0.43378987674E+02  0.24230462687E+03  0.12500000000E+03 0.  0.
         21    1    1    2  503  501 -0.19675385981E+03 -0.49927089624E+02  0.10519152492E+03  0.22862644761E+03  0.00000000000E+00 0.  1.
<mgrwt>
<rscale>  3 0.23839001E+03</rscale>
<asrwt>0</asrwt>
<pdfrwt beam="1">  1       21 0.47653968E-01 0.23839001E+03</pdfrwt>
<pdfrwt beam="2">  1       21 0.24796966E-01 0.23839001E+03</pdfrwt>
<totfact> 0.63517033E+04</totfact>
</mgrwt>
</event>
<event>
 4    0  0.1003929E-001  0.2696473E+03  0.7546771E-02  0.1101482E+00
         21   -1    0    0  503  501  0.00000000000E+00  0.00000000000E+00  0.96211292131E+02  0.96211292131E+02  0.00000000000E+00 0. -1.
         21   -1    0    0  501  502 -0.00000000000E+00 -0.00000000000E+00 -0.80694704939E+03  0.80694704939E+03  0.00000000000E+00 0.  1.
         25    1    1    2    0    0 -0.13866161860E+03  0.19457036867E+03 -0.18891127958E+03  0.32923721598E+03  0.12500000000E+03 0.  0.
         21    1    1    2  503  502  0.13866161860E+03 -0.19457036867E+03 -0.52182447768E+03  0.57392112554E+03  0.00000000000E+00 0.  1.
<mgrwt>
<rscale>  3 0.26964731E+03</rscale>
<asrwt>0</asrwt>
<pdfrwt beam="1">  1       21 0.14801737E-01 0.26964731E+03</pdfrwt>
<pdfrwt beam="2">  1       21 0.12414570E+00 0.26964731E+03</pdfrwt>
<totfact> 0.18670623E+04</totfact>
</mgrwt>
</event>
<event>
 4    0  0.1455711E-001  0.2422088E+03  0.7546771E-02  0.1118330E+00
         21   -1    0    0  502  501  0.00000000000E+00  0.00000000000E+00  0.35313434321E+03  0.35313434321E+03  0.00000000000E+00 0. -1.
         21   -1    0    0  503  502 -0.00000000000E+00 -0.00000000000E+00 -0.22138963885E+03  0.22138963885E+03  0.00000000000E+00 0. -1.
         25    1    1    2    0    0 -0.13554921754E+03  0.15705575136E+03  0.23960552251E+03  0.34069914269E+03  0.12500000000E+03 0.  0.
         21    1    1    2  503  501  0.13554921754E+03 -0.15705575136E+03 -0.10786081815E+03  0.23382483936E+03  0.00000000000E+00 0. -1.
<mgrwt>
<rscale>  3 0.24220879E+03</rscale>
<asrwt>0</asrwt>
<pdfrwt beam="1">  1       21 0.54328361E-01 0.24220879E+03</pdfrwt>
<pdfrwt beam="2">  1       21 0.34059944E-01 0.24220879E+03</pdfrwt>
<totfact> 0.25904224E+04</totfact>
</mgrwt>
</event>
<event>
 4    0  0.1238032E-001  0.2712357E+03  0.7546771E-02  0.1100574E+00
         21   -1    0    0  503  501  0.00000000000E+00  0.00000000000E+00  0.76868394860E+03  0.76868394860E+03  0.00000000000E+00 0. -1.
         21   -1    0    0  501  502 -0.00000000000E+00 -0.00000000000E+00 -0.17010165679E+03  0.17010165679E+03  0.00000000000E+00 0. -1.
         25    1    1    2    0    0 -0.20603584839E+03  0.12447105354E+03  0.63947643830E+03  0.69462142864E+03  0.12500000000E+03 0.  0.
         21    1    1    2  503  502  0.20603584839E+03 -0.12447105354E+03 -0.40894146495E+02  0.24416417675E+03  0.00000000000E+00 0. -1.
<mgrwt>
<rscale>  3 0.27123572E+03</rscale>
<asrwt>0</asrwt>
<pdfrwt beam="1">  1       21 0.11825907E+00 0.27123572E+03</pdfrwt>
<pdfrwt beam="2">  1       21 0.26169486E-01 0.27123572E+03</pdfrwt>
<totfact> 0.72171503E+03</totfact>
</mgrwt>
</event>
<event>
 4    0  0.1314524E-001  0.2997294E+03  0.7546771E-02  0.1085376E+00
         21   -1    0    0  503  501  0.00000000000E+00  0.00000000000E+00  0.63589932412E+03  0.63589932412E+03  0.00000000000E+00 0.  1.
         21   -1    0    0  501  502 -0.00000000000E+00 -0.00000000000E+00 -0.17308086472E+03  0.17308086472E+03  0.00000000000E+00 0.  1.
         25    1    1    2    0    0 -0.26832960547E+03  0.47030919611E+02  0.44427834925E+03  0.53592997321E+03  0.12500000000E+03 0.  0.
         21    1    1    2  503  502  0.26832960547E+03 -0.47030919611E+02  0.18540110149E+02  0.27305021563E+03  0.00000000000E+00 0.  1.
<mgrwt>
<rscale>  3 0.29972935E+03</rscale>
<asrwt>0</asrwt>
<pdfrwt beam="1">  1       21 0.97830664E-01 0.29972935E+03</pdfrwt>
<pdfrwt beam="2">  1       21 0.26627826E-01 0.29972935E+03</pdfrwt>
<totfact> 0.10922535E+04</totfact>
</mgrwt>
</event>
<event>
 4    0  0.1443242E-001  0.2461274E+03  0.7546771E-02  0.1115777E+00
         21   -1    0    0  502  501  0.00000000000E+00  0.00000000000E+00  0.96935824857E+02  0.96935824857E+02  0.00000000000E+00 0. -1.
         21   -1    0    0  503  502 -0.00000000000E+00 -0.00000000000E+00 -0.85629957369E+03  0.85629957369E+03  0.00000000000E+00 0. -1.
         25    1    1    2    0    0 -0.20360969234E+03 -0.59133869574E+02 -0.10899951451E+03  0.26918323779E+03  0.12500000000E+03 0.  0.
         21    1    1    2  503  501  0.20360969234E+03  0.59133869574E+02 -0.65036423433E+03  0.68405216076E+03  0.00000000000E+00 0. -1.
<mgrwt>
<rscale>  3 0.24612745E+03</rscale>
<asrwt>0</asrwt>
<pdfrwt beam="1">  1       21 0.14913203E-01 0.24612745E+03</pdfrwt>
<pdfrwt beam="2">  1       21 0.13173840E+00 0.24612745E+03</pdfrwt>
<totfact> 0.16031579E+04</totfact>
</mgrwt>
</event>
<event>
 4    0  0.1003929E-001  0.3107811E+03  0.7546771E-02  0.1079972E+00
         21   -1    0    0  503  501  0.00000000000E+00  0.00000000000E+00  0.26063853946E+04  0.26063853946E+04  0.00000000000E+00 0.  1.
         21   -1    0    0  501  502 -0.00000000000E+00 -0.00000000000E+00 -0.34059721673E+02  0.34059721673E+02  0.00000000000E+00 0.  1.
         25    1    1    2    0    0  0.27770942496E+03 -0.61946629742E+02  0.12846047500E+04  0.13216634494E+04  0.12500000000E+03 0.  0.
         21    1    1    2  503  502 -0.27770942496E+03  0.61946629742E+02  0.12877209229E+04  0.13187816669E+04  0.00000000000E+00 0.  1.
<mgrwt>
<rscale>  3 0.31078113E+03</rscale>
<asrwt>0</asrwt>
<pdfrwt beam="1">  1       21 0.40098221E+00 0.31078113E+03</pdfrwt>
<pdfrwt beam="2">  1       21 0.52399592E-02 0.31078113E+03</pdfrwt>
<totfact> 0.18671822E+03</totfact>
</mgrwt>
</event>
<event>
 4    0  0.1220642E-001  0.2401666E+03  0.7546771E-02  0.1119682E+00
         21   -1    0    0  503  501  0.00000000000E+00  0.00000000000E+00  0.21054602343E+04  0.21054602343E+04  0.00000000000E+00 0. -1.
         21   -1    0    0  501  502 -0.00000000000E+00 -0.00000000000E+00 -0.60562229025E+02  0.60562229025E+02  0.00000000000E+00 0.  1.
         25    1    1    2    0    0  0.20507019326E+03  0.10944936349E+01  0.18995300888E+04  0.19146525900E+04  0.12500000000E+03 0.  0.
         21    1    1    2  503  502 -0.20507019326E+03 -0.10944936349E+01  0.14536791646E+03  0.25136987333E+03  0.00000000000E+00 0.  1.
<mgrwt>
<rscale>  3 0.24016657E+03</rscale>
<asrwt>0</asrwt>
<pdfrwt beam="1">  1       21 0.32391690E+00 0.24016657E+03</pdfrwt>
<pdfrwt beam="2">  1       21 0.93172677E-02 0.24016657E+03</pdfrwt>
<totfact> 0.21583816E+03</totfact>
</mgrwt>
</event>
<event>
 4    0  0.1296297E-001  0.4934613E+03  0.7546771E-02  0.1015500E+00
         21   -1    0    0  503  501  0.00000000000E+00  0.00000000000E+00  0.67694066493E+03  0.67694066493E+03  0.00000000000E+00 0.  1.
         21   -1    0    0  501  502 -0.00000000000E+00 -0.00000000000E+00 -0.38603758154E+03  0.38603758154E+03  0.00000000000E+00 0.  1.
         25    1    1    2    0    0 -0.18490771317E+02 -0.47700852534E+03  0.31427294573E+03  0.58503976471E+03  0.12500000000E+03 0.  0.
         21    1    1    2  503  502  0.18490771317E+02  0.47700852534E+03 -0.23369862339E+02  0.47793848175E+03  0.00000000000E+00 0.  1.
<mgrwt>
<rscale>  3 0.49346129E+03</rscale>
<asrwt>0</asrwt>
<pdfrwt beam="1">  1       21 0.10414472E+00 0.49346129E+03</pdfrwt>
<pdfrwt beam="2">  1       21 0.59390397E-01 0.49346129E+03</pdfrwt>
<totfact> 0.16686231E+03</totfact>
</mgrwt>
</event>
<event>
 4    0  0.1003929E-001  0.2442991E+03  0.7546771E-02  0.1116962E+00
         21   -1    0    0  502  501  0.00000000000E+00  0.00000000000E+00  0.12678905858E+03  0.12678905858E+03  0.00000000000E+00 0. -1.
         21   -1    0    0  503  502 -0.00000000000E+00 -0.00000000000E+00 -0.42042795066E+03  0.42042795066E+03  0.00000000000E+00 0.  1.
         25    1    1    2    0    0  0.13011251331E+03 -0.16470517692E+03 -0.10839664679E+03  0.26726745866E+03  0.12500000000E+03 0.  0.
         21    1    1    2  503  501 -0.13011251331E+03  0.16470517692E+03 -0.18524224529E+03  0.27994955057E+03  0.00000000000E+00 0.  1.
<mgrwt>
<rscale>  3 0.24429912E+03</rscale>
<asrwt>0</asrwt>
<pdfrwt beam="1">  1       21 0.19506009E-01 0.24429912E+03</pdfrwt>
<pdfrwt beam="2">  1       21 0.64681224E-01 0.24429912E+03</pdfrwt>
<totfact> 0.52055371E+04</totfact>
</mgrwt>
</event>
<event>
 4    0  0.1264589E-001  0.2382245E+03  0.7546771E-02  0.1120981E+00
         21   -1    0    0  503  501  0.00000000000E+00  0.00000000000E+00  0.39937163018E+03  0.39937163018E+03  0.00000000000E+00 0.  1.
         21   -1    0    0  501  502 -0.00000000000E+00 -0.00000000000E+00 -0.45688141682E+03  0.45688141682E+03  0.00000000000E+00 0.  1.
         25    1    1    2    0    0  0.97036101373E+01 -0.20256294404E+03  0.33698474596E+03  0.41268586765E+03  0.12500000000E+03 0.  0.
         21    1    1    2  503  502 -0.97036101373E+01  0.20256294404E+03 -0.39449453260E+03  0.44356717935E+03  0.00000000000E+00 0.  1.
<mgrwt>
<rscale>  3 0.23822449E+03</rscale>
<asrwt>0</asrwt>
<pdfrwt beam="1">  1       21 0.61441789E-01 0.23822449E+03</pdfrwt>
<pdfrwt beam="2">  1       21 0.70289449E-01 0.23822449E+03</pdfrwt>
<totfact> 0.43712648E+03</totfact>
</mgrwt>
</event>
<event>
 4    0  0.1051128E-001  0.2643654E+03  0.7546771E-02  0.1104548E+00
         21   -1    0    0  502  501  0.00000000000E+00  0.00000000000E+00  0.36650013900E+02  0.36650013900E+02  0.00000000000E+00 0. -1.
         21   -1    0    0  503  502 -0.00000000000E+00 -0.00000000000E+00 -0.16870638541E+04  0.16870638541E+04  0.00000000000E+00 0. -1.
         25    1    1    2    0    0  0.16449013860E+03 -0.16494569748E+03 -0.88098789439E+03  0.91979821640E+03  0.12500000000E+03 0.  0.
         21    1    1    2  503  501 -0.16449013860E+03  0.16494569748E+03 -0.76942594580E+03  0.80391565160E+03  0.00000000000E+00 0. -1.
<mgrwt>
<rscale>  3 0.26436545E+03</rscale>
<asrwt>0</asrwt>
<pdfrwt beam="1">  1       21 0.56384646E-02 0.26436545E+03</pdfrwt>
<pdfrwt beam="2">  1       21 0.25954824E+00 0.26436545E+03</pdfrwt>
<totfact> 0.12082132E+04</totfact>
</mgrwt>
</event>
<event>
 4    0  0.1295578E-001  0.2553106E+03  0.7546771E-02  0.1109994E+00
         21   -1    0    0  502  501  0.00000000000E+00  0.00000000000E+00  0.57278098238E+03  0.57278098238E+03  0.00000000000E+00 0.  1.
         21   -1    0    0  503  502 -0.00000000000E+00 -0.00000000000E+00 -0.13268110263E+03  0.13268110263E+03  0.00000000000E+00 0.  1.
         25    1    1    2    0    0 -0.13444171871E+03  0.17743704042E+03  0.40692453124E+03  0.48038635822E+03  0.12500000000E+03 0.  0.
         21    1    1    2  503  501  0.13444171871E+03 -0.17743704042E+03  0.33175348509E+02  0.22507572679E+03  0.00000000000E+00 0.  1.
<mgrwt>
<rscale>  3 0.25531055E+03</rscale>
<asrwt>0</asrwt>
<pdfrwt beam="1">  1       21 0.88120150E-01 0.25531055E+03</pdfrwt>
<pdfrwt beam="2">  1       21 0.20412478E-01 0.25531055E+03</pdfrwt>
<totfact> 0.23704625E+04</totfact>
</mgrwt>
</event>
<event>
 4    0  0.1285505E-001  0.2736918E+03  0.7546771E-02  0.1099185E+00
         21   -1    0    0  503  501  0.00000000000E+00  0.00000000000E+00  0.15294231587E+03  0.15294231587E+03  0.00000000000E+00 0.  1.
         21   -1    0    0  501  502 -0.00000000000E+00 -0.00000000000E+00 -0.63766038587E+03  0.63766038587E+03  0.00000000000E+00 0.  1.
         25    1    1    2    0    0  0.17009681535E+03  0.17421042639E+03 -0.30686455325E+02  0.27540671342E+03  0.12500000000E+03 0.  0.
         21    1    1    2  503  502 -0.17009681535E+03 -0.17421042639E+03 -0.45403161468E+03  0.51519598832E+03  0.00000000000E+00 0.  1.
<mgrwt>
<rscale>  3 0.27369180E+03</rscale>
<asrwt>0</asrwt>
<pdfrwt beam="1">  1       21 0.23529587E-01 0.27369180E+03</pdfrwt>
<pdfrwt beam="2">  1       21 0.98101597E-01 0.27369180E+03</pdfrwt>
<totfact> 0.13940516E+04</totfact>
</mgrwt>
</event>
<event>
 4    0  0.1003929E-001  0.5085270E+03  0.7546771E-02  0.1011577E+00
         21   -1    0    0  503  501  0.00000000000E+00  0.00000000000E+00  0.31437380987E+03  0.31437380987E+03  0.00000000000E+00 0. -1.
         21   -1    0    0  501  502 -0.00000000000E+00 -0.00000000000E+00 -0.15095077707E+04  0.15095077707E+04  0.00000000000E+00 0. -1.
         25    1    1    2    0    0 -0.42585426351E+03 -0.24823945667E+03  0.23768376467E+02  0.50908213219E+03  0.12500000000E+03 0.  0.
         21    1    1    2  503  502  0.42585426351E+03  0.24823945667E+03 -0.12189023373E+04  0.13147994484E+04  0.00000000000E+00 0. -1.
<mgrwt>
<rscale>  3 0.50852697E+03</rscale>
<asrwt>0</asrwt>
<pdfrwt beam="1">  1       21 0.48365200E-01 0.50852697E+03</pdfrwt>
<pdfrwt beam="2">  1       21 0.23223197E+00 0.50852697E+03</pdfrwt>
<totfact> 0.27087467E+02</totfact>
</mgrwt>
</event>
<event>
 4    0  0.1382947E-001  0.2950668E+03  0.7546771E-02  0.1087733E+00
         21   -1    0    0  502  501  0.00000000000E+00  0.00000000000E+00  0.45908507098E+03  0.45908507098E+03  0.00000000000E+00 0.  1.
         21   -1    0    0  503  502 -0.00000000000E+00 -0.00000000000E+00 -0.22770760473E+03  0.22770760473E+03  0.00000000000E+00 0.  1.
         25    1    1    2    0    0  0.17964259814E+03  0.19790899546E+03  0.28938448928E+03  0.41328902258E+03  0.12500000000E+03 0.  0.
         21    1    1    2  503  501 -0.17964259814E+03 -0.19790899546E+03 -0.58007023031E+02  0.27350365312E+03  0.00000000000E+00 0.  1.
<mgrwt>
<rscale>  3 0.29506683E+03</rscale>
<asrwt>0</asrwt>
<pdfrwt beam="1">  1       21 0.70628472E-01 0.29506683E+03</pdfrwt>
<pdfrwt beam="2">  1       21 0.35031939E-01 0.29506683E+03</pdfrwt>
<totfact> 0.13503235E+04</totfact>
</mgrwt>
</event>
<event>
 4    0  0.1003929E-001  0.2522641E+03  0.7546771E-02  0.1111882E+00
         21   -1    0    0  502  501  0.00000000000E+00  0.00000000000E+00  0.14167625384E+03  0.14167625384E+03  0.00000000000E+00 0. -1.
         21   -1    0    0  503  502 -0.00000000000E+00 -0.00000000000E+00 -0.55448814595E+03  0.55448814595E+03  0.00000000000E+00 0.  1.
         25    1    1    2    0    0  0.19786270798E+03 -0.94141094533E+02 -0.28623422885E+02  0.25388284154E+03  0.12500000000E+03 0.  0.
         21    1    1    2  503  501 -0.19786270798E+03  0.94141094533E+02 -0.38418846922E+03  0.44228155826E+03  0.00000000000E+00 0.  1.
<mgrwt>
<rscale>  3 0.25226414E+03</rscale>
<asrwt>0</asrwt>
<pdfrwt beam="1">  1       21 0.21796347E-01 0.25226414E+03</pdfrwt>
<pdfrwt beam="2">  1       21 0.85305869E-01 0.25226414E+03</pdfrwt>
<totfact> 0.22607547E+04</totfact>
</mgrwt>
</event>
<event>
 4    0  0.1495911E-001  0.4812606E+03  0.7546771E-02  0.1018789E+00
         21   -1    0    0  502  501  0.00000000000E+00  0.00000000000E+00  0.95812273417E+03  0.95812273417E+03  0.00000000000E+00 0. -1.
         21   -1    0    0  503  502 -0.00000000000E+00 -0.00000000000E+00 -0.23685739630E+03  0.23685739630E+03  0.00000000000E+00 0. -1.
         25    1    1    2    0    0 -0.35491157994E+03  0.30004083393E+03  0.43786164943E+03  0.65064164918E+03  0.12500000000E+03 0.  0.
         21    1    1    2  503  501  0.35491157994E+03 -0.30004083393E+03  0.28340368843E+03  0.54433848130E+03  0.00000000000E+00 0. -1.
<mgrwt>
<rscale>  3 0.48126057E+03</rscale>
<asrwt>0</asrwt>
<pdfrwt beam="1">  1       21 0.14740350E+00 0.48126057E+03</pdfrwt>
<pdfrwt beam="2">  1       21 0.36439600E-01 0.48126057E+03</pdfrwt>
<totfact> 0.19225360E+03</totfact>
</mgrwt>
</event>
<event>
 4    0  0.1685217E-001  0.2460169E+03  0.7546771E-02  0.1115848E+00
         21   -1    0    0  503  501  0.00000000000E+00  0.00000000000E+00  0.12047051741E+04  0.12047051741E+04  0.00000000000E+00 0.  1.
         21   -1    0    0  501  502 -0.00000000000E+00 -0.00000000000E+00 -0.20119927935E+03  0.20119927935E+03  0.00000000000E+00 0. -1.
         25    1    1    2    0    0 -0.15575211998E+02 -0.21132141411E+03  0.11317786391E+04  0.11582086233E+04  0.12500000000E+03 0.  0.
         21    1    1    2  503  502  0.15575211998E+02  0.21132141411E+03 -0.12827274437E+03  0.24769583007E+03  0.00000000000E+00 0. -1.
<mgrwt>
<rscale>  3 0.24601692E+03</rscale>
<asrwt>0</asrwt>
<pdfrwt beam="1">  1       21 0.18533925E+00 0.24601692E+03</pdfrwt>
<pdfrwt beam="2">  1       21 0.30953736E-01 0.24601692E+03</pdfrwt>
<totfact> 0.15971303E+03</totfact>
</mgrwt>
</event>
<event>
 4    0  0.1116103E-001  0.2600485E+03  0.7546771E-02  0.1107114E+00
         21   -1    0    0  502  501  0.00000000000E+00  0.00000000000E+00  0.11857131618E+04  0.11857131618E+04  0.00000000000E+00 0. -1.
         21   -1    0    0  503  502 -0.00000000000E+00 -0.00000000000E+00 -0.55644376488E+02  0.55644376488E+02  0.00000000000E+00 0. -1.
         25    1    1    2    0    0 -0.19558235450E+02  0.22719527262E+03  0.40522436302E+03  0.48148935695E+03  0.12500000000E+03 0.  0.
         21    1    1    2  503  501  0.19558235450E+02 -0.22719527262E+03  0.72484442234E+03  0.75986818138E+03  0.00000000000E+00 0. -1.
<mgrwt>
<rscale>  3 0.26004849E+03</rscale>
<asrwt>0</asrwt>
<pdfrwt beam="1">  1       21 0.18241739E+00 0.26004849E+03</pdfrwt>
<pdfrwt beam="2">  1       21 0.85606742E-02 0.26004849E+03</pdfrwt>
<totfact> 0.17877980E+04</totfact>
</mgrwt>
</event>
<event>
 4    0  0.1003929E-001  0.2611267E+03  0.7546771E-02  0.1106468E+00
         21   -1    0    0  503  501  0.00000000000E+00  0.00000000000E+00  0.34398511932E+02  0.34398511932E+02  0.00000000000E+00 0.  1.
         21   -1    0    0  501  502 -0.00000000000E+00 -0.00000000000E+00 -0.18456109480E+04  0.18456109480E+04  0.00000000000E+00 0.  1.
         25    1    1    2    0    0  0.22709611273E+03  0.31456726214E+02 -0.11773198593E+04  0.12059308525E+04  0.12500000000E+03 0.  0.
         21    1    1    2  503  502 -0.22709611273E+03 -0.31456726214E+02 -0.63389257676E+03  0.67407860737E+03  0.00000000000E+00 0.  1.
<mgrwt>
<rscale>  3 0.26112673E+03</rscale>
<asrwt>0</asrwt>
<pdfrwt beam="1">  1       21 0.52920768E-02 0.26112673E+03</pdfrwt>
<pdfrwt beam="2">  1       21 0.28394025E+00 0.26112673E+03</pdfrwt>
<totfact> 0.96994945E+03</totfact>
</mgrwt>
</event>
<event>
 4    0  0.1634320E-001  0.2543284E+03  0.7546771E-02  0.1110600E+00
         21   -1    0    0  503  501  0.00000000000E+00  0.00000000000E+00  0.77427462672E+03  0.77427462672E+03  0.00000000000E+00 0. -1.
         21   -1    0    0  501  502 -0.00000000000E+00 -0.00000000000E+00 -0.21882573802E+03  0.21882573802E+03  0.00000000000E+00 0.  1.
         25    1    1    2    0    0  0.93245723650E+00  0.22148834090E+03  0.68901419688E+03  0.73445457186E+03  0.12500000000E+03 0.  0.
         21    1    1    2  503  502 -0.93245723650E+00 -0.22148834090E+03 -0.13356530818E+03  0.25864579289E+03  0.00000000000E+00 0.  1.
<mgrwt>
<rscale>  3 0.25432844E+03</rscale>
<asrwt>0</asrwt>
<pdfrwt beam="1">  1       21 0.11911917E+00 0.25432844E+03</pdfrwt>
<pdfrwt beam="2">  1       21 0.33665499E-01 0.25432844E+03</pdfrwt>
<totfact> 0.43688041E+03</totfact>
</mgrwt>
</event>
<event>
 4    0  0.1003929E-001  0.2588885E+03  0.7546771E-02  0.1107813E+00
         21   -1    0    0  502  501  0.00000000000E+00  0.00000000000E+00  0.12451145497E+04  0.12451145497E+04  0.00000000000E+00 0. -1.
         21   -1    0    0  503  502 -0.00000000000E+00 -0.00000000000E+00 -0.48347764179E+02  0.48347764179E+02  0.00000000000E+00 0.  1.
         25    1    1    2    0    0  0.65119623398E+02 -0.21715818427E+03  0.73007850841E+03  0.77462111434E+03  0.12500000000E+03 0.  0.
         21    1    1    2  503  501 -0.65119623398E+02  0.21715818427E+03  0.46668827716E+03  0.51884119958E+03  0.00000000000E+00 0.  1.
<mgrwt>
<rscale>  3 0.25888847E+03</rscale>
<asrwt>0</asrwt>
<pdfrwt beam="1">  1       21 0.19155606E+00 0.25888847E+03</pdfrwt>
<pdfrwt beam="2">  1       21 0.74381185E-02 0.25888847E+03</pdfrwt>
<totfact> 0.19859244E+04</totfact>
</mgrwt>
</event>
<event>
 4    0  0.1298036E-001  0.2533802E+03  0.7546771E-02  0.1111187E+00
         21   -1    0    0  502  501  0.00000000000E+00  0.00000000000E+00  0.97725874985E+02  0.97725874985E+02  0.00000000000E+00 0.  1.
         21   -1    0    0  503  502 -0.00000000000E+00 -0.00000000000E+00 -0.10232801121E+04  0.10232801121E+04  0.00000000000E+00 0.  1.
         25    1    1    2    0    0 -0.20341706663E+03  0.84841034370E+02 -0.11005650292E+03  0.27624977456E+03  0.12500000000E+03 0.  0.
         21    1    1    2  503  501  0.20341706663E+03 -0.84841034370E+02 -0.81549773416E+03  0.84475621248E+03  0.00000000000E+00 0.  1.
<mgrwt>
<rscale>  3 0.25338016E+03</rscale>
<asrwt>0</asrwt>
<pdfrwt beam="1">  1       21 0.15034750E-01 0.25338016E+03</pdfrwt>
<pdfrwt beam="2">  1       21 0.15742771E+00 0.25338016E+03</pdfrwt>
<totfact> 0.98492940E+03</totfact>
</mgrwt>
</event>
<event>
 4    0  0.1003929E-001  0.2414841E+03  0.7546771E-02  0.1118808E+00
         21   -1    0    0  502  501  0.00000000000E+00  0.00000000000E+00  0.21731076647E+04  0.21731076647E+04  0.00000000000E+00 0. -1.
         21   -1    0    0  503  502 -0.00000000000E+00 -0.00000000000E+00 -0.89964526159E+02  0.89964526159E+02  0.00000000000E+00 0. -1.
         25    1    1    2    0    0  0.20767057410E+01  0.20660416233E+03  0.20371338962E+04  0.20513968664E+04  0.12500000000E+03 0.  0.
         21    1    1    2  503  501 -0.20767057410E+01 -0.20660416233E+03  0.46009242373E+02  0.21167532445E+03  0.00000000000E+00 0. -1.
<mgrwt>
<rscale>  3 0.24148415E+03</rscale>
<asrwt>0</asrwt>
<pdfrwt beam="1">  1       21 0.33432422E+00 0.24148415E+03</pdfrwt>
<pdfrwt beam="2">  1       21 0.13840698E-01 0.24148415E+03</pdfrwt>
<totfact> 0.92114543E+02</totfact>
</mgrwt>
</event>
<event>
 4    0  0.1003929E-001  0.4319850E+03  0.7546771E-02  0.1033235E+00
         21   -1    0    0  503  501  0.00000000000E+00  0.00000000000E+00  0.18976452441E+03  0.18976452441E+03  0.00000000000E+00 0. -1.
         21   -1    0    0  501  502 -0.00000000000E+00 -0.00000000000E+00 -0.27196246345E+04  0.27196246345E+04  0.00000000000E+00 0. -1.
         25    1    1    2    0    0 -0.26737540099E+03  0.31543057588E+03 -0.98441730272E+02  0.44305962072E+03  0.12500000000E+03 0.  0.
         21    1    1    2  503  502  0.26737540099E+03 -0.31543057588E+03 -0.24314183798E+04  0.24663295382E+04  0.00000000000E+00 0. -1.
<mgrwt>
<rscale>  3 0.43198502E+03</rscale>
<asrwt>0</asrwt>
<pdfrwt beam="1">  1       21 0.29194541E-01 0.43198502E+03</pdfrwt>
<pdfrwt beam="2">  1       21 0.41840381E+00 0.43198502E+03</pdfrwt>
<totfact> 0.56455849E+01</totfact>
</mgrwt>
</event>
<event>
 4    0  0.1116911E-001  0.3768921E+03  0.7546771E-02  0.1052088E+00
         21   -1    0    0  502  501  0.00000000000E+00  0.00000000000E+00  0.58126349325E+03  0.58126349325E+03  0.00000000000E+00 0.  1.
         21   -1    0    0  503  502 -0.00000000000E+00 -0.00000000000E+00 -0.49950647461E+03  0.49950647461E+03  0.00000000000E+00 0.  1.
         25    1    1    2    0    0 -0.48101385355E+02  0.35229090000E+03  0.43773781583E+03  0.57763484738E+03  0.12500000000E+03 0.  0.
         21    1    1    2  503  501  0.48101385355E+02 -0.35229090000E+03 -0.35598079719E+03  0.50313512048E+03  0.00000000000E+00 0.  1.
<mgrwt>
<rscale>  3 0.37689206E+03</rscale>
<asrwt>0</asrwt>
<pdfrwt beam="1">  1       21 0.89425153E-01 0.37689206E+03</pdfrwt>
<pdfrwt beam="2">  1       21 0.76847150E-01 0.37689206E+03</pdfrwt>
<totfact> 0.14192042E+03</totfact>
</mgrwt>
</event>
<event>
 4    0  0.1098467E-001  0.2661853E+03  0.7546771E-02  0.1103483E+00
         21   -1    0    0  503  501  0.00000000000E+00  0.00000000000E+00  0.34224179829E+03  0.34224179829E+03  0.00000000000E+00 0. -1.
         21   -1    0    0  501  502 -0.00000000000E+00 -0.00000000000E+00 -0.25109117153E+03  0.25109117153E+03  0.00000000000E+00 0.  1.
         25    1    1    2    0    0  0.14153036806E+03  0.18761337428E+03  0.20135759141E+03  0.33376564070E+03  0.12500000000E+03 0.  0.
         21    1    1    2  503  502 -0.14153036806E+03 -0.18761337428E+03 -0.11020696465E+03  0.25956732913E+03  0.00000000000E+00 0.  1.
<mgrwt>
<rscale>  3 0.26618532E+03</rscale>
<asrwt>0</asrwt>
<pdfrwt beam="1">  1       21 0.52652585E-01 0.26618532E+03</pdfrwt>
<pdfrwt beam="2">  1       21 0.38629411E-01 0.26618532E+03</pdfrwt>
<totfact> 0.21268047E+04</totfact>
</mgrwt>
</event>
<event>
 4    0  0.1327122E-001  0.2373816E+03  0.7546771E-02  0.1121550E+00
         21   -1    0    0  502  501  0.00000000000E+00  0.00000000000E+00  0.76246623697E+03  0.76246623697E+03  0.00000000000E+00 0.  1.
         21   -1    0    0  503  502 -0.00000000000E+00 -0.00000000000E+00 -0.83228687596E+02  0.83228687596E+02  0.00000000000E+00 0.  1.
         25    1    1    2    0    0  0.80896127837E+02 -0.18488056154E+03  0.56721216278E+03  0.61488181233E+03  0.12500000000E+03 0.  0.
         21    1    1    2  503  501 -0.80896127837E+02  0.18488056154E+03  0.11202538659E+03  0.23081311223E+03  0.00000000000E+00 0.  1.
<mgrwt>
<rscale>  3 0.23738156E+03</rscale>
<asrwt>0</asrwt>
<pdfrwt beam="1">  1       21 0.11730249E+00 0.23738156E+03</pdfrwt>
<pdfrwt beam="2">  1       21 0.12804414E-01 0.23738156E+03</pdfrwt>
<totfact> 0.28460582E+04</totfact>
</mgrwt>
</event>
<event>
 4    0  0.1538163E-001  0.3205596E+03  0.7546771E-02  0.1075392E+00
         21   -1    0    0  503  501  0.00000000000E+00  0.00000000000E+00  0.36246610891E+03  0.36246610891E+03  0.00000000000E+00 0. -1.
         21   -1    0    0  501  502 -0.00000000000E+00 -0.00000000000E+00 -0.30541966087E+03  0.30541966087E+03  0.00000000000E+00 0. -1.
         25    1    1    2    0    0  0.19133655226E+03  0.22477499080E+03  0.15607200002E+03  0.35653462933E+03  0.12500000000E+03 0.  0.
         21    1    1    2  503  502 -0.19133655226E+03 -0.22477499080E+03 -0.99025551980E+02  0.31135114046E+03  0.00000000000E+00 0. -1.
<mgrwt>
<rscale>  3 0.32055962E+03</rscale>
<asrwt>0</asrwt>
<pdfrwt beam="1">  1       21 0.55764017E-01 0.32055962E+03</pdfrwt>
<pdfrwt beam="2">  1       21 0.46987640E-01 0.32055962E+03</pdfrwt>
<totfact> 0.12285536E+04</totfact>
</mgrwt>
</event>
<event>
 4    0  0.1003929E-001  0.2449185E+03  0.7546771E-02  0.1116559E+00
         21   -1    0    0  502  501  0.00000000000E+00  0.00000000000E+00  0.17720794672E+04  0.17720794672E+04  0.00000000000E+00 0. -1.
         21   -1    0    0  503  502 -0.00000000000E+00 -0.00000000000E+00 -0.11208817752E+03  0.11208817752E+03  0.00000000000E+00 0. -1.
         25    1    1    2    0    0 -0.20907148556E+03  0.25479013607E+02  0.16554820490E+04  0.16735010848E+04  0.12500000000E+03 0.  0.
         21    1    1    2  503  501  0.20907148556E+03 -0.25479013607E+02  0.45092406434E+01  0.21066655990E+03  0.00000000000E+00 0. -1.
<mgrwt>
<rscale>  3 0.24491849E+03</rscale>
<asrwt>0</asrwt>
<pdfrwt beam="1">  1       21 0.27262759E+00 0.24491849E+03</pdfrwt>
<pdfrwt beam="2">  1       21 0.17244336E-01 0.24491849E+03</pdfrwt>
<totfact> 0.14073556E+03</totfact>
</mgrwt>
</event>
<event>
 4    0  0.1003929E-001  0.3778631E+03  0.7546771E-02  0.1051726E+00
         21   -1    0    0  502  501  0.00000000000E+00  0.00000000000E+00  0.12954502450E+03  0.12954502450E+03  0.00000000000E+00 0. -1.
         21   -1    0    0  503  502 -0.00000000000E+00 -0.00000000000E+00 -0.12408237012E+04  0.12408237012E+04  0.00000000000E+00 0.  1.
         25    1    1    2    0    0  0.27234093569E+03  0.23018675234E+03 -0.29426690775E+03  0.47892957645E+03  0.12500000000E+03 0.  0.
         21    1    1    2  503  501 -0.27234093569E+03 -0.23018675234E+03 -0.81701176897E+03  0.89143914927E+03  0.00000000000E+00 0.  1.
<mgrwt>
<rscale>  3 0.37786311E+03</rscale>
<asrwt>0</asrwt>
<pdfrwt beam="1">  1       21 0.19930004E-01 0.37786311E+03</pdfrwt>
<pdfrwt beam="2">  1       21 0.19089596E+00 0.37786311E+03</pdfrwt>
<totfact> 0.31535343E+03</totfact>
</mgrwt>
</event>
<event>
 4    0  0.1389217E-001  0.2388421E+03  0.7546771E-02  0.1120567E+00
         21   -1    0    0  502  501  0.00000000000E+00  0.00000000000E+00  0.10005853586E+03  0.10005853586E+03  0.00000000000E+00 0.  1.
         21   -1    0    0  503  502 -0.00000000000E+00 -0.00000000000E+00 -0.60698609719E+03  0.60698609719E+03  0.00000000000E+00 0.  1.
         25    1    1    2    0    0 -0.18052410635E+03 -0.93976608911E+02 -0.11425445354E+03  0.26476335877E+03  0.12500000000E+03 0.  0.
         21    1    1    2  503  501  0.18052410635E+03  0.93976608911E+02 -0.39267310779E+03  0.44228127428E+03  0.00000000000E+00 0.  1.
<mgrwt>
<rscale>  3 0.23884212E+03</rscale>
<asrwt>0</asrwt>
<pdfrwt beam="1">  1       21 0.15393621E-01 0.23884212E+03</pdfrwt>
<pdfrwt beam="2">  1       21 0.93382478E-01 0.23884212E+03</pdfrwt>
<totfact> 0.35238838E+04</totfact>
</mgrwt>
</event>
<event>
 4    0  0.1003929E-001  0.2649664E+03  0.7546771E-02  0.1104196E+00
         21   -1    0    0  503  501  0.00000000000E+00  0.00000000000E+00  0.14521594379E+04  0.14521594379E+04  0.00000000000E+00 0. -1.
         21   -1    0    0  501  502 -0.00000000000E+00 -0.00000000000E+00 -0.15711777684E+03  0.15711777684E+03  0.00000000000E+00 0. -1.
         25    1    1    2    0    0  0.19904736951E+03  0.12232062694E+03  0.13445932794E+04  0.13704518518E+04  0.12500000000E+03 0.  0.
         21    1    1    2  503  502 -0.19904736951E+03 -0.12232062694E+03 -0.49551618385E+02  0.23882536291E+03  0.00000000000E+00 0. -1.
<mgrwt>
<rscale>  3 0.26496640E+03</rscale>
<asrwt>0</asrwt>
<pdfrwt beam="1">  1       21 0.22340914E+00 0.26496640E+03</pdfrwt>
<pdfrwt beam="2">  1       21 0.24171967E-01 0.26496640E+03</pdfrwt>
<totfact> 0.14438155E+03</totfact>
</mgrwt>
</event>
<event>
 4    0  0.1060755E-001  0.2362845E+03  0.7546771E-02  0.1122293E+00
         21   -1    0    0  502  501  0.00000000000E+00  0.00000000000E+00  0.99103407441E+03  0.99103407441E+03  0.00000000000E+00 0.  1.
         21   -1    0    0  503  502 -0.00000000000E+00 -0.00000000000E+00 -0.49510969770E+02  0.49510969770E+02  0.00000000000E+00 0.  1.
         25    1    1    2    0    0  0.19947610389E+03 -0.20362435586E+02  0.42161554762E+03  0.48331150907E+03  0.12500000000E+03 0.  0.
         21    1    1    2  503  501 -0.19947610389E+03  0.20362435586E+02  0.51990755703E+03  0.55723353512E+03  0.00000000000E+00 0.  1.
<mgrwt>
<rscale>  3 0.23628446E+03</rscale>
<asrwt>0</asrwt>
<pdfrwt beam="1">  1       21 0.15246677E+00 0.23628446E+03</pdfrwt>
<pdfrwt beam="2">  1       21 0.76170730E-02 0.23628446E+03</pdfrwt>
<totfact> 0.36495779E+04</totfact>
</mgrwt>
</event>
<event>
 4    0  0.1353456E-001  0.2359151E+03  0.7546771E-02  0.1122544E+00
         21   -1    0    0  503  501  0.00000000000E+00  0.00000000000E+00  0.89971690869E+02  0.89971690869E+02  0.00000000000E+00 0.  1.
         21   -1    0    0  501  502 -0.00000000000E+00 -0.00000000000E+00 -0.67605977144E+03  0.67605977144E+03  0.00000000000E+00 0.  1.
         25    1    1    2    0    0  0.15140345085E+03  0.13079727029E+03 -0.13320988929E+03  0.27092583016E+03  0.12500000000E+03 0.  0.
         21    1    1    2  503  502 -0.15140345085E+03 -0.13079727029E+03 -0.45287819128E+03  0.49510563215E+03  0.00000000000E+00 0.  1.
<mgrwt>
<rscale>  3 0.23591509E+03</rscale>
<asrwt>0</asrwt>
<pdfrwt beam="1">  1       21 0.13841799E-01 0.23591509E+03</pdfrwt>
<pdfrwt beam="2">  1       21 0.10400920E+00 0.23591509E+03</pdfrwt>
<totfact> 0.33155067E+04</totfact>
</mgrwt>
</event>
<event>
 4    0  0.1411173E-001  0.2445767E+03  0.7546771E-02  0.1116781E+00
         21   -1    0    0  503  501  0.00000000000E+00  0.00000000000E+00  0.95992351460E+02  0.95992351460E+02  0.00000000000E+00 0. -1.
         21   -1    0    0  501  502 -0.00000000000E+00 -0.00000000000E+00 -0.13130006734E+04  0.13130006734E+04  0.00000000000E+00 0.  1.
         25    1    1    2    0    0  0.18092823303E+03  0.10704083099E+03 -0.86988829399E+02  0.25958586527E+03  0.12500000000E+03 0.  0.
         21    1    1    2  503  502 -0.18092823303E+03 -0.10704083099E+03 -0.11300194925E+04  0.11494071596E+04  0.00000000000E+00 0.  1.
<mgrwt>
<rscale>  3 0.24457671E+03</rscale>
<asrwt>0</asrwt>
<pdfrwt beam="1">  1       21 0.14768054E-01 0.24457671E+03</pdfrwt>
<pdfrwt beam="2">  1       21 0.20200011E+00 0.24457671E+03</pdfrwt>
<totfact> 0.50362028E+03</totfact>
</mgrwt>
</event>
<event>
 4    0  0.1317712E-001  0.2489050E+03  0.7546771E-02  0.1113999E+00
         21   -1    0    0  502  501  0.00000000000E+00  0.00000000000E+00  0.18688992166E+03  0.18688992166E+03  0.00000000000E+00 0.  1.
         21   -1    0    0  503  502 -0.00000000000E+00 -0.00000000000E+00 -0.54874276501E+03  0.54874276501E+03  0.00000000000E+00 0. -1.
         25    1    1    2    0    0 -0.12934709938E+03  0.17204083016E+03  0.65288057065E+02  0.25732518290E+03  0.12500000000E+03 0.  0.
         21    1    1    2  503  501  0.12934709938E+03 -0.17204083016E+03 -0.42714090041E+03  0.47830750377E+03  0.00000000000E+00 0. -1.
<mgrwt>
<rscale>  3 0.24890504E+03</rscale>
<asrwt>0</asrwt>
<pdfrwt beam="1">  1       21 0.28752295E-01 0.24890504E+03</pdfrwt>
<pdfrwt beam="2">  1       21 0.84421965E-01 0.24890504E+03</pdfrwt>
<totfact> 0.13620800E+04</totfact>
</mgrwt>
</event>
<event>
 4    0  0.1031057E-001  0.3136338E+03  0.7546771E-02  0.1078617E+00
         21   -1    0    0  502  501  0.00000000000E+00  0.00000000000E+00  0.92834610037E+03  0.92834610037E+03  0.00000000000E+00 0.  1.
         21   -1    0    0  503  502 -0.00000000000E+00 -0.00000000000E+00 -0.13114715607E+03  0.13114715607E+03  0.00000000000E+00 0. -1.
         25    1    1    2    0    0  0.95080377999E+02 -0.27147907120E+03  0.68008092607E+03  0.74891670457E+03  0.12500000000E+03 0.  0.
         21    1    1    2  503  501 -0.95080377999E+02  0.27147907120E+03  0.11711801824E+03  0.31057655188E+03  0.00000000000E+00 0. -1.
<mgrwt>
<rscale>  3 0.31363381E+03</rscale>
<asrwt>0</asrwt>
<pdfrwt beam="1">  1       21 0.14282247E+00 0.31363381E+03</pdfrwt>
<pdfrwt beam="2">  1       21 0.20176486E-01 0.31363381E+03</pdfrwt>
<totfact> 0.71539077E+03</totfact>
</mgrwt>
</event>
<event>
 4    0  0.1272077E-001  0.2398332E+03  0.7546771E-02  0.1119904E+00
         21   -1    0    0  503  501  0.00000000000E+00  0.00000000000E+00  0.55543081332E+03  0.55543081332E+03  0.00000000000E+00 0.  1.
         21   -1    0    0  501  502 -0.00000000000E+00 -0.00000000000E+00 -0.15546190546E+03  0.15546190546E+03  0.00000000000E+00 0.  1.
         25    1    1    2    0    0  0.10923127112E+03  0.17309961105E+03  0.44113123654E+03  0.50211225218E+03  0.12500000000E+03 0.  0.
         21    1    1    2  503  502 -0.10923127112E+03 -0.17309961105E+03 -0.41162328683E+02  0.20878046661E+03  0.00000000000E+00 0.  1.
<mgrwt>
<rscale>  3 0.23983316E+03</rscale>
<asrwt>0</asrwt>
<pdfrwt beam="1">  1       21 0.85450893E-01 0.23983316E+03</pdfrwt>
<pdfrwt beam="2">  1       21 0.23917217E-01 0.23983316E+03</pdfrwt>
<totfact> 0.18988123E+04</totfact>
</mgrwt>
</event>
<event>
 4    0  0.1232512E-001  0.2399742E+03  0.7546771E-02  0.1119810E+00
         21   -1    0    0  502  501  0.00000000000E+00  0.00000000000E+00  0.49695250116E+02  0.49695250116E+02  0.00000000000E+00 0. -1.
         21   -1    0    0  503  502 -0.00000000000E+00 -0.00000000000E+00 -0.13399728494E+04  0.13399728494E+04  0.00000000000E+00 0. -1.
         25    1    1    2    0    0  0.91750758286E+02 -0.18315136435E+03 -0.33145089286E+03  0.40920327258E+03  0.12500000000E+03 0.  0.
         21    1    1    2  503  501 -0.91750758286E+02  0.18315136435E+03 -0.95882670645E+03  0.98046482696E+03  0.00000000000E+00 0. -1.
<mgrwt>
<rscale>  3 0.23997422E+03</rscale>
<asrwt>0</asrwt>
<pdfrwt beam="1">  1       21 0.76454234E-02 0.23997422E+03</pdfrwt>
<pdfrwt beam="2">  1       21 0.20614966E+00 0.23997422E+03</pdfrwt>
<totfact> 0.15381910E+04</totfact>
</mgrwt>
</event>
<event>
 4    0  0.1003929E-001  0.3155252E+03  0.7546771E-02  0.1077727E+00
         21   -1    0    0  502  501  0.00000000000E+00  0.00000000000E+00  0.18003608355E+04  0.18003608355E+04  0.00000000000E+00 0. -1.
         21   -1    0    0  503  502 -0.00000000000E+00 -0.00000000000E+00 -0.93948776601E+02  0.93948776601E+02  0.00000000000E+00 0. -1.
         25    1    1    2    0    0  0.28939127352E+03 -0.13557755834E+02  0.15139925454E+04  0.15465217585E+04  0.12500000000E+03 0.  0.
         21    1    1    2  503  501 -0.28939127352E+03  0.13557755834E+02  0.19241951344E+03  0.34778785356E+03  0.00000000000E+00 0. -1.
<mgrwt>
<rscale>  3 0.31552515E+03</rscale>
<asrwt>0</asrwt>
<pdfrwt beam="1">  1       21 0.27697857E+00 0.31552515E+03</pdfrwt>
<pdfrwt beam="2">  1       21 0.14453659E-01 0.31552515E+03</pdfrwt>
<totfact> 0.17305066E+03</totfact>
</mgrwt>
</event>
<event>
 4    0  0.1252521E-001  0.2478382E+03  0.7546771E-02  0.1114679E+00
         21   -1    0    0  503  501  0.00000000000E+00  0.00000000000E+00  0.60157926088E+02  0.60157926088E+02  0.00000000000E+00 0.  1.
         21   -1    0    0  501  502 -0.00000000000E+00 -0.00000000000E+00 -0.10441166640E+04  0.10441166640E+04  0.00000000000E+00 0.  1.
         25    1    1    2    0    0 -0.35502348068E+02 -0.21104113180E+03 -0.30848672933E+03  0.39571181206E+03  0.12500000000E+03 0.  0.
         21    1    1    2  503  502  0.35502348068E+02  0.21104113180E+03 -0.67547200860E+03  0.70856277804E+03  0.00000000000E+00 0.  1.
<mgrwt>
<rscale>  3 0.24783821E+03</rscale>
<asrwt>0</asrwt>
<pdfrwt beam="1">  1       21 0.92550665E-02 0.24783821E+03</pdfrwt>
<pdfrwt beam="2">  1       21 0.16063332E+00 0.24783821E+03</pdfrwt>
<totfact> 0.22385807E+04</totfact>
</mgrwt>
</event>
<event>
 4    0  0.1471661E-001  0.2387101E+03  0.7546771E-02  0.1120655E+00
         21   -1    0    0  503  501  0.00000000000E+00  0.00000000000E+00  0.21590941044E+03  0.21590941044E+03  0.00000000000E+00 0.  1.
         21   -1    0    0  501  502 -0.00000000000E+00 -0.00000000000E+00 -0.22957423101E+03  0.22957423101E+03  0.00000000000E+00 0.  1.
         25    1    1    2    0    0  0.13836215424E+03 -0.14904172709E+03  0.19194518768E+02  0.23948058729E+03  0.12500000000E+03 0.  0.
         21    1    1    2  503  502 -0.13836215424E+03  0.14904172709E+03 -0.32859339346E+02  0.20600305416E+03  0.00000000000E+00 0.  1.
<mgrwt>
<rscale>  3 0.23871012E+03</rscale>
<asrwt>0</asrwt>
<pdfrwt beam="1">  1       21 0.33216833E-01 0.23871012E+03</pdfrwt>
<pdfrwt beam="2">  1       21 0.35319112E-01 0.23871012E+03</pdfrwt>
<totfact> 0.66149560E+04</totfact>
</mgrwt>
</event>
<event>
 4    0  0.1441472E-001  0.2689832E+03  0.7546771E-02  0.1101863E+00
         21   -1    0    0  502  501  0.00000000000E+00  0.00000000000E+00  0.16473866568E+03  0.16473866568E+03  0.00000000000E+00 0. -1.
         21   -1    0    0  503  502 -0.00000000000E+00 -0.00000000000E+00 -0.80406345821E+03  0.80406345821E+03  0.00000000000E+00 0.  1.
         25    1    1    2    0    0  0.18007367452E+03  0.15588604695E+03  0.18072382089E+02  0.26958968616E+03  0.12500000000E+03 0.  0.
         21    1    1    2  503  501 -0.18007367452E+03 -0.15588604695E+03 -0.65739717462E+03  0.69921243774E+03  0.00000000000E+00 0.  1.
<mgrwt>
<rscale>  3 0.26898325E+03</rscale>
<asrwt>0</asrwt>
<pdfrwt beam="1">  1       21 0.25344410E-01 0.26898325E+03</pdfrwt>
<pdfrwt beam="2">  1       21 0.12370207E+00 0.26898325E+03</pdfrwt>
<totfact> 0.68656517E+03</totfact>
</mgrwt>
</event>
<event>
 4    0  0.1512724E-001  0.2547803E+03  0.7546771E-02  0.1110321E+00
         21   -1    0    0  503  501  0.00000000000E+00  0.00000000000E+00  0.20723000813E+03  0.20723000813E+03  0.00000000000E+00 0. -1.
         21   -1    0    0  501  502 -0.00000000000E+00 -0.00000000000E+00 -0.28048770820E+03  0.28048770820E+03  0.00000000000E+00 0. -1.
         25    1    1    2    0    0  0.16253302802E+03 -0.15123159247E+03 -0.27968709716E+01  0.25479560876E+03  0.12500000000E+03 0.  0.
         21    1    1    2  503  502 -0.16253302802E+03  0.15123159247E+03 -0.70460829093E+02  0.23292210757E+03  0.00000000000E+00 0. -1.
<mgrwt>
<rscale>  3 0.25478026E+03</rscale>
<asrwt>0</asrwt>
<pdfrwt beam="1">  1       21 0.31881540E-01 0.25478026E+03</pdfrwt>
<pdfrwt beam="2">  1       21 0.43151955E-01 0.25478026E+03</pdfrwt>
<totfact> 0.47519509E+04</totfact>
</mgrwt>
</event>
<event>
 4    0  0.1003929E-001  0.4683457E+03  0.7546771E-02  0.1022388E+00
         21   -1    0    0  502  501  0.00000000000E+00  0.00000000000E+00  0.15565779554E+03  0.15565779554E+03  0.00000000000E+00 0. -1.
         21   -1    0    0  503  502 -0.00000000000E+00 -0.00000000000E+00 -0.20516343181E+04  0.20516343181E+04  0.00000000000E+00 0. -1.
         25    1    1    2    0    0  0.16630216115E+03 -0.41960251117E+03 -0.31817396140E+03  0.56619991690E+03  0.12500000000E+03 0.  0.
         21    1    1    2  503  501 -0.16630216115E+03  0.41960251117E+03 -0.15778025612E+04  0.16410921967E+04  0.00000000000E+00 0. -1.
<mgrwt>
<rscale>  3 0.46834568E+03</rscale>
<asrwt>0</asrwt>
<pdfrwt beam="1">  1       21 0.23947354E-01 0.46834568E+03</pdfrwt>
<pdfrwt beam="2">  1       21 0.31563604E+00 0.46834568E+03</pdfrwt>
<totfact> 0.35559707E+02</totfact>
</mgrwt>
</event>
<event>
 4    0  0.1003929E-001  0.3262107E+03  0.7546771E-02  0.1072826E+00
         21   -1    0    0  503  501  0.00000000000E+00  0.00000000000E+00  0.43573743658E+03  0.43573743658E+03  0.00000000000E+00 0. -1.
         21   -1    0    0  501  502 -0.00000000000E+00 -0.00000000000E+00 -0.25766976124E+03  0.25766976124E+03  0.00000000000E+00 0.  1.
         25    1    1    2    0    0 -0.28897341985E+03 -0.85339225063E+02  0.21373105258E+03  0.38999279936E+03  0.12500000000E+03 0.  0.
         21    1    1    2  503  502  0.28897341985E+03  0.85339225063E+02 -0.35663377246E+02  0.30341439846E+03  0.00000000000E+00 0.  1.
<mgrwt>
<rscale>  3 0.32621070E+03</rscale>
<asrwt>0</asrwt>
<pdfrwt beam="1">  1       21 0.67036529E-01 0.32621070E+03</pdfrwt>
<pdfrwt beam="2">  1       21 0.39641502E-01 0.32621070E+03</pdfrwt>
<totfact> 0.11656455E+04</totfact>
</mgrwt>
</event>
<event>
 4    0  0.1184631E-001  0.4078504E+03  0.7546771E-02  0.1041095E+00
         21   -1    0    0  502  501  0.00000000000E+00  0.00000000000E+00  0.21940838946E+03  0.21940838946E+03  0.00000000000E+00 0.  1.
         21   -1    0    0  503  502 -0.00000000000E+00 -0.00000000000E+00 -0.92737551872E+03  0.92737551872E+03  0.00000000000E+00 0.  1.
         25    1    1    2    0    0 -0.38720328995E+03  0.28116639116E+02 -0.91068904346E+02  0.41789409960E+03  0.12500000000E+03 0.  0.
         21    1    1    2  503  501  0.38720328995E+03 -0.28116639116E+02 -0.61689822491E+03  0.72888980857E+03  0.00000000000E+00 0.  1.
<mgrwt>
<rscale>  3 0.40785038E+03</rscale>
<asrwt>0</asrwt>
<pdfrwt beam="1">  1       21 0.33755138E-01 0.40785038E+03</pdfrwt>
<pdfrwt beam="2">  1       21 0.14267315E+00 0.40785038E+03</pdfrwt>
<totfact> 0.25222779E+03</totfact>
</mgrwt>
</event>
<event>
 4    0  0.1481238E-001  0.3403889E+03  0.7546771E-02  0.1066630E+00
         21   -1    0    0  503  501  0.00000000000E+00  0.00000000000E+00  0.16849773426E+03  0.16849773426E+03  0.00000000000E+00 0. -1.
         21   -1    0    0  501  502 -0.00000000000E+00 -0.00000000000E+00 -0.74081564058E+03  0.74081564058E+03  0.00000000000E+00 0. -1.
         25    1    1    2    0    0 -0.56573028978E+02  0.31151098181E+03 -0.12784233744E+03  0.36360454155E+03  0.12500000000E+03 0.  0.
         21    1    1    2  503  502  0.56573028978E+02 -0.31151098181E+03 -0.44447556888E+03  0.54570883329E+03  0.00000000000E+00 0. -1.
<mgrwt>
<rscale>  3 0.34038889E+03</rscale>
<asrwt>0</asrwt>
<pdfrwt beam="1">  1       21 0.25922728E-01 0.34038889E+03</pdfrwt>
<pdfrwt beam="2">  1       21 0.11397164E+00 0.34038889E+03</pdfrwt>
<totfact> 0.77888813E+03</totfact>
</mgrwt>
</event>
<event>
 4    0  0.1003929E-001  0.2515143E+03  0.7546771E-02  0.1112352E+00
         21   -1    0    0  502  501  0.00000000000E+00  0.00000000000E+00  0.21986375798E+03  0.21986375798E+03  0.00000000000E+00 0.  1.
         21   -1    0    0  503  502 -0.00000000000E+00 -0.00000000000E+00 -0.14221264747E+04  0.14221264747E+04  0.00000000000E+00 0.  1.
         25    1    1    2    0    0 -0.13883550630E+03  0.16840174197E+03  0.13608073823E+03  0.28596750134E+03  0.12500000000E+03 0.  0.
         21    1    1    2  503  501  0.13883550630E+03 -0.16840174197E+03 -0.13383434550E+04  0.13560227313E+04  0.00000000000E+00 0.  1.
<mgrwt>
<rscale>  3 0.25151430E+03</rscale>
<asrwt>0</asrwt>
<pdfrwt beam="1">  1       21 0.33825193E-01 0.25151430E+03</pdfrwt>
<pdfrwt beam="2">  1       21 0.21878869E+00 0.25151430E+03</pdfrwt>
<totfact> 0.80995053E+02</totfact>
</mgrwt>
</event>
<event>
 4    0  0.1003929E-001  0.2574516E+03  0.7546771E-02  0.1108684E+00
         21   -1    0    0  503  501  0.00000000000E+00  0.00000000000E+00  0.10063089321E+03  0.10063089321E+03  0.00000000000E+00 0.  1.
         21   -1    0    0  501  502 -0.00000000000E+00 -0.00000000000E+00 -0.26599977525E+04  0.26599977525E+04  0.00000000000E+00 0. -1.
         25    1    1    2    0    0 -0.11334692684E+01  0.22506671585E+03 -0.77904632039E+02  0.26898037667E+03  0.12500000000E+03 0.  0.
         21    1    1    2  503  502  0.11334692684E+01 -0.22506671585E+03 -0.24814622272E+04  0.24916482690E+04  0.00000000000E+00 0. -1.
<mgrwt>
<rscale>  3 0.25745157E+03</rscale>
<asrwt>0</asrwt>
<pdfrwt beam="1">  1       21 0.15481677E-01 0.25745157E+03</pdfrwt>
<pdfrwt beam="2">  1       21 0.40923041E+00 0.25745157E+03</pdfrwt>
<totfact> 0.25674476E+02</totfact>
</mgrwt>
</event>
<event>
 4    0  0.1331166E-001  0.2400728E+03  0.7546771E-02  0.1119744E+00
         21   -1    0    0  503  501  0.00000000000E+00  0.00000000000E+00  0.86280662727E+02  0.86280662727E+02  0.00000000000E+00 0. -1.
         21   -1    0    0  501  502 -0.00000000000E+00 -0.00000000000E+00 -0.10791769898E+04  0.10791769898E+04  0.00000000000E+00 0. -1.
         25    1    1    2    0    0  0.98656811894E+02 -0.17965746079E+03 -0.11919016618E+03  0.26803220975E+03  0.12500000000E+03 0.  0.
         21    1    1    2  503  502 -0.98656811894E+02  0.17965746079E+03 -0.87370616088E+03  0.89742544276E+03  0.00000000000E+00 0. -1.
<mgrwt>
<rscale>  3 0.24007284E+03</rscale>
<asrwt>0</asrwt>
<pdfrwt beam="1">  1       21 0.13273949E-01 0.24007284E+03</pdfrwt>
<pdfrwt beam="2">  1       21 0.16602722E+00 0.24007284E+03</pdfrwt>
<totfact> 0.10775191E+04</totfact>
</mgrwt>
</event>
<event>
 4    0  0.1333038E-001  0.2632155E+03  0.7546771E-02  0.1105227E+00
         21   -1    0    0  503  501  0.00000000000E+00  0.00000000000E+00  0.62530522878E+03  0.62530522878E+03  0.00000000000E+00 0. -1.
         21   -1    0    0  501  502 -0.00000000000E+00 -0.00000000000E+00 -0.16288971866E+03  0.16288971866E+03  0.00000000000E+00 0.  1.
         25    1    1    2    0    0 -0.21224529876E+03 -0.92786510824E+02  0.48869105972E+03  0.55506878429E+03  0.12500000000E+03 0.  0.
         21    1    1    2  503  502  0.21224529876E+03  0.92786510824E+02 -0.26275549604E+02  0.23312616315E+03  0.00000000000E+00 0.  1.
<mgrwt>
<rscale>  3 0.26321551E+03</rscale>
<asrwt>0</asrwt>
<pdfrwt beam="1">  1       21 0.96200803E-01 0.26321551E+03</pdfrwt>
<pdfrwt beam="2">  1       21 0.25059957E-01 0.26321551E+03</pdfrwt>
<totfact> 0.13008446E+04</totfact>
</mgrwt>
</event>
<event>
 4    0  0.1016232E-001  0.2622478E+03  0.7546771E-02  0.1105800E+00
         21   -1    0    0  503  501  0.00000000000E+00  0.00000000000E+00  0.51260730075E+03  0.51260730075E+03  0.00000000000E+00 0.  1.
         21   -1    0    0  501  502 -0.00000000000E+00 -0.00000000000E+00 -0.48855147383E+03  0.48855147383E+03  0.00000000000E+00 0.  1.
         25    1    1    2    0    0 -0.11886895119E+03  0.19753247606E+03  0.44769694020E+03  0.51885109320E+03  0.12500000000E+03 0.  0.
         21    1    1    2  503  502  0.11886895119E+03 -0.19753247606E+03 -0.42364111328E+03  0.48230768138E+03  0.00000000000E+00 0.  1.
<mgrwt>
<rscale>  3 0.26224780E+03</rscale>
<asrwt>0</asrwt>
<pdfrwt beam="1">  1       21 0.78862662E-01 0.26224780E+03</pdfrwt>
<pdfrwt beam="2">  1       21 0.75161765E-01 0.26224780E+03</pdfrwt>
<totfact> 0.21287144E+03</totfact>
</mgrwt>
</event>
<event>
 4    0  0.1003929E-001  0.3149323E+03  0.7546771E-02  0.1078006E+00
         21   -1    0    0  503  501  0.00000000000E+00  0.00000000000E+00  0.10541974236E+04  0.10541974236E+04  0.00000000000E+00 0.  1.
         21   -1    0    0  501  502 -0.00000000000E+00 -0.00000000000E+00 -0.18782317553E+03  0.18782317553E+03  0.00000000000E+00 0.  1.
         25    1    1    2    0    0  0.11492694160E+03  0.26523412774E+03 -0.14162706501E+02  0.31525057760E+03  0.12500000000E+03 0.  0.
         21    1    1    2  503  502 -0.11492694160E+03 -0.26523412774E+03  0.88053695457E+03  0.92677002151E+03  0.00000000000E+00 0.  1.
<mgrwt>
<rscale>  3 0.31493229E+03</rscale>
<asrwt>0</asrwt>
<pdfrwt beam="1">  1       21 0.16218422E+00 0.31493229E+03</pdfrwt>
<pdfrwt beam="2">  1       21 0.28895874E-01 0.31493229E+03</pdfrwt>
<totfact> 0.25406853E+03</totfact>
</mgrwt>
</event>
<event>
 4    0  0.1152260E-001  0.2997960E+03  0.7546771E-02  0.1085343E+00
         21   -1    0    0  503  501  0.00000000000E+00  0.00000000000E+00  0.15995175203E+04  0.15995175203E+04  0.00000000000E+00 0. -1.
         21   -1    0    0  501  502 -0.00000000000E+00 -0.00000000000E+00 -0.71074904676E+02  0.71074904676E+02  0.00000000000E+00 0. -1.
         25    1    1    2    0    0 -0.26942270465E+03  0.40792625667E+02  0.12319401732E+04  0.12678936164E+04  0.12500000000E+03 0.  0.
         21    1    1    2  503  502  0.26942270465E+03 -0.40792625667E+02  0.29650244243E+03  0.40269880862E+03  0.00000000000E+00 0. -1.
<mgrwt>
<rscale>  3 0.29979598E+03</rscale>
<asrwt>0</asrwt>
<pdfrwt beam="1">  1       21 0.24607959E+00 0.29979598E+03</pdfrwt>
<pdfrwt beam="2">  1       21 0.10934602E-01 0.29979598E+03</pdfrwt>
<totfact> 0.44418785E+03</totfact>
</mgrwt>
</event>
<event>
 4    0  0.1946021E-001  0.2512697E+03  0.7546771E-02  0.1112505E+00
         21   -1    0    0  503  501  0.00000000000E+00  0.00000000000E+00  0.57355931948E+03  0.57355931948E+03  0.00000000000E+00 0. -1.
         21   -1    0    0  501  502 -0.00000000000E+00 -0.00000000000E+00 -0.36047762968E+03  0.36047762968E+03  0.00000000000E+00 0.  1.
         25    1    1    2    0    0  0.16490603188E+03 -0.14253936118E+03  0.50833220976E+03  0.56704330021E+03  0.12500000000E+03 0.  0.
         21    1    1    2  503  502 -0.16490603188E+03  0.14253936118E+03 -0.29525051995E+03  0.36699364895E+03  0.00000000000E+00 0.  1.
<mgrwt>
<rscale>  3 0.25126971E+03</rscale>
<asrwt>0</asrwt>
<pdfrwt beam="1">  1       21 0.88239895E-01 0.25126971E+03</pdfrwt>
<pdfrwt beam="2">  1       21 0.55458097E-01 0.25126971E+03</pdfrwt>
<totfact> 0.32244196E+03</totfact>
</mgrwt>
</event>
<event>
 4    0  0.1003929E-001  0.3215306E+03  0.7546771E-02  0.1074947E+00
         21   -1    0    0  503  501  0.00000000000E+00  0.00000000000E+00  0.20305212870E+04  0.20305212870E+04  0.00000000000E+00 0. -1.
         21   -1    0    0  501  502 -0.00000000000E+00 -0.00000000000E+00 -0.81987159216E+02  0.81987159216E+02  0.00000000000E+00 0.  1.
         25    1    1    2    0    0  0.20938262253E+03 -0.20956106466E+03  0.16869186242E+04  0.17172875028E+04  0.12500000000E+03 0.  0.
         21    1    1    2  503  502 -0.20938262253E+03  0.20956106466E+03  0.26161550359E+03  0.39522094347E+03  0.00000000000E+00 0.  1.
<mgrwt>
<rscale>  3 0.32153059E+03</rscale>
<asrwt>0</asrwt>
<pdfrwt beam="1">  1       21 0.31238785E+00 0.32153059E+03</pdfrwt>
<pdfrwt beam="2">  1       21 0.12613411E-01 0.32153059E+03</pdfrwt>
<totfact> 0.13634359E+03</totfact>
</mgrwt>
</event>
<event>
 4    0  0.1398653E-001  0.2487688E+03  0.7546771E-02  0.1114085E+00
         21   -1    0    0  502  501  0.00000000000E+00  0.00000000000E+00  0.58059598995E+03  0.58059598995E+03  0.00000000000E+00 0. -1.
         21   -1    0    0  503  502 -0.00000000000E+00 -0.00000000000E+00 -0.16887304178E+03  0.16887304178E+03  0.00000000000E+00 0. -1.
         25    1    1    2    0    0  0.20085310974E+03 -0.76934567256E+02  0.46546569831E+03  0.52777288263E+03  0.12500000000E+03 0.  0.
         21    1    1    2  503  501 -0.20085310974E+03  0.76934567256E+02 -0.53742750151E+02  0.22169614910E+03  0.00000000000E+00 0. -1.
<mgrwt>
<rscale>  3 0.24876877E+03</rscale>
<asrwt>0</asrwt>
<pdfrwt beam="1">  1       21 0.89322459E-01 0.24876877E+03</pdfrwt>
<pdfrwt beam="2">  1       21 0.25980468E-01 0.24876877E+03</pdfrwt>
<totfact> 0.14552289E+04</totfact>
</mgrwt>
</event>
<event>
 4    0  0.1065287E-001  0.3237339E+03  0.7546771E-02  0.1073944E+00
         21   -1    0    0  503  501  0.00000000000E+00  0.00000000000E+00  0.30699907914E+03  0.30699907914E+03  0.00000000000E+00 0. -1.
         21   -1    0    0  501  502 -0.00000000000E+00 -0.00000000000E+00 -0.43648696749E+03  0.43648696749E+03  0.00000000000E+00 0.  1.
         25    1    1    2    0    0  0.94222577735E+02  0.28337387854E+03  0.12903453408E+03  0.34850187974E+03  0.12500000000E+03 0.  0.
         21    1    1    2  503  502 -0.94222577735E+02 -0.28337387854E+03 -0.25852242244E+03  0.39498416689E+03  0.00000000000E+00 0.  1.
<mgrwt>
<rscale>  3 0.32373392E+03</rscale>
<asrwt>0</asrwt>
<pdfrwt beam="1">  1       21 0.47230628E-01 0.32373392E+03</pdfrwt>
<pdfrwt beam="2">  1       21 0.67151841E-01 0.32373392E+03</pdfrwt>
<totfact> 0.80911593E+03</totfact>
</mgrwt>
</event>
<event>
 4    0  0.1003929E-001  0.3488689E+03  0.7546771E-02  0.1063080E+00
         21   -1    0    0  503  501  0.00000000000E+00  0.00000000000E+00  0.20710537750E+04  0.20710537750E+04  0.00000000000E+00 0. -1.
         21   -1    0    0  501  502 -0.00000000000E+00 -0.00000000000E+00 -0.56949841381E+02  0.56949841381E+02  0.00000000000E+00 0. -1.
         25    1    1    2    0    0 -0.29861832107E+03 -0.13004464205E+03  0.12406730634E+04  0.12887898047E+04  0.12500000000E+03 0.  0.
         21    1    1    2  503  502  0.29861832107E+03  0.13004464205E+03  0.77343087022E+03  0.83921381162E+03  0.00000000000E+00 0. -1.
<mgrwt>
<rscale>  3 0.34886890E+03</rscale>
<asrwt>0</asrwt>
<pdfrwt beam="1">  1       21 0.31862360E+00 0.34886890E+03</pdfrwt>
<pdfrwt beam="2">  1       21 0.87615156E-02 0.34886890E+03</pdfrwt>
<totfact> 0.23597381E+03</totfact>
</mgrwt>
</event>
<event>
 4    0  0.1443457E-001  0.2452594E+03  0.7546771E-02  0.1116338E+00
         21   -1    0    0  503  501  0.00000000000E+00  0.00000000000E+00  0.17108389429E+03  0.17108389429E+03  0.00000000000E+00 0. -1.
         21   -1    0    0  501  502 -0.00000000000E+00 -0.00000000000E+00 -0.42112525802E+03  0.42112525802E+03  0.00000000000E+00 0. -1.
         25    1    1    2    0    0  0.93634253091E+02  0.18910255430E+03  0.23897326189E+02  0.24642084245E+03  0.12500000000E+03 0.  0.
         21    1    1    2  503  502 -0.93634253091E+02 -0.18910255430E+03 -0.27393868992E+03  0.34578830985E+03  0.00000000000E+00 0. -1.
<mgrwt>
<rscale>  3 0.24525935E+03</rscale>
<asrwt>0</asrwt>
<pdfrwt beam="1">  1       21 0.26320599E-01 0.24525935E+03</pdfrwt>
<pdfrwt beam="2">  1       21 0.64788501E-01 0.24525935E+03</pdfrwt>
<totfact> 0.29327900E+04</totfact>
</mgrwt>
</event>
<event>
 4    0  0.1725440E-001  0.2476666E+03  0.7546771E-02  0.1114788E+00
         21   -1    0    0  503  501  0.00000000000E+00  0.00000000000E+00  0.16501310254E+04  0.16501310254E+04  0.00000000000E+00 0. -1.
         21   -1    0    0  501  502 -0.00000000000E+00 -0.00000000000E+00 -0.25239691662E+03  0.25239691662E+03  0.00000000000E+00 0.  1.
         25    1    1    2    0    0  0.19974876107E+03  0.76250844831E+02  0.15935018523E+04  0.16126335331E+04  0.12500000000E+03 0.  0.
         21    1    1    2  503  502 -0.19974876107E+03 -0.76250844831E+02 -0.19576774353E+03  0.28989440887E+03  0.00000000000E+00 0.  1.
<mgrwt>
<rscale>  3 0.24766663E+03</rscale>
<asrwt>0</asrwt>
<pdfrwt beam="1">  1       21 0.25386631E+00 0.24766663E+03</pdfrwt>
<pdfrwt beam="2">  1       21 0.38830296E-01 0.24766663E+03</pdfrwt>
<totfact> 0.37756785E+02</totfact>
</mgrwt>
</event>
<event>
 4    0  0.1329129E-001  0.2479304E+03  0.7546771E-02  0.1114620E+00
         21   -1    0    0  502  501  0.00000000000E+00  0.00000000000E+00  0.30031566221E+03  0.30031566221E+03  0.00000000000E+00 0.  1.
         21   -1    0    0  503  502 -0.00000000000E+00 -0.00000000000E+00 -0.17850134530E+03  0.17850134530E+03  0.00000000000E+00 0.  1.
         25    1    1    2    0    0 -0.18649401313E+03  0.10518776103E+03  0.49514004900E+02  0.25282626185E+03  0.12500000000E+03 0.  0.
         21    1    1    2  503  501  0.18649401313E+03 -0.10518776103E+03  0.72300312013E+02  0.22599074565E+03  0.00000000000E+00 0.  1.
<mgrwt>
<rscale>  3 0.24793040E+03</rscale>
<asrwt>0</asrwt>
<pdfrwt beam="1">  1       21 0.46202409E-01 0.24793040E+03</pdfrwt>
<pdfrwt beam="2">  1       21 0.27461745E-01 0.24793040E+03</pdfrwt>
<totfact> 0.55425000E+04</totfact>
</mgrwt>
</event>
<event>
 4    0  0.1560060E-001  0.3527933E+03  0.7546771E-02  0.1061474E+00
         21   -1    0    0  503  501  0.00000000000E+00  0.00000000000E+00  0.28822790916E+03  0.28822790916E+03  0.00000000000E+00 0.  1.
         21   -1    0    0  501  502 -0.00000000000E+00 -0.00000000000E+00 -0.40857753394E+03  0.40857753394E+03  0.00000000000E+00 0.  1.
         25    1    1    2    0    0 -0.31337688329E+03 -0.10311662467E+03 -0.26385184072E+02  0.35377858499E+03  0.12500000000E+03 0.  0.
         21    1    1    2  503  502  0.31337688329E+03  0.10311662467E+03 -0.93964440708E+02  0.34302685810E+03  0.00000000000E+00 0.  1.
<mgrwt>
<rscale>  3 0.35279330E+03</rscale>
<asrwt>0</asrwt>
<pdfrwt beam="1">  1       21 0.44342755E-01 0.35279330E+03</pdfrwt>
<pdfrwt beam="2">  1       21 0.62858082E-01 0.35279330E+03</pdfrwt>
<totfact> 0.10554249E+04</totfact>
</mgrwt>
</event>
<event>
 4    0  0.1024500E-001  0.4056216E+03  0.7546771E-02  0.1041850E+00
         21   -1    0    0  502  501  0.00000000000E+00  0.00000000000E+00  0.14789060583E+03  0.14789060583E+03  0.00000000000E+00 0.  1.
         21   -1    0    0  503  502 -0.00000000000E+00 -0.00000000000E+00 -0.14007040653E+04  0.14007040653E+04  0.00000000000E+00 0.  1.
         25    1    1    2    0    0  0.21399480169E+03  0.32110765265E+03 -0.25588274166E+03  0.47958823716E+03  0.12500000000E+03 0.  0.
         21    1    1    2  503  501 -0.21399480169E+03 -0.32110765265E+03 -0.99693071777E+03  0.10690064339E+04  0.00000000000E+00 0.  1.
<mgrwt>
<rscale>  3 0.40562162E+03</rscale>
<asrwt>0</asrwt>
<pdfrwt beam="1">  1       21 0.22752402E-01 0.40562162E+03</pdfrwt>
<pdfrwt beam="2">  1       21 0.21549293E+00 0.40562162E+03</pdfrwt>
<totfact> 0.16631473E+03</totfact>
</mgrwt>
</event>
<event>
 4    0  0.1003929E-001  0.3300092E+03  0.7546771E-02  0.1071133E+00
         21   -1    0    0  503  501  0.00000000000E+00  0.00000000000E+00  0.14771433251E+03  0.14771433251E+03  0.00000000000E+00 0.  1.
         21   -1    0    0  501  502 -0.00000000000E+00 -0.00000000000E+00 -0.87679415337E+03  0.87679415337E+03  0.00000000000E+00 0. -1.
         25    1    1    2    0    0 -0.10510208379E+03 -0.28676577485E+03 -0.13507221475E+03  0.35658177301E+03  0.12500000000E+03 0.  0.
         21    1    1    2  503  502  0.10510208379E+03  0.28676577485E+03 -0.59400760611E+03  0.66792671287E+03  0.00000000000E+00 0. -1.
<mgrwt>
<rscale>  3 0.33000918E+03</rscale>
<asrwt>0</asrwt>
<pdfrwt beam="1">  1       21 0.22725282E-01 0.33000918E+03</pdfrwt>
<pdfrwt beam="2">  1       21 0.13489141E+00 0.33000918E+03</pdfrwt>
<totfact> 0.65751200E+03</totfact>
</mgrwt>
</event>
<event>
 4    0  0.1602349E-001  0.2699296E+03  0.7546771E-02  0.1101320E+00
         21   -1    0    0  502  501  0.00000000000E+00  0.00000000000E+00  0.36560044972E+03  0.36560044972E+03  0.00000000000E+00 0. -1.
         21   -1    0    0  503  502 -0.00000000000E+00 -0.00000000000E+00 -0.19937320037E+03  0.19937320037E+03  0.00000000000E+00 0. -1.
         25    1    1    2    0    0 -0.21042951354E+03 -0.11382623339E+03  0.18144928507E+03  0.32524734376E+03  0.12500000000E+03 0.  0.
         21    1    1    2  503  501  0.21042951354E+03  0.11382623339E+03 -0.15222035716E+02  0.23972630633E+03  0.00000000000E+00 0. -1.
<mgrwt>
<rscale>  3 0.26992960E+03</rscale>
<asrwt>0</asrwt>
<pdfrwt beam="1">  1       21 0.56246223E-01 0.26992960E+03</pdfrwt>
<pdfrwt beam="2">  1       21 0.30672800E-01 0.26992960E+03</pdfrwt>
<totfact> 0.29240577E+04</totfact>
</mgrwt>
</event>
<event>
 4    0  0.1289257E-001  0.2395652E+03  0.7546771E-02  0.1120083E+00
         21   -1    0    0  502  501  0.00000000000E+00  0.00000000000E+00  0.28392687742E+03  0.28392687742E+03  0.00000000000E+00 0. -1.
         21   -1    0    0  503  502 -0.00000000000E+00 -0.00000000000E+00 -0.51073464273E+03  0.51073464273E+03  0.00000000000E+00 0. -1.
         25    1    1    2    0    0  0.14571205444E+03 -0.14329861230E+03  0.20604763847E+03  0.31598595604E+03  0.12500000000E+03 0.  0.
         21    1    1    2  503  501 -0.14571205444E+03  0.14329861230E+03 -0.43285540378E+03  0.47867556411E+03  0.00000000000E+00 0. -1.
<mgrwt>
<rscale>  3 0.23956522E+03</rscale>
<asrwt>0</asrwt>
<pdfrwt beam="1">  1       21 0.43681058E-01 0.23956522E+03</pdfrwt>
<pdfrwt beam="2">  1       21 0.78574560E-01 0.23956522E+03</pdfrwt>
<totfact> 0.69862825E+03</totfact>
</mgrwt>
</event>
<event>
 4    0  0.1034081E-001  0.2453222E+03  0.7546771E-02  0.1116297E+00
         21   -1    0    0  503  501  0.00000000000E+00  0.00000000000E+00  0.12341846357E+04  0.12341846357E+04  0.00000000000E+00 0. -1.
         21   -1    0    0  501  502 -0.00000000000E+00 -0.00000000000E+00 -0.14645602912E+03  0.14645602912E+03  0.00000000000E+00 0. -1.
         25    1    1    2    0    0  0.72046018453E+02 -0.19841212560E+03  0.11375921750E+04  0.11637435099E+04  0.12500000000E+03 0.  0.
         21    1    1    2  503  502 -0.72046018453E+02  0.19841212560E+03 -0.49863568361E+02  0.21689715491E+03  0.00000000000E+00 0. -1.
<mgrwt>
<rscale>  3 0.24532224E+03</rscale>
<asrwt>0</asrwt>
<pdfrwt beam="1">  1       21 0.18987455E+00 0.24532224E+03</pdfrwt>
<pdfrwt beam="2">  1       21 0.22531698E-01 0.24532224E+03</pdfrwt>
<totfact> 0.27521800E+03</totfact>
</mgrwt>
</event>
<event>
 4    0  0.1244338E-001  0.2933963E+03  0.7546771E-02  0.1088589E+00
         21   -1    0    0  502  501  0.00000000000E+00  0.00000000000E+00  0.12885172047E+04  0.12885172047E+04  0.00000000000E+00 0. -1.
         21   -1    0    0  503  502 -0.00000000000E+00 -0.00000000000E+00 -0.69461253990E+02  0.69461253990E+02  0.00000000000E+00 0. -1.
         25    1    1    2    0    0  0.24501627761E+03  0.10209523823E+03  0.87849392647E+03  0.92619274064E+03  0.12500000000E+03 0.  0.
         21    1    1    2  503  501 -0.24501627761E+03 -0.10209523823E+03  0.34056202426E+03  0.43178571808E+03  0.00000000000E+00 0. -1.
<mgrwt>
<rscale>  3 0.29339634E+03</rscale>
<asrwt>0</asrwt>
<pdfrwt beam="1">  1       21 0.19823340E+00 0.29339634E+03</pdfrwt>
<pdfrwt beam="2">  1       21 0.10686348E-01 0.29339634E+03</pdfrwt>
<totfact> 0.92703505E+03</totfact>
</mgrwt>
</event>
<event>
 4    0  0.1592256E-001  0.2570570E+03  0.7546771E-02  0.1108924E+00
         21   -1    0    0  502  501  0.00000000000E+00  0.00000000000E+00  0.31195236256E+03  0.31195236256E+03  0.00000000000E+00 0. -1.
         21   -1    0    0  503  502 -0.00000000000E+00 -0.00000000000E+00 -0.18593583530E+03  0.18593583530E+03  0.00000000000E+00 0. -1.
         25    1    1    2    0    0  0.10259306125E+03 -0.19981978427E+03  0.66590444409E+02  0.26554202999E+03  0.12500000000E+03 0.  0.
         21    1    1    2  503  501 -0.10259306125E+03  0.19981978427E+03  0.59426082849E+02  0.23234616787E+03  0.00000000000E+00 0. -1.
<mgrwt>
<rscale>  3 0.25705696E+03</rscale>
<asrwt>0</asrwt>
<pdfrwt beam="1">  1       21 0.47992671E-01 0.25705696E+03</pdfrwt>
<pdfrwt beam="2">  1       21 0.28605513E-01 0.25705696E+03</pdfrwt>
<totfact> 0.47132209E+04</totfact>
</mgrwt>
</event>
<event>
 4    0  0.1780249E-001  0.2574815E+03  0.7546771E-02  0.1108666E+00
         21   -1    0    0  502  501  0.00000000000E+00  0.00000000000E+00  0.85692215643E+03  0.85692215643E+03  0.00000000000E+00 0. -1.
         21   -1    0    0  503  502 -0.00000000000E+00 -0.00000000000E+00 -0.26141677137E+03  0.26141677137E+03  0.00000000000E+00 0.  1.
         25    1    1    2    0    0 -0.53181561980E+01  0.22504094186E+03  0.78371019260E+03  0.82492325357E+03  0.12500000000E+03 0.  0.
         21    1    1    2  503  501  0.53181561980E+01 -0.22504094186E+03 -0.18820480754E+03  0.29341567422E+03  0.00000000000E+00 0.  1.
<mgrwt>
<rscale>  3 0.25748147E+03</rscale>
<asrwt>0</asrwt>
<pdfrwt beam="1">  1       21 0.13183418E+00 0.25748147E+03</pdfrwt>
<pdfrwt beam="2">  1       21 0.40217965E-01 0.25748147E+03</pdfrwt>
<totfact> 0.23591620E+03</totfact>
</mgrwt>
</event>
<event>
 4    0  0.1092211E-001  0.3712499E+03  0.7546771E-02  0.1054216E+00
         21   -1    0    0  503  501  0.00000000000E+00  0.00000000000E+00  0.11564039918E+04  0.11564039918E+04  0.00000000000E+00 0. -1.
         21   -1    0    0  501  502 -0.00000000000E+00 -0.00000000000E+00 -0.18176801057E+03  0.18176801057E+03  0.00000000000E+00 0. -1.
         25    1    1    2    0    0 -0.47818734777E+02  0.34628723931E+03  0.90980876778E+03  0.98263852837E+03  0.12500000000E+03 0.  0.
         21    1    1    2  503  502  0.47818734777E+02 -0.34628723931E+03  0.64827213419E+02  0.35553347396E+03  0.00000000000E+00 0. -1.
<mgrwt>
<rscale>  3 0.37124989E+03</rscale>
<asrwt>0</asrwt>
<pdfrwt beam="1">  1       21 0.17790830E+00 0.37124989E+03</pdfrwt>
<pdfrwt beam="2">  1       21 0.27964310E-01 0.37124989E+03</pdfrwt>
<totfact> 0.20245312E+03</totfact>
</mgrwt>
</event>
<event>
 4    0  0.1003929E-001  0.2815550E+03  0.7546771E-02  0.1094843E+00
         21   -1    0    0  503  501  0.00000000000E+00  0.00000000000E+00  0.50955769232E+03  0.50955769232E+03  0.00000000000E+00 0.  1.
         21   -1    0    0  501  502 -0.00000000000E+00 -0.00000000000E+00 -0.14739490046E+03  0.14739490046E+03  0.00000000000E+00 0. -1.
         25    1    1    2    0    0  0.56869539341E+02  0.24579280105E+03  0.26485585634E+03  0.38655125170E+03  0.12500000000E+03 0.  0.
         21    1    1    2  503  502 -0.56869539341E+02 -0.24579280105E+03  0.97306935519E+02  0.27040134107E+03  0.00000000000E+00 0. -1.
<mgrwt>
<rscale>  3 0.28155505E+03</rscale>
<asrwt>0</asrwt>
<pdfrwt beam="1">  1       21 0.78393490E-01 0.28155505E+03</pdfrwt>
<pdfrwt beam="2">  1       21 0.22676139E-01 0.28155505E+03</pdfrwt>
<totfact> 0.25118305E+04</totfact>
</mgrwt>
</event>
<event>
 4    0  0.1574182E-001  0.2901395E+03  0.7546771E-02  0.1090276E+00
         21   -1    0    0  502  501  0.00000000000E+00  0.00000000000E+00  0.29698085873E+03  0.29698085873E+03  0.00000000000E+00 0. -1.
         21   -1    0    0  503  502 -0.00000000000E+00 -0.00000000000E+00 -0.64345255449E+03  0.64345255449E+03  0.00000000000E+00 0.  1.
         25    1    1    2    0    0  0.14520712539E+03 -0.21787794257E+03  0.18768730736E+03  0.34555380546E+03  0.12500000000E+03 0.  0.
         21    1    1    2  503  501 -0.14520712539E+03  0.21787794257E+03 -0.53415900311E+03  0.59487960776E+03  0.00000000000E+00 0.  1.
<mgrwt>
<rscale>  3 0.29013946E+03</rscale>
<asrwt>0</asrwt>
<pdfrwt beam="1">  1       21 0.45689363E-01 0.29013946E+03</pdfrwt>
<pdfrwt beam="2">  1       21 0.98992700E-01 0.29013946E+03</pdfrwt>
<totfact> 0.36112816E+03</totfact>
</mgrwt>
</event>
<event>
 4    0  0.1003929E-001  0.6075712E+03  0.7546771E-02  0.9889822E-01
         21   -1    0    0  502  501  0.00000000000E+00  0.00000000000E+00  0.24679721495E+03  0.24679721495E+03  0.00000000000E+00 0. -1.
         21   -1    0    0  503  502 -0.00000000000E+00 -0.00000000000E+00 -0.17595342503E+04  0.17595342503E+04  0.00000000000E+00 0. -1.
         25    1    1    2    0    0  0.41915269530E+03  0.42169751057E+03 -0.35199867585E+03  0.70217222972E+03  0.12500000000E+03 0.  0.
         21    1    1    2  503  501 -0.41915269530E+03 -0.42169751057E+03 -0.11607383595E+04  0.13041592355E+04  0.00000000000E+00 0. -1.
<mgrwt>
<rscale>  3 0.60757121E+03</rscale>
<asrwt>0</asrwt>
<pdfrwt beam="1">  1       21 0.37968804E-01 0.60757121E+03</pdfrwt>
<pdfrwt beam="2">  1       21 0.27069757E+00 0.60757121E+03</pdfrwt>
<totfact> 0.24816055E+02</totfact>
</mgrwt>
</event>
<event>
 4    0  0.1157707E-001  0.2819594E+03  0.7546771E-02  0.1094624E+00
         21   -1    0    0  502  501  0.00000000000E+00  0.00000000000E+00  0.71016090452E+03  0.71016090452E+03  0.00000000000E+00 0. -1.
         21   -1    0    0  503  502 -0.00000000000E+00 -0.00000000000E+00 -0.36423649038E+03  0.36423649038E+03  0.00000000000E+00 0. -1.
         25    1    1    2    0    0 -0.25209503689E+03 -0.18005704619E+02  0.63237670676E+03  0.69238819479E+03  0.12500000000E+03 0.  0.
         21    1    1    2  503  501  0.25209503689E+03  0.18005704619E+02 -0.28645229262E+03  0.38200920011E+03  0.00000000000E+00 0. -1.
<mgrwt>
<rscale>  3 0.28195942E+03</rscale>
<asrwt>0</asrwt>
<pdfrwt beam="1">  1       21 0.10925552E+00 0.28195942E+03</pdfrwt>
<pdfrwt beam="2">  1       21 0.56036383E-01 0.28195942E+03</pdfrwt>
<totfact> 0.18573806E+03</totfact>
</mgrwt>
</event>
<event>
 4    0  0.1003929E-001  0.2374670E+03  0.7546771E-02  0.1121492E+00
         21   -1    0    0  502  501  0.00000000000E+00  0.00000000000E+00  0.55164788244E+02  0.55164788244E+02  0.00000000000E+00 0. -1.
         21   -1    0    0  503  502 -0.00000000000E+00 -0.00000000000E+00 -0.15478309639E+04  0.15478309639E+04  0.00000000000E+00 0. -1.
         25    1    1    2    0    0 -0.18700273322E+03 -0.76128603372E+02 -0.13079863785E+04  0.13293678772E+04  0.12500000000E+03 0.  0.
         21    1    1    2  503  501  0.18700273322E+03  0.76128603372E+02 -0.18467979711E+03  0.27362787494E+03  0.00000000000E+00 0. -1.
<mgrwt>
<rscale>  3 0.23746702E+03</rscale>
<asrwt>0</asrwt>
<pdfrwt beam="1">  1       21 0.84868915E-02 0.23746702E+03</pdfrwt>
<pdfrwt beam="2">  1       21 0.23812781E+00 0.23746702E+03</pdfrwt>
<totfact> 0.81365582E+03</totfact>
</mgrwt>
</event>
<event>
 4    0  0.1088686E-001  0.2495507E+03  0.7546771E-02  0.1113589E+00
         21   -1    0    0  503  501  0.00000000000E+00  0.00000000000E+00  0.12729051230E+03  0.12729051230E+03  0.00000000000E+00 0.  1.
         21   -1    0    0  501  502 -0.00000000000E+00 -0.00000000000E+00 -0.46528753277E+03  0.46528753277E+03  0.00000000000E+00 0.  1.
         25    1    1    2    0    0 -0.10413467982E+03  0.18922607226E+03 -0.26641555619E+03  0.36503806178E+03  0.12500000000E+03 0.  0.
         21    1    1    2  503  502  0.10413467982E+03 -0.18922607226E+03 -0.71581464277E+02  0.22753998328E+03  0.00000000000E+00 0.  1.
<mgrwt>
<rscale>  3 0.24955067E+03</rscale>
<asrwt>0</asrwt>
<pdfrwt beam="1">  1       21 0.19583156E-01 0.24955067E+03</pdfrwt>
<pdfrwt beam="2">  1       21 0.71582696E-01 0.24955067E+03</pdfrwt>
<totfact> 0.41218576E+04</totfact>
</mgrwt>
</event>
<event>
 4    0  0.1157507E-001  0.2407858E+03  0.7546771E-02  0.1119270E+00
         21   -1    0    0  503  501  0.00000000000E+00  0.00000000000E+00  0.28343090737E+03  0.28343090737E+03  0.00000000000E+00 0. -1.
         21   -1    0    0  501  502 -0.00000000000E+00 -0.00000000000E+00 -0.63675768426E+03  0.63675768426E+03  0.00000000000E+00 0. -1.
         25    1    1    2    0    0  0.56023274716E+02 -0.19802579005E+03  0.21059536105E+03  0.31988783493E+03  0.12500000000E+03 0.  0.
         21    1    1    2  503  502 -0.56023274716E+02  0.19802579005E+03 -0.56392213794E+03  0.60030075670E+03  0.00000000000E+00 0. -1.
<mgrwt>
<rscale>  3 0.24078584E+03</rscale>
<asrwt>0</asrwt>
<pdfrwt beam="1">  1       21 0.43604755E-01 0.24078584E+03</pdfrwt>
<pdfrwt beam="2">  1       21 0.97962720E-01 0.24078584E+03</pdfrwt>
<totfact> 0.42024730E+03</totfact>
</mgrwt>
</event>
<event>
 4    0  0.1160757E-001  0.2373172E+03  0.7546771E-02  0.1121593E+00
         21   -1    0    0  503  501  0.00000000000E+00  0.00000000000E+00  0.14773561069E+04  0.14773561069E+04  0.00000000000E+00 0. -1.
         21   -1    0    0  501  502 -0.00000000000E+00 -0.00000000000E+00 -0.63845228128E+02  0.63845228128E+02  0.00000000000E+00 0.  1.
         25    1    1    2    0    0 -0.18563670475E+03 -0.78952177153E+02  0.12740379650E+04  0.12959522247E+04  0.12500000000E+03 0.  0.
         21    1    1    2  503  502  0.18563670475E+03  0.78952177153E+02  0.13947291370E+03  0.24524911026E+03  0.00000000000E+00 0.  1.
<mgrwt>
<rscale>  3 0.23731716E+03</rscale>
<asrwt>0</asrwt>
<pdfrwt beam="1">  1       21 0.22728553E+00 0.23731716E+03</pdfrwt>
<pdfrwt beam="2">  1       21 0.98223439E-02 0.23731716E+03</pdfrwt>
<totfact> 0.73184923E+03</totfact>
</mgrwt>
</event>
<event>
 4    0  0.1440688E-001  0.2601486E+03  0.7546771E-02  0.1107054E+00
         21   -1    0    0  503  501  0.00000000000E+00  0.00000000000E+00  0.90983484133E+02  0.90983484133E+02  0.00000000000E+00 0. -1.
         21   -1    0    0  501  502 -0.00000000000E+00 -0.00000000000E+00 -0.81054367170E+03  0.81054367170E+03  0.00000000000E+00 0. -1.
         25    1    1    2    0    0 -0.12536946763E+03  0.19061690132E+03 -0.18181878687E+03  0.31738837052E+03  0.12500000000E+03 0.  0.
         21    1    1    2  503  502  0.12536946763E+03 -0.19061690132E+03 -0.53774140070E+03  0.58413878531E+03  0.00000000000E+00 0. -1.
<mgrwt>
<rscale>  3 0.26014862E+03</rscale>
<asrwt>0</asrwt>
<pdfrwt beam="1">  1       21 0.13997459E-01 0.26014862E+03</pdfrwt>
<pdfrwt beam="2">  1       21 0.12469903E+00 0.26014862E+03</pdfrwt>
<totfact> 0.20542547E+04</totfact>
</mgrwt>
</event>
<event>
 4    0  0.1003929E-001  0.3052531E+03  0.7546771E-02  0.1082644E+00
         21   -1    0    0  503  501  0.00000000000E+00  0.00000000000E+00  0.43561289079E+03  0.43561289079E+03  0.00000000000E+00 0.  1.
         21   -1    0    0  501  502 -0.00000000000E+00 -0.00000000000E+00 -0.22593099402E+03  0.22593099402E+03  0.00000000000E+00 0. -1.
         25    1    1    2    0    0  0.52728287268E+02  0.27344872337E+03  0.23016915985E+03  0.38230526904E+03  0.12500000000E+03 0.  0.
         21    1    1    2  503  502 -0.52728287268E+02 -0.27344872337E+03 -0.20487263074E+02  0.27923861577E+03  0.00000000000E+00 0. -1.
<mgrwt>
<rscale>  3 0.30525314E+03</rscale>
<asrwt>0</asrwt>
<pdfrwt beam="1">  1       21 0.67017368E-01 0.30525314E+03</pdfrwt>
<pdfrwt beam="2">  1       21 0.34758615E-01 0.30525314E+03</pdfrwt>
<totfact> 0.15348225E+04</totfact>
</mgrwt>
</event>
<event>
 4    0  0.1428154E-001  0.2549647E+03  0.7546771E-02  0.1110207E+00
         21   -1    0    0  503  501  0.00000000000E+00  0.00000000000E+00  0.52201714551E+03  0.52201714551E+03  0.00000000000E+00 0.  1.
         21   -1    0    0  501  502 -0.00000000000E+00 -0.00000000000E+00 -0.20785509750E+03  0.20785509750E+03  0.00000000000E+00 0. -1.
         25    1    1    2    0    0 -0.12414005637E+03  0.18431291916E+03  0.41403293386E+03  0.48624096504E+03  0.12500000000E+03 0.  0.
         21    1    1    2  503  502  0.12414005637E+03 -0.18431291916E+03 -0.99870885854E+02  0.24363127797E+03  0.00000000000E+00 0. -1.
<mgrwt>
<rscale>  3 0.25496471E+03</rscale>
<asrwt>0</asrwt>
<pdfrwt beam="1">  1       21 0.80310330E-01 0.25496471E+03</pdfrwt>
<pdfrwt beam="2">  1       21 0.31977707E-01 0.25496471E+03</pdfrwt>
<totfact> 0.12353475E+04</totfact>
</mgrwt>
</event>
<event>
 4    0  0.1172331E-001  0.2560969E+03  0.7546771E-02  0.1109511E+00
         21   -1    0    0  502  501  0.00000000000E+00  0.00000000000E+00  0.29968864331E+03  0.29968864331E+03  0.00000000000E+00 0.  1.
         21   -1    0    0  503  502 -0.00000000000E+00 -0.00000000000E+00 -0.48345463408E+03  0.48345463408E+03  0.00000000000E+00 0.  1.
         25    1    1    2    0    0  0.12658370366E+03 -0.18422053356E+03  0.20944928237E+03  0.33083929770E+03  0.12500000000E+03 0.  0.
         21    1    1    2  503  501 -0.12658370366E+03  0.18422053356E+03 -0.39321527314E+03  0.45230397970E+03  0.00000000000E+00 0.  1.
<mgrwt>
<rscale>  3 0.25609693E+03</rscale>
<asrwt>0</asrwt>
<pdfrwt beam="1">  1       21 0.46105945E-01 0.25609693E+03</pdfrwt>
<pdfrwt beam="2">  1       21 0.74377636E-01 0.25609693E+03</pdfrwt>
<totfact> 0.70037296E+03</totfact>
</mgrwt>
</event>
<event>
 4    0  0.1187021E-001  0.3452263E+03  0.7546771E-02  0.1064592E+00
         21   -1    0    0  503  501  0.00000000000E+00  0.00000000000E+00  0.39064372496E+03  0.39064372496E+03  0.00000000000E+00 0. -1.
         21   -1    0    0  501  502 -0.00000000000E+00 -0.00000000000E+00 -0.53962856212E+03  0.53962856212E+03  0.00000000000E+00 0. -1.
         25    1    1    2    0    0  0.31139754540E+03  0.81164962723E+02  0.24369816152E+03  0.42257540911E+03  0.12500000000E+03 0.  0.
         21    1    1    2  503  502 -0.31139754540E+03 -0.81164962723E+02 -0.39268299868E+03  0.50769687798E+03  0.00000000000E+00 0. -1.
<mgrwt>
<rscale>  3 0.34522628E+03</rscale>
<asrwt>0</asrwt>
<pdfrwt beam="1">  1       21 0.60099035E-01 0.34522628E+03</pdfrwt>
<pdfrwt beam="2">  1       21 0.83019779E-01 0.34522628E+03</pdfrwt>
<totfact> 0.29638192E+03</totfact>
</mgrwt>
</event>
<event>
 4    0  0.1402290E-001  0.3174095E+03  0.7546771E-02  0.1076848E+00
         21   -1    0    0  502  501  0.00000000000E+00  0.00000000000E+00  0.56621613173E+03  0.56621613173E+03  0.00000000000E+00 0.  1.
         21   -1    0    0  503  502 -0.00000000000E+00 -0.00000000000E+00 -0.16476447152E+03  0.16476447152E+03  0.00000000000E+00 0.  1.
         25    1    1    2    0    0 -0.27061442215E+03 -0.10904876290E+03  0.23640588350E+03  0.39577334412E+03  0.12500000000E+03 0.  0.
         21    1    1    2  503  501  0.27061442215E+03  0.10904876290E+03  0.16504577671E+03  0.33520725913E+03  0.00000000000E+00 0.  1.
<mgrwt>
<rscale>  3 0.31740951E+03</rscale>
<asrwt>0</asrwt>
<pdfrwt beam="1">  1       21 0.87110173E-01 0.31740951E+03</pdfrwt>
<pdfrwt beam="2">  1       21 0.25348380E-01 0.31740951E+03</pdfrwt>
<totfact> 0.15680478E+04</totfact>
</mgrwt>
</event>
<event>
 4    0  0.1132848E-001  0.3398842E+03  0.7546771E-02  0.1066845E+00
         21   -1    0    0  502  501  0.00000000000E+00  0.00000000000E+00  0.16564615507E+03  0.16564615507E+03  0.00000000000E+00 0.  1.
         21   -1    0    0  503  502 -0.00000000000E+00 -0.00000000000E+00 -0.10584815493E+04  0.10584815493E+04  0.00000000000E+00 0.  1.
         25    1    1    2    0    0 -0.16949113190E+03 -0.26677527155E+03 -0.76002358854E+02  0.34827811854E+03  0.12500000000E+03 0.  0.
         21    1    1    2  503  501  0.16949113190E+03  0.26677527155E+03 -0.81683303540E+03  0.87584958585E+03  0.00000000000E+00 0.  1.
<mgrwt>
<rscale>  3 0.33988423E+03</rscale>
<asrwt>0</asrwt>
<pdfrwt beam="1">  1       21 0.25484024E-01 0.33988423E+03</pdfrwt>
<pdfrwt beam="2">  1       21 0.16284331E+00 0.33988423E+03</pdfrwt>
<totfact> 0.31661069E+03</totfact>
</mgrwt>
</event>
<event>
 4    0  0.1003929E-001  0.3391831E+03  0.7546771E-02  0.1067144E+00
         21   -1    0    0  503  501  0.00000000000E+00  0.00000000000E+00  0.57015666875E+03  0.57015666875E+03  0.00000000000E+00 0.  1.
         21   -1    0    0  501  502 -0.00000000000E+00 -0.00000000000E+00 -0.19028440057E+03  0.19028440057E+03  0.00000000000E+00 0. -1.
         25    1    1    2    0    0 -0.22310270752E+03  0.22281236966E+03  0.23996490919E+03  0.41548565297E+03  0.12500000000E+03 0.  0.
         21    1    1    2  503  502  0.22310270752E+03 -0.22281236966E+03  0.13990735898E+03  0.34495541636E+03  0.00000000000E+00 0. -1.
<mgrwt>
<rscale>  3 0.33918309E+03</rscale>
<asrwt>0</asrwt>
<pdfrwt beam="1">  1       21 0.87716410E-01 0.33918309E+03</pdfrwt>
<pdfrwt beam="2">  1       21 0.29274523E-01 0.33918309E+03</pdfrwt>
<totfact> 0.11548146E+04</totfact>
</mgrwt>
</event>
<event>
 4    0  0.1003929E-001  0.2410462E+03  0.7546771E-02  0.1119098E+00
         21   -1    0    0  502  501  0.00000000000E+00  0.00000000000E+00  0.91261818531E+03  0.91261818531E+03  0.00000000000E+00 0.  1.
         21   -1    0    0  503  502 -0.00000000000E+00 -0.00000000000E+00 -0.73052245468E+02  0.73052245468E+02  0.00000000000E+00 0. -1.
         25    1    1    2    0    0  0.14815890081E+03  0.14327326893E+03  0.69035021875E+03  0.73122275266E+03  0.12500000000E+03 0.  0.
         21    1    1    2  503  501 -0.14815890081E+03 -0.14327326893E+03  0.14921572109E+03  0.25444767811E+03  0.00000000000E+00 0. -1.
<mgrwt>
<rscale>  3 0.24104624E+03</rscale>
<asrwt>0</asrwt>
<pdfrwt beam="1">  1       21 0.14040279E+00 0.24104624E+03</pdfrwt>
<pdfrwt beam="2">  1       21 0.11238808E-01 0.24104624E+03</pdfrwt>
<totfact> 0.22760322E+04</totfact>
</mgrwt>
</event>
<event>
 4    0  0.1212147E-001  0.2505673E+03  0.7546771E-02  0.1112947E+00
         21   -1    0    0  502  501  0.00000000000E+00  0.00000000000E+00  0.41541130309E+02  0.41541130309E+02  0.00000000000E+00 0. -1.
         21   -1    0    0  503  502 -0.00000000000E+00 -0.00000000000E+00 -0.13205450259E+04  0.13205450259E+04  0.00000000000E+00 0. -1.
         25    1    1    2    0    0  0.16736345536E+03 -0.13837793944E+03 -0.64784649752E+03  0.69461432800E+03  0.12500000000E+03 0.  0.
         21    1    1    2  503  501 -0.16736345536E+03  0.13837793944E+03 -0.63115739805E+03  0.66747182819E+03  0.00000000000E+00 0. -1.
<mgrwt>
<rscale>  3 0.25056732E+03</rscale>
<asrwt>0</asrwt>
<pdfrwt beam="1">  1       21 0.63909429E-02 0.25056732E+03</pdfrwt>
<pdfrwt beam="2">  1       21 0.20316078E+00 0.25056732E+03</pdfrwt>
<totfact> 0.21800301E+04</totfact>
</mgrwt>
</event>
<event>
 4    0  0.1003929E-001  0.2433111E+03  0.7546771E-02  0.1117607E+00
         21   -1    0    0  502  501  0.00000000000E+00  0.00000000000E+00  0.24255652038E+03  0.24255652038E+03  0.00000000000E+00 0. -1.
         21   -1    0    0  503  502 -0.00000000000E+00 -0.00000000000E+00 -0.22803408004E+03  0.22803408004E+03  0.00000000000E+00 0.  1.
         25    1    1    2    0    0 -0.10200577868E+03 -0.18212666828E+03  0.72606318471E+02  0.25391333101E+03  0.12500000000E+03 0.  0.
         21    1    1    2  503  501  0.10200577868E+03  0.18212666828E+03 -0.58083878136E+02  0.21667726942E+03  0.00000000000E+00 0.  1.
<mgrwt>
<rscale>  3 0.24331112E+03</rscale>
<asrwt>0</asrwt>
<pdfrwt beam="1">  1       21 0.37316388E-01 0.24331112E+03</pdfrwt>
<pdfrwt beam="2">  1       21 0.35082166E-01 0.24331112E+03</pdfrwt>
<totfact> 0.53044983E+04</totfact>
</mgrwt>
</event>
<event>
 4    0  0.1402257E-001  0.2469118E+03  0.7546771E-02  0.1115272E+00
         21   -1    0    0  503  501  0.00000000000E+00  0.00000000000E+00  0.67275415922E+03  0.67275415922E+03  0.00000000000E+00 0. -1.
         21   -1    0    0  501  502 -0.00000000000E+00 -0.00000000000E+00 -0.93596712047E+02  0.93596712047E+02  0.00000000000E+00 0. -1.
         25    1    1    2    0    0 -0.14147375790E+03  0.15914020349E+03  0.46067744253E+03  0.52267497988E+03  0.12500000000E+03 0.  0.
         21    1    1    2  503  502  0.14147375790E+03 -0.15914020349E+03  0.11848000465E+03  0.24367589139E+03  0.00000000000E+00 0. -1.
<mgrwt>
<rscale>  3 0.24691178E+03</rscale>
<asrwt>0</asrwt>
<pdfrwt beam="1">  1       21 0.10350064E+00 0.24691178E+03</pdfrwt>
<pdfrwt beam="2">  1       21 0.14399495E-01 0.24691178E+03</pdfrwt>
<totfact> 0.31058917E+04</totfact>
</mgrwt>
</event>
<event>
 4    0  0.1236610E-001  0.2505927E+03  0.7546771E-02  0.1112931E+00
         21   -1    0    0  502  501  0.00000000000E+00  0.00000000000E+00  0.77194019818E+02  0.77194019818E+02  0.00000000000E+00 0.  1.
         21   -1    0    0  503  502 -0.00000000000E+00 -0.00000000000E+00 -0.71866534289E+03  0.71866534289E+03  0.00000000000E+00 0.  1.
         25    1    1    2    0    0 -0.65856852020E+02  0.20696519846E+03 -0.39012416517E+03  0.46367400464E+03  0.12500000000E+03 0.  0.
         21    1    1    2  503  501  0.65856852020E+02 -0.20696519846E+03 -0.25134715791E+03  0.33218535807E+03  0.00000000000E+00 0.  1.
<mgrwt>
<rscale>  3 0.25059273E+03</rscale>
<asrwt>0</asrwt>
<pdfrwt beam="1">  1       21 0.11876003E-01 0.25059273E+03</pdfrwt>
<pdfrwt beam="2">  1       21 0.11056390E+00 0.25059273E+03</pdfrwt>
<totfact> 0.37450909E+04</totfact>
</mgrwt>
</event>
<event>
 4    0  0.1102834E-001  0.3513418E+03  0.7546771E-02  0.1062066E+00
         21   -1    0    0  503  501  0.00000000000E+00  0.00000000000E+00  0.11747023935E+04  0.11747023935E+04  0.00000000000E+00 0.  1.
         21   -1    0    0  501  502 -0.00000000000E+00 -0.00000000000E+00 -0.14451377452E+03  0.14451377452E+03  0.00000000000E+00 0.  1.
         25    1    1    2    0    0 -0.32817056966E+03 -0.10959808661E+02  0.89972909036E+03  0.96589516835E+03  0.12500000000E+03 0.  0.
         21    1    1    2  503  502  0.32817056966E+03  0.10959808661E+02  0.13045952861E+03  0.35332099967E+03  0.00000000000E+00 0.  1.
<mgrwt>
<rscale>  3 0.35134177E+03</rscale>
<asrwt>0</asrwt>
<pdfrwt beam="1">  1       21 0.18072344E+00 0.35134177E+03</pdfrwt>
<pdfrwt beam="2">  1       21 0.22232889E-01 0.35134177E+03</pdfrwt>
<totfact> 0.30473257E+03</totfact>
</mgrwt>
</event>
<event>
 4    0  0.1281626E-001  0.2507517E+03  0.7546771E-02  0.1112831E+00
         21   -1    0    0  502  501  0.00000000000E+00  0.00000000000E+00  0.10417513857E+03  0.10417513857E+03  0.00000000000E+00 0.  1.
         21   -1    0    0  503  502 -0.00000000000E+00 -0.00000000000E+00 -0.56832456385E+03  0.56832456385E+03  0.00000000000E+00 0.  1.
         25    1    1    2    0    0 -0.16313225459E+03  0.14366376950E+03 -0.15572988679E+03  0.29517487832E+03  0.12500000000E+03 0.  0.
         21    1    1    2  503  501  0.16313225459E+03 -0.14366376950E+03 -0.30841953849E+03  0.37732482409E+03  0.00000000000E+00 0.  1.
<mgrwt>
<rscale>  3 0.25075169E+03</rscale>
<asrwt>0</asrwt>
<pdfrwt beam="1">  1       21 0.16026944E-01 0.25075169E+03</pdfrwt>
<pdfrwt beam="2">  1       21 0.87434550E-01 0.25075169E+03</pdfrwt>
<totfact> 0.37949237E+04</totfact>
</mgrwt>
</event>
<event>
 4    0  0.1059038E-001  0.2866536E+03  0.7546771E-02  0.1092109E+00
         21   -1    0    0  503  501  0.00000000000E+00  0.00000000000E+00  0.50758177605E+03  0.50758177605E+03  0.00000000000E+00 0.  1.
         21   -1    0    0  501  502 -0.00000000000E+00 -0.00000000000E+00 -0.53545448847E+03  0.53545448847E+03  0.00000000000E+00 0.  1.
         25    1    1    2    0    0 -0.19093180662E+03 -0.17346572036E+03  0.43041524977E+03  0.51713402340E+03  0.12500000000E+03 0.  0.
         21    1    1    2  503  502  0.19093180662E+03  0.17346572036E+03 -0.45828796220E+03  0.52590224112E+03  0.00000000000E+00 0.  1.
<mgrwt>
<rscale>  3 0.28665364E+03</rscale>
<asrwt>0</asrwt>
<pdfrwt beam="1">  1       21 0.78089504E-01 0.28665364E+03</pdfrwt>
<pdfrwt beam="2">  1       21 0.82377614E-01 0.28665364E+03</pdfrwt>
<totfact> 0.17394578E+03</totfact>
</mgrwt>
</event>
<event>
 4    0  0.1172363E-001  0.2414968E+03  0.7546771E-02  0.1118800E+00
         21   -1    0    0  503  501  0.00000000000E+00  0.00000000000E+00  0.55023567870E+02  0.55023567870E+02  0.00000000000E+00 0.  1.
         21   -1    0    0  501  502 -0.00000000000E+00 -0.00000000000E+00 -0.93109291263E+03  0.93109291263E+03  0.00000000000E+00 0.  1.
         25    1    1    2    0    0  0.12326616167E+03 -0.16583473118E+03 -0.54106150441E+03  0.59251013176E+03  0.12500000000E+03 0.  0.
         21    1    1    2  503  502 -0.12326616167E+03  0.16583473118E+03 -0.33500784035E+03  0.39360634874E+03  0.00000000000E+00 0.  1.
<mgrwt>
<rscale>  3 0.24149680E+03</rscale>
<asrwt>0</asrwt>
<pdfrwt beam="1">  1       21 0.84651641E-02 0.24149680E+03</pdfrwt>
<pdfrwt beam="2">  1       21 0.14324507E+00 0.24149680E+03</pdfrwt>
<totfact> 0.35687291E+04</totfact>
</mgrwt>
</event>
<event>
 4    0  0.1483611E-001  0.3660229E+03  0.7546771E-02  0.1056224E+00
         21   -1    0    0  502  501  0.00000000000E+00  0.00000000000E+00  0.38580400083E+03  0.38580400083E+03  0.00000000000E+00 0.  1.
         21   -1    0    0  503  502 -0.00000000000E+00 -0.00000000000E+00 -0.33046154002E+03  0.33046154002E+03  0.00000000000E+00 0.  1.
         25    1    1    2    0    0 -0.29432505871E+03  0.17810250277E+03 -0.97111906536E+01  0.36615167472E+03  0.12500000000E+03 0.  0.
         21    1    1    2  503  501  0.29432505871E+03 -0.17810250277E+03  0.65053651461E+02  0.35011386612E+03  0.00000000000E+00 0.  1.
<mgrwt>
<rscale>  3 0.36602287E+03</rscale>
<asrwt>0</asrwt>
<pdfrwt beam="1">  1       21 0.59354462E-01 0.36602287E+03</pdfrwt>
<pdfrwt beam="2">  1       21 0.50840237E-01 0.36602287E+03</pdfrwt>
<totfact> 0.89332976E+03</totfact>
</mgrwt>
</event>
<event>
 4    0  0.1411705E-001  0.2365711E+03  0.7546771E-02  0.1122098E+00
         21   -1    0    0  503  501  0.00000000000E+00  0.00000000000E+00  0.17381618019E+03  0.17381618019E+03  0.00000000000E+00 0. -1.
         21   -1    0    0  501  502 -0.00000000000E+00 -0.00000000000E+00 -0.28137648326E+03  0.28137648326E+03  0.00000000000E+00 0. -1.
         25    1    1    2    0    0 -0.41479047914E+02 -0.19652061316E+03 -0.24467830703E+02  0.23783300350E+03  0.12500000000E+03 0.  0.
         21    1    1    2  503  502  0.41479047914E+02  0.19652061316E+03 -0.83092472368E+02  0.21735965996E+03  0.00000000000E+00 0. -1.
<mgrwt>
<rscale>  3 0.23657105E+03</rscale>
<asrwt>0</asrwt>
<pdfrwt beam="1">  1       21 0.26740951E-01 0.23657105E+03</pdfrwt>
<pdfrwt beam="2">  1       21 0.43288689E-01 0.23657105E+03</pdfrwt>
<totfact> 0.67043740E+04</totfact>
</mgrwt>
</event>
<event>
 4    0  0.1263430E-001  0.2928914E+03  0.7546771E-02  0.1088849E+00
         21   -1    0    0  503  501  0.00000000000E+00  0.00000000000E+00  0.67086624463E+03  0.67086624463E+03  0.00000000000E+00 0.  1.
         21   -1    0    0  501  502 -0.00000000000E+00 -0.00000000000E+00 -0.17161992789E+03  0.17161992789E+03  0.00000000000E+00 0.  1.
         25    1    1    2    0    0 -0.18330133219E+03  0.19120927269E+03  0.49783680425E+03  0.57760440442E+03  0.12500000000E+03 0.  0.
         21    1    1    2  503  502  0.18330133219E+03 -0.19120927269E+03  0.14095124957E+01  0.26488176810E+03  0.00000000000E+00 0.  1.
<mgrwt>
<rscale>  3 0.29289139E+03</rscale>
<asrwt>0</asrwt>
<pdfrwt beam="1">  1       21 0.10321019E+00 0.29289139E+03</pdfrwt>
<pdfrwt beam="2">  1       21 0.26403066E-01 0.29289139E+03</pdfrwt>
<totfact> 0.97926742E+03</totfact>
</mgrwt>
</event>
<event>
 4    0  0.1094703E-001  0.2738983E+03  0.7546771E-02  0.1099069E+00
         21   -1    0    0  503  501  0.00000000000E+00  0.00000000000E+00  0.17882689934E+04  0.17882689934E+04  0.00000000000E+00 0. -1.
         21   -1    0    0  501  502 -0.00000000000E+00 -0.00000000000E+00 -0.47288608168E+02  0.47288608168E+02  0.00000000000E+00 0. -1.
         25    1    1    2    0    0  0.41405189670E+02 -0.24016845197E+03  0.13286519706E+04  0.13565899653E+04  0.12500000000E+03 0.  0.
         21    1    1    2  503  502 -0.41405189670E+02  0.24016845197E+03  0.41232841468E+03  0.47896763628E+03  0.00000000000E+00 0. -1.
<mgrwt>
<rscale>  3 0.27389829E+03</rscale>
<asrwt>0</asrwt>
<pdfrwt beam="1">  1       21 0.27511826E+00 0.27389829E+03</pdfrwt>
<pdfrwt beam="2">  1       21 0.72751718E-02 0.27389829E+03</pdfrwt>
<totfact> 0.62441196E+03</totfact>
</mgrwt>
</event>
<event>
 4    0  0.1400321E-001  0.2851746E+03  0.7546771E-02  0.1092896E+00
         21   -1    0    0  503  501  0.00000000000E+00  0.00000000000E+00  0.92967016838E+02  0.92967016838E+02  0.00000000000E+00 0.  1.
         21   -1    0    0  501  502 -0.00000000000E+00 -0.00000000000E+00 -0.80449147976E+03  0.80449147976E+03  0.00000000000E+00 0.  1.
         25    1    1    2    0    0 -0.90076587476E+02  0.23997031963E+03 -0.31115285103E+03  0.42206710677E+03  0.12500000000E+03 0.  0.
         21    1    1    2  503  502  0.90076587476E+02 -0.23997031963E+03 -0.40037161189E+03  0.47539138983E+03  0.00000000000E+00 0.  1.
<mgrwt>
<rscale>  3 0.28517459E+03</rscale>
<asrwt>0</asrwt>
<pdfrwt beam="1">  1       21 0.14302618E-01 0.28517459E+03</pdfrwt>
<pdfrwt beam="2">  1       21 0.12376792E+00 0.28517459E+03</pdfrwt>
<totfact> 0.19890528E+04</totfact>
</mgrwt>
</event>
<event>
 4    0  0.1184328E-001  0.2906752E+03  0.7546771E-02  0.1089997E+00
         21   -1    0    0  502  501  0.00000000000E+00  0.00000000000E+00  0.18775525484E+03  0.18775525484E+03  0.00000000000E+00 0.  1.
         21   -1    0    0  503  502 -0.00000000000E+00 -0.00000000000E+00 -0.78706852972E+03  0.78706852972E+03  0.00000000000E+00 0.  1.
         25    1    1    2    0    0 -0.27454293948E+02  0.26098531084E+03  0.30746996560E+02  0.29229685001E+03  0.12500000000E+03 0.  0.
         21    1    1    2  503  501  0.27454293948E+02 -0.26098531084E+03 -0.63006027144E+03  0.68252693454E+03  0.00000000000E+00 0.  1.
<mgrwt>
<rscale>  3 0.29067520E+03</rscale>
<asrwt>0</asrwt>
<pdfrwt beam="1">  1       21 0.28885424E-01 0.29067520E+03</pdfrwt>
<pdfrwt beam="2">  1       21 0.12108747E+00 0.29067520E+03</pdfrwt>
<totfact> 0.55530914E+03</totfact>
</mgrwt>
</event>
<event>
 4    0  0.1372587E-001  0.2432928E+03  0.7546771E-02  0.1117619E+00
         21   -1    0    0  502  501  0.00000000000E+00  0.00000000000E+00  0.83802513338E+02  0.83802513338E+02  0.00000000000E+00 0.  1.
         21   -1    0    0  503  502 -0.00000000000E+00 -0.00000000000E+00 -0.60956341574E+03  0.60956341574E+03  0.00000000000E+00 0.  1.
         25    1    1    2    0    0  0.13222479071E+03  0.16150222172E+03 -0.28042071873E+03  0.37125078100E+03  0.12500000000E+03 0.  0.
         21    1    1    2  503  501 -0.13222479071E+03 -0.16150222172E+03 -0.24534018366E+03  0.32211514807E+03  0.00000000000E+00 0.  1.
<mgrwt>
<rscale>  3 0.24329275E+03</rscale>
<asrwt>0</asrwt>
<pdfrwt beam="1">  1       21 0.12892694E-01 0.24329275E+03</pdfrwt>
<pdfrwt beam="2">  1       21 0.93778987E-01 0.24329275E+03</pdfrwt>
<totfact> 0.48093467E+04</totfact>
</mgrwt>
</event>
<event>
 4    0  0.1224867E-001  0.2575567E+03  0.7546771E-02  0.1108620E+00
         21   -1    0    0  503  501  0.00000000000E+00  0.00000000000E+00  0.12137682734E+03  0.12137682734E+03  0.00000000000E+00 0. -1.
         21   -1    0    0  501  502 -0.00000000000E+00 -0.00000000000E+00 -0.10989242315E+04  0.10989242315E+04  0.00000000000E+00 0. -1.
         25    1    1    2    0    0 -0.62939358100E+02  0.21621541860E+03 -0.45636877381E+02  0.26156871873E+03  0.12500000000E+03 0.  0.
         21    1    1    2  503  502  0.62939358100E+02 -0.21621541860E+03 -0.93191052681E+03  0.95873234014E+03  0.00000000000E+00 0. -1.
<mgrwt>
<rscale>  3 0.25755673E+03</rscale>
<asrwt>0</asrwt>
<pdfrwt beam="1">  1       21 0.18673359E-01 0.25755673E+03</pdfrwt>
<pdfrwt beam="2">  1       21 0.16906526E+00 0.25755673E+03</pdfrwt>
<totfact> 0.54088042E+03</totfact>
</mgrwt>
</event>
<event>
 4    0  0.1163910E-001  0.2745906E+03  0.7546771E-02  0.1098681E+00
         21   -1    0    0  503  501  0.00000000000E+00  0.00000000000E+00  0.22612666978E+03  0.22612666978E+03  0.00000000000E+00 0.  1.
         21   -1    0    0  501  502 -0.00000000000E+00 -0.00000000000E+00 -0.67582751857E+03  0.67582751857E+03  0.00000000000E+00 0.  1.
         25    1    1    2    0    0 -0.77455956872E+02 -0.23189564707E+03  0.10639777563E+03  0.29448345122E+03  0.12500000000E+03 0.  0.
         21    1    1    2  503  502  0.77455956872E+02  0.23189564707E+03 -0.55609862441E+03  0.60747073712E+03  0.00000000000E+00 0.  1.
<mgrwt>
<rscale>  3 0.27459063E+03</rscale>
<asrwt>0</asrwt>
<pdfrwt beam="1">  1       21 0.34788718E-01 0.27459063E+03</pdfrwt>
<pdfrwt beam="2">  1       21 0.10397347E+00 0.27459063E+03</pdfrwt>
<totfact> 0.56407647E+03</totfact>
</mgrwt>
</event>
<event>
 4    0  0.1495975E-001  0.2777661E+03  0.7546771E-02  0.1096915E+00
         21   -1    0    0  503  501  0.00000000000E+00  0.00000000000E+00  0.44043317500E+03  0.44043317500E+03  0.00000000000E+00 0. -1.
         21   -1    0    0  501  502 -0.00000000000E+00 -0.00000000000E+00 -0.24123566709E+03  0.24123566709E+03  0.00000000000E+00 0. -1.
         25    1    1    2    0    0  0.13930882126E+03  0.20523658159E+03  0.30453030956E+03  0.41218043566E+03  0.12500000000E+03 0.  0.
         21    1    1    2  503  502 -0.13930882126E+03 -0.20523658159E+03 -0.10533280164E+03  0.26948840644E+03  0.00000000000E+00 0. -1.
<mgrwt>
<rscale>  3 0.27776609E+03</rscale>
<asrwt>0</asrwt>
<pdfrwt beam="1">  1       21 0.67758950E-01 0.27776609E+03</pdfrwt>
<pdfrwt beam="2">  1       21 0.37113180E-01 0.27776609E+03</pdfrwt>
<totfact> 0.13287892E+04</totfact>
</mgrwt>
</event>
<event>
 4    0  0.1633454E-001  0.2483581E+03  0.7546771E-02  0.1114347E+00
         21   -1    0    0  503  501  0.00000000000E+00  0.00000000000E+00  0.42310193173E+03  0.42310193173E+03  0.00000000000E+00 0. -1.
         21   -1    0    0  501  502 -0.00000000000E+00 -0.00000000000E+00 -0.31134485017E+03  0.31134485017E+03  0.00000000000E+00 0.  1.
         25    1    1    2    0    0 -0.84258700620E+02  0.19737579285E+03  0.34006959878E+03  0.42110457638E+03  0.12500000000E+03 0.  0.
         21    1    1    2  503  502  0.84258700620E+02 -0.19737579285E+03 -0.22831251723E+03  0.31334220552E+03  0.00000000000E+00 0.  1.
<mgrwt>
<rscale>  3 0.24835807E+03</rscale>
<asrwt>0</asrwt>
<pdfrwt beam="1">  1       21 0.65092605E-01 0.24835807E+03</pdfrwt>
<pdfrwt beam="2">  1       21 0.47899208E-01 0.24835807E+03</pdfrwt>
<totfact> 0.87341939E+03</totfact>
</mgrwt>
</event>
<event>
 4    0  0.1180171E-001  0.2362318E+03  0.7546771E-02  0.1122329E+00
         21   -1    0    0  503  501  0.00000000000E+00  0.00000000000E+00  0.76177766275E+03  0.76177766275E+03  0.00000000000E+00 0.  1.
         21   -1    0    0  501  502 -0.00000000000E+00 -0.00000000000E+00 -0.64080371080E+02  0.64080371080E+02  0.00000000000E+00 0.  1.
         25    1    1    2    0    0  0.15624274133E+03 -0.12557328318E+03  0.43971857555E+03  0.49915715897E+03  0.12500000000E+03 0.  0.
         21    1    1    2  503  502 -0.15624274133E+03  0.12557328318E+03  0.25797871612E+03  0.32670087486E+03  0.00000000000E+00 0.  1.
<mgrwt>
<rscale>  3 0.23623176E+03</rscale>
<asrwt>0</asrwt>
<pdfrwt beam="1">  1       21 0.11719656E+00 0.23623176E+03</pdfrwt>
<pdfrwt beam="2">  1       21 0.98585192E-02 0.23623176E+03</pdfrwt>
<totfact> 0.45564284E+04</totfact>
</mgrwt>
</event>
<event>
 4    0  0.1003929E-001  0.2808458E+03  0.7546771E-02  0.1095228E+00
         21   -1    0    0  503  501  0.00000000000E+00  0.00000000000E+00  0.48667935439E+02  0.48667935439E+02  0.00000000000E+00 0.  1.
         21   -1    0    0  501  502 -0.00000000000E+00 -0.00000000000E+00 -0.17405376193E+04  0.17405376193E+04  0.00000000000E+00 0.  1.
         25    1    1    2    0    0 -0.11695960799E+03 -0.22264274318E+03 -0.12463756862E+04  0.12776254115E+04  0.12500000000E+03 0.  0.
         21    1    1    2  503  502  0.11695960799E+03  0.22264274318E+03 -0.44549399766E+03  0.51158014322E+03  0.00000000000E+00 0.  1.
<mgrwt>
<rscale>  3 0.28084576E+03</rscale>
<asrwt>0</asrwt>
<pdfrwt beam="1">  1       21 0.74873746E-02 0.28084576E+03</pdfrwt>
<pdfrwt beam="2">  1       21 0.26777502E+00 0.28084576E+03</pdfrwt>
<totfact> 0.65277437E+03</totfact>
</mgrwt>
</event>
<event>
 4    0  0.1003929E-001  0.4770339E+03  0.7546771E-02  0.1019954E+00
         21   -1    0    0  502  501  0.00000000000E+00  0.00000000000E+00  0.55963970559E+03  0.55963970559E+03  0.00000000000E+00 0.  1.
         21   -1    0    0  503  502 -0.00000000000E+00 -0.00000000000E+00 -0.45226103484E+03  0.45226103484E+03  0.00000000000E+00 0. -1.
         25    1    1    2    0    0 -0.44194729768E+03 -0.12891454487E+03  0.23835264993E+03  0.53326668707E+03  0.12500000000E+03 0.  0.
         21    1    1    2  503  501  0.44194729768E+03  0.12891454487E+03 -0.13097397919E+03  0.47863405336E+03  0.00000000000E+00 0. -1.
<mgrwt>
<rscale>  3 0.47703393E+03</rscale>
<asrwt>0</asrwt>
<pdfrwt beam="1">  1       21 0.86098416E-01 0.47703393E+03</pdfrwt>
<pdfrwt beam="2">  1       21 0.69578621E-01 0.47703393E+03</pdfrwt>
<totfact> 0.18650858E+03</totfact>
</mgrwt>
</event>
<event>
 4    0  0.1244395E-001  0.2554244E+03  0.7546771E-02  0.1109924E+00
         21   -1    0    0  503  501  0.00000000000E+00  0.00000000000E+00  0.44058890495E+03  0.44058890495E+03  0.00000000000E+00 0. -1.
         21   -1    0    0  501  502 -0.00000000000E+00 -0.00000000000E+00 -0.15003593644E+03  0.15003593644E+03  0.00000000000E+00 0. -1.
         25    1    1    2    0    0 -0.44941917106E+02  0.21816700097E+03  0.45467082334E+02  0.25943953400E+03  0.12500000000E+03 0.  0.
         21    1    1    2  503  502  0.44941917106E+02 -0.21816700097E+03  0.24508588618E+03  0.33118530738E+03  0.00000000000E+00 0. -1.
<mgrwt>
<rscale>  3 0.25542438E+03</rscale>
<asrwt>0</asrwt>
<pdfrwt beam="1">  1       21 0.67782908E-01 0.25542438E+03</pdfrwt>
<pdfrwt beam="2">  1       21 0.23082452E-01 0.25542438E+03</pdfrwt>
<totfact> 0.34007037E+04</totfact>
</mgrwt>
</event>
<event>
 4    0  0.1003929E-001  0.2580161E+03  0.7546771E-02  0.1108341E+00
         21   -1    0    0  502  501  0.00000000000E+00  0.00000000000E+00  0.13084751509E+04  0.13084751509E+04  0.00000000000E+00 0.  1.
         21   -1    0    0  503  502 -0.00000000000E+00 -0.00000000000E+00 -0.52682101006E+02  0.52682101006E+02  0.00000000000E+00 0. -1.
         25    1    1    2    0    0 -0.17978271494E+03 -0.13647524558E+03  0.92776185981E+03  0.96297164329E+03  0.12500000000E+03 0.  0.
         21    1    1    2  503  501  0.17978271494E+03  0.13647524558E+03  0.32803119009E+03  0.39818560863E+03  0.00000000000E+00 0. -1.
<mgrwt>
<rscale>  3 0.25801612E+03</rscale>
<asrwt>0</asrwt>
<pdfrwt beam="1">  1       21 0.20130385E+00 0.25801612E+03</pdfrwt>
<pdfrwt beam="2">  1       21 0.81049396E-02 0.25801612E+03</pdfrwt>
<totfact> 0.14753511E+04</totfact>
</mgrwt>
</event>
<event>
 4    0  0.1466940E-001  0.2608749E+03  0.7546771E-02  0.1106619E+00
         21   -1    0    0  503  501  0.00000000000E+00  0.00000000000E+00  0.23064236185E+03  0.23064236185E+03  0.00000000000E+00 0. -1.
         21   -1    0    0  501  502 -0.00000000000E+00 -0.00000000000E+00 -0.26067436397E+03  0.26067436397E+03  0.00000000000E+00 0. -1.
         25    1    1    2    0    0 -0.10665450355E+03  0.20262163918E+03 -0.44316273907E+01  0.26091253537E+03  0.12500000000E+03 0.  0.
         21    1    1    2  503  502  0.10665450355E+03 -0.20262163918E+03 -0.25600374732E+02  0.23040419045E+03  0.00000000000E+00 0. -1.
<mgrwt>
<rscale>  3 0.26087490E+03</rscale>
<asrwt>0</asrwt>
<pdfrwt beam="1">  1       21 0.35483440E-01 0.26087490E+03</pdfrwt>
<pdfrwt beam="2">  1       21 0.40103748E-01 0.26087490E+03</pdfrwt>
<totfact> 0.44510694E+04</totfact>
</mgrwt>
</event>
<event>
 4    0  0.1286980E-001  0.2482222E+03  0.7546771E-02  0.1114434E+00
         21   -1    0    0  502  501  0.00000000000E+00  0.00000000000E+00  0.16905633840E+03  0.16905633840E+03  0.00000000000E+00 0. -1.
         21   -1    0    0  503  502 -0.00000000000E+00 -0.00000000000E+00 -0.71749507799E+03  0.71749507799E+03  0.00000000000E+00 0. -1.
         25    1    1    2    0    0 -0.20991627906E+03 -0.43868231507E+02  0.47920659952E+02  0.25280556877E+03  0.12500000000E+03 0.  0.
         21    1    1    2  503  501  0.20991627906E+03  0.43868231507E+02 -0.59635939954E+03  0.63374584762E+03  0.00000000000E+00 0. -1.
<mgrwt>
<rscale>  3 0.24822221E+03</rscale>
<asrwt>0</asrwt>
<pdfrwt beam="1">  1       21 0.26008667E-01 0.24822221E+03</pdfrwt>
<pdfrwt beam="2">  1       21 0.11038386E+00 0.24822221E+03</pdfrwt>
<totfact> 0.87660557E+03</totfact>
</mgrwt>
</event>
<event>
 4    0  0.1509483E-001  0.2660236E+03  0.7546771E-02  0.1103577E+00
         21   -1    0    0  503  501  0.00000000000E+00  0.00000000000E+00  0.14823013054E+03  0.14823013054E+03  0.00000000000E+00 0. -1.
         21   -1    0    0  501  502 -0.00000000000E+00 -0.00000000000E+00 -0.43824187249E+03  0.43824187249E+03  0.00000000000E+00 0. -1.
         25    1    1    2    0    0  0.12773803088E+03  0.19704452807E+03 -0.99279331261E+02  0.28394530493E+03  0.12500000000E+03 0.  0.
         21    1    1    2  503  502 -0.12773803088E+03 -0.19704452807E+03 -0.19073241069E+03  0.30252669810E+03  0.00000000000E+00 0. -1.
<mgrwt>
<rscale>  3 0.26602359E+03</rscale>
<asrwt>0</asrwt>
<pdfrwt beam="1">  1       21 0.22804636E-01 0.26602359E+03</pdfrwt>
<pdfrwt beam="2">  1       21 0.67421825E-01 0.26602359E+03</pdfrwt>
<totfact> 0.35059446E+04</totfact>
</mgrwt>
</event>
<event>
 4    0  0.1260526E-001  0.2402666E+03  0.7546771E-02  0.1119615E+00
         21   -1    0    0  503  501  0.00000000000E+00  0.00000000000E+00  0.12959061279E+04  0.12959061279E+04  0.00000000000E+00 0.  1.
         21   -1    0    0  501  502 -0.00000000000E+00 -0.00000000000E+00 -0.76632205978E+02  0.76632205978E+02  0.00000000000E+00 0. -1.
         25    1    1    2    0    0 -0.13906348793E+01 -0.20518553386E+03  0.11183552788E+04  0.11438734924E+04  0.12500000000E+03 0.  0.
         21    1    1    2  503  502  0.13906348793E+01  0.20518553386E+03  0.10091864314E+03  0.22866484142E+03  0.00000000000E+00 0. -1.
<mgrwt>
<rscale>  3 0.24026660E+03</rscale>
<asrwt>0</asrwt>
<pdfrwt beam="1">  1       21 0.19937016E+00 0.24026660E+03</pdfrwt>
<pdfrwt beam="2">  1       21 0.11789571E-01 0.24026660E+03</pdfrwt>
<totfact> 0.79023905E+03</totfact>
</mgrwt>
</event>
<event>
 4    0  0.1003929E-001  0.2433828E+03  0.7546771E-02  0.1117560E+00
         21   -1    0    0  502  501  0.00000000000E+00  0.00000000000E+00  0.81669889351E+03  0.81669889351E+03  0.00000000000E+00 0.  1.
         21   -1    0    0  503  502 -0.00000000000E+00 -0.00000000000E+00 -0.65815985145E+02  0.65815985145E+02  0.00000000000E+00 0. -1.
         25    1    1    2    0    0  0.20659785821E+03 -0.30455124680E+02  0.50001531484E+03  0.55610296233E+03  0.12500000000E+03 0.  0.
         21    1    1    2  503  501 -0.20659785821E+03  0.30455124680E+02  0.25086759353E+03  0.32641191633E+03  0.00000000000E+00 0. -1.
<mgrwt>
<rscale>  3 0.24338280E+03</rscale>
<asrwt>0</asrwt>
<pdfrwt beam="1">  1       21 0.12564598E+00 0.24338280E+03</pdfrwt>
<pdfrwt beam="2">  1       21 0.10125537E-01 0.24338280E+03</pdfrwt>
<totfact> 0.36386872E+04</totfact>
</mgrwt>
</event>
<event>
 4    0  0.1060641E-001  0.2571439E+03  0.7546771E-02  0.1108871E+00
         21   -1    0    0  503  501  0.00000000000E+00  0.00000000000E+00  0.50638242909E+02  0.50638242909E+02  0.00000000000E+00 0. -1.
         21   -1    0    0  501  502 -0.00000000000E+00 -0.00000000000E+00 -0.12363144126E+04  0.12363144126E+04  0.00000000000E+00 0. -1.
         25    1    1    2    0    0  0.74573614820E+02  0.21198296337E+03 -0.80307397359E+03  0.84323828652E+03  0.12500000000E+03 0.  0.
         21    1    1    2  503  502 -0.74573614820E+02 -0.21198296337E+03 -0.38260219608E+03  0.44371436897E+03  0.00000000000E+00 0. -1.
<mgrwt>
<rscale>  3 0.25714393E+03</rscale>
<asrwt>0</asrwt>
<pdfrwt beam="1">  1       21 0.77905002E-02 0.25714393E+03</pdfrwt>
<pdfrwt beam="2">  1       21 0.19020219E+00 0.25714393E+03</pdfrwt>
<totfact> 0.18719596E+04</totfact>
</mgrwt>
</event>
<event>
 4    0  0.1189904E-001  0.3079028E+03  0.7546771E-02  0.1081355E+00
         21   -1    0    0  503  501  0.00000000000E+00  0.00000000000E+00  0.75650307589E+03  0.75650307589E+03  0.00000000000E+00 0. -1.
         21   -1    0    0  501  502 -0.00000000000E+00 -0.00000000000E+00 -0.24075317231E+03  0.24075317231E+03  0.00000000000E+00 0. -1.
         25    1    1    2    0    0  0.42759750103E+01 -0.28135533568E+03  0.62394753560E+03  0.69578346924E+03  0.12500000000E+03 0.  0.
         21    1    1    2  503  502 -0.42759750103E+01  0.28135533568E+03 -0.10819763203E+03  0.30147277896E+03  0.00000000000E+00 0. -1.
<mgrwt>
<rscale>  3 0.30790276E+03</rscale>
<asrwt>0</asrwt>
<pdfrwt beam="1">  1       21 0.11638509E+00 0.30790276E+03</pdfrwt>
<pdfrwt beam="2">  1       21 0.37038950E-01 0.30790276E+03</pdfrwt>
<totfact> 0.37044764E+03</totfact>
</mgrwt>
</event>
<event>
 4    0  0.1275776E-001  0.2904628E+03  0.7546771E-02  0.1090108E+00
         21   -1    0    0  503  501  0.00000000000E+00  0.00000000000E+00  0.81309364284E+02  0.81309364284E+02  0.00000000000E+00 0.  1.
         21   -1    0    0  501  502 -0.00000000000E+00 -0.00000000000E+00 -0.11137992041E+04  0.11137992041E+04  0.00000000000E+00 0.  1.
         25    1    1    2    0    0 -0.76780715945E+02  0.25069579299E+03 -0.30210566864E+03  0.41909007861E+03  0.12500000000E+03 0.  0.
         21    1    1    2  503  502  0.76780715945E+02 -0.25069579299E+03 -0.73038417114E+03  0.77601848974E+03  0.00000000000E+00 0.  1.
<mgrwt>
<rscale>  3 0.29046284E+03</rscale>
<asrwt>0</asrwt>
<pdfrwt beam="1">  1       21 0.12509133E-01 0.29046284E+03</pdfrwt>
<pdfrwt beam="2">  1       21 0.17135372E+00 0.29046284E+03</pdfrwt>
<totfact> 0.10672681E+04</totfact>
</mgrwt>
</event>
<event>
 4    0  0.1306736E-001  0.4191852E+03  0.7546771E-02  0.1037332E+00
         21   -1    0    0  503  501  0.00000000000E+00  0.00000000000E+00  0.66321523015E+03  0.66321523015E+03  0.00000000000E+00 0.  1.
         21   -1    0    0  501  502 -0.00000000000E+00 -0.00000000000E+00 -0.14505546432E+04  0.14505546432E+04  0.00000000000E+00 0. -1.
         25    1    1    2    0    0  0.32731677593E+02 -0.39877296160E+03  0.56497784246E+03  0.70350280745E+03  0.12500000000E+03 0.  0.
         21    1    1    2  503  502 -0.32731677593E+02  0.39877296160E+03 -0.13523172555E+04  0.14102670659E+04  0.00000000000E+00 0. -1.
<mgrwt>
<rscale>  3 0.41918521E+03</rscale>
<asrwt>0</asrwt>
<pdfrwt beam="1">  1       21 0.10203311E+00 0.41918521E+03</pdfrwt>
<pdfrwt beam="2">  1       21 0.22316225E+00 0.41918521E+03</pdfrwt>
<totfact> 0.60039308E+01</totfact>
</mgrwt>
</event>
<event>
 4    0  0.1003929E-001  0.4368458E+03  0.7546771E-02  0.1031719E+00
         21   -1    0    0  503  501  0.00000000000E+00  0.00000000000E+00  0.10561775871E+03  0.10561775871E+03  0.00000000000E+00 0. -1.
         21   -1    0    0  501  502 -0.00000000000E+00 -0.00000000000E+00 -0.20625011935E+04  0.20625011935E+04  0.00000000000E+00 0. -1.
         25    1    1    2    0    0 -0.35275707550E+03  0.22532576067E+03 -0.56216951572E+03  0.71194720109E+03  0.12500000000E+03 0.  0.
         21    1    1    2  503  502  0.35275707550E+03 -0.22532576067E+03 -0.13947139190E+04  0.14561717511E+04  0.00000000000E+00 0. -1.
<mgrwt>
<rscale>  3 0.43684580E+03</rscale>
<asrwt>0</asrwt>
<pdfrwt beam="1">  1       21 0.16248887E-01 0.43684580E+03</pdfrwt>
<pdfrwt beam="2">  1       21 0.31730785E+00 0.43684580E+03</pdfrwt>
<totfact> 0.73970768E+02</totfact>
</mgrwt>
</event>
<event>
 4    0  0.1319863E-001  0.2423222E+03  0.7546771E-02  0.1118255E+00
         21   -1    0    0  502  501  0.00000000000E+00  0.00000000000E+00  0.57961942600E+03  0.57961942600E+03  0.00000000000E+00 0. -1.
         21   -1    0    0  503  502 -0.00000000000E+00 -0.00000000000E+00 -0.10251679019E+03  0.10251679019E+03  0.00000000000E+00 0. -1.
         25    1    1    2    0    0  0.59613180313E+02 -0.19885002126E+03  0.38526342047E+03  0.45513510673E+03  0.12500000000E+03 0.  0.
         21    1    1    2  503  501 -0.59613180313E+02  0.19885002126E+03  0.91839215336E+02  0.22700110946E+03  0.00000000000E+00 0. -1.
<mgrwt>
<rscale>  3 0.24232223E+03</rscale>
<asrwt>0</asrwt>
<pdfrwt beam="1">  1       21 0.89172217E-01 0.24232223E+03</pdfrwt>
<pdfrwt beam="2">  1       21 0.15771814E-01 0.24232223E+03</pdfrwt>
<totfact> 0.37479073E+04</totfact>
</mgrwt>
</event>
<event>
 4    0  0.1003929E-001  0.2734311E+03  0.7546771E-02  0.1099332E+00
         21   -1    0    0  502  501  0.00000000000E+00  0.00000000000E+00  0.54715718977E+02  0.54715718977E+02  0.00000000000E+00 0. -1.
         21   -1    0    0  503  502 -0.00000000000E+00 -0.00000000000E+00 -0.20695448780E+04  0.20695448780E+04  0.00000000000E+00 0. -1.
         25    1    1    2    0    0 -0.15629439785E+03  0.18631059380E+03 -0.36212794426E+03  0.45376340110E+03  0.12500000000E+03 0.  0.
         21    1    1    2  503  501  0.15629439785E+03 -0.18631059380E+03 -0.16527012147E+04  0.16704971958E+04  0.00000000000E+00 0. -1.
<mgrwt>
<rscale>  3 0.27343112E+03</rscale>
<asrwt>0</asrwt>
<pdfrwt beam="1">  1       21 0.84178036E-02 0.27343112E+03</pdfrwt>
<pdfrwt beam="2">  1       21 0.31839150E+00 0.27343112E+03</pdfrwt>
<totfact> 0.26940109E+03</totfact>
</mgrwt>
</event>
<event>
 4    0  0.1239054E-001  0.2887482E+03  0.7546771E-02  0.1091005E+00
         21   -1    0    0  502  501  0.00000000000E+00  0.00000000000E+00  0.15477578504E+03  0.15477578504E+03  0.00000000000E+00 0.  1.
         21   -1    0    0  503  502 -0.00000000000E+00 -0.00000000000E+00 -0.49270784270E+03  0.49270784270E+03  0.00000000000E+00 0.  1.
         25    1    1    2    0    0  0.25975837528E+03  0.16615825605E+02 -0.14252259376E+03  0.32200650447E+03  0.12500000000E+03 0.  0.
         21    1    1    2  503  501 -0.25975837528E+03 -0.16615825605E+02 -0.19540946390E+03  0.32547712327E+03  0.00000000000E+00 0.  1.
<mgrwt>
<rscale>  3 0.28874816E+03</rscale>
<asrwt>0</asrwt>
<pdfrwt beam="1">  1       21 0.23811660E-01 0.28874816E+03</pdfrwt>
<pdfrwt beam="2">  1       21 0.75801205E-01 0.28874816E+03</pdfrwt>
<totfact> 0.24618448E+04</totfact>
</mgrwt>
</event>
<event>
 4    0  0.1065252E-001  0.2683265E+03  0.7546771E-02  0.1102241E+00
         21   -1    0    0  503  501  0.00000000000E+00  0.00000000000E+00  0.11138438638E+04  0.11138438638E+04  0.00000000000E+00 0. -1.
         21   -1    0    0  501  502 -0.00000000000E+00 -0.00000000000E+00 -0.18574277984E+03  0.18574277984E+03  0.00000000000E+00 0. -1.
         25    1    1    2    0    0  0.17236065542E+03  0.16329708464E+03  0.10126137409E+04  0.10475617985E+04  0.12500000000E+03 0.  0.
         21    1    1    2  503  502 -0.17236065542E+03 -0.16329708464E+03 -0.84512656952E+02  0.25202484515E+03  0.00000000000E+00 0. -1.
<mgrwt>
<rscale>  3 0.26832654E+03</rscale>
<asrwt>0</asrwt>
<pdfrwt beam="1">  1       21 0.17136059E+00 0.26832654E+03</pdfrwt>
<pdfrwt beam="2">  1       21 0.28575813E-01 0.26832654E+03</pdfrwt>
<totfact> 0.22953834E+03</totfact>
</mgrwt>
</event>
<event>
 4    0  0.1272236E-001  0.2581227E+03  0.7546771E-02  0.1108276E+00
         21   -1    0    0  502  501  0.00000000000E+00  0.00000000000E+00  0.11123530085E+04  0.11123530085E+04  0.00000000000E+00 0.  1.
         21   -1    0    0  503  502 -0.00000000000E+00 -0.00000000000E+00 -0.72716326045E+02  0.72716326045E+02  0.00000000000E+00 0.  1.
         25    1    1    2    0    0  0.21590899365E+03 -0.66224135160E+02  0.85576382703E+03  0.89384509691E+03  0.12500000000E+03 0.  0.
         21    1    1    2  503  501 -0.21590899365E+03  0.66224135160E+02  0.18387285540E+03  0.29122423761E+03  0.00000000000E+00 0.  1.
<mgrwt>
<rscale>  3 0.25812270E+03</rscale>
<asrwt>0</asrwt>
<pdfrwt beam="1">  1       21 0.17113122E+00 0.25812270E+03</pdfrwt>
<pdfrwt beam="2">  1       21 0.11187128E-01 0.25812270E+03</pdfrwt>
<totfact> 0.13336682E+04</totfact>
</mgrwt>
</event>
<event>
 4    0  0.1003929E-001  0.3907373E+03  0.7546771E-02  0.1047035E+00
         21   -1    0    0  502  501  0.00000000000E+00  0.00000000000E+00  0.20751021626E+03  0.20751021626E+03  0.00000000000E+00 0. -1.
         21   -1    0    0  503  502 -0.00000000000E+00 -0.00000000000E+00 -0.71391896354E+03  0.71391896354E+03  0.00000000000E+00 0.  1.
         25    1    1    2    0    0  0.24650142522E+03  0.27620225908E+03 -0.19023598104E+03  0.43458643449E+03  0.12500000000E+03 0.  0.
         21    1    1    2  503  501 -0.24650142522E+03 -0.27620225908E+03 -0.31617276624E+03  0.48684274532E+03  0.00000000000E+00 0.  1.
<mgrwt>
<rscale>  3 0.39073730E+03</rscale>
<asrwt>0</asrwt>
<pdfrwt beam="1">  1       21 0.31924649E-01 0.39073730E+03</pdfrwt>
<pdfrwt beam="2">  1       21 0.10983368E+00 0.39073730E+03</pdfrwt>
<totfact> 0.55504086E+03</totfact>
</mgrwt>
</event>
<event>
 4    0  0.1370099E-001  0.2394727E+03  0.7546771E-02  0.1120145E+00
         21   -1    0    0  503  501  0.00000000000E+00  0.00000000000E+00  0.73120686341E+03  0.73120686341E+03  0.00000000000E+00 0. -1.
         21   -1    0    0  501  502 -0.00000000000E+00 -0.00000000000E+00 -0.72314182910E+02  0.72314182910E+02  0.00000000000E+00 0. -1.
         25    1    1    2    0    0  0.14363205009E+03  0.14523081261E+03  0.45905817200E+03  0.51776593169E+03  0.12500000000E+03 0.  0.
         21    1    1    2  503  502 -0.14363205009E+03 -0.14523081261E+03  0.19983450850E+03  0.28575511463E+03  0.00000000000E+00 0. -1.
<mgrwt>
<rscale>  3 0.23947266E+03</rscale>
<asrwt>0</asrwt>
<pdfrwt beam="1">  1       21 0.11249336E+00 0.23947266E+03</pdfrwt>
<pdfrwt beam="2">  1       21 0.11125259E-01 0.23947266E+03</pdfrwt>
<totfact> 0.40564383E+04</totfact>
</mgrwt>
</event>
<event>
 4    0  0.1003929E-001  0.2627829E+03  0.7546771E-02  0.1105483E+00
         21   -1    0    0  503  501  0.00000000000E+00  0.00000000000E+00  0.11771157043E+03  0.11771157043E+03  0.00000000000E+00 0.  1.
         21   -1    0    0  501  502 -0.00000000000E+00 -0.00000000000E+00 -0.51934411289E+03  0.51934411289E+03  0.00000000000E+00 0. -1.
         25    1    1    2    0    0 -0.21793376841E+03 -0.77037088893E+02 -0.22889499538E+03  0.34849355717E+03  0.12500000000E+03 0.  0.
         21    1    1    2  503  502  0.21793376841E+03  0.77037088893E+02 -0.17273754708E+03  0.28856212615E+03  0.00000000000E+00 0. -1.
<mgrwt>
<rscale>  3 0.26278288E+03</rscale>
<asrwt>0</asrwt>
<pdfrwt beam="1">  1       21 0.18109472E-01 0.26278288E+03</pdfrwt>
<pdfrwt beam="2">  1       21 0.79899094E-01 0.26278288E+03</pdfrwt>
<totfact> 0.37040310E+04</totfact>
</mgrwt>
</event>
<event>
 4    0  0.1350006E-001  0.2454019E+03  0.7546771E-02  0.1116246E+00
         21   -1    0    0  503  501  0.00000000000E+00  0.00000000000E+00  0.10083879606E+03  0.10083879606E+03  0.00000000000E+00 0. -1.
         21   -1    0    0  501  502 -0.00000000000E+00 -0.00000000000E+00 -0.52010333006E+03  0.52010333006E+03  0.00000000000E+00 0. -1.
         25    1    1    2    0    0 -0.13498583513E+03 -0.16240666689E+03 -0.20069562373E+03  0.31701866589E+03  0.12500000000E+03 0.  0.
         21    1    1    2  503  502  0.13498583513E+03  0.16240666689E+03 -0.21856891027E+03  0.30392346023E+03  0.00000000000E+00 0. -1.
<mgrwt>
<rscale>  3 0.24540192E+03</rscale>
<asrwt>0</asrwt>
<pdfrwt beam="1">  1       21 0.15513661E-01 0.24540192E+03</pdfrwt>
<pdfrwt beam="2">  1       21 0.80015896E-01 0.24540192E+03</pdfrwt>
<totfact> 0.49499329E+04</totfact>
</mgrwt>
</event>
<event>
 4    0  0.1161634E-001  0.2475449E+03  0.7546771E-02  0.1114866E+00
         21   -1    0    0  503  501  0.00000000000E+00  0.00000000000E+00  0.90093600510E+03  0.90093600510E+03  0.00000000000E+00 0. -1.
         21   -1    0    0  501  502 -0.00000000000E+00 -0.00000000000E+00 -0.14935782123E+03  0.14935782123E+03  0.00000000000E+00 0. -1.
         25    1    1    2    0    0 -0.87742208169E+02  0.19481991549E+03  0.79466272343E+03  0.83232646154E+03  0.12500000000E+03 0.  0.
         21    1    1    2  503  502  0.87742208169E+02 -0.19481991549E+03 -0.43084539552E+02  0.21796736479E+03  0.00000000000E+00 0. -1.
<mgrwt>
<rscale>  3 0.24754493E+03</rscale>
<asrwt>0</asrwt>
<pdfrwt beam="1">  1       21 0.13860554E+00 0.24754493E+03</pdfrwt>
<pdfrwt beam="2">  1       21 0.22978127E-01 0.24754493E+03</pdfrwt>
<totfact> 0.62745589E+03</totfact>
</mgrwt>
</event>
<event>
 4    0  0.1003929E-001  0.2430164E+03  0.7546771E-02  0.1117800E+00
         21   -1    0    0  503  501  0.00000000000E+00  0.00000000000E+00  0.13978045608E+03  0.13978045608E+03  0.00000000000E+00 0.  1.
         21   -1    0    0  501  502 -0.00000000000E+00 -0.00000000000E+00 -0.46902034601E+03  0.46902034601E+03  0.00000000000E+00 0. -1.
         25    1    1    2    0    0  0.19251192291E+03  0.79819237243E+02 -0.31034684178E+02  0.24499000534E+03  0.12500000000E+03 0.  0.
         21    1    1    2  503  502 -0.19251192291E+03 -0.79819237243E+02 -0.29820520575E+03  0.36381079675E+03  0.00000000000E+00 0. -1.
<mgrwt>
<rscale>  3 0.24301636E+03</rscale>
<asrwt>0</asrwt>
<pdfrwt beam="1">  1       21 0.21504686E-01 0.24301636E+03</pdfrwt>
<pdfrwt beam="2">  1       21 0.72156976E-01 0.24301636E+03</pdfrwt>
<totfact> 0.34042736E+04</totfact>
</mgrwt>
</event>
<event>
 4    0  0.1555502E-001  0.3032179E+03  0.7546771E-02  0.1083643E+00
         21   -1    0    0  502  501  0.00000000000E+00  0.00000000000E+00  0.64545968949E+03  0.64545968949E+03  0.00000000000E+00 0. -1.
         21   -1    0    0  503  502 -0.00000000000E+00 -0.00000000000E+00 -0.14200277917E+03  0.14200277917E+03  0.00000000000E+00 0. -1.
         25    1    1    2    0    0  0.27623594950E+03 -0.31263163571E+01  0.37653951245E+03  0.48344914736E+03  0.12500000000E+03 0.  0.
         21    1    1    2  503  501 -0.27623594950E+03  0.31263163571E+01  0.12691739787E+03  0.30401332130E+03  0.00000000000E+00 0. -1.
<mgrwt>
<rscale>  3 0.30321786E+03</rscale>
<asrwt>0</asrwt>
<pdfrwt beam="1">  1       21 0.99301489E-01 0.30321786E+03</pdfrwt>
<pdfrwt beam="2">  1       21 0.21846582E-01 0.30321786E+03</pdfrwt>
<totfact> 0.15395109E+04</totfact>
</mgrwt>
</event>
<event>
 4    0  0.1003929E-001  0.2688939E+03  0.7546771E-02  0.1101914E+00
         21   -1    0    0  503  501  0.00000000000E+00  0.00000000000E+00  0.88424232393E+02  0.88424232393E+02  0.00000000000E+00 0. -1.
         21   -1    0    0  501  502 -0.00000000000E+00 -0.00000000000E+00 -0.82440584285E+03  0.82440584285E+03  0.00000000000E+00 0.  1.
         25    1    1    2    0    0  0.27729235425E+02 -0.23645295281E+03 -0.23080343137E+03  0.35436440752E+03  0.12500000000E+03 0.  0.
         21    1    1    2  503  502 -0.27729235425E+02  0.23645295281E+03 -0.50517817909E+03  0.55846566772E+03  0.00000000000E+00 0.  1.
<mgrwt>
<rscale>  3 0.26889386E+03</rscale>
<asrwt>0</asrwt>
<pdfrwt beam="1">  1       21 0.13603728E-01 0.26889386E+03</pdfrwt>
<pdfrwt beam="2">  1       21 0.12683167E+00 0.26889386E+03</pdfrwt>
<totfact> 0.20641206E+04</totfact>
</mgrwt>
</event>
<event>
 4    0  0.1114212E-001  0.3873471E+03  0.7546771E-02  0.1048251E+00
         21   -1    0    0  502  501  0.00000000000E+00  0.00000000000E+00  0.13325870720E+04  0.13325870720E+04  0.00000000000E+00 0.  1.
         21   -1    0    0  503  502 -0.00000000000E+00 -0.00000000000E+00 -0.10762197759E+03  0.10762197759E+03  0.00000000000E+00 0.  1.
         25    1    1    2    0    0  0.35517562279E+03  0.90901459140E+02  0.69763893247E+03  0.79795856935E+03  0.12500000000E+03 0.  0.
         21    1    1    2  503  501 -0.35517562279E+03 -0.90901459140E+02  0.52732616193E+03  0.64225048023E+03  0.00000000000E+00 0.  1.
<mgrwt>
<rscale>  3 0.38734713E+03</rscale>
<asrwt>0</asrwt>
<pdfrwt beam="1">  1       21 0.20501338E+00 0.38734713E+03</pdfrwt>
<pdfrwt beam="2">  1       21 0.16557228E-01 0.38734713E+03</pdfrwt>
<totfact> 0.35819598E+03</totfact>
</mgrwt>
</event>
<event>
 4    0  0.1285190E-001  0.2471449E+03  0.7546771E-02  0.1115123E+00
         21   -1    0    0  502  501  0.00000000000E+00  0.00000000000E+00  0.47337709020E+02  0.47337709020E+02  0.00000000000E+00 0.  1.
         21   -1    0    0  503  502 -0.00000000000E+00 -0.00000000000E+00 -0.11857768369E+04  0.11857768369E+04  0.00000000000E+00 0.  1.
         25    1    1    2    0    0 -0.20663445665E+03  0.52514610824E+02 -0.46310600136E+03  0.52492642486E+03  0.12500000000E+03 0.  0.
         21    1    1    2  503  501  0.20663445665E+03 -0.52514610824E+02 -0.67533312653E+03  0.70818812106E+03  0.00000000000E+00 0.  1.
<mgrwt>
<rscale>  3 0.24714486E+03</rscale>
<asrwt>0</asrwt>
<pdfrwt beam="1">  1       21 0.72827244E-02 0.24714486E+03</pdfrwt>
<pdfrwt beam="2">  1       21 0.18242721E+00 0.24714486E+03</pdfrwt>
<totfact> 0.23895319E+04</totfact>
</mgrwt>
</event>
<event>
 4    0  0.1073011E-001  0.2750414E+03  0.7546771E-02  0.1098428E+00
         21   -1    0    0  503  501  0.00000000000E+00  0.00000000000E+00  0.69764272048E+03  0.69764272048E+03  0.00000000000E+00 0. -1.
         21   -1    0    0  501  502 -0.00000000000E+00 -0.00000000000E+00 -0.33816725706E+03  0.33816725706E+03  0.00000000000E+00 0. -1.
         25    1    1    2    0    0  0.17322686794E+03 -0.17324909969E+03  0.61994914851E+03  0.67822175213E+03  0.12500000000E+03 0.  0.
         21    1    1    2  503  502 -0.17322686794E+03  0.17324909969E+03 -0.26047368509E+03  0.35758822540E+03  0.00000000000E+00 0. -1.
<mgrwt>
<rscale>  3 0.27504145E+03</rscale>
<asrwt>0</asrwt>
<pdfrwt beam="1">  1       21 0.10732965E+00 0.27504145E+03</pdfrwt>
<pdfrwt beam="2">  1       21 0.52025732E-01 0.27504145E+03</pdfrwt>
<totfact> 0.22821898E+03</totfact>
</mgrwt>
</event>
<event>
 4    0  0.1421289E-001  0.2783742E+03  0.7546771E-02  0.1096580E+00
         21   -1    0    0  502  501  0.00000000000E+00  0.00000000000E+00  0.69544422335E+03  0.69544422335E+03  0.00000000000E+00 0. -1.
         21   -1    0    0  503  502 -0.00000000000E+00 -0.00000000000E+00 -0.10118320102E+03  0.10118320102E+03  0.00000000000E+00 0. -1.
         25    1    1    2    0    0  0.78979954465E+02 -0.23585881190E+03  0.26846829172E+03  0.38673949373E+03  0.12500000000E+03 0.  0.
         21    1    1    2  503  501 -0.78979954465E+02  0.23585881190E+03  0.32579273062E+03  0.40988793064E+03  0.00000000000E+00 0. -1.
<mgrwt>
<rscale>  3 0.27837423E+03</rscale>
<asrwt>0</asrwt>
<pdfrwt beam="1">  1       21 0.10699142E+00 0.27837423E+03</pdfrwt>
<pdfrwt beam="2">  1       21 0.15566647E-01 0.27837423E+03</pdfrwt>
<totfact> 0.24493283E+04</totfact>
</mgrwt>
</event>
<event>
 4    0  0.1166716E-001  0.2526461E+03  0.7546771E-02  0.1111644E+00
         21   -1    0    0  502  501  0.00000000000E+00  0.00000000000E+00  0.73827204274E+02  0.73827204274E+02  0.00000000000E+00 0. -1.
         21   -1    0    0  503  502 -0.00000000000E+00 -0.00000000000E+00 -0.13740201694E+04  0.13740201694E+04  0.00000000000E+00 0. -1.
         25    1    1    2    0    0 -0.12565857842E+03  0.18004158357E+03 -0.18990718921E+03  0.31606137166E+03  0.12500000000E+03 0.  0.
         21    1    1    2  503  501  0.12565857842E+03 -0.18004158357E+03 -0.11102857759E+04  0.11317860020E+04  0.00000000000E+00 0. -1.
<mgrwt>
<rscale>  3 0.25264610E+03</rscale>
<asrwt>0</asrwt>
<pdfrwt beam="1">  1       21 0.11358031E-01 0.25264610E+03</pdfrwt>
<pdfrwt beam="2">  1       21 0.21138772E+00 0.25264610E+03</pdfrwt>
<totfact> 0.70147524E+03</totfact>
</mgrwt>
</event>
<event>
 4    0  0.1003929E-001  0.3009944E+03  0.7546771E-02  0.1084745E+00
         21   -1    0    0  502  501  0.00000000000E+00  0.00000000000E+00  0.25146966342E+04  0.25146966342E+04  0.00000000000E+00 0.  1.
         21   -1    0    0  503  502 -0.00000000000E+00 -0.00000000000E+00 -0.82681486262E+02  0.82681486262E+02  0.00000000000E+00 0. -1.
         25    1    1    2    0    0  0.87307570034E+02 -0.25951883829E+03  0.22466493989E+04  0.22667225593E+04  0.12500000000E+03 0.  0.
         21    1    1    2  503  501 -0.87307570034E+02  0.25951883829E+03  0.18536574902E+03  0.33065556116E+03  0.00000000000E+00 0. -1.
<mgrwt>
<rscale>  3 0.30099442E+03</rscale>
<asrwt>0</asrwt>
<pdfrwt beam="1">  1       21 0.38687635E+00 0.30099442E+03</pdfrwt>
<pdfrwt beam="2">  1       21 0.12720231E-01 0.30099442E+03</pdfrwt>
<totfact> 0.48411897E+02</totfact>
</mgrwt>
</event>
<event>
 4    0  0.1242170E-001  0.2636571E+03  0.7546771E-02  0.1104966E+00
         21   -1    0    0  502  501  0.00000000000E+00  0.00000000000E+00  0.53652890602E+03  0.53652890602E+03  0.00000000000E+00 0. -1.
         21   -1    0    0  503  502 -0.00000000000E+00 -0.00000000000E+00 -0.26784115051E+03  0.26784115051E+03  0.00000000000E+00 0. -1.
         25    1    1    2    0    0  0.12881396194E+03  0.19312439551E+03  0.44200281425E+03  0.51466645193E+03  0.12500000000E+03 0.  0.
         21    1    1    2  503  501 -0.12881396194E+03 -0.19312439551E+03 -0.17331505873E+03  0.28970360460E+03  0.00000000000E+00 0. -1.
<mgrwt>
<rscale>  3 0.26365710E+03</rscale>
<asrwt>0</asrwt>
<pdfrwt beam="1">  1       21 0.82542909E-01 0.26365710E+03</pdfrwt>
<pdfrwt beam="2">  1       21 0.41206331E-01 0.26365710E+03</pdfrwt>
<totfact> 0.69392043E+03</totfact>
</mgrwt>
</event>
<event>
 4    0  0.1461918E-001  0.2490719E+03  0.7546771E-02  0.1113893E+00
         21   -1    0    0  502  501  0.00000000000E+00  0.00000000000E+00  0.24509099267E+03  0.24509099267E+03  0.00000000000E+00 0. -1.
         21   -1    0    0  503  502 -0.00000000000E+00 -0.00000000000E+00 -0.24051595602E+03  0.24051595602E+03  0.00000000000E+00 0. -1.
         25    1    1    2    0    0  0.17703209276E+03 -0.12276573292E+03  0.73031595395E+02  0.25955808786E+03  0.12500000000E+03 0.  0.
         21    1    1    2  503  501 -0.17703209276E+03  0.12276573292E+03 -0.68456558740E+02  0.22604886083E+03  0.00000000000E+00 0. -1.
<mgrwt>
<rscale>  3 0.24907185E+03</rscale>
<asrwt>0</asrwt>
<pdfrwt beam="1">  1       21 0.37706306E-01 0.24907185E+03</pdfrwt>
<pdfrwt beam="2">  1       21 0.37002455E-01 0.24907185E+03</pdfrwt>
<totfact> 0.46577509E+04</totfact>
</mgrwt>
</event>
<event>
 4    0  0.1003929E-001  0.2368490E+03  0.7546771E-02  0.1121910E+00
         21   -1    0    0  502  501  0.00000000000E+00  0.00000000000E+00  0.47007196571E+03  0.47007196571E+03  0.00000000000E+00 0. -1.
         21   -1    0    0  503  502 -0.00000000000E+00 -0.00000000000E+00 -0.10218230886E+03  0.10218230886E+03  0.00000000000E+00 0. -1.
         25    1    1    2    0    0  0.47180531850E+02  0.19556695583E+03  0.20949211632E+03  0.31620307335E+03  0.12500000000E+03 0.  0.
         21    1    1    2  503  501 -0.47180531850E+02 -0.19556695583E+03  0.15839754053E+03  0.25605120122E+03  0.00000000000E+00 0. -1.
<mgrwt>
<rscale>  3 0.23684897E+03</rscale>
<asrwt>0</asrwt>
<pdfrwt beam="1">  1       21 0.72318763E-01 0.23684897E+03</pdfrwt>
<pdfrwt beam="2">  1       21 0.15720356E-01 0.23684897E+03</pdfrwt>
<totfact> 0.60881203E+04</totfact>
</mgrwt>
</event>
<event>
 4    0  0.1003929E-001  0.3503116E+03  0.7546771E-02  0.1062487E+00
         21   -1    0    0  502  501  0.00000000000E+00  0.00000000000E+00  0.21230715874E+04  0.21230715874E+04  0.00000000000E+00 0.  1.
         21   -1    0    0  503  502 -0.00000000000E+00 -0.00000000000E+00 -0.72087893583E+02  0.72087893583E+02  0.00000000000E+00 0.  1.
         25    1    1    2    0    0 -0.21302451645E+03  0.24842253294E+03  0.16003106798E+04  0.16382040384E+04  0.12500000000E+03 0.  0.
         21    1    1    2  503  501  0.21302451645E+03 -0.24842253294E+03  0.45067301401E+03  0.55695544260E+03  0.00000000000E+00 0.  1.
<mgrwt>
<rscale>  3 0.35031157E+03</rscale>
<asrwt>0</asrwt>
<pdfrwt beam="1">  1       21 0.32662635E+00 0.35031157E+03</pdfrwt>
<pdfrwt beam="2">  1       21 0.11090447E-01 0.35031157E+03</pdfrwt>
<totfact> 0.13853441E+03</totfact>
</mgrwt>
</event>
<event>
 4    0  0.1003929E-001  0.3600539E+03  0.7546771E-02  0.1058563E+00
         21   -1    0    0  503  501  0.00000000000E+00  0.00000000000E+00  0.18907046983E+03  0.18907046983E+03  0.00000000000E+00 0.  1.
         21   -1    0    0  501  502 -0.00000000000E+00 -0.00000000000E+00 -0.11557431021E+04  0.11557431021E+04  0.00000000000E+00 0.  1.
         25    1    1    2    0    0  0.23828258914E+03 -0.23923882511E+03 -0.44532789104E+02  0.36279743250E+03  0.12500000000E+03 0.  0.
         21    1    1    2  503  502 -0.23828258914E+03  0.23923882511E+03 -0.92213984318E+03  0.98201613943E+03  0.00000000000E+00 0.  1.
<mgrwt>
<rscale>  3 0.36005390E+03</rscale>
<asrwt>0</asrwt>
<pdfrwt beam="1">  1       21 0.29087764E-01 0.36005390E+03</pdfrwt>
<pdfrwt beam="2">  1       21 0.17780663E+00 0.36005390E+03</pdfrwt>
<totfact> 0.18875906E+03</totfact>
</mgrwt>
</event>
<event>
 4    0  0.1089388E-001  0.2591720E+03  0.7546771E-02  0.1107642E+00
         21   -1    0    0  502  501  0.00000000000E+00  0.00000000000E+00  0.74983842488E+03  0.74983842488E+03  0.00000000000E+00 0. -1.
         21   -1    0    0  503  502 -0.00000000000E+00 -0.00000000000E+00 -0.90580565863E+02  0.90580565863E+02  0.00000000000E+00 0. -1.
         25    1    1    2    0    0  0.10640855358E+03  0.20055507888E+03  0.19743752875E+03  0.32580929652E+03  0.12500000000E+03 0.  0.
         21    1    1    2  503  501 -0.10640855358E+03 -0.20055507888E+03  0.46182033027E+03  0.51460969423E+03  0.00000000000E+00 0. -1.
<mgrwt>
<rscale>  3 0.25917199E+03</rscale>
<asrwt>0</asrwt>
<pdfrwt beam="1">  1       21 0.11535975E+00 0.25917199E+03</pdfrwt>
<pdfrwt beam="2">  1       21 0.13935472E-01 0.25917199E+03</pdfrwt>
<totfact> 0.25165654E+04</totfact>
</mgrwt>
</event>
<event>
 4    0  0.1003929E-001  0.2717050E+03  0.7546771E-02  0.1100308E+00
         21   -1    0    0  503  501  0.00000000000E+00  0.00000000000E+00  0.31868763417E+03  0.31868763417E+03  0.00000000000E+00 0.  1.
         21   -1    0    0  501  502 -0.00000000000E+00 -0.00000000000E+00 -0.36363089187E+03  0.36363089187E+03  0.00000000000E+00 0.  1.
         25    1    1    2    0    0  0.13363283749E+03  0.20085041958E+03 -0.24733424740E+03  0.36742054412E+03  0.12500000000E+03 0.  0.
         21    1    1    2  503  502 -0.13363283749E+03 -0.20085041958E+03  0.20239098971E+03  0.31489798192E+03  0.00000000000E+00 0.  1.
<mgrwt>
<rscale>  3 0.27170504E+03</rscale>
<asrwt>0</asrwt>
<pdfrwt beam="1">  1       21 0.49028867E-01 0.27170504E+03</pdfrwt>
<pdfrwt beam="2">  1       21 0.55943214E-01 0.27170504E+03</pdfrwt>
<totfact> 0.11407029E+04</totfact>
</mgrwt>
</event>
<event>
 4    0  0.2325011E-001  0.2595163E+03  0.7546771E-02  0.1107434E+00
         21   -1    0    0  503  501  0.00000000000E+00  0.00000000000E+00  0.34703068692E+03  0.34703068692E+03  0.00000000000E+00 0.  1.
         21   -1    0    0  501  502 -0.00000000000E+00 -0.00000000000E+00 -0.93149067278E+03  0.93149067278E+03  0.00000000000E+00 0. -1.
         25    1    1    2    0    0  0.22730134479E+03  0.76031213840E+01  0.28168935656E+03  0.38301123012E+03  0.12500000000E+03 0.  0.
         21    1    1    2  503  502 -0.22730134479E+03 -0.76031213840E+01 -0.86614934242E+03  0.89551012957E+03  0.00000000000E+00 0. -1.
<mgrwt>
<rscale>  3 0.25951630E+03</rscale>
<asrwt>0</asrwt>
<pdfrwt beam="1">  1       21 0.53389337E-01 0.25951630E+03</pdfrwt>
<pdfrwt beam="2">  1       21 0.14330626E+00 0.25951630E+03</pdfrwt>
<totfact> 0.10532315E+03</totfact>
</mgrwt>
</event>
<event>
 4    0  0.1193761E-001  0.2955254E+03  0.7546771E-02  0.1087499E+00
         21   -1    0    0  503  501  0.00000000000E+00  0.00000000000E+00  0.87736085028E+03  0.87736085028E+03  0.00000000000E+00 0.  1.
         21   -1    0    0  501  502 -0.00000000000E+00 -0.00000000000E+00 -0.91396001529E+02  0.91396001529E+02  0.00000000000E+00 0.  1.
         25    1    1    2    0    0  0.26582446129E+03  0.32366647268E+02  0.46213761985E+03  0.54854938132E+03  0.12500000000E+03 0.  0.
         21    1    1    2  503  502 -0.26582446129E+03 -0.32366647268E+02  0.32382722891E+03  0.42020747049E+03  0.00000000000E+00 0.  1.
<mgrwt>
<rscale>  3 0.29552537E+03</rscale>
<asrwt>0</asrwt>
<pdfrwt beam="1">  1       21 0.13497859E+00 0.29552537E+03</pdfrwt>
<pdfrwt beam="2">  1       21 0.14060924E-01 0.29552537E+03</pdfrwt>
<totfact> 0.16365848E+04</totfact>
</mgrwt>
</event>
<event>
 4    0  0.1213292E-001  0.2589109E+03  0.7546771E-02  0.1107799E+00
         21   -1    0    0  503  501  0.00000000000E+00  0.00000000000E+00  0.89714978747E+03  0.89714978747E+03  0.00000000000E+00 0.  1.
         21   -1    0    0  501  502 -0.00000000000E+00 -0.00000000000E+00 -0.66652750054E+02  0.66652750054E+02  0.00000000000E+00 0.  1.
         25    1    1    2    0    0  0.22649404919E+03 -0.10501213718E+02  0.38558787725E+03  0.46444896479E+03  0.12500000000E+03 0.  0.
         21    1    1    2  503  502 -0.22649404919E+03  0.10501213718E+02  0.44490916016E+03  0.49935357273E+03  0.00000000000E+00 0.  1.
<mgrwt>
<rscale>  3 0.25891085E+03</rscale>
<asrwt>0</asrwt>
<pdfrwt beam="1">  1       21 0.13802304E+00 0.25891085E+03</pdfrwt>
<pdfrwt beam="2">  1       21 0.10254270E-01 0.25891085E+03</pdfrwt>
<totfact> 0.27777296E+04</totfact>
</mgrwt>
</event>
<event>
 4    0  0.1342842E-001  0.2430878E+03  0.7546771E-02  0.1117753E+00
         21   -1    0    0  502  501  0.00000000000E+00  0.00000000000E+00  0.36693227648E+03  0.36693227648E+03  0.00000000000E+00 0.  1.
         21   -1    0    0  503  502 -0.00000000000E+00 -0.00000000000E+00 -0.14573207821E+03  0.14573207821E+03  0.00000000000E+00 0.  1.
         25    1    1    2    0    0  0.88211873200E+02  0.18890558826E+03  0.17388185160E+03  0.29887548271E+03  0.12500000000E+03 0.  0.
         21    1    1    2  503  501 -0.88211873200E+02 -0.18890558826E+03  0.47318346674E+02  0.21378887198E+03  0.00000000000E+00 0.  1.
<mgrwt>
<rscale>  3 0.24308775E+03</rscale>
<asrwt>0</asrwt>
<pdfrwt beam="1">  1       21 0.56451119E-01 0.24308775E+03</pdfrwt>
<pdfrwt beam="2">  1       21 0.22420320E-01 0.24308775E+03</pdfrwt>
<totfact> 0.53757069E+04</totfact>
</mgrwt>
</event>
<event>
 4    0  0.1064937E-001  0.2879537E+03  0.7546771E-02  0.1091422E+00
         21   -1    0    0  503  501  0.00000000000E+00  0.00000000000E+00  0.17644452262E+03  0.17644452262E+03  0.00000000000E+00 0.  1.
         21   -1    0    0  501  502 -0.00000000000E+00 -0.00000000000E+00 -0.55105465402E+03  0.55105465402E+03  0.00000000000E+00 0. -1.
         25    1    1    2    0    0  0.25251031745E+03 -0.59421190807E+02 -0.20695615524E+02  0.28869646142E+03  0.12500000000E+03 0.  0.
         21    1    1    2  503  502 -0.25251031745E+03  0.59421190807E+02 -0.35391451588E+03  0.43880271522E+03  0.00000000000E+00 0. -1.
<mgrwt>
<rscale>  3 0.28795371E+03</rscale>
<asrwt>0</asrwt>
<pdfrwt beam="1">  1       21 0.27145311E-01 0.28795371E+03</pdfrwt>
<pdfrwt beam="2">  1       21 0.84777640E-01 0.28795371E+03</pdfrwt>
<totfact> 0.14805804E+04</totfact>
</mgrwt>
</event>
<event>
 4    0  0.1445722E-001  0.2512168E+03  0.7546771E-02  0.1112538E+00
         21   -1    0    0  503  501  0.00000000000E+00  0.00000000000E+00  0.39700216120E+03  0.39700216120E+03  0.00000000000E+00 0. -1.
         21   -1    0    0  501  502 -0.00000000000E+00 -0.00000000000E+00 -0.29498429016E+03  0.29498429016E+03  0.00000000000E+00 0.  1.
         25    1    1    2    0    0  0.21182180704E+03  0.51150672561E+02  0.30434213782E+03  0.39463148138E+03  0.12500000000E+03 0.  0.
         21    1    1    2  503  502 -0.21182180704E+03 -0.51150672561E+02 -0.20232426678E+03  0.29735496998E+03  0.00000000000E+00 0.  1.
<mgrwt>
<rscale>  3 0.25121678E+03</rscale>
<asrwt>0</asrwt>
<pdfrwt beam="1">  1       21 0.61077255E-01 0.25121678E+03</pdfrwt>
<pdfrwt beam="2">  1       21 0.45382199E-01 0.25121678E+03</pdfrwt>
<totfact> 0.11207555E+04</totfact>
</mgrwt>
</event>
<event>
 4    0  0.1511341E-001  0.2740555E+03  0.7546771E-02  0.1098981E+00
         21   -1    0    0  502  501  0.00000000000E+00  0.00000000000E+00  0.75723498786E+02  0.75723498786E+02  0.00000000000E+00 0. -1.
         21   -1    0    0  503  502 -0.00000000000E+00 -0.00000000000E+00 -0.90355554848E+03  0.90355554848E+03  0.00000000000E+00 0. -1.
         25    1    1    2    0    0 -0.21605439907E+02  0.24292929592E+03 -0.36878274541E+03  0.45946398244E+03  0.12500000000E+03 0.  0.
         21    1    1    2  503  501  0.21605439907E+02 -0.24292929592E+03 -0.45904930428E+03  0.51981506482E+03  0.00000000000E+00 0. -1.
<mgrwt>
<rscale>  3 0.27405554E+03</rscale>
<asrwt>0</asrwt>
<pdfrwt beam="1">  1       21 0.11649769E-01 0.27405554E+03</pdfrwt>
<pdfrwt beam="2">  1       21 0.13900855E+00 0.27405554E+03</pdfrwt>
<totfact> 0.21541006E+04</totfact>
</mgrwt>
</event>
<event>
 4    0  0.1121233E-001  0.2427549E+03  0.7546771E-02  0.1117971E+00
         21   -1    0    0  503  501  0.00000000000E+00  0.00000000000E+00  0.91663996790E+02  0.91663996790E+02  0.00000000000E+00 0.  1.
         21   -1    0    0  501  502 -0.00000000000E+00 -0.00000000000E+00 -0.87315727122E+03  0.87315727122E+03  0.00000000000E+00 0. -1.
         25    1    1    2    0    0  0.91984203862E+02 -0.18666502696E+03 -0.11888312481E+03  0.27030191160E+03  0.12500000000E+03 0.  0.
         21    1    1    2  503  502 -0.91984203862E+02  0.18666502696E+03 -0.66261014962E+03  0.69451935641E+03  0.00000000000E+00 0. -1.
<mgrwt>
<rscale>  3 0.24275487E+03</rscale>
<asrwt>0</asrwt>
<pdfrwt beam="1">  1       21 0.14102154E-01 0.24275487E+03</pdfrwt>
<pdfrwt beam="2">  1       21 0.13433189E+00 0.24275487E+03</pdfrwt>
<totfact> 0.16923033E+04</totfact>
</mgrwt>
</event>
<event>
 4    0  0.1547126E-001  0.2489526E+03  0.7546771E-02  0.1113969E+00
         21   -1    0    0  503  501  0.00000000000E+00  0.00000000000E+00  0.74723101725E+02  0.74723101725E+02  0.00000000000E+00 0. -1.
         21   -1    0    0  501  502 -0.00000000000E+00 -0.00000000000E+00 -0.74295228448E+03  0.74295228448E+03  0.00000000000E+00 0. -1.
         25    1    1    2    0    0 -0.16287677911E+03 -0.14079621969E+03 -0.28766315000E+03  0.38043068819E+03  0.12500000000E+03 0.  0.
         21    1    1    2  503  502  0.16287677911E+03  0.14079621969E+03 -0.38056603275E+03  0.43724469801E+03  0.00000000000E+00 0. -1.
<mgrwt>
<rscale>  3 0.24895265E+03</rscale>
<asrwt>0</asrwt>
<pdfrwt beam="1">  1       21 0.11495862E-01 0.24895265E+03</pdfrwt>
<pdfrwt beam="2">  1       21 0.11430035E+00 0.24895265E+03</pdfrwt>
<totfact> 0.36628561E+04</totfact>
</mgrwt>
</event>
<event>
 4    0  0.1383906E-001  0.2710520E+03  0.7546771E-02  0.1100679E+00
         21   -1    0    0  503  501  0.00000000000E+00  0.00000000000E+00  0.96207284429E+02  0.96207284429E+02  0.00000000000E+00 0.  1.
         21   -1    0    0  501  502 -0.00000000000E+00 -0.00000000000E+00 -0.76988007238E+03  0.76988007238E+03  0.00000000000E+00 0.  1.
         25    1    1    2    0    0 -0.18084579736E+03 -0.15855273409E+03 -0.20689250853E+03  0.34098926962E+03  0.12500000000E+03 0.  0.
         21    1    1    2  503  502  0.18084579736E+03  0.15855273409E+03 -0.46678027943E+03  0.52509808719E+03  0.00000000000E+00 0.  1.
<mgrwt>
<rscale>  3 0.27105197E+03</rscale>
<asrwt>0</asrwt>
<pdfrwt beam="1">  1       21 0.14801121E-01 0.27105197E+03</pdfrwt>
<pdfrwt beam="2">  1       21 0.11844309E+00 0.27105197E+03</pdfrwt>
<totfact> 0.21001180E+04</totfact>
</mgrwt>
</event>
<event>
 4    0  0.1232815E-001  0.2418419E+03  0.7546771E-02  0.1118572E+00
         21   -1    0    0  503  501  0.00000000000E+00  0.00000000000E+00  0.10752409492E+03  0.10752409492E+03  0.00000000000E+00 0. -1.
         21   -1    0    0  501  502 -0.00000000000E+00 -0.00000000000E+00 -0.53255412263E+03  0.53255412263E+03  0.00000000000E+00 0. -1.
         25    1    1    2    0    0 -0.19451729642E+03 -0.70890956531E+02 -0.33773462302E+03  0.41539400804E+03  0.12500000000E+03 0.  0.
         21    1    1    2  503  502  0.19451729642E+03  0.70890956531E+02 -0.87295404685E+02  0.22468420951E+03  0.00000000000E+00 0. -1.
<mgrwt>
<rscale>  3 0.24184190E+03</rscale>
<asrwt>0</asrwt>
<pdfrwt beam="1">  1       21 0.16542169E-01 0.24184190E+03</pdfrwt>
<pdfrwt beam="2">  1       21 0.81931402E-01 0.24184190E+03</pdfrwt>
<totfact> 0.41736144E+04</totfact>
</mgrwt>
</event>
<event>
 4    0  0.1316460E-001  0.5330767E+03  0.7546771E-02  0.1005489E+00
         21   -1    0    0  503  501  0.00000000000E+00  0.00000000000E+00  0.96547611928E+03  0.96547611928E+03  0.00000000000E+00 0.  1.
         21   -1    0    0  501  502 -0.00000000000E+00 -0.00000000000E+00 -0.30151469907E+03  0.30151469907E+03  0.00000000000E+00 0.  1.
         25    1    1    2    0    0  0.28022524799E+03  0.43591236530E+03  0.47927228341E+03  0.71684914834E+03  0.12500000000E+03 0.  0.
         21    1    1    2  503  502 -0.28022524799E+03 -0.43591236530E+03  0.18468913681E+03  0.55014167001E+03  0.00000000000E+00 0.  1.
<mgrwt>
<rscale>  3 0.53307671E+03</rscale>
<asrwt>0</asrwt>
<pdfrwt beam="1">  1       21 0.14853479E+00 0.53307671E+03</pdfrwt>
<pdfrwt beam="2">  1       21 0.46386877E-01 0.53307671E+03</pdfrwt>
<totfact> 0.11205213E+03</totfact>
</mgrwt>
</event>
<event>
 4    0  0.1003929E-001  0.2805604E+03  0.7546771E-02  0.1095383E+00
         21   -1    0    0  502  501  0.00000000000E+00  0.00000000000E+00  0.34067228963E+02  0.34067228963E+02  0.00000000000E+00 0. -1.
         21   -1    0    0  503  502 -0.00000000000E+00 -0.00000000000E+00 -0.24358956649E+04  0.24358956649E+04  0.00000000000E+00 0. -1.
         25    1    1    2    0    0  0.19782848109E+03  0.15476773523E+03 -0.78263177017E+03  0.83140041345E+03  0.12500000000E+03 0.  0.
         21    1    1    2  503  501 -0.19782848109E+03 -0.15476773523E+03 -0.16191966657E+04  0.16385624804E+04  0.00000000000E+00 0. -1.
<mgrwt>
<rscale>  3 0.28056044E+03</rscale>
<asrwt>0</asrwt>
<pdfrwt beam="1">  1       21 0.52411121E-02 0.28056044E+03</pdfrwt>
<pdfrwt beam="2">  1       21 0.37475318E+00 0.28056044E+03</pdfrwt>
<totfact> 0.27953190E+03</totfact>
</mgrwt>
</event>
<event>
 4    0  0.1296451E-001  0.2443703E+03  0.7546771E-02  0.1116915E+00
         21   -1    0    0  502  501  0.00000000000E+00  0.00000000000E+00  0.22524629771E+03  0.22524629771E+03  0.00000000000E+00 0. -1.
         21   -1    0    0  503  502 -0.00000000000E+00 -0.00000000000E+00 -0.62977417048E+03  0.62977417048E+03  0.00000000000E+00 0. -1.
         25    1    1    2    0    0 -0.19180174659E+03  0.85462941333E+02  0.13279820359E+03  0.27812261183E+03  0.12500000000E+03 0.  0.
         21    1    1    2  503  501  0.19180174659E+03 -0.85462941333E+02 -0.53732607636E+03  0.57689785636E+03  0.00000000000E+00 0. -1.
<mgrwt>
<rscale>  3 0.24437026E+03</rscale>
<asrwt>0</asrwt>
<pdfrwt beam="1">  1       21 0.34653277E-01 0.24437026E+03</pdfrwt>
<pdfrwt beam="2">  1       21 0.96888333E-01 0.24437026E+03</pdfrwt>
<totfact> 0.68522353E+03</totfact>
</mgrwt>
</event>
<event>
 4    0  0.1003929E-001  0.2983432E+03  0.7546771E-02  0.1086072E+00
         21   -1    0    0  503  501  0.00000000000E+00  0.00000000000E+00  0.57025716069E+03  0.57025716069E+03  0.00000000000E+00 0.  1.
         21   -1    0    0  501  502 -0.00000000000E+00 -0.00000000000E+00 -0.16784287867E+03  0.16784287867E+03  0.00000000000E+00 0. -1.
         25    1    1    2    0    0  0.23916328073E+03 -0.12721873317E+03  0.35393438019E+03  0.46290196197E+03  0.12500000000E+03 0.  0.
         21    1    1    2  503  502 -0.23916328073E+03  0.12721873317E+03  0.48479901836E+02  0.27519807739E+03  0.00000000000E+00 0. -1.
<mgrwt>
<rscale>  3 0.29834323E+03</rscale>
<asrwt>0</asrwt>
<pdfrwt beam="1">  1       21 0.87731870E-01 0.29834323E+03</pdfrwt>
<pdfrwt beam="2">  1       21 0.25821982E-01 0.29834323E+03</pdfrwt>
<totfact> 0.14998114E+04</totfact>
</mgrwt>
</event>
<event>
 4    0  0.1296329E-001  0.3286479E+03  0.7546771E-02  0.1071737E+00
         21   -1    0    0  503  501  0.00000000000E+00  0.00000000000E+00  0.12718321810E+03  0.12718321810E+03  0.00000000000E+00 0.  1.
         21   -1    0    0  501  502 -0.00000000000E+00 -0.00000000000E+00 -0.10237845479E+04  0.10237845479E+04  0.00000000000E+00 0.  1.
         25    1    1    2    0    0  0.29487843641E+03 -0.73696330969E+02 -0.18492652630E+03  0.37710378092E+03  0.12500000000E+03 0.  0.
         21    1    1    2  503  502 -0.29487843641E+03  0.73696330969E+02 -0.71167480349E+03  0.77386398506E+03  0.00000000000E+00 0.  1.
<mgrwt>
<rscale>  3 0.32864790E+03</rscale>
<asrwt>0</asrwt>
<pdfrwt beam="1">  1       21 0.19566648E-01 0.32864790E+03</pdfrwt>
<pdfrwt beam="2">  1       21 0.15750532E+00 0.32864790E+03</pdfrwt>
<totfact> 0.57855120E+03</totfact>
</mgrwt>
</event>
<event>
 4    0  0.1700652E-001  0.2485499E+03  0.7546771E-02  0.1114225E+00
         21   -1    0    0  502  501  0.00000000000E+00  0.00000000000E+00  0.42737551667E+03  0.42737551667E+03  0.00000000000E+00 0.  1.
         21   -1    0    0  503  502 -0.00000000000E+00 -0.00000000000E+00 -0.32039412798E+03  0.32039412798E+03  0.00000000000E+00 0. -1.
         25    1    1    2    0    0  0.14240034364E+03 -0.16085457232E+03  0.34624068261E+03  0.42621551075E+03  0.12500000000E+03 0.  0.
         21    1    1    2  503  501 -0.14240034364E+03  0.16085457232E+03 -0.23925929392E+03  0.32155413390E+03  0.00000000000E+00 0. -1.
<mgrwt>
<rscale>  3 0.24854990E+03</rscale>
<asrwt>0</asrwt>
<pdfrwt beam="1">  1       21 0.65750080E-01 0.24854990E+03</pdfrwt>
<pdfrwt beam="2">  1       21 0.49291404E-01 0.24854990E+03</pdfrwt>
<totfact> 0.80464454E+03</totfact>
</mgrwt>
</event>
<event>
 4    0  0.1237191E-001  0.2844354E+03  0.7546771E-02  0.1093291E+00
         21   -1    0    0  503  501  0.00000000000E+00  0.00000000000E+00  0.25617516114E+03  0.25617516114E+03  0.00000000000E+00 0.  1.
         21   -1    0    0  501  502 -0.00000000000E+00 -0.00000000000E+00 -0.42169549770E+03  0.42169549770E+03  0.00000000000E+00 0. -1.
         25    1    1    2    0    0  0.17723572477E+03 -0.18402711846E+03  0.10738509158E+03  0.30403131477E+03  0.12500000000E+03 0.  0.
         21    1    1    2  503  502 -0.17723572477E+03  0.18402711846E+03 -0.27290542815E+03  0.37383934407E+03  0.00000000000E+00 0. -1.
<mgrwt>
<rscale>  3 0.28443537E+03</rscale>
<asrwt>0</asrwt>
<pdfrwt beam="1">  1       21 0.39411563E-01 0.28443537E+03</pdfrwt>
<pdfrwt beam="2">  1       21 0.64876231E-01 0.28443537E+03</pdfrwt>
<totfact> 0.12909166E+04</totfact>
</mgrwt>
</event>
<event>
 4    0  0.1253633E-001  0.3081521E+03  0.7546771E-02  0.1081235E+00
         21   -1    0    0  502  501  0.00000000000E+00  0.00000000000E+00  0.12079422376E+04  0.12079422376E+04  0.00000000000E+00 0.  1.
         21   -1    0    0  503  502 -0.00000000000E+00 -0.00000000000E+00 -0.81033791463E+02  0.81033791463E+02  0.00000000000E+00 0.  1.
         25    1    1    2    0    0  0.75710126983E+01  0.28155881711E+03  0.80095507295E+03  0.85818804268E+03  0.12500000000E+03 0.  0.
         21    1    1    2  503  501 -0.75710126983E+01 -0.28155881711E+03  0.32595337324E+03  0.43078798643E+03  0.00000000000E+00 0.  1.
<mgrwt>
<rscale>  3 0.30815205E+03</rscale>
<asrwt>0</asrwt>
<pdfrwt beam="1">  1       21 0.18583725E+00 0.30815205E+03</pdfrwt>
<pdfrwt beam="2">  1       21 0.12466738E-01 0.30815205E+03</pdfrwt>
<totfact> 0.84330121E+03</totfact>
</mgrwt>
</event>
<event>
 4    0  0.1280347E-001  0.2554978E+03  0.7546771E-02  0.1109879E+00
         21   -1    0    0  503  501  0.00000000000E+00  0.00000000000E+00  0.16304413375E+03  0.16304413375E+03  0.00000000000E+00 0.  1.
         21   -1    0    0  501  502 -0.00000000000E+00 -0.00000000000E+00 -0.52766272240E+03  0.52766272240E+03  0.00000000000E+00 0.  1.
         25    1    1    2    0    0 -0.21822327207E+02 -0.22176088705E+03  0.90309756524E+01  0.25565731656E+03  0.12500000000E+03 0.  0.
         21    1    1    2  503  502  0.21822327207E+02  0.22176088705E+03 -0.37364956430E+03  0.43504953958E+03  0.00000000000E+00 0.  1.
<mgrwt>
<rscale>  3 0.25549776E+03</rscale>
<asrwt>0</asrwt>
<pdfrwt beam="1">  1       21 0.25083713E-01 0.25549776E+03</pdfrwt>
<pdfrwt beam="2">  1       21 0.81178880E-01 0.25549776E+03</pdfrwt>
<totfact> 0.19345012E+04</totfact>
</mgrwt>
</event>
<event>
 4    0  0.1003929E-001  0.2519023E+03  0.7546771E-02  0.1112108E+00
         21   -1    0    0  502  501  0.00000000000E+00  0.00000000000E+00  0.34067419558E+02  0.34067419558E+02  0.00000000000E+00 0.  1.
         21   -1    0    0  503  502 -0.00000000000E+00 -0.00000000000E+00 -0.17058043067E+04  0.17058043067E+04  0.00000000000E+00 0.  1.
         25    1    1    2    0    0 -0.14451548486E+03  0.16414952788E+03 -0.10806988843E+04  0.11096688115E+04  0.12500000000E+03 0.  0.
         21    1    1    2  503  501  0.14451548486E+03 -0.16414952788E+03 -0.59103800288E+03  0.63020291472E+03  0.00000000000E+00 0.  1.
<mgrwt>
<rscale>  3 0.25190235E+03</rscale>
<asrwt>0</asrwt>
<pdfrwt beam="1">  1       21 0.52411421E-02 0.25190235E+03</pdfrwt>
<pdfrwt beam="2">  1       21 0.26243140E+00 0.25190235E+03</pdfrwt>
<totfact> 0.13285438E+04</totfact>
</mgrwt>
</event>
<event>
 4    0  0.1003929E-001  0.2727004E+03  0.7546771E-02  0.1099744E+00
         21   -1    0    0  503  501  0.00000000000E+00  0.00000000000E+00  0.82300512531E+03  0.82300512531E+03  0.00000000000E+00 0. -1.
         21   -1    0    0  501  502 -0.00000000000E+00 -0.00000000000E+00 -0.99724793279E+02  0.99724793279E+02  0.00000000000E+00 0.  1.
         25    1    1    2    0    0  0.24062720453E+03  0.28966618144E+02  0.58068284238E+03  0.64152792610E+03  0.12500000000E+03 0.  0.
         21    1    1    2  503  502 -0.24062720453E+03 -0.28966618144E+02  0.14259748965E+03  0.28120199249E+03  0.00000000000E+00 0.  1.
<mgrwt>
<rscale>  3 0.27270042E+03</rscale>
<asrwt>0</asrwt>
<pdfrwt beam="1">  1       21 0.12661617E+00 0.27270042E+03</pdfrwt>
<pdfrwt beam="2">  1       21 0.15342276E-01 0.27270042E+03</pdfrwt>
<totfact> 0.16604902E+04</totfact>
</mgrwt>
</event>
<event>
 4    0  0.1327803E-001  0.2984361E+03  0.7546771E-02  0.1086025E+00
         21   -1    0    0  502  501  0.00000000000E+00  0.00000000000E+00  0.23628063316E+03  0.23628063316E+03  0.00000000000E+00 0.  1.
         21   -1    0    0  503  502 -0.00000000000E+00 -0.00000000000E+00 -0.36082448206E+03  0.36082448206E+03  0.00000000000E+00 0.  1.
         25    1    1    2    0    0 -0.12408768891E+03 -0.24091777286E+03 -0.13125719727E+03  0.32602542792E+03  0.12500000000E+03 0.  0.
         21    1    1    2  503  501  0.12408768891E+03  0.24091777286E+03  0.67133483677E+01  0.27107968730E+03  0.00000000000E+00 0.  1.
<mgrwt>
<rscale>  3 0.29843614E+03</rscale>
<asrwt>0</asrwt>
<pdfrwt beam="1">  1       21 0.36350867E-01 0.29843614E+03</pdfrwt>
<pdfrwt beam="2">  1       21 0.55511458E-01 0.29843614E+03</pdfrwt>
<totfact> 0.21197723E+04</totfact>
</mgrwt>
</event>
<event>
 4    0  0.1704905E-001  0.2549786E+03  0.7546771E-02  0.1110198E+00
         21   -1    0    0  503  501  0.00000000000E+00  0.00000000000E+00  0.38461161401E+03  0.38461161401E+03  0.00000000000E+00 0. -1.
         21   -1    0    0  501  502 -0.00000000000E+00 -0.00000000000E+00 -0.45782710634E+03  0.45782710634E+03  0.00000000000E+00 0.  1.
         25    1    1    2    0    0  0.17801542610E+03 -0.13303990645E+03  0.30881145585E+03  0.40047300022E+03  0.12500000000E+03 0.  0.
         21    1    1    2  503  502 -0.17801542610E+03  0.13303990645E+03 -0.38202694818E+03  0.44196572014E+03  0.00000000000E+00 0.  1.
<mgrwt>
<rscale>  3 0.25497864E+03</rscale>
<asrwt>0</asrwt>
<pdfrwt beam="1">  1       21 0.59171018E-01 0.25497864E+03</pdfrwt>
<pdfrwt beam="2">  1       21 0.70434939E-01 0.25497864E+03</pdfrwt>
<totfact> 0.46705878E+03</totfact>
</mgrwt>
</event>
<event>
 4    0  0.1246269E-001  0.4715133E+03  0.7546771E-02  0.1021494E+00
         21   -1    0    0  503  501  0.00000000000E+00  0.00000000000E+00  0.52070683206E+03  0.52070683206E+03  0.00000000000E+00 0.  1.
         21   -1    0    0  501  502 -0.00000000000E+00 -0.00000000000E+00 -0.48520866888E+03  0.48520866888E+03  0.00000000000E+00 0.  1.
         25    1    1    2    0    0  0.44469816964E+03 -0.94568977299E+02  0.21359251864E+03  0.51763550647E+03  0.12500000000E+03 0.  0.
         21    1    1    2  503  502 -0.44469816964E+03  0.94568977299E+02 -0.17809435546E+03  0.48827999446E+03  0.00000000000E+00 0.  1.
<mgrwt>
<rscale>  3 0.47151326E+03</rscale>
<asrwt>0</asrwt>
<pdfrwt beam="1">  1       21 0.80108744E-01 0.47151326E+03</pdfrwt>
<pdfrwt beam="2">  1       21 0.74647487E-01 0.47151326E+03</pdfrwt>
<totfact> 0.18851228E+03</totfact>
</mgrwt>
</event>
<event>
 4    0  0.1441919E-001  0.2444111E+03  0.7546771E-02  0.1116889E+00
         21   -1    0    0  502  501  0.00000000000E+00  0.00000000000E+00  0.19413937200E+03  0.19413937200E+03  0.00000000000E+00 0. -1.
         21   -1    0    0  503  502 -0.00000000000E+00 -0.00000000000E+00 -0.26886874261E+03  0.26886874261E+03  0.00000000000E+00 0. -1.
         25    1    1    2    0    0 -0.20023123996E+03 -0.63397560572E+02 -0.16053344013E+02  0.24493776760E+03  0.12500000000E+03 0.  0.
         21    1    1    2  503  501  0.20023123996E+03  0.63397560572E+02 -0.58676026598E+02  0.21807034700E+03  0.00000000000E+00 0. -1.
<mgrwt>
<rscale>  3 0.24441113E+03</rscale>
<asrwt>0</asrwt>
<pdfrwt beam="1">  1       21 0.29867596E-01 0.24441113E+03</pdfrwt>
<pdfrwt beam="2">  1       21 0.41364422E-01 0.24441113E+03</pdfrwt>
<totfact> 0.59158580E+04</totfact>
</mgrwt>
</event>
<event>
 4    0  0.1339797E-001  0.2441343E+03  0.7546771E-02  0.1117069E+00
         21   -1    0    0  502  501  0.00000000000E+00  0.00000000000E+00  0.65384238638E+02  0.65384238638E+02  0.00000000000E+00 0. -1.
         21   -1    0    0  503  502 -0.00000000000E+00 -0.00000000000E+00 -0.78897536541E+03  0.78897536541E+03  0.00000000000E+00 0. -1.
         25    1    1    2    0    0  0.18927640400E+03  0.90282945081E+02 -0.37102683998E+03  0.44414241327E+03  0.12500000000E+03 0.  0.
         21    1    1    2  503  501 -0.18927640400E+03 -0.90282945081E+02 -0.35256428679E+03  0.41021719078E+03  0.00000000000E+00 0. -1.
<mgrwt>
<rscale>  3 0.24413432E+03</rscale>
<asrwt>0</asrwt>
<pdfrwt beam="1">  1       21 0.10059114E-01 0.24413432E+03</pdfrwt>
<pdfrwt beam="2">  1       21 0.12138082E+00 0.24413432E+03</pdfrwt>
<totfact> 0.40142823E+04</totfact>
</mgrwt>
</event>
<event>
 4    0  0.1003929E-001  0.2719242E+03  0.7546771E-02  0.1100183E+00
         21   -1    0    0  503  501  0.00000000000E+00  0.00000000000E+00  0.28847889240E+04  0.28847889240E+04  0.00000000000E+00 0.  1.
         21   -1    0    0  501  502 -0.00000000000E+00 -0.00000000000E+00 -0.27021903854E+02  0.27021903854E+02  0.00000000000E+00 0.  1.
         25    1    1    2    0    0  0.11967906627E+03 -0.20974914745E+03  0.92883164081E+03  0.96781764849E+03  0.12500000000E+03 0.  0.
         21    1    1    2  503  502 -0.11967906627E+03  0.20974914745E+03  0.19289353794E+04  0.19439931794E+04  0.00000000000E+00 0.  1.
<mgrwt>
<rscale>  3 0.27192422E+03</rscale>
<asrwt>0</asrwt>
<pdfrwt beam="1">  1       21 0.44381344E+00 0.27192422E+03</pdfrwt>
<pdfrwt beam="2">  1       21 0.41572183E-02 0.27192422E+03</pdfrwt>
<totfact> 0.15166535E+03</totfact>
</mgrwt>
</event>
<event>
 4    0  0.1003929E-001  0.3385257E+03  0.7546771E-02  0.1067426E+00
         21   -1    0    0  503  501  0.00000000000E+00  0.00000000000E+00  0.53288177729E+03  0.53288177729E+03  0.00000000000E+00 0. -1.
         21   -1    0    0  501  502 -0.00000000000E+00 -0.00000000000E+00 -0.94709641457E+03  0.94709641457E+03  0.00000000000E+00 0. -1.
         25    1    1    2    0    0 -0.29395685116E+03 -0.11208920312E+03  0.44836940661E+03  0.56181379885E+03  0.12500000000E+03 0.  0.
         21    1    1    2  503  502  0.29395685116E+03  0.11208920312E+03 -0.86258404389E+03  0.91816439300E+03  0.00000000000E+00 0. -1.
<mgrwt>
<rscale>  3 0.33852566E+03</rscale>
<asrwt>0</asrwt>
<pdfrwt beam="1">  1       21 0.81981813E-01 0.33852566E+03</pdfrwt>
<pdfrwt beam="2">  1       21 0.14570714E+00 0.33852566E+03</pdfrwt>
<totfact> 0.36939366E+02</totfact>
</mgrwt>
</event>
<event>
 4    0  0.1003929E-001  0.2490248E+03  0.7546771E-02  0.1113923E+00
         21   -1    0    0  502  501  0.00000000000E+00  0.00000000000E+00  0.73076746546E+02  0.73076746546E+02  0.00000000000E+00 0.  1.
         21   -1    0    0  503  502 -0.00000000000E+00 -0.00000000000E+00 -0.10312014400E+04  0.10312014400E+04  0.00000000000E+00 0.  1.
         25    1    1    2    0    0 -0.91295906735E+02 -0.19507281208E+03 -0.79784463634E+03  0.83580464723E+03  0.12500000000E+03 0.  0.
         21    1    1    2  503  501  0.91295906735E+02  0.19507281208E+03 -0.16028005709E+03  0.26847353929E+03  0.00000000000E+00 0.  1.
<mgrwt>
<rscale>  3 0.24902479E+03</rscale>
<asrwt>0</asrwt>
<pdfrwt beam="1">  1       21 0.11242576E-01 0.24902479E+03</pdfrwt>
<pdfrwt beam="2">  1       21 0.15864638E+00 0.24902479E+03</pdfrwt>
<totfact> 0.16371220E+04</totfact>
</mgrwt>
</event>
<event>
 4    0  0.1329165E-001  0.2689457E+03  0.7546771E-02  0.1101885E+00
         21   -1    0    0  502  501  0.00000000000E+00  0.00000000000E+00  0.97969490040E+03  0.97969490040E+03  0.00000000000E+00 0. -1.
         21   -1    0    0  503  502 -0.00000000000E+00 -0.00000000000E+00 -0.10442875743E+03  0.10442875743E+03  0.00000000000E+00 0. -1.
         25    1    1    2    0    0  0.86638455295E+02 -0.22181197252E+03  0.78443187701E+03  0.82925577644E+03  0.12500000000E+03 0.  0.
         21    1    1    2  503  501 -0.86638455295E+02  0.22181197252E+03  0.90834265963E+02  0.25486788139E+03  0.00000000000E+00 0. -1.
<mgrwt>
<rscale>  3 0.26894567E+03</rscale>
<asrwt>0</asrwt>
<pdfrwt beam="1">  1       21 0.15072229E+00 0.26894567E+03</pdfrwt>
<pdfrwt beam="2">  1       21 0.16065963E-01 0.26894567E+03</pdfrwt>
<totfact> 0.97119315E+03</totfact>
</mgrwt>
</event>
<event>
 4    0  0.1003929E-001  0.2886410E+03  0.7546771E-02  0.1091061E+00
         21   -1    0    0  502  501  0.00000000000E+00  0.00000000000E+00  0.51780257410E+02  0.51780257410E+02  0.00000000000E+00 0.  1.
         21   -1    0    0  503  502 -0.00000000000E+00 -0.00000000000E+00 -0.23347305371E+04  0.23347305371E+04  0.00000000000E+00 0.  1.
         25    1    1    2    0    0  0.24796321234E+03  0.78758474406E+02 -0.44616676326E+03  0.53139291734E+03  0.12500000000E+03 0.  0.
         21    1    1    2  503  501 -0.24796321234E+03 -0.78758474406E+02 -0.18367835165E+04  0.18551178772E+04  0.00000000000E+00 0.  1.
<mgrwt>
<rscale>  3 0.28864104E+03</rscale>
<asrwt>0</asrwt>
<pdfrwt beam="1">  1       21 0.79661928E-02 0.28864104E+03</pdfrwt>
<pdfrwt beam="2">  1       21 0.35918934E+00 0.28864104E+03</pdfrwt>
<totfact> 0.16710722E+03</totfact>
</mgrwt>
</event>
<event>
 4    0  0.1357769E-001  0.2890373E+03  0.7546771E-02  0.1090853E+00
         21   -1    0    0  502  501  0.00000000000E+00  0.00000000000E+00  0.29104074969E+03  0.29104074969E+03  0.00000000000E+00 0.  1.
         21   -1    0    0  503  502 -0.00000000000E+00 -0.00000000000E+00 -0.35949253912E+03  0.35949253912E+03  0.00000000000E+00 0.  1.
         25    1    1    2    0    0 -0.39968011257E+02 -0.25752690406E+03  0.13586703366E+03  0.31937814433E+03  0.12500000000E+03 0.  0.
         21    1    1    2  503  501  0.39968011257E+02  0.25752690406E+03 -0.20431882310E+03  0.33115514448E+03  0.00000000000E+00 0.  1.
<mgrwt>
<rscale>  3 0.28903728E+03</rscale>
<asrwt>0</asrwt>
<pdfrwt beam="1">  1       21 0.44775500E-01 0.28903728E+03</pdfrwt>
<pdfrwt beam="2">  1       21 0.55306544E-01 0.28903728E+03</pdfrwt>
<totfact> 0.14010552E+04</totfact>
</mgrwt>
</event>
<event>
 4    0  0.1271958E-001  0.2866508E+03  0.7546771E-02  0.1092111E+00
         21   -1    0    0  502  501  0.00000000000E+00  0.00000000000E+00  0.67631045072E+03  0.67631045072E+03  0.00000000000E+00 0. -1.
         21   -1    0    0  503  502 -0.00000000000E+00 -0.00000000000E+00 -0.22476529929E+03  0.22476529929E+03  0.00000000000E+00 0. -1.
         25    1    1    2    0    0  0.22117277146E+03 -0.13276396004E+03  0.55379890936E+03  0.62358792157E+03  0.12500000000E+03 0.  0.
         21    1    1    2  503  501 -0.22117277146E+03  0.13276396004E+03 -0.10225375793E+03  0.27748782844E+03  0.00000000000E+00 0. -1.
<mgrwt>
<rscale>  3 0.28665077E+03</rscale>
<asrwt>0</asrwt>
<pdfrwt beam="1">  1       21 0.10404776E+00 0.28665077E+03</pdfrwt>
<pdfrwt beam="2">  1       21 0.34579277E-01 0.28665077E+03</pdfrwt>
<totfact> 0.56620178E+03</totfact>
</mgrwt>
</event>
<event>
 4    0  0.1071031E-001  0.2871125E+03  0.7546771E-02  0.1091866E+00
         21   -1    0    0  503  501  0.00000000000E+00  0.00000000000E+00  0.49519975868E+03  0.49519975868E+03  0.00000000000E+00 0.  1.
         21   -1    0    0  501  502 -0.00000000000E+00 -0.00000000000E+00 -0.77371892369E+03  0.77371892369E+03  0.00000000000E+00 0.  1.
         25    1    1    2    0    0 -0.25427615135E+03  0.46391832581E+02  0.42869083608E+03  0.51595483932E+03  0.12500000000E+03 0.  0.
         21    1    1    2  503  502  0.25427615135E+03 -0.46391832581E+02 -0.70721000110E+03  0.75296384305E+03  0.00000000000E+00 0.  1.
<mgrwt>
<rscale>  3 0.28711246E+03</rscale>
<asrwt>0</asrwt>
<pdfrwt beam="1">  1       21 0.76184578E-01 0.28711246E+03</pdfrwt>
<pdfrwt beam="2">  1       21 0.11903368E+00 0.28711246E+03</pdfrwt>
<totfact> 0.76206130E+02</totfact>
</mgrwt>
</event>
<event>
 4    0  0.1003929E-001  0.3162708E+03  0.7546771E-02  0.1077378E+00
         21   -1    0    0  502  501  0.00000000000E+00  0.00000000000E+00  0.11682393881E+04  0.11682393881E+04  0.00000000000E+00 0.  1.
         21   -1    0    0  503  502 -0.00000000000E+00 -0.00000000000E+00 -0.14073402585E+04  0.14073402585E+04  0.00000000000E+00 0.  1.
         25    1    1    2    0    0  0.20880556662E+03 -0.20199621611E+03  0.11313232397E+04  0.11746997525E+04  0.12500000000E+03 0.  0.
         21    1    1    2  503  501 -0.20880556662E+03  0.20199621611E+03 -0.13704241101E+04  0.14008798941E+04  0.00000000000E+00 0.  1.
<mgrwt>
<rscale>  3 0.31627083E+03</rscale>
<asrwt>0</asrwt>
<pdfrwt beam="1">  1       21 0.17972914E+00 0.31627083E+03</pdfrwt>
<pdfrwt beam="2">  1       21 0.21651389E+00 0.31627083E+03</pdfrwt>
<totfact> 0.16303381E+01</totfact>
</mgrwt>
</event>
<event>
 4    0  0.1229915E-001  0.3184428E+03  0.7546771E-02  0.1076368E+00
         21   -1    0    0  502  501  0.00000000000E+00  0.00000000000E+00  0.20577403964E+03  0.20577403964E+03  0.00000000000E+00 0.  1.
         21   -1    0    0  503  502 -0.00000000000E+00 -0.00000000000E+00 -0.62849501029E+03  0.62849501029E+03  0.00000000000E+00 0.  1.
         25    1    1    2    0    0 -0.24647318812E+03  0.15821446122E+03  0.18848074320E+01  0.31844842706E+03  0.12500000000E+03 0.  0.
         21    1    1    2  503  501  0.24647318812E+03 -0.15821446122E+03 -0.42460577809E+03  0.51582062287E+03  0.00000000000E+00 0.  1.
<mgrwt>
<rscale>  3 0.31844285E+03</rscale>
<asrwt>0</asrwt>
<pdfrwt beam="1">  1       21 0.31657545E-01 0.31844285E+03</pdfrwt>
<pdfrwt beam="2">  1       21 0.96691539E-01 0.31844285E+03</pdfrwt>
<totfact> 0.79295160E+03</totfact>
</mgrwt>
</event>
<event>
 4    0  0.1484319E-001  0.3774480E+03  0.7546771E-02  0.1051881E+00
         21   -1    0    0  503  501  0.00000000000E+00  0.00000000000E+00  0.66023137761E+03  0.66023137761E+03  0.00000000000E+00 0.  1.
         21   -1    0    0  501  502 -0.00000000000E+00 -0.00000000000E+00 -0.22329235129E+03  0.22329235129E+03  0.00000000000E+00 0.  1.
         25    1    1    2    0    0 -0.35168115891E+03 -0.56234643772E+02  0.35480133601E+03  0.51802602321E+03  0.12500000000E+03 0.  0.
         21    1    1    2  503  502  0.35168115891E+03  0.56234643772E+02  0.82137690314E+02  0.36549770569E+03  0.00000000000E+00 0.  1.
<mgrwt>
<rscale>  3 0.37744797E+03</rscale>
<asrwt>0</asrwt>
<pdfrwt beam="1">  1       21 0.10157406E+00 0.37744797E+03</pdfrwt>
<pdfrwt beam="2">  1       21 0.34352670E-01 0.37744797E+03</pdfrwt>
<totfact> 0.58356151E+03</totfact>
</mgrwt>
</event>
<event>
 4    0  0.1030431E-001  0.2743066E+03  0.7546771E-02  0.1098840E+00
         21   -1    0    0  502  501  0.00000000000E+00  0.00000000000E+00  0.12060706580E+04  0.12060706580E+04  0.00000000000E+00 0. -1.
         21   -1    0    0  503  502 -0.00000000000E+00 -0.00000000000E+00 -0.67287108713E+03  0.67287108713E+03  0.00000000000E+00 0. -1.
         25    1    1    2    0    0  0.69842442949E+02 -0.23396821170E+03  0.11674877289E+04  0.11992796538E+04  0.12500000000E+03 0.  0.
         21    1    1    2  503  501 -0.69842442949E+02  0.23396821170E+03 -0.63428815805E+03  0.67966209131E+03  0.00000000000E+00 0. -1.
<mgrwt>
<rscale>  3 0.27430656E+03</rscale>
<asrwt>0</asrwt>
<pdfrwt beam="1">  1       21 0.18554933E+00 0.27430656E+03</pdfrwt>
<pdfrwt beam="2">  1       21 0.10351863E+00 0.27430656E+03</pdfrwt>
<totfact> 0.11467771E+02</totfact>
</mgrwt>
</event>
<event>
 4    0  0.1003929E-001  0.2369936E+03  0.7546771E-02  0.1121812E+00
         21   -1    0    0  502  501  0.00000000000E+00  0.00000000000E+00  0.56771127289E+02  0.56771127289E+02  0.00000000000E+00 0. -1.
         21   -1    0    0  503  502 -0.00000000000E+00 -0.00000000000E+00 -0.11702039237E+04  0.11702039237E+04  0.00000000000E+00 0. -1.
         25    1    1    2    0    0  0.19737340749E+03 -0.39808291155E+02 -0.91152478458E+03  0.94182981209E+03  0.12500000000E+03 0.  0.
         21    1    1    2  503  501 -0.19737340749E+03  0.39808291155E+02 -0.20190801184E+03  0.28514523892E+03  0.00000000000E+00 0. -1.
<mgrwt>
<rscale>  3 0.23699359E+03</rscale>
<asrwt>0</asrwt>
<pdfrwt beam="1">  1       21 0.87340205E-02 0.23699359E+03</pdfrwt>
<pdfrwt beam="2">  1       21 0.18003135E+00 0.23699359E+03</pdfrwt>
<totfact> 0.18165063E+04</totfact>
</mgrwt>
</event>
<event>
 4    0  0.1003929E-001  0.2359684E+03  0.7546771E-02  0.1122508E+00
         21   -1    0    0  503  501  0.00000000000E+00  0.00000000000E+00  0.29901945220E+03  0.29901945220E+03  0.00000000000E+00 0.  1.
         21   -1    0    0  501  502 -0.00000000000E+00 -0.00000000000E+00 -0.19526782613E+03  0.19526782613E+03  0.00000000000E+00 0. -1.
         25    1    1    2    0    0 -0.14784420066E+01  0.20013466360E+03  0.16154688688E+03  0.28596934455E+03  0.12500000000E+03 0.  0.
         21    1    1    2  503  502  0.14784420066E+01 -0.20013466360E+03 -0.57795260809E+02  0.20831793378E+03  0.00000000000E+00 0. -1.
<mgrwt>
<rscale>  3 0.23596837E+03</rscale>
<asrwt>0</asrwt>
<pdfrwt beam="1">  1       21 0.46002992E-01 0.23596837E+03</pdfrwt>
<pdfrwt beam="2">  1       21 0.30041204E-01 0.23596837E+03</pdfrwt>
<totfact> 0.47169953E+04</totfact>
</mgrwt>
</event>
<event>
 4    0  0.1003929E-001  0.3400464E+03  0.7546771E-02  0.1066776E+00
         21   -1    0    0  503  501  0.00000000000E+00  0.00000000000E+00  0.24871151507E+04  0.24871151507E+04  0.00000000000E+00 0. -1.
         21   -1    0    0  501  502 -0.00000000000E+00 -0.00000000000E+00 -0.44020721281E+02  0.44020721281E+02  0.00000000000E+00 0. -1.
         25    1    1    2    0    0 -0.19805969811E+03 -0.24653373744E+03  0.11026349086E+04  0.11538783598E+04  0.12500000000E+03 0.  0.
         21    1    1    2  503  502  0.19805969811E+03  0.24653373744E+03  0.13404595209E+04  0.13772575122E+04  0.00000000000E+00 0. -1.
<mgrwt>
<rscale>  3 0.34004636E+03</rscale>
<asrwt>0</asrwt>
<pdfrwt beam="1">  1       21 0.38263299E+00 0.34004636E+03</pdfrwt>
<pdfrwt beam="2">  1       21 0.67724206E-02 0.34004636E+03</pdfrwt>
<totfact> 0.15241172E+03</totfact>
</mgrwt>
</event>
<event>
 4    0  0.1010845E-001  0.2752360E+03  0.7546771E-02  0.1098320E+00
         21   -1    0    0  503  501  0.00000000000E+00  0.00000000000E+00  0.10287390942E+04  0.10287390942E+04  0.00000000000E+00 0.  1.
         21   -1    0    0  501  502 -0.00000000000E+00 -0.00000000000E+00 -0.18904112505E+03  0.18904112505E+03  0.00000000000E+00 0.  1.
         25    1    1    2    0    0 -0.21146828859E+03  0.12414105834E+03  0.91957718467E+03  0.95988386694E+03  0.12500000000E+03 0.  0.
         21    1    1    2  503  502  0.21146828859E+03 -0.12414105834E+03 -0.79879215547E+02  0.25789635229E+03  0.00000000000E+00 0.  1.
<mgrwt>
<rscale>  3 0.27523597E+03</rscale>
<asrwt>0</asrwt>
<pdfrwt beam="1">  1       21 0.15826755E+00 0.27523597E+03</pdfrwt>
<pdfrwt beam="2">  1       21 0.29083251E-01 0.27523597E+03</pdfrwt>
<totfact> 0.27489184E+03</totfact>
</mgrwt>
</event>
<event>
 4    0  0.1351338E-001  0.2488344E+03  0.7546771E-02  0.1114044E+00
         21   -1    0    0  502  501  0.00000000000E+00  0.00000000000E+00  0.13671138802E+03  0.13671138802E+03  0.00000000000E+00 0. -1.
         21   -1    0    0  503  502 -0.00000000000E+00 -0.00000000000E+00 -0.58031998901E+03  0.58031998901E+03  0.00000000000E+00 0. -1.
         25    1    1    2    0    0  0.20233917725E+03  0.73160117211E+02 -0.29778320119E+02  0.25060984368E+03  0.12500000000E+03 0.  0.
         21    1    1    2  503  501 -0.20233917725E+03 -0.73160117211E+02 -0.41383028088E+03  0.46642153335E+03  0.00000000000E+00 0. -1.
<mgrwt>
<rscale>  3 0.24883437E+03</rscale>
<asrwt>0</asrwt>
<pdfrwt beam="1">  1       21 0.21032521E-01 0.24883437E+03</pdfrwt>
<pdfrwt beam="2">  1       21 0.89279999E-01 0.24883437E+03</pdfrwt>
<totfact> 0.21799904E+04</totfact>
</mgrwt>
</event>
<event>
 4    0  0.1272479E-001  0.2398167E+03  0.7546771E-02  0.1119915E+00
         21   -1    0    0  502  501  0.00000000000E+00  0.00000000000E+00  0.78584536856E+03  0.78584536856E+03  0.00000000000E+00 0.  1.
         21   -1    0    0  503  502 -0.00000000000E+00 -0.00000000000E+00 -0.85367144136E+02  0.85367144136E+02  0.00000000000E+00 0.  1.
         25    1    1    2    0    0  0.13046352287E+03  0.15769063176E+03  0.59383587721E+03  0.64043197547E+03  0.12500000000E+03 0.  0.
         21    1    1    2  503  501 -0.13046352287E+03 -0.15769063176E+03  0.10664234721E+03  0.23078053722E+03  0.00000000000E+00 0.  1.
<mgrwt>
<rscale>  3 0.23981673E+03</rscale>
<asrwt>0</asrwt>
<pdfrwt beam="1">  1       21 0.12089928E+00 0.23981673E+03</pdfrwt>
<pdfrwt beam="2">  1       21 0.13133407E-01 0.23981673E+03</pdfrwt>
<totfact> 0.25185964E+04</totfact>
</mgrwt>
</event>
<event>
 4    0  0.1426646E-001  0.2634300E+03  0.7546771E-02  0.1105100E+00
         21   -1    0    0  503  501  0.00000000000E+00  0.00000000000E+00  0.17731064648E+03  0.17731064648E+03  0.00000000000E+00 0.  1.
         21   -1    0    0  501  502 -0.00000000000E+00 -0.00000000000E+00 -0.35471206133E+03  0.35471206133E+03  0.00000000000E+00 0.  1.
         25    1    1    2    0    0  0.18128561843E+03 -0.14458869349E+03 -0.52396299615E+02  0.26859027896E+03  0.12500000000E+03 0.  0.
         21    1    1    2  503  502 -0.18128561843E+03  0.14458869349E+03 -0.12500511523E+03  0.26343242885E+03  0.00000000000E+00 0.  1.
<mgrwt>
<rscale>  3 0.26343000E+03</rscale>
<asrwt>0</asrwt>
<pdfrwt beam="1">  1       21 0.27278561E-01 0.26343000E+03</pdfrwt>
<pdfrwt beam="2">  1       21 0.54571086E-01 0.26343000E+03</pdfrwt>
<totfact> 0.39336229E+04</totfact>
</mgrwt>
</event>
<event>
 4    0  0.1003929E-001  0.2678429E+03  0.7546771E-02  0.1102521E+00
         21   -1    0    0  503  501  0.00000000000E+00  0.00000000000E+00  0.28880629362E+03  0.28880629362E+03  0.00000000000E+00 0.  1.
         21   -1    0    0  501  502 -0.00000000000E+00 -0.00000000000E+00 -0.31376383494E+03  0.31376383494E+03  0.00000000000E+00 0.  1.
         25    1    1    2    0    0 -0.22573007980E+03  0.71838206574E+02 -0.17704174047E+03  0.32106630891E+03  0.12500000000E+03 0.  0.
         21    1    1    2  503  502  0.22573007980E+03 -0.71838206574E+02  0.15208419914E+03  0.28150381965E+03  0.00000000000E+00 0.  1.
<mgrwt>
<rscale>  3 0.26784286E+03</rscale>
<asrwt>0</asrwt>
<pdfrwt beam="1">  1       21 0.44431738E-01 0.26784286E+03</pdfrwt>
<pdfrwt beam="2">  1       21 0.48271359E-01 0.26784286E+03</pdfrwt>
<totfact> 0.19162225E+04</totfact>
</mgrwt>
</event>
<event>
 4    0  0.1872070E-001  0.2712899E+03  0.7546771E-02  0.1100544E+00
         21   -1    0    0  503  501  0.00000000000E+00  0.00000000000E+00  0.51075913532E+03  0.51075913532E+03  0.00000000000E+00 0. -1.
         21   -1    0    0  501  502 -0.00000000000E+00 -0.00000000000E+00 -0.65840115881E+03  0.65840115881E+03  0.00000000000E+00 0.  1.
         25    1    1    2    0    0  0.23514890372E+03  0.51751331309E+02  0.44965753037E+03  0.52515721630E+03  0.12500000000E+03 0.  0.
         21    1    1    2  503  502 -0.23514890372E+03 -0.51751331309E+02 -0.59729955386E+03  0.64400307783E+03  0.00000000000E+00 0.  1.
<mgrwt>
<rscale>  3 0.27128990E+03</rscale>
<asrwt>0</asrwt>
<pdfrwt beam="1">  1       21 0.78578329E-01 0.27128990E+03</pdfrwt>
<pdfrwt beam="2">  1       21 0.10129249E+00 0.27128990E+03</pdfrwt>
<totfact> 0.10665519E+03</totfact>
</mgrwt>
</event>
<event>
 4    0  0.1549847E-001  0.2799248E+03  0.7546771E-02  0.1095730E+00
         21   -1    0    0  503  501  0.00000000000E+00  0.00000000000E+00  0.46429106583E+03  0.46429106583E+03  0.00000000000E+00 0.  1.
         21   -1    0    0  501  502 -0.00000000000E+00 -0.00000000000E+00 -0.17598364759E+03  0.17598364759E+03  0.00000000000E+00 0.  1.
         25    1    1    2    0    0  0.10388956408E+03 -0.22790314181E+03  0.27035728034E+03  0.38916698550E+03  0.12500000000E+03 0.  0.
         21    1    1    2  503  502 -0.10388956408E+03  0.22790314181E+03  0.17950137898E+02  0.25110772792E+03  0.00000000000E+00 0.  1.
<mgrwt>
<rscale>  3 0.27992478E+03</rscale>
<asrwt>0</asrwt>
<pdfrwt beam="1">  1       21 0.71429395E-01 0.27992478E+03</pdfrwt>
<pdfrwt beam="2">  1       21 0.27074407E-01 0.27992478E+03</pdfrwt>
<totfact> 0.22039286E+04</totfact>
</mgrwt>
</event>
<event>
 4    0  0.1536714E-001  0.2543785E+03  0.7546771E-02  0.1110569E+00
         21   -1    0    0  503  501  0.00000000000E+00  0.00000000000E+00  0.48638915743E+03  0.48638915743E+03  0.00000000000E+00 0. -1.
         21   -1    0    0  501  502 -0.00000000000E+00 -0.00000000000E+00 -0.14087833756E+03  0.14087833756E+03  0.00000000000E+00 0. -1.
         25    1    1    2    0    0 -0.15826725816E+03 -0.15503188956E+03  0.31302246213E+03  0.40335031125E+03  0.12500000000E+03 0.  0.
         21    1    1    2  503  502  0.15826725816E+03  0.15503188956E+03  0.32488357735E+02  0.22391718374E+03  0.00000000000E+00 0. -1.
<mgrwt>
<rscale>  3 0.25437848E+03</rscale>
<asrwt>0</asrwt>
<pdfrwt beam="1">  1       21 0.74829100E-01 0.25437848E+03</pdfrwt>
<pdfrwt beam="2">  1       21 0.21673591E-01 0.25437848E+03</pdfrwt>
<totfact> 0.30764312E+04</totfact>
</mgrwt>
</event>
<event>
 4    0  0.1182901E-001  0.2964594E+03  0.7546771E-02  0.1087024E+00
         21   -1    0    0  502  501  0.00000000000E+00  0.00000000000E+00  0.66396745790E+03  0.66396745790E+03  0.00000000000E+00 0. -1.
         21   -1    0    0  503  502 -0.00000000000E+00 -0.00000000000E+00 -0.18389961839E+04  0.18389961839E+04  0.00000000000E+00 0.  1.
         25    1    1    2    0    0 -0.20926982586E+03 -0.16872854720E+03  0.62036250383E+03  0.68755932022E+03  0.12500000000E+03 0.  0.
         21    1    1    2  503  501  0.20926982586E+03  0.16872854720E+03 -0.17953912298E+04  0.18154043216E+04  0.00000000000E+00 0.  1.
<mgrwt>
<rscale>  3 0.29645941E+03</rscale>
<asrwt>0</asrwt>
<pdfrwt beam="1">  1       21 0.10214884E+00 0.29645941E+03</pdfrwt>
<pdfrwt beam="2">  1       21 0.28292249E+00 0.29645941E+03</pdfrwt>
<totfact> 0.28859689E+01</totfact>
</mgrwt>
</event>
<event>
 4    0  0.1231826E-001  0.3504585E+03  0.7546771E-02  0.1062427E+00
         21   -1    0    0  503  501  0.00000000000E+00  0.00000000000E+00  0.49948983779E+03  0.49948983779E+03  0.00000000000E+00 0.  1.
         21   -1    0    0  501  502 -0.00000000000E+00 -0.00000000000E+00 -0.34190673814E+03  0.34190673814E+03  0.00000000000E+00 0.  1.
         25    1    1    2    0    0 -0.26528521467E+03 -0.19188515372E+03  0.32119763694E+03  0.47538308691E+03  0.12500000000E+03 0.  0.
         21    1    1    2  503  502  0.26528521467E+03  0.19188515372E+03 -0.16361453729E+03  0.36601348903E+03  0.00000000000E+00 0.  1.
<mgrwt>
<rscale>  3 0.35045850E+03</rscale>
<asrwt>0</asrwt>
<pdfrwt beam="1">  1       21 0.76844591E-01 0.35045850E+03</pdfrwt>
<pdfrwt beam="2">  1       21 0.52601037E-01 0.35045850E+03</pdfrwt>
<totfact> 0.47051244E+03</totfact>
</mgrwt>
</event>
<event>
 4    0  0.1003929E-001  0.2428270E+03  0.7546771E-02  0.1117924E+00
         21   -1    0    0  502  501  0.00000000000E+00  0.00000000000E+00  0.19177913549E+03  0.19177913549E+03  0.00000000000E+00 0. -1.
         21   -1    0    0  503  502 -0.00000000000E+00 -0.00000000000E+00 -0.28528547323E+04  0.28528547323E+04  0.00000000000E+00 0. -1.
         25    1    1    2    0    0 -0.18596287701E+03  0.93582911538E+02  0.10941025703E+03  0.26633729987E+03  0.12500000000E+03 0.  0.
         21    1    1    2  503  501  0.18596287701E+03 -0.93582911538E+02 -0.27704858539E+04  0.27782965680E+04  0.00000000000E+00 0. -1.
<mgrwt>
<rscale>  3 0.24282700E+03</rscale>
<asrwt>0</asrwt>
<pdfrwt beam="1">  1       21 0.29504486E-01 0.24282700E+03</pdfrwt>
<pdfrwt beam="2">  1       21 0.43890068E+00 0.24282700E+03</pdfrwt>
<totfact> 0.49683961E+01</totfact>
</mgrwt>
</event>
<event>
 4    0  0.1003929E-001  0.2385349E+03  0.7546771E-02  0.1120773E+00
         21   -1    0    0  503  501  0.00000000000E+00  0.00000000000E+00  0.71118868339E+02  0.71118868339E+02  0.00000000000E+00 0.  1.
         21   -1    0    0  501  502 -0.00000000000E+00 -0.00000000000E+00 -0.69273328507E+03  0.69273328507E+03  0.00000000000E+00 0. -1.
         25    1    1    2    0    0  0.16070501059E+03  0.12428922243E+03 -0.29737242044E+03  0.38122075977E+03  0.12500000000E+03 0.  0.
         21    1    1    2  503  502 -0.16070501059E+03 -0.12428922243E+03 -0.32424199629E+03  0.38263139364E+03  0.00000000000E+00 0. -1.
<mgrwt>
<rscale>  3 0.23853493E+03</rscale>
<asrwt>0</asrwt>
<pdfrwt beam="1">  1       21 0.10941364E-01 0.23853493E+03</pdfrwt>
<pdfrwt beam="2">  1       21 0.10657435E+00 0.23853493E+03</pdfrwt>
<totfact> 0.47688302E+04</totfact>
</mgrwt>
</event>
<event>
 4    0  0.1551697E-001  0.3082431E+03  0.7546771E-02  0.1081191E+00
         21   -1    0    0  502  501  0.00000000000E+00  0.00000000000E+00  0.60208681220E+03  0.60208681220E+03  0.00000000000E+00 0. -1.
         21   -1    0    0  503  502 -0.00000000000E+00 -0.00000000000E+00 -0.14870119457E+03  0.14870119457E+03  0.00000000000E+00 0. -1.
         25    1    1    2    0    0 -0.26027395003E+03 -0.10791789702E+03  0.29931472753E+03  0.42965463768E+03  0.12500000000E+03 0.  0.
         21    1    1    2  503  501  0.26027395003E+03  0.10791789702E+03  0.15407089010E+03  0.32113336908E+03  0.00000000000E+00 0. -1.
<mgrwt>
<rscale>  3 0.30824309E+03</rscale>
<asrwt>0</asrwt>
<pdfrwt beam="1">  1       21 0.92628739E-01 0.30824309E+03</pdfrwt>
<pdfrwt beam="2">  1       21 0.22877107E-01 0.30824309E+03</pdfrwt>
<totfact> 0.16599472E+04</totfact>
</mgrwt>
</event>
<event>
 4    0  0.1433400E-001  0.2997230E+03  0.7546771E-02  0.1085379E+00
         21   -1    0    0  503  501  0.00000000000E+00  0.00000000000E+00  0.13266030985E+04  0.13266030985E+04  0.00000000000E+00 0. -1.
         21   -1    0    0  501  502 -0.00000000000E+00 -0.00000000000E+00 -0.65840712412E+02  0.65840712412E+02  0.00000000000E+00 0. -1.
         25    1    1    2    0    0  0.18669314217E+03 -0.19837982471E+03  0.83324584255E+03  0.88551257377E+03  0.12500000000E+03 0.  0.
         21    1    1    2  503  502 -0.18669314217E+03  0.19837982471E+03  0.42751654354E+03  0.50693123714E+03  0.00000000000E+00 0. -1.
<mgrwt>
<rscale>  3 0.29972301E+03</rscale>
<asrwt>0</asrwt>
<pdfrwt beam="1">  1       21 0.20409277E+00 0.29972301E+03</pdfrwt>
<pdfrwt beam="2">  1       21 0.10129341E-01 0.29972301E+03</pdfrwt>
<totfact> 0.93084185E+03</totfact>
</mgrwt>
</event>
<event>
 4    0  0.1003929E-001  0.3915288E+03  0.7546771E-02  0.1046753E+00
         21   -1    0    0  503  501  0.00000000000E+00  0.00000000000E+00  0.14947414859E+04  0.14947414859E+04  0.00000000000E+00 0.  1.
         21   -1    0    0  501  502 -0.00000000000E+00 -0.00000000000E+00 -0.13932488614E+03  0.13932488614E+03  0.00000000000E+00 0. -1.
         25    1    1    2    0    0 -0.62436155778E+02  0.36574788307E+03  0.11392481717E+04  0.12046498181E+04  0.12500000000E+03 0.  0.
         21    1    1    2  503  502  0.62436155778E+02 -0.36574788307E+03  0.21616842807E+03  0.42941655395E+03  0.00000000000E+00 0. -1.
<mgrwt>
<rscale>  3 0.39152878E+03</rscale>
<asrwt>0</asrwt>
<pdfrwt beam="1">  1       21 0.22996022E+00 0.39152878E+03</pdfrwt>
<pdfrwt beam="2">  1       21 0.21434599E-01 0.39152878E+03</pdfrwt>
<totfact> 0.15213792E+03</totfact>
</mgrwt>
</event>
<event>
 4    0  0.1003929E-001  0.3846553E+03  0.7546771E-02  0.1049226E+00
         21   -1    0    0  502  501  0.00000000000E+00  0.00000000000E+00  0.10955658119E+03  0.10955658119E+03  0.00000000000E+00 0.  1.
         21   -1    0    0  503  502 -0.00000000000E+00 -0.00000000000E+00 -0.16238518929E+04  0.16238518929E+04  0.00000000000E+00 0.  1.
         25    1    1    2    0    0  0.32029676382E+03 -0.17246654269E+03 -0.37404246791E+03  0.53653284434E+03  0.12500000000E+03 0.  0.
         21    1    1    2  503  501 -0.32029676382E+03  0.17246654269E+03 -0.11402528438E+04  0.11968756297E+04  0.00000000000E+00 0.  1.
<mgrwt>
<rscale>  3 0.38465533E+03</rscale>
<asrwt>0</asrwt>
<pdfrwt beam="1">  1       21 0.16854859E-01 0.38465533E+03</pdfrwt>
<pdfrwt beam="2">  1       21 0.24982336E+00 0.38465533E+03</pdfrwt>
<totfact> 0.18133206E+03</totfact>
</mgrwt>
</event>
<event>
 4    0  0.1038081E-001  0.2556108E+03  0.7546771E-02  0.1109809E+00
         21   -1    0    0  503  501  0.00000000000E+00  0.00000000000E+00  0.16024402521E+04  0.16024402521E+04  0.00000000000E+00 0. -1.
         21   -1    0    0  501  502 -0.00000000000E+00 -0.00000000000E+00 -0.54842706861E+02  0.54842706861E+02  0.00000000000E+00 0. -1.
         25    1    1    2    0    0  0.22051461545E+03  0.32942132307E+02  0.12966089696E+04  0.13215641111E+04  0.12500000000E+03 0.  0.
         21    1    1    2  503  502 -0.22051461545E+03 -0.32942132307E+02  0.25098857567E+03  0.33571884789E+03  0.00000000000E+00 0. -1.
<mgrwt>
<rscale>  3 0.25561080E+03</rscale>
<asrwt>0</asrwt>
<pdfrwt beam="1">  1       21 0.24652923E+00 0.25561080E+03</pdfrwt>
<pdfrwt beam="2">  1       21 0.84373408E-02 0.25561080E+03</pdfrwt>
<totfact> 0.72183980E+03</totfact>
</mgrwt>
</event>
<event>
 4    0  0.1003929E-001  0.2497176E+03  0.7546771E-02  0.1113483E+00
         21   -1    0    0  503  501  0.00000000000E+00  0.00000000000E+00  0.67899833171E+03  0.67899833171E+03  0.00000000000E+00 0.  1.
         21   -1    0    0  501  502 -0.00000000000E+00 -0.00000000000E+00 -0.86231098899E+02  0.86231098899E+02  0.00000000000E+00 0. -1.
         25    1    1    2    0    0 -0.17285731665E+03 -0.12982386860E+03  0.41942233256E+03  0.48813315994E+03  0.12500000000E+03 0.  0.
         21    1    1    2  503  502  0.17285731665E+03  0.12982386860E+03  0.17334490024E+03  0.27709627067E+03  0.00000000000E+00 0. -1.
<mgrwt>
<rscale>  3 0.24971762E+03</rscale>
<asrwt>0</asrwt>
<pdfrwt beam="1">  1       21 0.10446128E+00 0.24971762E+03</pdfrwt>
<pdfrwt beam="2">  1       21 0.13266323E-01 0.24971762E+03</pdfrwt>
<totfact> 0.35214308E+04</totfact>
</mgrwt>
</event>
<event>
 4    0  0.1003929E-001  0.2870966E+03  0.7546771E-02  0.1091875E+00
         21   -1    0    0  503  501  0.00000000000E+00  0.00000000000E+00  0.11714291794E+03  0.11714291794E+03  0.00000000000E+00 0. -1.
         21   -1    0    0  501  502 -0.00000000000E+00 -0.00000000000E+00 -0.76828639256E+03  0.76828639256E+03  0.00000000000E+00 0.  1.
         25    1    1    2    0    0  0.25500706827E+03 -0.42081635977E+02 -0.15563993485E+03  0.32657044917E+03  0.12500000000E+03 0.  0.
         21    1    1    2  503  502 -0.25500706827E+03  0.42081635977E+02 -0.49550353977E+03  0.55885886132E+03  0.00000000000E+00 0.  1.
<mgrwt>
<rscale>  3 0.28709662E+03</rscale>
<asrwt>0</asrwt>
<pdfrwt beam="1">  1       21 0.18021987E-01 0.28709662E+03</pdfrwt>
<pdfrwt beam="2">  1       21 0.11819791E+00 0.28709662E+03</pdfrwt>
<totfact> 0.14557641E+04</totfact>
</mgrwt>
</event>
<event>
 4    0  0.1176733E-001  0.3008206E+03  0.7546771E-02  0.1084831E+00
         21   -1    0    0  502  501  0.00000000000E+00  0.00000000000E+00  0.34294819072E+03  0.34294819072E+03  0.00000000000E+00 0. -1.
         21   -1    0    0  503  502 -0.00000000000E+00 -0.00000000000E+00 -0.60742754102E+03  0.60742754102E+03  0.00000000000E+00 0. -1.
         25    1    1    2    0    0 -0.16260738668E+03  0.22006102695E+03  0.23441702394E+03  0.38137168077E+03  0.12500000000E+03 0.  0.
         21    1    1    2  503  501  0.16260738668E+03 -0.22006102695E+03 -0.49889637424E+03  0.56900405096E+03  0.00000000000E+00 0. -1.
<mgrwt>
<rscale>  3 0.30082057E+03</rscale>
<asrwt>0</asrwt>
<pdfrwt beam="1">  1       21 0.52761261E-01 0.30082057E+03</pdfrwt>
<pdfrwt beam="2">  1       21 0.93450390E-01 0.30082057E+03</pdfrwt>
<totfact> 0.30424591E+03</totfact>
</mgrwt>
</event>
<event>
 4    0  0.1303891E-001  0.2381795E+03  0.7546771E-02  0.1121012E+00
         21   -1    0    0  502  501  0.00000000000E+00  0.00000000000E+00  0.83667089270E+03  0.83667089270E+03  0.00000000000E+00 0.  1.
         21   -1    0    0  503  502 -0.00000000000E+00 -0.00000000000E+00 -0.11026772152E+03  0.11026772152E+03  0.00000000000E+00 0. -1.
         25    1    1    2    0    0  0.37077620261E+02  0.19932312960E+03  0.70371646697E+03  0.74293090244E+03  0.12500000000E+03 0.  0.
         21    1    1    2  503  501 -0.37077620261E+02 -0.19932312960E+03  0.22686704219E+02  0.20400771178E+03  0.00000000000E+00 0. -1.
<mgrwt>
<rscale>  3 0.23817947E+03</rscale>
<asrwt>0</asrwt>
<pdfrwt beam="1">  1       21 0.12871859E+00 0.23817947E+03</pdfrwt>
<pdfrwt beam="2">  1       21 0.16964265E-01 0.23817947E+03</pdfrwt>
<totfact> 0.13477125E+04</totfact>
</mgrwt>
</event>
<event>
 4    0  0.1003929E-001  0.4115635E+03  0.7546771E-02  0.1039848E+00
         21   -1    0    0  503  501  0.00000000000E+00  0.00000000000E+00  0.20906700749E+03  0.20906700749E+03  0.00000000000E+00 0.  1.
         21   -1    0    0  501  502 -0.00000000000E+00 -0.00000000000E+00 -0.77336927000E+03  0.77336927000E+03  0.00000000000E+00 0. -1.
         25    1    1    2    0    0 -0.32087657173E+03 -0.22538347983E+03 -0.30660257839E+03  0.51321499232E+03  0.12500000000E+03 0.  0.
         21    1    1    2  503  502  0.32087657173E+03  0.22538347983E+03 -0.25769968412E+03  0.46922128518E+03  0.00000000000E+00 0. -1.
<mgrwt>
<rscale>  3 0.41156347E+03</rscale>
<asrwt>0</asrwt>
<pdfrwt beam="1">  1       21 0.32164155E-01 0.41156347E+03</pdfrwt>
<pdfrwt beam="2">  1       21 0.11897989E+00 0.41156347E+03</pdfrwt>
<totfact> 0.44440817E+03</totfact>
</mgrwt>
</event>
<event>
 4    0  0.1265031E-001  0.2966577E+03  0.7546771E-02  0.1086923E+00
         21   -1    0    0  503  501  0.00000000000E+00  0.00000000000E+00  0.10792686665E+03  0.10792686665E+03  0.00000000000E+00 0. -1.
         21   -1    0    0  501  502 -0.00000000000E+00 -0.00000000000E+00 -0.79999663763E+03  0.79999663763E+03  0.00000000000E+00 0. -1.
         25    1    1    2    0    0 -0.21929495600E+01 -0.26902785503E+03 -0.48455448413E+03  0.56815389104E+03  0.12500000000E+03 0.  0.
         21    1    1    2  503  502  0.21929495600E+01  0.26902785503E+03 -0.20751528685E+03  0.33976961325E+03  0.00000000000E+00 0. -1.
<mgrwt>
<rscale>  3 0.29665771E+03</rscale>
<asrwt>0</asrwt>
<pdfrwt beam="1">  1       21 0.16604134E-01 0.29665771E+03</pdfrwt>
<pdfrwt beam="2">  1       21 0.12307640E+00 0.29665771E+03</pdfrwt>
<totfact> 0.15247663E+04</totfact>
</mgrwt>
</event>
<event>
 4    0  0.1681448E-001  0.2538153E+03  0.7546771E-02  0.1110917E+00
         21   -1    0    0  502  501  0.00000000000E+00  0.00000000000E+00  0.64358184836E+03  0.64358184836E+03  0.00000000000E+00 0.  1.
         21   -1    0    0  503  502 -0.00000000000E+00 -0.00000000000E+00 -0.24498703265E+03  0.24498703265E+03  0.00000000000E+00 0. -1.
         25    1    1    2    0    0 -0.14081936572E+03 -0.17019724613E+03  0.56009903486E+03  0.61492530050E+03  0.12500000000E+03 0.  0.
         21    1    1    2  503  501  0.14081936572E+03  0.17019724613E+03 -0.16150421915E+03  0.27364358051E+03  0.00000000000E+00 0. -1.
<mgrwt>
<rscale>  3 0.25381528E+03</rscale>
<asrwt>0</asrwt>
<pdfrwt beam="1">  1       21 0.99012591E-01 0.25381528E+03</pdfrwt>
<pdfrwt beam="2">  1       21 0.37690313E-01 0.25381528E+03</pdfrwt>
<totfact> 0.54678528E+03</totfact>
</mgrwt>
</event>
<event>
 4    0  0.1563355E-001  0.2687228E+03  0.7546771E-02  0.1102013E+00
         21   -1    0    0  503  501  0.00000000000E+00  0.00000000000E+00  0.40835911533E+03  0.40835911533E+03  0.00000000000E+00 0. -1.
         21   -1    0    0  501  502 -0.00000000000E+00 -0.00000000000E+00 -0.16356358280E+03  0.16356358280E+03  0.00000000000E+00 0. -1.
         25    1    1    2    0    0 -0.16020018608E+03  0.17584894729E+03  0.18621024190E+03  0.32693455931E+03  0.12500000000E+03 0.  0.
         21    1    1    2  503  502  0.16020018608E+03 -0.17584894729E+03  0.58585290620E+02  0.24498813882E+03  0.00000000000E+00 0. -1.
<mgrwt>
<rscale>  3 0.26872282E+03</rscale>
<asrwt>0</asrwt>
<pdfrwt beam="1">  1       21 0.62824479E-01 0.26872282E+03</pdfrwt>
<pdfrwt beam="2">  1       21 0.25163628E-01 0.26872282E+03</pdfrwt>
<totfact> 0.33866780E+04</totfact>
</mgrwt>
</event>
<event>
 4    0  0.1622244E-001  0.2440952E+03  0.7546771E-02  0.1117094E+00
         21   -1    0    0  502  501  0.00000000000E+00  0.00000000000E+00  0.28595972930E+03  0.28595972930E+03  0.00000000000E+00 0. -1.
         21   -1    0    0  503  502 -0.00000000000E+00 -0.00000000000E+00 -0.18525568603E+03  0.18525568603E+03  0.00000000000E+00 0. -1.
         25    1    1    2    0    0 -0.18954961099E+03 -0.89601340996E+02  0.93627832280E+02  0.26143570206E+03  0.12500000000E+03 0.  0.
         21    1    1    2  503  501  0.18954961099E+03  0.89601340996E+02  0.70762109839E+01  0.20977971327E+03  0.00000000000E+00 0. -1.
<mgrwt>
<rscale>  3 0.24409518E+03</rscale>
<asrwt>0</asrwt>
<pdfrwt beam="1">  1       21 0.43993805E-01 0.24409518E+03</pdfrwt>
<pdfrwt beam="2">  1       21 0.28500875E-01 0.24409518E+03</pdfrwt>
<totfact> 0.57140126E+04</totfact>
</mgrwt>
</event>
<event>
 4    0  0.1003929E-001  0.2818163E+03  0.7546771E-02  0.1094701E+00
         21   -1    0    0  503  501  0.00000000000E+00  0.00000000000E+00  0.12029162610E+04  0.12029162610E+04  0.00000000000E+00 0. -1.
         21   -1    0    0  501  502 -0.00000000000E+00 -0.00000000000E+00 -0.84777508679E+02  0.84777508679E+02  0.00000000000E+00 0.  1.
         25    1    1    2    0    0  0.23143739993E+03 -0.10115416354E+03  0.93271741466E+03  0.97436246361E+03  0.12500000000E+03 0.  0.
         21    1    1    2  503  502 -0.23143739993E+03  0.10115416354E+03  0.18542133761E+03  0.31333130602E+03  0.00000000000E+00 0.  1.
<mgrwt>
<rscale>  3 0.28181631E+03</rscale>
<asrwt>0</asrwt>
<pdfrwt beam="1">  1       21 0.18506403E+00 0.28181631E+03</pdfrwt>
<pdfrwt beam="2">  1       21 0.13042694E-01 0.28181631E+03</pdfrwt>
<totfact> 0.79790463E+03</totfact>
</mgrwt>
</event>
<event>
 4    0  0.1003929E-001  0.2657201E+03  0.7546771E-02  0.1103754E+00
         21   -1    0    0  502  501  0.00000000000E+00  0.00000000000E+00  0.12962205485E+04  0.12962205485E+04  0.00000000000E+00 0. -1.
         21   -1    0    0  503  502 -0.00000000000E+00 -0.00000000000E+00 -0.37889954892E+03  0.37889954892E+03  0.00000000000E+00 0. -1.
         25    1    1    2    0    0  0.23104968007E+03 -0.39977917584E+02  0.12445229938E+04  0.12725740335E+04  0.12500000000E+03 0.  0.
         21    1    1    2  503  501 -0.23104968007E+03  0.39977917584E+02 -0.32720199424E+03  0.40254606393E+03  0.00000000000E+00 0. -1.
<mgrwt>
<rscale>  3 0.26572013E+03</rscale>
<asrwt>0</asrwt>
<pdfrwt beam="1">  1       21 0.19941854E+00 0.26572013E+03</pdfrwt>
<pdfrwt beam="2">  1       21 0.58292239E-01 0.26572013E+03</pdfrwt>
<totfact> 0.34498947E+02</totfact>
</mgrwt>
</event>
<event>
 4    0  0.1293925E-001  0.3679583E+03  0.7546771E-02  0.1055476E+00
         21   -1    0    0  503  501  0.00000000000E+00  0.00000000000E+00  0.15004148926E+03  0.15004148926E+03  0.00000000000E+00 0.  1.
         21   -1    0    0  501  502 -0.00000000000E+00 -0.00000000000E+00 -0.96038905171E+03  0.96038905171E+03  0.00000000000E+00 0.  1.
         25    1    1    2    0    0 -0.30537060687E+03  0.16284064768E+03 -0.22757939382E+03  0.43264958635E+03  0.12500000000E+03 0.  0.
         21    1    1    2  503  502  0.30537060687E+03 -0.16284064768E+03 -0.58276816863E+03  0.67778095462E+03  0.00000000000E+00 0.  1.
<mgrwt>
<rscale>  3 0.36795826E+03</rscale>
<asrwt>0</asrwt>
<pdfrwt beam="1">  1       21 0.23083307E-01 0.36795826E+03</pdfrwt>
<pdfrwt beam="2">  1       21 0.14775216E+00 0.36795826E+03</pdfrwt>
<totfact> 0.49308042E+03</totfact>
</mgrwt>
</event>
<event>
 4    0  0.1003929E-001  0.6612780E+03  0.7546771E-02  0.9785844E-01
         21   -1    0    0  503  501  0.00000000000E+00  0.00000000000E+00  0.19146807919E+04  0.19146807919E+04  0.00000000000E+00 0. -1.
         21   -1    0    0  501  502 -0.00000000000E+00 -0.00000000000E+00 -0.30178404012E+03  0.30178404012E+03  0.00000000000E+00 0.  1.
         25    1    1    2    0    0 -0.53533929562E+03  0.36752615210E+03  0.13734756938E+04  0.15243766318E+04  0.12500000000E+03 0.  0.
         21    1    1    2  503  502  0.53533929562E+03 -0.36752615210E+03  0.23942105792E+03  0.69208820022E+03  0.00000000000E+00 0.  1.
<mgrwt>
<rscale>  3 0.66127803E+03</rscale>
<asrwt>0</asrwt>
<pdfrwt beam="1">  1       21 0.29456627E+00 0.66127803E+03</pdfrwt>
<pdfrwt beam="2">  1       21 0.46428315E-01 0.66127803E+03</pdfrwt>
<totfact> 0.11391465E+02</totfact>
</mgrwt>
</event>
<event>
 4    0  0.1003929E-001  0.3866914E+03  0.7546771E-02  0.1048488E+00
         21   -1    0    0  502  501  0.00000000000E+00  0.00000000000E+00  0.90514712183E+03  0.90514712183E+03  0.00000000000E+00 0. -1.
         21   -1    0    0  503  502 -0.00000000000E+00 -0.00000000000E+00 -0.19594021574E+03  0.19594021574E+03  0.00000000000E+00 0. -1.
         25    1    1    2    0    0  0.15786107181E+03  0.33012894626E+03  0.11532970634E+03  0.40352345696E+03  0.12500000000E+03 0.  0.
         21    1    1    2  503  501 -0.15786107181E+03 -0.33012894626E+03  0.59387719976E+03  0.69756388062E+03  0.00000000000E+00 0. -1.
<mgrwt>
<rscale>  3 0.38669140E+03</rscale>
<asrwt>0</asrwt>
<pdfrwt beam="1">  1       21 0.13925340E+00 0.38669140E+03</pdfrwt>
<pdfrwt beam="2">  1       21 0.30144649E-01 0.38669140E+03</pdfrwt>
<totfact> 0.34026789E+03</totfact>
</mgrwt>
</event>
<event>
 4    0  0.1003929E-001  0.2627280E+03  0.7546771E-02  0.1105515E+00
         21   -1    0    0  503  501  0.00000000000E+00  0.00000000000E+00  0.15617617170E+04  0.15617617170E+04  0.00000000000E+00 0.  1.
         21   -1    0    0  501  502 -0.00000000000E+00 -0.00000000000E+00 -0.94525716671E+02  0.94525716671E+02  0.00000000000E+00 0.  1.
         25    1    1    2    0    0  0.11066701078E+03  0.20286403886E+03  0.13870057622E+04  0.14116695753E+04  0.12500000000E+03 0.  0.
         21    1    1    2  503  502 -0.11066701078E+03 -0.20286403886E+03  0.80230238221E+02  0.24461785843E+03  0.00000000000E+00 0.  1.
<mgrwt>
<rscale>  3 0.26272801E+03</rscale>
<asrwt>0</asrwt>
<pdfrwt beam="1">  1       21 0.24027101E+00 0.26272801E+03</pdfrwt>
<pdfrwt beam="2">  1       21 0.14542419E-01 0.26272801E+03</pdfrwt>
<totfact> 0.29513710E+03</totfact>
</mgrwt>
</event>
<event>
 4    0  0.1190447E-001  0.2722981E+03  0.7546771E-02  0.1099972E+00
         21   -1    0    0  502  501  0.00000000000E+00  0.00000000000E+00  0.29421065991E+03  0.29421065991E+03  0.00000000000E+00 0. -1.
         21   -1    0    0  503  502 -0.00000000000E+00 -0.00000000000E+00 -0.58675857326E+03  0.58675857326E+03  0.00000000000E+00 0. -1.
         25    1    1    2    0    0 -0.12720508705E+03 -0.20576710319E+03  0.19620631921E+03  0.33562353110E+03  0.12500000000E+03 0.  0.
         21    1    1    2  503  501  0.12720508705E+03  0.20576710319E+03 -0.48875423256E+03  0.54534570208E+03  0.00000000000E+00 0. -1.
<mgrwt>
<rscale>  3 0.27229806E+03</rscale>
<asrwt>0</asrwt>
<pdfrwt beam="1">  1       21 0.45263179E-01 0.27229806E+03</pdfrwt>
<pdfrwt beam="2">  1       21 0.90270548E-01 0.27229806E+03</pdfrwt>
<totfact> 0.46260833E+03</totfact>
</mgrwt>
</event>
<event>
 4    0  0.1405966E-001  0.3774317E+03  0.7546771E-02  0.1051887E+00
         21   -1    0    0  503  501  0.00000000000E+00  0.00000000000E+00  0.94438281259E+03  0.94438281259E+03  0.00000000000E+00 0.  1.
         21   -1    0    0  501  502 -0.00000000000E+00 -0.00000000000E+00 -0.15668235589E+03  0.15668235589E+03  0.00000000000E+00 0.  1.
         25    1    1    2    0    0 -0.34849946971E+03 -0.73333683027E+02  0.57009983803E+03  0.68371670652E+03  0.12500000000E+03 0.  0.
         21    1    1    2  503  502  0.34849946971E+03  0.73333683027E+02  0.21760061867E+03  0.41734846196E+03  0.00000000000E+00 0.  1.
<mgrwt>
<rscale>  3 0.37743173E+03</rscale>
<asrwt>0</asrwt>
<pdfrwt beam="1">  1       21 0.14528966E+00 0.37743173E+03</pdfrwt>
<pdfrwt beam="2">  1       21 0.24104978E-01 0.37743173E+03</pdfrwt>
<totfact> 0.47255834E+03</totfact>
</mgrwt>
</event>
<event>
 4    0  0.1197929E-001  0.3061031E+03  0.7546771E-02  0.1082229E+00
         21   -1    0    0  502  501  0.00000000000E+00  0.00000000000E+00  0.53582865789E+03  0.53582865789E+03  0.00000000000E+00 0. -1.
         21   -1    0    0  503  502 -0.00000000000E+00 -0.00000000000E+00 -0.35315484037E+03  0.35315484037E+03  0.00000000000E+00 0. -1.
         25    1    1    2    0    0 -0.12444633755E+03  0.25017434312E+03  0.42183171684E+03  0.52119198979E+03  0.12500000000E+03 0.  0.
         21    1    1    2  503  501  0.12444633755E+03 -0.25017434312E+03 -0.23915789933E+03  0.36779150846E+03  0.00000000000E+00 0. -1.
<mgrwt>
<rscale>  3 0.30610308E+03</rscale>
<asrwt>0</asrwt>
<pdfrwt beam="1">  1       21 0.82435178E-01 0.30610308E+03</pdfrwt>
<pdfrwt beam="2">  1       21 0.54331514E-01 0.30610308E+03</pdfrwt>
<totfact> 0.38184770E+03</totfact>
</mgrwt>
</event>
<event>
 4    0  0.1252217E-001  0.3214485E+03  0.7546771E-02  0.1074985E+00
         21   -1    0    0  503  501  0.00000000000E+00  0.00000000000E+00  0.14284738398E+04  0.14284738398E+04  0.00000000000E+00 0.  1.
         21   -1    0    0  501  502 -0.00000000000E+00 -0.00000000000E+00 -0.11106256720E+04  0.11106256720E+04  0.00000000000E+00 0. -1.
         25    1    1    2    0    0  0.95287257624E+02  0.28040054424E+03  0.13900587020E+04  0.14267418553E+04  0.12500000000E+03 0.  0.
         21    1    1    2  503  502 -0.95287257624E+02 -0.28040054424E+03 -0.10722105341E+04  0.11123576565E+04  0.00000000000E+00 0. -1.
<mgrwt>
<rscale>  3 0.32144848E+03</rscale>
<asrwt>0</asrwt>
<pdfrwt beam="1">  1       21 0.21976521E+00 0.32144848E+03</pdfrwt>
<pdfrwt beam="2">  1       21 0.17086549E+00 0.32144848E+03</pdfrwt>
<totfact> 0.17863002E+01</totfact>
</mgrwt>
</event>
<event>
 4    0  0.1161764E-001  0.2788108E+03  0.7546771E-02  0.1096340E+00
         21   -1    0    0  502  501  0.00000000000E+00  0.00000000000E+00  0.75387150367E+03  0.75387150367E+03  0.00000000000E+00 0. -1.
         21   -1    0    0  503  502 -0.00000000000E+00 -0.00000000000E+00 -0.27682190789E+03  0.27682190789E+03  0.00000000000E+00 0. -1.
         25    1    1    2    0    0 -0.13976037617E+03 -0.20634321519E+03  0.66333389417E+03  0.71954662139E+03  0.12500000000E+03 0.  0.
         21    1    1    2  503  501  0.13976037617E+03  0.20634321519E+03 -0.18628429839E+03  0.31114679016E+03  0.00000000000E+00 0. -1.
<mgrwt>
<rscale>  3 0.27881084E+03</rscale>
<asrwt>0</asrwt>
<pdfrwt beam="1">  1       21 0.11598023E+00 0.27881084E+03</pdfrwt>
<pdfrwt beam="2">  1       21 0.42587986E-01 0.27881084E+03</pdfrwt>
<totfact> 0.28578417E+03</totfact>
</mgrwt>
</event>
<event>
 4    0  0.1003929E-001  0.2685752E+03  0.7546771E-02  0.1102098E+00
         21   -1    0    0  503  501  0.00000000000E+00  0.00000000000E+00  0.84163916749E+02  0.84163916749E+02  0.00000000000E+00 0.  1.
         21   -1    0    0  501  502 -0.00000000000E+00 -0.00000000000E+00 -0.22310898676E+04  0.22310898676E+04  0.00000000000E+00 0.  1.
         25    1    1    2    0    0 -0.23636218600E+03 -0.25308803589E+02 -0.15683158977E+03  0.31101248538E+03  0.12500000000E+03 0.  0.
         21    1    1    2  503  502  0.23636218600E+03  0.25308803589E+02 -0.19900943610E+04  0.20042412989E+04  0.00000000000E+00 0.  1.
<mgrwt>
<rscale>  3 0.26857516E+03</rscale>
<asrwt>0</asrwt>
<pdfrwt beam="1">  1       21 0.12948294E-01 0.26857516E+03</pdfrwt>
<pdfrwt beam="2">  1       21 0.34324461E+00 0.26857516E+03</pdfrwt>
<totfact> 0.89376290E+02</totfact>
</mgrwt>
</event>
<event>
 4    0  0.1003929E-001  0.6191013E+03  0.7546771E-02  0.9866551E-01
         21   -1    0    0  503  501  0.00000000000E+00  0.00000000000E+00  0.18401391754E+04  0.18401391754E+04  0.00000000000E+00 0.  1.
         21   -1    0    0  501  502 -0.00000000000E+00 -0.00000000000E+00 -0.27705526004E+03  0.27705526004E+03  0.00000000000E+00 0. -1.
         25    1    1    2    0    0  0.57310739358E+03 -0.19801360385E+03  0.13310099139E+04  0.14679488625E+04  0.12500000000E+03 0.  0.
         21    1    1    2  503  502 -0.57310739358E+03  0.19801360385E+03  0.23207400145E+03  0.64924557298E+03  0.00000000000E+00 0. -1.
<mgrwt>
<rscale>  3 0.61910134E+03</rscale>
<asrwt>0</asrwt>
<pdfrwt beam="1">  1       21 0.28309833E+00 0.61910134E+03</pdfrwt>
<pdfrwt beam="2">  1       21 0.42623887E-01 0.61910134E+03</pdfrwt>
<totfact> 0.16313418E+02</totfact>
</mgrwt>
</event>
<event>
 4    0  0.1225871E-001  0.2487411E+03  0.7546771E-02  0.1114103E+00
         21   -1    0    0  502  501  0.00000000000E+00  0.00000000000E+00  0.13603116450E+04  0.13603116450E+04  0.00000000000E+00 0. -1.
         21   -1    0    0  503  502 -0.00000000000E+00 -0.00000000000E+00 -0.44286003443E+02  0.44286003443E+02  0.00000000000E+00 0. -1.
         25    1    1    2    0    0  0.16003191117E+03  0.14365559690E+03  0.93023701022E+03  0.96291901959E+03  0.12500000000E+03 0.  0.
         21    1    1    2  503  501 -0.16003191117E+03 -0.14365559690E+03  0.38578863135E+03  0.44167862886E+03  0.00000000000E+00 0. -1.
<mgrwt>
<rscale>  3 0.24874112E+03</rscale>
<asrwt>0</asrwt>
<pdfrwt beam="1">  1       21 0.20927868E+00 0.24874112E+03</pdfrwt>
<pdfrwt beam="2">  1       21 0.68132323E-02 0.24874112E+03</pdfrwt>
<totfact> 0.17852646E+04</totfact>
</mgrwt>
</event>
<event>
 4    0  0.1682699E-001  0.3341605E+03  0.7546771E-02  0.1069311E+00
         21   -1    0    0  503  501  0.00000000000E+00  0.00000000000E+00  0.22362743754E+03  0.22362743754E+03  0.00000000000E+00 0. -1.
         21   -1    0    0  501  502 -0.00000000000E+00 -0.00000000000E+00 -0.46901143211E+03  0.46901143211E+03  0.00000000000E+00 0. -1.
         25    1    1    2    0    0  0.13485977735E+03 -0.27901803981E+03 -0.90549964562E+02  0.34621167249E+03  0.12500000000E+03 0.  0.
         21    1    1    2  503  502 -0.13485977735E+03  0.27901803981E+03 -0.15483403000E+03  0.34642719716E+03  0.00000000000E+00 0. -1.
<mgrwt>
<rscale>  3 0.33416048E+03</rscale>
<asrwt>0</asrwt>
<pdfrwt beam="1">  1       21 0.34404221E-01 0.33416048E+03</pdfrwt>
<pdfrwt beam="2">  1       21 0.72155604E-01 0.33416048E+03</pdfrwt>
<totfact> 0.13133641E+04</totfact>
</mgrwt>
</event>
<event>
 4    0  0.1520543E-001  0.2682644E+03  0.7546771E-02  0.1102277E+00
         21   -1    0    0  503  501  0.00000000000E+00  0.00000000000E+00  0.84999448843E+02  0.84999448843E+02  0.00000000000E+00 0. -1.
         21   -1    0    0  501  502 -0.00000000000E+00 -0.00000000000E+00 -0.76845109359E+03  0.76845109359E+03  0.00000000000E+00 0. -1.
         25    1    1    2    0    0 -0.23271069980E+03 -0.46760429067E+02 -0.29972845055E+03  0.40224737612E+03  0.12500000000E+03 0.  0.
         21    1    1    2  503  502  0.23271069980E+03  0.46760429067E+02 -0.38372319419E+03  0.45120316631E+03  0.00000000000E+00 0. -1.
<mgrwt>
<rscale>  3 0.26826444E+03</rscale>
<asrwt>0</asrwt>
<pdfrwt beam="1">  1       21 0.13076839E-01 0.26826444E+03</pdfrwt>
<pdfrwt beam="2">  1       21 0.11822324E+00 0.26826444E+03</pdfrwt>
<totfact> 0.26480774E+04</totfact>
</mgrwt>
</event>
<event>
 4    0  0.1200394E-001  0.2767449E+03  0.7546771E-02  0.1097480E+00
         21   -1    0    0  503  501  0.00000000000E+00  0.00000000000E+00  0.48431435178E+03  0.48431435178E+03  0.00000000000E+00 0. -1.
         21   -1    0    0  501  502 -0.00000000000E+00 -0.00000000000E+00 -0.39718987674E+03  0.39718987674E+03  0.00000000000E+00 0. -1.
         25    1    1    2    0    0 -0.16657106117E+03 -0.18225484314E+03  0.39784295679E+03  0.48463054437E+03  0.12500000000E+03 0.  0.
         21    1    1    2  503  502  0.16657106117E+03  0.18225484314E+03 -0.31071848175E+03  0.39687368415E+03  0.00000000000E+00 0. -1.
<mgrwt>
<rscale>  3 0.27674491E+03</rscale>
<asrwt>0</asrwt>
<pdfrwt beam="1">  1       21 0.74509900E-01 0.27674491E+03</pdfrwt>
<pdfrwt beam="2">  1       21 0.61106135E-01 0.27674491E+03</pdfrwt>
<totfact> 0.37915347E+03</totfact>
</mgrwt>
</event>
<event>
 4    0  0.1564957E-001  0.2953625E+03  0.7546771E-02  0.1087582E+00
         21   -1    0    0  502  501  0.00000000000E+00  0.00000000000E+00  0.54734855978E+03  0.54734855978E+03  0.00000000000E+00 0. -1.
         21   -1    0    0  503  502 -0.00000000000E+00 -0.00000000000E+00 -0.15343458899E+03  0.15343458899E+03  0.00000000000E+00 0. -1.
         25    1    1    2    0    0 -0.20949817801E+03  0.16650688098E+03  0.28933814588E+03  0.41346776255E+03  0.12500000000E+03 0.  0.
         21    1    1    2  503  501  0.20949817801E+03 -0.16650688098E+03  0.10457582491E+03  0.28731538622E+03  0.00000000000E+00 0. -1.
<mgrwt>
<rscale>  3 0.29536254E+03</rscale>
<asrwt>0</asrwt>
<pdfrwt beam="1">  1       21 0.84207469E-01 0.29536254E+03</pdfrwt>
<pdfrwt beam="2">  1       21 0.23605322E-01 0.29536254E+03</pdfrwt>
<totfact> 0.19632385E+04</totfact>
</mgrwt>
</event>
<event>
 4    0  0.1270684E-001  0.2596595E+03  0.7546771E-02  0.1107348E+00
         21   -1    0    0  503  501  0.00000000000E+00  0.00000000000E+00  0.11563195546E+04  0.11563195546E+04  0.00000000000E+00 0.  1.
         21   -1    0    0  501  502 -0.00000000000E+00 -0.00000000000E+00 -0.52791660681E+02  0.52791660681E+02  0.00000000000E+00 0.  1.
         25    1    1    2    0    0 -0.22758884758E+03  0.11693165268E+01  0.68746709980E+03  0.73487010019E+03  0.12500000000E+03 0.  0.
         21    1    1    2  503  502  0.22758884758E+03 -0.11693165268E+01  0.41606079416E+03  0.47424111513E+03  0.00000000000E+00 0.  1.
<mgrwt>
<rscale>  3 0.25965949E+03</rscale>
<asrwt>0</asrwt>
<pdfrwt beam="1">  1       21 0.17789530E+00 0.25965949E+03</pdfrwt>
<pdfrwt beam="2">  1       21 0.81217948E-02 0.25965949E+03</pdfrwt>
<totfact> 0.21073357E+04</totfact>
</mgrwt>
</event>
<event>
 4    0  0.1271055E-001  0.2731548E+03  0.7546771E-02  0.1099487E+00
         21   -1    0    0  502  501  0.00000000000E+00  0.00000000000E+00  0.68502100590E+03  0.68502100590E+03  0.00000000000E+00 0. -1.
         21   -1    0    0  503  502 -0.00000000000E+00 -0.00000000000E+00 -0.20532928581E+03  0.20532928581E+03  0.00000000000E+00 0. -1.
         25    1    1    2    0    0  0.15722280135E+03 -0.18512030968E+03  0.56932559966E+03  0.63146272792E+03  0.12500000000E+03 0.  0.
         21    1    1    2  503  501 -0.15722280135E+03  0.18512030968E+03 -0.89633879564E+02  0.25888756379E+03  0.00000000000E+00 0. -1.
<mgrwt>
<rscale>  3 0.27315479E+03</rscale>
<asrwt>0</asrwt>
<pdfrwt beam="1">  1       21 0.10538785E+00 0.27315479E+03</pdfrwt>
<pdfrwt beam="2">  1       21 0.31589121E-01 0.27315479E+03</pdfrwt>
<totfact> 0.66187521E+03</totfact>
</mgrwt>
</event>
<event>
 4    0  0.1239453E-001  0.2793298E+03  0.7546771E-02  0.1096056E+00
         21   -1    0    0  502  501  0.00000000000E+00  0.00000000000E+00  0.86607491821E+02  0.86607491821E+02  0.00000000000E+00 0.  1.
         21   -1    0    0  503  502 -0.00000000000E+00 -0.00000000000E+00 -0.11853788258E+04  0.11853788258E+04  0.00000000000E+00 0.  1.
         25    1    1    2    0    0  0.16782541149E+03  0.18502642118E+03 -0.21190752820E+03  0.35061367027E+03  0.12500000000E+03 0.  0.
         21    1    1    2  503  501 -0.16782541149E+03 -0.18502642118E+03 -0.88686380577E+03  0.92137264733E+03  0.00000000000E+00 0.  1.
<mgrwt>
<rscale>  3 0.27932981E+03</rscale>
<asrwt>0</asrwt>
<pdfrwt beam="1">  1       21 0.13324231E-01 0.27932981E+03</pdfrwt>
<pdfrwt beam="2">  1       21 0.18236596E+00 0.27932981E+03</pdfrwt>
<totfact> 0.80198336E+03</totfact>
</mgrwt>
</event>
<event>
 4    0  0.1628301E-001  0.2713392E+03  0.7546771E-02  0.1100516E+00
         21   -1    0    0  503  501  0.00000000000E+00  0.00000000000E+00  0.17515719063E+03  0.17515719063E+03  0.00000000000E+00 0. -1.
         21   -1    0    0  501  502 -0.00000000000E+00 -0.00000000000E+00 -0.37740712810E+03  0.37740712810E+03  0.00000000000E+00 0. -1.
         25    1    1    2    0    0  0.10486641349E+03  0.21680169850E+03 -0.82503612771E+02  0.28360498457E+03  0.12500000000E+03 0.  0.
         21    1    1    2  503  502 -0.10486641349E+03 -0.21680169850E+03 -0.11974632470E+03  0.26895933416E+03  0.00000000000E+00 0. -1.
<mgrwt>
<rscale>  3 0.27133916E+03</rscale>
<asrwt>0</asrwt>
<pdfrwt beam="1">  1       21 0.26947260E-01 0.27133916E+03</pdfrwt>
<pdfrwt beam="2">  1       21 0.58062635E-01 0.27133916E+03</pdfrwt>
<totfact> 0.35160989E+04</totfact>
</mgrwt>
</event>
<event>
 4    0  0.1719947E-001  0.2446004E+03  0.7546771E-02  0.1116766E+00
         21   -1    0    0  503  501  0.00000000000E+00  0.00000000000E+00  0.55812853264E+03  0.55812853264E+03  0.00000000000E+00 0. -1.
         21   -1    0    0  501  502 -0.00000000000E+00 -0.00000000000E+00 -0.25891317729E+03  0.25891317729E+03  0.00000000000E+00 0.  1.
         25    1    1    2    0    0 -0.17545714386E+03  0.11584106854E+03  0.48066489388E+03  0.53932189154E+03  0.12500000000E+03 0.  0.
         21    1    1    2  503  502  0.17545714386E+03 -0.11584106854E+03 -0.18144953853E+03  0.27771981839E+03  0.00000000000E+00 0.  1.
<mgrwt>
<rscale>  3 0.24460041E+03</rscale>
<asrwt>0</asrwt>
<pdfrwt beam="1">  1       21 0.85865927E-01 0.24460041E+03</pdfrwt>
<pdfrwt beam="2">  1       21 0.39832797E-01 0.24460041E+03</pdfrwt>
<totfact> 0.68653533E+03</totfact>
</mgrwt>
</event>
<event>
 4    0  0.1003929E-001  0.2703415E+03  0.7546771E-02  0.1101084E+00
         21   -1    0    0  503  501  0.00000000000E+00  0.00000000000E+00  0.74484180206E+02  0.74484180206E+02  0.00000000000E+00 0. -1.
         21   -1    0    0  501  502 -0.00000000000E+00 -0.00000000000E+00 -0.12053257659E+04  0.12053257659E+04  0.00000000000E+00 0.  1.
         25    1    1    2    0    0  0.23962328864E+03 -0.63395476253E+01 -0.25454321171E+03  0.37131759579E+03  0.12500000000E+03 0.  0.
         21    1    1    2  503  502 -0.23962328864E+03  0.63395476253E+01 -0.87629837395E+03  0.90849235028E+03  0.00000000000E+00 0.  1.
<mgrwt>
<rscale>  3 0.27034147E+03</rscale>
<asrwt>0</asrwt>
<pdfrwt beam="1">  1       21 0.11459105E-01 0.27034147E+03</pdfrwt>
<pdfrwt beam="2">  1       21 0.18543472E+00 0.27034147E+03</pdfrwt>
<totfact> 0.10091296E+04</totfact>
</mgrwt>
</event>
<event>
 4    0  0.1309919E-001  0.2956655E+03  0.7546771E-02  0.1087428E+00
         21   -1    0    0  503  501  0.00000000000E+00  0.00000000000E+00  0.47219461141E+03  0.47219461141E+03  0.00000000000E+00 0.  1.
         21   -1    0    0  501  502 -0.00000000000E+00 -0.00000000000E+00 -0.26841662995E+03  0.26841662995E+03  0.00000000000E+00 0.  1.
         25    1    1    2    0    0  0.26264184306E+03 -0.53031323354E+02  0.33115005321E+03  0.44393514923E+03  0.12500000000E+03 0.  0.
         21    1    1    2  503  502 -0.26264184306E+03  0.53031323354E+02 -0.12737207175E+03  0.29667609213E+03  0.00000000000E+00 0.  1.
<mgrwt>
<rscale>  3 0.29566545E+03</rscale>
<asrwt>0</asrwt>
<pdfrwt beam="1">  1       21 0.72645325E-01 0.29566545E+03</pdfrwt>
<pdfrwt beam="2">  1       21 0.41294866E-01 0.29566545E+03</pdfrwt>
<totfact> 0.90814464E+03</totfact>
</mgrwt>
</event>
<event>
 4    0  0.1223131E-001  0.2404697E+03  0.7546771E-02  0.1119480E+00
         21   -1    0    0  502  501  0.00000000000E+00  0.00000000000E+00  0.23000818234E+03  0.23000818234E+03  0.00000000000E+00 0.  1.
         21   -1    0    0  503  502 -0.00000000000E+00 -0.00000000000E+00 -0.52411149584E+03  0.52411149584E+03  0.00000000000E+00 0.  1.
         25    1    1    2    0    0  0.19675966553E+03 -0.59045099127E+02  0.13686807009E+03  0.27669217250E+03  0.12500000000E+03 0.  0.
         21    1    1    2  503  501 -0.19675966553E+03  0.59045099127E+02 -0.43097138359E+03  0.47742750569E+03  0.00000000000E+00 0.  1.
<mgrwt>
<rscale>  3 0.24046973E+03</rscale>
<asrwt>0</asrwt>
<pdfrwt beam="1">  1       21 0.35385875E-01 0.24046973E+03</pdfrwt>
<pdfrwt beam="2">  1       21 0.80632536E-01 0.24046973E+03</pdfrwt>
<totfact> 0.10089132E+04</totfact>
</mgrwt>
</event>
<event>
 4    0  0.1640022E-001  0.2620003E+03  0.7546771E-02  0.1105947E+00
         21   -1    0    0  503  501  0.00000000000E+00  0.00000000000E+00  0.83854288270E+03  0.83854288270E+03  0.00000000000E+00 0. -1.
         21   -1    0    0  501  502 -0.00000000000E+00 -0.00000000000E+00 -0.86976843068E+02  0.86976843068E+02  0.00000000000E+00 0. -1.
         25    1    1    2    0    0  0.23025861250E+03  0.36524669163E+00  0.58603675275E+03  0.64193709786E+03  0.12500000000E+03 0.  0.
         21    1    1    2  503  502 -0.23025861250E+03 -0.36524669163E+00  0.16552928689E+03  0.28358262792E+03  0.00000000000E+00 0. -1.
<mgrwt>
<rscale>  3 0.26200031E+03</rscale>
<asrwt>0</asrwt>
<pdfrwt beam="1">  1       21 0.12900659E+00 0.26200031E+03</pdfrwt>
<pdfrwt beam="2">  1       21 0.13381053E-01 0.26200031E+03</pdfrwt>
<totfact> 0.20438946E+04</totfact>
</mgrwt>
</event>
<event>
 4    0  0.1516923E-001  0.2975512E+03  0.7546771E-02  0.1086471E+00
         21   -1    0    0  503  501  0.00000000000E+00  0.00000000000E+00  0.38138724188E+03  0.38138724188E+03  0.00000000000E+00 0.  1.
         21   -1    0    0  501  502 -0.00000000000E+00 -0.00000000000E+00 -0.43878682585E+03  0.43878682585E+03  0.00000000000E+00 0. -1.
         25    1    1    2    0    0 -0.23998242021E+03  0.12377460266E+03  0.26582763304E+03  0.39900005609E+03  0.12500000000E+03 0.  0.
         21    1    1    2  503  502  0.23998242021E+03 -0.12377460266E+03 -0.32322721700E+03  0.42117401164E+03  0.00000000000E+00 0. -1.
<mgrwt>
<rscale>  3 0.29755120E+03</rscale>
<asrwt>0</asrwt>
<pdfrwt beam="1">  1       21 0.58674960E-01 0.29755120E+03</pdfrwt>
<pdfrwt beam="2">  1       21 0.67505665E-01 0.29755120E+03</pdfrwt>
<totfact> 0.51038930E+03</totfact>
</mgrwt>
</event>
<event>
 4    0  0.1124924E-001  0.2386200E+03  0.7546771E-02  0.1120716E+00
         21   -1    0    0  502  501  0.00000000000E+00  0.00000000000E+00  0.68431618350E+03  0.68431618350E+03  0.00000000000E+00 0.  1.
         21   -1    0    0  503  502 -0.00000000000E+00 -0.00000000000E+00 -0.16304200222E+03  0.16304200222E+03  0.00000000000E+00 0.  1.
         25    1    1    2    0    0 -0.17313211454E+03 -0.10648840938E+03  0.58707220148E+03  0.63371387879E+03  0.12500000000E+03 0.  0.
         21    1    1    2  503  501  0.17313211454E+03  0.10648840938E+03 -0.65798020200E+02  0.21364430692E+03  0.00000000000E+00 0.  1.
<mgrwt>
<rscale>  3 0.23862001E+03</rscale>
<asrwt>0</asrwt>
<pdfrwt beam="1">  1       21 0.10527941E+00 0.23862001E+03</pdfrwt>
<pdfrwt beam="2">  1       21 0.25083385E-01 0.23862001E+03</pdfrwt>
<totfact> 0.10603615E+04</totfact>
</mgrwt>
</event>
<event>
 4    0  0.1003929E-001  0.3056486E+03  0.7546771E-02  0.1082451E+00
         21   -1    0    0  503  501  0.00000000000E+00  0.00000000000E+00  0.24631026236E+03  0.24631026236E+03  0.00000000000E+00 0.  1.
         21   -1    0    0  501  502 -0.00000000000E+00 -0.00000000000E+00 -0.41892810642E+03  0.41892810642E+03  0.00000000000E+00 0. -1.
         25    1    1    2    0    0  0.50726214240E+02  0.27426793644E+03  0.48283333740E+02  0.30943873398E+03  0.12500000000E+03 0.  0.
         21    1    1    2  503  502 -0.50726214240E+02 -0.27426793644E+03 -0.22090117780E+03  0.35579963480E+03  0.00000000000E+00 0. -1.
<mgrwt>
<rscale>  3 0.30564857E+03</rscale>
<asrwt>0</asrwt>
<pdfrwt beam="1">  1       21 0.37893887E-01 0.30564857E+03</pdfrwt>
<pdfrwt beam="2">  1       21 0.64450477E-01 0.30564857E+03</pdfrwt>
<totfact> 0.14054107E+04</totfact>
</mgrwt>
</event>
<event>
 4    0  0.1520903E-001  0.3092131E+03  0.7546771E-02  0.1080724E+00
         21   -1    0    0  502  501  0.00000000000E+00  0.00000000000E+00  0.14127282673E+03  0.14127282673E+03  0.00000000000E+00 0.  1.
         21   -1    0    0  503  502 -0.00000000000E+00 -0.00000000000E+00 -0.63093573040E+03  0.63093573040E+03  0.00000000000E+00 0.  1.
         25    1    1    2    0    0 -0.26854373695E+03 -0.88724390140E+02 -0.20539013477E+03  0.37121134617E+03  0.12500000000E+03 0.  0.
         21    1    1    2  503  501  0.26854373695E+03  0.88724390140E+02 -0.28427276890E+03  0.40099721096E+03  0.00000000000E+00 0.  1.
<mgrwt>
<rscale>  3 0.30921312E+03</rscale>
<asrwt>0</asrwt>
<pdfrwt beam="1">  1       21 0.21734281E-01 0.30921312E+03</pdfrwt>
<pdfrwt beam="2">  1       21 0.97067036E-01 0.30921312E+03</pdfrwt>
<totfact> 0.16374785E+04</totfact>
</mgrwt>
</event>
<event>
 4    0  0.1003929E-001  0.3925112E+03  0.7546771E-02  0.1046404E+00
         21   -1    0    0  503  501  0.00000000000E+00  0.00000000000E+00  0.68871089655E+03  0.68871089655E+03  0.00000000000E+00 0. -1.
         21   -1    0    0  501  502 -0.00000000000E+00 -0.00000000000E+00 -0.63728536021E+03  0.63728536021E+03  0.00000000000E+00 0. -1.
         25    1    1    2    0    0 -0.33831772825E+03  0.15485856951E+03  0.56735500827E+03  0.68989620032E+03  0.12500000000E+03 0.  0.
         21    1    1    2  503  502  0.33831772825E+03 -0.15485856951E+03 -0.51592947193E+03  0.63610005645E+03  0.00000000000E+00 0. -1.
<mgrwt>
<rscale>  3 0.39251123E+03</rscale>
<asrwt>0</asrwt>
<pdfrwt beam="1">  1       21 0.10595552E+00 0.39251123E+03</pdfrwt>
<pdfrwt beam="2">  1       21 0.98043902E-01 0.39251123E+03</pdfrwt>
<totfact> 0.52943314E+02</totfact>
</mgrwt>
</event>
<event>
 4    0  0.1403879E-001  0.2988044E+03  0.7546771E-02  0.1085840E+00
         21   -1    0    0  503  501  0.00000000000E+00  0.00000000000E+00  0.11075929846E+04  0.11075929846E+04  0.00000000000E+00 0.  1.
         21   -1    0    0  501  502 -0.00000000000E+00 -0.00000000000E+00 -0.10541801349E+04  0.10541801349E+04  0.00000000000E+00 0. -1.
         25    1    1    2    0    0  0.18273449817E+03 -0.20066679203E+03  0.10692963745E+04  0.11102606877E+04  0.12500000000E+03 0.  0.
         21    1    1    2  503  502 -0.18273449817E+03  0.20066679203E+03 -0.10158835248E+04  0.10515124318E+04  0.00000000000E+00 0. -1.
<mgrwt>
<rscale>  3 0.29880438E+03</rscale>
<asrwt>0</asrwt>
<pdfrwt beam="1">  1       21 0.17039892E+00 0.29880438E+03</pdfrwt>
<pdfrwt beam="2">  1       21 0.16218156E+00 0.29880438E+03</pdfrwt>
<totfact> 0.45123776E+01</totfact>
</mgrwt>
</event>
<event>
 4    0  0.1003929E-001  0.2380773E+03  0.7546771E-02  0.1121080E+00
         21   -1    0    0  502  501  0.00000000000E+00  0.00000000000E+00  0.73811327396E+03  0.73811327396E+03  0.00000000000E+00 0.  1.
         21   -1    0    0  503  502 -0.00000000000E+00 -0.00000000000E+00 -0.92726775904E+02  0.92726775904E+02  0.00000000000E+00 0.  1.
         25    1    1    2    0    0 -0.33149713277E+01 -0.20259513464E+03  0.11768688139E+03  0.26557669262E+03  0.12500000000E+03 0.  0.
         21    1    1    2  503  501  0.33149713277E+01  0.20259513464E+03  0.52769961666E+03  0.56526335724E+03  0.00000000000E+00 0.  1.
<mgrwt>
<rscale>  3 0.23807725E+03</rscale>
<asrwt>0</asrwt>
<pdfrwt beam="1">  1       21 0.11355588E+00 0.23807725E+03</pdfrwt>
<pdfrwt beam="2">  1       21 0.14265658E-01 0.23807725E+03</pdfrwt>
<totfact> 0.25324628E+04</totfact>
</mgrwt>
</event>
<event>
 4    0  0.1259820E-001  0.4604997E+03  0.7546771E-02  0.1024636E+00
         21   -1    0    0  502  501  0.00000000000E+00  0.00000000000E+00  0.28838545753E+03  0.28838545753E+03  0.00000000000E+00 0. -1.
         21   -1    0    0  503  502 -0.00000000000E+00 -0.00000000000E+00 -0.11799995920E+04  0.11799995920E+04  0.00000000000E+00 0.  1.
         25    1    1    2    0    0  0.41796855030E+03 -0.14743575304E+03  0.13375556726E+02  0.46069395029E+03  0.12500000000E+03 0.  0.
         21    1    1    2  503  501 -0.41796855030E+03  0.14743575304E+03 -0.90498969116E+03  0.10076910992E+04  0.00000000000E+00 0.  1.
<mgrwt>
<rscale>  3 0.46049974E+03</rscale>
<asrwt>0</asrwt>
<pdfrwt beam="1">  1       21 0.44366994E-01 0.46049974E+03</pdfrwt>
<pdfrwt beam="2">  1       21 0.18153840E+00 0.46049974E+03</pdfrwt>
<totfact> 0.71871394E+02</totfact>
</mgrwt>
</event>
<event>
 4    0  0.1204765E-001  0.3232149E+03  0.7546771E-02  0.1074179E+00
         21   -1    0    0  503  501  0.00000000000E+00  0.00000000000E+00  0.22633688920E+03  0.22633688920E+03  0.00000000000E+00 0.  1.
         21   -1    0    0  501  502 -0.00000000000E+00 -0.00000000000E+00 -0.66748162770E+03  0.66748162770E+03  0.00000000000E+00 0.  1.
         25    1    1    2    0    0 -0.13100198312E+03  0.26773379041E+03  0.42200279868E+02  0.32595822697E+03  0.12500000000E+03 0.  0.
         21    1    1    2  503  502  0.13100198312E+03 -0.26773379041E+03 -0.48334501836E+03  0.56786028993E+03  0.00000000000E+00 0.  1.
<mgrwt>
<rscale>  3 0.32321495E+03</rscale>
<asrwt>0</asrwt>
<pdfrwt beam="1">  1       21 0.34821060E-01 0.32321495E+03</pdfrwt>
<pdfrwt beam="2">  1       21 0.10268948E+00 0.32321495E+03</pdfrwt>
<totfact> 0.56603338E+03</totfact>
</mgrwt>
</event>
<event>
 4    0  0.1335691E-001  0.2531384E+03  0.7546771E-02  0.1111337E+00
         21   -1    0    0  503  501  0.00000000000E+00  0.00000000000E+00  0.18467067036E+03  0.18467067036E+03  0.00000000000E+00 0.  1.
         21   -1    0    0  501  502 -0.00000000000E+00 -0.00000000000E+00 -0.39121367989E+03  0.39121367989E+03  0.00000000000E+00 0.  1.
         25    1    1    2    0    0  0.21628567761E+03  0.40921530866E+02  0.27454548392E+02  0.25462289421E+03  0.12500000000E+03 0.  0.
         21    1    1    2  503  502 -0.21628567761E+03 -0.40921530866E+02 -0.23399755793E+03  0.32126145605E+03  0.00000000000E+00 0.  1.
<mgrwt>
<rscale>  3 0.25313843E+03</rscale>
<asrwt>0</asrwt>
<pdfrwt beam="1">  1       21 0.28410873E-01 0.25313843E+03</pdfrwt>
<pdfrwt beam="2">  1       21 0.60186720E-01 0.25313843E+03</pdfrwt>
<totfact> 0.29579206E+04</totfact>
</mgrwt>
</event>
<event>
 4    0  0.1035241E-001  0.2398949E+03  0.7546771E-02  0.1119863E+00
         21   -1    0    0  502  501  0.00000000000E+00  0.00000000000E+00  0.35610931554E+02  0.35610931554E+02  0.00000000000E+00 0. -1.
         21   -1    0    0  503  502 -0.00000000000E+00 -0.00000000000E+00 -0.14360352660E+04  0.14360352660E+04  0.00000000000E+00 0. -1.
         25    1    1    2    0    0  0.18404115207E+03 -0.89740818408E+02 -0.88785355134E+03  0.91969206192E+03  0.12500000000E+03 0.  0.
         21    1    1    2  503  501 -0.18404115207E+03  0.89740818408E+02 -0.51257078313E+03  0.55195413565E+03  0.00000000000E+00 0. -1.
<mgrwt>
<rscale>  3 0.23989489E+03</rscale>
<asrwt>0</asrwt>
<pdfrwt beam="1">  1       21 0.54786049E-02 0.23989489E+03</pdfrwt>
<pdfrwt beam="2">  1       21 0.22092850E+00 0.23989489E+03</pdfrwt>
<totfact> 0.22087616E+04</totfact>
</mgrwt>
</event>
<event>
 4    0  0.1396543E-001  0.2716667E+03  0.7546771E-02  0.1100330E+00
         21   -1    0    0  503  501  0.00000000000E+00  0.00000000000E+00  0.36634835709E+03  0.36634835709E+03  0.00000000000E+00 0. -1.
         21   -1    0    0  501  502 -0.00000000000E+00 -0.00000000000E+00 -0.28894480835E+03  0.28894480835E+03  0.00000000000E+00 0. -1.
         25    1    1    2    0    0 -0.25485704552E+01  0.24118723510E+03  0.24156093083E+03  0.36353055015E+03  0.12500000000E+03 0.  0.
         21    1    1    2  503  502  0.25485704552E+01 -0.24118723510E+03 -0.16415738209E+03  0.29176261529E+03  0.00000000000E+00 0. -1.
<mgrwt>
<rscale>  3 0.27166667E+03</rscale>
<asrwt>0</asrwt>
<pdfrwt beam="1">  1       21 0.56361286E-01 0.27166667E+03</pdfrwt>
<pdfrwt beam="2">  1       21 0.44453048E-01 0.27166667E+03</pdfrwt>
<totfact> 0.13767184E+04</totfact>
</mgrwt>
</event>
<event>
 4    0  0.1003929E-001  0.2635931E+03  0.7546771E-02  0.1105003E+00
         21   -1    0    0  502  501  0.00000000000E+00  0.00000000000E+00  0.11279364684E+03  0.11279364684E+03  0.00000000000E+00 0.  1.
         21   -1    0    0  503  502 -0.00000000000E+00 -0.00000000000E+00 -0.74166382169E+03  0.74166382169E+03  0.00000000000E+00 0.  1.
         25    1    1    2    0    0 -0.47177058762E+02 -0.22722383569E+03 -0.54904679683E+03  0.60904329197E+03  0.12500000000E+03 0.  0.
         21    1    1    2  503  501  0.47177058762E+02  0.22722383569E+03 -0.79823378023E+02  0.24541417657E+03  0.00000000000E+00 0.  1.
<mgrwt>
<rscale>  3 0.26359315E+03</rscale>
<asrwt>0</asrwt>
<pdfrwt beam="1">  1       21 0.17352868E-01 0.26359315E+03</pdfrwt>
<pdfrwt beam="2">  1       21 0.11410213E+00 0.26359315E+03</pdfrwt>
<totfact> 0.17234812E+04</totfact>
</mgrwt>
</event>
<event>
 4    0  0.1003929E-001  0.3945746E+03  0.7546771E-02  0.1045675E+00
         21   -1    0    0  502  501  0.00000000000E+00  0.00000000000E+00  0.15136266634E+03  0.15136266634E+03  0.00000000000E+00 0. -1.
         21   -1    0    0  503  502 -0.00000000000E+00 -0.00000000000E+00 -0.12342929460E+04  0.12342929460E+04  0.00000000000E+00 0. -1.
         25    1    1    2    0    0  0.19604884566E+01 -0.37424624062E+03 -0.86945961740E+03  0.95480318308E+03  0.12500000000E+03 0.  0.
         21    1    1    2  503  501 -0.19604884566E+01  0.37424624062E+03 -0.21347066223E+03  0.43085242922E+03  0.00000000000E+00 0. -1.
<mgrwt>
<rscale>  3 0.39457457E+03</rscale>
<asrwt>0</asrwt>
<pdfrwt beam="1">  1       21 0.23286564E-01 0.39457457E+03</pdfrwt>
<pdfrwt beam="2">  1       21 0.18989122E+00 0.39457457E+03</pdfrwt>
<totfact> 0.23600534E+03</totfact>
</mgrwt>
</event>
<event>
 4    0  0.1593329E-001  0.2452001E+03  0.7546771E-02  0.1116376E+00
         21   -1    0    0  503  501  0.00000000000E+00  0.00000000000E+00  0.27842752585E+03  0.27842752585E+03  0.00000000000E+00 0. -1.
         21   -1    0    0  501  502 -0.00000000000E+00 -0.00000000000E+00 -0.20570249313E+03  0.20570249313E+03  0.00000000000E+00 0. -1.
         25    1    1    2    0    0  0.78620021745E+02  0.19574727527E+03  0.11198472295E+03  0.26956201841E+03  0.12500000000E+03 0.  0.
         21    1    1    2  503  502 -0.78620021745E+02 -0.19574727527E+03 -0.39259690233E+02  0.21456800058E+03  0.00000000000E+00 0. -1.
<mgrwt>
<rscale>  3 0.24520013E+03</rscale>
<asrwt>0</asrwt>
<pdfrwt beam="1">  1       21 0.42835004E-01 0.24520013E+03</pdfrwt>
<pdfrwt beam="2">  1       21 0.31646537E-01 0.24520013E+03</pdfrwt>
<totfact> 0.49140401E+04</totfact>
</mgrwt>
</event>
<event>
 4    0  0.1003929E-001  0.2630103E+03  0.7546771E-02  0.1105348E+00
         21   -1    0    0  503  501  0.00000000000E+00  0.00000000000E+00  0.42729732481E+02  0.42729732481E+02  0.00000000000E+00 0.  1.
         21   -1    0    0  501  502 -0.00000000000E+00 -0.00000000000E+00 -0.21817056929E+04  0.21817056929E+04  0.00000000000E+00 0.  1.
         25    1    1    2    0    0 -0.19130677531E+03  0.13019659778E+03 -0.46241171340E+03  0.53197653054E+03  0.12500000000E+03 0.  0.
         21    1    1    2  503  502  0.19130677531E+03 -0.13019659778E+03 -0.16765642470E+04  0.16924588948E+04  0.00000000000E+00 0.  1.
<mgrwt>
<rscale>  3 0.26301034E+03</rscale>
<asrwt>0</asrwt>
<pdfrwt beam="1">  1       21 0.65738034E-02 0.26301034E+03</pdfrwt>
<pdfrwt beam="2">  1       21 0.33564711E+00 0.26301034E+03</pdfrwt>
<totfact> 0.33122232E+03</totfact>
</mgrwt>
</event>
<event>
 4    0  0.1494129E-001  0.2405011E+03  0.7546771E-02  0.1119459E+00
         21   -1    0    0  502  501  0.00000000000E+00  0.00000000000E+00  0.21056294723E+03  0.21056294723E+03  0.00000000000E+00 0. -1.
         21   -1    0    0  503  502 -0.00000000000E+00 -0.00000000000E+00 -0.25578826196E+03  0.25578826196E+03  0.00000000000E+00 0. -1.
         25    1    1    2    0    0 -0.14609995934E+03  0.14446661804E+03  0.40195738080E+02  0.24383703412E+03  0.12500000000E+03 0.  0.
         21    1    1    2  503  501  0.14609995934E+03 -0.14446661804E+03 -0.85421052801E+02  0.22251417507E+03  0.00000000000E+00 0. -1.
<mgrwt>
<rscale>  3 0.24050115E+03</rscale>
<asrwt>0</asrwt>
<pdfrwt beam="1">  1       21 0.32394299E-01 0.24050115E+03</pdfrwt>
<pdfrwt beam="2">  1       21 0.39352040E-01 0.24050115E+03</pdfrwt>
<totfact> 0.55890383E+04</totfact>
</mgrwt>
</event>
<event>
 4    0  0.1121953E-001  0.2379116E+03  0.7546771E-02  0.1121192E+00
         21   -1    0    0  503  501  0.00000000000E+00  0.00000000000E+00  0.15557080519E+03  0.15557080519E+03  0.00000000000E+00 0.  1.
         21   -1    0    0  501  502 -0.00000000000E+00 -0.00000000000E+00 -0.93105325626E+03  0.93105325626E+03  0.00000000000E+00 0.  1.
         25    1    1    2    0    0 -0.88316457152E+02  0.18214586816E+03  0.44488865439E+02  0.24203547888E+03  0.12500000000E+03 0.  0.
         21    1    1    2  503  502  0.88316457152E+02 -0.18214586816E+03 -0.81997131651E+03  0.84458858256E+03  0.00000000000E+00 0.  1.
<mgrwt>
<rscale>  3 0.23791157E+03</rscale>
<asrwt>0</asrwt>
<pdfrwt beam="1">  1       21 0.23933970E-01 0.23791157E+03</pdfrwt>
<pdfrwt beam="2">  1       21 0.14323896E+00 0.23791157E+03</pdfrwt>
<totfact> 0.53615336E+03</totfact>
</mgrwt>
</event>
<event>
 4    0  0.1306522E-001  0.2583400E+03  0.7546771E-02  0.1108145E+00
         21   -1    0    0  502  501  0.00000000000E+00  0.00000000000E+00  0.18558057206E+03  0.18558057206E+03  0.00000000000E+00 0. -1.
         21   -1    0    0  503  502 -0.00000000000E+00 -0.00000000000E+00 -0.32381330542E+03  0.32381330542E+03  0.00000000000E+00 0. -1.
         25    1    1    2    0    0  0.22231490399E+03  0.41117528031E+02 -0.11276541527E+03  0.28187870889E+03  0.12500000000E+03 0.  0.
         21    1    1    2  503  501 -0.22231490399E+03 -0.41117528031E+02 -0.25467318096E+02  0.22751516859E+03  0.00000000000E+00 0. -1.
<mgrwt>
<rscale>  3 0.25834002E+03</rscale>
<asrwt>0</asrwt>
<pdfrwt beam="1">  1       21 0.28550858E-01 0.25834002E+03</pdfrwt>
<pdfrwt beam="2">  1       21 0.49817431E-01 0.25834002E+03</pdfrwt>
<totfact> 0.43731766E+04</totfact>
</mgrwt>
</event>
<event>
 4    0  0.1365338E-001  0.2871743E+03  0.7546771E-02  0.1091834E+00
         21   -1    0    0  502  501  0.00000000000E+00  0.00000000000E+00  0.69772200881E+03  0.69772200881E+03  0.00000000000E+00 0.  1.
         21   -1    0    0  503  502 -0.00000000000E+00 -0.00000000000E+00 -0.10679307373E+03  0.10679307373E+03  0.00000000000E+00 0.  1.
         25    1    1    2    0    0  0.11197915216E+03 -0.23303380559E+03  0.29953204138E+03  0.41495605657E+03  0.12500000000E+03 0.  0.
         21    1    1    2  503  501 -0.11197915216E+03  0.23303380559E+03  0.29139689370E+03  0.38955902598E+03  0.00000000000E+00 0.  1.
<mgrwt>
<rscale>  3 0.28717431E+03</rscale>
<asrwt>0</asrwt>
<pdfrwt beam="1">  1       21 0.10734184E+00 0.28717431E+03</pdfrwt>
<pdfrwt beam="2">  1       21 0.16429704E-01 0.28717431E+03</pdfrwt>
<totfact> 0.21911452E+04</totfact>
</mgrwt>
</event>
<event>
 4    0  0.1336520E-001  0.2851924E+03  0.7546771E-02  0.1092886E+00
         21   -1    0    0  502  501  0.00000000000E+00  0.00000000000E+00  0.65740698397E+02  0.65740698397E+02  0.00000000000E+00 0. -1.
         21   -1    0    0  503  502 -0.00000000000E+00 -0.00000000000E+00 -0.14166440417E+04  0.14166440417E+04  0.00000000000E+00 0. -1.
         25    1    1    2    0    0  0.55936156585E+02 -0.25016166777E+03 -0.36226145727E+03  0.46105105689E+03  0.12500000000E+03 0.  0.
         21    1    1    2  503  501 -0.55936156585E+02  0.25016166777E+03 -0.98864188600E+03  0.10213336832E+04  0.00000000000E+00 0. -1.
<mgrwt>
<rscale>  3 0.28519242E+03</rscale>
<asrwt>0</asrwt>
<pdfrwt beam="1">  1       21 0.10113953E-01 0.28519242E+03</pdfrwt>
<pdfrwt beam="2">  1       21 0.21794524E+00 0.28519242E+03</pdfrwt>
<totfact> 0.76789813E+03</totfact>
</mgrwt>
</event>
<event>
 4    0  0.1144363E-001  0.2523011E+03  0.7546771E-02  0.1111859E+00
         21   -1    0    0  502  501  0.00000000000E+00  0.00000000000E+00  0.13499945378E+03  0.13499945378E+03  0.00000000000E+00 0.  1.
         21   -1    0    0  503  502 -0.00000000000E+00 -0.00000000000E+00 -0.42883331695E+03  0.42883331695E+03  0.00000000000E+00 0.  1.
         25    1    1    2    0    0 -0.13056158883E+02 -0.21877013582E+03 -0.21317449685E+03  0.33030168289E+03  0.12500000000E+03 0.  0.
         21    1    1    2  503  501  0.13056158883E+02  0.21877013582E+03 -0.80659366316E+02  0.23353108784E+03  0.00000000000E+00 0.  1.
<mgrwt>
<rscale>  3 0.25230108E+03</rscale>
<asrwt>0</asrwt>
<pdfrwt beam="1">  1       21 0.20769147E-01 0.25230108E+03</pdfrwt>
<pdfrwt beam="2">  1       21 0.65974355E-01 0.25230108E+03</pdfrwt>
<totfact> 0.44154614E+04</totfact>
</mgrwt>
</event>
<event>
 4    0  0.1547030E-001  0.2814215E+03  0.7546771E-02  0.1094915E+00
         21   -1    0    0  503  501  0.00000000000E+00  0.00000000000E+00  0.89028747919E+03  0.89028747919E+03  0.00000000000E+00 0.  1.
         21   -1    0    0  501  502 -0.00000000000E+00 -0.00000000000E+00 -0.22645793534E+03  0.22645793534E+03  0.00000000000E+00 0. -1.
         25    1    1    2    0    0 -0.20345975353E+03  0.14892009158E+03  0.78723789489E+03  0.83602725322E+03  0.12500000000E+03 0.  0.
         21    1    1    2  503  502  0.20345975353E+03 -0.14892009158E+03 -0.12340835104E+03  0.28071816131E+03  0.00000000000E+00 0. -1.
<mgrwt>
<rscale>  3 0.28142151E+03</rscale>
<asrwt>0</asrwt>
<pdfrwt beam="1">  1       21 0.13696730E+00 0.28142151E+03</pdfrwt>
<pdfrwt beam="2">  1       21 0.34839683E-01 0.28142151E+03</pdfrwt>
<totfact> 0.28120336E+03</totfact>
</mgrwt>
</event>
<event>
 4    0  0.1073527E-001  0.2721038E+03  0.7546771E-02  0.1100082E+00
         21   -1    0    0  502  501  0.00000000000E+00  0.00000000000E+00  0.10632243630E+04  0.10632243630E+04  0.00000000000E+00 0.  1.
         21   -1    0    0  503  502 -0.00000000000E+00 -0.00000000000E+00 -0.99009398883E+02  0.99009398883E+02  0.00000000000E+00 0. -1.
         25    1    1    2    0    0 -0.20195539259E+03  0.13277620609E+03  0.85454850788E+03  0.89682420453E+03  0.12500000000E+03 0.  0.
         21    1    1    2  503  501  0.20195539259E+03 -0.13277620609E+03  0.10966645620E+03  0.26540955732E+03  0.00000000000E+00 0. -1.
<mgrwt>
<rscale>  3 0.27210384E+03</rscale>
<asrwt>0</asrwt>
<pdfrwt beam="1">  1       21 0.16357297E+00 0.27210384E+03</pdfrwt>
<pdfrwt beam="2">  1       21 0.15232216E-01 0.27210384E+03</pdfrwt>
<totfact> 0.85649972E+03</totfact>
</mgrwt>
</event>
<event>
 4    0  0.1466387E-001  0.2508719E+03  0.7546771E-02  0.1112755E+00
         21   -1    0    0  503  501  0.00000000000E+00  0.00000000000E+00  0.38137720982E+03  0.38137720982E+03  0.00000000000E+00 0.  1.
         21   -1    0    0  501  502 -0.00000000000E+00 -0.00000000000E+00 -0.16129026156E+03  0.16129026156E+03  0.00000000000E+00 0.  1.
         25    1    1    2    0    0 -0.21747261703E+03 -0.41669059416E+01  0.20615361955E+03  0.32470912694E+03  0.12500000000E+03 0.  0.
         21    1    1    2  503  502  0.21747261703E+03  0.41669059416E+01  0.13933328719E+02  0.21795834444E+03  0.00000000000E+00 0.  1.
<mgrwt>
<rscale>  3 0.25087188E+03</rscale>
<asrwt>0</asrwt>
<pdfrwt beam="1">  1       21 0.58673417E-01 0.25087188E+03</pdfrwt>
<pdfrwt beam="2">  1       21 0.24813886E-01 0.25087188E+03</pdfrwt>
<totfact> 0.40642875E+04</totfact>
</mgrwt>
</event>
<event>
 4    0  0.1422300E-001  0.2866306E+03  0.7546771E-02  0.1092122E+00
         21   -1    0    0  502  501  0.00000000000E+00  0.00000000000E+00  0.48329247950E+03  0.48329247950E+03  0.00000000000E+00 0.  1.
         21   -1    0    0  503  502 -0.00000000000E+00 -0.00000000000E+00 -0.15391236520E+03  0.15391236520E+03  0.00000000000E+00 0.  1.
         25    1    1    2    0    0 -0.13602825604E+03 -0.21915380787E+03  0.15504470562E+03  0.32587718344E+03  0.12500000000E+03 0.  0.
         21    1    1    2  503  501  0.13602825604E+03  0.21915380787E+03  0.17433540868E+03  0.31132766126E+03  0.00000000000E+00 0.  1.
<mgrwt>
<rscale>  3 0.28663056E+03</rscale>
<asrwt>0</asrwt>
<pdfrwt beam="1">  1       21 0.74352689E-01 0.28663056E+03</pdfrwt>
<pdfrwt beam="2">  1       21 0.23678826E-01 0.28663056E+03</pdfrwt>
<totfact> 0.26013291E+04</totfact>
</mgrwt>
</event>
<event>
 4    0  0.1466072E-001  0.3417067E+03  0.7546771E-02  0.1066071E+00
         21   -1    0    0  503  501  0.00000000000E+00  0.00000000000E+00  0.68858823301E+03  0.68858823301E+03  0.00000000000E+00 0. -1.
         21   -1    0    0  501  502 -0.00000000000E+00 -0.00000000000E+00 -0.33650597441E+03  0.33650597441E+03  0.00000000000E+00 0.  1.
         25    1    1    2    0    0  0.19467911251E+03  0.25147263196E+03  0.55217993178E+03  0.64935823591E+03  0.12500000000E+03 0.  0.
         21    1    1    2  503  502 -0.19467911251E+03 -0.25147263196E+03 -0.20009767319E+03  0.37573597152E+03  0.00000000000E+00 0.  1.
<mgrwt>
<rscale>  3 0.34170666E+03</rscale>
<asrwt>0</asrwt>
<pdfrwt beam="1">  1       21 0.10593665E+00 0.34170666E+03</pdfrwt>
<pdfrwt beam="2">  1       21 0.51770150E-01 0.34170666E+03</pdfrwt>
<totfact> 0.22928949E+03</totfact>
</mgrwt>
</event>
<event>
 4    0  0.1382634E-001  0.2952673E+03  0.7546771E-02  0.1087631E+00
         21   -1    0    0  502  501  0.00000000000E+00  0.00000000000E+00  0.67819572024E+03  0.67819572024E+03  0.00000000000E+00 0. -1.
         21   -1    0    0  503  502 -0.00000000000E+00 -0.00000000000E+00 -0.15419198775E+03  0.15419198775E+03  0.00000000000E+00 0. -1.
         25    1    1    2    0    0 -0.11251219986E+03  0.24269066635E+03  0.47669693247E+03  0.56073409035E+03  0.12500000000E+03 0.  0.
         21    1    1    2  503  501  0.11251219986E+03 -0.24269066635E+03  0.47306800021E+02  0.27165361765E+03  0.00000000000E+00 0. -1.
<mgrwt>
<rscale>  3 0.29526726E+03</rscale>
<asrwt>0</asrwt>
<pdfrwt beam="1">  1       21 0.10433780E+00 0.29526726E+03</pdfrwt>
<pdfrwt beam="2">  1       21 0.23721845E-01 0.29526726E+03</pdfrwt>
<totfact> 0.11712452E+04</totfact>
</mgrwt>
</event>
<event>
 4    0  0.1003929E-001  0.2389253E+03  0.7546771E-02  0.1120511E+00
         21   -1    0    0  503  501  0.00000000000E+00  0.00000000000E+00  0.28626896874E+04  0.28626896874E+04  0.00000000000E+00 0. -1.
         21   -1    0    0  501  502 -0.00000000000E+00 -0.00000000000E+00 -0.40639702693E+02  0.40639702693E+02  0.00000000000E+00 0. -1.
         25    1    1    2    0    0  0.10589671865E+03  0.17391436646E+03  0.25616663523E+04  0.25727844493E+04  0.12500000000E+03 0.  0.
         21    1    1    2  503  502 -0.10589671865E+03 -0.17391436646E+03  0.26038363242E+03  0.33054494084E+03  0.00000000000E+00 0. -1.
<mgrwt>
<rscale>  3 0.23892535E+03</rscale>
<asrwt>0</asrwt>
<pdfrwt beam="1">  1       21 0.44041364E+00 0.23892535E+03</pdfrwt>
<pdfrwt beam="2">  1       21 0.62522642E-02 0.23892535E+03</pdfrwt>
<totfact> 0.82684464E+02</totfact>
</mgrwt>
</event>
<event>
 4    0  0.1003929E-001  0.3358663E+03  0.7546771E-02  0.1068570E+00
         21   -1    0    0  502  501  0.00000000000E+00  0.00000000000E+00  0.20606920223E+03  0.20606920223E+03  0.00000000000E+00 0.  1.
         21   -1    0    0  503  502 -0.00000000000E+00 -0.00000000000E+00 -0.12151624649E+04  0.12151624649E+04  0.00000000000E+00 0.  1.
         25    1    1    2    0    0 -0.23532996283E+03  0.20445294230E+03  0.29215568276E+02  0.33713461177E+03  0.12500000000E+03 0.  0.
         21    1    1    2  503  501  0.23532996283E+03 -0.20445294230E+03 -0.10383088309E+04  0.10840970554E+04  0.00000000000E+00 0.  1.
<mgrwt>
<rscale>  3 0.33586634E+03</rscale>
<asrwt>0</asrwt>
<pdfrwt beam="1">  1       21 0.31702953E-01 0.33586634E+03</pdfrwt>
<pdfrwt beam="2">  1       21 0.18694808E+00 0.33586634E+03</pdfrwt>
<totfact> 0.13946695E+03</totfact>
</mgrwt>
</event>
<event>
 4    0  0.1150436E-001  0.2797529E+03  0.7546771E-02  0.1095824E+00
         21   -1    0    0  503  501  0.00000000000E+00  0.00000000000E+00  0.74500823344E+02  0.74500823344E+02  0.00000000000E+00 0. -1.
         21   -1    0    0  501  502 -0.00000000000E+00 -0.00000000000E+00 -0.14987620947E+04  0.14987620947E+04  0.00000000000E+00 0. -1.
         25    1    1    2    0    0 -0.51674666047E+02  0.24488039117E+03 -0.25836533192E+03  0.38080746031E+03  0.12500000000E+03 0.  0.
         21    1    1    2  503  502  0.51674666047E+02 -0.24488039117E+03 -0.11658959394E+04  0.11924554577E+04  0.00000000000E+00 0. -1.
<mgrwt>
<rscale>  3 0.27975289E+03</rscale>
<asrwt>0</asrwt>
<pdfrwt beam="1">  1       21 0.11461665E-01 0.27975289E+03</pdfrwt>
<pdfrwt beam="2">  1       21 0.23057878E+00 0.27975289E+03</pdfrwt>
<totfact> 0.51412196E+03</totfact>
</mgrwt>
</event>
<event>
 4    0  0.2263424E-001  0.2389495E+03  0.7546771E-02  0.1120495E+00
         21   -1    0    0  502  501  0.00000000000E+00  0.00000000000E+00  0.32813565011E+03  0.32813565011E+03  0.00000000000E+00 0. -1.
         21   -1    0    0  503  502 -0.00000000000E+00 -0.00000000000E+00 -0.10168602722E+04  0.10168602722E+04  0.00000000000E+00 0.  1.
         25    1    1    2    0    0 -0.20351442000E+03 -0.73319840080E+01  0.27250517256E+03  0.36243060882E+03  0.12500000000E+03 0.  0.
         21    1    1    2  503  501  0.20351442000E+03  0.73319840080E+01 -0.96122979468E+03  0.98256531351E+03  0.00000000000E+00 0.  1.
<mgrwt>
<rscale>  3 0.23894953E+03</rscale>
<asrwt>0</asrwt>
<pdfrwt beam="1">  1       21 0.50482409E-01 0.23894953E+03</pdfrwt>
<pdfrwt beam="2">  1       21 0.15644004E+00 0.23894953E+03</pdfrwt>
<totfact> 0.95472045E+02</totfact>
</mgrwt>
</event>
<event>
 4    0  0.1645164E-001  0.3975521E+03  0.7546771E-02  0.1044631E+00
         21   -1    0    0  502  501  0.00000000000E+00  0.00000000000E+00  0.61773135431E+03  0.61773135431E+03  0.00000000000E+00 0. -1.
         21   -1    0    0  503  502 -0.00000000000E+00 -0.00000000000E+00 -0.24880855647E+03  0.24880855647E+03  0.00000000000E+00 0. -1.
         25    1    1    2    0    0 -0.37524043990E+03  0.40215214639E+02  0.12320019418E+03  0.41620420357E+03  0.12500000000E+03 0.  0.
         21    1    1    2  503  501  0.37524043990E+03 -0.40215214639E+02  0.24572260366E+03  0.45033570720E+03  0.00000000000E+00 0. -1.
<mgrwt>
<rscale>  3 0.39755207E+03</rscale>
<asrwt>0</asrwt>
<pdfrwt beam="1">  1       21 0.95035593E-01 0.39755207E+03</pdfrwt>
<pdfrwt beam="2">  1       21 0.38278240E-01 0.39755207E+03</pdfrwt>
<totfact> 0.54587244E+03</totfact>
</mgrwt>
</event>
<event>
 4    0  0.1346146E-001  0.2478837E+03  0.7546771E-02  0.1114650E+00
         21   -1    0    0  502  501  0.00000000000E+00  0.00000000000E+00  0.11237215581E+04  0.11237215581E+04  0.00000000000E+00 0.  1.
         21   -1    0    0  503  502 -0.00000000000E+00 -0.00000000000E+00 -0.94666915616E+02  0.94666915616E+02  0.00000000000E+00 0. -1.
         25    1    1    2    0    0 -0.21033732269E+03  0.39743314773E+02  0.96296657104E+03  0.99435956139E+03  0.12500000000E+03 0.  0.
         21    1    1    2  503  501  0.21033732269E+03 -0.39743314773E+02  0.66088071495E+02  0.22402891238E+03  0.00000000000E+00 0. -1.
<mgrwt>
<rscale>  3 0.24788368E+03</rscale>
<asrwt>0</asrwt>
<pdfrwt beam="1">  1       21 0.17288023E+00 0.24788368E+03</pdfrwt>
<pdfrwt beam="2">  1       21 0.14564142E-01 0.24788368E+03</pdfrwt>
<totfact> 0.80941498E+03</totfact>
</mgrwt>
</event>
<event>
 4    0  0.1384491E-001  0.2615603E+03  0.7546771E-02  0.1106209E+00
         21   -1    0    0  502  501  0.00000000000E+00  0.00000000000E+00  0.13034239867E+03  0.13034239867E+03  0.00000000000E+00 0. -1.
         21   -1    0    0  503  502 -0.00000000000E+00 -0.00000000000E+00 -0.59734385310E+03  0.59734385310E+03  0.00000000000E+00 0. -1.
         25    1    1    2    0    0 -0.17900135450E+03  0.14403917034E+03 -0.72947109374E+02  0.27154198252E+03  0.12500000000E+03 0.  0.
         21    1    1    2  503  501  0.17900135450E+03 -0.14403917034E+03 -0.39405434506E+03  0.45614426924E+03  0.00000000000E+00 0. -1.
<mgrwt>
<rscale>  3 0.26156026E+03</rscale>
<asrwt>0</asrwt>
<pdfrwt beam="1">  1       21 0.20052677E-01 0.26156026E+03</pdfrwt>
<pdfrwt beam="2">  1       21 0.91899055E-01 0.26156026E+03</pdfrwt>
<totfact> 0.22159369E+04</totfact>
</mgrwt>
</event>
<event>
 4    0  0.1178848E-001  0.2715989E+03  0.7546771E-02  0.1100368E+00
         21   -1    0    0  503  501  0.00000000000E+00  0.00000000000E+00  0.16656016447E+04  0.16656016447E+04  0.00000000000E+00 0. -1.
         21   -1    0    0  501  502 -0.00000000000E+00 -0.00000000000E+00 -0.44857546103E+02  0.44857546103E+02  0.00000000000E+00 0. -1.
         25    1    1    2    0    0 -0.61835843530E+02 -0.23306072011E+03  0.11489966667E+04  0.11806605401E+04  0.12500000000E+03 0.  0.
         21    1    1    2  503  502  0.61835843530E+02  0.23306072011E+03  0.47174743186E+03  0.52979865069E+03  0.00000000000E+00 0. -1.
<mgrwt>
<rscale>  3 0.27159892E+03</rscale>
<asrwt>0</asrwt>
<pdfrwt beam="1">  1       21 0.25624636E+00 0.27159892E+03</pdfrwt>
<pdfrwt beam="2">  1       21 0.69011622E-02 0.27159892E+03</pdfrwt>
<totfact> 0.88687267E+03</totfact>
</mgrwt>
</event>
<event>
 4    0  0.1384867E-001  0.2821772E+03  0.7546771E-02  0.1094506E+00
         21   -1    0    0  503  501  0.00000000000E+00  0.00000000000E+00  0.23508696658E+03  0.23508696658E+03  0.00000000000E+00 0. -1.
         21   -1    0    0  501  502 -0.00000000000E+00 -0.00000000000E+00 -0.49768595883E+03  0.49768595883E+03  0.00000000000E+00 0. -1.
         25    1    1    2    0    0  0.25084559718E+03  0.32793983998E+02  0.92343114829E+02  0.29690269428E+03  0.12500000000E+03 0.  0.
         21    1    1    2  503  502 -0.25084559718E+03 -0.32793983998E+02 -0.35494210707E+03  0.43587023113E+03  0.00000000000E+00 0. -1.
<mgrwt>
<rscale>  3 0.28217718E+03</rscale>
<asrwt>0</asrwt>
<pdfrwt beam="1">  1       21 0.36167226E-01 0.28217718E+03</pdfrwt>
<pdfrwt beam="2">  1       21 0.76567071E-01 0.28217718E+03</pdfrwt>
<totfact> 0.10625229E+04</totfact>
</mgrwt>
</event>
<event>
 4    0  0.1217764E-001  0.2436709E+03  0.7546771E-02  0.1117371E+00
         21   -1    0    0  502  501  0.00000000000E+00  0.00000000000E+00  0.78577123525E+03  0.78577123525E+03  0.00000000000E+00 0. -1.
         21   -1    0    0  503  502 -0.00000000000E+00 -0.00000000000E+00 -0.13392049492E+03  0.13392049492E+03  0.00000000000E+00 0. -1.
         25    1    1    2    0    0 -0.15902056794E+03  0.13587856065E+03  0.66686325784E+03  0.70998741463E+03  0.12500000000E+03 0.  0.
         21    1    1    2  503  501  0.15902056794E+03 -0.13587856065E+03 -0.15012517517E+02  0.20970431554E+03  0.00000000000E+00 0. -1.
<mgrwt>
<rscale>  3 0.24367093E+03</rscale>
<asrwt>0</asrwt>
<pdfrwt beam="1">  1       21 0.12088788E+00 0.24367093E+03</pdfrwt>
<pdfrwt beam="2">  1       21 0.20603153E-01 0.24367093E+03</pdfrwt>
<totfact> 0.10951168E+04</totfact>
</mgrwt>
</event>
<event>
 4    0  0.1468072E-001  0.2360275E+03  0.7546771E-02  0.1122468E+00
         21   -1    0    0  502  501  0.00000000000E+00  0.00000000000E+00  0.38956642298E+03  0.38956642298E+03  0.00000000000E+00 0. -1.
         21   -1    0    0  503  502 -0.00000000000E+00 -0.00000000000E+00 -0.16928917731E+03  0.16928917731E+03  0.00000000000E+00 0. -1.
         25    1    1    2    0    0  0.13381022083E+03  0.14892544645E+03  0.26379293579E+03  0.35397129371E+03  0.12500000000E+03 0.  0.
         21    1    1    2  503  501 -0.13381022083E+03 -0.14892544645E+03 -0.43515690125E+02  0.20488430658E+03  0.00000000000E+00 0. -1.
<mgrwt>
<rscale>  3 0.23602746E+03</rscale>
<asrwt>0</asrwt>
<pdfrwt beam="1">  1       21 0.59933296E-01 0.23602746E+03</pdfrwt>
<pdfrwt beam="2">  1       21 0.26044489E-01 0.23602746E+03</pdfrwt>
<totfact> 0.35600152E+04</totfact>
</mgrwt>
</event>
<event>
 4    0  0.1003929E-001  0.2587569E+03  0.7546771E-02  0.1107892E+00
         21   -1    0    0  503  501  0.00000000000E+00  0.00000000000E+00  0.10864614323E+03  0.10864614323E+03  0.00000000000E+00 0. -1.
         21   -1    0    0  501  502 -0.00000000000E+00 -0.00000000000E+00 -0.57071616590E+03  0.57071616590E+03  0.00000000000E+00 0.  1.
         25    1    1    2    0    0 -0.16757611018E+03 -0.15247413653E+03 -0.16952116850E+03  0.30934211091E+03  0.12500000000E+03 0.  0.
         21    1    1    2  503  502  0.16757611018E+03  0.15247413653E+03 -0.29254885418E+03  0.37002019822E+03  0.00000000000E+00 0.  1.
<mgrwt>
<rscale>  3 0.25875686E+03</rscale>
<asrwt>0</asrwt>
<pdfrwt beam="1">  1       21 0.16714791E-01 0.25875686E+03</pdfrwt>
<pdfrwt beam="2">  1       21 0.87802487E-01 0.25875686E+03</pdfrwt>
<totfact> 0.34657556E+04</totfact>
</mgrwt>
</event>
<event>
 4    0  0.1473445E-001  0.4298296E+03  0.7546771E-02  0.1033914E+00
         21   -1    0    0  503  501  0.00000000000E+00  0.00000000000E+00  0.61717269753E+03  0.61717269753E+03  0.00000000000E+00 0.  1.
         21   -1    0    0  501  502 -0.00000000000E+00 -0.00000000000E+00 -0.30887951811E+03  0.30887951811E+03  0.00000000000E+00 0.  1.
         25    1    1    2    0    0  0.22796204667E+02 -0.41062008199E+03  0.28175403483E+03  0.51394440830E+03  0.12500000000E+03 0.  0.
         21    1    1    2  503  502 -0.22796204667E+02  0.41062008199E+03  0.26539144580E+02  0.41210780734E+03  0.00000000000E+00 0.  1.
<mgrwt>
<rscale>  3 0.42982964E+03</rscale>
<asrwt>0</asrwt>
<pdfrwt beam="1">  1       21 0.94949645E-01 0.42982964E+03</pdfrwt>
<pdfrwt beam="2">  1       21 0.47519926E-01 0.42982964E+03</pdfrwt>
<totfact> 0.34507801E+03</totfact>
</mgrwt>
</event>
<event>
 4    0  0.1033847E-001  0.4031784E+03  0.7546771E-02  0.1042685E+00
         21   -1    0    0  502  501  0.00000000000E+00  0.00000000000E+00  0.53906760576E+03  0.53906760576E+03  0.00000000000E+00 0.  1.
         21   -1    0    0  503  502 -0.00000000000E+00 -0.00000000000E+00 -0.64858148507E+03  0.64858148507E+03  0.00000000000E+00 0.  1.
         25    1    1    2    0    0 -0.38146562132E+03 -0.37573782952E+02  0.38803210773E+03  0.55957280674E+03  0.12500000000E+03 0.  0.
         21    1    1    2  503  501  0.38146562132E+03  0.37573782952E+02 -0.49754598704E+03  0.62807628409E+03  0.00000000000E+00 0.  1.
<mgrwt>
<rscale>  3 0.40317838E+03</rscale>
<asrwt>0</asrwt>
<pdfrwt beam="1">  1       21 0.82933478E-01 0.40317838E+03</pdfrwt>
<pdfrwt beam="2">  1       21 0.99781767E-01 0.40317838E+03</pdfrwt>
<totfact> 0.90551224E+02</totfact>
</mgrwt>
</event>
<event>
 4    0  0.1564688E-001  0.3141532E+03  0.7546771E-02  0.1078372E+00
         21   -1    0    0  503  501  0.00000000000E+00  0.00000000000E+00  0.15852996940E+04  0.15852996940E+04  0.00000000000E+00 0. -1.
         21   -1    0    0  501  502 -0.00000000000E+00 -0.00000000000E+00 -0.32753120847E+03  0.32753120847E+03  0.00000000000E+00 0.  1.
         25    1    1    2    0    0 -0.28067904633E+03  0.65471436503E+02  0.15023388846E+04  0.15348336588E+04  0.12500000000E+03 0.  0.
         21    1    1    2  503  502  0.28067904633E+03 -0.65471436503E+02 -0.24457039912E+03  0.37799724360E+03  0.00000000000E+00 0.  1.
<mgrwt>
<rscale>  3 0.31415320E+03</rscale>
<asrwt>0</asrwt>
<pdfrwt beam="1">  1       21 0.24389226E+00 0.31415320E+03</pdfrwt>
<pdfrwt beam="2">  1       21 0.50389418E-01 0.31415320E+03</pdfrwt>
<totfact> 0.23755108E+02</totfact>
</mgrwt>
</event>
<event>
 4    0  0.1389753E-001  0.2452480E+03  0.7546771E-02  0.1116345E+00
         21   -1    0    0  502  501  0.00000000000E+00  0.00000000000E+00  0.33879203712E+03  0.33879203712E+03  0.00000000000E+00 0.  1.
         21   -1    0    0  503  502 -0.00000000000E+00 -0.00000000000E+00 -0.15376160921E+03  0.15376160921E+03  0.00000000000E+00 0.  1.
         25    1    1    2    0    0 -0.70919991830E+02  0.19872579403E+03  0.10723618707E+03  0.26766805239E+03  0.12500000000E+03 0.  0.
         21    1    1    2  503  501  0.70919991830E+02 -0.19872579403E+03  0.77794240836E+02  0.22488559394E+03  0.00000000000E+00 0.  1.
<mgrwt>
<rscale>  3 0.24524801E+03</rscale>
<asrwt>0</asrwt>
<pdfrwt beam="1">  1       21 0.52121852E-01 0.24524801E+03</pdfrwt>
<pdfrwt beam="2">  1       21 0.23655632E-01 0.24524801E+03</pdfrwt>
<totfact> 0.57452205E+04</totfact>
</mgrwt>
</event>
<event>
 4    0  0.1821757E-001  0.3013241E+03  0.7546771E-02  0.1084581E+00
         21   -1    0    0  502  501  0.00000000000E+00  0.00000000000E+00  0.12573976905E+04  0.12573976905E+04  0.00000000000E+00 0. -1.
         21   -1    0    0  503  502 -0.00000000000E+00 -0.00000000000E+00 -0.28573711387E+03  0.28573711387E+03  0.00000000000E+00 0.  1.
         25    1    1    2    0    0  0.39326753254E+02  0.27133861309E+03  0.11677858774E+04  0.12060348635E+04  0.12500000000E+03 0.  0.
         21    1    1    2  503  501 -0.39326753254E+02 -0.27133861309E+03 -0.19612530084E+03  0.33709994082E+03  0.00000000000E+00 0.  1.
<mgrwt>
<rscale>  3 0.30132414E+03</rscale>
<asrwt>0</asrwt>
<pdfrwt beam="1">  1       21 0.19344579E+00 0.30132414E+03</pdfrwt>
<pdfrwt beam="2">  1       21 0.43959557E-01 0.30132414E+03</pdfrwt>
<totfact> 0.66540410E+02</totfact>
</mgrwt>
</event>
<event>
 4    0  0.1238457E-001  0.2428853E+03  0.7546771E-02  0.1117885E+00
         21   -1    0    0  502  501  0.00000000000E+00  0.00000000000E+00  0.76961055356E+03  0.76961055356E+03  0.00000000000E+00 0.  1.
         21   -1    0    0  503  502 -0.00000000000E+00 -0.00000000000E+00 -0.69296094962E+02  0.69296094962E+02  0.00000000000E+00 0.  1.
         25    1    1    2    0    0  0.94806921901E+02 -0.18541827846E+03  0.46545701352E+03  0.52501763958E+03  0.12500000000E+03 0.  0.
         21    1    1    2  503  501 -0.94806921901E+02  0.18541827846E+03  0.23485744507E+03  0.31388900894E+03  0.00000000000E+00 0.  1.
<mgrwt>
<rscale>  3 0.24288534E+03</rscale>
<asrwt>0</asrwt>
<pdfrwt beam="1">  1       21 0.11840162E+00 0.24288534E+03</pdfrwt>
<pdfrwt beam="2">  1       21 0.10660938E-01 0.24288534E+03</pdfrwt>
<totfact> 0.38539204E+04</totfact>
</mgrwt>
</event>
<event>
 4    0  0.1451119E-001  0.3548570E+03  0.7546771E-02  0.1060639E+00
         21   -1    0    0  502  501  0.00000000000E+00  0.00000000000E+00  0.11839840854E+03  0.11839840854E+03  0.00000000000E+00 0.  1.
         21   -1    0    0  503  502 -0.00000000000E+00 -0.00000000000E+00 -0.99670636452E+03  0.99670636452E+03  0.00000000000E+00 0.  1.
         25    1    1    2    0    0  0.29535473012E+03 -0.15186851378E+03 -0.46209095990E+03  0.58262467962E+03  0.12500000000E+03 0.  0.
         21    1    1    2  503  501 -0.29535473012E+03  0.15186851378E+03 -0.41621699608E+03  0.53248009343E+03  0.00000000000E+00 0.  1.
<mgrwt>
<rscale>  3 0.35485696E+03</rscale>
<asrwt>0</asrwt>
<pdfrwt beam="1">  1       21 0.18215140E-01 0.35485696E+03</pdfrwt>
<pdfrwt beam="2">  1       21 0.15333944E+00 0.35485696E+03</pdfrwt>
<totfact> 0.70354950E+03</totfact>
</mgrwt>
</event>
<event>
 4    0  0.1740107E-001  0.2631043E+03  0.7546771E-02  0.1105292E+00
         21   -1    0    0  503  501  0.00000000000E+00  0.00000000000E+00  0.39069487741E+03  0.39069487741E+03  0.00000000000E+00 0.  1.
         21   -1    0    0  501  502 -0.00000000000E+00 -0.00000000000E+00 -0.61390731421E+03  0.61390731421E+03  0.00000000000E+00 0. -1.
         25    1    1    2    0    0  0.22856602763E+03  0.36829860512E+02  0.31990363995E+03  0.41420068381E+03  0.12500000000E+03 0.  0.
         21    1    1    2  503  502 -0.22856602763E+03 -0.36829860512E+02 -0.54311607675E+03  0.59040150782E+03  0.00000000000E+00 0. -1.
<mgrwt>
<rscale>  3 0.26310429E+03</rscale>
<asrwt>0</asrwt>
<pdfrwt beam="1">  1       21 0.60106904E-01 0.26310429E+03</pdfrwt>
<pdfrwt beam="2">  1       21 0.94447279E-01 0.26310429E+03</pdfrwt>
<totfact> 0.22952314E+03</totfact>
</mgrwt>
</event>
<event>
 4    0  0.1413661E-001  0.2902113E+03  0.7546771E-02  0.1090239E+00
         21   -1    0    0  503  501  0.00000000000E+00  0.00000000000E+00  0.75145389240E+03  0.75145389240E+03  0.00000000000E+00 0. -1.
         21   -1    0    0  501  502 -0.00000000000E+00 -0.00000000000E+00 -0.12688902457E+03  0.12688902457E+03  0.00000000000E+00 0. -1.
         25    1    1    2    0    0 -0.14217242217E+03  0.21996498730E+03  0.52163837440E+03  0.59693315113E+03  0.12500000000E+03 0.  0.
         21    1    1    2  503  502  0.14217242217E+03 -0.21996498730E+03  0.10292649343E+03  0.28140976585E+03  0.00000000000E+00 0. -1.
<mgrwt>
<rscale>  3 0.29021129E+03</rscale>
<asrwt>0</asrwt>
<pdfrwt beam="1">  1       21 0.11560829E+00 0.29021129E+03</pdfrwt>
<pdfrwt beam="2">  1       21 0.19521389E-01 0.29021129E+03</pdfrwt>
<totfact> 0.13220792E+04</totfact>
</mgrwt>
</event>
<event>
 4    0  0.1003929E-001  0.3075112E+03  0.7546771E-02  0.1081545E+00
         21   -1    0    0  502  501  0.00000000000E+00  0.00000000000E+00  0.12790161939E+03  0.12790161939E+03  0.00000000000E+00 0. -1.
         21   -1    0    0  503  502 -0.00000000000E+00 -0.00000000000E+00 -0.69086560052E+03  0.69086560052E+03  0.00000000000E+00 0.  1.
         25    1    1    2    0    0  0.36449368850E+02  0.27858494561E+03 -0.23574183938E+03  0.38747560342E+03  0.12500000000E+03 0.  0.
         21    1    1    2  503  501 -0.36449368850E+02 -0.27858494561E+03 -0.32722214175E+03  0.43129161650E+03  0.00000000000E+00 0.  1.
<mgrwt>
<rscale>  3 0.30751118E+03</rscale>
<asrwt>0</asrwt>
<pdfrwt beam="1">  1       21 0.19677172E-01 0.30751118E+03</pdfrwt>
<pdfrwt beam="2">  1       21 0.10628702E+00 0.30751118E+03</pdfrwt>
<totfact> 0.15889241E+04</totfact>
</mgrwt>
</event>
<event>
 4    0  0.1003929E-001  0.2462709E+03  0.7546771E-02  0.1115684E+00
         21   -1    0    0  502  501  0.00000000000E+00  0.00000000000E+00  0.50897083487E+02  0.50897083487E+02  0.00000000000E+00 0.  1.
         21   -1    0    0  503  502 -0.00000000000E+00 -0.00000000000E+00 -0.16237610408E+04  0.16237610408E+04  0.00000000000E+00 0.  1.
         25    1    1    2    0    0 -0.17388271283E+03  0.12161075195E+03 -0.31918035529E+03  0.40314448032E+03  0.12500000000E+03 0.  0.
         21    1    1    2  503  501  0.17388271283E+03 -0.12161075195E+03 -0.12536836020E+04  0.12715136440E+04  0.00000000000E+00 0.  1.
<mgrwt>
<rscale>  3 0.24627093E+03</rscale>
<asrwt>0</asrwt>
<pdfrwt beam="1">  1       21 0.78303223E-02 0.24627093E+03</pdfrwt>
<pdfrwt beam="2">  1       21 0.24980933E+00 0.24627093E+03</pdfrwt>
<totfact> 0.79204655E+03</totfact>
</mgrwt>
</event>
<event>
 4    0  0.1003929E-001  0.2631881E+03  0.7546771E-02  0.1105243E+00
         21   -1    0    0  503  501  0.00000000000E+00  0.00000000000E+00  0.11855785282E+04  0.11855785282E+04  0.00000000000E+00 0. -1.
         21   -1    0    0  501  502 -0.00000000000E+00 -0.00000000000E+00 -0.21568917049E+03  0.21568917049E+03  0.00000000000E+00 0. -1.
         25    1    1    2    0    0 -0.88048106251E+02  0.21422072059E+03 -0.11840836918E+03  0.28859751911E+03  0.12500000000E+03 0.  0.
         21    1    1    2  503  502  0.88048106251E+02 -0.21422072059E+03  0.10882977269E+04  0.11126701796E+04  0.00000000000E+00 0. -1.
<mgrwt>
<rscale>  3 0.26318812E+03</rscale>
<asrwt>0</asrwt>
<pdfrwt beam="1">  1       21 0.18239669E+00 0.26318812E+03</pdfrwt>
<pdfrwt beam="2">  1       21 0.33182950E-01 0.26318812E+03</pdfrwt>
<totfact> 0.14377482E+03</totfact>
</mgrwt>
</event>
<event>
 4    0  0.1640901E-001  0.2687638E+03  0.7546771E-02  0.1101989E+00
         21   -1    0    0  502  501  0.00000000000E+00  0.00000000000E+00  0.17281106658E+03  0.17281106658E+03  0.00000000000E+00 0. -1.
         21   -1    0    0  503  502 -0.00000000000E+00 -0.00000000000E+00 -0.46720720053E+03  0.46720720053E+03  0.00000000000E+00 0. -1.
         25    1    1    2    0    0 -0.21467349805E+03  0.10258796315E+03 -0.96280325277E+01  0.26893623772E+03  0.12500000000E+03 0.  0.
         21    1    1    2  503  501  0.21467349805E+03 -0.10258796315E+03 -0.28476810142E+03  0.37108202939E+03  0.00000000000E+00 0. -1.
<mgrwt>
<rscale>  3 0.26876384E+03</rscale>
<asrwt>0</asrwt>
<pdfrwt beam="1">  1       21 0.26586318E-01 0.26876384E+03</pdfrwt>
<pdfrwt beam="2">  1       21 0.71878031E-01 0.26876384E+03</pdfrwt>
<totfact> 0.22622710E+04</totfact>
</mgrwt>
</event>
<event>
 4    0  0.1430251E-001  0.2442576E+03  0.7546771E-02  0.1116989E+00
         21   -1    0    0  503  501  0.00000000000E+00  0.00000000000E+00  0.11897891821E+03  0.11897891821E+03  0.00000000000E+00 0. -1.
         21   -1    0    0  501  502 -0.00000000000E+00 -0.00000000000E+00 -0.63983079909E+03  0.63983079909E+03  0.00000000000E+00 0. -1.
         25    1    1    2    0    0  0.17815897921E+03  0.11088810739E+03 -0.58650152693E+02  0.25120038743E+03  0.12500000000E+03 0.  0.
         21    1    1    2  503  502 -0.17815897921E+03 -0.11088810739E+03 -0.46220172819E+03  0.50760932987E+03  0.00000000000E+00 0. -1.
<mgrwt>
<rscale>  3 0.24425764E+03</rscale>
<asrwt>0</asrwt>
<pdfrwt beam="1">  1       21 0.18304449E-01 0.24425764E+03</pdfrwt>
<pdfrwt beam="2">  1       21 0.98435508E-01 0.24425764E+03</pdfrwt>
<totfact> 0.22536267E+04</totfact>
</mgrwt>
</event>
<event>
 4    0  0.1027160E-001  0.2402583E+03  0.7546771E-02  0.1119621E+00
         21   -1    0    0  502  501  0.00000000000E+00  0.00000000000E+00  0.12984179907E+03  0.12984179907E+03  0.00000000000E+00 0. -1.
         21   -1    0    0  503  502 -0.00000000000E+00 -0.00000000000E+00 -0.16034895337E+04  0.16034895337E+04  0.00000000000E+00 0. -1.
         25    1    1    2    0    0  0.20084606128E+03 -0.41951258682E+02  0.52031131080E+01  0.24031462881E+03  0.12500000000E+03 0.  0.
         21    1    1    2  503  501 -0.20084606128E+03  0.41951258682E+02 -0.14788508477E+04  0.14930167040E+04  0.00000000000E+00 0. -1.
<mgrwt>
<rscale>  3 0.24025830E+03</rscale>
<asrwt>0</asrwt>
<pdfrwt beam="1">  1       21 0.19975663E-01 0.24025830E+03</pdfrwt>
<pdfrwt beam="2">  1       21 0.24669068E+00 0.24025830E+03</pdfrwt>
<totfact> 0.15295219E+03</totfact>
</mgrwt>
</event>
<event>
 4    0  0.1399570E-001  0.3076660E+03  0.7546771E-02  0.1081470E+00
         21   -1    0    0  503  501  0.00000000000E+00  0.00000000000E+00  0.14300564895E+03  0.14300564895E+03  0.00000000000E+00 0.  1.
         21   -1    0    0  501  502 -0.00000000000E+00 -0.00000000000E+00 -0.62748162799E+03  0.62748162799E+03  0.00000000000E+00 0.  1.
         25    1    1    2    0    0 -0.13293172125E+03  0.24771465991E+03 -0.18167044662E+03  0.35729895945E+03  0.12500000000E+03 0.  0.
         21    1    1    2  503  502  0.13293172125E+03 -0.24771465991E+03 -0.30280553242E+03  0.41318831749E+03  0.00000000000E+00 0.  1.
<mgrwt>
<rscale>  3 0.30766605E+03</rscale>
<asrwt>0</asrwt>
<pdfrwt beam="1">  1       21 0.22000869E-01 0.30766605E+03</pdfrwt>
<pdfrwt beam="2">  1       21 0.96535635E-01 0.30766605E+03</pdfrwt>
<totfact> 0.16219992E+04</totfact>
</mgrwt>
</event>
<event>
 4    0  0.1013853E-001  0.2417016E+03  0.7546771E-02  0.1118664E+00
         21   -1    0    0  502  501  0.00000000000E+00  0.00000000000E+00  0.21469014731E+03  0.21469014731E+03  0.00000000000E+00 0.  1.
         21   -1    0    0  503  502 -0.00000000000E+00 -0.00000000000E+00 -0.18384858190E+04  0.18384858190E+04  0.00000000000E+00 0.  1.
         25    1    1    2    0    0 -0.20619033029E+03  0.16740205808E+02  0.13864011565E+03  0.27864093106E+03  0.12500000000E+03 0.  0.
         21    1    1    2  503  501  0.20619033029E+03 -0.16740205808E+02 -0.17624357873E+04  0.17745350352E+04  0.00000000000E+00 0.  1.
<mgrwt>
<rscale>  3 0.24170165E+03</rscale>
<asrwt>0</asrwt>
<pdfrwt beam="1">  1       21 0.33029252E-01 0.24170165E+03</pdfrwt>
<pdfrwt beam="2">  1       21 0.28284398E+00 0.24170165E+03</pdfrwt>
<totfact> 0.35494943E+02</totfact>
</mgrwt>
</event>
<event>
 4    0  0.1438666E-001  0.3345791E+03  0.7546771E-02  0.1069129E+00
         21   -1    0    0  503  501  0.00000000000E+00  0.00000000000E+00  0.37511352350E+03  0.37511352350E+03  0.00000000000E+00 0.  1.
         21   -1    0    0  501  502 -0.00000000000E+00 -0.00000000000E+00 -0.28433769685E+03  0.28433769685E+03  0.00000000000E+00 0.  1.
         25    1    1    2    0    0  0.29772524872E+03 -0.87623355724E+02 -0.51311819858E+01  0.33461844722E+03  0.12500000000E+03 0.  0.
         21    1    1    2  503  502 -0.29772524872E+03  0.87623355724E+02  0.95907008634E+02  0.32483277313E+03  0.00000000000E+00 0.  1.
<mgrwt>
<rscale>  3 0.33457910E+03</rscale>
<asrwt>0</asrwt>
<pdfrwt beam="1">  1       21 0.57709773E-01 0.33457910E+03</pdfrwt>
<pdfrwt beam="2">  1       21 0.43744261E-01 0.33457910E+03</pdfrwt>
<totfact> 0.13169532E+04</totfact>
</mgrwt>
</event>
<event>
 4    0  0.1611292E-001  0.2875872E+03  0.7546771E-02  0.1091616E+00
         21   -1    0    0  503  501  0.00000000000E+00  0.00000000000E+00  0.22818579047E+03  0.22818579047E+03  0.00000000000E+00 0. -1.
         21   -1    0    0  501  502 -0.00000000000E+00 -0.00000000000E+00 -0.43529800748E+03  0.43529800748E+03  0.00000000000E+00 0. -1.
         25    1    1    2    0    0  0.28305995420E+02  0.25744937964E+03  0.57426494046E+02  0.29326475184E+03  0.12500000000E+03 0.  0.
         21    1    1    2  503  502 -0.28305995420E+02 -0.25744937964E+03 -0.26453871105E+03  0.37021904610E+03  0.00000000000E+00 0. -1.
<mgrwt>
<rscale>  3 0.28758723E+03</rscale>
<asrwt>0</asrwt>
<pdfrwt beam="1">  1       21 0.35105507E-01 0.28758723E+03</pdfrwt>
<pdfrwt beam="2">  1       21 0.66968924E-01 0.28758723E+03</pdfrwt>
<totfact> 0.15183041E+04</totfact>
</mgrwt>
</event>
<event>
 4    0  0.1003929E-001  0.2612172E+03  0.7546771E-02  0.1106414E+00
         21   -1    0    0  502  501  0.00000000000E+00  0.00000000000E+00  0.22648638702E+04  0.22648638702E+04  0.00000000000E+00 0.  1.
         21   -1    0    0  503  502 -0.00000000000E+00 -0.00000000000E+00 -0.72356126967E+02  0.72356126967E+02  0.00000000000E+00 0. -1.
         25    1    1    2    0    0  0.25461345788E+01 -0.22935334129E+03  0.20513118605E+04  0.20678768791E+04  0.12500000000E+03 0.  0.
         21    1    1    2  503  501 -0.25461345788E+01  0.22935334129E+03  0.14119588271E+03  0.26934311807E+03  0.00000000000E+00 0. -1.
<mgrwt>
<rscale>  3 0.26121722E+03</rscale>
<asrwt>0</asrwt>
<pdfrwt beam="1">  1       21 0.34844054E+00 0.26121722E+03</pdfrwt>
<pdfrwt beam="2">  1       21 0.11131714E-01 0.26121722E+03</pdfrwt>
<totfact> 0.11011601E+03</totfact>
</mgrwt>
</event>
<event>
 4    0  0.1003929E-001  0.3405064E+03  0.7546771E-02  0.1066580E+00
         21   -1    0    0  502  501  0.00000000000E+00  0.00000000000E+00  0.17201266648E+04  0.17201266648E+04  0.00000000000E+00 0. -1.
         21   -1    0    0  503  502 -0.00000000000E+00 -0.00000000000E+00 -0.75259382297E+02  0.75259382297E+02  0.00000000000E+00 0. -1.
         25    1    1    2    0    0  0.31500822551E+03  0.33006489384E+02  0.12125875319E+04  0.12594892350E+04  0.12500000000E+03 0.  0.
         21    1    1    2  503  501 -0.31500822551E+03 -0.33006489384E+02  0.43227975065E+03  0.53589681218E+03  0.00000000000E+00 0. -1.
<mgrwt>
<rscale>  3 0.34050640E+03</rscale>
<asrwt>0</asrwt>
<pdfrwt beam="1">  1       21 0.26463484E+00 0.34050640E+03</pdfrwt>
<pdfrwt beam="2">  1       21 0.11578368E-01 0.34050640E+03</pdfrwt>
<totfact> 0.30180063E+03</totfact>
</mgrwt>
</event>
<event>
 4    0  0.1003929E-001  0.2608318E+03  0.7546771E-02  0.1106645E+00
         21   -1    0    0  502  501  0.00000000000E+00  0.00000000000E+00  0.30995499499E+03  0.30995499499E+03  0.00000000000E+00 0. -1.
         21   -1    0    0  503  502 -0.00000000000E+00 -0.00000000000E+00 -0.19904482095E+03  0.19904482095E+03  0.00000000000E+00 0.  1.
         25    1    1    2    0    0  0.13592908521E+02  0.22852449422E+03  0.10147936517E+03  0.27987724662E+03  0.12500000000E+03 0.  0.
         21    1    1    2  503  501 -0.13592908521E+02 -0.22852449422E+03  0.94308088730E+01  0.22912256933E+03  0.00000000000E+00 0.  1.
<mgrwt>
<rscale>  3 0.26083177E+03</rscale>
<asrwt>0</asrwt>
<pdfrwt beam="1">  1       21 0.47685384E-01 0.26083177E+03</pdfrwt>
<pdfrwt beam="2">  1       21 0.30622280E-01 0.26083177E+03</pdfrwt>
<totfact> 0.41736136E+04</totfact>
</mgrwt>
</event>
<event>
 4    0  0.1488964E-001  0.2446868E+03  0.7546771E-02  0.1116709E+00
         21   -1    0    0  503  501  0.00000000000E+00  0.00000000000E+00  0.27334661413E+03  0.27334661413E+03  0.00000000000E+00 0. -1.
         21   -1    0    0  501  502 -0.00000000000E+00 -0.00000000000E+00 -0.26709435471E+03  0.26709435471E+03  0.00000000000E+00 0. -1.
         25    1    1    2    0    0  0.18964369739E+03 -0.91004818070E+02  0.14876523681E+03  0.28636114359E+03  0.12500000000E+03 0.  0.
         21    1    1    2  503  502 -0.18964369739E+03  0.91004818070E+02 -0.14251297739E+03  0.25407982525E+03  0.00000000000E+00 0. -1.
<mgrwt>
<rscale>  3 0.24468676E+03</rscale>
<asrwt>0</asrwt>
<pdfrwt beam="1">  1       21 0.42053325E-01 0.24468676E+03</pdfrwt>
<pdfrwt beam="2">  1       21 0.41091439E-01 0.24468676E+03</pdfrwt>
<totfact> 0.30237957E+04</totfact>
</mgrwt>
</event>
<event>
 4    0  0.1003929E-001  0.2759884E+03  0.7546771E-02  0.1097900E+00
         21   -1    0    0  503  501  0.00000000000E+00  0.00000000000E+00  0.80270151102E+02  0.80270151102E+02  0.00000000000E+00 0. -1.
         21   -1    0    0  501  502 -0.00000000000E+00 -0.00000000000E+00 -0.10385677630E+04  0.10385677630E+04  0.00000000000E+00 0.  1.
         25    1    1    2    0    0 -0.24416769475E+03  0.30442481539E+02 -0.26279203051E+03  0.38108956840E+03  0.12500000000E+03 0.  0.
         21    1    1    2  503  502  0.24416769475E+03 -0.30442481539E+02 -0.69550558140E+03  0.73774834572E+03  0.00000000000E+00 0.  1.
<mgrwt>
<rscale>  3 0.27598842E+03</rscale>
<asrwt>0</asrwt>
<pdfrwt beam="1">  1       21 0.12349254E-01 0.27598842E+03</pdfrwt>
<pdfrwt beam="2">  1       21 0.15977965E+00 0.27598842E+03</pdfrwt>
<totfact> 0.13361036E+04</totfact>
</mgrwt>
</event>
<event>
 4    0  0.1003929E-001  0.2467596E+03  0.7546771E-02  0.1115370E+00
         21   -1    0    0  502  501  0.00000000000E+00  0.00000000000E+00  0.81135086096E+02  0.81135086096E+02  0.00000000000E+00 0.  1.
         21   -1    0    0  503  502 -0.00000000000E+00 -0.00000000000E+00 -0.14756911608E+04  0.14756911608E+04  0.00000000000E+00 0.  1.
         25    1    1    2    0    0  0.20103909687E+03  0.69631904304E+02 -0.13868580164E+03  0.28306195813E+03  0.12500000000E+03 0.  0.
         21    1    1    2  503  501 -0.20103909687E+03 -0.69631904304E+02 -0.12558702730E+04  0.12737642887E+04  0.00000000000E+00 0.  1.
<mgrwt>
<rscale>  3 0.24675964E+03</rscale>
<asrwt>0</asrwt>
<pdfrwt beam="1">  1       21 0.12482320E-01 0.24675964E+03</pdfrwt>
<pdfrwt beam="2">  1       21 0.22702942E+00 0.24675964E+03</pdfrwt>
<totfact> 0.47500556E+03</totfact>
</mgrwt>
</event>
<event>
 4    0  0.1003929E-001  0.2638278E+03  0.7546771E-02  0.1104865E+00
         21   -1    0    0  502  501  0.00000000000E+00  0.00000000000E+00  0.77143037216E+02  0.77143037216E+02  0.00000000000E+00 0.  1.
         21   -1    0    0  503  502 -0.00000000000E+00 -0.00000000000E+00 -0.86408612147E+03  0.86408612147E+03  0.00000000000E+00 0. -1.
         25    1    1    2    0    0  0.21197925230E+03  0.95104736021E+02 -0.28642553268E+03  0.38941584456E+03  0.12500000000E+03 0.  0.
         21    1    1    2  503  501 -0.21197925230E+03 -0.95104736021E+02 -0.50051755157E+03  0.55181331413E+03  0.00000000000E+00 0. -1.
<mgrwt>
<rscale>  3 0.26382781E+03</rscale>
<asrwt>0</asrwt>
<pdfrwt beam="1">  1       21 0.11868160E-01 0.26382781E+03</pdfrwt>
<pdfrwt beam="2">  1       21 0.13293632E+00 0.26382781E+03</pdfrwt>
<totfact> 0.23497667E+04</totfact>
</mgrwt>
</event>
<event>
 4    0  0.1003929E-001  0.9925059E+03  0.7546771E-02  0.9316803E-01
         21   -1    0    0  502  501  0.00000000000E+00  0.00000000000E+00  0.20020263632E+04  0.20020263632E+04  0.00000000000E+00 0. -1.
         21   -1    0    0  503  502 -0.00000000000E+00 -0.00000000000E+00 -0.70807567034E+03  0.70807567034E+03  0.00000000000E+00 0. -1.
         25    1    1    2    0    0  0.85362217536E+03 -0.49068529786E+03  0.14039820619E+04  0.17193700910E+04  0.12500000000E+03 0.  0.
         21    1    1    2  503  501 -0.85362217536E+03  0.49068529786E+03 -0.11003136900E+03  0.99073194254E+03  0.00000000000E+00 0. -1.
<mgrwt>
<rscale>  3 0.99250586E+03</rscale>
<asrwt>0</asrwt>
<pdfrwt beam="1">  1       21 0.30800405E+00 0.99250586E+03</pdfrwt>
<pdfrwt beam="2">  1       21 0.10893472E+00 0.99250586E+03</pdfrwt>
<totfact> 0.11755202E+01</totfact>
</mgrwt>
</event>
<event>
 4    0  0.1273758E-001  0.2412509E+03  0.7546771E-02  0.1118962E+00
         21   -1    0    0  503  501  0.00000000000E+00  0.00000000000E+00  0.52817669996E+03  0.52817669996E+03  0.00000000000E+00 0.  1.
         21   -1    0    0  501  502 -0.00000000000E+00 -0.00000000000E+00 -0.94893772181E+02  0.94893772181E+02  0.00000000000E+00 0.  1.
         25    1    1    2    0    0  0.20520320664E+03 -0.21647717942E+02  0.22521829660E+03  0.33003827176E+03  0.12500000000E+03 0.  0.
         21    1    1    2  503  502 -0.20520320664E+03  0.21647717942E+02  0.20806463118E+03  0.29303220037E+03  0.00000000000E+00 0.  1.
<mgrwt>
<rscale>  3 0.24125086E+03</rscale>
<asrwt>0</asrwt>
<pdfrwt beam="1">  1       21 0.81257952E-01 0.24125086E+03</pdfrwt>
<pdfrwt beam="2">  1       21 0.14599042E-01 0.24125086E+03</pdfrwt>
<totfact> 0.53509185E+04</totfact>
</mgrwt>
</event>
<event>
 4    0  0.1003929E-001  0.2550517E+03  0.7546771E-02  0.1110153E+00
         21   -1    0    0  503  501  0.00000000000E+00  0.00000000000E+00  0.23991455111E+03  0.23991455111E+03  0.00000000000E+00 0. -1.
         21   -1    0    0  501  502 -0.00000000000E+00 -0.00000000000E+00 -0.28871097812E+03  0.28871097812E+03  0.00000000000E+00 0.  1.
         25    1    1    2    0    0 -0.14358096458E+02 -0.22185630606E+03  0.85368264640E+02  0.26895932050E+03  0.12500000000E+03 0.  0.
         21    1    1    2  503  502  0.14358096458E+02  0.22185630606E+03 -0.13416469164E+03  0.25966620873E+03  0.00000000000E+00 0.  1.
<mgrwt>
<rscale>  3 0.25505171E+03</rscale>
<asrwt>0</asrwt>
<pdfrwt beam="1">  1       21 0.36909931E-01 0.25505171E+03</pdfrwt>
<pdfrwt beam="2">  1       21 0.44417073E-01 0.25505171E+03</pdfrwt>
<totfact> 0.33433357E+04</totfact>
</mgrwt>
</event>
<event>
 4    0  0.1003929E-001  0.4013569E+03  0.7546771E-02  0.1043311E+00
         21   -1    0    0  503  501  0.00000000000E+00  0.00000000000E+00  0.65848504263E+03  0.65848504263E+03  0.00000000000E+00 0.  1.
         21   -1    0    0  501  502 -0.00000000000E+00 -0.00000000000E+00 -0.24280412348E+03  0.24280412348E+03  0.00000000000E+00 0. -1.
         25    1    1    2    0    0  0.21780729739E+02 -0.38077285204E+03  0.30519308601E+03  0.50421244014E+03  0.12500000000E+03 0.  0.
         21    1    1    2  503  502 -0.21780729739E+02  0.38077285204E+03  0.11048783314E+03  0.39707672597E+03  0.00000000000E+00 0. -1.
<mgrwt>
<rscale>  3 0.40135690E+03</rscale>
<asrwt>0</asrwt>
<pdfrwt beam="1">  1       21 0.10130539E+00 0.40135690E+03</pdfrwt>
<pdfrwt beam="2">  1       21 0.37354481E-01 0.40135690E+03</pdfrwt>
<totfact> 0.49117713E+03</totfact>
</mgrwt>
</event>
<event>
 4    0  0.1652879E-001  0.2933789E+03  0.7546771E-02  0.1088598E+00
         21   -1    0    0  502  501  0.00000000000E+00  0.00000000000E+00  0.23459411739E+03  0.23459411739E+03  0.00000000000E+00 0.  1.
         21   -1    0    0  503  502 -0.00000000000E+00 -0.00000000000E+00 -0.12425637601E+04  0.12425637601E+04  0.00000000000E+00 0. -1.
         25    1    1    2    0    0  0.25647937776E+03  0.68297031071E+02  0.12104186486E+03  0.31736774996E+03  0.12500000000E+03 0.  0.
         21    1    1    2  503  501 -0.25647937776E+03 -0.68297031071E+02 -0.11290115076E+04  0.11597901275E+04  0.00000000000E+00 0. -1.
<mgrwt>
<rscale>  3 0.29337886E+03</rscale>
<asrwt>0</asrwt>
<pdfrwt beam="1">  1       21 0.36091403E-01 0.29337886E+03</pdfrwt>
<pdfrwt beam="2">  1       21 0.19116366E+00 0.29337886E+03</pdfrwt>
<totfact> 0.10365451E+03</totfact>
</mgrwt>
</event>
<event>
 4    0  0.1049748E-001  0.3107428E+03  0.7546771E-02  0.1079990E+00
         21   -1    0    0  502  501  0.00000000000E+00  0.00000000000E+00  0.87154949803E+02  0.87154949803E+02  0.00000000000E+00 0. -1.
         21   -1    0    0  503  502 -0.00000000000E+00 -0.00000000000E+00 -0.15709971150E+04  0.15709971150E+04  0.00000000000E+00 0. -1.
         25    1    1    2    0    0 -0.28448487822E+03  0.21063040470E+01 -0.27075580765E+03  0.41215262929E+03  0.12500000000E+03 0.  0.
         21    1    1    2  503  501  0.28448487822E+03 -0.21063040470E+01 -0.12130863576E+04  0.12459994356E+04  0.00000000000E+00 0. -1.
<mgrwt>
<rscale>  3 0.31074279E+03</rscale>
<asrwt>0</asrwt>
<pdfrwt beam="1">  1       21 0.13408454E-01 0.31074279E+03</pdfrwt>
<pdfrwt beam="2">  1       21 0.24169185E+00 0.31074279E+03</pdfrwt>
<totfact> 0.32417935E+03</totfact>
</mgrwt>
</event>
<event>
 4    0  0.1028442E-001  0.2594118E+03  0.7546771E-02  0.1107497E+00
         21   -1    0    0  503  501  0.00000000000E+00  0.00000000000E+00  0.12088669815E+04  0.12088669815E+04  0.00000000000E+00 0. -1.
         21   -1    0    0  501  502 -0.00000000000E+00 -0.00000000000E+00 -0.52749949711E+02  0.52749949711E+02  0.00000000000E+00 0. -1.
         25    1    1    2    0    0 -0.11208125034E+03 -0.19775556224E+03  0.44543150571E+03  0.51546454326E+03  0.12500000000E+03 0.  0.
         21    1    1    2  503  502  0.11208125034E+03  0.19775556224E+03  0.71068552607E+03  0.74615238794E+03  0.00000000000E+00 0. -1.
<mgrwt>
<rscale>  3 0.25941178E+03</rscale>
<asrwt>0</asrwt>
<pdfrwt beam="1">  1       21 0.18597952E+00 0.25941178E+03</pdfrwt>
<pdfrwt beam="2">  1       21 0.81153778E-02 0.25941178E+03</pdfrwt>
<totfact> 0.18578428E+04</totfact>
</mgrwt>
</event>
<event>
 4    0  0.1388876E-001  0.2597627E+03  0.7546771E-02  0.1107286E+00
         21   -1    0    0  503  501  0.00000000000E+00  0.00000000000E+00  0.68908839092E+03  0.68908839092E+03  0.00000000000E+00 0.  1.
         21   -1    0    0  501  502 -0.00000000000E+00 -0.00000000000E+00 -0.10034048748E+03  0.10034048748E+03  0.00000000000E+00 0.  1.
         25    1    1    2    0    0  0.12597199963E+03 -0.18969106231E+03  0.45884505985E+03  0.52727168780E+03  0.12500000000E+03 0.  0.
         21    1    1    2  503  502 -0.12597199963E+03  0.18969106231E+03  0.12990284359E+03  0.26215719060E+03  0.00000000000E+00 0.  1.
<mgrwt>
<rscale>  3 0.25976267E+03</rscale>
<asrwt>0</asrwt>
<pdfrwt beam="1">  1       21 0.10601360E+00 0.25976267E+03</pdfrwt>
<pdfrwt beam="2">  1       21 0.15436999E-01 0.25976267E+03</pdfrwt>
<totfact> 0.25647856E+04</totfact>
</mgrwt>
</event>
<event>
 4    0  0.1097967E-001  0.3188454E+03  0.7546771E-02  0.1076182E+00
         21   -1    0    0  503  501  0.00000000000E+00  0.00000000000E+00  0.17176473092E+03  0.17176473092E+03  0.00000000000E+00 0. -1.
         21   -1    0    0  501  502 -0.00000000000E+00 -0.00000000000E+00 -0.99858962889E+03  0.99858962889E+03  0.00000000000E+00 0. -1.
         25    1    1    2    0    0 -0.99776468458E+02  0.27582976538E+03 -0.28815653515E+02  0.32014488129E+03  0.12500000000E+03 0.  0.
         21    1    1    2  503  502  0.99776468458E+02 -0.27582976538E+03 -0.79800924446E+03  0.85020947852E+03  0.00000000000E+00 0. -1.
<mgrwt>
<rscale>  3 0.31884542E+03</rscale>
<asrwt>0</asrwt>
<pdfrwt beam="1">  1       21 0.26425344E-01 0.31884542E+03</pdfrwt>
<pdfrwt beam="2">  1       21 0.15362917E+00 0.31884542E+03</pdfrwt>
<totfact> 0.35011308E+03</totfact>
</mgrwt>
</event>
<event>
 4    0  0.1179714E-001  0.2793205E+03  0.7546771E-02  0.1096061E+00
         21   -1    0    0  502  501  0.00000000000E+00  0.00000000000E+00  0.14779122309E+03  0.14779122309E+03  0.00000000000E+00 0.  1.
         21   -1    0    0  503  502 -0.00000000000E+00 -0.00000000000E+00 -0.76898725768E+03  0.76898725768E+03  0.00000000000E+00 0.  1.
         25    1    1    2    0    0  0.24802048276E+03  0.29678129318E+02 -0.37431957899E+02  0.28181749893E+03  0.12500000000E+03 0.  0.
         21    1    1    2  503  501 -0.24802048276E+03 -0.29678129318E+02 -0.58376407669E+03  0.63496098184E+03  0.00000000000E+00 0.  1.
<mgrwt>
<rscale>  3 0.27932052E+03</rscale>
<asrwt>0</asrwt>
<pdfrwt beam="1">  1       21 0.22737111E-01 0.27932052E+03</pdfrwt>
<pdfrwt beam="2">  1       21 0.11830573E+00 0.27932052E+03</pdfrwt>
<totfact> 0.94039489E+03</totfact>
</mgrwt>
</event>
<event>
 4    0  0.1003929E-001  0.2458297E+03  0.7546771E-02  0.1115969E+00
         21   -1    0    0  503  501  0.00000000000E+00  0.00000000000E+00  0.19339394065E+04  0.19339394065E+04  0.00000000000E+00 0.  1.
         21   -1    0    0  501  502 -0.00000000000E+00 -0.00000000000E+00 -0.65339961873E+02  0.65339961873E+02  0.00000000000E+00 0.  1.
         25    1    1    2    0    0  0.20653717924E+03 -0.46364044841E+02  0.17274582831E+04  0.17448622728E+04  0.12500000000E+03 0.  0.
         21    1    1    2  503  502 -0.20653717924E+03  0.46364044841E+02  0.14114116153E+03  0.25441709562E+03  0.00000000000E+00 0.  1.
<mgrwt>
<rscale>  3 0.24582968E+03</rscale>
<asrwt>0</asrwt>
<pdfrwt beam="1">  1       21 0.29752910E+00 0.24582968E+03</pdfrwt>
<pdfrwt beam="2">  1       21 0.10052303E-01 0.24582968E+03</pdfrwt>
<totfact> 0.26759026E+03</totfact>
</mgrwt>
</event>
<event>
 4    0  0.1003929E-001  0.3626848E+03  0.7546771E-02  0.1057526E+00
         21   -1    0    0  502  501  0.00000000000E+00  0.00000000000E+00  0.13338944781E+04  0.13338944781E+04  0.00000000000E+00 0.  1.
         21   -1    0    0  503  502 -0.00000000000E+00 -0.00000000000E+00 -0.10074494969E+03  0.10074494969E+03  0.00000000000E+00 0. -1.
         25    1    1    2    0    0 -0.18977009423E+03 -0.28267043010E+03  0.83755832114E+03  0.91271255169E+03  0.12500000000E+03 0.  0.
         21    1    1    2  503  501  0.18977009423E+03  0.28267043010E+03  0.39559120726E+03  0.52192687608E+03  0.00000000000E+00 0. -1.
<mgrwt>
<rscale>  3 0.36268480E+03</rscale>
<asrwt>0</asrwt>
<pdfrwt beam="1">  1       21 0.20521452E+00 0.36268480E+03</pdfrwt>
<pdfrwt beam="2">  1       21 0.15499224E-01 0.36268480E+03</pdfrwt>
<totfact> 0.40864262E+03</totfact>
</mgrwt>
</event>
<event>
 4    0  0.1003929E-001  0.3394427E+03  0.7546771E-02  0.1067034E+00
         21   -1    0    0  503  501  0.00000000000E+00  0.00000000000E+00  0.15346347311E+04  0.15346347311E+04  0.00000000000E+00 0.  1.
         21   -1    0    0  501  502 -0.00000000000E+00 -0.00000000000E+00 -0.69910826485E+02  0.69910826485E+02  0.00000000000E+00 0. -1.
         25    1    1    2    0    0  0.31541890670E+03  0.10355142607E+02  0.74780506766E+03  0.82123914598E+03  0.12500000000E+03 0.  0.
         21    1    1    2  503  502 -0.31541890670E+03 -0.10355142607E+02  0.71691883700E+03  0.78330641164E+03  0.00000000000E+00 0. -1.
<mgrwt>
<rscale>  3 0.33944265E+03</rscale>
<asrwt>0</asrwt>
<pdfrwt beam="1">  1       21 0.23609763E+00 0.33944265E+03</pdfrwt>
<pdfrwt beam="2">  1       21 0.10755513E-01 0.33944265E+03</pdfrwt>
<totfact> 0.51370162E+03</totfact>
</mgrwt>
</event>
<event>
 4    0  0.1537055E-001  0.2539492E+03  0.7546771E-02  0.1110834E+00
         21   -1    0    0  502  501  0.00000000000E+00  0.00000000000E+00  0.16514116376E+03  0.16514116376E+03  0.00000000000E+00 0. -1.
         21   -1    0    0  503  502 -0.00000000000E+00 -0.00000000000E+00 -0.38266231434E+03  0.38266231434E+03  0.00000000000E+00 0. -1.
         25    1    1    2    0    0  0.12525148831E+03  0.18214629767E+03 -0.25918616478E+02  0.25526845430E+03  0.12500000000E+03 0.  0.
         21    1    1    2  503  501 -0.12525148831E+03 -0.18214629767E+03 -0.19160253410E+03  0.29253502381E+03  0.00000000000E+00 0. -1.
<mgrwt>
<rscale>  3 0.25394923E+03</rscale>
<asrwt>0</asrwt>
<pdfrwt beam="1">  1       21 0.25406333E-01 0.25394923E+03</pdfrwt>
<pdfrwt beam="2">  1       21 0.58871125E-01 0.25394923E+03</pdfrwt>
<totfact> 0.38511189E+04</totfact>
</mgrwt>
</event>
<event>
 4    0  0.1478253E-001  0.2948352E+03  0.7546771E-02  0.1087851E+00
         21   -1    0    0  502  501  0.00000000000E+00  0.00000000000E+00  0.20164677885E+03  0.20164677885E+03  0.00000000000E+00 0. -1.
         21   -1    0    0  503  502 -0.00000000000E+00 -0.00000000000E+00 -0.41391879870E+03  0.41391879870E+03  0.00000000000E+00 0. -1.
         25    1    1    2    0    0 -0.11113880899E+03  0.24279819019E+03 -0.18282978434E+03  0.34692149842E+03  0.12500000000E+03 0.  0.
         21    1    1    2  503  501  0.11113880899E+03 -0.24279819019E+03 -0.29442235506E+02  0.26864407913E+03  0.00000000000E+00 0. -1.
<mgrwt>
<rscale>  3 0.29483520E+03</rscale>
<asrwt>0</asrwt>
<pdfrwt beam="1">  1       21 0.31022582E-01 0.29483520E+03</pdfrwt>
<pdfrwt beam="2">  1       21 0.63679815E-01 0.29483520E+03</pdfrwt>
<totfact> 0.21630337E+04</totfact>
</mgrwt>
</event>
<event>
 4    0  0.1329639E-001  0.2379375E+03  0.7546771E-02  0.1121174E+00
         21   -1    0    0  503  501  0.00000000000E+00  0.00000000000E+00  0.79195768306E+02  0.79195768306E+02  0.00000000000E+00 0.  1.
         21   -1    0    0  501  502 -0.00000000000E+00 -0.00000000000E+00 -0.62471330062E+03  0.62471330062E+03  0.00000000000E+00 0.  1.
         25    1    1    2    0    0  0.23455270888E+02 -0.20109472748E+03 -0.24472624212E+03  0.34132854075E+03  0.12500000000E+03 0.  0.
         21    1    1    2  503  502 -0.23455270888E+02  0.20109472748E+03 -0.30079129020E+03  0.36258052817E+03  0.00000000000E+00 0.  1.
<mgrwt>
<rscale>  3 0.23793747E+03</rscale>
<asrwt>0</asrwt>
<pdfrwt beam="1">  1       21 0.12183964E-01 0.23793747E+03</pdfrwt>
<pdfrwt beam="2">  1       21 0.96109739E-01 0.23793747E+03</pdfrwt>
<totfact> 0.50379641E+04</totfact>
</mgrwt>
</event>
<event>
 4    0  0.1588780E-001  0.3058192E+03  0.7546771E-02  0.1082367E+00
         21   -1    0    0  502  501  0.00000000000E+00  0.00000000000E+00  0.29178270224E+03  0.29178270224E+03  0.00000000000E+00 0. -1.
         21   -1    0    0  503  502 -0.00000000000E+00 -0.00000000000E+00 -0.70820770222E+03  0.70820770222E+03  0.00000000000E+00 0.  1.
         25    1    1    2    0    0  0.26386398087E+03 -0.90973377385E+02  0.17046054421E+03  0.35011734165E+03  0.12500000000E+03 0.  0.
         21    1    1    2  503  501 -0.26386398087E+03  0.90973377385E+02 -0.58688554419E+03  0.64987306281E+03  0.00000000000E+00 0.  1.
<mgrwt>
<rscale>  3 0.30581916E+03</rscale>
<asrwt>0</asrwt>
<pdfrwt beam="1">  1       21 0.44889646E-01 0.30581916E+03</pdfrwt>
<pdfrwt beam="2">  1       21 0.10895503E+00 0.30581916E+03</pdfrwt>
<totfact> 0.29431279E+03</totfact>
</mgrwt>
</event>
<event>
 4    0  0.1979769E-001  0.2518199E+03  0.7546771E-02  0.1112160E+00
         21   -1    0    0  502  501  0.00000000000E+00  0.00000000000E+00  0.81730141261E+03  0.81730141261E+03  0.00000000000E+00 0.  1.
         21   -1    0    0  503  502 -0.00000000000E+00 -0.00000000000E+00 -0.85404303680E+03  0.85404303680E+03  0.00000000000E+00 0. -1.
         25    1    1    2    0    0 -0.16208408945E+03 -0.14668672620E+03  0.78323849018E+03  0.82272460775E+03  0.12500000000E+03 0.  0.
         21    1    1    2  503  501  0.16208408945E+03  0.14668672620E+03 -0.81998011437E+03  0.84861984166E+03  0.00000000000E+00 0. -1.
<mgrwt>
<rscale>  3 0.25181987E+03</rscale>
<asrwt>0</asrwt>
<pdfrwt beam="1">  1       21 0.12573868E+00 0.25181987E+03</pdfrwt>
<pdfrwt beam="2">  1       21 0.13139124E+00 0.25181987E+03</pdfrwt>
<totfact> 0.18500720E+02</totfact>
</mgrwt>
</event>
<event>
 4    0  0.1513567E-001  0.2900733E+03  0.7546771E-02  0.1090311E+00
         21   -1    0    0  502  501  0.00000000000E+00  0.00000000000E+00  0.40873740638E+03  0.40873740638E+03  0.00000000000E+00 0. -1.
         21   -1    0    0  503  502 -0.00000000000E+00 -0.00000000000E+00 -0.18934492033E+03  0.18934492033E+03  0.00000000000E+00 0. -1.
         25    1    1    2    0    0  0.19347838423E+03 -0.17630545215E+03  0.77083929885E+02  0.30014068346E+03  0.12500000000E+03 0.  0.
         21    1    1    2  503  501 -0.19347838423E+03  0.17630545215E+03  0.14230855616E+03  0.29794164324E+03  0.00000000000E+00 0. -1.
<mgrwt>
<rscale>  3 0.29007326E+03</rscale>
<asrwt>0</asrwt>
<pdfrwt beam="1">  1       21 0.62882677E-01 0.29007326E+03</pdfrwt>
<pdfrwt beam="2">  1       21 0.29129988E-01 0.29007326E+03</pdfrwt>
<totfact> 0.25216374E+04</totfact>
</mgrwt>
</event>
<event>
 4    0  0.1373303E-001  0.3373976E+03  0.7546771E-02  0.1067910E+00
         21   -1    0    0  502  501  0.00000000000E+00  0.00000000000E+00  0.94318863322E+02  0.94318863322E+02  0.00000000000E+00 0. -1.
         21   -1    0    0  503  502 -0.00000000000E+00 -0.00000000000E+00 -0.12768617312E+04  0.12768617312E+04  0.00000000000E+00 0. -1.
         25    1    1    2    0    0 -0.13679674631E+03  0.28195533487E+03 -0.37227852159E+03  0.50242258936E+03  0.12500000000E+03 0.  0.
         21    1    1    2  503  501  0.13679674631E+03 -0.28195533487E+03 -0.81026434626E+03  0.86875800513E+03  0.00000000000E+00 0. -1.
<mgrwt>
<rscale>  3 0.33739763E+03</rscale>
<asrwt>0</asrwt>
<pdfrwt beam="1">  1       21 0.14510595E-01 0.33739763E+03</pdfrwt>
<pdfrwt beam="2">  1       21 0.19644026E+00 0.33739763E+03</pdfrwt>
<totfact> 0.53396934E+03</totfact>
</mgrwt>
</event>
<event>
 4    0  0.1003929E-001  0.2858327E+03  0.7546771E-02  0.1092545E+00
         21   -1    0    0  502  501  0.00000000000E+00  0.00000000000E+00  0.16630477027E+03  0.16630477027E+03  0.00000000000E+00 0.  1.
         21   -1    0    0  503  502 -0.00000000000E+00 -0.00000000000E+00 -0.12694215176E+04  0.12694215176E+04  0.00000000000E+00 0.  1.
         25    1    1    2    0    0  0.18398358847E+03 -0.17951421549E+03  0.17150218750E+02  0.28634672059E+03  0.12500000000E+03 0.  0.
         21    1    1    2  503  501 -0.18398358847E+03  0.17951421549E+03 -0.11202669661E+04  0.11493795673E+04  0.00000000000E+00 0.  1.
<mgrwt>
<rscale>  3 0.28583267E+03</rscale>
<asrwt>0</asrwt>
<pdfrwt beam="1">  1       21 0.25585350E-01 0.28583267E+03</pdfrwt>
<pdfrwt beam="2">  1       21 0.19529561E+00 0.28583267E+03</pdfrwt>
<totfact> 0.19269292E+03</totfact>
</mgrwt>
</event>
<event>
 4    0  0.1526046E-001  0.2697545E+03  0.7546771E-02  0.1101420E+00
         21   -1    0    0  503  501  0.00000000000E+00  0.00000000000E+00  0.18256238892E+03  0.18256238892E+03  0.00000000000E+00 0. -1.
         21   -1    0    0  501  502 -0.00000000000E+00 -0.00000000000E+00 -0.39534075339E+03  0.39534075339E+03  0.00000000000E+00 0. -1.
         25    1    1    2    0    0 -0.10174688682E+02  0.23882827891E+03 -0.19431942339E+02  0.27045345529E+03  0.12500000000E+03 0.  0.
         21    1    1    2  503  502  0.10174688682E+02 -0.23882827891E+03 -0.19334642214E+03  0.30744968702E+03  0.00000000000E+00 0. -1.
<mgrwt>
<rscale>  3 0.26975446E+03</rscale>
<asrwt>0</asrwt>
<pdfrwt beam="1">  1       21 0.28086522E-01 0.26975446E+03</pdfrwt>
<pdfrwt beam="2">  1       21 0.60821654E-01 0.26975446E+03</pdfrwt>
<totfact> 0.29360176E+04</totfact>
</mgrwt>
</event>
<event>
 4    0  0.1231298E-001  0.2476789E+03  0.7546771E-02  0.1114781E+00
         21   -1    0    0  503  501  0.00000000000E+00  0.00000000000E+00  0.96876253515E+03  0.96876253515E+03  0.00000000000E+00 0.  1.
         21   -1    0    0  501  502 -0.00000000000E+00 -0.00000000000E+00 -0.55044154548E+02  0.55044154548E+02  0.00000000000E+00 0.  1.
         25    1    1    2    0    0 -0.10988881862E+03 -0.18342377587E+03  0.50997039188E+03  0.56693441826E+03  0.12500000000E+03 0.  0.
         21    1    1    2  503  502  0.10988881862E+03  0.18342377587E+03  0.40374798873E+03  0.45687227144E+03  0.00000000000E+00 0.  1.
<mgrwt>
<rscale>  3 0.24767889E+03</rscale>
<asrwt>0</asrwt>
<pdfrwt beam="1">  1       21 0.14904038E+00 0.24767889E+03</pdfrwt>
<pdfrwt beam="2">  1       21 0.84683322E-02 0.24767889E+03</pdfrwt>
<totfact> 0.32023472E+04</totfact>
</mgrwt>
</event>
<event>
 4    0  0.1031503E-001  0.3409360E+03  0.7546771E-02  0.1066398E+00
         21   -1    0    0  502  501  0.00000000000E+00  0.00000000000E+00  0.94865478595E+02  0.94865478595E+02  0.00000000000E+00 0. -1.
         21   -1    0    0  503  502 -0.00000000000E+00 -0.00000000000E+00 -0.13209218155E+04  0.13209218155E+04  0.00000000000E+00 0. -1.
         25    1    1    2    0    0 -0.21528230369E+03  0.23295037957E+03 -0.89292535052E+03  0.95579968153E+03  0.12500000000E+03 0.  0.
         21    1    1    2  503  501  0.21528230369E+03 -0.23295037957E+03 -0.33313098641E+03  0.45998761258E+03  0.00000000000E+00 0. -1.
<mgrwt>
<rscale>  3 0.34093599E+03</rscale>
<asrwt>0</asrwt>
<pdfrwt beam="1">  1       21 0.14594690E-01 0.34093599E+03</pdfrwt>
<pdfrwt beam="2">  1       21 0.20321872E+00 0.34093599E+03</pdfrwt>
<totfact> 0.47576607E+03</totfact>
</mgrwt>
</event>
<event>
 4    0  0.1322618E-001  0.2440832E+03  0.7546771E-02  0.1117102E+00
         21   -1    0    0  503  501  0.00000000000E+00  0.00000000000E+00  0.43180500701E+03  0.43180500701E+03  0.00000000000E+00 0.  1.
         21   -1    0    0  501  502 -0.00000000000E+00 -0.00000000000E+00 -0.21050337558E+03  0.21050337558E+03  0.00000000000E+00 0. -1.
         25    1    1    2    0    0  0.16150520579E+03  0.13367008651E+03  0.32657851229E+03  0.40771331621E+03  0.12500000000E+03 0.  0.
         21    1    1    2  503  502 -0.16150520579E+03 -0.13367008651E+03 -0.10527688086E+03  0.23459506638E+03  0.00000000000E+00 0. -1.
<mgrwt>
<rscale>  3 0.24408323E+03</rscale>
<asrwt>0</asrwt>
<pdfrwt beam="1">  1       21 0.66431540E-01 0.24408323E+03</pdfrwt>
<pdfrwt beam="2">  1       21 0.32385135E-01 0.24408323E+03</pdfrwt>
<totfact> 0.18522510E+04</totfact>
</mgrwt>
</event>
<event>
 4    0  0.1003929E-001  0.2412374E+03  0.7546771E-02  0.1118971E+00
         21   -1    0    0  503  501  0.00000000000E+00  0.00000000000E+00  0.31327731404E+04  0.31327731404E+04  0.00000000000E+00 0. -1.
         21   -1    0    0  501  502 -0.00000000000E+00 -0.00000000000E+00 -0.16842985297E+02  0.16842985297E+02  0.00000000000E+00 0. -1.
         25    1    1    2    0    0  0.16248376586E+03  0.12715943233E+03  0.13189574072E+04  0.13408371033E+04  0.12500000000E+03 0.  0.
         21    1    1    2  503  502 -0.16248376586E+03 -0.12715943233E+03  0.17969727478E+04  0.18087790224E+04  0.00000000000E+00 0. -1.
<mgrwt>
<rscale>  3 0.24123743E+03</rscale>
<asrwt>0</asrwt>
<pdfrwt beam="1">  1       21 0.48196464E+00 0.24123743E+03</pdfrwt>
<pdfrwt beam="2">  1       21 0.25912310E-02 0.24123743E+03</pdfrwt>
<totfact> 0.19070111E+03</totfact>
</mgrwt>
</event>
<event>
 4    0  0.1003929E-001  0.3640249E+03  0.7546771E-02  0.1057001E+00
         21   -1    0    0  502  501  0.00000000000E+00  0.00000000000E+00  0.74888824854E+03  0.74888824854E+03  0.00000000000E+00 0.  1.
         21   -1    0    0  503  502 -0.00000000000E+00 -0.00000000000E+00 -0.34211796658E+03  0.34211796658E+03  0.00000000000E+00 0.  1.
         25    1    1    2    0    0 -0.85008663638E+02 -0.33115356646E+03  0.59739231717E+03  0.69956539229E+03  0.12500000000E+03 0.  0.
         21    1    1    2  503  501  0.85008663638E+02  0.33115356646E+03 -0.19062203521E+03  0.39144082283E+03  0.00000000000E+00 0.  1.
<mgrwt>
<rscale>  3 0.36402494E+03</rscale>
<asrwt>0</asrwt>
<pdfrwt beam="1">  1       21 0.11521358E+00 0.36402494E+03</pdfrwt>
<pdfrwt beam="2">  1       21 0.52633534E-01 0.36402494E+03</pdfrwt>
<totfact> 0.17799624E+03</totfact>
</mgrwt>
</event>
<event>
 4    0  0.1339941E-001  0.2381506E+03  0.7546771E-02  0.1121031E+00
         21   -1    0    0  503  501  0.00000000000E+00  0.00000000000E+00  0.87272266591E+02  0.87272266591E+02  0.00000000000E+00 0. -1.
         21   -1    0    0  501  502 -0.00000000000E+00 -0.00000000000E+00 -0.55743386976E+03  0.55743386976E+03  0.00000000000E+00 0. -1.
         25    1    1    2    0    0 -0.84656305856E+02  0.18418473386E+03 -0.24273410814E+03  0.34005228063E+03  0.12500000000E+03 0.  0.
         21    1    1    2  503  502  0.84656305856E+02 -0.18418473386E+03 -0.22742749503E+03  0.30465385572E+03  0.00000000000E+00 0. -1.
<mgrwt>
<rscale>  3 0.23815060E+03</rscale>
<asrwt>0</asrwt>
<pdfrwt beam="1">  1       21 0.13426503E-01 0.23815060E+03</pdfrwt>
<pdfrwt beam="2">  1       21 0.85759056E-01 0.23815060E+03</pdfrwt>
<totfact> 0.55141273E+04</totfact>
</mgrwt>
</event>
<event>
 4    0  0.1093594E-001  0.2425828E+03  0.7546771E-02  0.1118084E+00
         21   -1    0    0  502  501  0.00000000000E+00  0.00000000000E+00  0.21430419520E+03  0.21430419520E+03  0.00000000000E+00 0.  1.
         21   -1    0    0  503  502 -0.00000000000E+00 -0.00000000000E+00 -0.65045390627E+03  0.65045390627E+03  0.00000000000E+00 0.  1.
         25    1    1    2    0    0 -0.86785354678E+02 -0.18891722845E+03  0.12027533209E+03  0.27076294522E+03  0.12500000000E+03 0.  0.
         21    1    1    2  503  501  0.86785354678E+02  0.18891722845E+03 -0.55642504316E+03  0.59399515625E+03  0.00000000000E+00 0.  1.
<mgrwt>
<rscale>  3 0.24258280E+03</rscale>
<asrwt>0</asrwt>
<pdfrwt beam="1">  1       21 0.32969877E-01 0.24258280E+03</pdfrwt>
<pdfrwt beam="2">  1       21 0.10006983E+00 0.24258280E+03</pdfrwt>
<totfact> 0.70137523E+03</totfact>
</mgrwt>
</event>
<event>
 4    0  0.1149527E-001  0.2577863E+03  0.7546771E-02  0.1108481E+00
         21   -1    0    0  502  501  0.00000000000E+00  0.00000000000E+00  0.17175086644E+04  0.17175086644E+04  0.00000000000E+00 0. -1.
         21   -1    0    0  503  502 -0.00000000000E+00 -0.00000000000E+00 -0.50244736836E+02  0.50244736836E+02  0.00000000000E+00 0. -1.
         25    1    1    2    0    0  0.21067424200E+03 -0.80281690170E+02  0.13733207687E+04  0.13973058791E+04  0.12500000000E+03 0.  0.
         21    1    1    2  503  501 -0.21067424200E+03  0.80281690170E+02  0.29394315887E+03  0.37044752215E+03  0.00000000000E+00 0. -1.
<mgrwt>
<rscale>  3 0.25778632E+03</rscale>
<asrwt>0</asrwt>
<pdfrwt beam="1">  1       21 0.26423206E+00 0.25778632E+03</pdfrwt>
<pdfrwt beam="2">  1       21 0.77299608E-02 0.25778632E+03</pdfrwt>
<totfact> 0.65935936E+03</totfact>
</mgrwt>
</event>
<event>
 4    0  0.1489174E-001  0.2415554E+03  0.7546771E-02  0.1118761E+00
         21   -1    0    0  502  501  0.00000000000E+00  0.00000000000E+00  0.75320319037E+03  0.75320319037E+03  0.00000000000E+00 0.  1.
         21   -1    0    0  503  502 -0.00000000000E+00 -0.00000000000E+00 -0.13635034888E+03  0.13635034888E+03  0.00000000000E+00 0. -1.
         25    1    1    2    0    0 -0.20239694822E+03 -0.41946443268E+02  0.63759406315E+03  0.68181758419E+03  0.12500000000E+03 0.  0.
         21    1    1    2  503  501  0.20239694822E+03  0.41946443268E+02 -0.20741221661E+02  0.20773595506E+03  0.00000000000E+00 0. -1.
<mgrwt>
<rscale>  3 0.24155544E+03</rscale>
<asrwt>0</asrwt>
<pdfrwt beam="1">  1       21 0.11587741E+00 0.24155544E+03</pdfrwt>
<pdfrwt beam="2">  1       21 0.20976977E-01 0.24155544E+03</pdfrwt>
<totfact> 0.11772705E+04</totfact>
</mgrwt>
</event>
<event>
 4    0  0.1219646E-001  0.3283370E+03  0.7546771E-02  0.1071875E+00
         21   -1    0    0  502  501  0.00000000000E+00  0.00000000000E+00  0.12614024455E+03  0.12614024455E+03  0.00000000000E+00 0.  1.
         21   -1    0    0  503  502 -0.00000000000E+00 -0.00000000000E+00 -0.11672729875E+04  0.11672729875E+04  0.00000000000E+00 0. -1.
         25    1    1    2    0    0 -0.29446412072E+03 -0.73966795434E+02 -0.16763632404E+03  0.36865585897E+03  0.12500000000E+03 0.  0.
         21    1    1    2  503  501  0.29446412072E+03  0.73966795434E+02 -0.87349641895E+03  0.92475737311E+03  0.00000000000E+00 0. -1.
<mgrwt>
<rscale>  3 0.32833703E+03</rscale>
<asrwt>0</asrwt>
<pdfrwt beam="1">  1       21 0.19406193E-01 0.32833703E+03</pdfrwt>
<pdfrwt beam="2">  1       21 0.17958045E+00 0.32833703E+03</pdfrwt>
<totfact> 0.40671811E+03</totfact>
</mgrwt>
</event>
<event>
 4    0  0.1197145E-001  0.3825118E+03  0.7546771E-02  0.1050009E+00
         21   -1    0    0  503  501  0.00000000000E+00  0.00000000000E+00  0.67846681413E+03  0.67846681413E+03  0.00000000000E+00 0.  1.
         21   -1    0    0  501  502 -0.00000000000E+00 -0.00000000000E+00 -0.22221218226E+03  0.22221218226E+03  0.00000000000E+00 0.  1.
         25    1    1    2    0    0 -0.29712552925E+03  0.20592886523E+03  0.10508351641E+03  0.39668353014E+03  0.12500000000E+03 0.  0.
         21    1    1    2  503  502  0.29712552925E+03 -0.20592886523E+03  0.35117111546E+03  0.50399546625E+03  0.00000000000E+00 0.  1.
<mgrwt>
<rscale>  3 0.38251180E+03</rscale>
<asrwt>0</asrwt>
<pdfrwt beam="1">  1       21 0.10437951E+00 0.38251180E+03</pdfrwt>
<pdfrwt beam="2">  1       21 0.34186490E-01 0.38251180E+03</pdfrwt>
<totfact> 0.55027266E+03</totfact>
</mgrwt>
</event>
<event>
 4    0  0.1314639E-001  0.2556474E+03  0.7546771E-02  0.1109787E+00
         21   -1    0    0  503  501  0.00000000000E+00  0.00000000000E+00  0.10021691322E+04  0.10021691322E+04  0.00000000000E+00 0.  1.
         21   -1    0    0  501  502 -0.00000000000E+00 -0.00000000000E+00 -0.73405802730E+02  0.73405802730E+02  0.00000000000E+00 0.  1.
         25    1    1    2    0    0 -0.20390830367E+03 -0.90288529749E+02  0.74163532557E+03  0.78446068802E+03  0.12500000000E+03 0.  0.
         21    1    1    2  503  502  0.20390830367E+03  0.90288529749E+02  0.18712800388E+03  0.29111424690E+03  0.00000000000E+00 0.  1.
<mgrwt>
<rscale>  3 0.25564744E+03</rscale>
<asrwt>0</asrwt>
<pdfrwt beam="1">  1       21 0.15417986E+00 0.25564744E+03</pdfrwt>
<pdfrwt beam="2">  1       21 0.11293201E-01 0.25564744E+03</pdfrwt>
<totfact> 0.17479191E+04</totfact>
</mgrwt>
</event>
<event>
 4    0  0.1368352E-001  0.2387918E+03  0.7546771E-02  0.1120600E+00
         21   -1    0    0  503  501  0.00000000000E+00  0.00000000000E+00  0.22412134849E+03  0.22412134849E+03  0.00000000000E+00 0.  1.
         21   -1    0    0  501  502 -0.00000000000E+00 -0.00000000000E+00 -0.25097820434E+03  0.25097820434E+03  0.00000000000E+00 0.  1.
         25    1    1    2    0    0  0.18342336107E+03 -0.88047714480E+02  0.71285129943E+02  0.24920493406E+03  0.12500000000E+03 0.  0.
         21    1    1    2  503  502 -0.18342336107E+03  0.88047714480E+02 -0.98141985791E+02  0.22589461876E+03  0.00000000000E+00 0.  1.
<mgrwt>
<rscale>  3 0.23879181E+03</rscale>
<asrwt>0</asrwt>
<pdfrwt beam="1">  1       21 0.34480207E-01 0.23879181E+03</pdfrwt>
<pdfrwt beam="2">  1       21 0.38612032E-01 0.23879181E+03</pdfrwt>
<totfact> 0.51349696E+04</totfact>
</mgrwt>
</event>
<event>
 4    0  0.1003929E-001  0.5391441E+03  0.7546771E-02  0.1004038E+00
         21   -1    0    0  502  501  0.00000000000E+00  0.00000000000E+00  0.38315918184E+03  0.38315918184E+03  0.00000000000E+00 0.  1.
         21   -1    0    0  503  502 -0.00000000000E+00 -0.00000000000E+00 -0.77011114914E+03  0.77011114914E+03  0.00000000000E+00 0. -1.
         25    1    1    2    0    0  0.44714092738E+03  0.27407355189E+03 -0.78484165123E+02  0.54482665588E+03  0.12500000000E+03 0.  0.
         21    1    1    2  503  501 -0.44714092738E+03 -0.27407355189E+03 -0.30846780218E+03  0.60844367510E+03  0.00000000000E+00 0. -1.
<mgrwt>
<rscale>  3 0.53914406E+03</rscale>
<asrwt>0</asrwt>
<pdfrwt beam="1">  1       21 0.58947567E-01 0.53914406E+03</pdfrwt>
<pdfrwt beam="2">  1       21 0.11847864E+00 0.53914406E+03</pdfrwt>
<totfact> 0.12105735E+03</totfact>
</mgrwt>
</event>
<event>
 4    0  0.1063999E-001  0.2567527E+03  0.7546771E-02  0.1109110E+00
         21   -1    0    0  502  501  0.00000000000E+00  0.00000000000E+00  0.73604573101E+02  0.73604573101E+02  0.00000000000E+00 0.  1.
         21   -1    0    0  503  502 -0.00000000000E+00 -0.00000000000E+00 -0.91740936400E+03  0.91740936400E+03  0.00000000000E+00 0.  1.
         25    1    1    2    0    0 -0.28181357032E+02  0.22249214543E+03 -0.63354962339E+03  0.68359861685E+03  0.12500000000E+03 0.  0.
         21    1    1    2  503  501  0.28181357032E+02 -0.22249214543E+03 -0.21025516751E+03  0.30741532025E+03  0.00000000000E+00 0.  1.
<mgrwt>
<rscale>  3 0.25675269E+03</rscale>
<asrwt>0</asrwt>
<pdfrwt beam="1">  1       21 0.11323781E-01 0.25675269E+03</pdfrwt>
<pdfrwt beam="2">  1       21 0.14113990E+00 0.25675269E+03</pdfrwt>
<totfact> 0.21969972E+04</totfact>
</mgrwt>
</event>
<event>
 4    0  0.1441156E-001  0.2527974E+03  0.7546771E-02  0.1111550E+00
         21   -1    0    0  503  501  0.00000000000E+00  0.00000000000E+00  0.37585996155E+03  0.37585996155E+03  0.00000000000E+00 0.  1.
         21   -1    0    0  501  502 -0.00000000000E+00 -0.00000000000E+00 -0.28928689470E+03  0.28928689470E+03  0.00000000000E+00 0. -1.
         25    1    1    2    0    0 -0.40567052372E+02 -0.21595332705E+03  0.27654654624E+03  0.37467921938E+03  0.12500000000E+03 0.  0.
         21    1    1    2  503  502  0.40567052372E+02  0.21595332705E+03 -0.18997347939E+03  0.29046763688E+03  0.00000000000E+00 0. -1.
<mgrwt>
<rscale>  3 0.25279740E+03</rscale>
<asrwt>0</asrwt>
<pdfrwt beam="1">  1       21 0.57824609E-01 0.25279740E+03</pdfrwt>
<pdfrwt beam="2">  1       21 0.44505676E-01 0.25279740E+03</pdfrwt>
<totfact> 0.13120767E+04</totfact>
</mgrwt>
</event>
<event>
 4    0  0.1286294E-001  0.2467960E+03  0.7546771E-02  0.1115347E+00
         21   -1    0    0  502  501  0.00000000000E+00  0.00000000000E+00  0.10259364234E+03  0.10259364234E+03  0.00000000000E+00 0.  1.
         21   -1    0    0  503  502 -0.00000000000E+00 -0.00000000000E+00 -0.54554147340E+03  0.54554147340E+03  0.00000000000E+00 0.  1.
         25    1    1    2    0    0  0.21027069778E+03  0.32703260318E+02 -0.16010013672E+03  0.29417736718E+03  0.12500000000E+03 0.  0.
         21    1    1    2  503  501 -0.21027069778E+03 -0.32703260318E+02 -0.28284769433E+03  0.35395774857E+03  0.00000000000E+00 0.  1.
<mgrwt>
<rscale>  3 0.24679601E+03</rscale>
<asrwt>0</asrwt>
<pdfrwt beam="1">  1       21 0.15783637E-01 0.24679601E+03</pdfrwt>
<pdfrwt beam="2">  1       21 0.83929457E-01 0.24679601E+03</pdfrwt>
<totfact> 0.42970269E+04</totfact>
</mgrwt>
</event>
<event>
 4    0  0.1269315E-001  0.2537855E+03  0.7546771E-02  0.1110936E+00
         21   -1    0    0  503  501  0.00000000000E+00  0.00000000000E+00  0.10948343571E+03  0.10948343571E+03  0.00000000000E+00 0.  1.
         21   -1    0    0  501  502 -0.00000000000E+00 -0.00000000000E+00 -0.76215978778E+03  0.76215978778E+03  0.00000000000E+00 0.  1.
         25    1    1    2    0    0 -0.95821333134E+02  0.19899832062E+03 -0.93557699408E+02  0.27048124262E+03  0.12500000000E+03 0.  0.
         21    1    1    2  503  502  0.95821333134E+02 -0.19899832062E+03 -0.55911865266E+03  0.60116198087E+03  0.00000000000E+00 0.  1.
<mgrwt>
<rscale>  3 0.25378546E+03</rscale>
<asrwt>0</asrwt>
<pdfrwt beam="1">  1       21 0.16843606E-01 0.25378546E+03</pdfrwt>
<pdfrwt beam="2">  1       21 0.11725535E+00 0.25378546E+03</pdfrwt>
<totfact> 0.17114550E+04</totfact>
</mgrwt>
</event>
<event>
 4    0  0.1768455E-001  0.2405366E+03  0.7546771E-02  0.1119436E+00
         21   -1    0    0  503  501  0.00000000000E+00  0.00000000000E+00  0.26089031751E+03  0.26089031751E+03  0.00000000000E+00 0.  1.
         21   -1    0    0  501  502 -0.00000000000E+00 -0.00000000000E+00 -0.63991581371E+03  0.63991581371E+03  0.00000000000E+00 0. -1.
         25    1    1    2    0    0 -0.15041078744E+03  0.14003376458E+03  0.18309743595E+03  0.30229543704E+03  0.12500000000E+03 0.  0.
         21    1    1    2  503  502  0.15041078744E+03 -0.14003376458E+03 -0.56212293215E+03  0.59851069418E+03  0.00000000000E+00 0. -1.
<mgrwt>
<rscale>  3 0.24053661E+03</rscale>
<asrwt>0</asrwt>
<pdfrwt beam="1">  1       21 0.40136972E-01 0.24053661E+03</pdfrwt>
<pdfrwt beam="2">  1       21 0.98448586E-01 0.24053661E+03</pdfrwt>
<totfact> 0.49208899E+03</totfact>
</mgrwt>
</event>
<event>
 4    0  0.1303022E-001  0.2381778E+03  0.7546771E-02  0.1121013E+00
         21   -1    0    0  502  501  0.00000000000E+00  0.00000000000E+00  0.21312869669E+03  0.21312869669E+03  0.00000000000E+00 0.  1.
         21   -1    0    0  503  502 -0.00000000000E+00 -0.00000000000E+00 -0.38853989716E+03  0.38853989716E+03  0.00000000000E+00 0.  1.
         25    1    1    2    0    0  0.20122141100E+03  0.24770774244E+02  0.10114059299E+03  0.25876256888E+03  0.12500000000E+03 0.  0.
         21    1    1    2  503  501 -0.20122141100E+03 -0.24770774244E+02 -0.27655179345E+03  0.34290602497E+03  0.00000000000E+00 0.  1.
<mgrwt>
<rscale>  3 0.23817776E+03</rscale>
<asrwt>0</asrwt>
<pdfrwt beam="1">  1       21 0.32789030E-01 0.23817776E+03</pdfrwt>
<pdfrwt beam="2">  1       21 0.59775368E-01 0.23817776E+03</pdfrwt>
<totfact> 0.22812270E+04</totfact>
</mgrwt>
</event>
<event>
 4    0  0.1559546E-001  0.2484855E+03  0.7546771E-02  0.1114266E+00
         21   -1    0    0  502  501  0.00000000000E+00  0.00000000000E+00  0.13032063378E+03  0.13032063378E+03  0.00000000000E+00 0. -1.
         21   -1    0    0  503  502 -0.00000000000E+00 -0.00000000000E+00 -0.45113830783E+03  0.45113830783E+03  0.00000000000E+00 0. -1.
         25    1    1    2    0    0 -0.21263214864E+03 -0.30126380522E+02 -0.85274508824E+02  0.26271043240E+03  0.12500000000E+03 0.  0.
         21    1    1    2  503  501  0.21263214864E+03  0.30126380522E+02 -0.23554316522E+03  0.31874850921E+03  0.00000000000E+00 0. -1.
<mgrwt>
<rscale>  3 0.24848547E+03</rscale>
<asrwt>0</asrwt>
<pdfrwt beam="1">  1       21 0.20049328E-01 0.24848547E+03</pdfrwt>
<pdfrwt beam="2">  1       21 0.69405894E-01 0.24848547E+03</pdfrwt>
<totfact> 0.42258040E+04</totfact>
</mgrwt>
</event>
<event>
 4    0  0.1003929E-001  0.2555100E+03  0.7546771E-02  0.1109871E+00
         21   -1    0    0  502  501  0.00000000000E+00  0.00000000000E+00  0.38510319413E+03  0.38510319413E+03  0.00000000000E+00 0.  1.
         21   -1    0    0  503  502 -0.00000000000E+00 -0.00000000000E+00 -0.30754154116E+03  0.30754154116E+03  0.00000000000E+00 0.  1.
         25    1    1    2    0    0  0.11468597004E+03 -0.19106936159E+03 -0.20867079910E+03  0.32989221734E+03  0.12500000000E+03 0.  0.
         21    1    1    2  503  501 -0.11468597004E+03  0.19106936159E+03  0.28623245206E+03  0.36275251795E+03  0.00000000000E+00 0.  1.
<mgrwt>
<rscale>  3 0.25551002E+03</rscale>
<asrwt>0</asrwt>
<pdfrwt beam="1">  1       21 0.59246645E-01 0.25551002E+03</pdfrwt>
<pdfrwt beam="2">  1       21 0.47314083E-01 0.25551002E+03</pdfrwt>
<totfact> 0.10952727E+04</totfact>
</mgrwt>
</event>
<event>
 4    0  0.1488344E-001  0.2632738E+03  0.7546771E-02  0.1105192E+00
         21   -1    0    0  503  501  0.00000000000E+00  0.00000000000E+00  0.26635512759E+03  0.26635512759E+03  0.00000000000E+00 0. -1.
         21   -1    0    0  501  502 -0.00000000000E+00 -0.00000000000E+00 -0.37967593559E+03  0.37967593559E+03  0.00000000000E+00 0. -1.
         25    1    1    2    0    0  0.16092354261E+03 -0.16670841356E+03  0.14373862691E+03  0.29995645448E+03  0.12500000000E+03 0.  0.
         21    1    1    2  503  502 -0.16092354261E+03  0.16670841356E+03 -0.25705943491E+03  0.34607460871E+03  0.00000000000E+00 0. -1.
<mgrwt>
<rscale>  3 0.26327378E+03</rscale>
<asrwt>0</asrwt>
<pdfrwt beam="1">  1       21 0.40977712E-01 0.26327378E+03</pdfrwt>
<pdfrwt beam="2">  1       21 0.58411683E-01 0.26327378E+03</pdfrwt>
<totfact> 0.15132164E+04</totfact>
</mgrwt>
</event>
<event>
 4    0  0.1003929E-001  0.2632864E+03  0.7546771E-02  0.1105185E+00
         21   -1    0    0  502  501  0.00000000000E+00  0.00000000000E+00  0.25177387296E+04  0.25177387296E+04  0.00000000000E+00 0.  1.
         21   -1    0    0  503  502 -0.00000000000E+00 -0.00000000000E+00 -0.66475477757E+02  0.66475477757E+02  0.00000000000E+00 0. -1.
         25    1    1    2    0    0  0.13219333980E+03 -0.19031465491E+03  0.22822926896E+04  0.22974289255E+04  0.12500000000E+03 0.  0.
         21    1    1    2  503  501 -0.13219333980E+03  0.19031465491E+03  0.16897056226E+03  0.28678528182E+03  0.00000000000E+00 0. -1.
<mgrwt>
<rscale>  3 0.26328644E+03</rscale>
<asrwt>0</asrwt>
<pdfrwt beam="1">  1       21 0.38734435E+00 0.26328644E+03</pdfrwt>
<pdfrwt beam="2">  1       21 0.10226999E-01 0.26328644E+03</pdfrwt>
<totfact> 0.74075028E+02</totfact>
</mgrwt>
</event>
<event>
 4    0  0.1003929E-001  0.2705028E+03  0.7546771E-02  0.1100992E+00
         21   -1    0    0  503  501  0.00000000000E+00  0.00000000000E+00  0.28222792538E+04  0.28222792538E+04  0.00000000000E+00 0. -1.
         21   -1    0    0  501  502 -0.00000000000E+00 -0.00000000000E+00 -0.62242832675E+02  0.62242832675E+02  0.00000000000E+00 0.  1.
         25    1    1    2    0    0  0.60470432512E+02  0.23214236994E+03  0.25540375581E+04  0.25683223320E+04  0.12500000000E+03 0.  0.
         21    1    1    2  503  502 -0.60470432512E+02 -0.23214236994E+03  0.20599886302E+03  0.31619975442E+03  0.00000000000E+00 0.  1.
<mgrwt>
<rscale>  3 0.27050278E+03</rscale>
<asrwt>0</asrwt>
<pdfrwt beam="1">  1       21 0.43419671E+00 0.27050278E+03</pdfrwt>
<pdfrwt beam="2">  1       21 0.95758226E-02 0.27050278E+03</pdfrwt>
<totfact> 0.41479312E+02</totfact>
</mgrwt>
</event>
<event>
 4    0  0.1298469E-001  0.2385560E+03  0.7546771E-02  0.1120759E+00
         21   -1    0    0  502  501  0.00000000000E+00  0.00000000000E+00  0.33673872787E+03  0.33673872787E+03  0.00000000000E+00 0.  1.
         21   -1    0    0  503  502 -0.00000000000E+00 -0.00000000000E+00 -0.56061832840E+03  0.56061832840E+03  0.00000000000E+00 0.  1.
         25    1    1    2    0    0  0.19936195012E+02  0.20220414320E+03  0.27180526948E+03  0.36164495284E+03  0.12500000000E+03 0.  0.
         21    1    1    2  503  501 -0.19936195012E+02 -0.20220414320E+03 -0.49568487002E+03  0.53571210343E+03  0.00000000000E+00 0.  1.
<mgrwt>
<rscale>  3 0.23855600E+03</rscale>
<asrwt>0</asrwt>
<pdfrwt beam="1">  1       21 0.51805959E-01 0.23855600E+03</pdfrwt>
<pdfrwt beam="2">  1       21 0.86248973E-01 0.23855600E+03</pdfrwt>
<totfact> 0.39608029E+03</totfact>
</mgrwt>
</event>
<event>
 4    0  0.1003929E-001  0.3019270E+03  0.7546771E-02  0.1084281E+00
         21   -1    0    0  503  501  0.00000000000E+00  0.00000000000E+00  0.79866216478E+02  0.79866216478E+02  0.00000000000E+00 0.  1.
         21   -1    0    0  501  502 -0.00000000000E+00 -0.00000000000E+00 -0.24414706936E+04  0.24414706936E+04  0.00000000000E+00 0.  1.
         25    1    1    2    0    0  0.26217268405E+03 -0.82464360566E+02 -0.25020601346E+03  0.39212617383E+03  0.12500000000E+03 0.  0.
         21    1    1    2  503  502 -0.26217268405E+03  0.82464360566E+02 -0.21113984637E+04  0.21292107363E+04  0.00000000000E+00 0.  1.
<mgrwt>
<rscale>  3 0.30192696E+03</rscale>
<asrwt>0</asrwt>
<pdfrwt beam="1">  1       21 0.12287109E-01 0.30192696E+03</pdfrwt>
<pdfrwt beam="2">  1       21 0.37561091E+00 0.30192696E+03</pdfrwt>
<totfact> 0.60498150E+02</totfact>
</mgrwt>
</event>
<event>
 4    0  0.1295894E-001  0.3003383E+03  0.7546771E-02  0.1085072E+00
         21   -1    0    0  502  501  0.00000000000E+00  0.00000000000E+00  0.14401795662E+03  0.14401795662E+03  0.00000000000E+00 0.  1.
         21   -1    0    0  503  502 -0.00000000000E+00 -0.00000000000E+00 -0.72830610870E+03  0.72830610870E+03  0.00000000000E+00 0.  1.
         25    1    1    2    0    0 -0.22159654896E+03 -0.15960292031E+03 -0.10036812644E+03  0.31666525463E+03  0.12500000000E+03 0.  0.
         21    1    1    2  503  501  0.22159654896E+03  0.15960292031E+03 -0.48392002564E+03  0.55565881069E+03  0.00000000000E+00 0.  1.
<mgrwt>
<rscale>  3 0.30033835E+03</rscale>
<asrwt>0</asrwt>
<pdfrwt beam="1">  1       21 0.22156609E-01 0.30033835E+03</pdfrwt>
<pdfrwt beam="2">  1       21 0.11204709E+00 0.30033835E+03</pdfrwt>
<totfact> 0.11184415E+04</totfact>
</mgrwt>
</event>
<event>
 4    0  0.1103589E-001  0.3083964E+03  0.7546771E-02  0.1081117E+00
         21   -1    0    0  503  501  0.00000000000E+00  0.00000000000E+00  0.90586575526E+03  0.90586575526E+03  0.00000000000E+00 0.  1.
         21   -1    0    0  501  502 -0.00000000000E+00 -0.00000000000E+00 -0.17083765325E+03  0.17083765325E+03  0.00000000000E+00 0.  1.
         25    1    1    2    0    0  0.81390951691E+02  0.26992377153E+03  0.73249003550E+03  0.79476410435E+03  0.12500000000E+03 0.  0.
         21    1    1    2  503  502 -0.81390951691E+02 -0.26992377153E+03  0.25380665142E+01  0.28193930417E+03  0.00000000000E+00 0.  1.
<mgrwt>
<rscale>  3 0.30839638E+03</rscale>
<asrwt>0</asrwt>
<pdfrwt beam="1">  1       21 0.13936396E+00 0.30839638E+03</pdfrwt>
<pdfrwt beam="2">  1       21 0.26282716E-01 0.30839638E+03</pdfrwt>
<totfact> 0.46120493E+03</totfact>
</mgrwt>
</event>
<event>
 4    0  0.1007853E-001  0.2716838E+03  0.7546771E-02  0.1100320E+00
         21   -1    0    0  502  501  0.00000000000E+00  0.00000000000E+00  0.62091536022E+03  0.62091536022E+03  0.00000000000E+00 0.  1.
         21   -1    0    0  503  502 -0.00000000000E+00 -0.00000000000E+00 -0.11205060175E+03  0.11205060175E+03  0.00000000000E+00 0.  1.
         25    1    1    2    0    0  0.23781858907E+03  0.40365784681E+02  0.18313981923E+03  0.32764656456E+03  0.12500000000E+03 0.  0.
         21    1    1    2  503  501 -0.23781858907E+03 -0.40365784681E+02  0.32572493923E+03  0.40531939741E+03  0.00000000000E+00 0.  1.
<mgrwt>
<rscale>  3 0.27168378E+03</rscale>
<asrwt>0</asrwt>
<pdfrwt beam="1">  1       21 0.95525438E-01 0.27168378E+03</pdfrwt>
<pdfrwt beam="2">  1       21 0.17238554E-01 0.27168378E+03</pdfrwt>
<totfact> 0.26713195E+04</totfact>
</mgrwt>
</event>
<event>
 4    0  0.1394144E-001  0.3461136E+03  0.7546771E-02  0.1064222E+00
         21   -1    0    0  502  501  0.00000000000E+00  0.00000000000E+00  0.37201764404E+03  0.37201764404E+03  0.00000000000E+00 0. -1.
         21   -1    0    0  503  502 -0.00000000000E+00 -0.00000000000E+00 -0.40151037950E+03  0.40151037950E+03  0.00000000000E+00 0. -1.
         25    1    1    2    0    0  0.24896053789E+03  0.20539784342E+03  0.17862958160E+03  0.38949088684E+03  0.12500000000E+03 0.  0.
         21    1    1    2  503  501 -0.24896053789E+03 -0.20539784342E+03 -0.20812231706E+03  0.38403713670E+03  0.00000000000E+00 0. -1.
<mgrwt>
<rscale>  3 0.34611360E+03</rscale>
<asrwt>0</asrwt>
<pdfrwt beam="1">  1       21 0.57233483E-01 0.34611360E+03</pdfrwt>
<pdfrwt beam="2">  1       21 0.61770828E-01 0.34611360E+03</pdfrwt>
<totfact> 0.64036820E+03</totfact>
</mgrwt>
</event>
<event>
 4    0  0.1053042E-001  0.2515892E+03  0.7546771E-02  0.1112305E+00
         21   -1    0    0  502  501  0.00000000000E+00  0.00000000000E+00  0.85315028354E+03  0.85315028354E+03  0.00000000000E+00 0.  1.
         21   -1    0    0  503  502 -0.00000000000E+00 -0.00000000000E+00 -0.47022358861E+03  0.47022358861E+03  0.00000000000E+00 0.  1.
         25    1    1    2    0    0  0.33935822065E+02  0.21568607509E+03  0.80758851947E+03  0.84587016721E+03  0.12500000000E+03 0.  0.
         21    1    1    2  503  501 -0.33935822065E+02 -0.21568607509E+03 -0.42466182454E+03  0.47750370494E+03  0.00000000000E+00 0.  1.
<mgrwt>
<rscale>  3 0.25158919E+03</rscale>
<asrwt>0</asrwt>
<pdfrwt beam="1">  1       21 0.13125389E+00 0.25158919E+03</pdfrwt>
<pdfrwt beam="2">  1       21 0.72342091E-01 0.25158919E+03</pdfrwt>
<totfact> 0.68705955E+02</totfact>
</mgrwt>
</event>
<event>
 4    0  0.1003929E-001  0.3897119E+03  0.7546771E-02  0.1047401E+00
         21   -1    0    0  502  501  0.00000000000E+00  0.00000000000E+00  0.58985826085E+02  0.58985826085E+02  0.00000000000E+00 0. -1.
         21   -1    0    0  503  502 -0.00000000000E+00 -0.00000000000E+00 -0.26301992610E+04  0.26301992610E+04  0.00000000000E+00 0. -1.
         25    1    1    2    0    0  0.27565553810E+02 -0.36809031693E+03 -0.95702911236E+03  0.10333344391E+04  0.12500000000E+03 0.  0.
         21    1    1    2  503  501 -0.27565553810E+02  0.36809031693E+03 -0.16141843225E+04  0.16558506479E+04  0.00000000000E+00 0. -1.
<mgrwt>
<rscale>  3 0.38971187E+03</rscale>
<asrwt>0</asrwt>
<pdfrwt beam="1">  1       21 0.90747430E-02 0.38971187E+03</pdfrwt>
<pdfrwt beam="2">  1       21 0.40464602E+00 0.38971187E+03</pdfrwt>
<totfact> 0.63585866E+02</totfact>
</mgrwt>
</event>
<event>
 4    0  0.1114966E-001  0.4735590E+03  0.7546771E-02  0.1020920E+00
         21   -1    0    0  503  501  0.00000000000E+00  0.00000000000E+00  0.11767146765E+04  0.11767146765E+04  0.00000000000E+00 0. -1.
         21   -1    0    0  501  502 -0.00000000000E+00 -0.00000000000E+00 -0.28200309602E+03  0.28200309602E+03  0.00000000000E+00 0.  1.
         25    1    1    2    0    0  0.32144175573E+03  0.32451250832E+03  0.88280384441E+03  0.10017987812E+04  0.12500000000E+03 0.  0.
         21    1    1    2  503  502 -0.32144175573E+03 -0.32451250832E+03  0.11907736041E+02  0.45691899124E+03  0.00000000000E+00 0.  1.
<mgrwt>
<rscale>  3 0.47355905E+03</rscale>
<asrwt>0</asrwt>
<pdfrwt beam="1">  1       21 0.18103302E+00 0.47355905E+03</pdfrwt>
<pdfrwt beam="2">  1       21 0.43385092E-01 0.47355905E+03</pdfrwt>
<totfact> 0.75488275E+02</totfact>
</mgrwt>
</event>
<event>
 4    0  0.1279516E-001  0.2408655E+03  0.7546771E-02  0.1119218E+00
         21   -1    0    0  503  501  0.00000000000E+00  0.00000000000E+00  0.17336210088E+03  0.17336210088E+03  0.00000000000E+00 0. -1.
         21   -1    0    0  501  502 -0.00000000000E+00 -0.00000000000E+00 -0.61440127514E+03  0.61440127514E+03  0.00000000000E+00 0. -1.
         25    1    1    2    0    0  0.57729576156E+01 -0.20581020118E+03  0.58146206940E+02  0.24778447758E+03  0.12500000000E+03 0.  0.
         21    1    1    2  503  502 -0.57729576156E+01  0.20581020118E+03 -0.49918538120E+03  0.53997889843E+03  0.00000000000E+00 0. -1.
<mgrwt>
<rscale>  3 0.24086545E+03</rscale>
<asrwt>0</asrwt>
<pdfrwt beam="1">  1       21 0.26671092E-01 0.24086545E+03</pdfrwt>
<pdfrwt beam="2">  1       21 0.94523274E-01 0.24086545E+03</pdfrwt>
<totfact> 0.12169168E+04</totfact>
</mgrwt>
</event>
<event>
 4    0  0.1437412E-001  0.2563157E+03  0.7546771E-02  0.1109377E+00
         21   -1    0    0  502  501  0.00000000000E+00  0.00000000000E+00  0.31668426990E+03  0.31668426990E+03  0.00000000000E+00 0. -1.
         21   -1    0    0  503  502 -0.00000000000E+00 -0.00000000000E+00 -0.18389615504E+03  0.18389615504E+03  0.00000000000E+00 0. -1.
         25    1    1    2    0    0  0.28863526952E+02 -0.22190003993E+03  0.45151890464E+02  0.26026222185E+03  0.12500000000E+03 0.  0.
         21    1    1    2  503  501 -0.28863526952E+02  0.22190003993E+03  0.87636224403E+02  0.24031820309E+03  0.00000000000E+00 0. -1.
<mgrwt>
<rscale>  3 0.25631569E+03</rscale>
<asrwt>0</asrwt>
<pdfrwt beam="1">  1       21 0.48720657E-01 0.25631569E+03</pdfrwt>
<pdfrwt beam="2">  1       21 0.28291716E-01 0.25631569E+03</pdfrwt>
<totfact> 0.46679382E+04</totfact>
</mgrwt>
</event>
<event>
 4    0  0.1284049E-001  0.2846518E+03  0.7546771E-02  0.1093175E+00
         21   -1    0    0  503  501  0.00000000000E+00  0.00000000000E+00  0.97983771937E+03  0.97983771937E+03  0.00000000000E+00 0.  1.
         21   -1    0    0  501  502 -0.00000000000E+00 -0.00000000000E+00 -0.10342538283E+03  0.10342538283E+03  0.00000000000E+00 0.  1.
         25    1    1    2    0    0 -0.25246795577E+03  0.40762698814E+02  0.74120266912E+03  0.79398240725E+03  0.12500000000E+03 0.  0.
         21    1    1    2  503  502  0.25246795577E+03 -0.40762698814E+02  0.13520966742E+03  0.28928069495E+03  0.00000000000E+00 0.  1.
<mgrwt>
<rscale>  3 0.28465183E+03</rscale>
<asrwt>0</asrwt>
<pdfrwt beam="1">  1       21 0.15074426E+00 0.28465183E+03</pdfrwt>
<pdfrwt beam="2">  1       21 0.15911598E-01 0.28465183E+03</pdfrwt>
<totfact> 0.97982462E+03</totfact>
</mgrwt>
</event>
<event>
 4    0  0.1231605E-001  0.2544391E+03  0.7546771E-02  0.1110531E+00
         21   -1    0    0  503  501  0.00000000000E+00  0.00000000000E+00  0.47906774491E+03  0.47906774491E+03  0.00000000000E+00 0. -1.
         21   -1    0    0  501  502 -0.00000000000E+00 -0.00000000000E+00 -0.12403381646E+03  0.12403381646E+03  0.00000000000E+00 0. -1.
         25    1    1    2    0    0  0.22161657439E+03 -0.57854158736E+00  0.12430689984E+03  0.28318094233E+03  0.12500000000E+03 0.  0.
         21    1    1    2  503  502 -0.22161657439E+03  0.57854158736E+00  0.23072702861E+03  0.31992061903E+03  0.00000000000E+00 0. -1.
<mgrwt>
<rscale>  3 0.25443907E+03</rscale>
<asrwt>0</asrwt>
<pdfrwt beam="1">  1       21 0.73702729E-01 0.25443907E+03</pdfrwt>
<pdfrwt beam="2">  1       21 0.19082126E-01 0.25443907E+03</pdfrwt>
<totfact> 0.40454697E+04</totfact>
</mgrwt>
</event>
<event>
 4    0  0.1022383E-001  0.2877815E+03  0.7546771E-02  0.1091513E+00
         21   -1    0    0  502  501  0.00000000000E+00  0.00000000000E+00  0.16383219405E+03  0.16383219405E+03  0.00000000000E+00 0.  1.
         21   -1    0    0  503  502 -0.00000000000E+00 -0.00000000000E+00 -0.11424343836E+04  0.11424343836E+04  0.00000000000E+00 0.  1.
         25    1    1    2    0    0 -0.18383823262E+03 -0.18274767312E+03  0.62731022012E+01  0.28784989077E+03  0.12500000000E+03 0.  0.
         21    1    1    2  503  501  0.18383823262E+03  0.18274767312E+03 -0.98487529178E+03  0.10184166869E+04  0.00000000000E+00 0.  1.
<mgrwt>
<rscale>  3 0.28778153E+03</rscale>
<asrwt>0</asrwt>
<pdfrwt beam="1">  1       21 0.25204954E-01 0.28778153E+03</pdfrwt>
<pdfrwt beam="2">  1       21 0.17575913E+00 0.28778153E+03</pdfrwt>
<totfact> 0.26908381E+03</totfact>
</mgrwt>
</event>
<event>
 4    0  0.1416275E-001  0.2946588E+03  0.7546771E-02  0.1087942E+00
         21   -1    0    0  502  501  0.00000000000E+00  0.00000000000E+00  0.65033437460E+03  0.65033437460E+03  0.00000000000E+00 0. -1.
         21   -1    0    0  503  502 -0.00000000000E+00 -0.00000000000E+00 -0.22763597816E+03  0.22763597816E+03  0.00000000000E+00 0.  1.
         25    1    1    2    0    0 -0.26644642624E+03  0.14322028861E+02  0.51691009502E+03  0.59499568478E+03  0.12500000000E+03 0.  0.
         21    1    1    2  503  501  0.26644642624E+03 -0.14322028861E+02 -0.94211698586E+02  0.28297466798E+03  0.00000000000E+00 0.  1.
<mgrwt>
<rscale>  3 0.29465882E+03</rscale>
<asrwt>0</asrwt>
<pdfrwt beam="1">  1       21 0.10005144E+00 0.29465882E+03</pdfrwt>
<pdfrwt beam="2">  1       21 0.35020920E-01 0.29465882E+03</pdfrwt>
<totfact> 0.60429842E+03</totfact>
</mgrwt>
</event>
<event>
 4    0  0.1148065E-001  0.2416130E+03  0.7546771E-02  0.1118723E+00
         21   -1    0    0  502  501  0.00000000000E+00  0.00000000000E+00  0.10476225195E+04  0.10476225195E+04  0.00000000000E+00 0.  1.
         21   -1    0    0  503  502 -0.00000000000E+00 -0.00000000000E+00 -0.10193079653E+03  0.10193079653E+03  0.00000000000E+00 0.  1.
         25    1    1    2    0    0 -0.20671055638E+03  0.47538208064E+01  0.90772610642E+03  0.93933143097E+03  0.12500000000E+03 0.  0.
         21    1    1    2  503  501  0.20671055638E+03 -0.47538208064E+01  0.37965616575E+02  0.21022188509E+03  0.00000000000E+00 0.  1.
<mgrwt>
<rscale>  3 0.24161302E+03</rscale>
<asrwt>0</asrwt>
<pdfrwt beam="1">  1       21 0.16117269E+00 0.24161302E+03</pdfrwt>
<pdfrwt beam="2">  1       21 0.15681662E-01 0.24161302E+03</pdfrwt>
<totfact> 0.86145908E+03</totfact>
</mgrwt>
</event>
<event>
 4    0  0.1198169E-001  0.2586119E+03  0.7546771E-02  0.1107980E+00
         21   -1    0    0  502  501  0.00000000000E+00  0.00000000000E+00  0.11516672312E+03  0.11516672312E+03  0.00000000000E+00 0. -1.
         21   -1    0    0  503  502 -0.00000000000E+00 -0.00000000000E+00 -0.54207405281E+03  0.54207405281E+03  0.00000000000E+00 0. -1.
         25    1    1    2    0    0  0.22539988263E+03  0.21213816717E+02 -0.14783371026E+03  0.29788410330E+03  0.12500000000E+03 0.  0.
         21    1    1    2  503  501 -0.22539988263E+03 -0.21213816717E+02 -0.27907361943E+03  0.35935667264E+03  0.00000000000E+00 0. -1.
<mgrwt>
<rscale>  3 0.25861194E+03</rscale>
<asrwt>0</asrwt>
<pdfrwt beam="1">  1       21 0.17717957E-01 0.25861194E+03</pdfrwt>
<pdfrwt beam="2">  1       21 0.83396009E-01 0.25861194E+03</pdfrwt>
<totfact> 0.35037574E+04</totfact>
</mgrwt>
</event>
<event>
 4    0  0.1185554E-001  0.3164261E+03  0.7546771E-02  0.1077306E+00
         21   -1    0    0  502  501  0.00000000000E+00  0.00000000000E+00  0.93831331983E+02  0.93831331983E+02  0.00000000000E+00 0.  1.
         21   -1    0    0  503  502 -0.00000000000E+00 -0.00000000000E+00 -0.13999812291E+04  0.13999812291E+04  0.00000000000E+00 0.  1.
         25    1    1    2    0    0 -0.28709652995E+03  0.45563830533E+02 -0.26466274809E+03  0.41251890913E+03  0.12500000000E+03 0.  0.
         21    1    1    2  503  501  0.28709652995E+03 -0.45563830533E+02 -0.10414871491E+04  0.10812936520E+04  0.00000000000E+00 0.  1.
<mgrwt>
<rscale>  3 0.31642611E+03</rscale>
<asrwt>0</asrwt>
<pdfrwt beam="1">  1       21 0.14435591E-01 0.31642611E+03</pdfrwt>
<pdfrwt beam="2">  1       21 0.21538170E+00 0.31642611E+03</pdfrwt>
<totfact> 0.41099704E+03</totfact>
</mgrwt>
</event>
<event>
 4    0  0.1251850E-001  0.2490206E+03  0.7546771E-02  0.1113925E+00
         21   -1    0    0  502  501  0.00000000000E+00  0.00000000000E+00  0.13318714437E+04  0.13318714437E+04  0.00000000000E+00 0. -1.
         21   -1    0    0  503  502 -0.00000000000E+00 -0.00000000000E+00 -0.56716222296E+02  0.56716222296E+02  0.00000000000E+00 0. -1.
         25    1    1    2    0    0 -0.96269815435E+02 -0.19266132070E+03  0.10413149436E+04  0.10706764561E+04  0.12500000000E+03 0.  0.
         21    1    1    2  503  501  0.96269815435E+02  0.19266132070E+03  0.23384027780E+03  0.31791120990E+03  0.00000000000E+00 0. -1.
<mgrwt>
<rscale>  3 0.24902061E+03</rscale>
<asrwt>0</asrwt>
<pdfrwt beam="1">  1       21 0.20490328E+00 0.24902061E+03</pdfrwt>
<pdfrwt beam="2">  1       21 0.87255737E-02 0.24902061E+03</pdfrwt>
<totfact> 0.12355169E+04</totfact>
</mgrwt>
</event>
<event>
 4    0  0.1458199E-001  0.2543882E+03  0.7546771E-02  0.1110563E+00
         21   -1    0    0  503  501  0.00000000000E+00  0.00000000000E+00  0.28999793689E+03  0.28999793689E+03  0.00000000000E+00 0. -1.
         21   -1    0    0  501  502 -0.00000000000E+00 -0.00000000000E+00 -0.30516077170E+03  0.30516077170E+03  0.00000000000E+00 0. -1.
         25    1    1    2    0    0  0.56419563610E+02 -0.21425494178E+03  0.17037640165E+03  0.30617228071E+03  0.12500000000E+03 0.  0.
         21    1    1    2  503  502 -0.56419563610E+02  0.21425494178E+03 -0.18553923646E+03  0.28898642788E+03  0.00000000000E+00 0. -1.
<mgrwt>
<rscale>  3 0.25438818E+03</rscale>
<asrwt>0</asrwt>
<pdfrwt beam="1">  1       21 0.44615067E-01 0.25438818E+03</pdfrwt>
<pdfrwt beam="2">  1       21 0.46947811E-01 0.25438818E+03</pdfrwt>
<totfact> 0.20259600E+04</totfact>
</mgrwt>
</event>
<event>
 4    0  0.1502622E-001  0.3215158E+03  0.7546771E-02  0.1074954E+00
         21   -1    0    0  502  501  0.00000000000E+00  0.00000000000E+00  0.87721567500E+02  0.87721567500E+02  0.00000000000E+00 0. -1.
         21   -1    0    0  503  502 -0.00000000000E+00 -0.00000000000E+00 -0.10878430219E+04  0.10878430219E+04  0.00000000000E+00 0. -1.
         25    1    1    2    0    0  0.25286512904E+03 -0.15429403864E+03 -0.51059395348E+03  0.60338926836E+03  0.12500000000E+03 0.  0.
         21    1    1    2  503  501 -0.25286512904E+03  0.15429403864E+03 -0.48952750092E+03  0.57217532104E+03  0.00000000000E+00 0. -1.
<mgrwt>
<rscale>  3 0.32151582E+03</rscale>
<asrwt>0</asrwt>
<pdfrwt beam="1">  1       21 0.13495626E-01 0.32151582E+03</pdfrwt>
<pdfrwt beam="2">  1       21 0.16736046E+00 0.32151582E+03</pdfrwt>
<totfact> 0.97775254E+03</totfact>
</mgrwt>
</event>
<event>
 4    0  0.1005465E-001  0.2371577E+03  0.7546771E-02  0.1121701E+00
         21   -1    0    0  503  501  0.00000000000E+00  0.00000000000E+00  0.41965777963E+03  0.41965777963E+03  0.00000000000E+00 0. -1.
         21   -1    0    0  501  502 -0.00000000000E+00 -0.00000000000E+00 -0.14882947902E+03  0.14882947902E+03  0.00000000000E+00 0. -1.
         25    1    1    2    0    0  0.12164761455E+03 -0.16068798915E+03  0.80150554614E+01  0.23729309534E+03  0.12500000000E+03 0.  0.
         21    1    1    2  503  502 -0.12164761455E+03  0.16068798915E+03  0.26281324515E+03  0.33119416330E+03  0.00000000000E+00 0. -1.
<mgrwt>
<rscale>  3 0.23715769E+03</rscale>
<asrwt>0</asrwt>
<pdfrwt beam="1">  1       21 0.64562735E-01 0.23715769E+03</pdfrwt>
<pdfrwt beam="2">  1       21 0.22896843E-01 0.23715769E+03</pdfrwt>
<totfact> 0.38736711E+04</totfact>
</mgrwt>
</event>
<event>
 4    0  0.1003929E-001  0.2774900E+03  0.7546771E-02  0.1097068E+00
         21   -1    0    0  503  501  0.00000000000E+00  0.00000000000E+00  0.13736269671E+03  0.13736269671E+03  0.00000000000E+00 0. -1.
         21   -1    0    0  501  502 -0.00000000000E+00 -0.00000000000E+00 -0.64151657093E+03  0.64151657093E+03  0.00000000000E+00 0.  1.
         25    1    1    2    0    0  0.13673290683E+03 -0.20659099320E+03 -0.81916977896E+02  0.28932873613E+03  0.12500000000E+03 0.  0.
         21    1    1    2  503  502 -0.13673290683E+03  0.20659099320E+03 -0.42223689632E+03  0.48955053151E+03  0.00000000000E+00 0.  1.
<mgrwt>
<rscale>  3 0.27749005E+03</rscale>
<asrwt>0</asrwt>
<pdfrwt beam="1">  1       21 0.21132723E-01 0.27749005E+03</pdfrwt>
<pdfrwt beam="2">  1       21 0.98694857E-01 0.27749005E+03</pdfrwt>
<totfact> 0.16829056E+04</totfact>
</mgrwt>
</event>
<event>
 4    0  0.1003929E-001  0.3191214E+03  0.7546771E-02  0.1076054E+00
         21   -1    0    0  503  501  0.00000000000E+00  0.00000000000E+00  0.12477346184E+04  0.12477346184E+04  0.00000000000E+00 0.  1.
         21   -1    0    0  501  502 -0.00000000000E+00 -0.00000000000E+00 -0.36041685778E+03  0.36041685778E+03  0.00000000000E+00 0.  1.
         25    1    1    2    0    0 -0.11838539377E+03  0.26869748744E+03  0.11626391786E+04  0.12056402037E+04  0.12500000000E+03 0.  0.
         21    1    1    2  503  502  0.11838539377E+03 -0.26869748744E+03 -0.27532141801E+03  0.40251127243E+03  0.00000000000E+00 0.  1.
<mgrwt>
<rscale>  3 0.31912136E+03</rscale>
<asrwt>0</asrwt>
<pdfrwt beam="1">  1       21 0.19195917E+00 0.31912136E+03</pdfrwt>
<pdfrwt beam="2">  1       21 0.55448748E-01 0.31912136E+03</pdfrwt>
<totfact> 0.41211678E+02</totfact>
</mgrwt>
</event>
<event>
 4    0  0.1496386E-001  0.2451292E+03  0.7546771E-02  0.1116422E+00
         21   -1    0    0  502  501  0.00000000000E+00  0.00000000000E+00  0.32552682233E+03  0.32552682233E+03  0.00000000000E+00 0. -1.
         21   -1    0    0  503  502 -0.00000000000E+00 -0.00000000000E+00 -0.19607293921E+03  0.19607293921E+03  0.00000000000E+00 0. -1.
         25    1    1    2    0    0 -0.72493784126E+01  0.21073861472E+03  0.18077821124E+03  0.30458016823E+03  0.12500000000E+03 0.  0.
         21    1    1    2  503  501  0.72493784126E+01 -0.21073861472E+03 -0.51324328130E+02  0.21701959331E+03  0.00000000000E+00 0. -1.
<mgrwt>
<rscale>  3 0.24512918E+03</rscale>
<asrwt>0</asrwt>
<pdfrwt beam="1">  1       21 0.50081049E-01 0.24512918E+03</pdfrwt>
<pdfrwt beam="2">  1       21 0.30165068E-01 0.24512918E+03</pdfrwt>
<totfact> 0.39048028E+04</totfact>
</mgrwt>
</event>
<event>
 4    0  0.1336369E-001  0.2664461E+03  0.7546771E-02  0.1103331E+00
         21   -1    0    0  503  501  0.00000000000E+00  0.00000000000E+00  0.88490027456E+03  0.88490027456E+03  0.00000000000E+00 0. -1.
         21   -1    0    0  501  502 -0.00000000000E+00 -0.00000000000E+00 -0.77716132609E+02  0.77716132609E+02  0.00000000000E+00 0. -1.
         25    1    1    2    0    0  0.23177301015E+03 -0.40617781850E+02  0.56643602873E+03  0.62597388690E+03  0.12500000000E+03 0.  0.
         21    1    1    2  503  502 -0.23177301015E+03  0.40617781850E+02  0.24074811322E+03  0.33664252027E+03  0.00000000000E+00 0. -1.
<mgrwt>
<rscale>  3 0.26644612E+03</rscale>
<asrwt>0</asrwt>
<pdfrwt beam="1">  1       21 0.13613850E+00 0.26644612E+03</pdfrwt>
<pdfrwt beam="2">  1       21 0.11956329E-01 0.26644612E+03</pdfrwt>
<totfact> 0.21782595E+04</totfact>
</mgrwt>
</event>
<event>
 4    0  0.1360017E-001  0.2482441E+03  0.7546771E-02  0.1114420E+00
         21   -1    0    0  503  501  0.00000000000E+00  0.00000000000E+00  0.82540086490E+03  0.82540086490E+03  0.00000000000E+00 0. -1.
         21   -1    0    0  501  502 -0.00000000000E+00 -0.00000000000E+00 -0.95091739667E+02  0.95091739667E+02  0.00000000000E+00 0. -1.
         25    1    1    2    0    0  0.18307547122E+03 -0.11172969286E+03  0.64240488204E+03  0.68870108531E+03  0.12500000000E+03 0.  0.
         21    1    1    2  503  502 -0.18307547122E+03  0.11172969286E+03  0.87904243193E+02  0.23179151926E+03  0.00000000000E+00 0. -1.
<mgrwt>
<rscale>  3 0.24824414E+03</rscale>
<asrwt>0</asrwt>
<pdfrwt beam="1">  1       21 0.12698474E+00 0.24824414E+03</pdfrwt>
<pdfrwt beam="2">  1       21 0.14629499E-01 0.24824414E+03</pdfrwt>
<totfact> 0.18210253E+04</totfact>
</mgrwt>
</event>
<event>
 4    0  0.1572154E-001  0.2821810E+03  0.7546771E-02  0.1094504E+00
         21   -1    0    0  502  501  0.00000000000E+00  0.00000000000E+00  0.37048960997E+03  0.37048960997E+03  0.00000000000E+00 0. -1.
         21   -1    0    0  503  502 -0.00000000000E+00 -0.00000000000E+00 -0.21946866124E+03  0.21946866124E+03  0.00000000000E+00 0. -1.
         25    1    1    2    0    0  0.18902501976E+03  0.16813876379E+03  0.18094209801E+03  0.33521059771E+03  0.12500000000E+03 0.  0.
         21    1    1    2  503  501 -0.18902501976E+03 -0.16813876379E+03 -0.29921149281E+02  0.25474767351E+03  0.00000000000E+00 0. -1.
<mgrwt>
<rscale>  3 0.28218097E+03</rscale>
<asrwt>0</asrwt>
<pdfrwt beam="1">  1       21 0.56998401E-01 0.28218097E+03</pdfrwt>
<pdfrwt beam="2">  1       21 0.33764410E-01 0.28218097E+03</pdfrwt>
<totfact> 0.23375371E+04</totfact>
</mgrwt>
</event>
<event>
 4    0  0.1221757E-001  0.2666977E+03  0.7546771E-02  0.1103185E+00
         21   -1    0    0  503  501  0.00000000000E+00  0.00000000000E+00  0.10192107530E+04  0.10192107530E+04  0.00000000000E+00 0.  1.
         21   -1    0    0  501  502 -0.00000000000E+00 -0.00000000000E+00 -0.85176214068E+02  0.85176214068E+02  0.00000000000E+00 0.  1.
         25    1    1    2    0    0  0.13817723236E+03 -0.19081332776E+03  0.77638653168E+03  0.82091639049E+03  0.12500000000E+03 0.  0.
         21    1    1    2  503  502 -0.13817723236E+03  0.19081332776E+03  0.15764800723E+03  0.28347057657E+03  0.00000000000E+00 0.  1.
<mgrwt>
<rscale>  3 0.26669772E+03</rscale>
<asrwt>0</asrwt>
<pdfrwt beam="1">  1       21 0.15680165E+00 0.26669772E+03</pdfrwt>
<pdfrwt beam="2">  1       21 0.13104034E-01 0.26669772E+03</pdfrwt>
<totfact> 0.12695187E+04</totfact>
</mgrwt>
</event>
