<event>
 5    0  0.2213064E+000  0.2361936E+03  0.7546771E-02  0.1122355E+00
         21   -1    0    0  502  501  0.00000000000E+00  0.00000000000E+00  0.26230532886E+03  0.26230532886E+03  0.00000000000E+00 0.  1.
         21   -1    0    0  503  502 -0.00000000000E+00 -0.00000000000E+00 -0.29568181292E+03  0.29568181292E+03  0.00000000000E+00 0. -1.
         25    1    1    2    0    0  0.19907642811E+03  0.23043761245E+02  0.15040951186E+03  0.28001867870E+03  0.12500000000E+03 0.  0.
         21    1    1    2  503  504 -0.12250572934E+03 -0.40676960127E+02 -0.10165638300E+03  0.16430547468E+03  0.00000000000E+00 0. -1.
         21    1    1    2  504  501 -0.76570698773E+02  0.17633198882E+02 -0.82129612924E+02  0.11366298840E+03  0.00000000000E+00 0. -1.
<mgrwt>
<rscale>  4 0.23619365E+03</rscale>
<asrwt>0</asrwt>
<pdfrwt beam="1">  1       21 0.40354666E-01 0.23619365E+03</pdfrwt>
<pdfrwt beam="2">  1       21 0.45489510E-01 0.23619365E+03</pdfrwt>
<totfact> 0.26798270E+04</totfact>
</mgrwt>
</event>
<event>
 5    0  0.2213064E+000  0.3107361E+03  0.7546771E-02  0.1079994E+00
         21   -1    0    0  502  501  0.00000000000E+00  0.00000000000E+00  0.69393533114E+03  0.69393533114E+03  0.00000000000E+00 0.  1.
         21   -1    0    0  503  502 -0.00000000000E+00 -0.00000000000E+00 -0.50622445060E+03  0.50622445060E+03  0.00000000000E+00 0. -1.
         25    1    1    2    0    0 -0.27159011319E+03  0.84680103923E+02  0.61174875183E+03  0.68614389522E+03  0.12500000000E+03 0.  0.
         21    1    1    2  503  504  0.13866965764E+03 -0.64837694609E+02 -0.26258821052E+03  0.30395027372E+03  0.00000000000E+00 0. -1.
         21    1    1    2  504  501  0.13292045555E+03 -0.19842409314E+02 -0.16144966078E+03  0.21006561279E+03  0.00000000000E+00 0. -1.
<mgrwt>
<rscale>  4 0.31073608E+03</rscale>
<asrwt>0</asrwt>
<pdfrwt beam="1">  1       21 0.10675928E+00 0.31073608E+03</pdfrwt>
<pdfrwt beam="2">  1       21 0.77880684E-01 0.31073608E+03</pdfrwt>
<totfact> 0.93319669E+02</totfact>
</mgrwt>
</event>
<event>
 5    0  0.2213064E+000  0.2954884E+03  0.7546771E-02  0.1087518E+00
         21   -1    0    0  502  501  0.00000000000E+00  0.00000000000E+00  0.92768795566E+03  0.92768795566E+03  0.00000000000E+00 0. -1.
         21   -1    0    0  503  502 -0.00000000000E+00 -0.00000000000E+00 -0.98845533995E+03  0.98845533995E+03  0.00000000000E+00 0.  1.
         25    1    1    2    0    0 -0.89315151215E+02 -0.25549695140E+03  0.87151478644E+03  0.92109658093E+03  0.12500000000E+03 0.  0.
         21    1    1    2  503  504  0.61327346045E+02  0.15656907535E+03 -0.84073068747E+03  0.85738148311E+03  0.00000000000E+00 0.  1.
         21    1    1    2  504  501  0.27987805171E+02  0.98927876052E+02 -0.91551483257E+02  0.13766523158E+03  0.00000000000E+00 0. -1.
<mgrwt>
<rscale>  4 0.29548845E+03</rscale>
<asrwt>0</asrwt>
<pdfrwt beam="1">  1       21 0.14272122E+00 0.29548845E+03</pdfrwt>
<pdfrwt beam="2">  1       21 0.15207005E+00 0.29548845E+03</pdfrwt>
<totfact> 0.87310816E+01</totfact>
</mgrwt>
</event>
<event>
 5    0  0.2213064E+000  0.2520601E+03  0.7546771E-02  0.1112010E+00
         21   -1    0    0  502  501  0.00000000000E+00  0.00000000000E+00  0.90338065395E+02  0.90338065395E+02  0.00000000000E+00 0.  1.
         21   -1    0    0  503  502 -0.00000000000E+00 -0.00000000000E+00 -0.22074408011E+04  0.22074408011E+04  0.00000000000E+00 0. -1.
         25    1    1    2    0    0  0.15563167345E+03 -0.15390930779E+03 -0.10447557319E+03  0.27285424350E+03  0.12500000000E+03 0.  0.
         21    1    1    2  503  504 -0.12673630319E+03  0.99585923727E+02 -0.14270545501E+04  0.14361281752E+04  0.00000000000E+00 0. -1.
         21    1    1    2  504  501 -0.28895370256E+02  0.54323384063E+02 -0.58557261249E+03  0.58879644783E+03  0.00000000000E+00 0. -1.
<mgrwt>
<rscale>  4 0.25206010E+03</rscale>
<asrwt>0</asrwt>
<pdfrwt beam="1">  1       21 0.13898165E-01 0.25206010E+03</pdfrwt>
<pdfrwt beam="2">  1       21 0.33960626E+00 0.25206010E+03</pdfrwt>
<totfact> 0.84082026E+02</totfact>
</mgrwt>
</event>
<event>
 5    0  0.2213064E+000  0.2874348E+03  0.7546771E-02  0.1091696E+00
         21   -1    0    0  502  501  0.00000000000E+00  0.00000000000E+00  0.98708729422E+03  0.98708729422E+03  0.00000000000E+00 0. -1.
         21   -1    0    0  503  502 -0.00000000000E+00 -0.00000000000E+00 -0.10328858064E+03  0.10328858064E+03  0.00000000000E+00 0. -1.
         25    1    1    2    0    0 -0.21308475463E+03 -0.14693072656E+03  0.72922862885E+03  0.78383234445E+03  0.12500000000E+03 0.  0.
         21    1    1    2  503  504  0.12582171992E+03  0.54943464255E+02  0.69761885466E+02  0.15400198094E+03  0.00000000000E+00 0. -1.
         21    1    1    2  504  501  0.87263034710E+02  0.91987262305E+02  0.84808199268E+02  0.15254154947E+03  0.00000000000E+00 0. -1.
<mgrwt>
<rscale>  4 0.28743478E+03</rscale>
<asrwt>0</asrwt>
<pdfrwt beam="1">  1       21 0.15185958E+00 0.28743478E+03</pdfrwt>
<pdfrwt beam="2">  1       21 0.15890552E-01 0.28743478E+03</pdfrwt>
<totfact> 0.96162905E+03</totfact>
</mgrwt>
</event>
<event>
 5    0  0.2213064E+000  0.2552921E+03  0.7546771E-02  0.1110005E+00
         21   -1    0    0  502  501  0.00000000000E+00  0.00000000000E+00  0.17939117528E+03  0.17939117528E+03  0.00000000000E+00 0. -1.
         21   -1    0    0  503  502 -0.00000000000E+00 -0.00000000000E+00 -0.72525434999E+03  0.72525434999E+03  0.00000000000E+00 0. -1.
         25    1    1    2    0    0 -0.16551112828E+03  0.27078614845E+03 -0.33590620925E+03  0.47872440212E+03  0.12500000000E+03 0.  0.
         21    1    1    2  503  504  0.12062549965E+03 -0.13437834310E+03 -0.21680277001E+03  0.28215508385E+03  0.00000000000E+00 0. -1.
         21    1    1    2  504  501  0.44885628626E+02 -0.13640780535E+03  0.68458045415E+01  0.14376603930E+03  0.00000000000E+00 0. -1.
<mgrwt>
<rscale>  4 0.25529209E+03</rscale>
<asrwt>0</asrwt>
<pdfrwt beam="1">  1       21 0.27598641E-01 0.25529209E+03</pdfrwt>
<pdfrwt beam="2">  1       21 0.11157760E+00 0.25529209E+03</pdfrwt>
<totfact> 0.75808784E+03</totfact>
</mgrwt>
</event>
<event>
 5    0  0.2213064E+000  0.3065848E+03  0.7546771E-02  0.1081995E+00
         21   -1    0    0  502  501  0.00000000000E+00  0.00000000000E+00  0.28143093575E+03  0.28143093575E+03  0.00000000000E+00 0.  1.
         21   -1    0    0  503  502 -0.00000000000E+00 -0.00000000000E+00 -0.90877568687E+03  0.90877568687E+03  0.00000000000E+00 0. -1.
         25    1    1    2    0    0 -0.25831289950E+03 -0.36507173073E+02  0.15269975627E+03  0.32710937513E+03  0.12500000000E+03 0.  0.
         21    1    1    2  503  504 -0.23831489801E+02  0.34341282754E+02 -0.99879784737E+01  0.42977009218E+02  0.00000000000E+00 0. -1.
         21    1    1    2  504  501  0.28214438930E+03  0.21658903191E+01 -0.77005652891E+03  0.82012023827E+03  0.00000000000E+00 0. -1.
<mgrwt>
<rscale>  4 0.30658476E+03</rscale>
<asrwt>0</asrwt>
<pdfrwt beam="1">  1       21 0.43297067E-01 0.30658476E+03</pdfrwt>
<pdfrwt beam="2">  1       21 0.13981164E+00 0.30658476E+03</pdfrwt>
<totfact> 0.16871610E+03</totfact>
</mgrwt>
</event>
<event>
 5    0  0.2213064E+000  0.3815091E+03  0.7546771E-02  0.1050377E+00
         21   -1    0    0  502  501  0.00000000000E+00  0.00000000000E+00  0.16896372974E+03  0.16896372974E+03  0.00000000000E+00 0. -1.
         21   -1    0    0  503  502 -0.00000000000E+00 -0.00000000000E+00 -0.86793682708E+03  0.86793682708E+03  0.00000000000E+00 0. -1.
         25    1    1    2    0    0 -0.28306545748E+03 -0.22315488622E+03 -0.47075433321E+03  0.60593629921E+03  0.12500000000E+03 0.  0.
         21    1    1    2  503  504  0.25595416822E+03  0.17420400028E+03 -0.19228219050E+03  0.36446126094E+03  0.00000000000E+00 0. -1.
         21    1    1    2  504  501  0.27111289261E+02  0.48950885947E+02 -0.35936573629E+02  0.66502996658E+02  0.00000000000E+00 0.  1.
<mgrwt>
<rscale>  4 0.38150905E+03</rscale>
<asrwt>0</asrwt>
<pdfrwt beam="1">  1       21 0.25994420E-01 0.38150905E+03</pdfrwt>
<pdfrwt beam="2">  1       21 0.13352874E+00 0.38150905E+03</pdfrwt>
<totfact> 0.50920844E+03</totfact>
</mgrwt>
</event>
<event>
 5    0  0.2213064E+000  0.2513866E+03  0.7546771E-02  0.1112432E+00
         21   -1    0    0  502  501  0.00000000000E+00  0.00000000000E+00  0.63273765885E+03  0.63273765885E+03  0.00000000000E+00 0. -1.
         21   -1    0    0  503  502 -0.00000000000E+00 -0.00000000000E+00 -0.27358615075E+03  0.27358615075E+03  0.00000000000E+00 0.  1.
         25    1    1    2    0    0  0.10153833330E+03 -0.19302903186E+03  0.55572147856E+03  0.60993573596E+03  0.12500000000E+03 0.  0.
         21    1    1    2  503  504 -0.84997203569E+02  0.17823421735E+03 -0.18785409499E+03  0.27254563260E+03  0.00000000000E+00 0.  1.
         21    1    1    2  504  501 -0.16541129735E+02  0.14794814515E+02 -0.87158754685E+01  0.23842441038E+02  0.00000000000E+00 0. -1.
<mgrwt>
<rscale>  4 0.25138664E+03</rscale>
<asrwt>0</asrwt>
<pdfrwt beam="1">  1       21 0.97344255E-01 0.25138664E+03</pdfrwt>
<pdfrwt beam="2">  1       21 0.42090177E-01 0.25138664E+03</pdfrwt>
<totfact> 0.45557464E+03</totfact>
</mgrwt>
</event>
<event>
 5    0  0.2213064E+000  0.2569346E+03  0.7546771E-02  0.1108999E+00
         21   -1    0    0  502  501  0.00000000000E+00  0.00000000000E+00  0.66553272586E+02  0.66553272586E+02  0.00000000000E+00 0. -1.
         21   -1    0    0  503  502 -0.00000000000E+00 -0.00000000000E+00 -0.91390111555E+03  0.91390111555E+03  0.00000000000E+00 0. -1.
         25    1    1    2    0    0  0.21913170283E+03 -0.48699814538E+02 -0.40961262953E+03  0.48352650537E+03  0.12500000000E+03 0.  0.
         21    1    1    2  503  504 -0.16236282356E+03  0.31087117353E+01 -0.30001899584E+03  0.34114915862E+03  0.00000000000E+00 0. -1.
         21    1    1    2  504  501 -0.56768879273E+02  0.45591102802E+02 -0.13771621760E+03  0.15577872415E+03  0.00000000000E+00 0. -1.
<mgrwt>
<rscale>  4 0.25693457E+03</rscale>
<asrwt>0</asrwt>
<pdfrwt beam="1">  1       21 0.10238965E-01 0.25693457E+03</pdfrwt>
<pdfrwt beam="2">  1       21 0.14060017E+00 0.25693457E+03</pdfrwt>
<totfact> 0.26564628E+04</totfact>
</mgrwt>
</event>
<event>
 5    0  0.2213064E+000  0.2407900E+03  0.7546771E-02  0.1119268E+00
         21   -1    0    0  502  501  0.00000000000E+00  0.00000000000E+00  0.95021183348E+03  0.95021183348E+03  0.00000000000E+00 0.  1.
         21   -1    0    0  503  502 -0.00000000000E+00 -0.00000000000E+00 -0.99851694856E+02  0.99851694856E+02  0.00000000000E+00 0. -1.
         25    1    1    2    0    0 -0.13708271155E+03  0.15350295806E+03  0.80044413895E+03  0.83587717251E+03  0.12500000000E+03 0.  0.
         21    1    1    2  503  504  0.21066626933E+02 -0.15951453254E+02  0.16535193880E+02  0.31171529765E+02  0.00000000000E+00 0. -1.
         21    1    1    2  504  501  0.11601608461E+03 -0.13755150481E+03  0.33380805798E+02  0.18301482607E+03  0.00000000000E+00 0. -1.
<mgrwt>
<rscale>  4 0.24079001E+03</rscale>
<asrwt>0</asrwt>
<pdfrwt beam="1">  1       21 0.14618643E+00 0.24079001E+03</pdfrwt>
<pdfrwt beam="2">  1       21 0.15361800E-01 0.24079001E+03</pdfrwt>
<totfact> 0.11626179E+04</totfact>
</mgrwt>
</event>
<event>
 5    0  0.2213064E+000  0.2881261E+03  0.7546771E-02  0.1091332E+00
         21   -1    0    0  502  501  0.00000000000E+00  0.00000000000E+00  0.51380679136E+03  0.51380679136E+03  0.00000000000E+00 0. -1.
         21   -1    0    0  503  502 -0.00000000000E+00 -0.00000000000E+00 -0.15982068021E+03  0.15982068021E+03  0.00000000000E+00 0. -1.
         25    1    1    2    0    0  0.29608745803E+02  0.25790491714E+03  0.26469596788E+03  0.39125513355E+03  0.12500000000E+03 0.  0.
         21    1    1    2  503  504  0.16100546423E+02 -0.21763188386E+02  0.51629773558E+01  0.27559395839E+02  0.00000000000E+00 0. -1.
         21    1    1    2  504  501 -0.45709292226E+02 -0.23614172876E+03  0.84127165916E+02  0.25481294218E+03  0.00000000000E+00 0. -1.
<mgrwt>
<rscale>  4 0.28812606E+03</rscale>
<asrwt>0</asrwt>
<pdfrwt beam="1">  1       21 0.79047198E-01 0.28812606E+03</pdfrwt>
<pdfrwt beam="2">  1       21 0.24587797E-01 0.28812606E+03</pdfrwt>
<totfact> 0.21051063E+04</totfact>
</mgrwt>
</event>
<event>
 5    0  0.2213064E+000  0.2472368E+03  0.7546771E-02  0.1115064E+00
         21   -1    0    0  502  501  0.00000000000E+00  0.00000000000E+00  0.27000881870E+03  0.27000881870E+03  0.00000000000E+00 0.  1.
         21   -1    0    0  503  502 -0.00000000000E+00 -0.00000000000E+00 -0.59499925285E+03  0.59499925285E+03  0.00000000000E+00 0.  1.
         25    1    1    2    0    0  0.18831040523E+03  0.10020097161E+03  0.18620463991E+03  0.30951286137E+03  0.12500000000E+03 0.  0.
         21    1    1    2  503  504 -0.75013934148E+02 -0.22984299660E+02 -0.22172110582E+03  0.23519272334E+03  0.00000000000E+00 0. -1.
         21    1    1    2  504  501 -0.11329647108E+03 -0.77216671948E+02 -0.28947396824E+03  0.32030248684E+03  0.00000000000E+00 0.  1.
<mgrwt>
<rscale>  4 0.24723682E+03</rscale>
<asrwt>0</asrwt>
<pdfrwt beam="1">  1       21 0.41539818E-01 0.24723682E+03</pdfrwt>
<pdfrwt beam="2">  1       21 0.91538346E-01 0.24723682E+03</pdfrwt>
<totfact> 0.54235905E+03</totfact>
</mgrwt>
</event>
<event>
 5    0  0.2213064E+000  0.2381297E+03  0.7546771E-02  0.1121045E+00
         21   -1    0    0  502  501  0.00000000000E+00  0.00000000000E+00  0.26530339623E+03  0.26530339623E+03  0.00000000000E+00 0. -1.
         21   -1    0    0  503  502 -0.00000000000E+00 -0.00000000000E+00 -0.21642981100E+03  0.21642981100E+03  0.00000000000E+00 0. -1.
         25    1    1    2    0    0  0.19164729369E+03  0.65970122273E+02 -0.57033509737E+02  0.24486437765E+03  0.12500000000E+03 0.  0.
         21    1    1    2  503  504 -0.17048288931E+03 -0.37933789028E+02  0.99979465356E+02  0.20124433256E+03  0.00000000000E+00 0. -1.
         21    1    1    2  504  501 -0.21164404382E+02 -0.28036333245E+02  0.59276296088E+01  0.35624497013E+02  0.00000000000E+00 0. -1.
<mgrwt>
<rscale>  4 0.23812968E+03</rscale>
<asrwt>0</asrwt>
<pdfrwt beam="1">  1       21 0.40815907E-01 0.23812968E+03</pdfrwt>
<pdfrwt beam="2">  1       21 0.33296894E-01 0.23812968E+03</pdfrwt>
<totfact> 0.49191770E+04</totfact>
</mgrwt>
</event>
<event>
 5    0  0.2213064E+000  0.2153915E+03  0.7546771E-02  0.1137366E+00
         21   -1    0    0  502  501  0.00000000000E+00  0.00000000000E+00  0.14078901139E+04  0.14078901139E+04  0.00000000000E+00 0. -1.
         21   -1    0    0  503  502 -0.00000000000E+00 -0.00000000000E+00 -0.46118641714E+02  0.46118641714E+02  0.00000000000E+00 0. -1.
         25    1    1    2    0    0  0.11156235195E+03 -0.16702841964E+03  0.96512466259E+03  0.99369777381E+03  0.12500000000E+03 0.  0.
         21    1    1    2  503  504 -0.12657886625E+03  0.11316102643E+03  0.24003201489E+03  0.29401189680E+03  0.00000000000E+00 0. -1.
         21    1    1    2  504  501  0.15016514295E+02  0.53867393205E+02  0.15661479466E+03  0.16629908496E+03  0.00000000000E+00 0. -1.
<mgrwt>
<rscale>  4 0.21539148E+03</rscale>
<asrwt>0</asrwt>
<pdfrwt beam="1">  1       21 0.21659845E+00 0.21539148E+03</pdfrwt>
<pdfrwt beam="2">  1       21 0.70951767E-02 0.21539148E+03</pdfrwt>
<totfact> 0.15319003E+04</totfact>
</mgrwt>
</event>
<event>
 5    0  0.2213064E+000  0.2496869E+03  0.7546771E-02  0.1113503E+00
         21   -1    0    0  502  501  0.00000000000E+00  0.00000000000E+00  0.30814016806E+03  0.30814016806E+03  0.00000000000E+00 0. -1.
         21   -1    0    0  503  502 -0.00000000000E+00 -0.00000000000E+00 -0.53023210029E+03  0.53023210029E+03  0.00000000000E+00 0.  1.
         25    1    1    2    0    0  0.50103209876E+01  0.21608667431E+03  0.22531193676E+03  0.33631684908E+03  0.12500000000E+03 0.  0.
         21    1    1    2  503  504  0.19579534929E+02 -0.64251151392E+02 -0.19750043432E+03  0.20860965989E+03  0.00000000000E+00 0.  1.
         21    1    1    2  504  501 -0.24589855916E+02 -0.15183552291E+03 -0.24990343468E+03  0.29344575938E+03  0.00000000000E+00 0.  1.
<mgrwt>
<rscale>  4 0.24968691E+03</rscale>
<asrwt>0</asrwt>
<pdfrwt beam="1">  1       21 0.47406180E-01 0.24968691E+03</pdfrwt>
<pdfrwt beam="2">  1       21 0.81574168E-01 0.24968691E+03</pdfrwt>
<totfact> 0.53828081E+03</totfact>
</mgrwt>
</event>
<event>
 5    0  0.2213064E+000  0.3373312E+03  0.7546771E-02  0.1067938E+00
         21   -1    0    0  502  501  0.00000000000E+00  0.00000000000E+00  0.75772569105E+03  0.75772569105E+03  0.00000000000E+00 0. -1.
         21   -1    0    0  503  502 -0.00000000000E+00 -0.00000000000E+00 -0.48994449636E+03  0.48994449636E+03  0.00000000000E+00 0.  1.
         25    1    1    2    0    0 -0.14814205801E+03 -0.26998171381E+03  0.60106831626E+03  0.68683645502E+03  0.12500000000E+03 0.  0.
         21    1    1    2  503  504 -0.83906341484E+02 -0.12364257177E+02 -0.50230201043E+02  0.98570898817E+02  0.00000000000E+00 0.  1.
         21    1    1    2  504  501  0.23204839950E+03  0.28234597098E+03 -0.28305692052E+03  0.46226283357E+03  0.00000000000E+00 0.  1.
<mgrwt>
<rscale>  4 0.33733122E+03</rscale>
<asrwt>0</asrwt>
<pdfrwt beam="1">  1       21 0.11657318E+00 0.33733122E+03</pdfrwt>
<pdfrwt beam="2">  1       21 0.75376077E-01 0.33733122E+03</pdfrwt>
<totfact> 0.79622947E+02</totfact>
</mgrwt>
</event>
<event>
 5    0  0.2213064E+000  0.2685592E+03  0.7546771E-02  0.1102107E+00
         21   -1    0    0  502  501  0.00000000000E+00  0.00000000000E+00  0.42974549460E+03  0.42974549460E+03  0.00000000000E+00 0.  1.
         21   -1    0    0  503  502 -0.00000000000E+00 -0.00000000000E+00 -0.17835595778E+03  0.17835595778E+03  0.00000000000E+00 0. -1.
         25    1    1    2    0    0 -0.18888590740E+03 -0.14429535637E+03  0.24402732769E+03  0.36286825783E+03  0.12500000000E+03 0.  0.
         21    1    1    2  503  504  0.91890984129E+02  0.10377596243E+03  0.17107935395E+02  0.13966418580E+03  0.00000000000E+00 0. -1.
         21    1    1    2  504  501  0.96994923275E+02  0.40519393937E+02 -0.97457262716E+01  0.10556900874E+03  0.00000000000E+00 0. -1.
<mgrwt>
<rscale>  4 0.26855919E+03</rscale>
<asrwt>0</asrwt>
<pdfrwt beam="1">  1       21 0.66114691E-01 0.26855919E+03</pdfrwt>
<pdfrwt beam="2">  1       21 0.27439378E-01 0.26855919E+03</pdfrwt>
<totfact> 0.25613951E+04</totfact>
</mgrwt>
</event>
<event>
 5    0  0.2213064E+000  0.2502612E+03  0.7546771E-02  0.1113140E+00
         21   -1    0    0  502  501  0.00000000000E+00  0.00000000000E+00  0.20554228808E+03  0.20554228808E+03  0.00000000000E+00 0. -1.
         21   -1    0    0  503  502 -0.00000000000E+00 -0.00000000000E+00 -0.46893218547E+03  0.46893218547E+03  0.00000000000E+00 0.  1.
         25    1    1    2    0    0 -0.61147679909E+02 -0.20800629407E+03  0.81075077203E+02  0.26306619941E+03  0.12500000000E+03 0.  0.
         21    1    1    2  503  504  0.71799673367E+02  0.15634976387E+03 -0.26998360624E+03  0.32014307644E+03  0.00000000000E+00 0.  1.
         21    1    1    2  504  501 -0.10651993458E+02  0.51656530198E+02 -0.74481368360E+02  0.91265197691E+02  0.00000000000E+00 0.  1.
<mgrwt>
<rscale>  4 0.25026118E+03</rscale>
<asrwt>0</asrwt>
<pdfrwt beam="1">  1       21 0.31621891E-01 0.25026118E+03</pdfrwt>
<pdfrwt beam="2">  1       21 0.72143412E-01 0.25026118E+03</pdfrwt>
<totfact> 0.16123894E+04</totfact>
</mgrwt>
</event>
<event>
 5    0  0.2213064E+000  0.2595763E+03  0.7546771E-02  0.1107398E+00
         21   -1    0    0  502  501  0.00000000000E+00  0.00000000000E+00  0.16866673659E+03  0.16866673659E+03  0.00000000000E+00 0.  1.
         21   -1    0    0  503  502 -0.00000000000E+00 -0.00000000000E+00 -0.43252328195E+03  0.43252328195E+03  0.00000000000E+00 0.  1.
         25    1    1    2    0    0 -0.21988361668E+03 -0.58361318281E+02 -0.14729809298E+02  0.25999387616E+03  0.12500000000E+03 0.  0.
         21    1    1    2  503  504  0.40477957445E+02  0.24696354474E+02 -0.76230553890E+02  0.89774563823E+02  0.00000000000E+00 0.  1.
         21    1    1    2  504  501  0.17940565924E+03  0.33664963807E+02 -0.17289618217E+03  0.25142157856E+03  0.00000000000E+00 0.  1.
<mgrwt>
<rscale>  4 0.25957629E+03</rscale>
<asrwt>0</asrwt>
<pdfrwt beam="1">  1       21 0.25948729E-01 0.25957629E+03</pdfrwt>
<pdfrwt beam="2">  1       21 0.66542043E-01 0.25957629E+03</pdfrwt>
<totfact> 0.28247779E+04</totfact>
</mgrwt>
</event>
<event>
 5    0  0.2213064E+000  0.2596284E+03  0.7546771E-02  0.1107367E+00
         21   -1    0    0  502  501  0.00000000000E+00  0.00000000000E+00  0.15500948429E+03  0.15500948429E+03  0.00000000000E+00 0. -1.
         21   -1    0    0  503  502 -0.00000000000E+00 -0.00000000000E+00 -0.45012625782E+03  0.45012625782E+03  0.00000000000E+00 0. -1.
         25    1    1    2    0    0 -0.19945342120E+03  0.11963564022E+03 -0.23845288972E+03  0.35577961472E+03  0.12500000000E+03 0.  0.
         21    1    1    2  503  504  0.20009627482E+02  0.81148847256E+01 -0.11634464779E+02  0.24527480848E+02  0.00000000000E+00 0. -1.
         21    1    1    2  504  501  0.17944379372E+03 -0.12775052495E+03 -0.45029419034E+02  0.22482864654E+03  0.00000000000E+00 0. -1.
<mgrwt>
<rscale>  4 0.25962839E+03</rscale>
<asrwt>0</asrwt>
<pdfrwt beam="1">  1       21 0.23847613E-01 0.25962839E+03</pdfrwt>
<pdfrwt beam="2">  1       21 0.69250193E-01 0.25962839E+03</pdfrwt>
<totfact> 0.30419872E+04</totfact>
</mgrwt>
</event>
<event>
 5    0  0.2213064E+000  0.2608071E+03  0.7546771E-02  0.1106659E+00
         21   -1    0    0  502  501  0.00000000000E+00  0.00000000000E+00  0.76876654650E+02  0.76876654650E+02  0.00000000000E+00 0. -1.
         21   -1    0    0  503  502 -0.00000000000E+00 -0.00000000000E+00 -0.81224124751E+03  0.81224124751E+03  0.00000000000E+00 0. -1.
         25    1    1    2    0    0  0.16244245232E+03 -0.16126924014E+03 -0.46447496785E+03  0.53268875893E+03  0.12500000000E+03 0.  0.
         21    1    1    2  503  504 -0.20622480839E+02  0.11401036135E+02 -0.42820663119E+02  0.48876165264E+02  0.00000000000E+00 0. -1.
         21    1    1    2  504  501 -0.14181997148E+03  0.14986820400E+03 -0.22806896189E+03  0.30755297797E+03  0.00000000000E+00 0. -1.
<mgrwt>
<rscale>  4 0.26080705E+03</rscale>
<asrwt>0</asrwt>
<pdfrwt beam="1">  1       21 0.11827178E-01 0.26080705E+03</pdfrwt>
<pdfrwt beam="2">  1       21 0.12496019E+00 0.26080705E+03</pdfrwt>
<totfact> 0.27717222E+04</totfact>
</mgrwt>
</event>
<event>
 5    0  0.2213064E+000  0.2457543E+03  0.7546771E-02  0.1116018E+00
         21   -1    0    0  502  501  0.00000000000E+00  0.00000000000E+00  0.20173906253E+03  0.20173906253E+03  0.00000000000E+00 0. -1.
         21   -1    0    0  503  502 -0.00000000000E+00 -0.00000000000E+00 -0.40247821739E+03  0.40247821739E+03  0.00000000000E+00 0. -1.
         25    1    1    2    0    0  0.23534786587E+02  0.21027664174E+03  0.69934683575E+02  0.25551127608E+03  0.12500000000E+03 0.  0.
         21    1    1    2  503  504 -0.37629991158E+02 -0.11645030622E+03 -0.17852082153E+03  0.21644023141E+03  0.00000000000E+00 0. -1.
         21    1    1    2  504  501  0.14095204571E+02 -0.93826335514E+02 -0.92153016904E+02  0.13226577241E+03  0.00000000000E+00 0. -1.
<mgrwt>
<rscale>  4 0.24575425E+03</rscale>
<asrwt>0</asrwt>
<pdfrwt beam="1">  1       21 0.31036779E-01 0.24575425E+03</pdfrwt>
<pdfrwt beam="2">  1       21 0.61919725E-01 0.24575425E+03</pdfrwt>
<totfact> 0.23470517E+04</totfact>
</mgrwt>
</event>
<event>
 5    0  0.2213064E+000  0.2409710E+03  0.7546771E-02  0.1119148E+00
         21   -1    0    0  502  501  0.00000000000E+00  0.00000000000E+00  0.70350821714E+02  0.70350821714E+02  0.00000000000E+00 0.  1.
         21   -1    0    0  503  502 -0.00000000000E+00 -0.00000000000E+00 -0.79603925387E+03  0.79603925387E+03  0.00000000000E+00 0.  1.
         25    1    1    2    0    0 -0.14738764672E+03  0.14394070099E+03 -0.28120494398E+03  0.37032858967E+03  0.12500000000E+03 0.  0.
         21    1    1    2  503  504  0.13038814778E+03 -0.86930979806E+02 -0.36103229453E+03  0.39357639922E+03  0.00000000000E+00 0.  1.
         21    1    1    2  504  501  0.16999498936E+02 -0.57009721184E+02 -0.83451193649E+02  0.10248508670E+03  0.00000000000E+00 0. -1.
<mgrwt>
<rscale>  4 0.24097104E+03</rscale>
<asrwt>0</asrwt>
<pdfrwt beam="1">  1       21 0.10823203E-01 0.24097104E+03</pdfrwt>
<pdfrwt beam="2">  1       21 0.12246758E+00 0.24097104E+03</pdfrwt>
<totfact> 0.34507358E+04</totfact>
</mgrwt>
</event>
<event>
 5    0  0.2213064E+000  0.4185440E+03  0.7546771E-02  0.1037541E+00
         21   -1    0    0  502  501  0.00000000000E+00  0.00000000000E+00  0.40265616560E+03  0.40265616560E+03  0.00000000000E+00 0. -1.
         21   -1    0    0  503  502 -0.00000000000E+00 -0.00000000000E+00 -0.43626981615E+03  0.43626981615E+03  0.00000000000E+00 0. -1.
         25    1    1    2    0    0 -0.26050226981E+02 -0.39859185787E+03  0.37830821182E+02  0.42025022846E+03  0.12500000000E+03 0.  0.
         21    1    1    2  503  504 -0.22603370234E+02  0.55302956748E+02  0.14468069266E+02  0.61470760523E+02  0.00000000000E+00 0. -1.
         21    1    1    2  504  501  0.48653597215E+02  0.34328890112E+03 -0.85912540995E+02  0.35720499277E+03  0.00000000000E+00 0. -1.
<mgrwt>
<rscale>  4 0.41854400E+03</rscale>
<asrwt>0</asrwt>
<pdfrwt beam="1">  1       21 0.61947103E-01 0.41854400E+03</pdfrwt>
<pdfrwt beam="2">  1       21 0.67118433E-01 0.41854400E+03</pdfrwt>
<totfact> 0.43608112E+03</totfact>
</mgrwt>
</event>
<event>
 5    0  0.2213064E+000  0.2833360E+03  0.7546771E-02  0.1093881E+00
         21   -1    0    0  502  501  0.00000000000E+00  0.00000000000E+00  0.30676083645E+03  0.30676083645E+03  0.00000000000E+00 0. -1.
         21   -1    0    0  503  502 -0.00000000000E+00 -0.00000000000E+00 -0.36827555225E+03  0.36827555225E+03  0.00000000000E+00 0.  1.
         25    1    1    2    0    0 -0.57347435254E+02  0.24772073326E+03  0.16711127555E+03  0.32894599622E+03  0.12500000000E+03 0.  0.
         21    1    1    2  503  504  0.26863755991E+02 -0.14890590051E+03 -0.10142498318E+03  0.18215832620E+03  0.00000000000E+00 0.  1.
         21    1    1    2  504  501  0.30483679263E+02 -0.98814832747E+02 -0.12720100817E+03  0.16393206627E+03  0.00000000000E+00 0.  1.
<mgrwt>
<rscale>  4 0.28333600E+03</rscale>
<asrwt>0</asrwt>
<pdfrwt beam="1">  1       21 0.47193975E-01 0.28333600E+03</pdfrwt>
<pdfrwt beam="2">  1       21 0.56657777E-01 0.28333600E+03</pdfrwt>
<totfact> 0.11956234E+04</totfact>
</mgrwt>
</event>
<event>
 5    0  0.2213064E+000  0.2658814E+03  0.7546771E-02  0.1103660E+00
         21   -1    0    0  502  501  0.00000000000E+00  0.00000000000E+00  0.50484116008E+03  0.50484116008E+03  0.00000000000E+00 0. -1.
         21   -1    0    0  503  502 -0.00000000000E+00 -0.00000000000E+00 -0.28819647175E+03  0.28819647175E+03  0.00000000000E+00 0. -1.
         25    1    1    2    0    0  0.23082442061E+03  0.51892800563E+02  0.39262778404E+03  0.47513614123E+03  0.12500000000E+03 0.  0.
         21    1    1    2  503  504 -0.22411892574E+03 -0.22405569380E+02 -0.17873433770E+03  0.28753654705E+03  0.00000000000E+00 0. -1.
         21    1    1    2  504  501 -0.67054948683E+01 -0.29487231183E+02  0.27512419905E+01  0.30364943549E+02  0.00000000000E+00 0. -1.
<mgrwt>
<rscale>  4 0.26588138E+03</rscale>
<asrwt>0</asrwt>
<pdfrwt beam="1">  1       21 0.77667871E-01 0.26588138E+03</pdfrwt>
<pdfrwt beam="2">  1       21 0.44337919E-01 0.26588138E+03</pdfrwt>
<totfact> 0.68499053E+03</totfact>
</mgrwt>
</event>
<event>
 5    0  0.2213064E+000  0.2389201E+03  0.7546771E-02  0.1120514E+00
         21   -1    0    0  502  501  0.00000000000E+00  0.00000000000E+00  0.39353148198E+03  0.39353148198E+03  0.00000000000E+00 0.  1.
         21   -1    0    0  503  502 -0.00000000000E+00 -0.00000000000E+00 -0.21839268669E+03  0.21839268669E+03  0.00000000000E+00 0. -1.
         25    1    1    2    0    0  0.14846298144E+02  0.20306999160E+03  0.28962282447E+03  0.37545201359E+03  0.12500000000E+03 0.  0.
         21    1    1    2  503  504 -0.24353449036E+02 -0.14837863199E+03 -0.93855304490E+02  0.17725159264E+03  0.00000000000E+00 0. -1.
         21    1    1    2  504  501  0.95071508916E+01 -0.54691359603E+02 -0.20628724696E+02  0.59220562441E+02  0.00000000000E+00 0.  1.
<mgrwt>
<rscale>  4 0.23892014E+03</rscale>
<asrwt>0</asrwt>
<pdfrwt beam="1">  1       21 0.60543305E-01 0.23892014E+03</pdfrwt>
<pdfrwt beam="2">  1       21 0.33598875E-01 0.23892014E+03</pdfrwt>
<totfact> 0.21136313E+04</totfact>
</mgrwt>
</event>
<event>
 5    0  0.2213064E+000  0.3468007E+03  0.7546771E-02  0.1063936E+00
         21   -1    0    0  502  501  0.00000000000E+00  0.00000000000E+00  0.10452910259E+04  0.10452910259E+04  0.00000000000E+00 0. -1.
         21   -1    0    0  503  502 -0.00000000000E+00 -0.00000000000E+00 -0.11975132698E+04  0.11975132698E+04  0.00000000000E+00 0. -1.
         25    1    1    2    0    0 -0.31772358220E+03  0.68986153586E+02  0.90890825903E+03  0.97336868010E+03  0.12500000000E+03 0.  0.
         21    1    1    2  503  504  0.33090414499E+03  0.21425722703E+03 -0.75785628429E+03  0.85425397871E+03  0.00000000000E+00 0. -1.
         21    1    1    2  504  501 -0.13180562790E+02 -0.28324338061E+03 -0.30327421870E+03  0.41518163691E+03  0.00000000000E+00 0. -1.
<mgrwt>
<rscale>  4 0.34680067E+03</rscale>
<asrwt>0</asrwt>
<pdfrwt beam="1">  1       21 0.16081401E+00 0.34680067E+03</pdfrwt>
<pdfrwt beam="2">  1       21 0.18423281E+00 0.34680067E+03</pdfrwt>
<totfact> 0.35343144E+01</totfact>
</mgrwt>
</event>
