<event>
 4    0  0.1525083E-001  0.2387620E+03  0.7546771E-02  0.1120620E+00
         21   -1    0    0  503  501  0.00000000000E+00  0.00000000000E+00  0.27669267078E+03  0.27669267078E+03  0.00000000000E+00 0. -1.
         21   -1    0    0  501  502 -0.00000000000E+00 -0.00000000000E+00 -0.17671986625E+03  0.17671986625E+03  0.00000000000E+00 0. -1.
         25    1    1    2    0    0 -0.69830445438E+00  0.20342516168E+03  0.50093657724E+02  0.24396036272E+03  0.12500000000E+03 0.  0.
         21    1    1    2  503  502  0.69830445438E+00 -0.20342516168E+03  0.49879146805E+02  0.20945217431E+03  0.00000000000E+00 0. -1.
<mgrwt>
<rscale>  3 0.23876198E+03</rscale>
<asrwt>0</asrwt>
<pdfrwt beam="1">  1       21 0.42568103E-01 0.23876198E+03</pdfrwt>
<pdfrwt beam="2">  1       21 0.27187672E-01 0.23876198E+03</pdfrwt>
<totfact> 0.67147070E+04</totfact>
</mgrwt>
</event>
<event>
 4    0  0.1525083E-001  0.2531779E+03  0.7546771E-02  0.1111313E+00
         21   -1    0    0  503  501  0.00000000000E+00  0.00000000000E+00  0.49347568016E+03  0.49347568016E+03  0.00000000000E+00 0. -1.
         21   -1    0    0  501  502 -0.00000000000E+00 -0.00000000000E+00 -0.24069309868E+03  0.24069309868E+03  0.00000000000E+00 0. -1.
         25    1    1    2    0    0  0.19648772283E+03 -0.99330962660E+02  0.39708107266E+03  0.47092721692E+03  0.12500000000E+03 0.  0.
         21    1    1    2  503  502 -0.19648772283E+03  0.99330962660E+02 -0.14429849118E+03  0.26324156192E+03  0.00000000000E+00 0. -1.
<mgrwt>
<rscale>  3 0.25317793E+03</rscale>
<asrwt>0</asrwt>
<pdfrwt beam="1">  1       21 0.75919335E-01 0.25317793E+03</pdfrwt>
<pdfrwt beam="2">  1       21 0.37029708E-01 0.25317793E+03</pdfrwt>
<totfact> 0.10483703E+04</totfact>
</mgrwt>
</event>
<event>
 4    0  0.1525083E-001  0.2665636E+03  0.7546771E-02  0.1103263E+00
         21   -1    0    0  503  501  0.00000000000E+00  0.00000000000E+00  0.12806378482E+03  0.12806378482E+03  0.00000000000E+00 0. -1.
         21   -1    0    0  501  502 -0.00000000000E+00 -0.00000000000E+00 -0.68416685126E+03  0.68416685126E+03  0.00000000000E+00 0.  1.
         25    1    1    2    0    0  0.15667624298E+03  0.17573757068E+03 -0.75487345610E+02  0.27704598573E+03  0.12500000000E+03 0.  0.
         21    1    1    2  503  502 -0.15667624298E+03 -0.17573757068E+03 -0.48061572083E+03  0.53518465035E+03  0.00000000000E+00 0.  1.
<mgrwt>
<rscale>  3 0.26656357E+03</rscale>
<asrwt>0</asrwt>
<pdfrwt beam="1">  1       21 0.19702121E-01 0.26656357E+03</pdfrwt>
<pdfrwt beam="2">  1       21 0.10525644E+00 0.26656357E+03</pdfrwt>
<totfact> 0.16534099E+04</totfact>
</mgrwt>
</event>
<event>
 4    0  0.1525083E-001  0.2372242E+03  0.7546771E-02  0.1121656E+00
         21   -1    0    0  502  501  0.00000000000E+00  0.00000000000E+00  0.35083284179E+03  0.35083284179E+03  0.00000000000E+00 0. -1.
         21   -1    0    0  503  502 -0.00000000000E+00 -0.00000000000E+00 -0.15285553015E+03  0.15285553015E+03  0.00000000000E+00 0. -1.
         25    1    1    2    0    0  0.86443069973E+02 -0.18214806668E+03  0.25924581617E+02  0.23863655729E+03  0.12500000000E+03 0.  0.
         21    1    1    2  503  501 -0.86443069973E+02  0.18214806668E+03  0.17205273002E+03  0.26505181465E+03  0.00000000000E+00 0. -1.
<mgrwt>
<rscale>  3 0.23722420E+03</rscale>
<asrwt>0</asrwt>
<pdfrwt beam="1">  1       21 0.53974283E-01 0.23722420E+03</pdfrwt>
<pdfrwt beam="2">  1       21 0.23516236E-01 0.23722420E+03</pdfrwt>
<totfact> 0.54138088E+04</totfact>
</mgrwt>
</event>
<event>
 4    0  0.1525083E-001  0.3680073E+03  0.7546771E-02  0.1055458E+00
         21   -1    0    0  502  501  0.00000000000E+00  0.00000000000E+00  0.15900527390E+04  0.15900527390E+04  0.00000000000E+00 0.  1.
         21   -1    0    0  503  502 -0.00000000000E+00 -0.00000000000E+00 -0.28144359626E+03  0.28144359626E+03  0.00000000000E+00 0. -1.
         25    1    1    2    0    0  0.34551811490E+03  0.20533058987E+02  0.14512103677E+04  0.14971442501E+04  0.12500000000E+03 0.  0.
         21    1    1    2  503  501 -0.34551811490E+03 -0.20533058987E+02 -0.14260122504E+03  0.37435208510E+03  0.00000000000E+00 0. -1.
<mgrwt>
<rscale>  3 0.36800730E+03</rscale>
<asrwt>0</asrwt>
<pdfrwt beam="1">  1       21 0.24462349E+00 0.36800730E+03</pdfrwt>
<pdfrwt beam="2">  1       21 0.43299016E-01 0.36800730E+03</pdfrwt>
<totfact> 0.31005780E+02</totfact>
</mgrwt>
</event>
<event>
 4    0  0.1525083E-001  0.2835488E+03  0.7546771E-02  0.1093766E+00
         21   -1    0    0  503  501  0.00000000000E+00  0.00000000000E+00  0.29318077041E+03  0.29318077041E+03  0.00000000000E+00 0.  1.
         21   -1    0    0  501  502 -0.00000000000E+00 -0.00000000000E+00 -0.40629929622E+03  0.40629929622E+03  0.00000000000E+00 0.  1.
         25    1    1    2    0    0  0.25166449339E+03  0.37946112662E+02  0.16047607426E+03  0.32581052026E+03  0.12500000000E+03 0.  0.
         21    1    1    2  503  502 -0.25166449339E+03 -0.37946112662E+02 -0.27359460007E+03  0.37366954637E+03  0.00000000000E+00 0.  1.
<mgrwt>
<rscale>  3 0.28354880E+03</rscale>
<asrwt>0</asrwt>
<pdfrwt beam="1">  1       21 0.45104734E-01 0.28354880E+03</pdfrwt>
<pdfrwt beam="2">  1       21 0.62507584E-01 0.28354880E+03</pdfrwt>
<totfact> 0.10618556E+04</totfact>
</mgrwt>
</event>
<event>
 4    0  0.1525083E-001  0.2361921E+03  0.7546771E-02  0.1122356E+00
         21   -1    0    0  502  501  0.00000000000E+00  0.00000000000E+00  0.16426876056E+03  0.16426876056E+03  0.00000000000E+00 0.  1.
         21   -1    0    0  503  502 -0.00000000000E+00 -0.00000000000E+00 -0.11446491168E+04  0.11446491168E+04  0.00000000000E+00 0.  1.
         25    1    1    2    0    0  0.19722213537E+03  0.35568538066E+02  0.64622106805E+02  0.24487284102E+03  0.12500000000E+03 0.  0.
         21    1    1    2  503  501 -0.19722213537E+03 -0.35568538066E+02 -0.10450024630E+04  0.10640450363E+04  0.00000000000E+00 0.  1.
<mgrwt>
<rscale>  3 0.23619207E+03</rscale>
<asrwt>0</asrwt>
<pdfrwt beam="1">  1       21 0.25272116E-01 0.23619207E+03</pdfrwt>
<pdfrwt beam="2">  1       21 0.17609987E+00 0.23619207E+03</pdfrwt>
<totfact> 0.27625919E+03</totfact>
</mgrwt>
</event>
<event>
 4    0  0.1525083E-001  0.2648408E+03  0.7546771E-02  0.1104269E+00
         21   -1    0    0  503  501  0.00000000000E+00  0.00000000000E+00  0.34110846210E+03  0.34110846210E+03  0.00000000000E+00 0.  1.
         21   -1    0    0  501  502 -0.00000000000E+00 -0.00000000000E+00 -0.58540902772E+03  0.58540902772E+03  0.00000000000E+00 0.  1.
         25    1    1    2    0    0  0.20066145135E+03  0.11937599007E+03  0.25978494997E+03  0.37098364559E+03  0.12500000000E+03 0.  0.
         21    1    1    2  503  502 -0.20066145135E+03 -0.11937599007E+03 -0.50408551559E+03  0.55553384423E+03  0.00000000000E+00 0.  1.
<mgrwt>
<rscale>  3 0.26484079E+03</rscale>
<asrwt>0</asrwt>
<pdfrwt beam="1">  1       21 0.52478226E-01 0.26484079E+03</pdfrwt>
<pdfrwt beam="2">  1       21 0.90062926E-01 0.26484079E+03</pdfrwt>
<totfact> 0.34273335E+03</totfact>
</mgrwt>
</event>
<event>
 4    0  0.1525083E-001  0.2478598E+03  0.7546771E-02  0.1114665E+00
         21   -1    0    0  502  501  0.00000000000E+00  0.00000000000E+00  0.42850162803E+03  0.42850162803E+03  0.00000000000E+00 0. -1.
         21   -1    0    0  503  502 -0.00000000000E+00 -0.00000000000E+00 -0.21105729897E+03  0.21105729897E+03  0.00000000000E+00 0. -1.
         25    1    1    2    0    0  0.37061614565E+02  0.21079825958E+03  0.31791554682E+03  0.40311879691E+03  0.12500000000E+03 0.  0.
         21    1    1    2  503  501 -0.37061614565E+02 -0.21079825958E+03 -0.10047121776E+03  0.23644013008E+03  0.00000000000E+00 0. -1.
<mgrwt>
<rscale>  3 0.24785978E+03</rscale>
<asrwt>0</asrwt>
<pdfrwt beam="1">  1       21 0.65923327E-01 0.24785978E+03</pdfrwt>
<pdfrwt beam="2">  1       21 0.32470354E-01 0.24785978E+03</pdfrwt>
<totfact> 0.18704883E+04</totfact>
</mgrwt>
</event>
<event>
 4    0  0.1525083E-001  0.2465131E+03  0.7546771E-02  0.1115528E+00
         21   -1    0    0  503  501  0.00000000000E+00  0.00000000000E+00  0.32951376491E+03  0.32951376491E+03  0.00000000000E+00 0.  1.
         21   -1    0    0  501  502 -0.00000000000E+00 -0.00000000000E+00 -0.18653424786E+03  0.18653424786E+03  0.00000000000E+00 0.  1.
         25    1    1    2    0    0 -0.18715231489E+03  0.10058692504E+03  0.17342823092E+03  0.30140681767E+03  0.12500000000E+03 0.  0.
         21    1    1    2  503  502  0.18715231489E+03 -0.10058692504E+03 -0.30448713869E+02  0.21464119510E+03  0.00000000000E+00 0.  1.
<mgrwt>
<rscale>  3 0.24651312E+03</rscale>
<asrwt>0</asrwt>
<pdfrwt beam="1">  1       21 0.50694425E-01 0.24651312E+03</pdfrwt>
<pdfrwt beam="2">  1       21 0.28697577E-01 0.24651312E+03</pdfrwt>
<totfact> 0.41938252E+04</totfact>
</mgrwt>
</event>
<event>
 4    0  0.1525083E-001  0.2549812E+03  0.7546771E-02  0.1110197E+00
         21   -1    0    0  502  501  0.00000000000E+00  0.00000000000E+00  0.74466202555E+03  0.74466202555E+03  0.00000000000E+00 0. -1.
         21   -1    0    0  503  502 -0.00000000000E+00 -0.00000000000E+00 -0.88976680182E+02  0.88976680182E+02  0.00000000000E+00 0.  1.
         25    1    1    2    0    0  0.97398350616E+02 -0.19975985100E+03  0.50320476257E+03  0.56411919826E+03  0.12500000000E+03 0.  0.
         21    1    1    2  503  501 -0.97398350616E+02  0.19975985100E+03  0.15248058280E+03  0.26951950747E+03  0.00000000000E+00 0.  1.
<mgrwt>
<rscale>  3 0.25498125E+03</rscale>
<asrwt>0</asrwt>
<pdfrwt beam="1">  1       21 0.11456338E+00 0.25498125E+03</pdfrwt>
<pdfrwt beam="2">  1       21 0.13688721E-01 0.25498125E+03</pdfrwt>
<totfact> 0.26496937E+04</totfact>
</mgrwt>
</event>
<event>
 4    0  0.1525083E-001  0.2942646E+03  0.7546771E-02  0.1088143E+00
         21   -1    0    0  503  501  0.00000000000E+00  0.00000000000E+00  0.49158826340E+03  0.49158826340E+03  0.00000000000E+00 0.  1.
         21   -1    0    0  501  502 -0.00000000000E+00 -0.00000000000E+00 -0.46063167253E+03  0.46063167253E+03  0.00000000000E+00 0.  1.
         25    1    1    2    0    0 -0.11834569386E+03  0.23866493114E+03  0.40030434682E+03  0.49682514298E+03  0.12500000000E+03 0.  0.
         21    1    1    2  503  502  0.11834569386E+03 -0.23866493114E+03 -0.36934775596E+03  0.45539479295E+03  0.00000000000E+00 0.  1.
<mgrwt>
<rscale>  3 0.29426460E+03</rscale>
<asrwt>0</asrwt>
<pdfrwt beam="1">  1       21 0.75628964E-01 0.29426460E+03</pdfrwt>
<pdfrwt beam="2">  1       21 0.70866411E-01 0.29426460E+03</pdfrwt>
<totfact> 0.26185134E+03</totfact>
</mgrwt>
</event>
<event>
 4    0  0.1525083E-001  0.2911432E+03  0.7546771E-02  0.1089754E+00
         21   -1    0    0  503  501  0.00000000000E+00  0.00000000000E+00  0.15650973151E+03  0.15650973151E+03  0.00000000000E+00 0. -1.
         21   -1    0    0  501  502 -0.00000000000E+00 -0.00000000000E+00 -0.11099541081E+04  0.11099541081E+04  0.00000000000E+00 0. -1.
         25    1    1    2    0    0 -0.10079406510E+03 -0.24285781739E+03 -0.14617570121E+02  0.29150992502E+03  0.12500000000E+03 0.  0.
         21    1    1    2  503  502  0.10079406510E+03  0.24285781739E+03 -0.93882680649E+03  0.97495391461E+03  0.00000000000E+00 0. -1.
<mgrwt>
<rscale>  3 0.29114320E+03</rscale>
<asrwt>0</asrwt>
<pdfrwt beam="1">  1       21 0.24078421E-01 0.29114320E+03</pdfrwt>
<pdfrwt beam="2">  1       21 0.17076216E+00 0.29114320E+03</pdfrwt>
<totfact> 0.31809143E+03</totfact>
</mgrwt>
</event>
<event>
 4    0  0.1525083E-001  0.3952212E+03  0.7546771E-02  0.1045447E+00
         21   -1    0    0  503  501  0.00000000000E+00  0.00000000000E+00  0.31304406481E+03  0.31304406481E+03  0.00000000000E+00 0. -1.
         21   -1    0    0  501  502 -0.00000000000E+00 -0.00000000000E+00 -0.60985038087E+03  0.60985038087E+03  0.00000000000E+00 0.  1.
         25    1    1    2    0    0  0.14804611564E+03 -0.34446646170E+03  0.66545065628E+02  0.40078428282E+03  0.12500000000E+03 0.  0.
         21    1    1    2  503  502 -0.14804611564E+03  0.34446646170E+03 -0.36335138168E+03  0.52211016286E+03  0.00000000000E+00 0.  1.
<mgrwt>
<rscale>  3 0.39522120E+03</rscale>
<asrwt>0</asrwt>
<pdfrwt beam="1">  1       21 0.48160626E-01 0.39522120E+03</pdfrwt>
<pdfrwt beam="2">  1       21 0.93823134E-01 0.39522120E+03</pdfrwt>
<totfact> 0.34977970E+03</totfact>
</mgrwt>
</event>
<event>
 4    0  0.1525083E-001  0.2496244E+03  0.7546771E-02  0.1113542E+00
         21   -1    0    0  503  501  0.00000000000E+00  0.00000000000E+00  0.13658567692E+04  0.13658567692E+04  0.00000000000E+00 0. -1.
         21   -1    0    0  501  502 -0.00000000000E+00 -0.00000000000E+00 -0.13636923394E+03  0.13636923394E+03  0.00000000000E+00 0. -1.
         25    1    1    2    0    0 -0.12097046510E+03  0.17903486740E+03  0.12595718691E+04  0.12840691689E+04  0.12500000000E+03 0.  0.
         21    1    1    2  503  502  0.12097046510E+03 -0.17903486740E+03 -0.30084333832E+02  0.21815683421E+03  0.00000000000E+00 0. -1.
<mgrwt>
<rscale>  3 0.24962439E+03</rscale>
<asrwt>0</asrwt>
<pdfrwt beam="1">  1       21 0.21013180E+00 0.24962439E+03</pdfrwt>
<pdfrwt beam="2">  1       21 0.20979883E-01 0.24962439E+03</pdfrwt>
<totfact> 0.23186664E+03</totfact>
</mgrwt>
</event>
<event>
 4    0  0.1525083E-001  0.2862617E+03  0.7546771E-02  0.1092317E+00
         21   -1    0    0  502  501  0.00000000000E+00  0.00000000000E+00  0.48653512062E+03  0.48653512062E+03  0.00000000000E+00 0.  1.
         21   -1    0    0  503  502 -0.00000000000E+00 -0.00000000000E+00 -0.15873297530E+03  0.15873297530E+03  0.00000000000E+00 0.  1.
         25    1    1    2    0    0  0.72471758104E+02 -0.24712065287E+03  0.10556475594E+03  0.30510603155E+03  0.12500000000E+03 0.  0.
         21    1    1    2  503  501 -0.72471758104E+02  0.24712065287E+03  0.22223738938E+03  0.34016206436E+03  0.00000000000E+00 0.  1.
<mgrwt>
<rscale>  3 0.28626172E+03</rscale>
<asrwt>0</asrwt>
<pdfrwt beam="1">  1       21 0.74851557E-01 0.28626172E+03</pdfrwt>
<pdfrwt beam="2">  1       21 0.24420458E-01 0.28626172E+03</pdfrwt>
<totfact> 0.24155044E+04</totfact>
</mgrwt>
</event>
<event>
 4    0  0.1525083E-001  0.2570558E+03  0.7546771E-02  0.1108925E+00
         21   -1    0    0  503  501  0.00000000000E+00  0.00000000000E+00  0.81143320202E+02  0.81143320202E+02  0.00000000000E+00 0.  1.
         21   -1    0    0  501  502 -0.00000000000E+00 -0.00000000000E+00 -0.71729008593E+03  0.71729008593E+03  0.00000000000E+00 0.  1.
         25    1    1    2    0    0 -0.21797802906E+03 -0.54205933447E+02 -0.31600357941E+03  0.40735238624E+03  0.12500000000E+03 0.  0.
         21    1    1    2  503  502  0.21797802906E+03  0.54205933447E+02 -0.32014318632E+03  0.39108101990E+03  0.00000000000E+00 0.  1.
<mgrwt>
<rscale>  3 0.25705584E+03</rscale>
<asrwt>0</asrwt>
<pdfrwt beam="1">  1       21 0.12483587E-01 0.25705584E+03</pdfrwt>
<pdfrwt beam="2">  1       21 0.11035232E+00 0.25705584E+03</pdfrwt>
<totfact> 0.34292107E+04</totfact>
</mgrwt>
</event>
<event>
 4    0  0.1525083E-001  0.2645987E+03  0.7546771E-02  0.1104411E+00
         21   -1    0    0  502  501  0.00000000000E+00  0.00000000000E+00  0.27864617385E+02  0.27864617385E+02  0.00000000000E+00 0.  1.
         21   -1    0    0  503  502 -0.00000000000E+00 -0.00000000000E+00 -0.22566528054E+04  0.22566528054E+04  0.00000000000E+00 0.  1.
         25    1    1    2    0    0  0.60224491002E+01  0.23313348350E+03 -0.10451985774E+04  0.10781709314E+04  0.12500000000E+03 0.  0.
         21    1    1    2  503  501 -0.60224491002E+01 -0.23313348350E+03 -0.11835896106E+04  0.12063464914E+04  0.00000000000E+00 0.  1.
<mgrwt>
<rscale>  3 0.26459874E+03</rscale>
<asrwt>0</asrwt>
<pdfrwt beam="1">  1       21 0.42868633E-02 0.26459874E+03</pdfrwt>
<pdfrwt beam="2">  1       21 0.34717743E+00 0.26459874E+03</pdfrwt>
<totfact> 0.58722211E+03</totfact>
</mgrwt>
</event>
<event>
 4    0  0.1525083E-001  0.2709297E+03  0.7546771E-02  0.1100749E+00
         21   -1    0    0  503  501  0.00000000000E+00  0.00000000000E+00  0.70231012026E+03  0.70231012026E+03  0.00000000000E+00 0.  1.
         21   -1    0    0  501  502 -0.00000000000E+00 -0.00000000000E+00 -0.93518445673E+02  0.93518445673E+02  0.00000000000E+00 0.  1.
         25    1    1    2    0    0  0.15372030611E+03  0.18479162750E+03  0.35031346795E+03  0.44285709200E+03  0.12500000000E+03 0.  0.
         21    1    1    2  503  502 -0.15372030611E+03 -0.18479162750E+03  0.25847820663E+03  0.35297147393E+03  0.00000000000E+00 0.  1.
<mgrwt>
<rscale>  3 0.27092966E+03</rscale>
<asrwt>0</asrwt>
<pdfrwt beam="1">  1       21 0.10804771E+00 0.27092966E+03</pdfrwt>
<pdfrwt beam="2">  1       21 0.14387454E-01 0.27092966E+03</pdfrwt>
<totfact> 0.27724040E+04</totfact>
</mgrwt>
</event>
<event>
 4    0  0.1525083E-001  0.2948622E+03  0.7546771E-02  0.1087838E+00
         21   -1    0    0  503  501  0.00000000000E+00  0.00000000000E+00  0.65889245504E+03  0.65889245504E+03  0.00000000000E+00 0. -1.
         21   -1    0    0  501  502 -0.00000000000E+00 -0.00000000000E+00 -0.25399444565E+03  0.25399444565E+03  0.00000000000E+00 0. -1.
         25    1    1    2    0    0 -0.23530478298E+03 -0.12629481086E+03  0.53875168594E+03  0.61416373977E+03  0.12500000000E+03 0.  0.
         21    1    1    2  503  502  0.23530478298E+03  0.12629481086E+03 -0.13385367655E+03  0.29872316092E+03  0.00000000000E+00 0. -1.
<mgrwt>
<rscale>  3 0.29486221E+03</rscale>
<asrwt>0</asrwt>
<pdfrwt beam="1">  1       21 0.10136807E+00 0.29486221E+03</pdfrwt>
<pdfrwt beam="2">  1       21 0.39076069E-01 0.29486221E+03</pdfrwt>
<totfact> 0.46928648E+03</totfact>
</mgrwt>
</event>
<event>
 4    0  0.1525083E-001  0.3021462E+03  0.7546771E-02  0.1084173E+00
         21   -1    0    0  502  501  0.00000000000E+00  0.00000000000E+00  0.18291372767E+03  0.18291372767E+03  0.00000000000E+00 0. -1.
         21   -1    0    0  503  502 -0.00000000000E+00 -0.00000000000E+00 -0.56618014512E+03  0.56618014512E+03  0.00000000000E+00 0. -1.
         25    1    1    2    0    0  0.20037157743E+03 -0.18846375030E+03 -0.33322721214E+02  0.30397821956E+03  0.12500000000E+03 0.  0.
         21    1    1    2  503  501 -0.20037157743E+03  0.18846375030E+03 -0.34994369624E+03  0.44511565323E+03  0.00000000000E+00 0. -1.
<mgrwt>
<rscale>  3 0.30214625E+03</rscale>
<asrwt>0</asrwt>
<pdfrwt beam="1">  1       21 0.28140574E-01 0.30214625E+03</pdfrwt>
<pdfrwt beam="2">  1       21 0.87104637E-01 0.30214625E+03</pdfrwt>
<totfact> 0.12880891E+04</totfact>
</mgrwt>
</event>
<event>
 4    0  0.1525083E-001  0.2553588E+03  0.7546771E-02  0.1109964E+00
         21   -1    0    0  503  501  0.00000000000E+00  0.00000000000E+00  0.41773009803E+03  0.41773009803E+03  0.00000000000E+00 0.  1.
         21   -1    0    0  501  502 -0.00000000000E+00 -0.00000000000E+00 -0.21859087310E+03  0.21859087310E+03  0.00000000000E+00 0.  1.
         25    1    1    2    0    0 -0.86005037384E+02  0.20539292056E+03  0.29821032434E+03  0.39260350968E+03  0.12500000000E+03 0.  0.
         21    1    1    2  503  502  0.86005037384E+02 -0.20539292056E+03 -0.99071099417E+02  0.24371746144E+03  0.00000000000E+00 0.  1.
<mgrwt>
<rscale>  3 0.25535880E+03</rscale>
<asrwt>0</asrwt>
<pdfrwt beam="1">  1       21 0.64266169E-01 0.25535880E+03</pdfrwt>
<pdfrwt beam="2">  1       21 0.33629365E-01 0.25535880E+03</pdfrwt>
<totfact> 0.18381942E+04</totfact>
</mgrwt>
</event>
<event>
 4    0  0.1525083E-001  0.2703750E+03  0.7546771E-02  0.1101065E+00
         21   -1    0    0  503  501  0.00000000000E+00  0.00000000000E+00  0.19409306536E+04  0.19409306536E+04  0.00000000000E+00 0. -1.
         21   -1    0    0  501  502 -0.00000000000E+00 -0.00000000000E+00 -0.31294047353E+03  0.31294047353E+03  0.00000000000E+00 0. -1.
         25    1    1    2    0    0  0.60754414880E+02 -0.23191929556E+03  0.18839004994E+04  0.19032035493E+04  0.12500000000E+03 0.  0.
         21    1    1    2  503  502 -0.60754414880E+02  0.23191929556E+03 -0.25591031933E+03  0.35066757780E+03  0.00000000000E+00 0. -1.
<mgrwt>
<rscale>  3 0.27037503E+03</rscale>
<asrwt>0</asrwt>
<pdfrwt beam="1">  1       21 0.29860471E+00 0.27037503E+03</pdfrwt>
<pdfrwt beam="2">  1       21 0.48144689E-01 0.27037503E+03</pdfrwt>
<totfact> 0.12910726E+02</totfact>
</mgrwt>
</event>
<event>
 4    0  0.1525083E-001  0.2710889E+03  0.7546771E-02  0.1100658E+00
         21   -1    0    0  502  501  0.00000000000E+00  0.00000000000E+00  0.75746043771E+03  0.75746043771E+03  0.00000000000E+00 0. -1.
         21   -1    0    0  503  502 -0.00000000000E+00 -0.00000000000E+00 -0.10210746871E+03  0.10210746871E+03  0.00000000000E+00 0.  1.
         25    1    1    2    0    0  0.17998155440E+03  0.15959584112E+03  0.51254701037E+03  0.57982206777E+03  0.12500000000E+03 0.  0.
         21    1    1    2  503  501 -0.17998155440E+03 -0.15959584112E+03  0.14280595863E+03  0.27974583866E+03  0.00000000000E+00 0.  1.
<mgrwt>
<rscale>  3 0.27108890E+03</rscale>
<asrwt>0</asrwt>
<pdfrwt beam="1">  1       21 0.11653237E+00 0.27108890E+03</pdfrwt>
<pdfrwt beam="2">  1       21 0.15708842E-01 0.27108890E+03</pdfrwt>
<totfact> 0.19598115E+04</totfact>
</mgrwt>
</event>
<event>
 4    0  0.1525083E-001  0.3096163E+03  0.7546771E-02  0.1080530E+00
         21   -1    0    0  502  501  0.00000000000E+00  0.00000000000E+00  0.38228748445E+03  0.38228748445E+03  0.00000000000E+00 0. -1.
         21   -1    0    0  503  502 -0.00000000000E+00 -0.00000000000E+00 -0.25337499896E+03  0.25337499896E+03  0.00000000000E+00 0. -1.
         25    1    1    2    0    0 -0.12892556183E+03  0.25222101114E+03  0.16377491143E+03  0.35026341597E+03  0.12500000000E+03 0.  0.
         21    1    1    2  503  501  0.12892556183E+03 -0.25222101114E+03 -0.34862425947E+02  0.28539906744E+03  0.00000000000E+00 0. -1.
<mgrwt>
<rscale>  3 0.30961628E+03</rscale>
<asrwt>0</asrwt>
<pdfrwt beam="1">  1       21 0.58813459E-01 0.30961628E+03</pdfrwt>
<pdfrwt beam="2">  1       21 0.38980769E-01 0.30961628E+03</pdfrwt>
<totfact> 0.16176791E+04</totfact>
</mgrwt>
</event>
<event>
 4    0  0.1525083E-001  0.2462408E+03  0.7546771E-02  0.1115704E+00
         21   -1    0    0  503  501  0.00000000000E+00  0.00000000000E+00  0.38994349587E+02  0.38994349587E+02  0.00000000000E+00 0. -1.
         21   -1    0    0  501  502 -0.00000000000E+00 -0.00000000000E+00 -0.14823081989E+04  0.14823081989E+04  0.00000000000E+00 0. -1.
         25    1    1    2    0    0  0.26170460508E+02 -0.21053412187E+03 -0.54132351083E+03  0.59469795094E+03  0.12500000000E+03 0.  0.
         21    1    1    2  503  502 -0.26170460508E+02  0.21053412187E+03 -0.90199033844E+03  0.92660459750E+03  0.00000000000E+00 0. -1.
<mgrwt>
<rscale>  3 0.24624076E+03</rscale>
<asrwt>0</asrwt>
<pdfrwt beam="1">  1       21 0.59991308E-02 0.24624076E+03</pdfrwt>
<pdfrwt beam="2">  1       21 0.22804741E+00 0.24624076E+03</pdfrwt>
<totfact> 0.17015609E+04</totfact>
</mgrwt>
</event>
<event>
 4    0  0.1525083E-001  0.2415861E+03  0.7546771E-02  0.1118741E+00
         21   -1    0    0  503  501  0.00000000000E+00  0.00000000000E+00  0.22800766004E+03  0.22800766004E+03  0.00000000000E+00 0. -1.
         21   -1    0    0  501  502 -0.00000000000E+00 -0.00000000000E+00 -0.28182163133E+03  0.28182163133E+03  0.00000000000E+00 0. -1.
         25    1    1    2    0    0 -0.60423229274E+02 -0.19770653028E+03  0.90203763745E+02  0.25787702059E+03  0.12500000000E+03 0.  0.
         21    1    1    2  503  502  0.60423229274E+02  0.19770653028E+03 -0.14401773503E+03  0.25195227079E+03  0.00000000000E+00 0. -1.
<mgrwt>
<rscale>  3 0.24158609E+03</rscale>
<asrwt>0</asrwt>
<pdfrwt beam="1">  1       21 0.35078102E-01 0.24158609E+03</pdfrwt>
<pdfrwt beam="2">  1       21 0.43357174E-01 0.24158609E+03</pdfrwt>
<totfact> 0.39135588E+04</totfact>
</mgrwt>
</event>
<event>
 4    0  0.1525083E-001  0.2753804E+03  0.7546771E-02  0.1098239E+00
         21   -1    0    0  502  501  0.00000000000E+00  0.00000000000E+00  0.41288542257E+03  0.41288542257E+03  0.00000000000E+00 0.  1.
         21   -1    0    0  503  502 -0.00000000000E+00 -0.00000000000E+00 -0.26628555365E+03  0.26628555365E+03  0.00000000000E+00 0.  1.
         25    1    1    2    0    0 -0.14483198944E+03  0.19807335474E+03  0.28594676988E+03  0.39698855680E+03  0.12500000000E+03 0.  0.
         21    1    1    2  503  501  0.14483198944E+03 -0.19807335474E+03 -0.13934690097E+03  0.28218241942E+03  0.00000000000E+00 0.  1.
<mgrwt>
<rscale>  3 0.27538039E+03</rscale>
<asrwt>0</asrwt>
<pdfrwt beam="1">  1       21 0.63520834E-01 0.27538039E+03</pdfrwt>
<pdfrwt beam="2">  1       21 0.40967008E-01 0.27538039E+03</pdfrwt>
<totfact> 0.12547096E+04</totfact>
</mgrwt>
</event>
<event>
 4    0  0.1583867E-001  0.2444806E+03  0.7546771E-02  0.1116843E+00
         21   -1    0    0  502  501  0.00000000000E+00  0.00000000000E+00  0.54680843577E+03  0.54680843577E+03  0.00000000000E+00 0.  1.
         21   -1    0    0  503  502 -0.00000000000E+00 -0.00000000000E+00 -0.60828074855E+03  0.60828074855E+03  0.00000000000E+00 0. -1.
         25    1    1    2    0    0 -0.19717538518E+03 -0.72578414403E+02  0.49946665688E+03  0.55609144940E+03  0.12500000000E+03 0.  0.
         21    1    1    2  503  501  0.19717538518E+03  0.72578414403E+02 -0.56093896966E+03  0.59899773492E+03  0.00000000000E+00 0. -1.
<mgrwt>
<rscale>  3 0.24448059E+03</rscale>
<asrwt>0</asrwt>
<pdfrwt beam="1">  1       21 0.84124375E-01 0.24448059E+03</pdfrwt>
<pdfrwt beam="2">  1       21 0.93581653E-01 0.24448059E+03</pdfrwt>
<totfact> 0.11239337E+03</totfact>
</mgrwt>
</event>
<event>
 4    0  0.1525083E-001  0.3956487E+03  0.7546771E-02  0.1045297E+00
         21   -1    0    0  503  501  0.00000000000E+00  0.00000000000E+00  0.11101626052E+04  0.11101626052E+04  0.00000000000E+00 0. -1.
         21   -1    0    0  501  502 -0.00000000000E+00 -0.00000000000E+00 -0.21541389016E+03  0.21541389016E+03  0.00000000000E+00 0.  1.
         25    1    1    2    0    0 -0.25321442590E+03 -0.27711980724E+03  0.86236968541E+03  0.94879892884E+03  0.12500000000E+03 0.  0.
         21    1    1    2  503  502  0.25321442590E+03  0.27711980724E+03  0.32379029586E+02  0.37677756648E+03  0.00000000000E+00 0.  1.
<mgrwt>
<rscale>  3 0.39564875E+03</rscale>
<asrwt>0</asrwt>
<pdfrwt beam="1">  1       21 0.17079424E+00 0.39564875E+03</pdfrwt>
<pdfrwt beam="2">  1       21 0.33140599E-01 0.39564875E+03</pdfrwt>
<totfact> 0.16050713E+03</totfact>
</mgrwt>
</event>
<event>
 4    0  0.1525083E-001  0.2753079E+03  0.7546771E-02  0.1098280E+00
         21   -1    0    0  502  501  0.00000000000E+00  0.00000000000E+00  0.25431130550E+04  0.25431130550E+04  0.00000000000E+00 0.  1.
         21   -1    0    0  503  502 -0.00000000000E+00 -0.00000000000E+00 -0.37844328850E+02  0.37844328850E+02  0.00000000000E+00 0.  1.
         25    1    1    2    0    0  0.24114280808E+01  0.24528276179E+03  0.20047244386E+04  0.20235400967E+04  0.12500000000E+03 0.  0.
         21    1    1    2  503  501 -0.24114280808E+01 -0.24528276179E+03  0.50054428752E+03  0.55741728712E+03  0.00000000000E+00 0.  1.
<mgrwt>
<rscale>  3 0.27530792E+03</rscale>
<asrwt>0</asrwt>
<pdfrwt beam="1">  1       21 0.39124803E+00 0.27530792E+03</pdfrwt>
<pdfrwt beam="2">  1       21 0.58222064E-02 0.27530792E+03</pdfrwt>
<totfact> 0.18537556E+03</totfact>
</mgrwt>
</event>
<event>
 4    0  0.1525083E-001  0.2398744E+03  0.7546771E-02  0.1119877E+00
         21   -1    0    0  503  501  0.00000000000E+00  0.00000000000E+00  0.62765395332E+02  0.62765395332E+02  0.00000000000E+00 0.  1.
         21   -1    0    0  501  502 -0.00000000000E+00 -0.00000000000E+00 -0.11634509720E+04  0.11634509720E+04  0.00000000000E+00 0. -1.
         25    1    1    2    0    0  0.15166732042E+03  0.13751994182E+03 -0.23193017132E+03  0.33366347545E+03  0.12500000000E+03 0.  0.
         21    1    1    2  503  502 -0.15166732042E+03 -0.13751994182E+03 -0.86875540537E+03  0.89255289190E+03  0.00000000000E+00 0. -1.
<mgrwt>
<rscale>  3 0.23987436E+03</rscale>
<asrwt>0</asrwt>
<pdfrwt beam="1">  1       21 0.96562156E-02 0.23987436E+03</pdfrwt>
<pdfrwt beam="2">  1       21 0.17899244E+00 0.23987436E+03</pdfrwt>
<totfact> 0.15440950E+04</totfact>
</mgrwt>
</event>
<event>
 4    0  0.1525083E-001  0.2694257E+03  0.7546771E-02  0.1101609E+00
         21   -1    0    0  503  501  0.00000000000E+00  0.00000000000E+00  0.10517476923E+04  0.10517476923E+04  0.00000000000E+00 0.  1.
         21   -1    0    0  501  502 -0.00000000000E+00 -0.00000000000E+00 -0.64411763855E+02  0.64411763855E+02  0.00000000000E+00 0.  1.
         25    1    1    2    0    0 -0.21499780366E+03 -0.10363959220E+03  0.64328230095E+03  0.69742550811E+03  0.12500000000E+03 0.  0.
         21    1    1    2  503  502  0.21499780366E+03  0.10363959220E+03  0.34405362748E+03  0.41873394803E+03  0.00000000000E+00 0.  1.
<mgrwt>
<rscale>  3 0.26942572E+03</rscale>
<asrwt>0</asrwt>
<pdfrwt beam="1">  1       21 0.16180732E+00 0.26942572E+03</pdfrwt>
<pdfrwt beam="2">  1       21 0.99095029E-02 0.26942572E+03</pdfrwt>
<totfact> 0.19218684E+04</totfact>
</mgrwt>
</event>
<event>
 4    0  0.1525083E-001  0.2525790E+03  0.7546771E-02  0.1111686E+00
         21   -1    0    0  502  501  0.00000000000E+00  0.00000000000E+00  0.10453440967E+03  0.10453440967E+03  0.00000000000E+00 0.  1.
         21   -1    0    0  503  502 -0.00000000000E+00 -0.00000000000E+00 -0.57911758362E+03  0.57911758362E+03  0.00000000000E+00 0.  1.
         25    1    1    2    0    0  0.20520186270E+03  0.77867601666E+02 -0.15628923527E+03  0.29702271446E+03  0.12500000000E+03 0.  0.
         21    1    1    2  503  501 -0.20520186270E+03 -0.77867601666E+02 -0.31829393868E+03  0.38662927883E+03  0.00000000000E+00 0.  1.
<mgrwt>
<rscale>  3 0.25257903E+03</rscale>
<asrwt>0</asrwt>
<pdfrwt beam="1">  1       21 0.16082217E-01 0.25257903E+03</pdfrwt>
<pdfrwt beam="2">  1       21 0.89095014E-01 0.25257903E+03</pdfrwt>
<totfact> 0.36068619E+04</totfact>
</mgrwt>
</event>
<event>
 4    0  0.1525083E-001  0.2469482E+03  0.7546771E-02  0.1115249E+00
         21   -1    0    0  502  501  0.00000000000E+00  0.00000000000E+00  0.11717303774E+03  0.11717303774E+03  0.00000000000E+00 0.  1.
         21   -1    0    0  503  502 -0.00000000000E+00 -0.00000000000E+00 -0.78393790720E+03  0.78393790720E+03  0.00000000000E+00 0. -1.
         25    1    1    2    0    0 -0.12865007566E+03 -0.16972798208E+03 -0.54539308820E+02  0.25289912233E+03  0.12500000000E+03 0.  0.
         21    1    1    2  503  501  0.12865007566E+03  0.16972798208E+03 -0.61222556064E+03  0.64821182261E+03  0.00000000000E+00 0. -1.
<mgrwt>
<rscale>  3 0.24694823E+03</rscale>
<asrwt>0</asrwt>
<pdfrwt beam="1">  1       21 0.18026622E-01 0.24694823E+03</pdfrwt>
<pdfrwt beam="2">  1       21 0.12060583E+00 0.24694823E+03</pdfrwt>
<totfact> 0.14118886E+04</totfact>
</mgrwt>
</event>
<event>
 4    0  0.1525083E-001  0.2432094E+03  0.7546771E-02  0.1117673E+00
         21   -1    0    0  502  501  0.00000000000E+00  0.00000000000E+00  0.14725291939E+03  0.14725291939E+03  0.00000000000E+00 0.  1.
         21   -1    0    0  503  502 -0.00000000000E+00 -0.00000000000E+00 -0.10549026226E+04  0.10549026226E+04  0.00000000000E+00 0.  1.
         25    1    1    2    0    0  0.65135489437E+02  0.19819981108E+03  0.26816593626E+02  0.24468331940E+03  0.12500000000E+03 0.  0.
         21    1    1    2  503  501 -0.65135489437E+02 -0.19819981108E+03 -0.93446629679E+03  0.95747222254E+03  0.00000000000E+00 0.  1.
<mgrwt>
<rscale>  3 0.24320937E+03</rscale>
<asrwt>0</asrwt>
<pdfrwt beam="1">  1       21 0.22654296E-01 0.24320937E+03</pdfrwt>
<pdfrwt beam="2">  1       21 0.16229271E+00 0.24320937E+03</pdfrwt>
<totfact> 0.42477036E+03</totfact>
</mgrwt>
</event>
<event>
 4    0  0.1525083E-001  0.3314516E+03  0.7546771E-02  0.1070496E+00
         21   -1    0    0  502  501  0.00000000000E+00  0.00000000000E+00  0.14936833509E+03  0.14936833509E+03  0.00000000000E+00 0. -1.
         21   -1    0    0  503  502 -0.00000000000E+00 -0.00000000000E+00 -0.19627119308E+04  0.19627119308E+04  0.00000000000E+00 0. -1.
         25    1    1    2    0    0 -0.28247509352E+02 -0.30567504312E+03 -0.65977813743E+02  0.33795447279E+03  0.12500000000E+03 0.  0.
         21    1    1    2  503  501  0.28247509352E+02  0.30567504312E+03 -0.17473657819E+04  0.17741257931E+04  0.00000000000E+00 0. -1.
<mgrwt>
<rscale>  3 0.33145159E+03</rscale>
<asrwt>0</asrwt>
<pdfrwt beam="1">  1       21 0.22979745E-01 0.33145159E+03</pdfrwt>
<pdfrwt beam="2">  1       21 0.30195566E+00 0.33145159E+03</pdfrwt>
<totfact> 0.50979675E+02</totfact>
</mgrwt>
</event>
<event>
 4    0  0.1525083E-001  0.2602982E+03  0.7546771E-02  0.1106964E+00
         21   -1    0    0  503  501  0.00000000000E+00  0.00000000000E+00  0.28235256959E+03  0.28235256959E+03  0.00000000000E+00 0.  1.
         21   -1    0    0  501  502 -0.00000000000E+00 -0.00000000000E+00 -0.22227530879E+03  0.22227530879E+03  0.00000000000E+00 0.  1.
         25    1    1    2    0    0  0.15370168552E+03 -0.16883699646E+03 -0.23809736557E+02  0.26138485622E+03  0.12500000000E+03 0.  0.
         21    1    1    2  503  502 -0.15370168552E+03  0.16883699646E+03  0.83886997356E+02  0.24324302216E+03  0.00000000000E+00 0.  1.
<mgrwt>
<rscale>  3 0.26029817E+03</rscale>
<asrwt>0</asrwt>
<pdfrwt beam="1">  1       21 0.43438857E-01 0.26029817E+03</pdfrwt>
<pdfrwt beam="2">  1       21 0.34196201E-01 0.26029817E+03</pdfrwt>
<totfact> 0.40700280E+04</totfact>
</mgrwt>
</event>
<event>
 4    0  0.1525083E-001  0.2763429E+03  0.7546771E-02  0.1097703E+00
         21   -1    0    0  502  501  0.00000000000E+00  0.00000000000E+00  0.56792102825E+02  0.56792102825E+02  0.00000000000E+00 0.  1.
         21   -1    0    0  503  502 -0.00000000000E+00 -0.00000000000E+00 -0.14246804695E+04  0.14246804695E+04  0.00000000000E+00 0.  1.
         25    1    1    2    0    0 -0.23308503514E+03  0.80073508450E+02 -0.42527606937E+03  0.50717367394E+03  0.12500000000E+03 0.  0.
         21    1    1    2  503  501  0.23308503514E+03 -0.80073508450E+02 -0.94261229728E+03  0.97429889836E+03  0.00000000000E+00 0.  1.
<mgrwt>
<rscale>  3 0.27634290E+03</rscale>
<asrwt>0</asrwt>
<pdfrwt beam="1">  1       21 0.87372473E-02 0.27634290E+03</pdfrwt>
<pdfrwt beam="2">  1       21 0.21918159E+00 0.27634290E+03</pdfrwt>
<totfact> 0.98332169E+03</totfact>
</mgrwt>
</event>
<event>
 4    0  0.1525083E-001  0.2423903E+03  0.7546771E-02  0.1118211E+00
         21   -1    0    0  503  501  0.00000000000E+00  0.00000000000E+00  0.13276245511E+03  0.13276245511E+03  0.00000000000E+00 0.  1.
         21   -1    0    0  501  502 -0.00000000000E+00 -0.00000000000E+00 -0.44686075619E+03  0.44686075619E+03  0.00000000000E+00 0.  1.
         25    1    1    2    0    0  0.15571342142E+03 -0.13740953988E+03 -0.56772317245E+02  0.24895008991E+03  0.12500000000E+03 0.  0.
         21    1    1    2  503  502 -0.15571342142E+03  0.13740953988E+03 -0.25732598383E+03  0.33067312140E+03  0.00000000000E+00 0.  1.
<mgrwt>
<rscale>  3 0.24239029E+03</rscale>
<asrwt>0</asrwt>
<pdfrwt beam="1">  1       21 0.20424992E-01 0.24239029E+03</pdfrwt>
<pdfrwt beam="2">  1       21 0.68747811E-01 0.24239029E+03</pdfrwt>
<totfact> 0.41785227E+04</totfact>
</mgrwt>
</event>
<event>
 4    0  0.1525083E-001  0.2410367E+03  0.7546771E-02  0.1119104E+00
         21   -1    0    0  502  501  0.00000000000E+00  0.00000000000E+00  0.70813850013E+02  0.70813850013E+02  0.00000000000E+00 0. -1.
         21   -1    0    0  503  502 -0.00000000000E+00 -0.00000000000E+00 -0.81592189632E+03  0.81592189632E+03  0.00000000000E+00 0. -1.
         25    1    1    2    0    0 -0.32669243239E+02 -0.20348562137E+03 -0.23529378369E+03  0.33684097465E+03  0.12500000000E+03 0.  0.
         21    1    1    2  503  501  0.32669243239E+02  0.20348562137E+03 -0.50981426262E+03  0.54989477169E+03  0.00000000000E+00 0. -1.
<mgrwt>
<rscale>  3 0.24103667E+03</rscale>
<asrwt>0</asrwt>
<pdfrwt beam="1">  1       21 0.10894438E-01 0.24103667E+03</pdfrwt>
<pdfrwt beam="2">  1       21 0.12552645E+00 0.24103667E+03</pdfrwt>
<totfact> 0.32050962E+04</totfact>
</mgrwt>
</event>
<event>
 4    0  0.1525083E-001  0.2689970E+03  0.7546771E-02  0.1101855E+00
         21   -1    0    0  503  501  0.00000000000E+00  0.00000000000E+00  0.79279830520E+02  0.79279830520E+02  0.00000000000E+00 0. -1.
         21   -1    0    0  501  502 -0.00000000000E+00 -0.00000000000E+00 -0.89192341707E+03  0.89192341707E+03  0.00000000000E+00 0. -1.
         25    1    1    2    0    0 -0.12960529160E+03 -0.19984213014E+03 -0.28289999905E+03  0.39037394643E+03  0.12500000000E+03 0.  0.
         21    1    1    2  503  502  0.12960529160E+03  0.19984213014E+03 -0.52974358750E+03  0.58082930116E+03  0.00000000000E+00 0. -1.
<mgrwt>
<rscale>  3 0.26899704E+03</rscale>
<asrwt>0</asrwt>
<pdfrwt beam="1">  1       21 0.12196896E-01 0.26899704E+03</pdfrwt>
<pdfrwt beam="2">  1       21 0.13721900E+00 0.26899704E+03</pdfrwt>
<totfact> 0.20562635E+04</totfact>
</mgrwt>
</event>
<event>
 4    0  0.1525083E-001  0.2809499E+03  0.7546771E-02  0.1095171E+00
         21   -1    0    0  502  501  0.00000000000E+00  0.00000000000E+00  0.10147973114E+03  0.10147973114E+03  0.00000000000E+00 0.  1.
         21   -1    0    0  503  502 -0.00000000000E+00 -0.00000000000E+00 -0.72725464988E+03  0.72725464988E+03  0.00000000000E+00 0.  1.
         25    1    1    2    0    0  0.20703679485E+03  0.14298107219E+03 -0.41141812083E+03  0.49819443150E+03  0.12500000000E+03 0.  0.
         21    1    1    2  503  501 -0.20703679485E+03 -0.14298107219E+03 -0.21435679791E+03  0.33053994953E+03  0.00000000000E+00 0.  1.
<mgrwt>
<rscale>  3 0.28094986E+03</rscale>
<asrwt>0</asrwt>
<pdfrwt beam="1">  1       21 0.15612267E-01 0.28094986E+03</pdfrwt>
<pdfrwt beam="2">  1       21 0.11188533E+00 0.28094986E+03</pdfrwt>
<totfact> 0.21812524E+04</totfact>
</mgrwt>
</event>
<event>
 4    0  0.1525083E-001  0.3485310E+03  0.7546771E-02  0.1063220E+00
         21   -1    0    0  502  501  0.00000000000E+00  0.00000000000E+00  0.18819510801E+03  0.18819510801E+03  0.00000000000E+00 0.  1.
         21   -1    0    0  503  502 -0.00000000000E+00 -0.00000000000E+00 -0.60414786515E+03  0.60414786515E+03  0.00000000000E+00 0.  1.
         25    1    1    2    0    0  0.25999863598E+03 -0.19557492386E+03 -0.23046489987E+03  0.41783718315E+03  0.12500000000E+03 0.  0.
         21    1    1    2  503  501 -0.25999863598E+03  0.19557492386E+03 -0.18548785728E+03  0.37450579001E+03  0.00000000000E+00 0.  1.
<mgrwt>
<rscale>  3 0.34853098E+03</rscale>
<asrwt>0</asrwt>
<pdfrwt beam="1">  1       21 0.28953093E-01 0.34853098E+03</pdfrwt>
<pdfrwt beam="2">  1       21 0.92945826E-01 0.34853098E+03</pdfrwt>
<totfact> 0.10260813E+04</totfact>
</mgrwt>
</event>
<event>
 4    0  0.1525083E-001  0.2602008E+03  0.7546771E-02  0.1107023E+00
         21   -1    0    0  503  501  0.00000000000E+00  0.00000000000E+00  0.89287371081E+02  0.89287371081E+02  0.00000000000E+00 0. -1.
         21   -1    0    0  501  502 -0.00000000000E+00 -0.00000000000E+00 -0.67386482393E+03  0.67386482393E+03  0.00000000000E+00 0. -1.
         25    1    1    2    0    0 -0.12744566284E+03  0.18930676234E+03 -0.34705321030E+03  0.43376304363E+03  0.12500000000E+03 0.  0.
         21    1    1    2  503  502  0.12744566284E+03 -0.18930676234E+03 -0.23752424256E+03  0.32938915138E+03  0.00000000000E+00 0. -1.
<mgrwt>
<rscale>  3 0.26020078E+03</rscale>
<asrwt>0</asrwt>
<pdfrwt beam="1">  1       21 0.13736518E-01 0.26020078E+03</pdfrwt>
<pdfrwt beam="2">  1       21 0.10367152E+00 0.26020078E+03</pdfrwt>
<totfact> 0.33510657E+04</totfact>
</mgrwt>
</event>
<event>
 4    0  0.1525083E-001  0.2587056E+03  0.7546771E-02  0.1107923E+00
         21   -1    0    0  502  501  0.00000000000E+00  0.00000000000E+00  0.63452199252E+02  0.63452199252E+02  0.00000000000E+00 0.  1.
         21   -1    0    0  503  502 -0.00000000000E+00 -0.00000000000E+00 -0.10098716275E+04  0.10098716275E+04  0.00000000000E+00 0.  1.
         25    1    1    2    0    0  0.42201020723E+02  0.22253684384E+03 -0.34916911901E+03  0.43456604410E+03  0.12500000000E+03 0.  0.
         21    1    1    2  503  501 -0.42201020723E+02 -0.22253684384E+03 -0.59725030927E+03  0.63875778268E+03  0.00000000000E+00 0.  1.
<mgrwt>
<rscale>  3 0.25870557E+03</rscale>
<asrwt>0</asrwt>
<pdfrwt beam="1">  1       21 0.97618774E-02 0.25870557E+03</pdfrwt>
<pdfrwt beam="2">  1       21 0.15536486E+00 0.25870557E+03</pdfrwt>
<totfact> 0.22170766E+04</totfact>
</mgrwt>
</event>
<event>
 4    0  0.1525083E-001  0.2386331E+03  0.7546771E-02  0.1120707E+00
         21   -1    0    0  502  501  0.00000000000E+00  0.00000000000E+00  0.29209937977E+03  0.29209937977E+03  0.00000000000E+00 0. -1.
         21   -1    0    0  503  502 -0.00000000000E+00 -0.00000000000E+00 -0.17909093946E+04  0.17909093946E+04  0.00000000000E+00 0.  1.
         25    1    1    2    0    0 -0.12712983526E+03  0.15861517053E+03  0.23641762915E+03  0.33591526120E+03  0.12500000000E+03 0.  0.
         21    1    1    2  503  501  0.12712983526E+03 -0.15861517053E+03 -0.17352276440E+04  0.17470935132E+04  0.00000000000E+00 0.  1.
<mgrwt>
<rscale>  3 0.23863312E+03</rscale>
<asrwt>0</asrwt>
<pdfrwt beam="1">  1       21 0.44938366E-01 0.23863312E+03</pdfrwt>
<pdfrwt beam="2">  1       21 0.27552453E+00 0.23863312E+03</pdfrwt>
<totfact> 0.21093653E+02</totfact>
</mgrwt>
</event>
<event>
 4    0  0.1525083E-001  0.2364721E+03  0.7546771E-02  0.1122166E+00
         21   -1    0    0  502  501  0.00000000000E+00  0.00000000000E+00  0.63002438112E+03  0.63002438112E+03  0.00000000000E+00 0. -1.
         21   -1    0    0  503  502 -0.00000000000E+00 -0.00000000000E+00 -0.76883351161E+02  0.76883351161E+02  0.00000000000E+00 0. -1.
         25    1    1    2    0    0 -0.36308745090E+02  0.19742272845E+03  0.33971898602E+03  0.41391792441E+03  0.12500000000E+03 0.  0.
         21    1    1    2  503  501  0.36308745090E+02 -0.19742272845E+03  0.21342204393E+03  0.29298980787E+03  0.00000000000E+00 0. -1.
<mgrwt>
<rscale>  3 0.23647211E+03</rscale>
<asrwt>0</asrwt>
<pdfrwt beam="1">  1       21 0.96926824E-01 0.23647211E+03</pdfrwt>
<pdfrwt beam="2">  1       21 0.11828208E-01 0.23647211E+03</pdfrwt>
<totfact> 0.52116350E+04</totfact>
</mgrwt>
</event>
<event>
 4    0  0.1525083E-001  0.2409808E+03  0.7546771E-02  0.1119141E+00
         21   -1    0    0  503  501  0.00000000000E+00  0.00000000000E+00  0.20052921309E+03  0.20052921309E+03  0.00000000000E+00 0. -1.
         21   -1    0    0  501  502 -0.00000000000E+00 -0.00000000000E+00 -0.26029484877E+03  0.26029484877E+03  0.00000000000E+00 0. -1.
         25    1    1    2    0    0  0.12187010587E+03  0.16611573872E+03 -0.79742049077E+02  0.25383174692E+03  0.12500000000E+03 0.  0.
         21    1    1    2  503  502 -0.12187010587E+03 -0.16611573872E+03  0.19976413392E+02  0.20699231494E+03  0.00000000000E+00 0. -1.
<mgrwt>
<rscale>  3 0.24098083E+03</rscale>
<asrwt>0</asrwt>
<pdfrwt beam="1">  1       21 0.30850648E-01 0.24098083E+03</pdfrwt>
<pdfrwt beam="2">  1       21 0.40045361E-01 0.24098083E+03</pdfrwt>
<totfact> 0.59383235E+04</totfact>
</mgrwt>
</event>
<event>
 4    0  0.1525083E-001  0.3795463E+03  0.7546771E-02  0.1051102E+00
         21   -1    0    0  502  501  0.00000000000E+00  0.00000000000E+00  0.10649212910E+03  0.10649212910E+03  0.00000000000E+00 0.  1.
         21   -1    0    0  503  502 -0.00000000000E+00 -0.00000000000E+00 -0.13332821976E+04  0.13332821976E+04  0.00000000000E+00 0.  1.
         25    1    1    2    0    0 -0.45881841377E+02 -0.35542265413E+03 -0.77637781949E+03  0.86418627913E+03  0.12500000000E+03 0.  0.
         21    1    1    2  503  501  0.45881841377E+02  0.35542265413E+03 -0.45041224899E+03  0.57558804754E+03  0.00000000000E+00 0.  1.
<mgrwt>
<rscale>  3 0.37954632E+03</rscale>
<asrwt>0</asrwt>
<pdfrwt beam="1">  1       21 0.16383405E-01 0.37954632E+03</pdfrwt>
<pdfrwt beam="2">  1       21 0.20512033E+00 0.37954632E+03</pdfrwt>
<totfact> 0.36610052E+03</totfact>
</mgrwt>
</event>
<event>
 4    0  0.1525083E-001  0.2427135E+03  0.7546771E-02  0.1117998E+00
         21   -1    0    0  502  501  0.00000000000E+00  0.00000000000E+00  0.57715600788E+03  0.57715600788E+03  0.00000000000E+00 0.  1.
         21   -1    0    0  503  502 -0.00000000000E+00 -0.00000000000E+00 -0.88041470455E+02  0.88041470455E+02  0.00000000000E+00 0.  1.
         25    1    1    2    0    0  0.20481766988E+03  0.36531431408E+02  0.25734053564E+03  0.35374280863E+03  0.12500000000E+03 0.  0.
         21    1    1    2  503  501 -0.20481766988E+03 -0.36531431408E+02  0.23177400178E+03  0.31145466970E+03  0.00000000000E+00 0.  1.
<mgrwt>
<rscale>  3 0.24271346E+03</rscale>
<asrwt>0</asrwt>
<pdfrwt beam="1">  1       21 0.88793230E-01 0.24271346E+03</pdfrwt>
<pdfrwt beam="2">  1       21 0.13544842E-01 0.24271346E+03</pdfrwt>
<totfact> 0.49979082E+04</totfact>
</mgrwt>
</event>
<event>
 4    0  0.1525083E-001  0.2555913E+03  0.7546771E-02  0.1109821E+00
         21   -1    0    0  502  501  0.00000000000E+00  0.00000000000E+00  0.74262833683E+03  0.74262833683E+03  0.00000000000E+00 0.  1.
         21   -1    0    0  503  502 -0.00000000000E+00 -0.00000000000E+00 -0.79993743818E+02  0.79993743818E+02  0.00000000000E+00 0.  1.
         25    1    1    2    0    0 -0.16693421200E+03 -0.14776638188E+03  0.43131611169E+03  0.50135867695E+03  0.12500000000E+03 0.  0.
         21    1    1    2  503  501  0.16693421200E+03  0.14776638188E+03  0.23131848132E+03  0.32126340369E+03  0.00000000000E+00 0.  1.
<mgrwt>
<rscale>  3 0.25559134E+03</rscale>
<asrwt>0</asrwt>
<pdfrwt beam="1">  1       21 0.11425051E+00 0.25559134E+03</pdfrwt>
<pdfrwt beam="2">  1       21 0.12306730E-01 0.25559134E+03</pdfrwt>
<totfact> 0.32339115E+04</totfact>
</mgrwt>
</event>
<event>
 4    0  0.1525083E-001  0.4952493E+03  0.7546771E-02  0.1015026E+00
         21   -1    0    0  503  501  0.00000000000E+00  0.00000000000E+00  0.58998865546E+03  0.58998865546E+03  0.00000000000E+00 0. -1.
         21   -1    0    0  501  502 -0.00000000000E+00 -0.00000000000E+00 -0.41986909998E+03  0.41986909998E+03  0.00000000000E+00 0. -1.
         25    1    1    2    0    0 -0.47858643283E+03 -0.24534400716E+02 -0.16660150665E+02  0.49552948563E+03  0.12500000000E+03 0.  0.
         21    1    1    2  503  502  0.47858643283E+03  0.24534400716E+02  0.18677970614E+03  0.51432826982E+03  0.00000000000E+00 0. -1.
<mgrwt>
<rscale>  3 0.49524934E+03</rscale>
<asrwt>0</asrwt>
<pdfrwt beam="1">  1       21 0.90767486E-01 0.49524934E+03</pdfrwt>
<pdfrwt beam="2">  1       21 0.64595246E-01 0.49524934E+03</pdfrwt>
<totfact> 0.19317246E+03</totfact>
</mgrwt>
</event>
<event>
 4    0  0.1525083E-001  0.3410136E+03  0.7546771E-02  0.1066365E+00
         21   -1    0    0  502  501  0.00000000000E+00  0.00000000000E+00  0.20847895196E+03  0.20847895196E+03  0.00000000000E+00 0.  1.
         21   -1    0    0  503  502 -0.00000000000E+00 -0.00000000000E+00 -0.11211016396E+04  0.11211016396E+04  0.00000000000E+00 0.  1.
         25    1    1    2    0    0  0.31446654556E+03  0.42143159660E+02  0.22839540341E+02  0.34177755746E+03  0.12500000000E+03 0.  0.
         21    1    1    2  503  501 -0.31446654556E+03 -0.42143159660E+02 -0.93546222794E+03  0.98780303406E+03  0.00000000000E+00 0.  1.
<mgrwt>
<rscale>  3 0.34101357E+03</rscale>
<asrwt>0</asrwt>
<pdfrwt beam="1">  1       21 0.32073684E-01 0.34101357E+03</pdfrwt>
<pdfrwt beam="2">  1       21 0.17247718E+00 0.34101357E+03</pdfrwt>
<totfact> 0.17144485E+03</totfact>
</mgrwt>
</event>
<event>
 4    0  0.1525083E-001  0.2681745E+03  0.7546771E-02  0.1102329E+00
         21   -1    0    0  503  501  0.00000000000E+00  0.00000000000E+00  0.30064103678E+03  0.30064103678E+03  0.00000000000E+00 0.  1.
         21   -1    0    0  501  502 -0.00000000000E+00 -0.00000000000E+00 -0.25747338453E+03  0.25747338453E+03  0.00000000000E+00 0.  1.
         25    1    1    2    0    0  0.23113598052E+03 -0.53560351060E+02  0.13920790932E+03  0.30215293265E+03  0.12500000000E+03 0.  0.
         21    1    1    2  503  502 -0.23113598052E+03  0.53560351060E+02 -0.96040257069E+02  0.25596148865E+03  0.00000000000E+00 0.  1.
<mgrwt>
<rscale>  3 0.26817448E+03</rscale>
<asrwt>0</asrwt>
<pdfrwt beam="1">  1       21 0.46252467E-01 0.26817448E+03</pdfrwt>
<pdfrwt beam="2">  1       21 0.39611290E-01 0.26817448E+03</pdfrwt>
<totfact> 0.26504546E+04</totfact>
</mgrwt>
</event>
<event>
 4    0  0.1525083E-001  0.2620906E+03  0.7546771E-02  0.1105894E+00
         21   -1    0    0  502  501  0.00000000000E+00  0.00000000000E+00  0.47930768438E+03  0.47930768438E+03  0.00000000000E+00 0.  1.
         21   -1    0    0  503  502 -0.00000000000E+00 -0.00000000000E+00 -0.14951428100E+03  0.14951428100E+03  0.00000000000E+00 0.  1.
         25    1    1    2    0    0 -0.87065820531E+02  0.21327448975E+03  0.29705134751E+03  0.39614513520E+03  0.12500000000E+03 0.  0.
         21    1    1    2  503  501  0.87065820531E+02 -0.21327448975E+03  0.32742055866E+02  0.23267683018E+03  0.00000000000E+00 0.  1.
<mgrwt>
<rscale>  3 0.26209057E+03</rscale>
<asrwt>0</asrwt>
<pdfrwt beam="1">  1       21 0.73739643E-01 0.26209057E+03</pdfrwt>
<pdfrwt beam="2">  1       21 0.23002197E-01 0.26209057E+03</pdfrwt>
<totfact> 0.28299973E+04</totfact>
</mgrwt>
</event>
<event>
 4    0  0.1525083E-001  0.2501904E+03  0.7546771E-02  0.1113185E+00
         21   -1    0    0  503  501  0.00000000000E+00  0.00000000000E+00  0.27039020443E+03  0.27039020443E+03  0.00000000000E+00 0.  1.
         21   -1    0    0  501  502 -0.00000000000E+00 -0.00000000000E+00 -0.20378473202E+03  0.20378473202E+03  0.00000000000E+00 0.  1.
         25    1    1    2    0    0 -0.20077907903E+03  0.81596466618E+02  0.60312843198E+02  0.25735745763E+03  0.12500000000E+03 0.  0.
         21    1    1    2  503  502  0.20077907903E+03 -0.81596466618E+02  0.62926292079E+01  0.21681747883E+03  0.00000000000E+00 0.  1.
<mgrwt>
<rscale>  3 0.25019037E+03</rscale>
<asrwt>0</asrwt>
<pdfrwt beam="1">  1       21 0.41598493E-01 0.25019037E+03</pdfrwt>
<pdfrwt beam="2">  1       21 0.31351497E-01 0.25019037E+03</pdfrwt>
<totfact> 0.53046751E+04</totfact>
</mgrwt>
</event>
<event>
 4    0  0.1525083E-001  0.2620926E+03  0.7546771E-02  0.1105892E+00
         21   -1    0    0  502  501  0.00000000000E+00  0.00000000000E+00  0.17338949802E+03  0.17338949802E+03  0.00000000000E+00 0.  1.
         21   -1    0    0  503  502 -0.00000000000E+00 -0.00000000000E+00 -0.35821078121E+03  0.35821078121E+03  0.00000000000E+00 0.  1.
         25    1    1    2    0    0  0.15694654700E+03  0.16862768123E+03 -0.13919256165E+03  0.29676098583E+03  0.12500000000E+03 0.  0.
         21    1    1    2  503  501 -0.15694654700E+03 -0.16862768123E+03 -0.45628721542E+02  0.23483929340E+03  0.00000000000E+00 0.  1.
<mgrwt>
<rscale>  3 0.26209257E+03</rscale>
<asrwt>0</asrwt>
<pdfrwt beam="1">  1       21 0.26675307E-01 0.26209257E+03</pdfrwt>
<pdfrwt beam="2">  1       21 0.55109351E-01 0.26209257E+03</pdfrwt>
<totfact> 0.40250355E+04</totfact>
</mgrwt>
</event>
<event>
 4    0  0.1525083E-001  0.3751149E+03  0.7546771E-02  0.1052754E+00
         21   -1    0    0  503  501  0.00000000000E+00  0.00000000000E+00  0.85433229773E+02  0.85433229773E+02  0.00000000000E+00 0.  1.
         21   -1    0    0  501  502 -0.00000000000E+00 -0.00000000000E+00 -0.16972833654E+04  0.16972833654E+04  0.00000000000E+00 0.  1.
         25    1    1    2    0    0 -0.30290783559E+03  0.18257328539E+03 -0.56897128652E+03  0.68149797233E+03  0.12500000000E+03 0.  0.
         21    1    1    2  503  502  0.30290783559E+03 -0.18257328539E+03 -0.10428788491E+04  0.11012186229E+04  0.00000000000E+00 0.  1.
<mgrwt>
<rscale>  3 0.37511486E+03</rscale>
<asrwt>0</asrwt>
<pdfrwt beam="1">  1       21 0.13143574E-01 0.37511486E+03</pdfrwt>
<pdfrwt beam="2">  1       21 0.26112051E+00 0.37511486E+03</pdfrwt>
<totfact> 0.24654059E+03</totfact>
</mgrwt>
</event>
<event>
 4    0  0.1525083E-001  0.2976643E+03  0.7546771E-02  0.1086414E+00
         21   -1    0    0  503  501  0.00000000000E+00  0.00000000000E+00  0.10440210658E+03  0.10440210658E+03  0.00000000000E+00 0.  1.
         21   -1    0    0  501  502 -0.00000000000E+00 -0.00000000000E+00 -0.81286693007E+03  0.81286693007E+03  0.00000000000E+00 0.  1.
         25    1    1    2    0    0 -0.26873602682E+03  0.27568073605E+02 -0.26786257216E+03  0.40044276539E+03  0.12500000000E+03 0.  0.
         21    1    1    2  503  502  0.26873602682E+03 -0.27568073605E+02 -0.44060225133E+03  0.51682627126E+03  0.00000000000E+00 0.  1.
<mgrwt>
<rscale>  3 0.29766433E+03</rscale>
<asrwt>0</asrwt>
<pdfrwt beam="1">  1       21 0.16061862E-01 0.29766433E+03</pdfrwt>
<pdfrwt beam="2">  1       21 0.12505645E+00 0.29766433E+03</pdfrwt>
<totfact> 0.15564789E+04</totfact>
</mgrwt>
</event>
<event>
 4    0  0.1525083E-001  0.3812062E+03  0.7546771E-02  0.1050489E+00
         21   -1    0    0  503  501  0.00000000000E+00  0.00000000000E+00  0.75360960350E+02  0.75360960350E+02  0.00000000000E+00 0.  1.
         21   -1    0    0  501  502 -0.00000000000E+00 -0.00000000000E+00 -0.19856595396E+04  0.19856595396E+04  0.00000000000E+00 0.  1.
         25    1    1    2    0    0 -0.62253140331E+02  0.35470790130E+03 -0.68538704286E+03  0.78426624768E+03  0.12500000000E+03 0.  0.
         21    1    1    2  503  502  0.62253140331E+02 -0.35470790130E+03 -0.12249115364E+04  0.12767542523E+04  0.00000000000E+00 0.  1.
<mgrwt>
<rscale>  3 0.38120618E+03</rscale>
<asrwt>0</asrwt>
<pdfrwt beam="1">  1       21 0.11593997E-01 0.38120618E+03</pdfrwt>
<pdfrwt beam="2">  1       21 0.30548601E+00 0.38120618E+03</pdfrwt>
<totfact> 0.16751158E+03</totfact>
</mgrwt>
</event>
<event>
 4    0  0.1525083E-001  0.3277882E+03  0.7546771E-02  0.1072120E+00
         21   -1    0    0  503  501  0.00000000000E+00  0.00000000000E+00  0.18661501728E+03  0.18661501728E+03  0.00000000000E+00 0.  1.
         21   -1    0    0  501  502 -0.00000000000E+00 -0.00000000000E+00 -0.79061950324E+03  0.79061950324E+03  0.00000000000E+00 0.  1.
         25    1    1    2    0    0  0.29182054710E+03  0.81614271362E+02 -0.31265265639E+02  0.32927592963E+03  0.12500000000E+03 0.  0.
         21    1    1    2  503  502 -0.29182054710E+03 -0.81614271362E+02 -0.57273922032E+03  0.64795859088E+03  0.00000000000E+00 0.  1.
<mgrwt>
<rscale>  3 0.32778823E+03</rscale>
<asrwt>0</asrwt>
<pdfrwt beam="1">  1       21 0.28710003E-01 0.32778823E+03</pdfrwt>
<pdfrwt beam="2">  1       21 0.12163377E+00 0.32778823E+03</pdfrwt>
<totfact> 0.54535496E+03</totfact>
</mgrwt>
</event>
<event>
 4    0  0.1525083E-001  0.2465264E+03  0.7546771E-02  0.1115520E+00
         21   -1    0    0  503  501  0.00000000000E+00  0.00000000000E+00  0.69641865975E+03  0.69641865975E+03  0.00000000000E+00 0. -1.
         21   -1    0    0  501  502 -0.00000000000E+00 -0.00000000000E+00 -0.10954959563E+03  0.10954959563E+03  0.00000000000E+00 0. -1.
         25    1    1    2    0    0 -0.21068426072E+03  0.27611822886E+02  0.53225595219E+03  0.58657622618E+03  0.12500000000E+03 0.  0.
         21    1    1    2  503  502  0.21068426072E+03 -0.27611822886E+02  0.54613111937E+02  0.21939202920E+03  0.00000000000E+00 0. -1.
<mgrwt>
<rscale>  3 0.24652641E+03</rscale>
<asrwt>0</asrwt>
<pdfrwt beam="1">  1       21 0.10714133E+00 0.24652641E+03</pdfrwt>
<pdfrwt beam="2">  1       21 0.16853784E-01 0.24652641E+03</pdfrwt>
<totfact> 0.21397526E+04</totfact>
</mgrwt>
</event>
<event>
 4    0  0.1525083E-001  0.3036865E+03  0.7546771E-02  0.1083412E+00
         21   -1    0    0  503  501  0.00000000000E+00  0.00000000000E+00  0.27905703524E+03  0.27905703524E+03  0.00000000000E+00 0. -1.
         21   -1    0    0  501  502 -0.00000000000E+00 -0.00000000000E+00 -0.33329408734E+03  0.33329408734E+03  0.00000000000E+00 0. -1.
         25    1    1    2    0    0  0.24246494499E+03 -0.13345882185E+03 -0.12221688580E+03  0.32735679900E+03  0.12500000000E+03 0.  0.
         21    1    1    2  503  502 -0.24246494499E+03  0.13345882185E+03  0.67979833693E+02  0.28499432357E+03  0.00000000000E+00 0. -1.
<mgrwt>
<rscale>  3 0.30368653E+03</rscale>
<asrwt>0</asrwt>
<pdfrwt beam="1">  1       21 0.42931852E-01 0.30368653E+03</pdfrwt>
<pdfrwt beam="2">  1       21 0.51276013E-01 0.30368653E+03</pdfrwt>
<totfact> 0.17842532E+04</totfact>
</mgrwt>
</event>
<event>
 4    0  0.1525083E-001  0.2587725E+03  0.7546771E-02  0.1107883E+00
         21   -1    0    0  502  501  0.00000000000E+00  0.00000000000E+00  0.75234895739E+03  0.75234895739E+03  0.00000000000E+00 0.  1.
         21   -1    0    0  503  502 -0.00000000000E+00 -0.00000000000E+00 -0.17217815614E+03  0.17217815614E+03  0.00000000000E+00 0.  1.
         25    1    1    2    0    0 -0.25855041455E+02 -0.22509934588E+03  0.63986990970E+03  0.69021496653E+03  0.12500000000E+03 0.  0.
         21    1    1    2  503  501  0.25855041455E+02  0.22509934588E+03 -0.59699108446E+02  0.23431214700E+03  0.00000000000E+00 0.  1.
<mgrwt>
<rscale>  3 0.25877248E+03</rscale>
<asrwt>0</asrwt>
<pdfrwt beam="1">  1       21 0.11574599E+00 0.25877248E+03</pdfrwt>
<pdfrwt beam="2">  1       21 0.26488948E-01 0.25877248E+03</pdfrwt>
<totfact> 0.74867080E+03</totfact>
</mgrwt>
</event>
<event>
 4    0  0.1525083E-001  0.3033246E+03  0.7546771E-02  0.1083590E+00
         21   -1    0    0  503  501  0.00000000000E+00  0.00000000000E+00  0.76130405529E+03  0.76130405529E+03  0.00000000000E+00 0.  1.
         21   -1    0    0  501  502 -0.00000000000E+00 -0.00000000000E+00 -0.23095805090E+03  0.23095805090E+03  0.00000000000E+00 0.  1.
         25    1    1    2    0    0 -0.16191401638E+03  0.22397467986E+03  0.62939925170E+03  0.69867676643E+03  0.12500000000E+03 0.  0.
         21    1    1    2  503  502  0.16191401638E+03 -0.22397467986E+03 -0.99053247302E+02  0.29358533976E+03  0.00000000000E+00 0.  1.
<mgrwt>
<rscale>  3 0.30332459E+03</rscale>
<asrwt>0</asrwt>
<pdfrwt beam="1">  1       21 0.11712370E+00 0.30332459E+03</pdfrwt>
<pdfrwt beam="2">  1       21 0.35532008E-01 0.30332459E+03</pdfrwt>
<totfact> 0.39749414E+03</totfact>
</mgrwt>
</event>
<event>
 4    0  0.1525083E-001  0.2690694E+03  0.7546771E-02  0.1101813E+00
         21   -1    0    0  503  501  0.00000000000E+00  0.00000000000E+00  0.56784060918E+03  0.56784060918E+03  0.00000000000E+00 0. -1.
         21   -1    0    0  501  502 -0.00000000000E+00 -0.00000000000E+00 -0.13331239400E+03  0.13331239400E+03  0.00000000000E+00 0. -1.
         25    1    1    2    0    0  0.16663254935E+03 -0.17031425030E+03  0.36401888944E+03  0.45266776142E+03  0.12500000000E+03 0.  0.
         21    1    1    2  503  502 -0.16663254935E+03  0.17031425030E+03  0.70509325736E+02  0.24848524176E+03  0.00000000000E+00 0. -1.
<mgrwt>
<rscale>  3 0.26906942E+03</rscale>
<asrwt>0</asrwt>
<pdfrwt beam="1">  1       21 0.87360092E-01 0.26906942E+03</pdfrwt>
<pdfrwt beam="2">  1       21 0.20509599E-01 0.26906942E+03</pdfrwt>
<totfact> 0.23821825E+04</totfact>
</mgrwt>
</event>
<event>
 4    0  0.1525083E-001  0.2404650E+03  0.7546771E-02  0.1119483E+00
         21   -1    0    0  503  501  0.00000000000E+00  0.00000000000E+00  0.37648852394E+03  0.37648852394E+03  0.00000000000E+00 0.  1.
         21   -1    0    0  501  502 -0.00000000000E+00 -0.00000000000E+00 -0.18075300411E+03  0.18075300411E+03  0.00000000000E+00 0.  1.
         25    1    1    2    0    0  0.93384800245E+02  0.18296915337E+03  0.24783039652E+03  0.34531628609E+03  0.12500000000E+03 0.  0.
         21    1    1    2  503  502 -0.93384800245E+02 -0.18296915337E+03 -0.52094876694E+02  0.21192524196E+03  0.00000000000E+00 0.  1.
<mgrwt>
<rscale>  3 0.24046503E+03</rscale>
<asrwt>0</asrwt>
<pdfrwt beam="1">  1       21 0.57921311E-01 0.24046503E+03</pdfrwt>
<pdfrwt beam="2">  1       21 0.27808155E-01 0.24046503E+03</pdfrwt>
<totfact> 0.33686869E+04</totfact>
</mgrwt>
</event>
<event>
 4    0  0.1525083E-001  0.2544136E+03  0.7546771E-02  0.1110547E+00
         21   -1    0    0  503  501  0.00000000000E+00  0.00000000000E+00  0.40626473143E+03  0.40626473143E+03  0.00000000000E+00 0.  1.
         21   -1    0    0  501  502 -0.00000000000E+00 -0.00000000000E+00 -0.19139765000E+03  0.19139765000E+03  0.00000000000E+00 0.  1.
         25    1    1    2    0    0 -0.22154135443E+03  0.45531755380E+01  0.26827728343E+03  0.36972828392E+03  0.12500000000E+03 0.  0.
         21    1    1    2  503  502  0.22154135443E+03 -0.45531755380E+01 -0.53410201993E+02  0.22793409751E+03  0.00000000000E+00 0.  1.
<mgrwt>
<rscale>  3 0.25441365E+03</rscale>
<asrwt>0</asrwt>
<pdfrwt beam="1">  1       21 0.62502266E-01 0.25441365E+03</pdfrwt>
<pdfrwt beam="2">  1       21 0.29445792E-01 0.25441365E+03</pdfrwt>
<totfact> 0.25397962E+04</totfact>
</mgrwt>
</event>
<event>
 4    0  0.1525083E-001  0.2416210E+03  0.7546771E-02  0.1118718E+00
         21   -1    0    0  502  501  0.00000000000E+00  0.00000000000E+00  0.19663665603E+03  0.19663665603E+03  0.00000000000E+00 0.  1.
         21   -1    0    0  503  502 -0.00000000000E+00 -0.00000000000E+00 -0.41494871946E+03  0.41494871946E+03  0.00000000000E+00 0.  1.
         25    1    1    2    0    0  0.17113669319E+03  0.11605148979E+03  0.74750142843E+02  0.25291955222E+03  0.12500000000E+03 0.  0.
         21    1    1    2  503  501 -0.17113669319E+03 -0.11605148979E+03 -0.29306220628E+03  0.35866582328E+03  0.00000000000E+00 0.  1.
<mgrwt>
<rscale>  3 0.24162102E+03</rscale>
<asrwt>0</asrwt>
<pdfrwt beam="1">  1       21 0.30251793E-01 0.24162102E+03</pdfrwt>
<pdfrwt beam="2">  1       21 0.63838264E-01 0.24162102E+03</pdfrwt>
<totfact> 0.23141367E+04</totfact>
</mgrwt>
</event>
<event>
 4    0  0.1525083E-001  0.2534954E+03  0.7546771E-02  0.1111116E+00
         21   -1    0    0  503  501  0.00000000000E+00  0.00000000000E+00  0.82163210258E+02  0.82163210258E+02  0.00000000000E+00 0.  1.
         21   -1    0    0  501  502 -0.00000000000E+00 -0.00000000000E+00 -0.11061692058E+04  0.11061692058E+04  0.00000000000E+00 0.  1.
         25    1    1    2    0    0 -0.17255734401E+03  0.13732769563E+03 -0.16736880623E+03  0.30376347749E+03  0.12500000000E+03 0.  0.
         21    1    1    2  503  502  0.17255734401E+03 -0.13732769563E+03 -0.85663718929E+03  0.88456893854E+03  0.00000000000E+00 0.  1.
<mgrwt>
<rscale>  3 0.25349543E+03</rscale>
<asrwt>0</asrwt>
<pdfrwt beam="1">  1       21 0.12640494E-01 0.25349543E+03</pdfrwt>
<pdfrwt beam="2">  1       21 0.17017988E+00 0.25349543E+03</pdfrwt>
<totfact> 0.10902760E+04</totfact>
</mgrwt>
</event>
<event>
 4    0  0.1525083E-001  0.2494588E+03  0.7546771E-02  0.1113647E+00
         21   -1    0    0  502  501  0.00000000000E+00  0.00000000000E+00  0.35737571285E+03  0.35737571285E+03  0.00000000000E+00 0.  1.
         21   -1    0    0  503  502 -0.00000000000E+00 -0.00000000000E+00 -0.17553864567E+03  0.17553864567E+03  0.00000000000E+00 0. -1.
         25    1    1    2    0    0 -0.57974666182E+02  0.20795106020E+03  0.19500291795E+03  0.31663203149E+03  0.12500000000E+03 0.  0.
         21    1    1    2  503  501  0.57974666182E+02 -0.20795106020E+03 -0.13165850774E+02  0.21628232703E+03  0.00000000000E+00 0. -1.
<mgrwt>
<rscale>  3 0.24945882E+03</rscale>
<asrwt>0</asrwt>
<pdfrwt beam="1">  1       21 0.54980879E-01 0.24945882E+03</pdfrwt>
<pdfrwt beam="2">  1       21 0.27005945E-01 0.24945882E+03</pdfrwt>
<totfact> 0.39700852E+04</totfact>
</mgrwt>
</event>
<event>
 4    0  0.1525083E-001  0.2374307E+03  0.7546771E-02  0.1121516E+00
         21   -1    0    0  503  501  0.00000000000E+00  0.00000000000E+00  0.39060697415E+03  0.39060697415E+03  0.00000000000E+00 0. -1.
         21   -1    0    0  501  502 -0.00000000000E+00 -0.00000000000E+00 -0.20154368936E+03  0.20154368936E+03  0.00000000000E+00 0. -1.
         25    1    1    2    0    0  0.20551026987E+02  0.20081337187E+03  0.28307895137E+03  0.36946860183E+03  0.12500000000E+03 0.  0.
         21    1    1    2  503  502 -0.20551026987E+02 -0.20081337187E+03 -0.94015666576E+02  0.22268206168E+03  0.00000000000E+00 0. -1.
<mgrwt>
<rscale>  3 0.23743074E+03</rscale>
<asrwt>0</asrwt>
<pdfrwt beam="1">  1       21 0.60093380E-01 0.23743074E+03</pdfrwt>
<pdfrwt beam="2">  1       21 0.31006722E-01 0.23743074E+03</pdfrwt>
<totfact> 0.25190584E+04</totfact>
</mgrwt>
</event>
<event>
 4    0  0.1525083E-001  0.2536025E+03  0.7546771E-02  0.1111049E+00
         21   -1    0    0  502  501  0.00000000000E+00  0.00000000000E+00  0.50874721738E+02  0.50874721738E+02  0.00000000000E+00 0. -1.
         21   -1    0    0  503  502 -0.00000000000E+00 -0.00000000000E+00 -0.13874146769E+04  0.13874146769E+04  0.00000000000E+00 0. -1.
         25    1    1    2    0    0 -0.19658124120E+03 -0.10022506084E+03 -0.10289297828E+04  0.10597220132E+04  0.12500000000E+03 0.  0.
         21    1    1    2  503  501  0.19658124120E+03  0.10022506084E+03 -0.30761017233E+03  0.37856738546E+03  0.00000000000E+00 0. -1.
<mgrwt>
<rscale>  3 0.25360254E+03</rscale>
<asrwt>0</asrwt>
<pdfrwt beam="1">  1       21 0.78268810E-02 0.25360254E+03</pdfrwt>
<pdfrwt beam="2">  1       21 0.21344839E+00 0.25360254E+03</pdfrwt>
<totfact> 0.13153355E+04</totfact>
</mgrwt>
</event>
<event>
 4    0  0.1525083E-001  0.2747199E+03  0.7546771E-02  0.1098608E+00
         21   -1    0    0  502  501  0.00000000000E+00  0.00000000000E+00  0.35897655332E+03  0.35897655332E+03  0.00000000000E+00 0.  1.
         21   -1    0    0  503  502 -0.00000000000E+00 -0.00000000000E+00 -0.18865240938E+03  0.18865240938E+03  0.00000000000E+00 0.  1.
         25    1    1    2    0    0 -0.21624312367E+03 -0.11438951179E+03  0.72200810088E+02  0.28404930191E+03  0.12500000000E+03 0.  0.
         21    1    1    2  503  501  0.21624312367E+03  0.11438951179E+03  0.98123333851E+02  0.26357966080E+03  0.00000000000E+00 0.  1.
<mgrwt>
<rscale>  3 0.27471995E+03</rscale>
<asrwt>0</asrwt>
<pdfrwt beam="1">  1       21 0.55227162E-01 0.27471995E+03</pdfrwt>
<pdfrwt beam="2">  1       21 0.29023448E-01 0.27471995E+03</pdfrwt>
<totfact> 0.33827449E+04</totfact>
</mgrwt>
</event>
<event>
 4    0  0.1525083E-001  0.2598364E+03  0.7546771E-02  0.1107242E+00
         21   -1    0    0  502  501  0.00000000000E+00  0.00000000000E+00  0.74909180924E+03  0.74909180924E+03  0.00000000000E+00 0. -1.
         21   -1    0    0  503  502 -0.00000000000E+00 -0.00000000000E+00 -0.85023858840E+02  0.85023858840E+02  0.00000000000E+00 0. -1.
         25    1    1    2    0    0 -0.21307804708E+03 -0.80546350544E+02  0.45985020533E+03  0.52818290400E+03  0.12500000000E+03 0.  0.
         21    1    1    2  503  501  0.21307804708E+03  0.80546350544E+02  0.20421774507E+03  0.30593276408E+03  0.00000000000E+00 0. -1.
<mgrwt>
<rscale>  3 0.25983643E+03</rscale>
<asrwt>0</asrwt>
<pdfrwt beam="1">  1       21 0.11524489E+00 0.25983643E+03</pdfrwt>
<pdfrwt beam="2">  1       21 0.13080594E-01 0.25983643E+03</pdfrwt>
<totfact> 0.28296473E+04</totfact>
</mgrwt>
</event>
<event>
 4    0  0.1525083E-001  0.3832852E+03  0.7546771E-02  0.1049726E+00
         21   -1    0    0  502  501  0.00000000000E+00  0.00000000000E+00  0.12380812160E+04  0.12380812160E+04  0.00000000000E+00 0.  1.
         21   -1    0    0  503  502 -0.00000000000E+00 -0.00000000000E+00 -0.12612710766E+03  0.12612710766E+03  0.00000000000E+00 0.  1.
         25    1    1    2    0    0  0.84330327522E+02 -0.35237898636E+03  0.79598906004E+03  0.88346258431E+03  0.12500000000E+03 0.  0.
         21    1    1    2  503  501 -0.84330327522E+02  0.35237898636E+03  0.31596504832E+03  0.48074573937E+03  0.00000000000E+00 0.  1.
<mgrwt>
<rscale>  3 0.38328521E+03</rscale>
<asrwt>0</asrwt>
<pdfrwt beam="1">  1       21 0.19047402E+00 0.38328521E+03</pdfrwt>
<pdfrwt beam="2">  1       21 0.19404171E-01 0.38328521E+03</pdfrwt>
<totfact> 0.33305643E+03</totfact>
</mgrwt>
</event>
<event>
 4    0  0.1525083E-001  0.3080250E+03  0.7546771E-02  0.1081296E+00
         21   -1    0    0  502  501  0.00000000000E+00  0.00000000000E+00  0.17078536713E+04  0.17078536713E+04  0.00000000000E+00 0. -1.
         21   -1    0    0  503  502 -0.00000000000E+00 -0.00000000000E+00 -0.51020360421E+02  0.51020360421E+02  0.00000000000E+00 0. -1.
         25    1    1    2    0    0  0.26751509437E+03  0.87693169519E+02  0.91204485018E+03  0.96265529991E+03  0.12500000000E+03 0.  0.
         21    1    1    2  503  501 -0.26751509437E+03 -0.87693169519E+02  0.74478846067E+03  0.79621873178E+03  0.00000000000E+00 0. -1.
<mgrwt>
<rscale>  3 0.30802503E+03</rscale>
<asrwt>0</asrwt>
<pdfrwt beam="1">  1       21 0.26274667E+00 0.30802503E+03</pdfrwt>
<pdfrwt beam="2">  1       21 0.78492875E-02 0.30802503E+03</pdfrwt>
<totfact> 0.63212222E+03</totfact>
</mgrwt>
</event>
<event>
 4    0  0.1525083E-001  0.2736941E+03  0.7546771E-02  0.1099184E+00
         21   -1    0    0  503  501  0.00000000000E+00  0.00000000000E+00  0.20815610826E+04  0.20815610826E+04  0.00000000000E+00 0. -1.
         21   -1    0    0  501  502 -0.00000000000E+00 -0.00000000000E+00 -0.48653848014E+02  0.48653848014E+02  0.00000000000E+00 0. -1.
         25    1    1    2    0    0 -0.16489211996E+03  0.17914811720E+03  0.16757866059E+04  0.16979897548E+04  0.12500000000E+03 0.  0.
         21    1    1    2  503  502  0.16489211996E+03 -0.17914811720E+03  0.35712062873E+03  0.43222517579E+03  0.00000000000E+00 0. -1.
<mgrwt>
<rscale>  3 0.27369410E+03</rscale>
<asrwt>0</asrwt>
<pdfrwt beam="1">  1       21 0.32024010E+00 0.27369410E+03</pdfrwt>
<pdfrwt beam="2">  1       21 0.74852090E-02 0.27369410E+03</pdfrwt>
<totfact> 0.32272105E+03</totfact>
</mgrwt>
</event>
<event>
 4    0  0.1525083E-001  0.3307254E+03  0.7546771E-02  0.1070816E+00
         21   -1    0    0  502  501  0.00000000000E+00  0.00000000000E+00  0.13086268008E+04  0.13086268008E+04  0.00000000000E+00 0.  1.
         21   -1    0    0  503  502 -0.00000000000E+00 -0.00000000000E+00 -0.14625480001E+03  0.14625480001E+03  0.00000000000E+00 0. -1.
         25    1    1    2    0    0  0.30110489419E+03  0.55589118465E+02  0.10916207075E+04  0.11406204787E+04  0.12500000000E+03 0.  0.
         21    1    1    2  503  501 -0.30110489419E+03 -0.55589118465E+02  0.70751293344E+02  0.31426112216E+03  0.00000000000E+00 0. -1.
<mgrwt>
<rscale>  3 0.33072543E+03</rscale>
<asrwt>0</asrwt>
<pdfrwt beam="1">  1       21 0.20132719E+00 0.33072543E+03</pdfrwt>
<pdfrwt beam="2">  1       21 0.22500739E-01 0.33072543E+03</pdfrwt>
<totfact> 0.21868056E+03</totfact>
</mgrwt>
</event>
<event>
 4    0  0.1525083E-001  0.2834490E+03  0.7546771E-02  0.1093820E+00
         21   -1    0    0  502  501  0.00000000000E+00  0.00000000000E+00  0.93370696946E+03  0.93370696946E+03  0.00000000000E+00 0.  1.
         21   -1    0    0  503  502 -0.00000000000E+00 -0.00000000000E+00 -0.18761398848E+03  0.18761398848E+03  0.00000000000E+00 0.  1.
         25    1    1    2    0    0  0.24563006842E+03  0.66213226776E+02  0.81072004537E+03  0.85884242669E+03  0.12500000000E+03 0.  0.
         21    1    1    2  503  501 -0.24563006842E+03 -0.66213226776E+02 -0.64627064389E+02  0.26247853125E+03  0.00000000000E+00 0.  1.
<mgrwt>
<rscale>  3 0.28344898E+03</rscale>
<asrwt>0</asrwt>
<pdfrwt beam="1">  1       21 0.14364722E+00 0.28344898E+03</pdfrwt>
<pdfrwt beam="2">  1       21 0.28863691E-01 0.28344898E+03</pdfrwt>
<totfact> 0.35978865E+03</totfact>
</mgrwt>
</event>
<event>
 4    0  0.1525083E-001  0.2451558E+03  0.7546771E-02  0.1116405E+00
         21   -1    0    0  503  501  0.00000000000E+00  0.00000000000E+00  0.79859465048E+03  0.79859465048E+03  0.00000000000E+00 0. -1.
         21   -1    0    0  501  502 -0.00000000000E+00 -0.00000000000E+00 -0.19881743504E+03  0.19881743504E+03  0.00000000000E+00 0.  1.
         25    1    1    2    0    0  0.19866018556E+02 -0.20995649813E+03  0.71586404530E+03  0.75667874369E+03  0.12500000000E+03 0.  0.
         21    1    1    2  503  502 -0.19866018556E+02  0.20995649813E+03 -0.11608682986E+03  0.24073334183E+03  0.00000000000E+00 0.  1.
<mgrwt>
<rscale>  3 0.24515585E+03</rscale>
<asrwt>0</asrwt>
<pdfrwt beam="1">  1       21 0.12286071E+00 0.24515585E+03</pdfrwt>
<pdfrwt beam="2">  1       21 0.30587298E-01 0.24515585E+03</pdfrwt>
<totfact> 0.49156598E+03</totfact>
</mgrwt>
</event>
<event>
 4    0  0.1525083E-001  0.2652429E+03  0.7546771E-02  0.1104034E+00
         21   -1    0    0  503  501  0.00000000000E+00  0.00000000000E+00  0.93964946371E+02  0.93964946371E+02  0.00000000000E+00 0. -1.
         21   -1    0    0  501  502 -0.00000000000E+00 -0.00000000000E+00 -0.12248732924E+04  0.12248732924E+04  0.00000000000E+00 0. -1.
         25    1    1    2    0    0 -0.23149136987E+03 -0.33771596141E+02 -0.13849364988E+03  0.29922277000E+03  0.12500000000E+03 0.  0.
         21    1    1    2  503  502  0.23149136987E+03  0.33771596141E+02 -0.99241469615E+03  0.10196154688E+04  0.00000000000E+00 0. -1.
<mgrwt>
<rscale>  3 0.26524286E+03</rscale>
<asrwt>0</asrwt>
<pdfrwt beam="1">  1       21 0.14456145E-01 0.26524286E+03</pdfrwt>
<pdfrwt beam="2">  1       21 0.18844205E+00 0.26524286E+03</pdfrwt>
<totfact> 0.63407712E+03</totfact>
</mgrwt>
</event>
<event>
 4    0  0.1525083E-001  0.3110000E+03  0.7546771E-02  0.1079868E+00
         21   -1    0    0  503  501  0.00000000000E+00  0.00000000000E+00  0.99569184449E+02  0.99569184449E+02  0.00000000000E+00 0.  1.
         21   -1    0    0  501  502 -0.00000000000E+00 -0.00000000000E+00 -0.99315152942E+03  0.99315152942E+03  0.00000000000E+00 0.  1.
         25    1    1    2    0    0  0.10205991552E+03 -0.26585665964E+03 -0.28954421802E+03  0.42491980893E+03  0.12500000000E+03 0.  0.
         21    1    1    2  503  502 -0.10205991552E+03  0.26585665964E+03 -0.60403812695E+03  0.66780090494E+03  0.00000000000E+00 0.  1.
<mgrwt>
<rscale>  3 0.31099998E+03</rscale>
<asrwt>0</asrwt>
<pdfrwt beam="1">  1       21 0.15318337E-01 0.31099998E+03</pdfrwt>
<pdfrwt beam="2">  1       21 0.15279254E+00 0.31099998E+03</pdfrwt>
<totfact> 0.10003316E+04</totfact>
</mgrwt>
</event>
<event>
 4    0  0.1525083E-001  0.2997380E+03  0.7546771E-02  0.1085372E+00
         21   -1    0    0  503  501  0.00000000000E+00  0.00000000000E+00  0.14795675948E+04  0.14795675948E+04  0.00000000000E+00 0. -1.
         21   -1    0    0  501  502 -0.00000000000E+00 -0.00000000000E+00 -0.22164567962E+03  0.22164567962E+03  0.00000000000E+00 0. -1.
         25    1    1    2    0    0  0.23411270626E+03 -0.13931649470E+03  0.13731014595E+04  0.14054360401E+04  0.12500000000E+03 0.  0.
         21    1    1    2  503  502 -0.23411270626E+03  0.13931649470E+03 -0.11517954424E+03  0.29577723432E+03  0.00000000000E+00 0. -1.
<mgrwt>
<rscale>  3 0.29973796E+03</rscale>
<asrwt>0</asrwt>
<pdfrwt beam="1">  1       21 0.22762578E+00 0.29973796E+03</pdfrwt>
<pdfrwt beam="2">  1       21 0.34099336E-01 0.29973796E+03</pdfrwt>
<totfact> 0.67430544E+02</totfact>
</mgrwt>
</event>
<event>
 4    0  0.1525083E-001  0.2415751E+03  0.7546771E-02  0.1118748E+00
         21   -1    0    0  503  501  0.00000000000E+00  0.00000000000E+00  0.23860709547E+03  0.23860709547E+03  0.00000000000E+00 0.  1.
         21   -1    0    0  501  502 -0.00000000000E+00 -0.00000000000E+00 -0.30383740053E+03  0.30383740053E+03  0.00000000000E+00 0.  1.
         25    1    1    2    0    0  0.26595890306E+02  0.20500287607E+03  0.11558548618E+03  0.26780314635E+03  0.12500000000E+03 0.  0.
         21    1    1    2  503  502 -0.26595890306E+02 -0.20500287607E+03 -0.18081579123E+03  0.27464134965E+03  0.00000000000E+00 0.  1.
<mgrwt>
<rscale>  3 0.24157508E+03</rscale>
<asrwt>0</asrwt>
<pdfrwt beam="1">  1       21 0.36708784E-01 0.24157508E+03</pdfrwt>
<pdfrwt beam="2">  1       21 0.46744215E-01 0.24157508E+03</pdfrwt>
<totfact> 0.30591498E+04</totfact>
</mgrwt>
</event>
<event>
 4    0  0.1525083E-001  0.2720894E+03  0.7546771E-02  0.1100090E+00
         21   -1    0    0  503  501  0.00000000000E+00  0.00000000000E+00  0.47241020381E+03  0.47241020381E+03  0.00000000000E+00 0.  1.
         21   -1    0    0  501  502 -0.00000000000E+00 -0.00000000000E+00 -0.14079686275E+03  0.14079686275E+03  0.00000000000E+00 0. -1.
         25    1    1    2    0    0 -0.23279650579E+03 -0.64911002159E+02  0.14835315661E+03  0.30990532487E+03  0.12500000000E+03 0.  0.
         21    1    1    2  503  502  0.23279650579E+03  0.64911002159E+02  0.18326018445E+03  0.30330174169E+03  0.00000000000E+00 0. -1.
<mgrwt>
<rscale>  3 0.27208942E+03</rscale>
<asrwt>0</asrwt>
<pdfrwt beam="1">  1       21 0.72678492E-01 0.27208942E+03</pdfrwt>
<pdfrwt beam="2">  1       21 0.21661056E-01 0.27208942E+03</pdfrwt>
<totfact> 0.32636747E+04</totfact>
</mgrwt>
</event>
<event>
 4    0  0.1525083E-001  0.3879805E+03  0.7546771E-02  0.1048023E+00
         21   -1    0    0  503  501  0.00000000000E+00  0.00000000000E+00  0.85248010876E+03  0.85248010876E+03  0.00000000000E+00 0.  1.
         21   -1    0    0  501  502 -0.00000000000E+00 -0.00000000000E+00 -0.23558794231E+03  0.23558794231E+03  0.00000000000E+00 0.  1.
         25    1    1    2    0    0  0.11407439162E+03 -0.34912872396E+03  0.60729545991E+03  0.72065012894E+03  0.12500000000E+03 0.  0.
         21    1    1    2  503  502 -0.11407439162E+03  0.34912872396E+03  0.95967065451E+01  0.36741792212E+03  0.00000000000E+00 0.  1.
<mgrwt>
<rscale>  3 0.38798045E+03</rscale>
<asrwt>0</asrwt>
<pdfrwt beam="1">  1       21 0.13115078E+00 0.38798045E+03</pdfrwt>
<pdfrwt beam="2">  1       21 0.36244299E-01 0.38798045E+03</pdfrwt>
<totfact> 0.27494068E+03</totfact>
</mgrwt>
</event>
<event>
 4    0  0.1525083E-001  0.4284894E+03  0.7546771E-02  0.1034338E+00
         21   -1    0    0  502  501  0.00000000000E+00  0.00000000000E+00  0.41172672594E+03  0.41172672594E+03  0.00000000000E+00 0. -1.
         21   -1    0    0  503  502 -0.00000000000E+00 -0.00000000000E+00 -0.58013333952E+03  0.58013333952E+03  0.00000000000E+00 0. -1.
         25    1    1    2    0    0  0.33270127874E+03  0.23934912043E+03  0.16937762516E+03  0.46075147556E+03  0.12500000000E+03 0.  0.
         21    1    1    2  503  501 -0.33270127874E+03 -0.23934912043E+03 -0.33778423874E+03  0.53110858990E+03  0.00000000000E+00 0. -1.
<mgrwt>
<rscale>  3 0.42848937E+03</rscale>
<asrwt>0</asrwt>
<pdfrwt beam="1">  1       21 0.63342573E-01 0.42848937E+03</pdfrwt>
<pdfrwt beam="2">  1       21 0.89251283E-01 0.42848937E+03</pdfrwt>
<totfact> 0.21516065E+03</totfact>
</mgrwt>
</event>
<event>
 4    0  0.1525083E-001  0.3368353E+03  0.7546771E-02  0.1068152E+00
         21   -1    0    0  502  501  0.00000000000E+00  0.00000000000E+00  0.38314174446E+03  0.38314174446E+03  0.00000000000E+00 0. -1.
         21   -1    0    0  503  502 -0.00000000000E+00 -0.00000000000E+00 -0.36804381721E+03  0.36804381721E+03  0.00000000000E+00 0. -1.
         25    1    1    2    0    0  0.15089281162E+03  0.27397885006E+03  0.19614582999E+03  0.38978357777E+03  0.12500000000E+03 0.  0.
         21    1    1    2  503  501 -0.15089281162E+03 -0.27397885006E+03 -0.18104790273E+03  0.36140198390E+03  0.00000000000E+00 0. -1.
<mgrwt>
<rscale>  3 0.33683535E+03</rscale>
<asrwt>0</asrwt>
<pdfrwt beam="1">  1       21 0.58944883E-01 0.33683535E+03</pdfrwt>
<pdfrwt beam="2">  1       21 0.56622126E-01 0.33683535E+03</pdfrwt>
<totfact> 0.72863512E+03</totfact>
</mgrwt>
</event>
<event>
 4    0  0.1525083E-001  0.3014013E+03  0.7546771E-02  0.1084542E+00
         21   -1    0    0  503  501  0.00000000000E+00  0.00000000000E+00  0.77435466065E+02  0.77435466065E+02  0.00000000000E+00 0.  1.
         21   -1    0    0  501  502 -0.00000000000E+00 -0.00000000000E+00 -0.10949562452E+04  0.10949562452E+04  0.00000000000E+00 0.  1.
         25    1    1    2    0    0  0.23627074985E+03  0.13926187428E+03 -0.44357130604E+03  0.53628186656E+03  0.12500000000E+03 0.  0.
         21    1    1    2  503  502 -0.23627074985E+03 -0.13926187428E+03 -0.57394947311E+03  0.63610984471E+03  0.00000000000E+00 0.  1.
<mgrwt>
<rscale>  3 0.30140129E+03</rscale>
<asrwt>0</asrwt>
<pdfrwt beam="1">  1       21 0.11913149E-01 0.30140129E+03</pdfrwt>
<pdfrwt beam="2">  1       21 0.16845480E+00 0.30140129E+03</pdfrwt>
<totfact> 0.12160579E+04</totfact>
</mgrwt>
</event>
<event>
 4    0  0.1525083E-001  0.3039520E+03  0.7546771E-02  0.1083282E+00
         21   -1    0    0  502  501  0.00000000000E+00  0.00000000000E+00  0.17459329571E+04  0.17459329571E+04  0.00000000000E+00 0. -1.
         21   -1    0    0  503  502 -0.00000000000E+00 -0.00000000000E+00 -0.52595303935E+02  0.52595303935E+02  0.00000000000E+00 0. -1.
         25    1    1    2    0    0  0.20647452148E+03  0.18474329889E+03  0.62706562705E+03  0.69684870319E+03  0.12500000000E+03 0.  0.
         21    1    1    2  503  501 -0.20647452148E+03 -0.18474329889E+03  0.10662720261E+04  0.11016795578E+04  0.00000000000E+00 0. -1.
<mgrwt>
<rscale>  3 0.30395199E+03</rscale>
<asrwt>0</asrwt>
<pdfrwt beam="1">  1       21 0.26860503E+00 0.30395199E+03</pdfrwt>
<pdfrwt beam="2">  1       21 0.80915865E-02 0.30395199E+03</pdfrwt>
<totfact> 0.55445718E+03</totfact>
</mgrwt>
</event>
<event>
 4    0  0.1525083E-001  0.2424161E+03  0.7546771E-02  0.1118194E+00
         21   -1    0    0  503  501  0.00000000000E+00  0.00000000000E+00  0.43313514977E+03  0.43313514977E+03  0.00000000000E+00 0. -1.
         21   -1    0    0  501  502 -0.00000000000E+00 -0.00000000000E+00 -0.13468756145E+03  0.13468756145E+03  0.00000000000E+00 0.  1.
         25    1    1    2    0    0 -0.39124760935E+02  0.20398489649E+03  0.26200204914E+03  0.35694629661E+03  0.12500000000E+03 0.  0.
         21    1    1    2  503  502  0.39124760935E+02 -0.20398489649E+03  0.36445539174E+02  0.21087641461E+03  0.00000000000E+00 0.  1.
<mgrwt>
<rscale>  3 0.24241614E+03</rscale>
<asrwt>0</asrwt>
<pdfrwt beam="1">  1       21 0.66636176E-01 0.24241614E+03</pdfrwt>
<pdfrwt beam="2">  1       21 0.20721164E-01 0.24241614E+03</pdfrwt>
<totfact> 0.43563100E+04</totfact>
</mgrwt>
</event>
<event>
 4    0  0.1525083E-001  0.3211011E+03  0.7546771E-02  0.1075144E+00
         21   -1    0    0  502  501  0.00000000000E+00  0.00000000000E+00  0.11307406575E+04  0.11307406575E+04  0.00000000000E+00 0. -1.
         21   -1    0    0  503  502 -0.00000000000E+00 -0.00000000000E+00 -0.23794413720E+03  0.23794413720E+03  0.00000000000E+00 0.  1.
         25    1    1    2    0    0  0.13061430707E+03 -0.26536916842E+03  0.10029263624E+04  0.10530751071E+04  0.12500000000E+03 0.  0.
         21    1    1    2  503  501 -0.13061430707E+03  0.26536916842E+03 -0.11012984215E+03  0.31560968757E+03  0.00000000000E+00 0.  1.
<mgrwt>
<rscale>  3 0.32110106E+03</rscale>
<asrwt>0</asrwt>
<pdfrwt beam="1">  1       21 0.17396010E+00 0.32110106E+03</pdfrwt>
<pdfrwt beam="2">  1       21 0.36606791E-01 0.32110106E+03</pdfrwt>
<totfact> 0.12990596E+03</totfact>
</mgrwt>
</event>
<event>
 4    0  0.1525083E-001  0.2527822E+03  0.7546771E-02  0.1111559E+00
         21   -1    0    0  503  501  0.00000000000E+00  0.00000000000E+00  0.29465181565E+02  0.29465181565E+02  0.00000000000E+00 0.  1.
         21   -1    0    0  501  502 -0.00000000000E+00 -0.00000000000E+00 -0.19333902312E+04  0.19333902312E+04  0.00000000000E+00 0.  1.
         25    1    1    2    0    0  0.12657754426E+02 -0.21934817462E+03 -0.11566316682E+04  0.11839322854E+04  0.12500000000E+03 0.  0.
         21    1    1    2  503  502 -0.12657754426E+02  0.21934817462E+03 -0.74729338143E+03  0.77892312739E+03  0.00000000000E+00 0.  1.
<mgrwt>
<rscale>  3 0.25278220E+03</rscale>
<asrwt>0</asrwt>
<pdfrwt beam="1">  1       21 0.45331051E-02 0.25278220E+03</pdfrwt>
<pdfrwt beam="2">  1       21 0.29744463E+00 0.25278220E+03</pdfrwt>
<totfact> 0.10597580E+04</totfact>
</mgrwt>
</event>
<event>
 4    0  0.1525083E-001  0.2550038E+03  0.7546771E-02  0.1110183E+00
         21   -1    0    0  503  501  0.00000000000E+00  0.00000000000E+00  0.16780692447E+04  0.16780692447E+04  0.00000000000E+00 0. -1.
         21   -1    0    0  501  502 -0.00000000000E+00 -0.00000000000E+00 -0.93572703260E+02  0.93572703260E+02  0.00000000000E+00 0. -1.
         25    1    1    2    0    0  0.20850278012E+03  0.76996948014E+02  0.15185322726E+04  0.15397945325E+04  0.12500000000E+03 0.  0.
         21    1    1    2  503  502 -0.20850278012E+03 -0.76996948014E+02  0.65964268904E+02  0.23184741555E+03  0.00000000000E+00 0. -1.
<mgrwt>
<rscale>  3 0.25500380E+03</rscale>
<asrwt>0</asrwt>
<pdfrwt beam="1">  1       21 0.25816448E+00 0.25500380E+03</pdfrwt>
<pdfrwt beam="2">  1       21 0.14395802E-01 0.25500380E+03</pdfrwt>
<totfact> 0.23649749E+03</totfact>
</mgrwt>
</event>
<event>
 4    0  0.1525083E-001  0.2667476E+03  0.7546771E-02  0.1103156E+00
         21   -1    0    0  502  501  0.00000000000E+00  0.00000000000E+00  0.16058126174E+03  0.16058126174E+03  0.00000000000E+00 0. -1.
         21   -1    0    0  503  502 -0.00000000000E+00 -0.00000000000E+00 -0.60550257029E+03  0.60550257029E+03  0.00000000000E+00 0. -1.
         25    1    1    2    0    0  0.98243931730E+02  0.21419016019E+03 -0.47333731636E+01  0.26678961686E+03  0.12500000000E+03 0.  0.
         21    1    1    2  503  501 -0.98243931730E+02 -0.21419016019E+03 -0.44018793538E+03  0.49929421517E+03  0.00000000000E+00 0. -1.
<mgrwt>
<rscale>  3 0.26674762E+03</rscale>
<asrwt>0</asrwt>
<pdfrwt beam="1">  1       21 0.24704810E-01 0.26674762E+03</pdfrwt>
<pdfrwt beam="2">  1       21 0.93154240E-01 0.26674762E+03</pdfrwt>
<totfact> 0.14400351E+04</totfact>
</mgrwt>
</event>
<event>
 4    0  0.1525083E-001  0.2737567E+03  0.7546771E-02  0.1099149E+00
         21   -1    0    0  503  501  0.00000000000E+00  0.00000000000E+00  0.24588993225E+03  0.24588993225E+03  0.00000000000E+00 0. -1.
         21   -1    0    0  501  502 -0.00000000000E+00 -0.00000000000E+00 -0.61744923732E+03  0.61744923732E+03  0.00000000000E+00 0.  1.
         25    1    1    2    0    0 -0.23478441790E+03 -0.64761196257E+02  0.13204102691E+03  0.30393678326E+03  0.12500000000E+03 0.  0.
         21    1    1    2  503  502  0.23478441790E+03  0.64761196257E+02 -0.50360033198E+03  0.55940238630E+03  0.00000000000E+00 0.  1.
<mgrwt>
<rscale>  3 0.27375671E+03</rscale>
<asrwt>0</asrwt>
<pdfrwt beam="1">  1       21 0.37829220E-01 0.27375671E+03</pdfrwt>
<pdfrwt beam="2">  1       21 0.94992190E-01 0.27375671E+03</pdfrwt>
<totfact> 0.59194572E+03</totfact>
</mgrwt>
</event>
<event>
 4    0  0.1525083E-001  0.3554850E+03  0.7546771E-02  0.1060386E+00
         21   -1    0    0  503  501  0.00000000000E+00  0.00000000000E+00  0.31405947259E+03  0.31405947259E+03  0.00000000000E+00 0. -1.
         21   -1    0    0  501  502 -0.00000000000E+00 -0.00000000000E+00 -0.47959771418E+03  0.47959771418E+03  0.00000000000E+00 0.  1.
         25    1    1    2    0    0  0.21763493354E+03  0.25175312637E+03  0.98467622486E+02  0.36887053774E+03  0.12500000000E+03 0.  0.
         21    1    1    2  503  502 -0.21763493354E+03 -0.25175312637E+03 -0.26400586407E+03  0.42478664903E+03  0.00000000000E+00 0.  1.
<mgrwt>
<rscale>  3 0.35548502E+03</rscale>
<asrwt>0</asrwt>
<pdfrwt beam="1">  1       21 0.48316842E-01 0.35548502E+03</pdfrwt>
<pdfrwt beam="2">  1       21 0.73784263E-01 0.35548502E+03</pdfrwt>
<totfact> 0.61641852E+03</totfact>
</mgrwt>
</event>
<event>
 4    0  0.1525083E-001  0.3102208E+03  0.7546771E-02  0.1080240E+00
         21   -1    0    0  503  501  0.00000000000E+00  0.00000000000E+00  0.17981902480E+04  0.17981902480E+04  0.00000000000E+00 0.  1.
         21   -1    0    0  501  502 -0.00000000000E+00 -0.00000000000E+00 -0.57932854984E+02  0.57932854984E+02  0.00000000000E+00 0.  1.
         25    1    1    2    0    0 -0.27557422614E+03  0.68343252067E+02  0.12652867722E+04  0.13027615170E+04  0.12500000000E+03 0.  0.
         21    1    1    2  503  502  0.27557422614E+03 -0.68343252067E+02  0.47497062073E+03  0.55336158592E+03  0.00000000000E+00 0.  1.
<mgrwt>
<rscale>  3 0.31022082E+03</rscale>
<asrwt>0</asrwt>
<pdfrwt beam="1">  1       21 0.27664461E+00 0.31022082E+03</pdfrwt>
<pdfrwt beam="2">  1       21 0.89127483E-02 0.31022082E+03</pdfrwt>
<totfact> 0.41707848E+03</totfact>
</mgrwt>
</event>
<event>
 4    0  0.1525083E-001  0.2707665E+03  0.7546771E-02  0.1100842E+00
         21   -1    0    0  502  501  0.00000000000E+00  0.00000000000E+00  0.22791016551E+03  0.22791016551E+03  0.00000000000E+00 0. -1.
         21   -1    0    0  503  502 -0.00000000000E+00 -0.00000000000E+00 -0.28920749533E+03  0.28920749533E+03  0.00000000000E+00 0. -1.
         25    1    1    2    0    0 -0.23176729887E+03  0.63035093584E+02 -0.57998967937E+02  0.27690862054E+03  0.12500000000E+03 0.  0.
         21    1    1    2  503  501  0.23176729887E+03 -0.63035093584E+02 -0.32983618896E+01  0.24020904030E+03  0.00000000000E+00 0. -1.
<mgrwt>
<rscale>  3 0.27076651E+03</rscale>
<asrwt>0</asrwt>
<pdfrwt beam="1">  1       21 0.35063102E-01 0.27076651E+03</pdfrwt>
<pdfrwt beam="2">  1       21 0.44493461E-01 0.27076651E+03</pdfrwt>
<totfact> 0.36694252E+04</totfact>
</mgrwt>
</event>
<event>
 4    0  0.1525083E-001  0.3873262E+03  0.7546771E-02  0.1048259E+00
         21   -1    0    0  503  501  0.00000000000E+00  0.00000000000E+00  0.26353179508E+03  0.26353179508E+03  0.00000000000E+00 0. -1.
         21   -1    0    0  501  502 -0.00000000000E+00 -0.00000000000E+00 -0.11872809367E+04  0.11872809367E+04  0.00000000000E+00 0. -1.
         25    1    1    2    0    0 -0.27855881558E+03 -0.23833085365E+03  0.68202486209E+02  0.39328512388E+03  0.12500000000E+03 0.  0.
         21    1    1    2  503  502  0.27855881558E+03  0.23833085365E+03 -0.99195162787E+03  0.10575276079E+04  0.00000000000E+00 0. -1.
<mgrwt>
<rscale>  3 0.38732623E+03</rscale>
<asrwt>0</asrwt>
<pdfrwt beam="1">  1       21 0.40543352E-01 0.38732623E+03</pdfrwt>
<pdfrwt beam="2">  1       21 0.18265861E+00 0.38732623E+03</pdfrwt>
<totfact> 0.88212875E+02</totfact>
</mgrwt>
</event>
<event>
 4    0  0.1525083E-001  0.2622671E+03  0.7546771E-02  0.1105789E+00
         21   -1    0    0  502  501  0.00000000000E+00  0.00000000000E+00  0.64333218461E+03  0.64333218461E+03  0.00000000000E+00 0. -1.
         21   -1    0    0  503  502 -0.00000000000E+00 -0.00000000000E+00 -0.30719194097E+03  0.30719194097E+03  0.00000000000E+00 0.  1.
         25    1    1    2    0    0 -0.18976335704E+03 -0.13095386198E+03  0.56670952531E+03  0.62445474754E+03  0.12500000000E+03 0.  0.
         21    1    1    2  503  501  0.18976335704E+03  0.13095386198E+03 -0.23056928167E+03  0.32606937803E+03  0.00000000000E+00 0.  1.
<mgrwt>
<rscale>  3 0.26226713E+03</rscale>
<asrwt>0</asrwt>
<pdfrwt beam="1">  1       21 0.98974182E-01 0.26226713E+03</pdfrwt>
<pdfrwt beam="2">  1       21 0.47260299E-01 0.26226713E+03</pdfrwt>
<totfact> 0.34237262E+03</totfact>
</mgrwt>
</event>
<event>
 4    0  0.1525083E-001  0.2940496E+03  0.7546771E-02  0.1088254E+00
         21   -1    0    0  502  501  0.00000000000E+00  0.00000000000E+00  0.26565056481E+03  0.26565056481E+03  0.00000000000E+00 0. -1.
         21   -1    0    0  503  502 -0.00000000000E+00 -0.00000000000E+00 -0.33336055545E+03  0.33336055545E+03  0.00000000000E+00 0. -1.
         25    1    1    2    0    0  0.14187109115E+03 -0.22519496649E+03 -0.13638034299E+03  0.32413697319E+03  0.12500000000E+03 0.  0.
         21    1    1    2  503  501 -0.14187109115E+03  0.22519496649E+03  0.68670352351E+02  0.27487414707E+03  0.00000000000E+00 0. -1.
<mgrwt>
<rscale>  3 0.29404962E+03</rscale>
<asrwt>0</asrwt>
<pdfrwt beam="1">  1       21 0.40869318E-01 0.29404962E+03</pdfrwt>
<pdfrwt beam="2">  1       21 0.51286239E-01 0.29404962E+03</pdfrwt>
<totfact> 0.19810625E+04</totfact>
</mgrwt>
</event>
<event>
 4    0  0.1525083E-001  0.2606805E+03  0.7546771E-02  0.1106735E+00
         21   -1    0    0  503  501  0.00000000000E+00  0.00000000000E+00  0.32569428644E+03  0.32569428644E+03  0.00000000000E+00 0.  1.
         21   -1    0    0  501  502 -0.00000000000E+00 -0.00000000000E+00 -0.20518886584E+03  0.20518886584E+03  0.00000000000E+00 0.  1.
         25    1    1    2    0    0 -0.18978336638E+03 -0.12771680968E+03  0.14916207877E+03  0.30033920053E+03  0.12500000000E+03 0.  0.
         21    1    1    2  503  502  0.18978336638E+03  0.12771680968E+03 -0.28656658178E+02  0.23054395175E+03  0.00000000000E+00 0.  1.
<mgrwt>
<rscale>  3 0.26068047E+03</rscale>
<asrwt>0</asrwt>
<pdfrwt beam="1">  1       21 0.50106813E-01 0.26068047E+03</pdfrwt>
<pdfrwt beam="2">  1       21 0.31567518E-01 0.26068047E+03</pdfrwt>
<totfact> 0.35438284E+04</totfact>
</mgrwt>
</event>
<event>
 4    0  0.1525083E-001  0.2458961E+03  0.7546771E-02  0.1115926E+00
         21   -1    0    0  503  501  0.00000000000E+00  0.00000000000E+00  0.11100622015E+04  0.11100622015E+04  0.00000000000E+00 0. -1.
         21   -1    0    0  501  502 -0.00000000000E+00 -0.00000000000E+00 -0.19401610828E+03  0.19401610828E+03  0.00000000000E+00 0.  1.
         25    1    1    2    0    0 -0.12512831622E+03 -0.17082971241E+03  0.10332126519E+04  0.10620702755E+04  0.12500000000E+03 0.  0.
         21    1    1    2  503  502  0.12512831622E+03  0.17082971241E+03 -0.11716655867E+03  0.24200803423E+03  0.00000000000E+00 0.  1.
<mgrwt>
<rscale>  3 0.24589609E+03</rscale>
<asrwt>0</asrwt>
<pdfrwt beam="1">  1       21 0.17077880E+00 0.24589609E+03</pdfrwt>
<pdfrwt beam="2">  1       21 0.29848633E-01 0.24589609E+03</pdfrwt>
<totfact> 0.21635964E+03</totfact>
</mgrwt>
</event>
<event>
 4    0  0.1525083E-001  0.4318541E+03  0.7546771E-02  0.1033276E+00
         21   -1    0    0  503  501  0.00000000000E+00  0.00000000000E+00  0.19193402467E+04  0.19193402467E+04  0.00000000000E+00 0. -1.
         21   -1    0    0  501  502 -0.00000000000E+00 -0.00000000000E+00 -0.12554518563E+03  0.12554518563E+03  0.00000000000E+00 0. -1.
         25    1    1    2    0    0  0.31719266294E+03  0.26506944813E+03  0.14314959082E+04  0.14952185569E+04  0.12500000000E+03 0.  0.
         21    1    1    2  503  502 -0.31719266294E+03 -0.26506944813E+03  0.36229915287E+03  0.54966687541E+03  0.00000000000E+00 0. -1.
<mgrwt>
<rscale>  3 0.43185414E+03</rscale>
<asrwt>0</asrwt>
<pdfrwt beam="1">  1       21 0.29528309E+00 0.43185414E+03</pdfrwt>
<pdfrwt beam="2">  1       21 0.19314645E-01 0.43185414E+03</pdfrwt>
<totfact> 0.72693045E+02</totfact>
</mgrwt>
</event>
<event>
 4    0  0.1525083E-001  0.4929727E+03  0.7546771E-02  0.1015630E+00
         21   -1    0    0  503  501  0.00000000000E+00  0.00000000000E+00  0.39471276379E+03  0.39471276379E+03  0.00000000000E+00 0. -1.
         21   -1    0    0  501  502 -0.00000000000E+00 -0.00000000000E+00 -0.80482631430E+03  0.80482631430E+03  0.00000000000E+00 0. -1.
         25    1    1    2    0    0  0.14042295239E+03  0.45571752395E+03  0.98093819540E+02  0.50263750817E+03  0.12500000000E+03 0.  0.
         21    1    1    2  503  502 -0.14042295239E+03 -0.45571752395E+03 -0.50820737005E+03  0.69690156993E+03  0.00000000000E+00 0. -1.
<mgrwt>
<rscale>  3 0.49297268E+03</rscale>
<asrwt>0</asrwt>
<pdfrwt beam="1">  1       21 0.60725041E-01 0.49297268E+03</pdfrwt>
<pdfrwt beam="2">  1       21 0.12381943E+00 0.49297268E+03</pdfrwt>
<totfact> 0.10295091E+03</totfact>
</mgrwt>
</event>
<event>
 4    0  0.1525083E-001  0.2689802E+03  0.7546771E-02  0.1101865E+00
         21   -1    0    0  503  501  0.00000000000E+00  0.00000000000E+00  0.84502995127E+03  0.84502995127E+03  0.00000000000E+00 0. -1.
         21   -1    0    0  501  502 -0.00000000000E+00 -0.00000000000E+00 -0.84077667548E+02  0.84077667548E+02  0.00000000000E+00 0. -1.
         25    1    1    2    0    0  0.23316262246E+03  0.48585280582E+02  0.25846982592E+03  0.37303751676E+03  0.12500000000E+03 0.  0.
         21    1    1    2  503  502 -0.23316262246E+03 -0.48585280582E+02  0.50248245780E+03  0.55607010205E+03  0.00000000000E+00 0. -1.
<mgrwt>
<rscale>  3 0.26898018E+03</rscale>
<asrwt>0</asrwt>
<pdfrwt beam="1">  1       21 0.13000460E+00 0.26898018E+03</pdfrwt>
<pdfrwt beam="2">  1       21 0.12935026E-01 0.26898018E+03</pdfrwt>
<totfact> 0.21241433E+04</totfact>
</mgrwt>
</event>
<event>
 4    0  0.1525083E-001  0.2812941E+03  0.7546771E-02  0.1094984E+00
         21   -1    0    0  503  501  0.00000000000E+00  0.00000000000E+00  0.19594613584E+03  0.19594613584E+03  0.00000000000E+00 0. -1.
         21   -1    0    0  501  502 -0.00000000000E+00 -0.00000000000E+00 -0.36448491436E+03  0.36448491436E+03  0.00000000000E+00 0. -1.
         25    1    1    2    0    0 -0.54001742209E+02 -0.24614060030E+03 -0.70145764293E+02  0.28990828123E+03  0.12500000000E+03 0.  0.
         21    1    1    2  503  502  0.54001742209E+02  0.24614060030E+03 -0.98393014231E+02  0.27052276896E+03  0.00000000000E+00 0. -1.
<mgrwt>
<rscale>  3 0.28129412E+03</rscale>
<asrwt>0</asrwt>
<pdfrwt beam="1">  1       21 0.30145560E-01 0.28129412E+03</pdfrwt>
<pdfrwt beam="2">  1       21 0.56074602E-01 0.28129412E+03</pdfrwt>
<totfact> 0.30315343E+04</totfact>
</mgrwt>
</event>
<event>
 4    0  0.1525083E-001  0.2750753E+03  0.7546771E-02  0.1098410E+00
         21   -1    0    0  502  501  0.00000000000E+00  0.00000000000E+00  0.12781373140E+04  0.12781373140E+04  0.00000000000E+00 0.  1.
         21   -1    0    0  503  502 -0.00000000000E+00 -0.00000000000E+00 -0.19160155981E+03  0.19160155981E+03  0.00000000000E+00 0.  1.
         25    1    1    2    0    0  0.72251083831E+01  0.24492691655E+03  0.11768658606E+04  0.12085858060E+04  0.12500000000E+03 0.  0.
         21    1    1    2  503  501 -0.72251083831E+01 -0.24492691655E+03 -0.90330106496E+02  0.26115306773E+03  0.00000000000E+00 0.  1.
<mgrwt>
<rscale>  3 0.27507526E+03</rscale>
<asrwt>0</asrwt>
<pdfrwt beam="1">  1       21 0.19663650E+00 0.27507526E+03</pdfrwt>
<pdfrwt beam="2">  1       21 0.29477164E-01 0.27507526E+03</pdfrwt>
<totfact> 0.14444833E+03</totfact>
</mgrwt>
</event>
<event>
 4    0  0.1525083E-001  0.2754071E+03  0.7546771E-02  0.1098224E+00
         21   -1    0    0  502  501  0.00000000000E+00  0.00000000000E+00  0.13575735539E+04  0.13575735539E+04  0.00000000000E+00 0. -1.
         21   -1    0    0  503  502 -0.00000000000E+00 -0.00000000000E+00 -0.12995326460E+03  0.12995326460E+03  0.00000000000E+00 0. -1.
         25    1    1    2    0    0  0.10625961168E+03  0.22120801847E+03  0.12105993681E+04  0.12415312814E+04  0.12500000000E+03 0.  0.
         21    1    1    2  503  501 -0.10625961168E+03 -0.22120801847E+03  0.17020921133E+02  0.24599553709E+03  0.00000000000E+00 0. -1.
<mgrwt>
<rscale>  3 0.27540714E+03</rscale>
<asrwt>0</asrwt>
<pdfrwt beam="1">  1       21 0.20885746E+00 0.27540714E+03</pdfrwt>
<pdfrwt beam="2">  1       21 0.19992811E-01 0.27540714E+03</pdfrwt>
<totfact> 0.25361944E+03</totfact>
</mgrwt>
</event>
<event>
 4    0  0.1525083E-001  0.2390110E+03  0.7546771E-02  0.1120453E+00
         21   -1    0    0  503  501  0.00000000000E+00  0.00000000000E+00  0.10447320278E+04  0.10447320278E+04  0.00000000000E+00 0.  1.
         21   -1    0    0  501  502 -0.00000000000E+00 -0.00000000000E+00 -0.83129424435E+02  0.83129424435E+02  0.00000000000E+00 0. -1.
         25    1    1    2    0    0  0.15888424494E+03 -0.12750312815E+03  0.87402507969E+03  0.90611593679E+03  0.12500000000E+03 0.  0.
         21    1    1    2  503  502 -0.15888424494E+03  0.12750312815E+03  0.87577523717E+02  0.22174551549E+03  0.00000000000E+00 0. -1.
<mgrwt>
<rscale>  3 0.23901099E+03</rscale>
<asrwt>0</asrwt>
<pdfrwt beam="1">  1       21 0.16072800E+00 0.23901099E+03</pdfrwt>
<pdfrwt beam="2">  1       21 0.12789143E-01 0.23901099E+03</pdfrwt>
<totfact> 0.12605378E+04</totfact>
</mgrwt>
</event>
<event>
 4    0  0.1525083E-001  0.2608369E+03  0.7546771E-02  0.1106641E+00
         21   -1    0    0  502  501  0.00000000000E+00  0.00000000000E+00  0.52046091004E+03  0.52046091004E+03  0.00000000000E+00 0. -1.
         21   -1    0    0  503  502 -0.00000000000E+00 -0.00000000000E+00 -0.25090479879E+03  0.25090479879E+03  0.00000000000E+00 0. -1.
         25    1    1    2    0    0 -0.52845086911E+02  0.22275161449E+03  0.42215337021E+03  0.49623517907E+03  0.12500000000E+03 0.  0.
         21    1    1    2  503  501  0.52845086911E+02 -0.22275161449E+03 -0.15259725896E+03  0.27513052977E+03  0.00000000000E+00 0. -1.
<mgrwt>
<rscale>  3 0.26083689E+03</rscale>
<asrwt>0</asrwt>
<pdfrwt beam="1">  1       21 0.80070909E-01 0.26083689E+03</pdfrwt>
<pdfrwt beam="2">  1       21 0.38600738E-01 0.26083689E+03</pdfrwt>
<totfact> 0.85092227E+03</totfact>
</mgrwt>
</event>
<event>
 4    0  0.1525083E-001  0.2699113E+03  0.7546771E-02  0.1101330E+00
         21   -1    0    0  503  501  0.00000000000E+00  0.00000000000E+00  0.18845034531E+03  0.18845034531E+03  0.00000000000E+00 0.  1.
         21   -1    0    0  501  502 -0.00000000000E+00 -0.00000000000E+00 -0.92843207302E+03  0.92843207302E+03  0.00000000000E+00 0.  1.
         25    1    1    2    0    0  0.43088948158E+02  0.23530928764E+03  0.64563204270E+02  0.27752572070E+03  0.12500000000E+03 0.  0.
         21    1    1    2  503  502 -0.43088948158E+02 -0.23530928764E+03 -0.80454493198E+03  0.83935669764E+03  0.00000000000E+00 0.  1.
<mgrwt>
<rscale>  3 0.26991132E+03</rscale>
<asrwt>0</asrwt>
<pdfrwt beam="1">  1       21 0.28992361E-01 0.26991132E+03</pdfrwt>
<pdfrwt beam="2">  1       21 0.14283570E+00 0.26991132E+03</pdfrwt>
<totfact> 0.36509571E+03</totfact>
</mgrwt>
</event>
<event>
 4    0  0.1525083E-001  0.2452446E+03  0.7546771E-02  0.1116348E+00
         21   -1    0    0  502  501  0.00000000000E+00  0.00000000000E+00  0.13452764410E+03  0.13452764410E+03  0.00000000000E+00 0. -1.
         21   -1    0    0  503  502 -0.00000000000E+00 -0.00000000000E+00 -0.63779623612E+03  0.63779623612E+03  0.00000000000E+00 0. -1.
         25    1    1    2    0    0  0.17656583785E+03  0.11551813202E+03 -0.21269665287E+02  0.24616525462E+03  0.12500000000E+03 0.  0.
         21    1    1    2  503  501 -0.17656583785E+03 -0.11551813202E+03 -0.48199892673E+03  0.52615862560E+03  0.00000000000E+00 0. -1.
<mgrwt>
<rscale>  3 0.24524464E+03</rscale>
<asrwt>0</asrwt>
<pdfrwt beam="1">  1       21 0.20696560E-01 0.24524464E+03</pdfrwt>
<pdfrwt beam="2">  1       21 0.98122500E-01 0.24524464E+03</pdfrwt>
<totfact> 0.18030758E+04</totfact>
</mgrwt>
</event>
<event>
 4    0  0.1525083E-001  0.2957318E+03  0.7546771E-02  0.1087394E+00
         21   -1    0    0  503  501  0.00000000000E+00  0.00000000000E+00  0.49263816904E+02  0.49263816904E+02  0.00000000000E+00 0.  1.
         21   -1    0    0  501  502 -0.00000000000E+00 -0.00000000000E+00 -0.16128315628E+04  0.16128315628E+04  0.00000000000E+00 0.  1.
         25    1    1    2    0    0  0.23452667539E+03  0.12972869767E+03 -0.82381472860E+03  0.87528738339E+03  0.12500000000E+03 0.  0.
         21    1    1    2  503  502 -0.23452667539E+03 -0.12972869767E+03 -0.73975301733E+03  0.78680799634E+03  0.00000000000E+00 0.  1.
<mgrwt>
<rscale>  3 0.29573180E+03</rscale>
<asrwt>0</asrwt>
<pdfrwt beam="1">  1       21 0.75790482E-02 0.29573180E+03</pdfrwt>
<pdfrwt beam="2">  1       21 0.24812795E+00 0.29573180E+03</pdfrwt>
<totfact> 0.82895989E+03</totfact>
</mgrwt>
</event>
<event>
 4    0  0.1525083E-001  0.3573253E+03  0.7546771E-02  0.1059648E+00
         21   -1    0    0  503  501  0.00000000000E+00  0.00000000000E+00  0.20633045337E+03  0.20633045337E+03  0.00000000000E+00 0. -1.
         21   -1    0    0  501  502 -0.00000000000E+00 -0.00000000000E+00 -0.86128208688E+03  0.86128208688E+03  0.00000000000E+00 0. -1.
         25    1    1    2    0    0  0.18065885959E+02  0.33426034978E+03 -0.29909151400E+02  0.35857483878E+03  0.12500000000E+03 0.  0.
         21    1    1    2  503  502 -0.18065885959E+02 -0.33426034978E+03 -0.62504248211E+03  0.70903770147E+03  0.00000000000E+00 0. -1.
<mgrwt>
<rscale>  3 0.35732528E+03</rscale>
<asrwt>0</asrwt>
<pdfrwt beam="1">  1       21 0.31743146E-01 0.35732528E+03</pdfrwt>
<pdfrwt beam="2">  1       21 0.13250494E+00 0.35732528E+03</pdfrwt>
<totfact> 0.35426121E+03</totfact>
</mgrwt>
</event>
<event>
 4    0  0.1525083E-001  0.2711129E+03  0.7546771E-02  0.1100644E+00
         21   -1    0    0  503  501  0.00000000000E+00  0.00000000000E+00  0.13270512151E+04  0.13270512151E+04  0.00000000000E+00 0.  1.
         21   -1    0    0  501  502 -0.00000000000E+00 -0.00000000000E+00 -0.20896825641E+03  0.20896825641E+03  0.00000000000E+00 0.  1.
         25    1    1    2    0    0  0.20580549096E+03  0.12458450276E+03  0.12379114907E+04  0.12672517734E+04  0.12500000000E+03 0.  0.
         21    1    1    2  503  502 -0.20580549096E+03 -0.12458450276E+03 -0.11982853202E+03  0.26876769807E+03  0.00000000000E+00 0.  1.
<mgrwt>
<rscale>  3 0.27111289E+03</rscale>
<asrwt>0</asrwt>
<pdfrwt beam="1">  1       21 0.20416172E+00 0.27111289E+03</pdfrwt>
<pdfrwt beam="2">  1       21 0.32148963E-01 0.27111289E+03</pdfrwt>
<totfact> 0.10907510E+03</totfact>
</mgrwt>
</event>
<event>
 4    0  0.1525083E-001  0.2791355E+03  0.7546771E-02  0.1096162E+00
         21   -1    0    0  503  501  0.00000000000E+00  0.00000000000E+00  0.18319619791E+03  0.18319619791E+03  0.00000000000E+00 0. -1.
         21   -1    0    0  501  502 -0.00000000000E+00 -0.00000000000E+00 -0.44708503509E+03  0.44708503509E+03  0.00000000000E+00 0. -1.
         25    1    1    2    0    0 -0.18886945817E+03  0.16315616971E+03 -0.17679026945E+02  0.27969475494E+03  0.12500000000E+03 0.  0.
         21    1    1    2  503  502  0.18886945817E+03 -0.16315616971E+03 -0.24620981024E+03  0.35058647806E+03  0.00000000000E+00 0. -1.
<mgrwt>
<rscale>  3 0.27913547E+03</rscale>
<asrwt>0</asrwt>
<pdfrwt beam="1">  1       21 0.28184031E-01 0.27913547E+03</pdfrwt>
<pdfrwt beam="2">  1       21 0.68782312E-01 0.27913547E+03</pdfrwt>
<totfact> 0.22176004E+04</totfact>
</mgrwt>
</event>
<event>
 4    0  0.1525083E-001  0.3411637E+03  0.7546771E-02  0.1066301E+00
         21   -1    0    0  502  501  0.00000000000E+00  0.00000000000E+00  0.18859979391E+03  0.18859979391E+03  0.00000000000E+00 0. -1.
         21   -1    0    0  503  502 -0.00000000000E+00 -0.00000000000E+00 -0.77524894254E+03  0.77524894254E+03  0.00000000000E+00 0.  1.
         25    1    1    2    0    0  0.31650379115E+03 -0.24352065957E+02 -0.56330657862E+02  0.34578290291E+03  0.12500000000E+03 0.  0.
         21    1    1    2  503  501 -0.31650379115E+03  0.24352065957E+02 -0.53031849077E+03  0.61806583354E+03  0.00000000000E+00 0.  1.
<mgrwt>
<rscale>  3 0.34116370E+03</rscale>
<asrwt>0</asrwt>
<pdfrwt beam="1">  1       21 0.29015353E-01 0.34116370E+03</pdfrwt>
<pdfrwt beam="2">  1       21 0.11926907E+00 0.34116370E+03</pdfrwt>
<totfact> 0.55781941E+03</totfact>
</mgrwt>
</event>
<event>
 4    0  0.1525083E-001  0.2681742E+03  0.7546771E-02  0.1102329E+00
         21   -1    0    0  502  501  0.00000000000E+00  0.00000000000E+00  0.32998020557E+03  0.32998020557E+03  0.00000000000E+00 0. -1.
         21   -1    0    0  503  502 -0.00000000000E+00 -0.00000000000E+00 -0.19519466054E+03  0.19519466054E+03  0.00000000000E+00 0. -1.
         25    1    1    2    0    0 -0.19553395960E+03 -0.13438335211E+03  0.95575590500E+02  0.28469651944E+03  0.12500000000E+03 0.  0.
         21    1    1    2  503  501  0.19553395960E+03  0.13438335211E+03  0.39209954526E+02  0.24047834667E+03  0.00000000000E+00 0. -1.
<mgrwt>
<rscale>  3 0.26817422E+03</rscale>
<asrwt>0</asrwt>
<pdfrwt beam="1">  1       21 0.50766186E-01 0.26817422E+03</pdfrwt>
<pdfrwt beam="2">  1       21 0.30029948E-01 0.26817422E+03</pdfrwt>
<totfact> 0.37925906E+04</totfact>
</mgrwt>
</event>
<event>
 4    0  0.1525083E-001  0.2363179E+03  0.7546771E-02  0.1122270E+00
         21   -1    0    0  502  501  0.00000000000E+00  0.00000000000E+00  0.97729363100E+02  0.97729363100E+02  0.00000000000E+00 0. -1.
         21   -1    0    0  503  502 -0.00000000000E+00 -0.00000000000E+00 -0.92396422641E+03  0.92396422641E+03  0.00000000000E+00 0. -1.
         25    1    1    2    0    0  0.15561497838E+03  0.12651142984E+03 -0.80796562947E+02  0.24974836929E+03  0.12500000000E+03 0.  0.
         21    1    1    2  503  501 -0.15561497838E+03 -0.12651142984E+03 -0.74543830037E+03  0.77194522023E+03  0.00000000000E+00 0. -1.
<mgrwt>
<rscale>  3 0.23631793E+03</rscale>
<asrwt>0</asrwt>
<pdfrwt beam="1">  1       21 0.15035287E-01 0.23631793E+03</pdfrwt>
<pdfrwt beam="2">  1       21 0.14214834E+00 0.23631793E+03</pdfrwt>
<totfact> 0.13050675E+04</totfact>
</mgrwt>
</event>
<event>
 4    0  0.1525083E-001  0.2851919E+03  0.7546771E-02  0.1092887E+00
         21   -1    0    0  503  501  0.00000000000E+00  0.00000000000E+00  0.17560164971E+03  0.17560164971E+03  0.00000000000E+00 0.  1.
         21   -1    0    0  501  502 -0.00000000000E+00 -0.00000000000E+00 -0.55416623130E+03  0.55416623130E+03  0.00000000000E+00 0. -1.
         25    1    1    2    0    0  0.13667432218E+03  0.21686299696E+03 -0.15871649268E+02  0.28563322469E+03  0.12500000000E+03 0.  0.
         21    1    1    2  503  502 -0.13667432218E+03 -0.21686299696E+03 -0.36269293232E+03  0.44413465632E+03  0.00000000000E+00 0. -1.
<mgrwt>
<rscale>  3 0.28519192E+03</rscale>
<asrwt>0</asrwt>
<pdfrwt beam="1">  1       21 0.27015638E-01 0.28519192E+03</pdfrwt>
<pdfrwt beam="2">  1       21 0.85256344E-01 0.28519192E+03</pdfrwt>
<totfact> 0.14768990E+04</totfact>
</mgrwt>
</event>
<event>
 4    0  0.1525083E-001  0.2675585E+03  0.7546771E-02  0.1102685E+00
         21   -1    0    0  502  501  0.00000000000E+00  0.00000000000E+00  0.43191417452E+03  0.43191417452E+03  0.00000000000E+00 0. -1.
         21   -1    0    0  503  502 -0.00000000000E+00 -0.00000000000E+00 -0.15452430075E+03  0.15452430075E+03  0.00000000000E+00 0. -1.
         25    1    1    2    0    0  0.22083410187E+03  0.84822397587E+02  0.21096576718E+03  0.34072583495E+03  0.12500000000E+03 0.  0.
         21    1    1    2  503  501 -0.22083410187E+03 -0.84822397587E+02  0.66424106593E+02  0.24571264033E+03  0.00000000000E+00 0. -1.
<mgrwt>
<rscale>  3 0.26755848E+03</rscale>
<asrwt>0</asrwt>
<pdfrwt beam="1">  1       21 0.66448334E-01 0.26755848E+03</pdfrwt>
<pdfrwt beam="2">  1       21 0.23772969E-01 0.26755848E+03</pdfrwt>
<totfact> 0.33417418E+04</totfact>
</mgrwt>
</event>
<event>
 4    0  0.1525083E-001  0.2466656E+03  0.7546771E-02  0.1115430E+00
         21   -1    0    0  502  501  0.00000000000E+00  0.00000000000E+00  0.26484920457E+03  0.26484920457E+03  0.00000000000E+00 0. -1.
         21   -1    0    0  503  502 -0.00000000000E+00 -0.00000000000E+00 -0.25684484109E+03  0.25684484109E+03  0.00000000000E+00 0.  1.
         25    1    1    2    0    0 -0.10094403237E+03 -0.18716091517E+03  0.12760801337E+03  0.27771876227E+03  0.12500000000E+03 0.  0.
         21    1    1    2  503  501  0.10094403237E+03  0.18716091517E+03 -0.11960364989E+03  0.24397528339E+03  0.00000000000E+00 0.  1.
<mgrwt>
<rscale>  3 0.24666557E+03</rscale>
<asrwt>0</asrwt>
<pdfrwt beam="1">  1       21 0.40746032E-01 0.24666557E+03</pdfrwt>
<pdfrwt beam="2">  1       21 0.39514591E-01 0.24666557E+03</pdfrwt>
<totfact> 0.34894773E+04</totfact>
</mgrwt>
</event>
<event>
 4    0  0.1525083E-001  0.2597011E+03  0.7546771E-02  0.1107323E+00
         21   -1    0    0  503  501  0.00000000000E+00  0.00000000000E+00  0.41458965538E+03  0.41458965538E+03  0.00000000000E+00 0. -1.
         21   -1    0    0  501  502 -0.00000000000E+00 -0.00000000000E+00 -0.14506297965E+03  0.14506297965E+03  0.00000000000E+00 0. -1.
         25    1    1    2    0    0 -0.21285413996E+03  0.80701746307E+02  0.17503814775E+03  0.31318207152E+03  0.12500000000E+03 0.  0.
         21    1    1    2  503  502  0.21285413996E+03 -0.80701746307E+02  0.94488527980E+02  0.24647056351E+03  0.00000000000E+00 0. -1.
<mgrwt>
<rscale>  3 0.25970109E+03</rscale>
<asrwt>0</asrwt>
<pdfrwt beam="1">  1       21 0.63783024E-01 0.25970109E+03</pdfrwt>
<pdfrwt beam="2">  1       21 0.22317382E-01 0.25970109E+03</pdfrwt>
<totfact> 0.41372069E+04</totfact>
</mgrwt>
</event>
<event>
 4    0  0.1525083E-001  0.3842191E+03  0.7546771E-02  0.1049385E+00
         21   -1    0    0  503  501  0.00000000000E+00  0.00000000000E+00  0.69027535818E+03  0.69027535818E+03  0.00000000000E+00 0.  1.
         21   -1    0    0  501  502 -0.00000000000E+00 -0.00000000000E+00 -0.23806912870E+03  0.23806912870E+03  0.00000000000E+00 0.  1.
         25    1    1    2    0    0  0.10509645318E+03  0.34778452426E+03  0.41112048160E+03  0.56271164034E+03  0.12500000000E+03 0.  0.
         21    1    1    2  503  502 -0.10509645318E+03 -0.34778452426E+03  0.41085747887E+02  0.36563284654E+03  0.00000000000E+00 0.  1.
<mgrwt>
<rscale>  3 0.38421913E+03</rscale>
<asrwt>0</asrwt>
<pdfrwt beam="1">  1       21 0.10619621E+00 0.38421913E+03</pdfrwt>
<pdfrwt beam="2">  1       21 0.36626020E-01 0.38421913E+03</pdfrwt>
<totfact> 0.45862264E+03</totfact>
</mgrwt>
</event>
<event>
 4    0  0.1525083E-001  0.3076975E+03  0.7546771E-02  0.1081455E+00
         21   -1    0    0  503  501  0.00000000000E+00  0.00000000000E+00  0.37571882140E+02  0.37571882140E+02  0.00000000000E+00 0.  1.
         21   -1    0    0  501  502 -0.00000000000E+00 -0.00000000000E+00 -0.23149709591E+04  0.23149709591E+04  0.00000000000E+00 0.  1.
         25    1    1    2    0    0  0.24451704187E+02 -0.28009799572E+03 -0.11221562340E+04  0.11635774089E+04  0.12500000000E+03 0.  0.
         21    1    1    2  503  502 -0.24451704187E+02  0.28009799572E+03 -0.11552428429E+04  0.11889654323E+04  0.00000000000E+00 0.  1.
<mgrwt>
<rscale>  3 0.30769753E+03</rscale>
<asrwt>0</asrwt>
<pdfrwt beam="1">  1       21 0.57802876E-02 0.30769753E+03</pdfrwt>
<pdfrwt beam="2">  1       21 0.35614950E+00 0.30769753E+03</pdfrwt>
<totfact> 0.29980893E+03</totfact>
</mgrwt>
</event>
<event>
 4    0  0.1525083E-001  0.2540936E+03  0.7546771E-02  0.1110745E+00
         21   -1    0    0  503  501  0.00000000000E+00  0.00000000000E+00  0.20523709551E+03  0.20523709551E+03  0.00000000000E+00 0.  1.
         21   -1    0    0  501  502 -0.00000000000E+00 -0.00000000000E+00 -0.12266619881E+04  0.12266619881E+04  0.00000000000E+00 0.  1.
         25    1    1    2    0    0  0.21919497896E+03  0.29868618542E+02  0.11156989434E+03  0.27750930525E+03  0.12500000000E+03 0.  0.
         21    1    1    2  503  502 -0.21919497896E+03 -0.29868618542E+02 -0.11329947869E+04  0.11543897784E+04  0.00000000000E+00 0.  1.
<mgrwt>
<rscale>  3 0.25409363E+03</rscale>
<asrwt>0</asrwt>
<pdfrwt beam="1">  1       21 0.31574937E-01 0.25409363E+03</pdfrwt>
<pdfrwt beam="2">  1       21 0.18871723E+00 0.25409363E+03</pdfrwt>
<totfact> 0.14479369E+03</totfact>
</mgrwt>
</event>
<event>
 4    0  0.1525083E-001  0.2639318E+03  0.7546771E-02  0.1104804E+00
         21   -1    0    0  503  501  0.00000000000E+00  0.00000000000E+00  0.39027161789E+03  0.39027161789E+03  0.00000000000E+00 0.  1.
         21   -1    0    0  501  502 -0.00000000000E+00 -0.00000000000E+00 -0.34880040139E+03  0.34880040139E+03  0.00000000000E+00 0.  1.
         25    1    1    2    0    0 -0.22601442496E+03  0.54336454690E+02  0.29450912315E+03  0.39546882838E+03  0.12500000000E+03 0.  0.
         21    1    1    2  503  502  0.22601442496E+03 -0.54336454690E+02 -0.25303790665E+03  0.34360319091E+03  0.00000000000E+00 0.  1.
<mgrwt>
<rscale>  3 0.26393175E+03</rscale>
<asrwt>0</asrwt>
<pdfrwt beam="1">  1       21 0.60041787E-01 0.26393175E+03</pdfrwt>
<pdfrwt beam="2">  1       21 0.53661600E-01 0.26393175E+03</pdfrwt>
<totfact> 0.81297266E+03</totfact>
</mgrwt>
</event>
<event>
 4    0  0.1525083E-001  0.2413375E+03  0.7546771E-02  0.1118905E+00
         21   -1    0    0  502  501  0.00000000000E+00  0.00000000000E+00  0.65446340548E+02  0.65446340548E+02  0.00000000000E+00 0.  1.
         21   -1    0    0  503  502 -0.00000000000E+00 -0.00000000000E+00 -0.80932579175E+03  0.80932579175E+03  0.00000000000E+00 0.  1.
         25    1    1    2    0    0  0.20576327161E+03 -0.16741562679E+02 -0.29837288845E+03  0.38375797637E+03  0.12500000000E+03 0.  0.
         21    1    1    2  503  501 -0.20576327161E+03  0.16741562679E+02 -0.44550656275E+03  0.49101415592E+03  0.00000000000E+00 0.  1.
<mgrwt>
<rscale>  3 0.24133753E+03</rscale>
<asrwt>0</asrwt>
<pdfrwt beam="1">  1       21 0.10068667E-01 0.24133753E+03</pdfrwt>
<pdfrwt beam="2">  1       21 0.12451166E+00 0.24133753E+03</pdfrwt>
<totfact> 0.37639609E+04</totfact>
</mgrwt>
</event>
<event>
 4    0  0.1525083E-001  0.2504792E+03  0.7546771E-02  0.1113002E+00
         21   -1    0    0  502  501  0.00000000000E+00  0.00000000000E+00  0.45708219780E+03  0.45708219780E+03  0.00000000000E+00 0. -1.
         21   -1    0    0  503  502 -0.00000000000E+00 -0.00000000000E+00 -0.25136402451E+04  0.25136402451E+04  0.00000000000E+00 0. -1.
         25    1    1    2    0    0 -0.20379286440E+03  0.74721606049E+02  0.41765486099E+03  0.48700660457E+03  0.12500000000E+03 0.  0.
         21    1    1    2  503  501  0.20379286440E+03 -0.74721606049E+02 -0.24742129083E+04  0.24837158383E+04  0.00000000000E+00 0. -1.
<mgrwt>
<rscale>  3 0.25047924E+03</rscale>
<asrwt>0</asrwt>
<pdfrwt beam="1">  1       21 0.70320337E-01 0.25047924E+03</pdfrwt>
<pdfrwt beam="2">  1       21 0.38671389E+00 0.25047924E+03</pdfrwt>
<totfact> 0.17424843E+01</totfact>
</mgrwt>
</event>
<event>
 4    0  0.1525083E-001  0.3137767E+03  0.7546771E-02  0.1078550E+00
         21   -1    0    0  502  501  0.00000000000E+00  0.00000000000E+00  0.10207390887E+03  0.10207390887E+03  0.00000000000E+00 0. -1.
         21   -1    0    0  503  502 -0.00000000000E+00 -0.00000000000E+00 -0.95832858380E+03  0.95832858380E+03  0.00000000000E+00 0.  1.
         25    1    1    2    0    0  0.28158211960E+03 -0.59517403328E+02 -0.30005679910E+03  0.43415422843E+03  0.12500000000E+03 0.  0.
         21    1    1    2  503  501 -0.28158211960E+03  0.59517403328E+02 -0.55619787584E+03  0.62624826424E+03  0.00000000000E+00 0.  1.
<mgrwt>
<rscale>  3 0.31377669E+03</rscale>
<asrwt>0</asrwt>
<pdfrwt beam="1">  1       21 0.15703678E-01 0.31377669E+03</pdfrwt>
<pdfrwt beam="2">  1       21 0.14743517E+00 0.31377669E+03</pdfrwt>
<totfact> 0.10500561E+04</totfact>
</mgrwt>
</event>
<event>
 4    0  0.1525083E-001  0.2952124E+03  0.7546771E-02  0.1087659E+00
         21   -1    0    0  503  501  0.00000000000E+00  0.00000000000E+00  0.31645666176E+02  0.31645666176E+02  0.00000000000E+00 0. -1.
         21   -1    0    0  501  502 -0.00000000000E+00 -0.00000000000E+00 -0.25422520519E+04  0.25422520519E+04  0.00000000000E+00 0. -1.
         25    1    1    2    0    0  0.22427921216E+03  0.14568521933E+03 -0.11524663318E+04  0.11896760038E+04  0.12500000000E+03 0.  0.
         21    1    1    2  503  502 -0.22427921216E+03 -0.14568521933E+03 -0.13581400539E+04  0.13842217143E+04  0.00000000000E+00 0. -1.
<mgrwt>
<rscale>  3 0.29521238E+03</rscale>
<asrwt>0</asrwt>
<pdfrwt beam="1">  1       21 0.48685652E-02 0.29521238E+03</pdfrwt>
<pdfrwt beam="2">  1       21 0.39111561E+00 0.29521238E+03</pdfrwt>
<totfact> 0.24775393E+03</totfact>
</mgrwt>
</event>
<event>
 4    0  0.1525083E-001  0.2449386E+03  0.7546771E-02  0.1116546E+00
         21   -1    0    0  502  501  0.00000000000E+00  0.00000000000E+00  0.10828587960E+04  0.10828587960E+04  0.00000000000E+00 0. -1.
         21   -1    0    0  503  502 -0.00000000000E+00 -0.00000000000E+00 -0.10854906992E+03  0.10854906992E+03  0.00000000000E+00 0. -1.
         25    1    1    2    0    0 -0.78225880997E+02  0.19557770912E+03  0.94799729630E+03  0.97912910413E+03  0.12500000000E+03 0.  0.
         21    1    1    2  503  501  0.78225880997E+02 -0.19557770912E+03  0.26312429835E+02  0.21227876184E+03  0.00000000000E+00 0. -1.
<mgrwt>
<rscale>  3 0.24493862E+03</rscale>
<asrwt>0</asrwt>
<pdfrwt beam="1">  1       21 0.16659365E+00 0.24493862E+03</pdfrwt>
<pdfrwt beam="2">  1       21 0.16699858E-01 0.24493862E+03</pdfrwt>
<totfact> 0.69908961E+03</totfact>
</mgrwt>
</event>
<event>
 4    0  0.1525083E-001  0.2859416E+03  0.7546771E-02  0.1092487E+00
         21   -1    0    0  502  501  0.00000000000E+00  0.00000000000E+00  0.43183047219E+03  0.43183047219E+03  0.00000000000E+00 0. -1.
         21   -1    0    0  503  502 -0.00000000000E+00 -0.00000000000E+00 -0.45869707926E+03  0.45869707926E+03  0.00000000000E+00 0. -1.
         25    1    1    2    0    0 -0.25488010499E+03  0.34260114517E+02  0.33889140405E+03  0.44340727002E+03  0.12500000000E+03 0.  0.
         21    1    1    2  503  501  0.25488010499E+03 -0.34260114517E+02 -0.36575801112E+03  0.44712028143E+03  0.00000000000E+00 0. -1.
<mgrwt>
<rscale>  3 0.28594164E+03</rscale>
<asrwt>0</asrwt>
<pdfrwt beam="1">  1       21 0.66435457E-01 0.28594164E+03</pdfrwt>
<pdfrwt beam="2">  1       21 0.70568781E-01 0.28594164E+03</pdfrwt>
<totfact> 0.35472654E+03</totfact>
</mgrwt>
</event>
<event>
 4    0  0.1525083E-001  0.2854257E+03  0.7546771E-02  0.1092762E+00
         21   -1    0    0  502  501  0.00000000000E+00  0.00000000000E+00  0.14309437463E+04  0.14309437463E+04  0.00000000000E+00 0.  1.
         21   -1    0    0  503  502 -0.00000000000E+00 -0.00000000000E+00 -0.76845242612E+02  0.76845242612E+02  0.00000000000E+00 0.  1.
         25    1    1    2    0    0  0.18660672268E+03  0.17612706789E+03  0.11351187505E+04  0.11704539250E+04  0.12500000000E+03 0.  0.
         21    1    1    2  503  501 -0.18660672268E+03 -0.17612706789E+03  0.21897975322E+03  0.33733506386E+03  0.00000000000E+00 0.  1.
<mgrwt>
<rscale>  3 0.28542567E+03</rscale>
<asrwt>0</asrwt>
<pdfrwt beam="1">  1       21 0.22014517E+00 0.28542567E+03</pdfrwt>
<pdfrwt beam="2">  1       21 0.11822346E-01 0.28542567E+03</pdfrwt>
<totfact> 0.56220039E+03</totfact>
</mgrwt>
</event>
<event>
 4    0  0.1525083E-001  0.2394498E+03  0.7546771E-02  0.1120160E+00
         21   -1    0    0  502  501  0.00000000000E+00  0.00000000000E+00  0.58061525694E+02  0.58061525694E+02  0.00000000000E+00 0. -1.
         21   -1    0    0  503  502 -0.00000000000E+00 -0.00000000000E+00 -0.87221893570E+03  0.87221893570E+03  0.00000000000E+00 0. -1.
         25    1    1    2    0    0 -0.61093861094E-01 -0.20423326436E+03 -0.36059196034E+03  0.43285423859E+03  0.12500000000E+03 0.  0.
         21    1    1    2  503  501  0.61093861094E-01  0.20423326436E+03 -0.45356544967E+03  0.49742622281E+03  0.00000000000E+00 0. -1.
<mgrwt>
<rscale>  3 0.23944985E+03</rscale>
<asrwt>0</asrwt>
<pdfrwt beam="1">  1       21 0.89325425E-02 0.23944985E+03</pdfrwt>
<pdfrwt beam="2">  1       21 0.13418753E+00 0.23944985E+03</pdfrwt>
<totfact> 0.38502849E+04</totfact>
</mgrwt>
</event>
<event>
 4    0  0.1525083E-001  0.3279728E+03  0.7546771E-02  0.1072037E+00
         21   -1    0    0  502  501  0.00000000000E+00  0.00000000000E+00  0.47072275323E+03  0.47072275323E+03  0.00000000000E+00 0.  1.
         21   -1    0    0  503  502 -0.00000000000E+00 -0.00000000000E+00 -0.21558680947E+03  0.21558680947E+03  0.00000000000E+00 0.  1.
         25    1    1    2    0    0  0.23736390690E+03 -0.18867836290E+03  0.17916384673E+03  0.37371892232E+03  0.12500000000E+03 0.  0.
         21    1    1    2  503  501 -0.23736390690E+03  0.18867836290E+03  0.75972097033E+02  0.31259064038E+03  0.00000000000E+00 0.  1.
<mgrwt>
<rscale>  3 0.32797279E+03</rscale>
<asrwt>0</asrwt>
<pdfrwt beam="1">  1       21 0.72418885E-01 0.32797279E+03</pdfrwt>
<pdfrwt beam="2">  1       21 0.33167202E-01 0.32797279E+03</pdfrwt>
<totfact> 0.14051048E+04</totfact>
</mgrwt>
</event>
<event>
 4    0  0.1525083E-001  0.2533893E+03  0.7546771E-02  0.1111181E+00
         21   -1    0    0  502  501  0.00000000000E+00  0.00000000000E+00  0.49789374027E+03  0.49789374027E+03  0.00000000000E+00 0. -1.
         21   -1    0    0  503  502 -0.00000000000E+00 -0.00000000000E+00 -0.31304475995E+03  0.31304475995E+03  0.00000000000E+00 0. -1.
         25    1    1    2    0    0  0.21973211891E+03  0.17289841864E+02  0.41881521876E+03  0.48950212479E+03  0.12500000000E+03 0.  0.
         21    1    1    2  503  501 -0.21973211891E+03 -0.17289841864E+02 -0.23396623844E+03  0.32143637542E+03  0.00000000000E+00 0. -1.
<mgrwt>
<rscale>  3 0.25338931E+03</rscale>
<asrwt>0</asrwt>
<pdfrwt beam="1">  1       21 0.76599037E-01 0.25338931E+03</pdfrwt>
<pdfrwt beam="2">  1       21 0.48160732E-01 0.25338931E+03</pdfrwt>
<totfact> 0.59953582E+03</totfact>
</mgrwt>
</event>
<event>
 4    0  0.1525083E-001  0.2680231E+03  0.7546771E-02  0.1102416E+00
         21   -1    0    0  502  501  0.00000000000E+00  0.00000000000E+00  0.68584410139E+02  0.68584410139E+02  0.00000000000E+00 0.  1.
         21   -1    0    0  503  502 -0.00000000000E+00 -0.00000000000E+00 -0.93195831125E+03  0.93195831125E+03  0.00000000000E+00 0.  1.
         25    1    1    2    0    0 -0.14163167238E+03 -0.19013635223E+03 -0.43527671327E+03  0.51117724927E+03  0.12500000000E+03 0.  0.
         21    1    1    2  503  501  0.14163167238E+03  0.19013635223E+03 -0.42809718784E+03  0.48936547212E+03  0.00000000000E+00 0.  1.
<mgrwt>
<rscale>  3 0.26802306E+03</rscale>
<asrwt>0</asrwt>
<pdfrwt beam="1">  1       21 0.10551449E-01 0.26802306E+03</pdfrwt>
<pdfrwt beam="2">  1       21 0.14337819E+00 0.26802306E+03</pdfrwt>
<totfact> 0.23788927E+04</totfact>
</mgrwt>
</event>
<event>
 4    0  0.1561978E-001  0.2418548E+03  0.7546771E-02  0.1118563E+00
         21   -1    0    0  503  501  0.00000000000E+00  0.00000000000E+00  0.35961491831E+03  0.35961491831E+03  0.00000000000E+00 0. -1.
         21   -1    0    0  501  502 -0.00000000000E+00 -0.00000000000E+00 -0.11004352915E+04  0.11004352915E+04  0.00000000000E+00 0.  1.
         25    1    1    2    0    0  0.17295746839E+03 -0.11381755450E+03  0.30764884668E+03  0.39133302243E+03  0.12500000000E+03 0.  0.
         21    1    1    2  503  502 -0.17295746839E+03  0.11381755450E+03 -0.10484692199E+04  0.10687171874E+04  0.00000000000E+00 0.  1.
<mgrwt>
<rscale>  3 0.24185475E+03</rscale>
<asrwt>0</asrwt>
<pdfrwt beam="1">  1       21 0.55325373E-01 0.24185475E+03</pdfrwt>
<pdfrwt beam="2">  1       21 0.16929774E+00 0.24185475E+03</pdfrwt>
<totfact> 0.63205584E+02</totfact>
</mgrwt>
</event>
<event>
 4    0  0.1525083E-001  0.2830886E+03  0.7546771E-02  0.1094014E+00
         21   -1    0    0  502  501  0.00000000000E+00  0.00000000000E+00  0.44865955773E+03  0.44865955773E+03  0.00000000000E+00 0.  1.
         21   -1    0    0  503  502 -0.00000000000E+00 -0.00000000000E+00 -0.17285700730E+03  0.17285700730E+03  0.00000000000E+00 0. -1.
         25    1    1    2    0    0  0.16244988046E+03  0.19525411658E+03  0.22703034071E+03  0.36288002054E+03  0.12500000000E+03 0.  0.
         21    1    1    2  503  501 -0.16244988046E+03 -0.19525411658E+03  0.48772209720E+02  0.25863654449E+03  0.00000000000E+00 0. -1.
<mgrwt>
<rscale>  3 0.28308856E+03</rscale>
<asrwt>0</asrwt>
<pdfrwt beam="1">  1       21 0.69024547E-01 0.28308856E+03</pdfrwt>
<pdfrwt beam="2">  1       21 0.26593386E-01 0.28308856E+03</pdfrwt>
<totfact> 0.24596454E+04</totfact>
</mgrwt>
</event>
<event>
 4    0  0.1525083E-001  0.2745499E+03  0.7546771E-02  0.1098703E+00
         21   -1    0    0  503  501  0.00000000000E+00  0.00000000000E+00  0.13258070081E+03  0.13258070081E+03  0.00000000000E+00 0.  1.
         21   -1    0    0  501  502 -0.00000000000E+00 -0.00000000000E+00 -0.59804121664E+03  0.59804121664E+03  0.00000000000E+00 0.  1.
         25    1    1    2    0    0 -0.73298358605E+02  0.23319521132E+03 -0.38581529365E+03  0.47353046024E+03  0.12500000000E+03 0.  0.
         21    1    1    2  503  502  0.73298358605E+02 -0.23319521132E+03 -0.79645222173E+02  0.25709145721E+03  0.00000000000E+00 0.  1.
<mgrwt>
<rscale>  3 0.27454992E+03</rscale>
<asrwt>0</asrwt>
<pdfrwt beam="1">  1       21 0.20397031E-01 0.27454992E+03</pdfrwt>
<pdfrwt beam="2">  1       21 0.92006342E-01 0.27454992E+03</pdfrwt>
<totfact> 0.21275255E+04</totfact>
</mgrwt>
</event>
<event>
 4    0  0.1525083E-001  0.2429027E+03  0.7546771E-02  0.1117874E+00
         21   -1    0    0  503  501  0.00000000000E+00  0.00000000000E+00  0.10729497914E+03  0.10729497914E+03  0.00000000000E+00 0.  1.
         21   -1    0    0  501  502 -0.00000000000E+00 -0.00000000000E+00 -0.73327880829E+03  0.73327880829E+03  0.00000000000E+00 0. -1.
         25    1    1    2    0    0 -0.12054896390E+03 -0.16983723817E+03 -0.79233552302E+02  0.25549891581E+03  0.12500000000E+03 0.  0.
         21    1    1    2  503  502  0.12054896390E+03  0.16983723817E+03 -0.54675027685E+03  0.58507487162E+03  0.00000000000E+00 0. -1.
<mgrwt>
<rscale>  3 0.24290274E+03</rscale>
<asrwt>0</asrwt>
<pdfrwt beam="1">  1       21 0.16506920E-01 0.24290274E+03</pdfrwt>
<pdfrwt beam="2">  1       21 0.11281213E+00 0.24290274E+03</pdfrwt>
<totfact> 0.19644644E+04</totfact>
</mgrwt>
</event>
<event>
 4    0  0.1525083E-001  0.3745264E+03  0.7546771E-02  0.1052976E+00
         21   -1    0    0  503  501  0.00000000000E+00  0.00000000000E+00  0.67161872619E+03  0.67161872619E+03  0.00000000000E+00 0. -1.
         21   -1    0    0  501  502 -0.00000000000E+00 -0.00000000000E+00 -0.67482486302E+03  0.67482486302E+03  0.00000000000E+00 0. -1.
         25    1    1    2    0    0 -0.34232257943E+03  0.86373043819E+02  0.56477780956E+03  0.67767545717E+03  0.12500000000E+03 0.  0.
         21    1    1    2  503  502  0.34232257943E+03 -0.86373043819E+02 -0.56798394639E+03  0.66876813204E+03  0.00000000000E+00 0. -1.
<mgrwt>
<rscale>  3 0.37452644E+03</rscale>
<asrwt>0</asrwt>
<pdfrwt beam="1">  1       21 0.10332596E+00 0.37452644E+03</pdfrwt>
<pdfrwt beam="2">  1       21 0.10381921E+00 0.37452644E+03</pdfrwt>
<totfact> 0.49481445E+02</totfact>
</mgrwt>
</event>
<event>
 4    0  0.1525083E-001  0.2362753E+03  0.7546771E-02  0.1122299E+00
         21   -1    0    0  503  501  0.00000000000E+00  0.00000000000E+00  0.14814417478E+04  0.14814417478E+04  0.00000000000E+00 0.  1.
         21   -1    0    0  501  502 -0.00000000000E+00 -0.00000000000E+00 -0.66669190814E+02  0.66669190814E+02  0.00000000000E+00 0. -1.
         25    1    1    2    0    0 -0.17412139179E+03 -0.99412124551E+02  0.12910862119E+04  0.13125279563E+04  0.12500000000E+03 0.  0.
         21    1    1    2  503  502  0.17412139179E+03  0.99412124551E+02  0.12368634511E+03  0.23558298231E+03  0.00000000000E+00 0. -1.
<mgrwt>
<rscale>  3 0.23627533E+03</rscale>
<asrwt>0</asrwt>
<pdfrwt beam="1">  1       21 0.22791409E+00 0.23627533E+03</pdfrwt>
<pdfrwt beam="2">  1       21 0.10256800E-01 0.23627533E+03</pdfrwt>
<totfact> 0.67228539E+03</totfact>
</mgrwt>
</event>
<event>
 4    0  0.1525083E-001  0.2955889E+03  0.7546771E-02  0.1087467E+00
         21   -1    0    0  502  501  0.00000000000E+00  0.00000000000E+00  0.99939946905E+03  0.99939946905E+03  0.00000000000E+00 0.  1.
         21   -1    0    0  503  502 -0.00000000000E+00 -0.00000000000E+00 -0.79933248283E+02  0.79933248283E+02  0.00000000000E+00 0.  1.
         25    1    1    2    0    0 -0.26779092255E+03  0.59871622637E+01  0.52558308349E+03  0.60300116248E+03  0.12500000000E+03 0.  0.
         21    1    1    2  503  501  0.26779092255E+03 -0.59871622637E+01  0.39388313729E+03  0.47633155485E+03  0.00000000000E+00 0.  1.
<mgrwt>
<rscale>  3 0.29558894E+03</rscale>
<asrwt>0</asrwt>
<pdfrwt beam="1">  1       21 0.15375376E+00 0.29558894E+03</pdfrwt>
<pdfrwt beam="2">  1       21 0.12297423E-01 0.29558894E+03</pdfrwt>
<totfact> 0.14800300E+04</totfact>
</mgrwt>
</event>
<event>
 4    0  0.1525083E-001  0.2367041E+03  0.7546771E-02  0.1122008E+00
         21   -1    0    0  503  501  0.00000000000E+00  0.00000000000E+00  0.20164174686E+03  0.20164174686E+03  0.00000000000E+00 0. -1.
         21   -1    0    0  501  502 -0.00000000000E+00 -0.00000000000E+00 -0.11051211360E+04  0.11051211360E+04  0.00000000000E+00 0. -1.
         25    1    1    2    0    0  0.19490985893E+03  0.49132300430E+02  0.11884572665E+03  0.26486438567E+03  0.12500000000E+03 0.  0.
         21    1    1    2  503  502 -0.19490985893E+03 -0.49132300430E+02 -0.10223251158E+04  0.10418984972E+04  0.00000000000E+00 0. -1.
<mgrwt>
<rscale>  3 0.23670411E+03</rscale>
<asrwt>0</asrwt>
<pdfrwt beam="1">  1       21 0.31021807E-01 0.23670411E+03</pdfrwt>
<pdfrwt beam="2">  1       21 0.17001864E+00 0.23670411E+03</pdfrwt>
<totfact> 0.20457492E+03</totfact>
</mgrwt>
</event>
<event>
 4    0  0.1525083E-001  0.2403753E+03  0.7546771E-02  0.1119543E+00
         21   -1    0    0  502  501  0.00000000000E+00  0.00000000000E+00  0.22035280994E+02  0.22035280994E+02  0.00000000000E+00 0. -1.
         21   -1    0    0  503  502 -0.00000000000E+00 -0.00000000000E+00 -0.22536938514E+04  0.22536938514E+04  0.00000000000E+00 0.  1.
         25    1    1    2    0    0  0.13822129556E+02 -0.20485171289E+03 -0.12009847210E+04  0.12248038927E+04  0.12500000000E+03 0.  0.
         21    1    1    2  503  501 -0.13822129556E+02  0.20485171289E+03 -0.10306738494E+04  0.10509252397E+04  0.00000000000E+00 0.  1.
<mgrwt>
<rscale>  3 0.24037528E+03</rscale>
<asrwt>0</asrwt>
<pdfrwt beam="1">  1       21 0.33900432E-02 0.24037528E+03</pdfrwt>
<pdfrwt beam="2">  1       21 0.34672214E+00 0.24037528E+03</pdfrwt>
<totfact> 0.89691813E+03</totfact>
</mgrwt>
</event>
<event>
 4    0  0.1525083E-001  0.2538904E+03  0.7546771E-02  0.1110871E+00
         21   -1    0    0  503  501  0.00000000000E+00  0.00000000000E+00  0.48998128759E+03  0.48998128759E+03  0.00000000000E+00 0. -1.
         21   -1    0    0  501  502 -0.00000000000E+00 -0.00000000000E+00 -0.13342126966E+03  0.13342126966E+03  0.00000000000E+00 0. -1.
         25    1    1    2    0    0 -0.73811610603E+01 -0.22086385825E+03  0.30432538256E+03  0.39632595662E+03  0.12500000000E+03 0.  0.
         21    1    1    2  503  502  0.73811610603E+01  0.22086385825E+03  0.52234635364E+02  0.22707660062E+03  0.00000000000E+00 0. -1.
<mgrwt>
<rscale>  3 0.25389038E+03</rscale>
<asrwt>0</asrwt>
<pdfrwt beam="1">  1       21 0.75381736E-01 0.25389038E+03</pdfrwt>
<pdfrwt beam="2">  1       21 0.20526349E-01 0.25389038E+03</pdfrwt>
<totfact> 0.33541279E+04</totfact>
</mgrwt>
</event>
<event>
 4    0  0.1525083E-001  0.2528244E+03  0.7546771E-02  0.1111533E+00
         21   -1    0    0  503  501  0.00000000000E+00  0.00000000000E+00  0.13066072141E+04  0.13066072141E+04  0.00000000000E+00 0. -1.
         21   -1    0    0  501  502 -0.00000000000E+00 -0.00000000000E+00 -0.44525914223E+02  0.44525914223E+02  0.00000000000E+00 0. -1.
         25    1    1    2    0    0  0.21974964873E+03  0.22915278277E+01  0.80868028351E+03  0.84728033151E+03  0.12500000000E+03 0.  0.
         21    1    1    2  503  502 -0.21974964873E+03 -0.22915278277E+01  0.45340101636E+03  0.50385279681E+03  0.00000000000E+00 0. -1.
<mgrwt>
<rscale>  3 0.25282436E+03</rscale>
<asrwt>0</asrwt>
<pdfrwt beam="1">  1       21 0.20101647E+00 0.25282436E+03</pdfrwt>
<pdfrwt beam="2">  1       21 0.68501416E-02 0.25282436E+03</pdfrwt>
<totfact> 0.19932092E+04</totfact>
</mgrwt>
</event>
<event>
 4    0  0.1525083E-001  0.3482964E+03  0.7546771E-02  0.1063316E+00
         21   -1    0    0  502  501  0.00000000000E+00  0.00000000000E+00  0.86367114889E+03  0.86367114889E+03  0.00000000000E+00 0.  1.
         21   -1    0    0  503  502 -0.00000000000E+00 -0.00000000000E+00 -0.13318166076E+03  0.13318166076E+03  0.00000000000E+00 0. -1.
         25    1    1    2    0    0 -0.25287736124E+03 -0.20429985859E+03  0.43752384681E+03  0.55922938816E+03  0.12500000000E+03 0.  0.
         21    1    1    2  503  501  0.25287736124E+03  0.20429985859E+03  0.29296564131E+03  0.43762342149E+03  0.00000000000E+00 0. -1.
<mgrwt>
<rscale>  3 0.34829641E+03</rscale>
<asrwt>0</asrwt>
<pdfrwt beam="1">  1       21 0.13287248E+00 0.34829641E+03</pdfrwt>
<pdfrwt beam="2">  1       21 0.20489487E-01 0.34829641E+03</pdfrwt>
<totfact> 0.82615311E+03</totfact>
</mgrwt>
</event>
<event>
 4    0  0.1525083E-001  0.2648976E+03  0.7546771E-02  0.1104236E+00
         21   -1    0    0  502  501  0.00000000000E+00  0.00000000000E+00  0.34691277009E+03  0.34691277009E+03  0.00000000000E+00 0.  1.
         21   -1    0    0  503  502 -0.00000000000E+00 -0.00000000000E+00 -0.25911510089E+03  0.25911510089E+03  0.00000000000E+00 0.  1.
         25    1    1    2    0    0 -0.13599658477E+03  0.18987008792E+03  0.21401989499E+03  0.34055137176E+03  0.12500000000E+03 0.  0.
         21    1    1    2  503  501  0.13599658477E+03 -0.18987008792E+03 -0.12622222579E+03  0.26547649922E+03  0.00000000000E+00 0.  1.
<mgrwt>
<rscale>  3 0.26489757E+03</rscale>
<asrwt>0</asrwt>
<pdfrwt beam="1">  1       21 0.53371195E-01 0.26489757E+03</pdfrwt>
<pdfrwt beam="2">  1       21 0.39863862E-01 0.26489757E+03</pdfrwt>
<totfact> 0.19398267E+04</totfact>
</mgrwt>
</event>
<event>
 4    0  0.1525083E-001  0.2776763E+03  0.7546771E-02  0.1096965E+00
         21   -1    0    0  503  501  0.00000000000E+00  0.00000000000E+00  0.10664183898E+04  0.10664183898E+04  0.00000000000E+00 0.  1.
         21   -1    0    0  501  502 -0.00000000000E+00 -0.00000000000E+00 -0.67175323164E+02  0.67175323164E+02  0.00000000000E+00 0.  1.
         25    1    1    2    0    0 -0.23030518042E+03  0.91861986057E+02  0.63397829923E+03  0.69212179890E+03  0.12500000000E+03 0.  0.
         21    1    1    2  503  502  0.23030518042E+03 -0.91861986057E+02  0.36526476743E+03  0.44147191410E+03  0.00000000000E+00 0.  1.
<mgrwt>
<rscale>  3 0.27767625E+03</rscale>
<asrwt>0</asrwt>
<pdfrwt beam="1">  1       21 0.16406436E+00 0.27767625E+03</pdfrwt>
<pdfrwt beam="2">  1       21 0.10334666E-01 0.27767625E+03</pdfrwt>
<totfact> 0.17092147E+04</totfact>
</mgrwt>
</event>
<event>
 4    0  0.1525083E-001  0.3643619E+03  0.7546771E-02  0.1056870E+00
         21   -1    0    0  502  501  0.00000000000E+00  0.00000000000E+00  0.35836318866E+03  0.35836318866E+03  0.00000000000E+00 0.  1.
         21   -1    0    0  503  502 -0.00000000000E+00 -0.00000000000E+00 -0.66020409462E+03  0.66020409462E+03  0.00000000000E+00 0. -1.
         25    1    1    2    0    0  0.25672055066E+03  0.22633853269E+03  0.19653735709E+03  0.41398853274E+03  0.12500000000E+03 0.  0.
         21    1    1    2  503  501 -0.25672055066E+03 -0.22633853269E+03 -0.49837826305E+03  0.60457875054E+03  0.00000000000E+00 0. -1.
<mgrwt>
<rscale>  3 0.36436187E+03</rscale>
<asrwt>0</asrwt>
<pdfrwt beam="1">  1       21 0.55132799E-01 0.36436187E+03</pdfrwt>
<pdfrwt beam="2">  1       21 0.10156986E+00 0.36436187E+03</pdfrwt>
<totfact> 0.21969455E+03</totfact>
</mgrwt>
</event>
<event>
 4    0  0.1525083E-001  0.2502666E+03  0.7546771E-02  0.1113136E+00
         21   -1    0    0  503  501  0.00000000000E+00  0.00000000000E+00  0.19423954949E+03  0.19423954949E+03  0.00000000000E+00 0.  1.
         21   -1    0    0  501  502 -0.00000000000E+00 -0.00000000000E+00 -0.52454469297E+03  0.52454469297E+03  0.00000000000E+00 0.  1.
         25    1    1    2    0    0 -0.50844333403E+02  0.21076817904E+03  0.73170634505E+02  0.26074376941E+03  0.12500000000E+03 0.  0.
         21    1    1    2  503  502  0.50844333403E+02 -0.21076817904E+03 -0.40347577798E+03  0.45804047305E+03  0.00000000000E+00 0.  1.
<mgrwt>
<rscale>  3 0.25026660E+03</rscale>
<asrwt>0</asrwt>
<pdfrwt beam="1">  1       21 0.29883007E-01 0.25026660E+03</pdfrwt>
<pdfrwt beam="2">  1       21 0.80699184E-01 0.25026660E+03</pdfrwt>
<totfact> 0.13995467E+04</totfact>
</mgrwt>
</event>
<event>
 4    0  0.1525083E-001  0.3254415E+03  0.7546771E-02  0.1073172E+00
         21   -1    0    0  502  501  0.00000000000E+00  0.00000000000E+00  0.15171260095E+03  0.15171260095E+03  0.00000000000E+00 0.  1.
         21   -1    0    0  503  502 -0.00000000000E+00 -0.00000000000E+00 -0.11003089262E+04  0.11003089262E+04  0.00000000000E+00 0. -1.
         25    1    1    2    0    0 -0.20027447429E+03  0.22400288139E+03 -0.83148743663E+02  0.33589562292E+03  0.12500000000E+03 0.  0.
         21    1    1    2  503  501  0.20027447429E+03 -0.22400288139E+03 -0.86544758163E+03  0.91612590427E+03  0.00000000000E+00 0. -1.
<mgrwt>
<rscale>  3 0.32544148E+03</rscale>
<asrwt>0</asrwt>
<pdfrwt beam="1">  1       21 0.23340401E-01 0.32544148E+03</pdfrwt>
<pdfrwt beam="2">  1       21 0.16927829E+00 0.32544148E+03</pdfrwt>
<totfact> 0.33923985E+03</totfact>
</mgrwt>
</event>
<event>
 4    0  0.1525083E-001  0.2371871E+03  0.7546771E-02  0.1121681E+00
         21   -1    0    0  503  501  0.00000000000E+00  0.00000000000E+00  0.21058006052E+03  0.21058006052E+03  0.00000000000E+00 0. -1.
         21   -1    0    0  501  502 -0.00000000000E+00 -0.00000000000E+00 -0.23160592250E+03  0.23160592250E+03  0.00000000000E+00 0. -1.
         25    1    1    2    0    0 -0.18998578525E+03 -0.67365596390E+02  0.13956673859E+02  0.23759737145E+03  0.12500000000E+03 0.  0.
         21    1    1    2  503  502  0.18998578525E+03  0.67365596390E+02 -0.34982535845E+02  0.20458861158E+03  0.00000000000E+00 0. -1.
<mgrwt>
<rscale>  3 0.23718710E+03</rscale>
<asrwt>0</asrwt>
<pdfrwt beam="1">  1       21 0.32396932E-01 0.23718710E+03</pdfrwt>
<pdfrwt beam="2">  1       21 0.35631680E-01 0.23718710E+03</pdfrwt>
<totfact> 0.68331235E+04</totfact>
</mgrwt>
</event>
<event>
 4    0  0.1525083E-001  0.2634081E+03  0.7546771E-02  0.1105113E+00
         21   -1    0    0  502  501  0.00000000000E+00  0.00000000000E+00  0.13444834147E+03  0.13444834147E+03  0.00000000000E+00 0.  1.
         21   -1    0    0  503  502 -0.00000000000E+00 -0.00000000000E+00 -0.46426690428E+03  0.46426690428E+03  0.00000000000E+00 0.  1.
         25    1    1    2    0    0  0.16408372249E+03  0.16381507130E+03 -0.13561580949E+03  0.29626929195E+03  0.12500000000E+03 0.  0.
         21    1    1    2  503  501 -0.16408372249E+03 -0.16381507130E+03 -0.19420275332E+03  0.30244595379E+03  0.00000000000E+00 0.  1.
<mgrwt>
<rscale>  3 0.26340813E+03</rscale>
<asrwt>0</asrwt>
<pdfrwt beam="1">  1       21 0.20684360E-01 0.26340813E+03</pdfrwt>
<pdfrwt beam="2">  1       21 0.71425679E-01 0.26340813E+03</pdfrwt>
<totfact> 0.37156641E+04</totfact>
</mgrwt>
</event>
<event>
 4    0  0.1525083E-001  0.2751750E+03  0.7546771E-02  0.1098354E+00
         21   -1    0    0  502  501  0.00000000000E+00  0.00000000000E+00  0.10486567256E+03  0.10486567256E+03  0.00000000000E+00 0. -1.
         21   -1    0    0  503  502 -0.00000000000E+00 -0.00000000000E+00 -0.64965797180E+03  0.64965797180E+03  0.00000000000E+00 0. -1.
         25    1    1    2    0    0 -0.21405033794E+03 -0.11949367720E+03 -0.25762692534E+03  0.37695214381E+03  0.12500000000E+03 0.  0.
         21    1    1    2  503  501  0.21405033794E+03  0.11949367720E+03 -0.28716537390E+03  0.37757150055E+03  0.00000000000E+00 0. -1.
<mgrwt>
<rscale>  3 0.27517501E+03</rscale>
<asrwt>0</asrwt>
<pdfrwt beam="1">  1       21 0.16133180E-01 0.27517501E+03</pdfrwt>
<pdfrwt beam="2">  1       21 0.99947383E-01 0.27517501E+03</pdfrwt>
<totfact> 0.27076883E+04</totfact>
</mgrwt>
</event>
<event>
 4    0  0.1525083E-001  0.3833867E+03  0.7546771E-02  0.1049689E+00
         21   -1    0    0  503  501  0.00000000000E+00  0.00000000000E+00  0.39898127985E+03  0.39898127985E+03  0.00000000000E+00 0.  1.
         21   -1    0    0  501  502 -0.00000000000E+00 -0.00000000000E+00 -0.76467991653E+03  0.76467991653E+03  0.00000000000E+00 0.  1.
         25    1    1    2    0    0  0.12476106776E+03  0.34028669754E+03  0.24394603629E+03  0.45441724128E+03  0.12500000000E+03 0.  0.
         21    1    1    2  503  502 -0.12476106776E+03 -0.34028669754E+03 -0.60964467297E+03  0.70924395509E+03  0.00000000000E+00 0.  1.
<mgrwt>
<rscale>  3 0.38338670E+03</rscale>
<asrwt>0</asrwt>
<pdfrwt beam="1">  1       21 0.61381736E-01 0.38338670E+03</pdfrwt>
<pdfrwt beam="2">  1       21 0.11764306E+00 0.38338670E+03</pdfrwt>
<totfact> 0.12004007E+03</totfact>
</mgrwt>
</event>
<event>
 4    0  0.1525083E-001  0.2886212E+03  0.7546771E-02  0.1091071E+00
         21   -1    0    0  503  501  0.00000000000E+00  0.00000000000E+00  0.18166274127E+03  0.18166274127E+03  0.00000000000E+00 0.  1.
         21   -1    0    0  501  502 -0.00000000000E+00 -0.00000000000E+00 -0.44208296034E+03  0.44208296034E+03  0.00000000000E+00 0.  1.
         25    1    1    2    0    0  0.10006510760E+03 -0.24013369693E+03 -0.58645919397E+02  0.29451920485E+03  0.12500000000E+03 0.  0.
         21    1    1    2  503  502 -0.10006510760E+03  0.24013369693E+03 -0.20177429967E+03  0.32922649676E+03  0.00000000000E+00 0.  1.
<mgrwt>
<rscale>  3 0.28862124E+03</rscale>
<asrwt>0</asrwt>
<pdfrwt beam="1">  1       21 0.27948114E-01 0.28862124E+03</pdfrwt>
<pdfrwt beam="2">  1       21 0.68012763E-01 0.28862124E+03</pdfrwt>
<totfact> 0.23022285E+04</totfact>
</mgrwt>
</event>
<event>
 4    0  0.1525083E-001  0.2579038E+03  0.7546771E-02  0.1108409E+00
         21   -1    0    0  502  501  0.00000000000E+00  0.00000000000E+00  0.27483402845E+03  0.27483402845E+03  0.00000000000E+00 0. -1.
         21   -1    0    0  503  502 -0.00000000000E+00 -0.00000000000E+00 -0.34749078376E+03  0.34749078376E+03  0.00000000000E+00 0. -1.
         25    1    1    2    0    0 -0.63117705859E+02  0.21657688890E+03  0.15575979962E+03  0.30128974223E+03  0.12500000000E+03 0.  0.
         21    1    1    2  503  501  0.63117705859E+02 -0.21657688890E+03 -0.22841655492E+03  0.32103506998E+03  0.00000000000E+00 0. -1.
<mgrwt>
<rscale>  3 0.25790385E+03</rscale>
<asrwt>0</asrwt>
<pdfrwt beam="1">  1       21 0.42282158E-01 0.25790385E+03</pdfrwt>
<pdfrwt beam="2">  1       21 0.53460121E-01 0.25790385E+03</pdfrwt>
<totfact> 0.17194791E+04</totfact>
</mgrwt>
</event>
<event>
 4    0  0.1525083E-001  0.2385365E+03  0.7546771E-02  0.1120772E+00
         21   -1    0    0  502  501  0.00000000000E+00  0.00000000000E+00  0.29226901696E+04  0.29226901696E+04  0.00000000000E+00 0. -1.
         21   -1    0    0  503  502 -0.00000000000E+00 -0.00000000000E+00 -0.42240314191E+02  0.42240314191E+02  0.00000000000E+00 0. -1.
         25    1    1    2    0    0 -0.20183081832E+03  0.23216093976E+02  0.26373475780E+04  0.26481128966E+04  0.12500000000E+03 0.  0.
         21    1    1    2  503  501  0.20183081832E+03 -0.23216093976E+02  0.24310227746E+03  0.31681758719E+03  0.00000000000E+00 0. -1.
<mgrwt>
<rscale>  3 0.23853651E+03</rscale>
<asrwt>0</asrwt>
<pdfrwt beam="1">  1       21 0.44964448E+00 0.23853651E+03</pdfrwt>
<pdfrwt beam="2">  1       21 0.64985122E-02 0.23853651E+03</pdfrwt>
<totfact> 0.67222253E+02</totfact>
</mgrwt>
</event>
<event>
 4    0  0.1525083E-001  0.3234879E+03  0.7546771E-02  0.1074055E+00
         21   -1    0    0  502  501  0.00000000000E+00  0.00000000000E+00  0.26664686625E+03  0.26664686625E+03  0.00000000000E+00 0. -1.
         21   -1    0    0  503  502 -0.00000000000E+00 -0.00000000000E+00 -0.45901522968E+03  0.45901522968E+03  0.00000000000E+00 0.  1.
         25    1    1    2    0    0  0.79683511157E+02 -0.28752385233E+03  0.66966892098E+02  0.33034677574E+03  0.12500000000E+03 0.  0.
         21    1    1    2  503  501 -0.79683511157E+02  0.28752385233E+03 -0.25933525553E+03  0.39531532018E+03  0.00000000000E+00 0.  1.
<mgrwt>
<rscale>  3 0.32348791E+03</rscale>
<asrwt>0</asrwt>
<pdfrwt beam="1">  1       21 0.41022595E-01 0.32348791E+03</pdfrwt>
<pdfrwt beam="2">  1       21 0.70617727E-01 0.32348791E+03</pdfrwt>
<totfact> 0.96881907E+03</totfact>
</mgrwt>
</event>
<event>
 4    0  0.1525083E-001  0.2643258E+03  0.7546771E-02  0.1104572E+00
         21   -1    0    0  502  501  0.00000000000E+00  0.00000000000E+00  0.97880338828E+02  0.97880338828E+02  0.00000000000E+00 0. -1.
         21   -1    0    0  503  502 -0.00000000000E+00 -0.00000000000E+00 -0.89494603910E+03  0.89494603910E+03  0.00000000000E+00 0. -1.
         25    1    1    2    0    0 -0.18964525592E+03  0.13519542091E+03 -0.14733676649E+03  0.30261567654E+03  0.12500000000E+03 0.  0.
         21    1    1    2  503  501  0.18964525592E+03 -0.13519542091E+03 -0.64972893378E+03  0.69021070139E+03  0.00000000000E+00 0. -1.
<mgrwt>
<rscale>  3 0.26432579E+03</rscale>
<asrwt>0</asrwt>
<pdfrwt beam="1">  1       21 0.15058513E-01 0.26432579E+03</pdfrwt>
<pdfrwt beam="2">  1       21 0.13768401E+00 0.26432579E+03</pdfrwt>
<totfact> 0.13922601E+04</totfact>
</mgrwt>
</event>
<event>
 4    0  0.1525083E-001  0.2366922E+03  0.7546771E-02  0.1122016E+00
         21   -1    0    0  502  501  0.00000000000E+00  0.00000000000E+00  0.20057559128E+03  0.20057559128E+03  0.00000000000E+00 0.  1.
         21   -1    0    0  503  502 -0.00000000000E+00 -0.00000000000E+00 -0.24847444140E+03  0.24847444140E+03  0.00000000000E+00 0.  1.
         25    1    1    2    0    0  0.14604461581E+03  0.13809117835E+03 -0.70048994855E+02  0.24684016088E+03  0.12500000000E+03 0.  0.
         21    1    1    2  503  501 -0.14604461581E+03 -0.13809117835E+03  0.22150144731E+02  0.20220987180E+03  0.00000000000E+00 0.  1.
<mgrwt>
<rscale>  3 0.23669221E+03</rscale>
<asrwt>0</asrwt>
<pdfrwt beam="1">  1       21 0.30857783E-01 0.23669221E+03</pdfrwt>
<pdfrwt beam="2">  1       21 0.38226837E-01 0.23669221E+03</pdfrwt>
<totfact> 0.65320315E+04</totfact>
</mgrwt>
</event>
<event>
 4    0  0.1525083E-001  0.2405203E+03  0.7546771E-02  0.1119447E+00
         21   -1    0    0  503  501  0.00000000000E+00  0.00000000000E+00  0.25040613328E+03  0.25040613328E+03  0.00000000000E+00 0. -1.
         21   -1    0    0  501  502 -0.00000000000E+00 -0.00000000000E+00 -0.22873458822E+03  0.22873458822E+03  0.00000000000E+00 0. -1.
         25    1    1    2    0    0  0.20180521906E+03 -0.38725694837E+02  0.98297369323E+02  0.25983148134E+03  0.12500000000E+03 0.  0.
         21    1    1    2  503  502 -0.20180521906E+03  0.38725694837E+02 -0.76625824263E+02  0.21930924017E+03  0.00000000000E+00 0. -1.
<mgrwt>
<rscale>  3 0.24052032E+03</rscale>
<asrwt>0</asrwt>
<pdfrwt beam="1">  1       21 0.38524020E-01 0.24052032E+03</pdfrwt>
<pdfrwt beam="2">  1       21 0.35189937E-01 0.24052032E+03</pdfrwt>
<totfact> 0.49497956E+04</totfact>
</mgrwt>
</event>
<event>
 4    0  0.1525083E-001  0.3074228E+03  0.7546771E-02  0.1081588E+00
         21   -1    0    0  502  501  0.00000000000E+00  0.00000000000E+00  0.26614628484E+03  0.26614628484E+03  0.00000000000E+00 0. -1.
         21   -1    0    0  503  502 -0.00000000000E+00 -0.00000000000E+00 -0.90312894319E+03  0.90312894319E+03  0.00000000000E+00 0.  1.
         25    1    1    2    0    0 -0.21603061905E+03  0.17948406970E+03  0.14388838318E+03  0.33942985499E+03  0.12500000000E+03 0.  0.
         21    1    1    2  503  501  0.21603061905E+03 -0.17948406970E+03 -0.78087104154E+03  0.82984537304E+03  0.00000000000E+00 0.  1.
<mgrwt>
<rscale>  3 0.30742277E+03</rscale>
<asrwt>0</asrwt>
<pdfrwt beam="1">  1       21 0.40945582E-01 0.30742277E+03</pdfrwt>
<pdfrwt beam="2">  1       21 0.13894291E+00 0.30742277E+03</pdfrwt>
<totfact> 0.19228553E+03</totfact>
</mgrwt>
</event>
<event>
 4    0  0.1525083E-001  0.2406026E+03  0.7546771E-02  0.1119392E+00
         21   -1    0    0  502  501  0.00000000000E+00  0.00000000000E+00  0.83534541200E+02  0.83534541200E+02  0.00000000000E+00 0. -1.
         21   -1    0    0  503  502 -0.00000000000E+00 -0.00000000000E+00 -0.59588231127E+03  0.59588231127E+03  0.00000000000E+00 0. -1.
         25    1    1    2    0    0  0.19831570537E+03  0.54180347071E+02 -0.27249481709E+03  0.36351486125E+03  0.12500000000E+03 0.  0.
         21    1    1    2  503  501 -0.19831570537E+03 -0.54180347071E+02 -0.23985295298E+03  0.31590199122E+03  0.00000000000E+00 0. -1.
<mgrwt>
<rscale>  3 0.24060264E+03</rscale>
<asrwt>0</asrwt>
<pdfrwt beam="1">  1       21 0.12851468E-01 0.24060264E+03</pdfrwt>
<pdfrwt beam="2">  1       21 0.91674203E-01 0.24060264E+03</pdfrwt>
<totfact> 0.51074723E+04</totfact>
</mgrwt>
</event>
<event>
 4    0  0.1525083E-001  0.3686578E+03  0.7546771E-02  0.1055207E+00
         21   -1    0    0  502  501  0.00000000000E+00  0.00000000000E+00  0.22731407423E+03  0.22731407423E+03  0.00000000000E+00 0.  1.
         21   -1    0    0  503  502 -0.00000000000E+00 -0.00000000000E+00 -0.68505212484E+03  0.68505212484E+03  0.00000000000E+00 0.  1.
         25    1    1    2    0    0 -0.28734132458E+03  0.19421259659E+03 -0.42127567855E+02  0.37105700567E+03  0.12500000000E+03 0.  0.
         21    1    1    2  503  501  0.28734132458E+03 -0.19421259659E+03 -0.41561048275E+03  0.54130919340E+03  0.00000000000E+00 0.  1.
<mgrwt>
<rscale>  3 0.36865779E+03</rscale>
<asrwt>0</asrwt>
<pdfrwt beam="1">  1       21 0.34971396E-01 0.36865779E+03</pdfrwt>
<pdfrwt beam="2">  1       21 0.10539263E+00 0.36865779E+03</pdfrwt>
<totfact> 0.51628723E+03</totfact>
</mgrwt>
</event>
<event>
 4    0  0.1525083E-001  0.2462825E+03  0.7546771E-02  0.1115677E+00
         21   -1    0    0  503  501  0.00000000000E+00  0.00000000000E+00  0.32518498055E+03  0.32518498055E+03  0.00000000000E+00 0. -1.
         21   -1    0    0  501  502 -0.00000000000E+00 -0.00000000000E+00 -0.22305152556E+03  0.22305152556E+03  0.00000000000E+00 0. -1.
         25    1    1    2    0    0 -0.19568747076E+03 -0.82076096660E+02  0.19740071228E+03  0.31562970878E+03  0.12500000000E+03 0.  0.
         21    1    1    2  503  502  0.19568747076E+03  0.82076096660E+02 -0.95267257287E+02  0.23260679734E+03  0.00000000000E+00 0. -1.
<mgrwt>
<rscale>  3 0.24628250E+03</rscale>
<asrwt>0</asrwt>
<pdfrwt beam="1">  1       21 0.50028458E-01 0.24628250E+03</pdfrwt>
<pdfrwt beam="2">  1       21 0.34315620E-01 0.24628250E+03</pdfrwt>
<totfact> 0.30316512E+04</totfact>
</mgrwt>
</event>
<event>
 4    0  0.1525083E-001  0.3952507E+03  0.7546771E-02  0.1045437E+00
         21   -1    0    0  502  501  0.00000000000E+00  0.00000000000E+00  0.10135925074E+03  0.10135925074E+03  0.00000000000E+00 0.  1.
         21   -1    0    0  503  502 -0.00000000000E+00 -0.00000000000E+00 -0.14696290431E+04  0.14696290431E+04  0.00000000000E+00 0.  1.
         25    1    1    2    0    0 -0.50700571940E+02  0.37152064140E+03 -0.65009590355E+03  0.76082049052E+03  0.12500000000E+03 0.  0.
         21    1    1    2  503  501  0.50700571940E+02 -0.37152064140E+03 -0.71817388884E+03  0.81016780335E+03  0.00000000000E+00 0.  1.
<mgrwt>
<rscale>  3 0.39525072E+03</rscale>
<asrwt>0</asrwt>
<pdfrwt beam="1">  1       21 0.15593731E-01 0.39525072E+03</pdfrwt>
<pdfrwt beam="2">  1       21 0.22609677E+00 0.39525072E+03</pdfrwt>
<totfact> 0.29220441E+03</totfact>
</mgrwt>
</event>
<event>
 4    0  0.1525083E-001  0.2389768E+03  0.7546771E-02  0.1120476E+00
         21   -1    0    0  503  501  0.00000000000E+00  0.00000000000E+00  0.44033310026E+02  0.44033310026E+02  0.00000000000E+00 0. -1.
         21   -1    0    0  501  502 -0.00000000000E+00 -0.00000000000E+00 -0.12387250442E+04  0.12387250442E+04  0.00000000000E+00 0. -1.
         25    1    1    2    0    0 -0.12527272345E+03 -0.16059782837E+03 -0.43595060095E+03  0.49715474874E+03  0.12500000000E+03 0.  0.
         21    1    1    2  503  502  0.12527272345E+03  0.16059782837E+03 -0.75874113325E+03  0.78560360552E+03  0.00000000000E+00 0. -1.
<mgrwt>
<rscale>  3 0.23897681E+03</rscale>
<asrwt>0</asrwt>
<pdfrwt beam="1">  1       21 0.67743550E-02 0.23897681E+03</pdfrwt>
<pdfrwt beam="2">  1       21 0.19057310E+00 0.23897681E+03</pdfrwt>
<totfact> 0.23994253E+04</totfact>
</mgrwt>
</event>
<event>
 4    0  0.1525083E-001  0.2969719E+03  0.7546771E-02  0.1086764E+00
         21   -1    0    0  502  501  0.00000000000E+00  0.00000000000E+00  0.27451173156E+03  0.27451173156E+03  0.00000000000E+00 0. -1.
         21   -1    0    0  503  502 -0.00000000000E+00 -0.00000000000E+00 -0.69377714310E+03  0.69377714310E+03  0.00000000000E+00 0.  1.
         25    1    1    2    0    0  0.26246312556E+03  0.60666333066E+02  0.15426211106E+03  0.33464771799E+03  0.12500000000E+03 0.  0.
         21    1    1    2  503  501 -0.26246312556E+03 -0.60666333066E+02 -0.57352752260E+03  0.63364115667E+03  0.00000000000E+00 0.  1.
<mgrwt>
<rscale>  3 0.29697188E+03</rscale>
<asrwt>0</asrwt>
<pdfrwt beam="1">  1       21 0.42232575E-01 0.29697188E+03</pdfrwt>
<pdfrwt beam="2">  1       21 0.10673494E+00 0.29697188E+03</pdfrwt>
<totfact> 0.35280324E+03</totfact>
</mgrwt>
</event>
<event>
 4    0  0.1525083E-001  0.2908544E+03  0.7546771E-02  0.1089904E+00
         21   -1    0    0  503  501  0.00000000000E+00  0.00000000000E+00  0.68870335316E+03  0.68870335316E+03  0.00000000000E+00 0.  1.
         21   -1    0    0  501  502 -0.00000000000E+00 -0.00000000000E+00 -0.14523336823E+03  0.14523336823E+03  0.00000000000E+00 0. -1.
         25    1    1    2    0    0  0.25042210364E+03 -0.79120437242E+02  0.48399002992E+03  0.56466151157E+03  0.12500000000E+03 0.  0.
         21    1    1    2  503  502 -0.25042210364E+03  0.79120437242E+02  0.59479955001E+02  0.26927520983E+03  0.00000000000E+00 0. -1.
<mgrwt>
<rscale>  3 0.29085439E+03</rscale>
<asrwt>0</asrwt>
<pdfrwt beam="1">  1       21 0.10595436E+00 0.29085439E+03</pdfrwt>
<pdfrwt beam="2">  1       21 0.22343595E-01 0.29085439E+03</pdfrwt>
<totfact> 0.12676180E+04</totfact>
</mgrwt>
</event>
<event>
 4    0  0.1525083E-001  0.3186135E+03  0.7546771E-02  0.1076289E+00
         21   -1    0    0  503  501  0.00000000000E+00  0.00000000000E+00  0.40123299749E+03  0.40123299749E+03  0.00000000000E+00 0. -1.
         21   -1    0    0  501  502 -0.00000000000E+00 -0.00000000000E+00 -0.77107365521E+03  0.77107365521E+03  0.00000000000E+00 0. -1.
         25    1    1    2    0    0 -0.24021551274E+03  0.16788708059E+03  0.30220539799E+03  0.43913855099E+03  0.12500000000E+03 0.  0.
         21    1    1    2  503  502  0.24021551274E+03 -0.16788708059E+03 -0.67204605570E+03  0.73316810171E+03  0.00000000000E+00 0. -1.
<mgrwt>
<rscale>  3 0.31861350E+03</rscale>
<asrwt>0</asrwt>
<pdfrwt beam="1">  1       21 0.61728155E-01 0.31861350E+03</pdfrwt>
<pdfrwt beam="2">  1       21 0.11862671E+00 0.31861350E+03</pdfrwt>
<totfact> 0.12023420E+03</totfact>
</mgrwt>
</event>
<event>
 4    0  0.1525083E-001  0.3395898E+03  0.7546771E-02  0.1066971E+00
         21   -1    0    0  502  501  0.00000000000E+00  0.00000000000E+00  0.16673621973E+04  0.16673621973E+04  0.00000000000E+00 0.  1.
         21   -1    0    0  503  502 -0.00000000000E+00 -0.00000000000E+00 -0.89197403531E+02  0.89197403531E+02  0.00000000000E+00 0.  1.
         25    1    1    2    0    0  0.23231652745E+02  0.31489126265E+03  0.12727349996E+04  0.13172606409E+04  0.12500000000E+03 0.  0.
         21    1    1    2  503  501 -0.23231652745E+02 -0.31489126265E+03  0.30542979416E+03  0.43929895987E+03  0.00000000000E+00 0.  1.
<mgrwt>
<rscale>  3 0.33958978E+03</rscale>
<asrwt>0</asrwt>
<pdfrwt beam="1">  1       21 0.25651724E+00 0.33958978E+03</pdfrwt>
<pdfrwt beam="2">  1       21 0.13722679E-01 0.33958978E+03</pdfrwt>
<totfact> 0.24802321E+03</totfact>
</mgrwt>
</event>
<event>
 4    0  0.1525083E-001  0.2586273E+03  0.7546771E-02  0.1107971E+00
         21   -1    0    0  502  501  0.00000000000E+00  0.00000000000E+00  0.32734367841E+03  0.32734367841E+03  0.00000000000E+00 0.  1.
         21   -1    0    0  503  502 -0.00000000000E+00 -0.00000000000E+00 -0.29259721592E+03  0.29259721592E+03  0.00000000000E+00 0.  1.
         25    1    1    2    0    0  0.22534526697E+03 -0.21968440950E+02  0.21038290749E+03  0.33339026607E+03  0.12500000000E+03 0.  0.
         21    1    1    2  503  501 -0.22534526697E+03  0.21968440950E+02 -0.17563644500E+03  0.28655062826E+03  0.00000000000E+00 0.  1.
<mgrwt>
<rscale>  3 0.25862734E+03</rscale>
<asrwt>0</asrwt>
<pdfrwt beam="1">  1       21 0.50360566E-01 0.25862734E+03</pdfrwt>
<pdfrwt beam="2">  1       21 0.45014956E-01 0.25862734E+03</pdfrwt>
<totfact> 0.17140115E+04</totfact>
</mgrwt>
</event>
<event>
 4    0  0.1525083E-001  0.2547583E+03  0.7546771E-02  0.1110334E+00
         21   -1    0    0  503  501  0.00000000000E+00  0.00000000000E+00  0.59665166015E+02  0.59665166015E+02  0.00000000000E+00 0.  1.
         21   -1    0    0  501  502 -0.00000000000E+00 -0.00000000000E+00 -0.95232717787E+03  0.95232717787E+03  0.00000000000E+00 0.  1.
         25    1    1    2    0    0  0.44100715287E+02  0.21755900797E+03 -0.47718779101E+03  0.54093436102E+03  0.12500000000E+03 0.  0.
         21    1    1    2  503  502 -0.44100715287E+02 -0.21755900797E+03 -0.41547422085E+03  0.47105798287E+03  0.00000000000E+00 0.  1.
<mgrwt>
<rscale>  3 0.25475831E+03</rscale>
<asrwt>0</asrwt>
<pdfrwt beam="1">  1       21 0.91792560E-02 0.25475831E+03</pdfrwt>
<pdfrwt beam="2">  1       21 0.14651188E+00 0.25475831E+03</pdfrwt>
<totfact> 0.28968911E+04</totfact>
</mgrwt>
</event>
<event>
 4    0  0.1525083E-001  0.2394741E+03  0.7546771E-02  0.1120144E+00
         21   -1    0    0  503  501  0.00000000000E+00  0.00000000000E+00  0.44265136501E+03  0.44265136501E+03  0.00000000000E+00 0.  1.
         21   -1    0    0  501  502 -0.00000000000E+00 -0.00000000000E+00 -0.16922216598E+03  0.16922216598E+03  0.00000000000E+00 0.  1.
         25    1    1    2    0    0 -0.20392071798E+03  0.11796776851E+02  0.32260732157E+03  0.40177519473E+03  0.12500000000E+03 0.  0.
         21    1    1    2  503  502  0.20392071798E+03 -0.11796776851E+02 -0.49178122534E+02  0.21009833627E+03  0.00000000000E+00 0.  1.
<mgrwt>
<rscale>  3 0.23947406E+03</rscale>
<asrwt>0</asrwt>
<pdfrwt beam="1">  1       21 0.68100210E-01 0.23947406E+03</pdfrwt>
<pdfrwt beam="2">  1       21 0.26034179E-01 0.23947406E+03</pdfrwt>
<totfact> 0.26917379E+04</totfact>
</mgrwt>
</event>
<event>
 4    0  0.1525083E-001  0.2438078E+03  0.7546771E-02  0.1117282E+00
         21   -1    0    0  503  501  0.00000000000E+00  0.00000000000E+00  0.77671715338E+03  0.77671715338E+03  0.00000000000E+00 0. -1.
         21   -1    0    0  501  502 -0.00000000000E+00 -0.00000000000E+00 -0.18611893624E+04  0.18611893624E+04  0.00000000000E+00 0.  1.
         25    1    1    2    0    0 -0.43014082921E+02 -0.20485856371E+03  0.75148974281E+03  0.79005004652E+03  0.12500000000E+03 0.  0.
         21    1    1    2  503  502  0.43014082921E+02  0.20485856371E+03 -0.18359619518E+04  0.18478564692E+04  0.00000000000E+00 0.  1.
<mgrwt>
<rscale>  3 0.24380780E+03</rscale>
<asrwt>0</asrwt>
<pdfrwt beam="1">  1       21 0.11949495E+00 0.24380780E+03</pdfrwt>
<pdfrwt beam="2">  1       21 0.28633682E+00 0.24380780E+03</pdfrwt>
<totfact> 0.20072715E+01</totfact>
</mgrwt>
</event>
<event>
 4    0  0.1525083E-001  0.2649828E+03  0.7546771E-02  0.1104186E+00
         21   -1    0    0  503  501  0.00000000000E+00  0.00000000000E+00  0.17013420541E+03  0.17013420541E+03  0.00000000000E+00 0.  1.
         21   -1    0    0  501  502 -0.00000000000E+00 -0.00000000000E+00 -0.54023657071E+03  0.54023657071E+03  0.00000000000E+00 0.  1.
         25    1    1    2    0    0  0.19506900689E+03  0.12860388547E+03  0.89047141931E+01  0.26513236457E+03  0.12500000000E+03 0.  0.
         21    1    1    2  503  502 -0.19506900689E+03 -0.12860388547E+03 -0.37900707950E+03  0.44523841155E+03  0.00000000000E+00 0.  1.
<mgrwt>
<rscale>  3 0.26498279E+03</rscale>
<asrwt>0</asrwt>
<pdfrwt beam="1">  1       21 0.26174494E-01 0.26498279E+03</pdfrwt>
<pdfrwt beam="2">  1       21 0.83113317E-01 0.26498279E+03</pdfrwt>
<totfact> 0.16808834E+04</totfact>
</mgrwt>
</event>
<event>
 4    0  0.1525083E-001  0.4473293E+03  0.7546771E-02  0.1028521E+00
         21   -1    0    0  502  501  0.00000000000E+00  0.00000000000E+00  0.38285881183E+03  0.38285881183E+03  0.00000000000E+00 0. -1.
         21   -1    0    0  503  502 -0.00000000000E+00 -0.00000000000E+00 -0.66919222261E+03  0.66919222261E+03  0.00000000000E+00 0. -1.
         25    1    1    2    0    0 -0.50630869467E+02 -0.42651493284E+03  0.11750550815E+03  0.46250515384E+03  0.12500000000E+03 0.  0.
         21    1    1    2  503  501  0.50630869467E+02  0.42651493284E+03 -0.40383891894E+03  0.58954588060E+03  0.00000000000E+00 0. -1.
<mgrwt>
<rscale>  3 0.44732927E+03</rscale>
<asrwt>0</asrwt>
<pdfrwt beam="1">  1       21 0.58901356E-01 0.44732927E+03</pdfrwt>
<pdfrwt beam="2">  1       21 0.10295265E+00 0.44732927E+03</pdfrwt>
<totfact> 0.17780017E+03</totfact>
</mgrwt>
</event>
<event>
 4    0  0.1525083E-001  0.3969892E+03  0.7546771E-02  0.1044827E+00
         21   -1    0    0  503  501  0.00000000000E+00  0.00000000000E+00  0.15364598031E+03  0.15364598031E+03  0.00000000000E+00 0. -1.
         21   -1    0    0  501  502 -0.00000000000E+00 -0.00000000000E+00 -0.10414469965E+04  0.10414469965E+04  0.00000000000E+00 0. -1.
         25    1    1    2    0    0 -0.26867212679E+03  0.26417931781E+03 -0.30297406941E+03  0.49939334237E+03  0.12500000000E+03 0.  0.
         21    1    1    2  503  502  0.26867212679E+03 -0.26417931781E+03 -0.58482694675E+03  0.69569963441E+03  0.00000000000E+00 0. -1.
<mgrwt>
<rscale>  3 0.39698920E+03</rscale>
<asrwt>0</asrwt>
<pdfrwt beam="1">  1       21 0.23637843E-01 0.39698920E+03</pdfrwt>
<pdfrwt beam="2">  1       21 0.16022261E+00 0.39698920E+03</pdfrwt>
<totfact> 0.37292297E+03</totfact>
</mgrwt>
</event>
<event>
 4    0  0.1525083E-001  0.2431892E+03  0.7546771E-02  0.1117686E+00
         21   -1    0    0  503  501  0.00000000000E+00  0.00000000000E+00  0.16668344396E+04  0.16668344396E+04  0.00000000000E+00 0. -1.
         21   -1    0    0  501  502 -0.00000000000E+00 -0.00000000000E+00 -0.42727474920E+02  0.42727474920E+02  0.00000000000E+00 0. -1.
         25    1    1    2    0    0  0.94650584275E+02 -0.18589579002E+03  0.13107555124E+04  0.13331245220E+04  0.12500000000E+03 0.  0.
         21    1    1    2  503  502 -0.94650584275E+02  0.18589579002E+03  0.31335145231E+03  0.37643739255E+03  0.00000000000E+00 0. -1.
<mgrwt>
<rscale>  3 0.24318918E+03</rscale>
<asrwt>0</asrwt>
<pdfrwt beam="1">  1       21 0.25643602E+00 0.24318918E+03</pdfrwt>
<pdfrwt beam="2">  1       21 0.65734590E-02 0.24318918E+03</pdfrwt>
<totfact> 0.98296463E+03</totfact>
</mgrwt>
</event>
<event>
 4    0  0.1525083E-001  0.2782855E+03  0.7546771E-02  0.1096629E+00
         21   -1    0    0  503  501  0.00000000000E+00  0.00000000000E+00  0.40181300491E+03  0.40181300491E+03  0.00000000000E+00 0.  1.
         21   -1    0    0  501  502 -0.00000000000E+00 -0.00000000000E+00 -0.23603232281E+03  0.23603232281E+03  0.00000000000E+00 0.  1.
         25    1    1    2    0    0  0.20746915033E+03 -0.13701959441E+03  0.25125733560E+03  0.37493074866E+03  0.12500000000E+03 0.  0.
         21    1    1    2  503  502 -0.20746915033E+03  0.13701959441E+03 -0.85476653502E+02  0.26291457907E+03  0.00000000000E+00 0.  1.
<mgrwt>
<rscale>  3 0.27828550E+03</rscale>
<asrwt>0</asrwt>
<pdfrwt beam="1">  1       21 0.61817385E-01 0.27828550E+03</pdfrwt>
<pdfrwt beam="2">  1       21 0.36312665E-01 0.27828550E+03</pdfrwt>
<totfact> 0.16979623E+04</totfact>
</mgrwt>
</event>
<event>
 4    0  0.1525083E-001  0.2400664E+03  0.7546771E-02  0.1119749E+00
         21   -1    0    0  503  501  0.00000000000E+00  0.00000000000E+00  0.23912109557E+03  0.23912109557E+03  0.00000000000E+00 0. -1.
         21   -1    0    0  501  502 -0.00000000000E+00 -0.00000000000E+00 -0.24317754732E+03  0.24317754732E+03  0.00000000000E+00 0.  1.
         25    1    1    2    0    0 -0.19231335004E+03 -0.70869304152E+02  0.90531346907E+02  0.25656930379E+03  0.12500000000E+03 0.  0.
         21    1    1    2  503  502  0.19231335004E+03  0.70869304152E+02 -0.94587798661E+02  0.22572933910E+03  0.00000000000E+00 0.  1.
<mgrwt>
<rscale>  3 0.24006641E+03</rscale>
<asrwt>0</asrwt>
<pdfrwt beam="1">  1       21 0.36787861E-01 0.24006641E+03</pdfrwt>
<pdfrwt beam="2">  1       21 0.37411930E-01 0.24006641E+03</pdfrwt>
<totfact> 0.48050447E+04</totfact>
</mgrwt>
</event>
<event>
 4    0  0.1525083E-001  0.3502830E+03  0.7546771E-02  0.1062499E+00
         21   -1    0    0  503  501  0.00000000000E+00  0.00000000000E+00  0.37977477034E+03  0.37977477034E+03  0.00000000000E+00 0.  1.
         21   -1    0    0  501  502 -0.00000000000E+00 -0.00000000000E+00 -0.40491890737E+03  0.40491890737E+03  0.00000000000E+00 0.  1.
         25    1    1    2    0    0 -0.12662758592E+02  0.32697524019E+03  0.18467283141E+03  0.39598258524E+03  0.12500000000E+03 0.  0.
         21    1    1    2  503  502  0.12662758592E+02 -0.32697524019E+03 -0.20981696845E+03  0.38871109246E+03  0.00000000000E+00 0.  1.
<mgrwt>
<rscale>  3 0.35028296E+03</rscale>
<asrwt>0</asrwt>
<pdfrwt beam="1">  1       21 0.58426888E-01 0.35028296E+03</pdfrwt>
<pdfrwt beam="2">  1       21 0.62295217E-01 0.35028296E+03</pdfrwt>
<totfact> 0.60010307E+03</totfact>
</mgrwt>
</event>
<event>
 4    0  0.1525083E-001  0.2643506E+03  0.7546771E-02  0.1104557E+00
         21   -1    0    0  503  501  0.00000000000E+00  0.00000000000E+00  0.38384138401E+03  0.38384138401E+03  0.00000000000E+00 0. -1.
         21   -1    0    0  501  502 -0.00000000000E+00 -0.00000000000E+00 -0.16463584481E+03  0.16463584481E+03  0.00000000000E+00 0. -1.
         25    1    1    2    0    0 -0.10777953294E+03  0.20649407056E+03  0.15670879829E+03  0.30730908929E+03  0.12500000000E+03 0.  0.
         21    1    1    2  503  502  0.10777953294E+03 -0.20649407056E+03  0.62496740898E+02  0.24116813953E+03  0.00000000000E+00 0. -1.
<mgrwt>
<rscale>  3 0.26435058E+03</rscale>
<asrwt>0</asrwt>
<pdfrwt beam="1">  1       21 0.59052520E-01 0.26435058E+03</pdfrwt>
<pdfrwt beam="2">  1       21 0.25328592E-01 0.26435058E+03</pdfrwt>
<totfact> 0.38320822E+04</totfact>
</mgrwt>
</event>
<event>
 4    0  0.1525083E-001  0.2934092E+03  0.7546771E-02  0.1088582E+00
         21   -1    0    0  502  501  0.00000000000E+00  0.00000000000E+00  0.12010926702E+03  0.12010926702E+03  0.00000000000E+00 0. -1.
         21   -1    0    0  503  502 -0.00000000000E+00 -0.00000000000E+00 -0.11613185817E+04  0.11613185817E+04  0.00000000000E+00 0.  1.
         25    1    1    2    0    0 -0.25954387477E+03  0.55685992469E+02 -0.11037436458E+03  0.31348277950E+03  0.12500000000E+03 0.  0.
         21    1    1    2  503  501  0.25954387477E+03 -0.55685992469E+02 -0.93083495008E+03  0.96794506919E+03  0.00000000000E+00 0.  1.
<mgrwt>
<rscale>  3 0.29340919E+03</rscale>
<asrwt>0</asrwt>
<pdfrwt beam="1">  1       21 0.18478349E-01 0.29340919E+03</pdfrwt>
<pdfrwt beam="2">  1       21 0.17866440E+00 0.29340919E+03</pdfrwt>
<totfact> 0.46153848E+03</totfact>
</mgrwt>
</event>
<event>
 4    0  0.1525083E-001  0.6061181E+03  0.7546771E-02  0.9892794E-01
         21   -1    0    0  503  501  0.00000000000E+00  0.00000000000E+00  0.42375737970E+03  0.42375737970E+03  0.00000000000E+00 0. -1.
         21   -1    0    0  501  502 -0.00000000000E+00 -0.00000000000E+00 -0.20751635195E+04  0.20751635195E+04  0.00000000000E+00 0.  1.
         25    1    1    2    0    0  0.24874726516E+03 -0.53840404747E+03  0.13127373466E+03  0.62017087457E+03  0.12500000000E+03 0.  0.
         21    1    1    2  503  502 -0.24874726516E+03  0.53840404747E+03 -0.17826798745E+04  0.18787500247E+04  0.00000000000E+00 0.  1.
<mgrwt>
<rscale>  3 0.60611807E+03</rscale>
<asrwt>0</asrwt>
<pdfrwt beam="1">  1       21 0.65193441E-01 0.60611807E+03</pdfrwt>
<pdfrwt beam="2">  1       21 0.31925594E+00 0.60611807E+03</pdfrwt>
<totfact> 0.39413847E+01</totfact>
</mgrwt>
</event>
<event>
 4    0  0.1525083E-001  0.2545642E+03  0.7546771E-02  0.1110454E+00
         21   -1    0    0  503  501  0.00000000000E+00  0.00000000000E+00  0.23459751587E+03  0.23459751587E+03  0.00000000000E+00 0.  1.
         21   -1    0    0  501  502 -0.00000000000E+00 -0.00000000000E+00 -0.25426140932E+03  0.25426140932E+03  0.00000000000E+00 0.  1.
         25    1    1    2    0    0  0.17012773466E+03  0.14224790854E+03  0.43553936832E+02  0.25826315843E+03  0.12500000000E+03 0.  0.
         21    1    1    2  503  502 -0.17012773466E+03 -0.14224790854E+03 -0.63217830279E+02  0.23059576677E+03  0.00000000000E+00 0.  1.
<mgrwt>
<rscale>  3 0.25456416E+03</rscale>
<asrwt>0</asrwt>
<pdfrwt beam="1">  1       21 0.36091925E-01 0.25456416E+03</pdfrwt>
<pdfrwt beam="2">  1       21 0.39117140E-01 0.25456416E+03</pdfrwt>
<totfact> 0.45364353E+04</totfact>
</mgrwt>
</event>
<event>
 4    0  0.1525083E-001  0.2591904E+03  0.7546771E-02  0.1107631E+00
         21   -1    0    0  502  501  0.00000000000E+00  0.00000000000E+00  0.46636062817E+03  0.46636062817E+03  0.00000000000E+00 0. -1.
         21   -1    0    0  503  502 -0.00000000000E+00 -0.00000000000E+00 -0.14976312286E+03  0.14976312286E+03  0.00000000000E+00 0.  1.
         25    1    1    2    0    0  0.18971825585E+03 -0.12474625504E+03  0.28770126093E+03  0.38723592329E+03  0.12500000000E+03 0.  0.
         21    1    1    2  503  501 -0.18971825585E+03  0.12474625504E+03  0.28896244392E+02  0.22888782774E+03  0.00000000000E+00 0.  1.
<mgrwt>
<rscale>  3 0.25919036E+03</rscale>
<asrwt>0</asrwt>
<pdfrwt beam="1">  1       21 0.71747788E-01 0.25919036E+03</pdfrwt>
<pdfrwt beam="2">  1       21 0.23040481E-01 0.25919036E+03</pdfrwt>
<totfact> 0.30030758E+04</totfact>
</mgrwt>
</event>
<event>
 4    0  0.1525083E-001  0.3538956E+03  0.7546771E-02  0.1061027E+00
         21   -1    0    0  503  501  0.00000000000E+00  0.00000000000E+00  0.15776781309E+04  0.15776781309E+04  0.00000000000E+00 0. -1.
         21   -1    0    0  501  502 -0.00000000000E+00 -0.00000000000E+00 -0.74978333885E+02  0.74978333885E+02  0.00000000000E+00 0. -1.
         25    1    1    2    0    0 -0.10174612406E+03 -0.31506316024E+03  0.85179817685E+03  0.92238939868E+03  0.12500000000E+03 0.  0.
         21    1    1    2  503  502  0.10174612406E+03  0.31506316024E+03  0.65090162012E+03  0.73026706606E+03  0.00000000000E+00 0. -1.
<mgrwt>
<rscale>  3 0.35389556E+03</rscale>
<asrwt>0</asrwt>
<pdfrwt beam="1">  1       21 0.24271969E+00 0.35389556E+03</pdfrwt>
<pdfrwt beam="2">  1       21 0.11535129E-01 0.35389556E+03</pdfrwt>
<totfact> 0.40910864E+03</totfact>
</mgrwt>
</event>
<event>
 4    0  0.1525083E-001  0.2717819E+03  0.7546771E-02  0.1100264E+00
         21   -1    0    0  503  501  0.00000000000E+00  0.00000000000E+00  0.23696670953E+03  0.23696670953E+03  0.00000000000E+00 0. -1.
         21   -1    0    0  501  502 -0.00000000000E+00 -0.00000000000E+00 -0.27779026794E+03  0.27779026794E+03  0.00000000000E+00 0. -1.
         25    1    1    2    0    0  0.24116228725E+03 -0.90085367100E+01 -0.24068858353E+02  0.27284558356E+03  0.12500000000E+03 0.  0.
         21    1    1    2  503  502 -0.24116228725E+03  0.90085367100E+01 -0.16754700059E+02  0.24191139390E+03  0.00000000000E+00 0. -1.
<mgrwt>
<rscale>  3 0.27178190E+03</rscale>
<asrwt>0</asrwt>
<pdfrwt beam="1">  1       21 0.36456417E-01 0.27178190E+03</pdfrwt>
<pdfrwt beam="2">  1       21 0.42736964E-01 0.27178190E+03</pdfrwt>
<totfact> 0.36858255E+04</totfact>
</mgrwt>
</event>
<event>
 4    0  0.1525083E-001  0.3671849E+03  0.7546771E-02  0.1055775E+00
         21   -1    0    0  502  501  0.00000000000E+00  0.00000000000E+00  0.24993851168E+03  0.24993851168E+03  0.00000000000E+00 0.  1.
         21   -1    0    0  503  502 -0.00000000000E+00 -0.00000000000E+00 -0.59790558844E+03  0.59790558844E+03  0.00000000000E+00 0.  1.
         25    1    1    2    0    0 -0.16941682760E+03 -0.30082834823E+03 -0.13931768861E+02  0.36744911316E+03  0.12500000000E+03 0.  0.
         21    1    1    2  503  501  0.16941682760E+03  0.30082834823E+03 -0.33403530789E+03  0.48039498696E+03  0.00000000000E+00 0.  1.
<mgrwt>
<rscale>  3 0.36718491E+03</rscale>
<asrwt>0</asrwt>
<pdfrwt beam="1">  1       21 0.38452079E-01 0.36718491E+03</pdfrwt>
<pdfrwt beam="2">  1       21 0.91985475E-01 0.36718491E+03</pdfrwt>
<totfact> 0.59142967E+03</totfact>
</mgrwt>
</event>
<event>
 4    0  0.1525083E-001  0.4328405E+03  0.7546771E-02  0.1032966E+00
         21   -1    0    0  503  501  0.00000000000E+00  0.00000000000E+00  0.12284006735E+04  0.12284006735E+04  0.00000000000E+00 0. -1.
         21   -1    0    0  501  502 -0.00000000000E+00 -0.00000000000E+00 -0.17012650278E+04  0.17012650278E+04  0.00000000000E+00 0. -1.
         25    1    1    2    0    0  0.34660892708E+03 -0.22713031070E+03  0.11636264981E+04  0.12415222726E+04  0.12500000000E+03 0.  0.
         21    1    1    2  503  502 -0.34660892708E+03  0.22713031070E+03 -0.16364908523E+04  0.16881434288E+04  0.00000000000E+00 0. -1.
<mgrwt>
<rscale>  3 0.43284053E+03</rscale>
<asrwt>0</asrwt>
<pdfrwt beam="1">  1       21 0.18898472E+00 0.43284053E+03</pdfrwt>
<pdfrwt beam="2">  1       21 0.26173308E+00 0.43284053E+03</pdfrwt>
<totfact> 0.66365625E+00</totfact>
</mgrwt>
</event>
<event>
 4    0  0.1525083E-001  0.3702335E+03  0.7546771E-02  0.1054604E+00
         21   -1    0    0  502  501  0.00000000000E+00  0.00000000000E+00  0.12611971968E+03  0.12611971968E+03  0.00000000000E+00 0. -1.
         21   -1    0    0  503  502 -0.00000000000E+00 -0.00000000000E+00 -0.12427344528E+04  0.12427344528E+04  0.00000000000E+00 0. -1.
         25    1    1    2    0    0  0.34559618627E+03  0.44845178168E+02 -0.28516526511E+03  0.46732434390E+03  0.12500000000E+03 0.  0.
         21    1    1    2  503  501 -0.34559618627E+03 -0.44845178168E+02 -0.83144946803E+03  0.90152982860E+03  0.00000000000E+00 0. -1.
<mgrwt>
<rscale>  3 0.37023346E+03</rscale>
<asrwt>0</asrwt>
<pdfrwt beam="1">  1       21 0.19403033E-01 0.37023346E+03</pdfrwt>
<pdfrwt beam="2">  1       21 0.19118992E+00 0.37023346E+03</pdfrwt>
<totfact> 0.33148185E+03</totfact>
</mgrwt>
</event>
<event>
 4    0  0.1525083E-001  0.4008379E+03  0.7546771E-02  0.1043490E+00
         21   -1    0    0  503  501  0.00000000000E+00  0.00000000000E+00  0.77907264483E+03  0.77907264483E+03  0.00000000000E+00 0. -1.
         21   -1    0    0  501  502 -0.00000000000E+00 -0.00000000000E+00 -0.24852737214E+03  0.24852737214E+03  0.00000000000E+00 0. -1.
         25    1    1    2    0    0  0.36964674452E+03 -0.91691431275E+02  0.50659998715E+03  0.64599890192E+03  0.12500000000E+03 0.  0.
         21    1    1    2  503  502 -0.36964674452E+03  0.91691431275E+02  0.23945285542E+02  0.38160111504E+03  0.00000000000E+00 0. -1.
<mgrwt>
<rscale>  3 0.40083792E+03</rscale>
<asrwt>0</asrwt>
<pdfrwt beam="1">  1       21 0.11985733E+00 0.40083792E+03</pdfrwt>
<pdfrwt beam="2">  1       21 0.38234981E-01 0.40083792E+03</pdfrwt>
<totfact> 0.30892989E+03</totfact>
</mgrwt>
</event>
<event>
 4    0  0.1525083E-001  0.2862869E+03  0.7546771E-02  0.1092304E+00
         21   -1    0    0  503  501  0.00000000000E+00  0.00000000000E+00  0.20177607265E+03  0.20177607265E+03  0.00000000000E+00 0.  1.
         21   -1    0    0  501  502 -0.00000000000E+00 -0.00000000000E+00 -0.37039525347E+03  0.37039525347E+03  0.00000000000E+00 0.  1.
         25    1    1    2    0    0  0.25593052824E+03 -0.28892447243E+02 -0.11819179846E+03  0.30972489409E+03  0.12500000000E+03 0.  0.
         21    1    1    2  503  502 -0.25593052824E+03  0.28892447243E+02 -0.50427382350E+02  0.26244643203E+03  0.00000000000E+00 0.  1.
<mgrwt>
<rscale>  3 0.28628693E+03</rscale>
<asrwt>0</asrwt>
<pdfrwt beam="1">  1       21 0.31042473E-01 0.28628693E+03</pdfrwt>
<pdfrwt beam="2">  1       21 0.56983885E-01 0.28628693E+03</pdfrwt>
<totfact> 0.27588585E+04</totfact>
</mgrwt>
</event>
<event>
 4    0  0.1525083E-001  0.2403815E+03  0.7546771E-02  0.1119539E+00
         21   -1    0    0  502  501  0.00000000000E+00  0.00000000000E+00  0.78300815310E+03  0.78300815310E+03  0.00000000000E+00 0.  1.
         21   -1    0    0  503  502 -0.00000000000E+00 -0.00000000000E+00 -0.13292088915E+03  0.13292088915E+03  0.00000000000E+00 0. -1.
         25    1    1    2    0    0  0.18625417357E+03  0.86415461346E+02  0.66789269955E+03  0.70983371803E+03  0.12500000000E+03 0.  0.
         21    1    1    2  503  501 -0.18625417357E+03 -0.86415461346E+02 -0.17805435607E+02  0.20609532423E+03  0.00000000000E+00 0. -1.
<mgrwt>
<rscale>  3 0.24038147E+03</rscale>
<asrwt>0</asrwt>
<pdfrwt beam="1">  1       21 0.12046279E+00 0.24038147E+03</pdfrwt>
<pdfrwt beam="2">  1       21 0.20449368E-01 0.24038147E+03</pdfrwt>
<totfact> 0.11226484E+04</totfact>
</mgrwt>
</event>
<event>
 4    0  0.1525083E-001  0.4591912E+03  0.7546771E-02  0.1025016E+00
         21   -1    0    0  503  501  0.00000000000E+00  0.00000000000E+00  0.37112566811E+03  0.37112566811E+03  0.00000000000E+00 0.  1.
         21   -1    0    0  501  502 -0.00000000000E+00 -0.00000000000E+00 -0.84623173747E+03  0.84623173747E+03  0.00000000000E+00 0. -1.
         25    1    1    2    0    0 -0.41448256421E+03 -0.15308745490E+03  0.12145792298E+03  0.47498272804E+03  0.12500000000E+03 0.  0.
         21    1    1    2  503  502  0.41448256421E+03  0.15308745490E+03 -0.59656399235E+03  0.74237467754E+03  0.00000000000E+00 0. -1.
<mgrwt>
<rscale>  3 0.45919121E+03</rscale>
<asrwt>0</asrwt>
<pdfrwt beam="1">  1       21 0.57096257E-01 0.45919121E+03</pdfrwt>
<pdfrwt beam="2">  1       21 0.13018950E+00 0.45919121E+03</pdfrwt>
<totfact> 0.10487570E+03</totfact>
</mgrwt>
</event>
<event>
 4    0  0.1525083E-001  0.2576619E+03  0.7546771E-02  0.1108556E+00
         21   -1    0    0  503  501  0.00000000000E+00  0.00000000000E+00  0.11499668123E+03  0.11499668123E+03  0.00000000000E+00 0.  1.
         21   -1    0    0  501  502 -0.00000000000E+00 -0.00000000000E+00 -0.75981444103E+03  0.75981444103E+03  0.00000000000E+00 0.  1.
         25    1    1    2    0    0 -0.22167915386E+03 -0.40286249635E+02 -0.58870006887E+03  0.64261761589E+03  0.12500000000E+03 0.  0.
         21    1    1    2  503  502  0.22167915386E+03  0.40286249635E+02 -0.56117690927E+02  0.23219350637E+03  0.00000000000E+00 0.  1.
<mgrwt>
<rscale>  3 0.25766185E+03</rscale>
<asrwt>0</asrwt>
<pdfrwt beam="1">  1       21 0.17691797E-01 0.25766185E+03</pdfrwt>
<pdfrwt beam="2">  1       21 0.11689453E+00 0.25766185E+03</pdfrwt>
<totfact> 0.15712195E+04</totfact>
</mgrwt>
</event>
<event>
 4    0  0.1525083E-001  0.3643838E+03  0.7546771E-02  0.1056861E+00
         21   -1    0    0  503  501  0.00000000000E+00  0.00000000000E+00  0.45502294654E+03  0.45502294654E+03  0.00000000000E+00 0.  1.
         21   -1    0    0  501  502 -0.00000000000E+00 -0.00000000000E+00 -0.33933789566E+03  0.33933789566E+03  0.00000000000E+00 0.  1.
         25    1    1    2    0    0 -0.34217557067E+03 -0.81511672571E+01  0.23303675346E+03  0.43252941074E+03  0.12500000000E+03 0.  0.
         21    1    1    2  503  502  0.34217557067E+03  0.81511672571E+01 -0.11735170258E+03  0.36183143146E+03  0.00000000000E+00 0.  1.
<mgrwt>
<rscale>  3 0.36438381E+03</rscale>
<asrwt>0</asrwt>
<pdfrwt beam="1">  1       21 0.70003530E-01 0.36438381E+03</pdfrwt>
<pdfrwt beam="2">  1       21 0.52205831E-01 0.36438381E+03</pdfrwt>
<totfact> 0.58684469E+03</totfact>
</mgrwt>
</event>
<event>
 4    0  0.1525083E-001  0.2394172E+03  0.7546771E-02  0.1120182E+00
         21   -1    0    0  502  501  0.00000000000E+00  0.00000000000E+00  0.85074579783E+02  0.85074579783E+02  0.00000000000E+00 0.  1.
         21   -1    0    0  503  502 -0.00000000000E+00 -0.00000000000E+00 -0.61498034936E+03  0.61498034936E+03  0.00000000000E+00 0. -1.
         25    1    1    2    0    0  0.29852253605E+02 -0.20200106284E+03 -0.19949437683E+03  0.31163856120E+03  0.12500000000E+03 0.  0.
         21    1    1    2  503  501 -0.29852253605E+02  0.20200106284E+03 -0.33041139274E+03  0.38841636795E+03  0.00000000000E+00 0. -1.
<mgrwt>
<rscale>  3 0.23941718E+03</rscale>
<asrwt>0</asrwt>
<pdfrwt beam="1">  1       21 0.13088397E-01 0.23941718E+03</pdfrwt>
<pdfrwt beam="2">  1       21 0.94612358E-01 0.23941718E+03</pdfrwt>
<totfact> 0.45912372E+04</totfact>
</mgrwt>
</event>
<event>
 4    0  0.1525083E-001  0.2910843E+03  0.7546771E-02  0.1089784E+00
         21   -1    0    0  503  501  0.00000000000E+00  0.00000000000E+00  0.35344898249E+03  0.35344898249E+03  0.00000000000E+00 0. -1.
         21   -1    0    0  501  502 -0.00000000000E+00 -0.00000000000E+00 -0.21711582482E+03  0.21711582482E+03  0.00000000000E+00 0. -1.
         25    1    1    2    0    0  0.25404183950E+03  0.67585558439E+02  0.76315392470E+02  0.30092208801E+03  0.12500000000E+03 0.  0.
         21    1    1    2  503  502 -0.25404183950E+03 -0.67585558439E+02  0.60017765201E+02  0.26964271929E+03  0.00000000000E+00 0. -1.
<mgrwt>
<rscale>  3 0.29108429E+03</rscale>
<asrwt>0</asrwt>
<pdfrwt beam="1">  1       21 0.54376767E-01 0.29108429E+03</pdfrwt>
<pdfrwt beam="2">  1       21 0.33402435E-01 0.29108429E+03</pdfrwt>
<totfact> 0.26322536E+04</totfact>
</mgrwt>
</event>
<event>
 4    0  0.1525083E-001  0.2649560E+03  0.7546771E-02  0.1104202E+00
         21   -1    0    0  503  501  0.00000000000E+00  0.00000000000E+00  0.14705011883E+04  0.14705011883E+04  0.00000000000E+00 0.  1.
         21   -1    0    0  501  502 -0.00000000000E+00 -0.00000000000E+00 -0.43410022164E+02  0.43410022164E+02  0.00000000000E+00 0. -1.
         25    1    1    2    0    0 -0.10047423479E+03  0.21090669949E+03  0.88016730179E+03  0.91918234692E+03  0.12500000000E+03 0.  0.
         21    1    1    2  503  502  0.10047423479E+03 -0.21090669949E+03  0.54692386438E+03  0.59472886358E+03  0.00000000000E+00 0. -1.
<mgrwt>
<rscale>  3 0.26495605E+03</rscale>
<asrwt>0</asrwt>
<pdfrwt beam="1">  1       21 0.22623091E+00 0.26495605E+03</pdfrwt>
<pdfrwt beam="2">  1       21 0.66784661E-02 0.26495605E+03</pdfrwt>
<totfact> 0.14328267E+04</totfact>
</mgrwt>
</event>
<event>
 4    0  0.1525083E-001  0.2406996E+03  0.7546771E-02  0.1119328E+00
         21   -1    0    0  503  501  0.00000000000E+00  0.00000000000E+00  0.35998139955E+02  0.35998139955E+02  0.00000000000E+00 0.  1.
         21   -1    0    0  501  502 -0.00000000000E+00 -0.00000000000E+00 -0.14211861964E+04  0.14211861964E+04  0.00000000000E+00 0.  1.
         25    1    1    2    0    0 -0.18516173872E+03  0.89590404109E+02 -0.86314964452E+03  0.89608237279E+03  0.12500000000E+03 0.  0.
         21    1    1    2  503  502  0.18516173872E+03 -0.89590404109E+02 -0.52203841197E+03  0.56110196361E+03  0.00000000000E+00 0.  1.
<mgrwt>
<rscale>  3 0.24069963E+03</rscale>
<asrwt>0</asrwt>
<pdfrwt beam="1">  1       21 0.55381751E-02 0.24069963E+03</pdfrwt>
<pdfrwt beam="2">  1       21 0.21864404E+00 0.24069963E+03</pdfrwt>
<totfact> 0.22390864E+04</totfact>
</mgrwt>
</event>
<event>
 4    0  0.1525083E-001  0.2543033E+03  0.7546771E-02  0.1110615E+00
         21   -1    0    0  502  501  0.00000000000E+00  0.00000000000E+00  0.17129602504E+04  0.17129602504E+04  0.00000000000E+00 0. -1.
         21   -1    0    0  503  502 -0.00000000000E+00 -0.00000000000E+00 -0.43174068824E+02  0.43174068824E+02  0.00000000000E+00 0. -1.
         25    1    1    2    0    0  0.50067532032E+02  0.21572757837E+03  0.13037258633E+04  0.13282963798E+04  0.12500000000E+03 0.  0.
         21    1    1    2  503  501 -0.50067532032E+02 -0.21572757837E+03  0.36606031829E+03  0.42783793948E+03  0.00000000000E+00 0. -1.
<mgrwt>
<rscale>  3 0.25430326E+03</rscale>
<asrwt>0</asrwt>
<pdfrwt beam="1">  1       21 0.26353229E+00 0.25430326E+03</pdfrwt>
<pdfrwt beam="2">  1       21 0.66421658E-02 0.25430326E+03</pdfrwt>
<totfact> 0.86909295E+03</totfact>
</mgrwt>
</event>
<event>
 4    0  0.1525083E-001  0.2586324E+03  0.7546771E-02  0.1107968E+00
         21   -1    0    0  503  501  0.00000000000E+00  0.00000000000E+00  0.45113552739E+02  0.45113552739E+02  0.00000000000E+00 0. -1.
         21   -1    0    0  501  502 -0.00000000000E+00 -0.00000000000E+00 -0.13449795678E+04  0.13449795678E+04  0.00000000000E+00 0.  1.
         25    1    1    2    0    0  0.18604506927E+03  0.12904626814E+03 -0.57040829858E+03  0.62630370764E+03  0.12500000000E+03 0.  0.
         21    1    1    2  503  502 -0.18604506927E+03 -0.12904626814E+03 -0.72945771648E+03  0.76378941289E+03  0.00000000000E+00 0.  1.
<mgrwt>
<rscale>  3 0.25863238E+03</rscale>
<asrwt>0</asrwt>
<pdfrwt beam="1">  1       21 0.69405468E-02 0.25863238E+03</pdfrwt>
<pdfrwt beam="2">  1       21 0.20691993E+00 0.25863238E+03</pdfrwt>
<totfact> 0.17788082E+04</totfact>
</mgrwt>
</event>
<event>
 4    0  0.1525083E-001  0.2899380E+03  0.7546771E-02  0.1090382E+00
         21   -1    0    0  503  501  0.00000000000E+00  0.00000000000E+00  0.42688086559E+02  0.42688086559E+02  0.00000000000E+00 0.  1.
         21   -1    0    0  501  502 -0.00000000000E+00 -0.00000000000E+00 -0.20094405150E+04  0.20094405150E+04  0.00000000000E+00 0.  1.
         25    1    1    2    0    0 -0.24587479208E+03 -0.89356683610E+02 -0.68301932563E+03  0.74201039715E+03  0.12500000000E+03 0.  0.
         21    1    1    2  503  502  0.24587479208E+03  0.89356683610E+02 -0.12837331028E+04  0.13101182044E+04  0.00000000000E+00 0.  1.
<mgrwt>
<rscale>  3 0.28993798E+03</rscale>
<asrwt>0</asrwt>
<pdfrwt beam="1">  1       21 0.65673978E-02 0.28993798E+03</pdfrwt>
<pdfrwt beam="2">  1       21 0.30914470E+00 0.28993798E+03</pdfrwt>
<totfact> 0.46489480E+03</totfact>
</mgrwt>
</event>
<event>
 4    0  0.1525083E-001  0.2410274E+03  0.7546771E-02  0.1119110E+00
         21   -1    0    0  502  501  0.00000000000E+00  0.00000000000E+00  0.10561169862E+03  0.10561169862E+03  0.00000000000E+00 0.  1.
         21   -1    0    0  503  502 -0.00000000000E+00 -0.00000000000E+00 -0.98201886312E+03  0.98201886312E+03  0.00000000000E+00 0.  1.
         25    1    1    2    0    0 -0.20519026467E+03 -0.19134961783E+02 -0.84557531422E+03  0.87925639235E+03  0.12500000000E+03 0.  0.
         21    1    1    2  503  501  0.20519026467E+03  0.19134961783E+02 -0.30831850281E+02  0.20837416939E+03  0.00000000000E+00 0.  1.
<mgrwt>
<rscale>  3 0.24102737E+03</rscale>
<asrwt>0</asrwt>
<pdfrwt beam="1">  1       21 0.16247954E-01 0.24102737E+03</pdfrwt>
<pdfrwt beam="2">  1       21 0.15107982E+00 0.24102737E+03</pdfrwt>
<totfact> 0.96103070E+03</totfact>
</mgrwt>
</event>
<event>
 4    0  0.1525083E-001  0.3344152E+03  0.7546771E-02  0.1069200E+00
         21   -1    0    0  502  501  0.00000000000E+00  0.00000000000E+00  0.10874165738E+03  0.10874165738E+03  0.00000000000E+00 0.  1.
         21   -1    0    0  503  502 -0.00000000000E+00 -0.00000000000E+00 -0.10432617877E+04  0.10432617877E+04  0.00000000000E+00 0. -1.
         25    1    1    2    0    0  0.12836746011E+03  0.28236553577E+03 -0.31614489097E+03  0.46019679778E+03  0.12500000000E+03 0.  0.
         21    1    1    2  503  501 -0.12836746011E+03 -0.28236553577E+03 -0.61837523932E+03  0.69180664727E+03  0.00000000000E+00 0. -1.
<mgrwt>
<rscale>  3 0.33441516E+03</rscale>
<asrwt>0</asrwt>
<pdfrwt beam="1">  1       21 0.16729486E-01 0.33441516E+03</pdfrwt>
<pdfrwt beam="2">  1       21 0.16050182E+00 0.33441516E+03</pdfrwt>
<totfact> 0.73460412E+03</totfact>
</mgrwt>
</event>
<event>
 4    0  0.1525083E-001  0.3460918E+03  0.7546771E-02  0.1064231E+00
         21   -1    0    0  503  501  0.00000000000E+00  0.00000000000E+00  0.17297554481E+03  0.17297554481E+03  0.00000000000E+00 0. -1.
         21   -1    0    0  501  502 -0.00000000000E+00 -0.00000000000E+00 -0.66035297178E+03  0.66035297178E+03  0.00000000000E+00 0. -1.
         25    1    1    2    0    0  0.30165924615E+03 -0.11470048896E+03 -0.31231172831E+03  0.46617391454E+03  0.12500000000E+03 0.  0.
         21    1    1    2  503  502 -0.30165924615E+03  0.11470048896E+03 -0.17506569866E+03  0.36715460205E+03  0.00000000000E+00 0. -1.
<mgrwt>
<rscale>  3 0.34609176E+03</rscale>
<asrwt>0</asrwt>
<pdfrwt beam="1">  1       21 0.26611622E-01 0.34609176E+03</pdfrwt>
<pdfrwt beam="2">  1       21 0.10159277E+00 0.34609176E+03</pdfrwt>
<totfact> 0.97903785E+03</totfact>
</mgrwt>
</event>
<event>
 4    0  0.1525083E-001  0.3025708E+03  0.7546771E-02  0.1083963E+00
         21   -1    0    0  503  501  0.00000000000E+00  0.00000000000E+00  0.31538798298E+03  0.31538798298E+03  0.00000000000E+00 0. -1.
         21   -1    0    0  501  502 -0.00000000000E+00 -0.00000000000E+00 -0.29465233269E+03  0.29465233269E+03  0.00000000000E+00 0. -1.
         25    1    1    2    0    0 -0.23851939263E+03  0.13795857442E+03  0.10759338543E+03  0.32113144584E+03  0.12500000000E+03 0.  0.
         21    1    1    2  503  502  0.23851939263E+03 -0.13795857442E+03 -0.86857735134E+02  0.28890886984E+03  0.00000000000E+00 0. -1.
<mgrwt>
<rscale>  3 0.30257077E+03</rscale>
<asrwt>0</asrwt>
<pdfrwt beam="1">  1       21 0.48521228E-01 0.30257077E+03</pdfrwt>
<pdfrwt beam="2">  1       21 0.45331128E-01 0.30257077E+03</pdfrwt>
<totfact> 0.17918290E+04</totfact>
</mgrwt>
</event>
<event>
 4    0  0.1525083E-001  0.2777996E+03  0.7546771E-02  0.1096897E+00
         21   -1    0    0  503  501  0.00000000000E+00  0.00000000000E+00  0.13076888113E+03  0.13076888113E+03  0.00000000000E+00 0. -1.
         21   -1    0    0  501  502 -0.00000000000E+00 -0.00000000000E+00 -0.14118816742E+04  0.14118816742E+04  0.00000000000E+00 0. -1.
         25    1    1    2    0    0 -0.23448783905E+03 -0.81012638655E+02 -0.44431256457E+02  0.28133028780E+03  0.12500000000E+03 0.  0.
         21    1    1    2  503  502  0.23448783905E+03  0.81012638655E+02 -0.12366815366E+04  0.12613202675E+04  0.00000000000E+00 0. -1.
<mgrwt>
<rscale>  3 0.27779956E+03</rscale>
<asrwt>0</asrwt>
<pdfrwt beam="1">  1       21 0.20118291E-01 0.27779956E+03</pdfrwt>
<pdfrwt beam="2">  1       21 0.21721255E+00 0.27779956E+03</pdfrwt>
<totfact> 0.22146784E+03</totfact>
</mgrwt>
</event>
<event>
 4    0  0.1525083E-001  0.2719794E+03  0.7546771E-02  0.1100152E+00
         21   -1    0    0  503  501  0.00000000000E+00  0.00000000000E+00  0.55911771234E+03  0.55911771234E+03  0.00000000000E+00 0. -1.
         21   -1    0    0  501  502 -0.00000000000E+00 -0.00000000000E+00 -0.32477026081E+03  0.32477026081E+03  0.00000000000E+00 0.  1.
         25    1    1    2    0    0  0.11013132563E+03  0.21498580737E+03  0.47217438629E+03  0.54490499844E+03  0.12500000000E+03 0.  0.
         21    1    1    2  503  502 -0.11013132563E+03 -0.21498580737E+03 -0.23782693475E+03  0.33898297472E+03  0.00000000000E+00 0.  1.
<mgrwt>
<rscale>  3 0.27197942E+03</rscale>
<asrwt>0</asrwt>
<pdfrwt beam="1">  1       21 0.86018109E-01 0.27197942E+03</pdfrwt>
<pdfrwt beam="2">  1       21 0.49964656E-01 0.27197942E+03</pdfrwt>
<totfact> 0.42117546E+03</totfact>
</mgrwt>
</event>
<event>
 4    0  0.1525083E-001  0.2416798E+03  0.7546771E-02  0.1118679E+00
         21   -1    0    0  502  501  0.00000000000E+00  0.00000000000E+00  0.10536887537E+04  0.10536887537E+04  0.00000000000E+00 0. -1.
         21   -1    0    0  503  502 -0.00000000000E+00 -0.00000000000E+00 -0.53815342707E+02  0.53815342707E+02  0.00000000000E+00 0. -1.
         25    1    1    2    0    0  0.17941471104E+03 -0.10292942972E+03  0.34867358050E+03  0.42424329314E+03  0.12500000000E+03 0.  0.
         21    1    1    2  503  501 -0.17941471104E+03  0.10292942972E+03  0.65119983054E+03  0.68326080330E+03  0.00000000000E+00 0. -1.
<mgrwt>
<rscale>  3 0.24167976E+03</rscale>
<asrwt>0</asrwt>
<pdfrwt beam="1">  1       21 0.16210595E+00 0.24167976E+03</pdfrwt>
<pdfrwt beam="2">  1       21 0.82792842E-02 0.24167976E+03</pdfrwt>
<totfact> 0.26654605E+04</totfact>
</mgrwt>
</event>
<event>
 4    0  0.1525083E-001  0.3154966E+03  0.7546771E-02  0.1077741E+00
         21   -1    0    0  503  501  0.00000000000E+00  0.00000000000E+00  0.62287982091E+02  0.62287982091E+02  0.00000000000E+00 0.  1.
         21   -1    0    0  501  502 -0.00000000000E+00 -0.00000000000E+00 -0.14748055763E+04  0.14748055763E+04  0.00000000000E+00 0.  1.
         25    1    1    2    0    0  0.28718597866E+03  0.37912206906E+02 -0.78044042712E+03  0.84179889644E+03  0.12500000000E+03 0.  0.
         21    1    1    2  503  502 -0.28718597866E+03 -0.37912206906E+02 -0.63207716705E+03  0.69529466190E+03  0.00000000000E+00 0.  1.
<mgrwt>
<rscale>  3 0.31549663E+03</rscale>
<asrwt>0</asrwt>
<pdfrwt beam="1">  1       21 0.95827665E-02 0.31549663E+03</pdfrwt>
<pdfrwt beam="2">  1       21 0.22689316E+00 0.31549663E+03</pdfrwt>
<totfact> 0.73007008E+03</totfact>
</mgrwt>
</event>
<event>
 4    0  0.1525083E-001  0.2405873E+03  0.7546771E-02  0.1119402E+00
         21   -1    0    0  503  501  0.00000000000E+00  0.00000000000E+00  0.97645765796E+03  0.97645765796E+03  0.00000000000E+00 0.  1.
         21   -1    0    0  501  502 -0.00000000000E+00 -0.00000000000E+00 -0.93742157286E+02  0.93742157286E+02  0.00000000000E+00 0.  1.
         25    1    1    2    0    0 -0.84927194607E+02 -0.18720203117E+03  0.82106650565E+03  0.85558894077E+03  0.12500000000E+03 0.  0.
         21    1    1    2  503  502  0.84927194607E+02  0.18720203117E+03  0.61648995017E+02  0.21461087448E+03  0.00000000000E+00 0.  1.
<mgrwt>
<rscale>  3 0.24058726E+03</rscale>
<asrwt>0</asrwt>
<pdfrwt beam="1">  1       21 0.15022425E+00 0.24058726E+03</pdfrwt>
<pdfrwt beam="2">  1       21 0.14421871E-01 0.24058726E+03</pdfrwt>
<totfact> 0.12143355E+04</totfact>
</mgrwt>
</event>
<event>
 4    0  0.1525083E-001  0.2684916E+03  0.7546771E-02  0.1102146E+00
         21   -1    0    0  502  501  0.00000000000E+00  0.00000000000E+00  0.69100531317E+03  0.69100531317E+03  0.00000000000E+00 0. -1.
         21   -1    0    0  503  502 -0.00000000000E+00 -0.00000000000E+00 -0.95691770174E+02  0.95691770174E+02  0.00000000000E+00 0. -1.
         25    1    1    2    0    0  0.13315912416E+03 -0.19680297154E+03  0.38498842401E+03  0.46936536789E+03  0.12500000000E+03 0.  0.
         21    1    1    2  503  501 -0.13315912416E+03  0.19680297154E+03  0.21032511899E+03  0.31733171545E+03  0.00000000000E+00 0. -1.
<mgrwt>
<rscale>  3 0.26849164E+03</rscale>
<asrwt>0</asrwt>
<pdfrwt beam="1">  1       21 0.10630851E+00 0.26849164E+03</pdfrwt>
<pdfrwt beam="2">  1       21 0.14721811E-01 0.26849164E+03</pdfrwt>
<totfact> 0.27683070E+04</totfact>
</mgrwt>
</event>
<event>
 4    0  0.1525083E-001  0.3575964E+03  0.7546771E-02  0.1059540E+00
         21   -1    0    0  503  501  0.00000000000E+00  0.00000000000E+00  0.97859503540E+02  0.97859503540E+02  0.00000000000E+00 0. -1.
         21   -1    0    0  501  502 -0.00000000000E+00 -0.00000000000E+00 -0.12640148397E+04  0.12640148397E+04  0.00000000000E+00 0. -1.
         25    1    1    2    0    0  0.22292204016E+03  0.25011190902E+03 -0.72015584369E+03  0.80405201463E+03  0.12500000000E+03 0.  0.
         21    1    1    2  503  502 -0.22292204016E+03 -0.25011190902E+03 -0.44599949252E+03  0.55782232866E+03  0.00000000000E+00 0. -1.
<mgrwt>
<rscale>  3 0.35759642E+03</rscale>
<asrwt>0</asrwt>
<pdfrwt beam="1">  1       21 0.15055309E-01 0.35759642E+03</pdfrwt>
<pdfrwt beam="2">  1       21 0.19446381E+00 0.35759642E+03</pdfrwt>
<totfact> 0.50915785E+03</totfact>
</mgrwt>
</event>
<event>
 4    0  0.1525083E-001  0.2727102E+03  0.7546771E-02  0.1099738E+00
         21   -1    0    0  503  501  0.00000000000E+00  0.00000000000E+00  0.27533851021E+03  0.27533851021E+03  0.00000000000E+00 0.  1.
         21   -1    0    0  501  502 -0.00000000000E+00 -0.00000000000E+00 -0.24091728948E+03  0.24091728948E+03  0.00000000000E+00 0. -1.
         25    1    1    2    0    0 -0.15494496127E+03 -0.18638112561E+03  0.15879461357E+02  0.27317214774E+03  0.12500000000E+03 0.  0.
         21    1    1    2  503  502  0.15494496127E+03  0.18638112561E+03  0.18541759375E+02  0.24308365195E+03  0.00000000000E+00 0. -1.
<mgrwt>
<rscale>  3 0.27271022E+03</rscale>
<asrwt>0</asrwt>
<pdfrwt beam="1">  1       21 0.42359771E-01 0.27271022E+03</pdfrwt>
<pdfrwt beam="2">  1       21 0.37064198E-01 0.27271022E+03</pdfrwt>
<totfact> 0.36293631E+04</totfact>
</mgrwt>
</event>
<event>
 4    0  0.1525083E-001  0.2819088E+03  0.7546771E-02  0.1094651E+00
         21   -1    0    0  502  501  0.00000000000E+00  0.00000000000E+00  0.31061636450E+03  0.31061636450E+03  0.00000000000E+00 0. -1.
         21   -1    0    0  503  502 -0.00000000000E+00 -0.00000000000E+00 -0.26633204117E+03  0.26633204117E+03  0.00000000000E+00 0. -1.
         25    1    1    2    0    0  0.24364417569E+03 -0.66970944509E+02  0.12957436637E+03  0.31026135463E+03  0.12500000000E+03 0.  0.
         21    1    1    2  503  501 -0.24364417569E+03  0.66970944509E+02 -0.85290043030E+02  0.26668705105E+03  0.00000000000E+00 0. -1.
<mgrwt>
<rscale>  3 0.28190884E+03</rscale>
<asrwt>0</asrwt>
<pdfrwt beam="1">  1       21 0.47787133E-01 0.28190884E+03</pdfrwt>
<pdfrwt beam="2">  1       21 0.40974160E-01 0.28190884E+03</pdfrwt>
<totfact> 0.22977312E+04</totfact>
</mgrwt>
</event>
<event>
 4    0  0.1525083E-001  0.3773558E+03  0.7546771E-02  0.1051915E+00
         21   -1    0    0  502  501  0.00000000000E+00  0.00000000000E+00  0.12218454246E+04  0.12218454246E+04  0.00000000000E+00 0. -1.
         21   -1    0    0  503  502 -0.00000000000E+00 -0.00000000000E+00 -0.24204087295E+03  0.24204087295E+03  0.00000000000E+00 0.  1.
         25    1    1    2    0    0  0.35086098343E+03 -0.60572262402E+02  0.10367686324E+04  0.11033071313E+04  0.12500000000E+03 0.  0.
         21    1    1    2  503  501 -0.35086098343E+03  0.60572262402E+02 -0.56964080790E+02  0.36057916629E+03  0.00000000000E+00 0.  1.
<mgrwt>
<rscale>  3 0.37735584E+03</rscale>
<asrwt>0</asrwt>
<pdfrwt beam="1">  1       21 0.18797622E+00 0.37735584E+03</pdfrwt>
<pdfrwt beam="2">  1       21 0.37237058E-01 0.37735584E+03</pdfrwt>
<totfact> 0.97005096E+02</totfact>
</mgrwt>
</event>
<event>
 4    0  0.1525083E-001  0.2743368E+03  0.7546771E-02  0.1098823E+00
         21   -1    0    0  503  501  0.00000000000E+00  0.00000000000E+00  0.37700658220E+03  0.37700658220E+03  0.00000000000E+00 0. -1.
         21   -1    0    0  501  502 -0.00000000000E+00 -0.00000000000E+00 -0.23582535061E+03  0.23582535061E+03  0.00000000000E+00 0. -1.
         25    1    1    2    0    0 -0.17376428787E+03 -0.17158563839E+03  0.22483289402E+03  0.35469774354E+03  0.12500000000E+03 0.  0.
         21    1    1    2  503  502  0.17376428787E+03  0.17158563839E+03 -0.83651662429E+02  0.25813418926E+03  0.00000000000E+00 0. -1.
<mgrwt>
<rscale>  3 0.27433676E+03</rscale>
<asrwt>0</asrwt>
<pdfrwt beam="1">  1       21 0.58001013E-01 0.27433676E+03</pdfrwt>
<pdfrwt beam="2">  1       21 0.36280823E-01 0.27433676E+03</pdfrwt>
<totfact> 0.19561732E+04</totfact>
</mgrwt>
</event>
<event>
 4    0  0.1525083E-001  0.2368757E+03  0.7546771E-02  0.1121892E+00
         21   -1    0    0  502  501  0.00000000000E+00  0.00000000000E+00  0.10530194848E+03  0.10530194848E+03  0.00000000000E+00 0.  1.
         21   -1    0    0  503  502 -0.00000000000E+00 -0.00000000000E+00 -0.50194565002E+03  0.50194565002E+03  0.00000000000E+00 0. -1.
         25    1    1    2    0    0  0.19520098859E+03 -0.48802268573E+02 -0.12103452392E+03  0.26600647238E+03  0.12500000000E+03 0.  0.
         21    1    1    2  503  501 -0.19520098859E+03  0.48802268573E+02 -0.27560917762E+03  0.34124112612E+03  0.00000000000E+00 0. -1.
<mgrwt>
<rscale>  3 0.23687568E+03</rscale>
<asrwt>0</asrwt>
<pdfrwt beam="1">  1       21 0.16200300E-01 0.23687568E+03</pdfrwt>
<pdfrwt beam="2">  1       21 0.77222408E-01 0.23687568E+03</pdfrwt>
<totfact> 0.49720421E+04</totfact>
</mgrwt>
</event>
<event>
 4    0  0.1525083E-001  0.3168370E+03  0.7546771E-02  0.1077114E+00
         21   -1    0    0  502  501  0.00000000000E+00  0.00000000000E+00  0.45356895426E+02  0.45356895426E+02  0.00000000000E+00 0.  1.
         21   -1    0    0  503  502 -0.00000000000E+00 -0.00000000000E+00 -0.20408171673E+04  0.20408171673E+04  0.00000000000E+00 0.  1.
         25    1    1    2    0    0 -0.29105832847E+03  0.67633966309E+01 -0.10827625878E+04  0.11281668829E+04  0.12500000000E+03 0.  0.
         21    1    1    2  503  501  0.29105832847E+03 -0.67633966309E+01 -0.91269768402E+03  0.95800717978E+03  0.00000000000E+00 0.  1.
<mgrwt>
<rscale>  3 0.31683702E+03</rscale>
<asrwt>0</asrwt>
<pdfrwt beam="1">  1       21 0.69779860E-02 0.31683702E+03</pdfrwt>
<pdfrwt beam="2">  1       21 0.31397178E+00 0.31683702E+03</pdfrwt>
<totfact> 0.38394736E+03</totfact>
</mgrwt>
</event>
<event>
 4    0  0.1525083E-001  0.2831206E+03  0.7546771E-02  0.1093997E+00
         21   -1    0    0  502  501  0.00000000000E+00  0.00000000000E+00  0.16688105231E+04  0.16688105231E+04  0.00000000000E+00 0.  1.
         21   -1    0    0  503  502 -0.00000000000E+00 -0.00000000000E+00 -0.18499831125E+03  0.18499831125E+03  0.00000000000E+00 0.  1.
         25    1    1    2    0    0  0.24055238857E+03 -0.81650635912E+02  0.15624419656E+04  0.15878860708E+04  0.12500000000E+03 0.  0.
         21    1    1    2  503  501 -0.24055238857E+03  0.81650635912E+02 -0.78629753754E+02  0.26592276354E+03  0.00000000000E+00 0.  1.
<mgrwt>
<rscale>  3 0.28312061E+03</rscale>
<asrwt>0</asrwt>
<pdfrwt beam="1">  1       21 0.25674007E+00 0.28312061E+03</pdfrwt>
<pdfrwt beam="2">  1       21 0.28461280E-01 0.28312061E+03</pdfrwt>
<totfact> 0.65039435E+02</totfact>
</mgrwt>
</event>
<event>
 4    0  0.1525083E-001  0.7481842E+03  0.7546771E-02  0.9638203E-01
         21   -1    0    0  502  501  0.00000000000E+00  0.00000000000E+00  0.72583935475E+03  0.72583935475E+03  0.00000000000E+00 0. -1.
         21   -1    0    0  503  502 -0.00000000000E+00 -0.00000000000E+00 -0.81025589348E+03  0.81025589348E+03  0.00000000000E+00 0. -1.
         25    1    1    2    0    0 -0.72710052370E+03 -0.12441663180E+03  0.14799490296E+03  0.76268090387E+03  0.12500000000E+03 0.  0.
         21    1    1    2  503  501  0.72710052370E+03  0.12441663180E+03 -0.23241144168E+03  0.77341434436E+03  0.00000000000E+00 0. -1.
<mgrwt>
<rscale>  3 0.74818425E+03</rscale>
<asrwt>0</asrwt>
<pdfrwt beam="1">  1       21 0.11166759E+00 0.74818425E+03</pdfrwt>
<pdfrwt beam="2">  1       21 0.12465475E+00 0.74818425E+03</pdfrwt>
<totfact> 0.22252515E+02</totfact>
</mgrwt>
</event>
<event>
 4    0  0.1525083E-001  0.2415961E+03  0.7546771E-02  0.1118734E+00
         21   -1    0    0  502  501  0.00000000000E+00  0.00000000000E+00  0.45786690388E+03  0.45786690388E+03  0.00000000000E+00 0.  1.
         21   -1    0    0  503  502 -0.00000000000E+00 -0.00000000000E+00 -0.11644630017E+03  0.11644630017E+03  0.00000000000E+00 0.  1.
         25    1    1    2    0    0  0.13580549154E+03  0.15588624988E+03  0.25186386460E+03  0.34900438497E+03  0.12500000000E+03 0.  0.
         21    1    1    2  503  501 -0.13580549154E+03 -0.15588624988E+03  0.89556739117E+02  0.22530881908E+03  0.00000000000E+00 0.  1.
<mgrwt>
<rscale>  3 0.24159606E+03</rscale>
<asrwt>0</asrwt>
<pdfrwt beam="1">  1       21 0.70441061E-01 0.24159606E+03</pdfrwt>
<pdfrwt beam="2">  1       21 0.17914816E-01 0.24159606E+03</pdfrwt>
<totfact> 0.50610725E+04</totfact>
</mgrwt>
</event>
<event>
 4    0  0.1525083E-001  0.2694959E+03  0.7546771E-02  0.1101568E+00
         21   -1    0    0  503  501  0.00000000000E+00  0.00000000000E+00  0.18151484776E+03  0.18151484776E+03  0.00000000000E+00 0. -1.
         21   -1    0    0  501  502 -0.00000000000E+00 -0.00000000000E+00 -0.35818350439E+03  0.35818350439E+03  0.00000000000E+00 0.  1.
         25    1    1    2    0    0 -0.20329834669E+03  0.12519124083E+03 -0.11570813243E+03  0.29328558856E+03  0.12500000000E+03 0.  0.
         21    1    1    2  503  502  0.20329834669E+03 -0.12519124083E+03 -0.60960524204E+02  0.24641276359E+03  0.00000000000E+00 0.  1.
<mgrwt>
<rscale>  3 0.26949595E+03</rscale>
<asrwt>0</asrwt>
<pdfrwt beam="1">  1       21 0.27925361E-01 0.26949595E+03</pdfrwt>
<pdfrwt beam="2">  1       21 0.55105154E-01 0.26949595E+03</pdfrwt>
<totfact> 0.36722591E+04</totfact>
</mgrwt>
</event>
<event>
 4    0  0.1525083E-001  0.2749942E+03  0.7546771E-02  0.1098455E+00
         21   -1    0    0  502  501  0.00000000000E+00  0.00000000000E+00  0.57580983440E+02  0.57580983440E+02  0.00000000000E+00 0. -1.
         21   -1    0    0  503  502 -0.00000000000E+00 -0.00000000000E+00 -0.16053535054E+04  0.16053535054E+04  0.00000000000E+00 0. -1.
         25    1    1    2    0    0 -0.42286216938E+02  0.24126475391E+03 -0.37597335850E+03  0.46580872890E+03  0.12500000000E+03 0.  0.
         21    1    1    2  503  501  0.42286216938E+02 -0.24126475391E+03 -0.11717991634E+04  0.11971257599E+04  0.00000000000E+00 0. -1.
<mgrwt>
<rscale>  3 0.27499419E+03</rscale>
<asrwt>0</asrwt>
<pdfrwt beam="1">  1       21 0.88586146E-02 0.27499419E+03</pdfrwt>
<pdfrwt beam="2">  1       21 0.24697741E+00 0.27499419E+03</pdfrwt>
<totfact> 0.64907981E+03</totfact>
</mgrwt>
</event>
<event>
 4    0  0.1525083E-001  0.3517045E+03  0.7546771E-02  0.1061918E+00
         21   -1    0    0  503  501  0.00000000000E+00  0.00000000000E+00  0.23381521722E+03  0.23381521722E+03  0.00000000000E+00 0.  1.
         21   -1    0    0  501  502 -0.00000000000E+00 -0.00000000000E+00 -0.49640316812E+03  0.49640316812E+03  0.00000000000E+00 0.  1.
         25    1    1    2    0    0 -0.19475699199E+03 -0.26484103443E+03 -0.15471884409E+03  0.38423167512E+03  0.12500000000E+03 0.  0.
         21    1    1    2  503  502  0.19475699199E+03  0.26484103443E+03 -0.10786910681E+03  0.34598671022E+03  0.00000000000E+00 0.  1.
<mgrwt>
<rscale>  3 0.35170451E+03</rscale>
<asrwt>0</asrwt>
<pdfrwt beam="1">  1       21 0.35971573E-01 0.35170451E+03</pdfrwt>
<pdfrwt beam="2">  1       21 0.76369717E-01 0.35170451E+03</pdfrwt>
<totfact> 0.10489698E+04</totfact>
</mgrwt>
</event>
<event>
 4    0  0.1525083E-001  0.2797671E+03  0.7546771E-02  0.1095816E+00
         21   -1    0    0  503  501  0.00000000000E+00  0.00000000000E+00  0.46270298290E+03  0.46270298290E+03  0.00000000000E+00 0. -1.
         21   -1    0    0  501  502 -0.00000000000E+00 -0.00000000000E+00 -0.19496617867E+03  0.19496617867E+03  0.00000000000E+00 0. -1.
         25    1    1    2    0    0 -0.23206245380E+03  0.93763765023E+02 -0.14870709621E+02  0.28016203187E+03  0.12500000000E+03 0.  0.
         21    1    1    2  503  502  0.23206245380E+03 -0.93763765023E+02  0.28260751385E+03  0.37750712971E+03  0.00000000000E+00 0. -1.
<mgrwt>
<rscale>  3 0.27976709E+03</rscale>
<asrwt>0</asrwt>
<pdfrwt beam="1">  1       21 0.71185074E-01 0.27976709E+03</pdfrwt>
<pdfrwt beam="2">  1       21 0.29994797E-01 0.27976709E+03</pdfrwt>
<totfact> 0.18179526E+04</totfact>
</mgrwt>
</event>
<event>
 4    0  0.1525083E-001  0.2521410E+03  0.7546771E-02  0.1111959E+00
         21   -1    0    0  502  501  0.00000000000E+00  0.00000000000E+00  0.29528046018E+03  0.29528046018E+03  0.00000000000E+00 0.  1.
         21   -1    0    0  503  502 -0.00000000000E+00 -0.00000000000E+00 -0.19153356238E+03  0.19153356238E+03  0.00000000000E+00 0.  1.
         25    1    1    2    0    0 -0.42016074353E+02 -0.21490634301E+03  0.88831750049E+02  0.26733156676E+03  0.12500000000E+03 0.  0.
         21    1    1    2  503  501  0.42016074353E+02  0.21490634301E+03  0.14915147743E+02  0.21948245580E+03  0.00000000000E+00 0.  1.
<mgrwt>
<rscale>  3 0.25214101E+03</rscale>
<asrwt>0</asrwt>
<pdfrwt beam="1">  1       21 0.45427763E-01 0.25214101E+03</pdfrwt>
<pdfrwt beam="2">  1       21 0.29466702E-01 0.25214101E+03</pdfrwt>
<totfact> 0.49951883E+04</totfact>
</mgrwt>
</event>
<event>
 4    0  0.1525083E-001  0.2363663E+03  0.7546771E-02  0.1122237E+00
         21   -1    0    0  502  501  0.00000000000E+00  0.00000000000E+00  0.16557352199E+04  0.16557352199E+04  0.00000000000E+00 0.  1.
         21   -1    0    0  503  502 -0.00000000000E+00 -0.00000000000E+00 -0.17805515555E+03  0.17805515555E+03  0.00000000000E+00 0. -1.
         25    1    1    2    0    0 -0.74094916227E+02 -0.18642423184E+03  0.15875602826E+04  0.16050597190E+04  0.12500000000E+03 0.  0.
         21    1    1    2  503  501  0.74094916227E+02  0.18642423184E+03 -0.10988021823E+03  0.22873065642E+03  0.00000000000E+00 0. -1.
<mgrwt>
<rscale>  3 0.23636635E+03</rscale>
<asrwt>0</asrwt>
<pdfrwt beam="1">  1       21 0.25472848E+00 0.23636635E+03</pdfrwt>
<pdfrwt beam="2">  1       21 0.27393102E-01 0.23636635E+03</pdfrwt>
<totfact> 0.75328237E+02</totfact>
</mgrwt>
</event>
<event>
 4    0  0.1525083E-001  0.2950470E+03  0.7546771E-02  0.1087743E+00
         21   -1    0    0  502  501  0.00000000000E+00  0.00000000000E+00  0.82491094855E+03  0.82491094855E+03  0.00000000000E+00 0. -1.
         21   -1    0    0  503  502 -0.00000000000E+00 -0.00000000000E+00 -0.11139583466E+03  0.11139583466E+03  0.00000000000E+00 0. -1.
         25    1    1    2    0    0  0.18714800728E+03  0.19079659695E+03  0.54676736048E+03  0.62129482898E+03  0.12500000000E+03 0.  0.
         21    1    1    2  503  501 -0.18714800728E+03 -0.19079659695E+03  0.16674775341E+03  0.31501195422E+03  0.00000000000E+00 0. -1.
<mgrwt>
<rscale>  3 0.29504698E+03</rscale>
<asrwt>0</asrwt>
<pdfrwt beam="1">  1       21 0.12690937E+00 0.29504698E+03</pdfrwt>
<pdfrwt beam="2">  1       21 0.17137821E-01 0.29504698E+03</pdfrwt>
<totfact> 0.13310732E+04</totfact>
</mgrwt>
</event>
<event>
 4    0  0.1525083E-001  0.3821460E+03  0.7546771E-02  0.1050143E+00
         21   -1    0    0  502  501  0.00000000000E+00  0.00000000000E+00  0.32961762721E+03  0.32961762721E+03  0.00000000000E+00 0. -1.
         21   -1    0    0  503  502 -0.00000000000E+00 -0.00000000000E+00 -0.43459529752E+03  0.43459529752E+03  0.00000000000E+00 0. -1.
         25    1    1    2    0    0 -0.20556882417E+03 -0.29690408136E+03  0.18415530496E+02  0.38258947550E+03  0.12500000000E+03 0.  0.
         21    1    1    2  503  501  0.20556882417E+03  0.29690408136E+03 -0.12339320081E+03  0.38162344923E+03  0.00000000000E+00 0. -1.
<mgrwt>
<rscale>  3 0.38214601E+03</rscale>
<asrwt>0</asrwt>
<pdfrwt beam="1">  1       21 0.50710404E-01 0.38214601E+03</pdfrwt>
<pdfrwt beam="2">  1       21 0.66860815E-01 0.38214601E+03</pdfrwt>
<totfact> 0.68696778E+03</totfact>
</mgrwt>
</event>
<event>
 4    0  0.1525083E-001  0.2726356E+03  0.7546771E-02  0.1099781E+00
         21   -1    0    0  502  501  0.00000000000E+00  0.00000000000E+00  0.55222989137E+03  0.55222989137E+03  0.00000000000E+00 0.  1.
         21   -1    0    0  503  502 -0.00000000000E+00 -0.00000000000E+00 -0.14238366201E+03  0.14238366201E+03  0.00000000000E+00 0.  1.
         25    1    1    2    0    0  0.39191959060E+02 -0.23910076343E+03  0.35249586807E+03  0.44562711063E+03  0.12500000000E+03 0.  0.
         21    1    1    2  503  501 -0.39191959060E+02  0.23910076343E+03  0.57350361301E+02  0.24898644274E+03  0.00000000000E+00 0.  1.
<mgrwt>
<rscale>  3 0.27263563E+03</rscale>
<asrwt>0</asrwt>
<pdfrwt beam="1">  1       21 0.84958444E-01 0.27263563E+03</pdfrwt>
<pdfrwt beam="2">  1       21 0.21905179E-01 0.27263563E+03</pdfrwt>
<totfact> 0.22397591E+04</totfact>
</mgrwt>
</event>
<event>
 4    0  0.1525083E-001  0.2534060E+03  0.7546771E-02  0.1111171E+00
         21   -1    0    0  502  501  0.00000000000E+00  0.00000000000E+00  0.33954040158E+03  0.33954040158E+03  0.00000000000E+00 0. -1.
         21   -1    0    0  503  502 -0.00000000000E+00 -0.00000000000E+00 -0.17118304389E+03  0.17118304389E+03  0.00000000000E+00 0. -1.
         25    1    1    2    0    0 -0.22012515817E+03  0.11597193630E+02  0.42656761603E+02  0.25697116466E+03  0.12500000000E+03 0.  0.
         21    1    1    2  503  501  0.22012515817E+03 -0.11597193630E+02  0.12570059608E+03  0.25375228081E+03  0.00000000000E+00 0. -1.
<mgrwt>
<rscale>  3 0.25340596E+03</rscale>
<asrwt>0</asrwt>
<pdfrwt beam="1">  1       21 0.52236985E-01 0.25340596E+03</pdfrwt>
<pdfrwt beam="2">  1       21 0.26335853E-01 0.25340596E+03</pdfrwt>
<totfact> 0.46384285E+04</totfact>
</mgrwt>
</event>
<event>
 4    0  0.1525083E-001  0.3767146E+03  0.7546771E-02  0.1052155E+00
         21   -1    0    0  503  501  0.00000000000E+00  0.00000000000E+00  0.17479993662E+04  0.17479993662E+04  0.00000000000E+00 0. -1.
         21   -1    0    0  501  502 -0.00000000000E+00 -0.00000000000E+00 -0.13346395304E+03  0.13346395304E+03  0.00000000000E+00 0. -1.
         25    1    1    2    0    0 -0.33835632063E+03  0.10864563648E+03  0.14344022493E+04  0.14830454095E+04  0.12500000000E+03 0.  0.
         21    1    1    2  503  502  0.33835632063E+03 -0.10864563648E+03  0.18013316387E+03  0.39841790969E+03  0.00000000000E+00 0. -1.
<mgrwt>
<rscale>  3 0.37671458E+03</rscale>
<asrwt>0</asrwt>
<pdfrwt beam="1">  1       21 0.26892296E+00 0.37671458E+03</pdfrwt>
<pdfrwt beam="2">  1       21 0.20532917E-01 0.37671458E+03</pdfrwt>
<totfact> 0.96283209E+02</totfact>
</mgrwt>
</event>
<event>
 4    0  0.1525083E-001  0.2944509E+03  0.7546771E-02  0.1088048E+00
         21   -1    0    0  502  501  0.00000000000E+00  0.00000000000E+00  0.11834734301E+03  0.11834734301E+03  0.00000000000E+00 0. -1.
         21   -1    0    0  503  502 -0.00000000000E+00 -0.00000000000E+00 -0.67046589560E+03  0.67046589560E+03  0.00000000000E+00 0. -1.
         25    1    1    2    0    0  0.22892177677E+03 -0.13664247352E+03 -0.25391631743E+03  0.38881209049E+03  0.12500000000E+03 0.  0.
         21    1    1    2  503  501 -0.22892177677E+03  0.13664247352E+03 -0.29820223515E+03  0.40000114812E+03  0.00000000000E+00 0. -1.
<mgrwt>
<rscale>  3 0.29445092E+03</rscale>
<asrwt>0</asrwt>
<pdfrwt beam="1">  1       21 0.18207284E-01 0.29445092E+03</pdfrwt>
<pdfrwt beam="2">  1       21 0.10314860E+00 0.29445092E+03</pdfrwt>
<totfact> 0.19880963E+04</totfact>
</mgrwt>
</event>
<event>
 4    0  0.1525083E-001  0.2734713E+03  0.7546771E-02  0.1099309E+00
         21   -1    0    0  503  501  0.00000000000E+00  0.00000000000E+00  0.40957723109E+03  0.40957723109E+03  0.00000000000E+00 0. -1.
         21   -1    0    0  501  502 -0.00000000000E+00 -0.00000000000E+00 -0.26634797562E+03  0.26634797562E+03  0.00000000000E+00 0. -1.
         25    1    1    2    0    0  0.16144312444E+02 -0.24269507677E+03  0.28451793466E+03  0.39463526737E+03  0.12500000000E+03 0.  0.
         21    1    1    2  503  502 -0.16144312444E+02  0.24269507677E+03 -0.14128867918E+03  0.28128993934E+03  0.00000000000E+00 0. -1.
<mgrwt>
<rscale>  3 0.27347128E+03</rscale>
<asrwt>0</asrwt>
<pdfrwt beam="1">  1       21 0.63011882E-01 0.27347128E+03</pdfrwt>
<pdfrwt beam="2">  1       21 0.40976612E-01 0.27347128E+03</pdfrwt>
<totfact> 0.12775276E+04</totfact>
</mgrwt>
</event>
<event>
 4    0  0.1525083E-001  0.2423554E+03  0.7546771E-02  0.1118234E+00
         21   -1    0    0  503  501  0.00000000000E+00  0.00000000000E+00  0.19499773237E+03  0.19499773237E+03  0.00000000000E+00 0. -1.
         21   -1    0    0  501  502 -0.00000000000E+00 -0.00000000000E+00 -0.26726106423E+03  0.26726106423E+03  0.00000000000E+00 0. -1.
         25    1    1    2    0    0  0.20320754366E+03  0.42635891542E+02 -0.77848231315E+02  0.25455151182E+03  0.12500000000E+03 0.  0.
         21    1    1    2  503  502 -0.20320754366E+03 -0.42635891542E+02  0.55848994551E+01  0.20770728478E+03  0.00000000000E+00 0. -1.
<mgrwt>
<rscale>  3 0.24235537E+03</rscale>
<asrwt>0</asrwt>
<pdfrwt beam="1">  1       21 0.29999651E-01 0.24235537E+03</pdfrwt>
<pdfrwt beam="2">  1       21 0.41117087E-01 0.24235537E+03</pdfrwt>
<totfact> 0.59418828E+04</totfact>
</mgrwt>
</event>
<event>
 4    0  0.1525083E-001  0.2429407E+03  0.7546771E-02  0.1117849E+00
         21   -1    0    0  502  501  0.00000000000E+00  0.00000000000E+00  0.11754919337E+04  0.11754919337E+04  0.00000000000E+00 0. -1.
         21   -1    0    0  503  502 -0.00000000000E+00 -0.00000000000E+00 -0.79061404033E+02  0.79061404033E+02  0.00000000000E+00 0. -1.
         25    1    1    2    0    0 -0.14791407493E+03  0.14668542889E+03  0.99240625701E+03  0.10217095319E+04  0.12500000000E+03 0.  0.
         21    1    1    2  503  501  0.14791407493E+03 -0.14668542889E+03  0.10402427263E+03  0.23284380581E+03  0.00000000000E+00 0. -1.
<mgrwt>
<rscale>  3 0.24294071E+03</rscale>
<asrwt>0</asrwt>
<pdfrwt beam="1">  1       21 0.18084490E+00 0.24294071E+03</pdfrwt>
<pdfrwt beam="2">  1       21 0.12163294E-01 0.24294071E+03</pdfrwt>
<totfact> 0.99105901E+03</totfact>
</mgrwt>
</event>
<event>
 4    0  0.1525083E-001  0.2369352E+03  0.7546771E-02  0.1121851E+00
         21   -1    0    0  502  501  0.00000000000E+00  0.00000000000E+00  0.32749767898E+03  0.32749767898E+03  0.00000000000E+00 0.  1.
         21   -1    0    0  503  502 -0.00000000000E+00 -0.00000000000E+00 -0.18736910501E+03  0.18736910501E+03  0.00000000000E+00 0.  1.
         25    1    1    2    0    0 -0.53142665241E+02  0.19413698109E+03 -0.45261438275E+02  0.24121962626E+03  0.12500000000E+03 0.  0.
         21    1    1    2  503  501  0.53142665241E+02 -0.19413698109E+03  0.18539001224E+03  0.27364715773E+03  0.00000000000E+00 0.  1.
<mgrwt>
<rscale>  3 0.23693524E+03</rscale>
<asrwt>0</asrwt>
<pdfrwt beam="1">  1       21 0.50384258E-01 0.23693524E+03</pdfrwt>
<pdfrwt beam="2">  1       21 0.28826016E-01 0.23693524E+03</pdfrwt>
<totfact> 0.42285099E+04</totfact>
</mgrwt>
</event>
<event>
 4    0  0.1525083E-001  0.2554913E+03  0.7546771E-02  0.1109883E+00
         21   -1    0    0  502  501  0.00000000000E+00  0.00000000000E+00  0.12179985888E+04  0.12179985888E+04  0.00000000000E+00 0.  1.
         21   -1    0    0  503  502 -0.00000000000E+00 -0.00000000000E+00 -0.52077644819E+02  0.52077644819E+02  0.00000000000E+00 0.  1.
         25    1    1    2    0    0  0.63944106817E+02 -0.21345252485E+03  0.81752405247E+03  0.85651701999E+03  0.12500000000E+03 0.  0.
         21    1    1    2  503  501 -0.63944106817E+02  0.21345252485E+03  0.34839689148E+03  0.41355921360E+03  0.00000000000E+00 0.  1.
<mgrwt>
<rscale>  3 0.25549135E+03</rscale>
<asrwt>0</asrwt>
<pdfrwt beam="1">  1       21 0.18738438E+00 0.25549135E+03</pdfrwt>
<pdfrwt beam="2">  1       21 0.80119463E-02 0.25549135E+03</pdfrwt>
<totfact> 0.18632780E+04</totfact>
</mgrwt>
</event>
<event>
 4    0  0.1525083E-001  0.2473878E+03  0.7546771E-02  0.1114967E+00
         21   -1    0    0  502  501  0.00000000000E+00  0.00000000000E+00  0.18408812807E+04  0.18408812807E+04  0.00000000000E+00 0.  1.
         21   -1    0    0  503  502 -0.00000000000E+00 -0.00000000000E+00 -0.30846452637E+02  0.30846452637E+02  0.00000000000E+00 0.  1.
         25    1    1    2    0    0 -0.59091959863E+02  0.20514352798E+03  0.72951196755E+03  0.77031710197E+03  0.12500000000E+03 0.  0.
         21    1    1    2  503  501  0.59091959863E+02 -0.20514352798E+03  0.10805228605E+04  0.11014106314E+04  0.00000000000E+00 0.  1.
<mgrwt>
<rscale>  3 0.24738781E+03</rscale>
<asrwt>0</asrwt>
<pdfrwt beam="1">  1       21 0.28321242E+00 0.24738781E+03</pdfrwt>
<pdfrwt beam="2">  1       21 0.47456095E-02 0.24738781E+03</pdfrwt>
<totfact> 0.11924254E+04</totfact>
</mgrwt>
</event>
<event>
 4    0  0.1525083E-001  0.3246335E+03  0.7546771E-02  0.1073536E+00
         21   -1    0    0  503  501  0.00000000000E+00  0.00000000000E+00  0.28210667467E+04  0.28210667467E+04  0.00000000000E+00 0. -1.
         21   -1    0    0  501  502 -0.00000000000E+00 -0.00000000000E+00 -0.58696767341E+02  0.58696767341E+02  0.00000000000E+00 0. -1.
         25    1    1    2    0    0 -0.23018842852E+03 -0.19176860702E+03  0.23371960605E+04  0.23596339412E+04  0.12500000000E+03 0.  0.
         21    1    1    2  503  502  0.23018842852E+03  0.19176860702E+03  0.42517391885E+03  0.52012957283E+03  0.00000000000E+00 0. -1.
<mgrwt>
<rscale>  3 0.32463350E+03</rscale>
<asrwt>0</asrwt>
<pdfrwt beam="1">  1       21 0.43401016E+00 0.32463350E+03</pdfrwt>
<pdfrwt beam="2">  1       21 0.90302741E-02 0.32463350E+03</pdfrwt>
<totfact> 0.43618510E+02</totfact>
</mgrwt>
</event>
<event>
 4    0  0.1525083E-001  0.5012312E+03  0.7546771E-02  0.1013458E+00
         21   -1    0    0  503  501  0.00000000000E+00  0.00000000000E+00  0.70473904651E+03  0.70473904651E+03  0.00000000000E+00 0. -1.
         21   -1    0    0  501  502 -0.00000000000E+00 -0.00000000000E+00 -0.37148910062E+03  0.37148910062E+03  0.00000000000E+00 0. -1.
         25    1    1    2    0    0 -0.48455580857E+03  0.28519844933E+02  0.31192772703E+03  0.59036566640E+03  0.12500000000E+03 0.  0.
         21    1    1    2  503  502  0.48455580857E+03 -0.28519844933E+02  0.21322218870E+02  0.48586248074E+03  0.00000000000E+00 0. -1.
<mgrwt>
<rscale>  3 0.50123120E+03</rscale>
<asrwt>0</asrwt>
<pdfrwt beam="1">  1       21 0.10842139E+00 0.50123120E+03</pdfrwt>
<pdfrwt beam="2">  1       21 0.57152169E-01 0.50123120E+03</pdfrwt>
<totfact> 0.16384655E+03</totfact>
</mgrwt>
</event>
<event>
 4    0  0.1525083E-001  0.2452343E+03  0.7546771E-02  0.1116354E+00
         21   -1    0    0  502  501  0.00000000000E+00  0.00000000000E+00  0.30560685098E+03  0.30560685098E+03  0.00000000000E+00 0.  1.
         21   -1    0    0  503  502 -0.00000000000E+00 -0.00000000000E+00 -0.17401359402E+03  0.17401359402E+03  0.00000000000E+00 0.  1.
         25    1    1    2    0    0  0.96284355172E+02  0.18773440657E+03  0.10573001553E+03  0.26705565084E+03  0.12500000000E+03 0.  0.
         21    1    1    2  503  501 -0.96284355172E+02 -0.18773440657E+03  0.25863241432E+02  0.21256479416E+03  0.00000000000E+00 0.  1.
<mgrwt>
<rscale>  3 0.24523435E+03</rscale>
<asrwt>0</asrwt>
<pdfrwt beam="1">  1       21 0.47016439E-01 0.24523435E+03</pdfrwt>
<pdfrwt beam="2">  1       21 0.26771322E-01 0.24523435E+03</pdfrwt>
<totfact> 0.56212844E+04</totfact>
</mgrwt>
</event>
<event>
 4    0  0.1525083E-001  0.4017382E+03  0.7546771E-02  0.1043179E+00
         21   -1    0    0  503  501  0.00000000000E+00  0.00000000000E+00  0.19759969916E+04  0.19759969916E+04  0.00000000000E+00 0.  1.
         21   -1    0    0  501  502 -0.00000000000E+00 -0.00000000000E+00 -0.96053980926E+02  0.96053980926E+02  0.00000000000E+00 0.  1.
         25    1    1    2    0    0  0.37210066478E+03 -0.85496508699E+02  0.14124053378E+04  0.14684285465E+04  0.12500000000E+03 0.  0.
         21    1    1    2  503  502 -0.37210066478E+03  0.85496508699E+02  0.46753767289E+03  0.60362242611E+03  0.00000000000E+00 0.  1.
<mgrwt>
<rscale>  3 0.40173817E+03</rscale>
<asrwt>0</asrwt>
<pdfrwt beam="1">  1       21 0.30399951E+00 0.40173817E+03</pdfrwt>
<pdfrwt beam="2">  1       21 0.14777537E-01 0.40173817E+03</pdfrwt>
<totfact> 0.10827667E+03</totfact>
</mgrwt>
</event>
<event>
 4    0  0.1525083E-001  0.2504305E+03  0.7546771E-02  0.1113033E+00
         21   -1    0    0  502  501  0.00000000000E+00  0.00000000000E+00  0.56763722268E+02  0.56763722268E+02  0.00000000000E+00 0.  1.
         21   -1    0    0  503  502 -0.00000000000E+00 -0.00000000000E+00 -0.10546713889E+04  0.10546713889E+04  0.00000000000E+00 0.  1.
         25    1    1    2    0    0 -0.18596951239E+03 -0.11182920756E+03 -0.36743032884E+03  0.44465770852E+03  0.12500000000E+03 0.  0.
         21    1    1    2  503  501  0.18596951239E+03  0.11182920756E+03 -0.63047733777E+03  0.66677740262E+03  0.00000000000E+00 0.  1.
<mgrwt>
<rscale>  3 0.25043049E+03</rscale>
<asrwt>0</asrwt>
<pdfrwt beam="1">  1       21 0.87328815E-02 0.25043049E+03</pdfrwt>
<pdfrwt beam="2">  1       21 0.16225711E+00 0.25043049E+03</pdfrwt>
<totfact> 0.24094809E+04</totfact>
</mgrwt>
</event>
<event>
 4    0  0.1525083E-001  0.2566193E+03  0.7546771E-02  0.1109192E+00
         21   -1    0    0  503  501  0.00000000000E+00  0.00000000000E+00  0.51379098764E+03  0.51379098764E+03  0.00000000000E+00 0.  1.
         21   -1    0    0  501  502 -0.00000000000E+00 -0.00000000000E+00 -0.11302690904E+03  0.11302690904E+03  0.00000000000E+00 0.  1.
         25    1    1    2    0    0  0.10037181746E+03  0.20038454059E+03  0.19156114066E+03  0.32023294094E+03  0.12500000000E+03 0.  0.
         21    1    1    2  503  502 -0.10037181746E+03 -0.20038454059E+03  0.20920293794E+03  0.30658495575E+03  0.00000000000E+00 0.  1.
<mgrwt>
<rscale>  3 0.25661930E+03</rscale>
<asrwt>0</asrwt>
<pdfrwt beam="1">  1       21 0.79044766E-01 0.25661930E+03</pdfrwt>
<pdfrwt beam="2">  1       21 0.17388756E-01 0.25661930E+03</pdfrwt>
<totfact> 0.41038450E+04</totfact>
</mgrwt>
</event>
<event>
 4    0  0.1525083E-001  0.3300009E+03  0.7546771E-02  0.1071136E+00
         21   -1    0    0  503  501  0.00000000000E+00  0.00000000000E+00  0.82019885449E+03  0.82019885449E+03  0.00000000000E+00 0.  1.
         21   -1    0    0  501  502 -0.00000000000E+00 -0.00000000000E+00 -0.17906519685E+03  0.17906519685E+03  0.00000000000E+00 0.  1.
         25    1    1    2    0    0  0.30386426807E+03  0.30694136214E+02  0.60835994240E+03  0.69210002379E+03  0.12500000000E+03 0.  0.
         21    1    1    2  503  502 -0.30386426807E+03 -0.30694136214E+02  0.32773715239E+02  0.30716402755E+03  0.00000000000E+00 0.  1.
<mgrwt>
<rscale>  3 0.33000094E+03</rscale>
<asrwt>0</asrwt>
<pdfrwt beam="1">  1       21 0.12618444E+00 0.33000094E+03</pdfrwt>
<pdfrwt beam="2">  1       21 0.27548492E-01 0.33000094E+03</pdfrwt>
<totfact> 0.53803240E+03</totfact>
</mgrwt>
</event>
<event>
 4    0  0.1525083E-001  0.2628852E+03  0.7546771E-02  0.1105422E+00
         21   -1    0    0  502  501  0.00000000000E+00  0.00000000000E+00  0.51240876777E+02  0.51240876777E+02  0.00000000000E+00 0.  1.
         21   -1    0    0  503  502 -0.00000000000E+00 -0.00000000000E+00 -0.20994569156E+04  0.20994569156E+04  0.00000000000E+00 0.  1.
         25    1    1    2    0    0 -0.21969925471E+03 -0.72221069617E+02 -0.35488311580E+03  0.44164541354E+03  0.12500000000E+03 0.  0.
         21    1    1    2  503  501  0.21969925471E+03  0.72221069617E+02 -0.16933329230E+04  0.17090523788E+04  0.00000000000E+00 0.  1.
<mgrwt>
<rscale>  3 0.26288523E+03</rscale>
<asrwt>0</asrwt>
<pdfrwt beam="1">  1       21 0.78832114E-02 0.26288523E+03</pdfrwt>
<pdfrwt beam="2">  1       21 0.32299339E+00 0.26288523E+03</pdfrwt>
<totfact> 0.28677343E+03</totfact>
</mgrwt>
</event>
<event>
 4    0  0.1525083E-001  0.2401099E+03  0.7546771E-02  0.1119720E+00
         21   -1    0    0  502  501  0.00000000000E+00  0.00000000000E+00  0.18516687352E+03  0.18516687352E+03  0.00000000000E+00 0. -1.
         21   -1    0    0  503  502 -0.00000000000E+00 -0.00000000000E+00 -0.26844786759E+03  0.26844786759E+03  0.00000000000E+00 0. -1.
         25    1    1    2    0    0 -0.13270710392E+03  0.15625801061E+03 -0.58346503014E+02  0.24709725964E+03  0.12500000000E+03 0.  0.
         21    1    1    2  503  501  0.13270710392E+03 -0.15625801061E+03 -0.24934491052E+02  0.20651748147E+03  0.00000000000E+00 0. -1.
<mgrwt>
<rscale>  3 0.24010985E+03</rscale>
<asrwt>0</asrwt>
<pdfrwt beam="1">  1       21 0.28487212E-01 0.24010985E+03</pdfrwt>
<pdfrwt beam="2">  1       21 0.41299672E-01 0.24010985E+03</pdfrwt>
<totfact> 0.65203245E+04</totfact>
</mgrwt>
</event>
<event>
 4    0  0.1525083E-001  0.2401796E+03  0.7546771E-02  0.1119673E+00
         21   -1    0    0  503  501  0.00000000000E+00  0.00000000000E+00  0.12725211144E+03  0.12725211144E+03  0.00000000000E+00 0.  1.
         21   -1    0    0  501  502 -0.00000000000E+00 -0.00000000000E+00 -0.56690878411E+03  0.56690878411E+03  0.00000000000E+00 0. -1.
         25    1    1    2    0    0 -0.19789821967E+03  0.53828848803E+02 -0.37990868234E+02  0.24316569738E+03  0.12500000000E+03 0.  0.
         21    1    1    2  503  502  0.19789821967E+03 -0.53828848803E+02 -0.40166580444E+03  0.45099519816E+03  0.00000000000E+00 0. -1.
<mgrwt>
<rscale>  3 0.24017962E+03</rscale>
<asrwt>0</asrwt>
<pdfrwt beam="1">  1       21 0.19577248E-01 0.24017962E+03</pdfrwt>
<pdfrwt beam="2">  1       21 0.87216734E-01 0.24017962E+03</pdfrwt>
<totfact> 0.26449002E+04</totfact>
</mgrwt>
</event>
<event>
 4    0  0.1525083E-001  0.2455287E+03  0.7546771E-02  0.1116164E+00
         21   -1    0    0  503  501  0.00000000000E+00  0.00000000000E+00  0.18268525566E+04  0.18268525566E+04  0.00000000000E+00 0.  1.
         21   -1    0    0  501  502 -0.00000000000E+00 -0.00000000000E+00 -0.81373382874E+02  0.81373382874E+02  0.00000000000E+00 0. -1.
         25    1    1    2    0    0 -0.14013579591E+03  0.15818118509E+03  0.16635517111E+04  0.16815732586E+04  0.12500000000E+03 0.  0.
         21    1    1    2  503  502  0.14013579591E+03 -0.15818118509E+03  0.81927462651E+02  0.22665268088E+03  0.00000000000E+00 0. -1.
<mgrwt>
<rscale>  3 0.24552867E+03</rscale>
<asrwt>0</asrwt>
<pdfrwt beam="1">  1       21 0.28105421E+00 0.24552867E+03</pdfrwt>
<pdfrwt beam="2">  1       21 0.12518983E-01 0.24552867E+03</pdfrwt>
<totfact> 0.22548185E+03</totfact>
</mgrwt>
</event>
<event>
 4    0  0.1525083E-001  0.2719338E+03  0.7546771E-02  0.1100178E+00
         21   -1    0    0  502  501  0.00000000000E+00  0.00000000000E+00  0.27096475334E+03  0.27096475334E+03  0.00000000000E+00 0. -1.
         21   -1    0    0  503  502 -0.00000000000E+00 -0.00000000000E+00 -0.50576412384E+03  0.50576412384E+03  0.00000000000E+00 0.  1.
         25    1    1    2    0    0 -0.22766648712E+03  0.80566479062E+02  0.15882988703E+03  0.31492049778E+03  0.12500000000E+03 0.  0.
         21    1    1    2  503  501  0.22766648712E+03 -0.80566479062E+02 -0.39362925753E+03  0.46180837941E+03  0.00000000000E+00 0.  1.
<mgrwt>
<rscale>  3 0.27193379E+03</rscale>
<asrwt>0</asrwt>
<pdfrwt beam="1">  1       21 0.41686886E-01 0.27193379E+03</pdfrwt>
<pdfrwt beam="2">  1       21 0.77809864E-01 0.27193379E+03</pdfrwt>
<totfact> 0.77187566E+03</totfact>
</mgrwt>
</event>
<event>
 4    0  0.1525083E-001  0.2373899E+03  0.7546771E-02  0.1121544E+00
         21   -1    0    0  502  501  0.00000000000E+00  0.00000000000E+00  0.14502002813E+04  0.14502002813E+04  0.00000000000E+00 0.  1.
         21   -1    0    0  503  502 -0.00000000000E+00 -0.00000000000E+00 -0.34931239187E+02  0.34931239187E+02  0.00000000000E+00 0.  1.
         25    1    1    2    0    0  0.16366641051E+03  0.11807744781E+03  0.92440271924E+03  0.95439738314E+03  0.12500000000E+03 0.  0.
         21    1    1    2  503  501 -0.16366641051E+03 -0.11807744781E+03  0.49086632285E+03  0.53073413732E+03  0.00000000000E+00 0.  1.
<mgrwt>
<rscale>  3 0.23738993E+03</rscale>
<asrwt>0</asrwt>
<pdfrwt beam="1">  1       21 0.22310769E+00 0.23738993E+03</pdfrwt>
<pdfrwt beam="2">  1       21 0.53740379E-02 0.23738993E+03</pdfrwt>
<totfact> 0.22166755E+04</totfact>
</mgrwt>
</event>
<event>
 4    0  0.1525083E-001  0.2642310E+03  0.7546771E-02  0.1104627E+00
         21   -1    0    0  503  501  0.00000000000E+00  0.00000000000E+00  0.19346676378E+03  0.19346676378E+03  0.00000000000E+00 0. -1.
         21   -1    0    0  501  502 -0.00000000000E+00 -0.00000000000E+00 -0.49976782944E+03  0.49976782944E+03  0.00000000000E+00 0. -1.
         25    1    1    2    0    0  0.21077912416E+03 -0.98819033139E+02  0.48730741558E+02  0.26868704038E+03  0.12500000000E+03 0.  0.
         21    1    1    2  503  502 -0.21077912416E+03  0.98819033139E+02 -0.35503180721E+03  0.42454755285E+03  0.00000000000E+00 0. -1.
<mgrwt>
<rscale>  3 0.26423104E+03</rscale>
<asrwt>0</asrwt>
<pdfrwt beam="1">  1       21 0.29764118E-01 0.26423104E+03</pdfrwt>
<pdfrwt beam="2">  1       21 0.76887357E-01 0.26423104E+03</pdfrwt>
<totfact> 0.15634055E+04</totfact>
</mgrwt>
</event>
<event>
 4    0  0.1525083E-001  0.3420780E+03  0.7546771E-02  0.1065914E+00
         21   -1    0    0  502  501  0.00000000000E+00  0.00000000000E+00  0.31865286868E+03  0.31865286868E+03  0.00000000000E+00 0.  1.
         21   -1    0    0  503  502 -0.00000000000E+00 -0.00000000000E+00 -0.34795267848E+03  0.34795267848E+03  0.00000000000E+00 0.  1.
         25    1    1    2    0    0 -0.15464233796E+03  0.27834887470E+03 -0.57738229707E+02  0.34691649126E+03  0.12500000000E+03 0.  0.
         21    1    1    2  503  501  0.15464233796E+03 -0.27834887470E+03  0.28438419902E+02  0.31968905590E+03  0.00000000000E+00 0.  1.
<mgrwt>
<rscale>  3 0.34207799E+03</rscale>
<asrwt>0</asrwt>
<pdfrwt beam="1">  1       21 0.49023518E-01 0.34207799E+03</pdfrwt>
<pdfrwt beam="2">  1       21 0.53531181E-01 0.34207799E+03</pdfrwt>
<totfact> 0.12162821E+04</totfact>
</mgrwt>
</event>
<event>
 4    0  0.1525083E-001  0.3130956E+03  0.7546771E-02  0.1078872E+00
         21   -1    0    0  502  501  0.00000000000E+00  0.00000000000E+00  0.16346233047E+04  0.16346233047E+04  0.00000000000E+00 0. -1.
         21   -1    0    0  503  502 -0.00000000000E+00 -0.00000000000E+00 -0.15515018669E+03  0.15515018669E+03  0.00000000000E+00 0. -1.
         25    1    1    2    0    0  0.10926237537E+03  0.26545351029E+03  0.14695586352E+04  0.15025416517E+04  0.12500000000E+03 0.  0.
         21    1    1    2  503  501 -0.10926237537E+03 -0.26545351029E+03  0.99144828602E+01  0.28723183975E+03  0.00000000000E+00 0. -1.
<mgrwt>
<rscale>  3 0.31309556E+03</rscale>
<asrwt>0</asrwt>
<pdfrwt beam="1">  1       21 0.25148050E+00 0.31309556E+03</pdfrwt>
<pdfrwt beam="2">  1       21 0.23869261E-01 0.31309556E+03</pdfrwt>
<totfact> 0.96019452E+02</totfact>
</mgrwt>
</event>
<event>
 4    0  0.1525083E-001  0.2577241E+03  0.7546771E-02  0.1108518E+00
         21   -1    0    0  502  501  0.00000000000E+00  0.00000000000E+00  0.50337523292E+03  0.50337523292E+03  0.00000000000E+00 0. -1.
         21   -1    0    0  503  502 -0.00000000000E+00 -0.00000000000E+00 -0.12141142268E+03  0.12141142268E+03  0.00000000000E+00 0. -1.
         25    1    1    2    0    0  0.10792657484E+03 -0.19785999611E+03  0.26952658885E+03  0.37291594993E+03  0.12500000000E+03 0.  0.
         21    1    1    2  503  501 -0.10792657484E+03  0.19785999611E+03  0.11243722139E+03  0.25187070567E+03  0.00000000000E+00 0. -1.
<mgrwt>
<rscale>  3 0.25772412E+03</rscale>
<asrwt>0</asrwt>
<pdfrwt beam="1">  1       21 0.77442343E-01 0.25772412E+03</pdfrwt>
<pdfrwt beam="2">  1       21 0.18678681E-01 0.25772412E+03</pdfrwt>
<totfact> 0.37610857E+04</totfact>
</mgrwt>
</event>
<event>
 4    0  0.1525083E-001  0.3372124E+03  0.7546771E-02  0.1067989E+00
         21   -1    0    0  502  501  0.00000000000E+00  0.00000000000E+00  0.22876066096E+03  0.22876066096E+03  0.00000000000E+00 0. -1.
         21   -1    0    0  503  502 -0.00000000000E+00 -0.00000000000E+00 -0.55033994556E+03  0.55033994556E+03  0.00000000000E+00 0. -1.
         25    1    1    2    0    0  0.10688986128E+03  0.29438374847E+03 -0.10058188123E+02  0.33736241782E+03  0.12500000000E+03 0.  0.
         21    1    1    2  503  501 -0.10688986128E+03 -0.29438374847E+03 -0.31152109648E+03  0.44173818870E+03  0.00000000000E+00 0. -1.
<mgrwt>
<rscale>  3 0.33721245E+03</rscale>
<asrwt>0</asrwt>
<pdfrwt beam="1">  1       21 0.35193948E-01 0.33721245E+03</pdfrwt>
<pdfrwt beam="2">  1       21 0.84667683E-01 0.33721245E+03</pdfrwt>
<totfact> 0.86986055E+03</totfact>
</mgrwt>
</event>
<event>
 4    0  0.1525083E-001  0.2611458E+03  0.7546771E-02  0.1106457E+00
         21   -1    0    0  502  501  0.00000000000E+00  0.00000000000E+00  0.14858582152E+03  0.14858582152E+03  0.00000000000E+00 0. -1.
         21   -1    0    0  503  502 -0.00000000000E+00 -0.00000000000E+00 -0.55948065433E+03  0.55948065433E+03  0.00000000000E+00 0. -1.
         25    1    1    2    0    0 -0.52456051077E+02  0.22320509994E+03 -0.29165485326E+02  0.26276944165E+03  0.12500000000E+03 0.  0.
         21    1    1    2  503  501  0.52456051077E+02 -0.22320509994E+03 -0.38172934748E+03  0.44529703419E+03  0.00000000000E+00 0. -1.
<mgrwt>
<rscale>  3 0.26114585E+03</rscale>
<asrwt>0</asrwt>
<pdfrwt beam="1">  1       21 0.22859357E-01 0.26114585E+03</pdfrwt>
<pdfrwt beam="2">  1       21 0.86073948E-01 0.26114585E+03</pdfrwt>
<totfact> 0.20143996E+04</totfact>
</mgrwt>
</event>
<event>
 4    0  0.1525083E-001  0.2992387E+03  0.7546771E-02  0.1085622E+00
         21   -1    0    0  503  501  0.00000000000E+00  0.00000000000E+00  0.43133473604E+03  0.43133473604E+03  0.00000000000E+00 0.  1.
         21   -1    0    0  501  502 -0.00000000000E+00 -0.00000000000E+00 -0.32650041344E+03  0.32650041344E+03  0.00000000000E+00 0.  1.
         25    1    1    2    0    0  0.73774729524E+02  0.26167939434E+03  0.29956015095E+03  0.42341480864E+03  0.12500000000E+03 0.  0.
         21    1    1    2  503  502 -0.73774729524E+02 -0.26167939434E+03 -0.19472582835E+03  0.33442034084E+03  0.00000000000E+00 0.  1.
<mgrwt>
<rscale>  3 0.29923873E+03</rscale>
<asrwt>0</asrwt>
<pdfrwt beam="1">  1       21 0.66359190E-01 0.29923873E+03</pdfrwt>
<pdfrwt beam="2">  1       21 0.50230833E-01 0.29923873E+03</pdfrwt>
<totfact> 0.73799491E+03</totfact>
</mgrwt>
</event>
<event>
 4    0  0.1525083E-001  0.2468283E+03  0.7546771E-02  0.1115326E+00
         21   -1    0    0  503  501  0.00000000000E+00  0.00000000000E+00  0.97901628978E+03  0.97901628978E+03  0.00000000000E+00 0. -1.
         21   -1    0    0  501  502 -0.00000000000E+00 -0.00000000000E+00 -0.22196071447E+03  0.22196071447E+03  0.00000000000E+00 0.  1.
         25    1    1    2    0    0  0.19230259808E+03  0.91208177616E+02  0.90741548573E+03  0.94038666761E+03  0.12500000000E+03 0.  0.
         21    1    1    2  503  502 -0.19230259808E+03 -0.91208177616E+02 -0.15035991041E+03  0.26059033664E+03  0.00000000000E+00 0.  1.
<mgrwt>
<rscale>  3 0.24682832E+03</rscale>
<asrwt>0</asrwt>
<pdfrwt beam="1">  1       21 0.15061789E+00 0.24682832E+03</pdfrwt>
<pdfrwt beam="2">  1       21 0.34147803E-01 0.24682832E+03</pdfrwt>
<totfact> 0.23338578E+03</totfact>
</mgrwt>
</event>
<event>
 4    0  0.1525083E-001  0.2495247E+03  0.7546771E-02  0.1113606E+00
         21   -1    0    0  502  501  0.00000000000E+00  0.00000000000E+00  0.14997318089E+03  0.14997318089E+03  0.00000000000E+00 0.  1.
         21   -1    0    0  503  502 -0.00000000000E+00 -0.00000000000E+00 -0.62921807432E+03  0.62921807432E+03  0.00000000000E+00 0. -1.
         25    1    1    2    0    0  0.19719456913E+03  0.88044701938E+02  0.43549979819E+01  0.24956268479E+03  0.12500000000E+03 0.  0.
         21    1    1    2  503  501 -0.19719456913E+03 -0.88044701938E+02 -0.48359989141E+03  0.52962857042E+03  0.00000000000E+00 0. -1.
<mgrwt>
<rscale>  3 0.24952468E+03</rscale>
<asrwt>0</asrwt>
<pdfrwt beam="1">  1       21 0.23072797E-01 0.24952468E+03</pdfrwt>
<pdfrwt beam="2">  1       21 0.96802779E-01 0.24952468E+03</pdfrwt>
<totfact> 0.15120199E+04</totfact>
</mgrwt>
</event>
<event>
 4    0  0.1525083E-001  0.2626963E+03  0.7546771E-02  0.1105534E+00
         21   -1    0    0  502  501  0.00000000000E+00  0.00000000000E+00  0.12883808517E+03  0.12883808517E+03  0.00000000000E+00 0.  1.
         21   -1    0    0  503  502 -0.00000000000E+00 -0.00000000000E+00 -0.19843983350E+04  0.19843983350E+04  0.00000000000E+00 0. -1.
         25    1    1    2    0    0 -0.84466820405E+02  0.21505744670E+03 -0.20289312089E+02  0.26347866197E+03  0.12500000000E+03 0.  0.
         21    1    1    2  503  501  0.84466820405E+02 -0.21505744670E+03 -0.18352709378E+04  0.18497577582E+04  0.00000000000E+00 0. -1.
<mgrwt>
<rscale>  3 0.26269631E+03</rscale>
<asrwt>0</asrwt>
<pdfrwt beam="1">  1       21 0.19821246E-01 0.26269631E+03</pdfrwt>
<pdfrwt beam="2">  1       21 0.30529203E+00 0.26269631E+03</pdfrwt>
<totfact> 0.68662467E+02</totfact>
</mgrwt>
</event>
<event>
 4    0  0.1525083E-001  0.2699079E+03  0.7546771E-02  0.1101332E+00
         21   -1    0    0  502  501  0.00000000000E+00  0.00000000000E+00  0.53966376415E+03  0.53966376415E+03  0.00000000000E+00 0. -1.
         21   -1    0    0  503  502 -0.00000000000E+00 -0.00000000000E+00 -0.12175949903E+03  0.12175949903E+03  0.00000000000E+00 0. -1.
         25    1    1    2    0    0 -0.16643850747E+02  0.23863831987E+03  0.18259144961E+03  0.32586792255E+03  0.12500000000E+03 0.  0.
         21    1    1    2  503  501  0.16643850747E+02 -0.23863831987E+03  0.23531281551E+03  0.33555534063E+03  0.00000000000E+00 0. -1.
<mgrwt>
<rscale>  3 0.26990788E+03</rscale>
<asrwt>0</asrwt>
<pdfrwt beam="1">  1       21 0.83025193E-01 0.26990788E+03</pdfrwt>
<pdfrwt beam="2">  1       21 0.18732231E-01 0.26990788E+03</pdfrwt>
<totfact> 0.31758044E+04</totfact>
</mgrwt>
</event>
<event>
 4    0  0.1525083E-001  0.3075132E+03  0.7546771E-02  0.1081544E+00
         21   -1    0    0  503  501  0.00000000000E+00  0.00000000000E+00  0.72802666616E+03  0.72802666616E+03  0.00000000000E+00 0. -1.
         21   -1    0    0  501  502 -0.00000000000E+00 -0.00000000000E+00 -0.19756327465E+03  0.19756327465E+03  0.00000000000E+00 0. -1.
         25    1    1    2    0    0 -0.17437099847E+03  0.22030458162E+03  0.56424831054E+03  0.64260447379E+03  0.12500000000E+03 0.  0.
         21    1    1    2  503  502  0.17437099847E+03 -0.22030458162E+03 -0.33784919026E+02  0.28298546702E+03  0.00000000000E+00 0. -1.
<mgrwt>
<rscale>  3 0.30751318E+03</rscale>
<asrwt>0</asrwt>
<pdfrwt beam="1">  1       21 0.11200410E+00 0.30751318E+03</pdfrwt>
<pdfrwt beam="2">  1       21 0.30394350E-01 0.30751318E+03</pdfrwt>
<totfact> 0.60456842E+03</totfact>
</mgrwt>
</event>
<event>
 4    0  0.1525083E-001  0.3131547E+03  0.7546771E-02  0.1078844E+00
         21   -1    0    0  503  501  0.00000000000E+00  0.00000000000E+00  0.32193488284E+03  0.32193488284E+03  0.00000000000E+00 0. -1.
         21   -1    0    0  501  502 -0.00000000000E+00 -0.00000000000E+00 -0.28955499203E+03  0.28955499203E+03  0.00000000000E+00 0. -1.
         25    1    1    2    0    0  0.42780092784E+02 -0.28392025758E+03  0.72877206989E+02  0.32152283947E+03  0.12500000000E+03 0.  0.
         21    1    1    2  503  502 -0.42780092784E+02  0.28392025758E+03 -0.40497316184E+02  0.28996703540E+03  0.00000000000E+00 0. -1.
<mgrwt>
<rscale>  3 0.31315467E+03</rscale>
<asrwt>0</asrwt>
<pdfrwt beam="1">  1       21 0.49528444E-01 0.31315467E+03</pdfrwt>
<pdfrwt beam="2">  1       21 0.44546922E-01 0.31315467E+03</pdfrwt>
<totfact> 0.17719623E+04</totfact>
</mgrwt>
</event>
<event>
 4    0  0.1525083E-001  0.3061118E+03  0.7546771E-02  0.1082225E+00
         21   -1    0    0  502  501  0.00000000000E+00  0.00000000000E+00  0.37668344383E+03  0.37668344383E+03  0.00000000000E+00 0.  1.
         21   -1    0    0  503  502 -0.00000000000E+00 -0.00000000000E+00 -0.24117432175E+03  0.24117432175E+03  0.00000000000E+00 0.  1.
         25    1    1    2    0    0  0.47368219445E+02  0.27538284987E+03  0.14402469914E+03  0.33830101415E+03  0.12500000000E+03 0.  0.
         21    1    1    2  503  501 -0.47368219445E+02 -0.27538284987E+03 -0.85155770543E+01  0.27955675142E+03  0.00000000000E+00 0.  1.
<mgrwt>
<rscale>  3 0.30611185E+03</rscale>
<asrwt>0</asrwt>
<pdfrwt beam="1">  1       21 0.57951299E-01 0.30611185E+03</pdfrwt>
<pdfrwt beam="2">  1       21 0.37103742E-01 0.30611185E+03</pdfrwt>
<totfact> 0.18485758E+04</totfact>
</mgrwt>
</event>
<event>
 4    0  0.1525083E-001  0.5321458E+03  0.7546771E-02  0.1005713E+00
         21   -1    0    0  502  501  0.00000000000E+00  0.00000000000E+00  0.34792792746E+03  0.34792792746E+03  0.00000000000E+00 0.  1.
         21   -1    0    0  503  502 -0.00000000000E+00 -0.00000000000E+00 -0.85829242584E+03  0.85829242584E+03  0.00000000000E+00 0. -1.
         25    1    1    2    0    0 -0.15818028412E+03 -0.49247652641E+03 -0.90023961690E+02  0.53970681395E+03  0.12500000000E+03 0.  0.
         21    1    1    2  503  501  0.15818028412E+03  0.49247652641E+03 -0.42034053669E+03  0.66651353934E+03  0.00000000000E+00 0. -1.
<mgrwt>
<rscale>  3 0.53214578E+03</rscale>
<asrwt>0</asrwt>
<pdfrwt beam="1">  1       21 0.53527374E-01 0.53214578E+03</pdfrwt>
<pdfrwt beam="2">  1       21 0.13204499E+00 0.53214578E+03</pdfrwt>
<totfact> 0.11308798E+03</totfact>
</mgrwt>
</event>
<event>
 4    0  0.1525083E-001  0.3733520E+03  0.7546771E-02  0.1053419E+00
         21   -1    0    0  503  501  0.00000000000E+00  0.00000000000E+00  0.77186476023E+03  0.77186476023E+03  0.00000000000E+00 0.  1.
         21   -1    0    0  501  502 -0.00000000000E+00 -0.00000000000E+00 -0.38410428876E+03  0.38410428876E+03  0.00000000000E+00 0.  1.
         25    1    1    2    0    0  0.18287565194E+03  0.30053817967E+03  0.62755221329E+03  0.73021468207E+03  0.12500000000E+03 0.  0.
         21    1    1    2  503  502 -0.18287565194E+03 -0.30053817967E+03 -0.23979174181E+03  0.42575436692E+03  0.00000000000E+00 0.  1.
<mgrwt>
<rscale>  3 0.37335198E+03</rscale>
<asrwt>0</asrwt>
<pdfrwt beam="1">  1       21 0.11874842E+00 0.37335198E+03</pdfrwt>
<pdfrwt beam="2">  1       21 0.59092968E-01 0.37335198E+03</pdfrwt>
<totfact> 0.12803529E+03</totfact>
</mgrwt>
</event>
<event>
 4    0  0.1525083E-001  0.3144340E+03  0.7546771E-02  0.1078240E+00
         21   -1    0    0  502  501  0.00000000000E+00  0.00000000000E+00  0.20439694096E+04  0.20439694096E+04  0.00000000000E+00 0. -1.
         21   -1    0    0  503  502 -0.00000000000E+00 -0.00000000000E+00 -0.44487303330E+02  0.44487303330E+02  0.00000000000E+00 0. -1.
         25    1    1    2    0    0 -0.24850561243E+03 -0.14659026499E+03  0.10651970042E+04  0.11106364855E+04  0.12500000000E+03 0.  0.
         21    1    1    2  503  501  0.24850561243E+03  0.14659026499E+03  0.93428510216E+03  0.97782022750E+03  0.00000000000E+00 0. -1.
<mgrwt>
<rscale>  3 0.31443401E+03</rscale>
<asrwt>0</asrwt>
<pdfrwt beam="1">  1       21 0.31445676E+00 0.31443401E+03</pdfrwt>
<pdfrwt beam="2">  1       21 0.68442021E-02 0.31443401E+03</pdfrwt>
<totfact> 0.39521044E+03</totfact>
</mgrwt>
</event>
<event>
 4    0  0.1525083E-001  0.3921355E+03  0.7546771E-02  0.1046537E+00
         21   -1    0    0  503  501  0.00000000000E+00  0.00000000000E+00  0.53783596126E+03  0.53783596126E+03  0.00000000000E+00 0. -1.
         21   -1    0    0  501  502 -0.00000000000E+00 -0.00000000000E+00 -0.28538325845E+03  0.28538325845E+03  0.00000000000E+00 0. -1.
         25    1    1    2    0    0  0.24825119868E+03  0.27661633464E+03  0.22121667141E+03  0.45023001893E+03  0.12500000000E+03 0.  0.
         21    1    1    2  503  502 -0.24825119868E+03 -0.27661633464E+03  0.31236031396E+02  0.37298920078E+03  0.00000000000E+00 0. -1.
<mgrwt>
<rscale>  3 0.39213550E+03</rscale>
<asrwt>0</asrwt>
<pdfrwt beam="1">  1       21 0.82743994E-01 0.39213550E+03</pdfrwt>
<pdfrwt beam="2">  1       21 0.43905117E-01 0.39213550E+03</pdfrwt>
<totfact> 0.57114228E+03</totfact>
</mgrwt>
</event>
<event>
 4    0  0.1525083E-001  0.2448425E+03  0.7546771E-02  0.1116608E+00
         21   -1    0    0  502  501  0.00000000000E+00  0.00000000000E+00  0.20387935684E+03  0.20387935684E+03  0.00000000000E+00 0.  1.
         21   -1    0    0  503  502 -0.00000000000E+00 -0.00000000000E+00 -0.37975329888E+03  0.37975329888E+03  0.00000000000E+00 0. -1.
         25    1    1    2    0    0 -0.20291565642E+03 -0.56108023832E+02  0.75050982818E+02  0.25608694613E+03  0.12500000000E+03 0.  0.
         21    1    1    2  503  501  0.20291565642E+03  0.56108023832E+02 -0.25092492485E+03  0.32754570959E+03  0.00000000000E+00 0. -1.
<mgrwt>
<rscale>  3 0.24484255E+03</rscale>
<asrwt>0</asrwt>
<pdfrwt beam="1">  1       21 0.31366055E-01 0.24484255E+03</pdfrwt>
<pdfrwt beam="2">  1       21 0.58423584E-01 0.24484255E+03</pdfrwt>
<totfact> 0.26075877E+04</totfact>
</mgrwt>
</event>
<event>
 4    0  0.1525083E-001  0.2816907E+03  0.7546771E-02  0.1094769E+00
         21   -1    0    0  503  501  0.00000000000E+00  0.00000000000E+00  0.15414351834E+03  0.15414351834E+03  0.00000000000E+00 0. -1.
         21   -1    0    0  501  502 -0.00000000000E+00 -0.00000000000E+00 -0.10090434122E+04  0.10090434122E+04  0.00000000000E+00 0.  1.
         25    1    1    2    0    0  0.12798829677E+03 -0.21758590830E+03 -0.10527723951E+02  0.28188732603E+03  0.12500000000E+03 0.  0.
         21    1    1    2  503  502 -0.12798829677E+03  0.21758590830E+03 -0.84437216991E+03  0.88129960451E+03  0.00000000000E+00 0.  1.
<mgrwt>
<rscale>  3 0.28169067E+03</rscale>
<asrwt>0</asrwt>
<pdfrwt beam="1">  1       21 0.23714388E-01 0.28169067E+03</pdfrwt>
<pdfrwt beam="2">  1       21 0.15523744E+00 0.28169067E+03</pdfrwt>
<totfact> 0.42838342E+03</totfact>
</mgrwt>
</event>
<event>
 4    0  0.1525083E-001  0.2741673E+03  0.7546771E-02  0.1098918E+00
         21   -1    0    0  502  501  0.00000000000E+00  0.00000000000E+00  0.70187949045E+02  0.70187949045E+02  0.00000000000E+00 0.  1.
         21   -1    0    0  503  502 -0.00000000000E+00 -0.00000000000E+00 -0.96159598092E+03  0.96159598092E+03  0.00000000000E+00 0.  1.
         25    1    1    2    0    0  0.15876494193E+03 -0.18530084204E+03 -0.50935094291E+03  0.57845146027E+03  0.12500000000E+03 0.  0.
         21    1    1    2  503  501 -0.15876494193E+03  0.18530084204E+03 -0.38205708897E+03  0.45333246969E+03  0.00000000000E+00 0.  1.
<mgrwt>
<rscale>  3 0.27416730E+03</rscale>
<asrwt>0</asrwt>
<pdfrwt beam="1">  1       21 0.10798147E-01 0.27416730E+03</pdfrwt>
<pdfrwt beam="2">  1       21 0.14793783E+00 0.27416730E+03</pdfrwt>
<totfact> 0.20949076E+04</totfact>
</mgrwt>
</event>
<event>
 4    0  0.1525083E-001  0.2797074E+03  0.7546771E-02  0.1095849E+00
         21   -1    0    0  503  501  0.00000000000E+00  0.00000000000E+00  0.40699375316E+03  0.40699375316E+03  0.00000000000E+00 0.  1.
         21   -1    0    0  501  502 -0.00000000000E+00 -0.00000000000E+00 -0.19188420199E+03  0.19188420199E+03  0.00000000000E+00 0.  1.
         25    1    1    2    0    0  0.24398810322E+03 -0.55506919939E+02  0.20797508354E+03  0.34855393851E+03  0.12500000000E+03 0.  0.
         21    1    1    2  503  502 -0.24398810322E+03  0.55506919939E+02  0.71344676325E+01  0.25032401663E+03  0.00000000000E+00 0.  1.
<mgrwt>
<rscale>  3 0.27970737E+03</rscale>
<asrwt>0</asrwt>
<pdfrwt beam="1">  1       21 0.62614424E-01 0.27970737E+03</pdfrwt>
<pdfrwt beam="2">  1       21 0.29520646E-01 0.27970737E+03</pdfrwt>
<totfact> 0.24899671E+04</totfact>
</mgrwt>
</event>
<event>
 4    0  0.1525083E-001  0.2656896E+03  0.7546771E-02  0.1103772E+00
         21   -1    0    0  502  501  0.00000000000E+00  0.00000000000E+00  0.18392400243E+04  0.18392400243E+04  0.00000000000E+00 0.  1.
         21   -1    0    0  503  502 -0.00000000000E+00 -0.00000000000E+00 -0.48443060761E+02  0.48443060761E+02  0.00000000000E+00 0. -1.
         25    1    1    2    0    0  0.20631605697E+03  0.11135359003E+03  0.14493083475E+04  0.14734604248E+04  0.12500000000E+03 0.  0.
         21    1    1    2  503  501 -0.20631605697E+03 -0.11135359003E+03  0.34148861605E+03  0.41422266025E+03  0.00000000000E+00 0. -1.
<mgrwt>
<rscale>  3 0.26568955E+03</rscale>
<asrwt>0</asrwt>
<pdfrwt beam="1">  1       21 0.28295995E+00 0.26568955E+03</pdfrwt>
<pdfrwt beam="2">  1       21 0.74527800E-02 0.26568955E+03</pdfrwt>
<totfact> 0.54191061E+03</totfact>
</mgrwt>
</event>
<event>
 4    0  0.1525083E-001  0.2560882E+03  0.7546771E-02  0.1109517E+00
         21   -1    0    0  502  501  0.00000000000E+00  0.00000000000E+00  0.45138964708E+03  0.45138964708E+03  0.00000000000E+00 0.  1.
         21   -1    0    0  503  502 -0.00000000000E+00 -0.00000000000E+00 -0.13791712881E+03  0.13791712881E+03  0.00000000000E+00 0.  1.
         25    1    1    2    0    0 -0.22296514389E+03 -0.15578528326E+02  0.24779688606E+03  0.35634876551E+03  0.12500000000E+03 0.  0.
         21    1    1    2  503  501  0.22296514389E+03  0.15578528326E+02  0.65675632208E+02  0.23295801038E+03  0.00000000000E+00 0.  1.
<mgrwt>
<rscale>  3 0.25608816E+03</rscale>
<asrwt>0</asrwt>
<pdfrwt beam="1">  1       21 0.69444560E-01 0.25608816E+03</pdfrwt>
<pdfrwt beam="2">  1       21 0.21218020E-01 0.25608816E+03</pdfrwt>
<totfact> 0.37810718E+04</totfact>
</mgrwt>
</event>
<event>
 4    0  0.1525083E-001  0.2643007E+03  0.7546771E-02  0.1104587E+00
         21   -1    0    0  502  501  0.00000000000E+00  0.00000000000E+00  0.10730046762E+03  0.10730046762E+03  0.00000000000E+00 0.  1.
         21   -1    0    0  503  502 -0.00000000000E+00 -0.00000000000E+00 -0.71821133781E+03  0.71821133781E+03  0.00000000000E+00 0.  1.
         25    1    1    2    0    0 -0.15014767382E+03 -0.17800424622E+03 -0.13750652967E+03  0.29793100095E+03  0.12500000000E+03 0.  0.
         21    1    1    2  503  501  0.15014767382E+03  0.17800424622E+03 -0.47340434052E+03  0.52758080448E+03  0.00000000000E+00 0.  1.
<mgrwt>
<rscale>  3 0.26430065E+03</rscale>
<asrwt>0</asrwt>
<pdfrwt beam="1">  1       21 0.16507764E-01 0.26430065E+03</pdfrwt>
<pdfrwt beam="2">  1       21 0.11049405E+00 0.26430065E+03</pdfrwt>
<totfact> 0.20447693E+04</totfact>
</mgrwt>
</event>
<event>
 4    0  0.1525083E-001  0.2786685E+03  0.7546771E-02  0.1096418E+00
         21   -1    0    0  502  501  0.00000000000E+00  0.00000000000E+00  0.82895600696E+02  0.82895600696E+02  0.00000000000E+00 0. -1.
         21   -1    0    0  503  502 -0.00000000000E+00 -0.00000000000E+00 -0.84599353132E+03  0.84599353132E+03  0.00000000000E+00 0. -1.
         25    1    1    2    0    0 -0.21995388158E+03  0.11683926160E+03 -0.44213951396E+03  0.52263129726E+03  0.12500000000E+03 0.  0.
         21    1    1    2  503  501  0.21995388158E+03 -0.11683926160E+03 -0.32095841667E+03  0.40625783476E+03  0.00000000000E+00 0. -1.
<mgrwt>
<rscale>  3 0.27866848E+03</rscale>
<asrwt>0</asrwt>
<pdfrwt beam="1">  1       21 0.12753170E-01 0.27866848E+03</pdfrwt>
<pdfrwt beam="2">  1       21 0.13015284E+00 0.27866848E+03</pdfrwt>
<totfact> 0.21631273E+04</totfact>
</mgrwt>
</event>
<event>
 4    0  0.1525083E-001  0.2460377E+03  0.7546771E-02  0.1115835E+00
         21   -1    0    0  502  501  0.00000000000E+00  0.00000000000E+00  0.46976680454E+02  0.46976680454E+02  0.00000000000E+00 0. -1.
         21   -1    0    0  503  502 -0.00000000000E+00 -0.00000000000E+00 -0.21094991161E+04  0.21094991161E+04  0.00000000000E+00 0. -1.
         25    1    1    2    0    0  0.62016929323E+02  0.20264118228E+03 -0.33307841236E+03  0.41409633790E+03  0.12500000000E+03 0.  0.
         21    1    1    2  503  501 -0.62016929323E+02 -0.20264118228E+03 -0.17294440232E+04  0.17423794586E+04  0.00000000000E+00 0. -1.
<mgrwt>
<rscale>  3 0.24603770E+03</rscale>
<asrwt>0</asrwt>
<pdfrwt beam="1">  1       21 0.72271820E-02 0.24603770E+03</pdfrwt>
<pdfrwt beam="2">  1       21 0.32453831E+00 0.24603770E+03</pdfrwt>
<totfact> 0.33212733E+03</totfact>
</mgrwt>
</event>
<event>
 4    0  0.1525083E-001  0.2851520E+03  0.7546771E-02  0.1092908E+00
         21   -1    0    0  503  501  0.00000000000E+00  0.00000000000E+00  0.22720597822E+04  0.22720597822E+04  0.00000000000E+00 0.  1.
         21   -1    0    0  501  502 -0.00000000000E+00 -0.00000000000E+00 -0.59728509625E+02  0.59728509625E+02  0.00000000000E+00 0. -1.
         25    1    1    2    0    0  0.99951764660E+02 -0.23600067532E+03  0.19280880455E+04  0.19490600774E+04  0.12500000000E+03 0.  0.
         21    1    1    2  503  502 -0.99951764660E+02  0.23600067532E+03  0.28424322713E+03  0.38272821451E+03  0.00000000000E+00 0. -1.
<mgrwt>
<rscale>  3 0.28515202E+03</rscale>
<asrwt>0</asrwt>
<pdfrwt beam="1">  1       21 0.34954759E+00 0.28515202E+03</pdfrwt>
<pdfrwt beam="2">  1       21 0.91890032E-02 0.28515202E+03</pdfrwt>
<totfact> 0.14900717E+03</totfact>
</mgrwt>
</event>
<event>
 4    0  0.1525083E-001  0.2638685E+03  0.7546771E-02  0.1104841E+00
         21   -1    0    0  503  501  0.00000000000E+00  0.00000000000E+00  0.34163581447E+03  0.34163581447E+03  0.00000000000E+00 0.  1.
         21   -1    0    0  501  502 -0.00000000000E+00 -0.00000000000E+00 -0.18063601489E+03  0.18063601489E+03  0.00000000000E+00 0. -1.
         25    1    1    2    0    0 -0.15409990371E+03 -0.17393907367E+03  0.72941311171E+02  0.27376452756E+03  0.12500000000E+03 0.  0.
         21    1    1    2  503  502  0.15409990371E+03  0.17393907367E+03  0.88058488409E+02  0.24850730181E+03  0.00000000000E+00 0. -1.
<mgrwt>
<rscale>  3 0.26386849E+03</rscale>
<asrwt>0</asrwt>
<pdfrwt beam="1">  1       21 0.52559356E-01 0.26386849E+03</pdfrwt>
<pdfrwt beam="2">  1       21 0.27790156E-01 0.26386849E+03</pdfrwt>
<totfact> 0.41082976E+04</totfact>
</mgrwt>
</event>
<event>
 4    0  0.1525083E-001  0.2375160E+03  0.7546771E-02  0.1121459E+00
         21   -1    0    0  502  501  0.00000000000E+00  0.00000000000E+00  0.13355034173E+03  0.13355034173E+03  0.00000000000E+00 0.  1.
         21   -1    0    0  503  502 -0.00000000000E+00 -0.00000000000E+00 -0.63472423203E+03  0.63472423203E+03  0.00000000000E+00 0.  1.
         25    1    1    2    0    0 -0.12552982189E+02 -0.20157203203E+03 -0.10597714896E+02  0.23775233546E+03  0.12500000000E+03 0.  0.
         21    1    1    2  503  501  0.12552982189E+02  0.20157203203E+03 -0.49057617541E+03  0.53052223830E+03  0.00000000000E+00 0.  1.
<mgrwt>
<rscale>  3 0.23751602E+03</rscale>
<asrwt>0</asrwt>
<pdfrwt beam="1">  1       21 0.20546206E-01 0.23751602E+03</pdfrwt>
<pdfrwt beam="2">  1       21 0.97649882E-01 0.23751602E+03</pdfrwt>
<totfact> 0.18565076E+04</totfact>
</mgrwt>
</event>
<event>
 4    0  0.1525083E-001  0.2558977E+03  0.7546771E-02  0.1109633E+00
         21   -1    0    0  503  501  0.00000000000E+00  0.00000000000E+00  0.60755396596E+03  0.60755396596E+03  0.00000000000E+00 0.  1.
         21   -1    0    0  501  502 -0.00000000000E+00 -0.00000000000E+00 -0.31912059214E+03  0.31912059214E+03  0.00000000000E+00 0.  1.
         25    1    1    2    0    0  0.79525378059E+02 -0.20864881443E+03  0.53559480586E+03  0.59358690146E+03  0.12500000000E+03 0.  0.
         21    1    1    2  503  502 -0.79525378059E+02  0.20864881443E+03 -0.24716143204E+03  0.33308765665E+03  0.00000000000E+00 0.  1.
<mgrwt>
<rscale>  3 0.25589766E+03</rscale>
<asrwt>0</asrwt>
<pdfrwt beam="1">  1       21 0.93469840E-01 0.25589766E+03</pdfrwt>
<pdfrwt beam="2">  1       21 0.49095476E-01 0.25589766E+03</pdfrwt>
<totfact> 0.36352424E+03</totfact>
</mgrwt>
</event>
<event>
 4    0  0.1525083E-001  0.2368381E+03  0.7546771E-02  0.1121917E+00
         21   -1    0    0  503  501  0.00000000000E+00  0.00000000000E+00  0.36464261986E+02  0.36464261986E+02  0.00000000000E+00 0.  1.
         21   -1    0    0  501  502 -0.00000000000E+00 -0.00000000000E+00 -0.16026456254E+04  0.16026456254E+04  0.00000000000E+00 0.  1.
         25    1    1    2    0    0 -0.16264082049E+03  0.11838595316E+03 -0.48935791486E+03  0.54365746498E+03  0.12500000000E+03 0.  0.
         21    1    1    2  503  502  0.16264082049E+03 -0.11838595316E+03 -0.10768234486E+04  0.10954524224E+04  0.00000000000E+00 0.  1.
<mgrwt>
<rscale>  3 0.23683807E+03</rscale>
<asrwt>0</asrwt>
<pdfrwt beam="1">  1       21 0.56098876E-02 0.23683807E+03</pdfrwt>
<pdfrwt beam="2">  1       21 0.24656082E+00 0.23683807E+03</pdfrwt>
<totfact> 0.14853570E+04</totfact>
</mgrwt>
</event>
<event>
 4    0  0.1525083E-001  0.3268376E+03  0.7546771E-02  0.1072545E+00
         21   -1    0    0  502  501  0.00000000000E+00  0.00000000000E+00  0.80128018107E+03  0.80128018107E+03  0.00000000000E+00 0.  1.
         21   -1    0    0  503  502 -0.00000000000E+00 -0.00000000000E+00 -0.16410852705E+03  0.16410852705E+03  0.00000000000E+00 0.  1.
         25    1    1    2    0    0  0.93594351492E+02 -0.28711998827E+03  0.56839798993E+03  0.65566688588E+03  0.12500000000E+03 0.  0.
         21    1    1    2  503  501 -0.93594351492E+02  0.28711998827E+03  0.68773664093E+02  0.30972182223E+03  0.00000000000E+00 0.  1.
<mgrwt>
<rscale>  3 0.32683756E+03</rscale>
<asrwt>0</asrwt>
<pdfrwt beam="1">  1       21 0.12327387E+00 0.32683756E+03</pdfrwt>
<pdfrwt beam="2">  1       21 0.25247466E-01 0.32683756E+03</pdfrwt>
<totfact> 0.67747732E+03</totfact>
</mgrwt>
</event>
<event>
 4    0  0.1525083E-001  0.2371836E+03  0.7546771E-02  0.1121683E+00
         21   -1    0    0  503  501  0.00000000000E+00  0.00000000000E+00  0.76881518910E+03  0.76881518910E+03  0.00000000000E+00 0. -1.
         21   -1    0    0  501  502 -0.00000000000E+00 -0.00000000000E+00 -0.13608509891E+03  0.13608509891E+03  0.00000000000E+00 0. -1.
         25    1    1    2    0    0 -0.16557151926E+03  0.11496587908E+03  0.66015618142E+03  0.70147149993E+03  0.12500000000E+03 0.  0.
         21    1    1    2  503  502  0.16557151926E+03 -0.11496587908E+03 -0.27426091227E+02  0.20342878809E+03  0.00000000000E+00 0. -1.
<mgrwt>
<rscale>  3 0.23718364E+03</rscale>
<asrwt>0</asrwt>
<pdfrwt beam="1">  1       21 0.11827926E+00 0.23718364E+03</pdfrwt>
<pdfrwt beam="2">  1       21 0.20936169E-01 0.23718364E+03</pdfrwt>
<totfact> 0.11262316E+04</totfact>
</mgrwt>
</event>
<event>
 4    0  0.1525083E-001  0.2498283E+03  0.7546771E-02  0.1113413E+00
         21   -1    0    0  502  501  0.00000000000E+00  0.00000000000E+00  0.34817401331E+03  0.34817401331E+03  0.00000000000E+00 0. -1.
         21   -1    0    0  503  502 -0.00000000000E+00 -0.00000000000E+00 -0.91632434752E+03  0.91632434752E+03  0.00000000000E+00 0.  1.
         25    1    1    2    0    0 -0.15831442550E+02  0.21572791560E+03  0.28810824356E+03  0.38134043602E+03  0.12500000000E+03 0.  0.
         21    1    1    2  503  501  0.15831442550E+02 -0.21572791560E+03 -0.85625857777E+03  0.88315792480E+03  0.00000000000E+00 0.  1.
<mgrwt>
<rscale>  3 0.24982828E+03</rscale>
<asrwt>0</asrwt>
<pdfrwt beam="1">  1       21 0.53565234E-01 0.24982828E+03</pdfrwt>
<pdfrwt beam="2">  1       21 0.14097297E+00 0.24982828E+03</pdfrwt>
<totfact> 0.11002552E+03</totfact>
</mgrwt>
</event>
<event>
 4    0  0.1525083E-001  0.3159834E+03  0.7546771E-02  0.1077513E+00
         21   -1    0    0  502  501  0.00000000000E+00  0.00000000000E+00  0.64600210921E+03  0.64600210921E+03  0.00000000000E+00 0. -1.
         21   -1    0    0  503  502 -0.00000000000E+00 -0.00000000000E+00 -0.23613984300E+03  0.23613984300E+03  0.00000000000E+00 0. -1.
         25    1    1    2    0    0 -0.20301486099E+03  0.20737761004E+03  0.48820953530E+03  0.58154454454E+03  0.12500000000E+03 0.  0.
         21    1    1    2  503  501  0.20301486099E+03 -0.20737761004E+03 -0.78347269090E+02  0.30059740768E+03  0.00000000000E+00 0. -1.
<mgrwt>
<rscale>  3 0.31598340E+03</rscale>
<asrwt>0</asrwt>
<pdfrwt beam="1">  1       21 0.99384939E-01 0.31598340E+03</pdfrwt>
<pdfrwt beam="2">  1       21 0.36329207E-01 0.31598340E+03</pdfrwt>
<totfact> 0.56442759E+03</totfact>
</mgrwt>
</event>
<event>
 4    0  0.1525083E-001  0.3131630E+03  0.7546771E-02  0.1078840E+00
         21   -1    0    0  502  501  0.00000000000E+00  0.00000000000E+00  0.62253574736E+03  0.62253574736E+03  0.00000000000E+00 0. -1.
         21   -1    0    0  503  502 -0.00000000000E+00 -0.00000000000E+00 -0.42952038170E+03  0.42952038170E+03  0.00000000000E+00 0.  1.
         25    1    1    2    0    0 -0.10614566638E+03 -0.26679418441E+03  0.52612563071E+03  0.61227381017E+03  0.12500000000E+03 0.  0.
         21    1    1    2  503  501  0.10614566638E+03  0.26679418441E+03 -0.33311026505E+03  0.43978231889E+03  0.00000000000E+00 0.  1.
<mgrwt>
<rscale>  3 0.31316296E+03</rscale>
<asrwt>0</asrwt>
<pdfrwt beam="1">  1       21 0.95774730E-01 0.31316296E+03</pdfrwt>
<pdfrwt beam="2">  1       21 0.66080059E-01 0.31316296E+03</pdfrwt>
<totfact> 0.17504539E+03</totfact>
</mgrwt>
</event>
<event>
 4    0  0.1525083E-001  0.2797604E+03  0.7546771E-02  0.1095820E+00
         21   -1    0    0  503  501  0.00000000000E+00  0.00000000000E+00  0.39336163571E+03  0.39336163571E+03  0.00000000000E+00 0. -1.
         21   -1    0    0  501  502 -0.00000000000E+00 -0.00000000000E+00 -0.40892612626E+03  0.40892612626E+03  0.00000000000E+00 0. -1.
         25    1    1    2    0    0 -0.12023146207E+03  0.21951142746E+03  0.29291315176E+03  0.40504812767E+03  0.12500000000E+03 0.  0.
         21    1    1    2  503  502  0.12023146207E+03 -0.21951142746E+03 -0.30847764231E+03  0.39723963430E+03  0.00000000000E+00 0. -1.
<mgrwt>
<rscale>  3 0.27976038E+03</rscale>
<asrwt>0</asrwt>
<pdfrwt beam="1">  1       21 0.60517175E-01 0.27976038E+03</pdfrwt>
<pdfrwt beam="2">  1       21 0.62911712E-01 0.27976038E+03</pdfrwt>
<totfact> 0.56255099E+03</totfact>
</mgrwt>
</event>
<event>
 4    0  0.1525083E-001  0.2679063E+03  0.7546771E-02  0.1102484E+00
         21   -1    0    0  503  501  0.00000000000E+00  0.00000000000E+00  0.23491524253E+04  0.23491524253E+04  0.00000000000E+00 0. -1.
         21   -1    0    0  501  502 -0.00000000000E+00 -0.00000000000E+00 -0.37841645817E+02  0.37841645817E+02  0.00000000000E+00 0.  1.
         25    1    1    2    0    0 -0.25966171515E+02 -0.23553030581E+03  0.18407024728E+04  0.18600965997E+04  0.12500000000E+03 0.  0.
         21    1    1    2  503  502  0.25966171515E+02  0.23553030581E+03  0.47060830669E+03  0.52689747138E+03  0.00000000000E+00 0.  1.
<mgrwt>
<rscale>  3 0.26790627E+03</rscale>
<asrwt>0</asrwt>
<pdfrwt beam="1">  1       21 0.36140795E+00 0.26790627E+03</pdfrwt>
<pdfrwt beam="2">  1       21 0.58217935E-02 0.26790627E+03</pdfrwt>
<totfact> 0.28500635E+03</totfact>
</mgrwt>
</event>
<event>
 4    0  0.1525083E-001  0.2648515E+03  0.7546771E-02  0.1104263E+00
         21   -1    0    0  502  501  0.00000000000E+00  0.00000000000E+00  0.77125650732E+03  0.77125650732E+03  0.00000000000E+00 0.  1.
         21   -1    0    0  503  502 -0.00000000000E+00 -0.00000000000E+00 -0.17732059105E+04  0.17732059105E+04  0.00000000000E+00 0. -1.
         25    1    1    2    0    0  0.81117042833E+02 -0.21895512510E+03  0.74049918893E+03  0.78643840843E+03  0.12500000000E+03 0.  0.
         21    1    1    2  503  501 -0.81117042833E+02  0.21895512510E+03 -0.17424485921E+04  0.17580240094E+04  0.00000000000E+00 0. -1.
<mgrwt>
<rscale>  3 0.26485151E+03</rscale>
<asrwt>0</asrwt>
<pdfrwt beam="1">  1       21 0.11865485E+00 0.26485151E+03</pdfrwt>
<pdfrwt beam="2">  1       21 0.27280090E+00 0.26485151E+03</pdfrwt>
<totfact> 0.23829421E+01</totfact>
</mgrwt>
</event>
<event>
 4    0  0.1525083E-001  0.2458440E+03  0.7546771E-02  0.1115960E+00
         21   -1    0    0  502  501  0.00000000000E+00  0.00000000000E+00  0.62858980443E+02  0.62858980443E+02  0.00000000000E+00 0.  1.
         21   -1    0    0  503  502 -0.00000000000E+00 -0.00000000000E+00 -0.83290268633E+03  0.83290268633E+03  0.00000000000E+00 0.  1.
         25    1    1    2    0    0 -0.52577399033E+02  0.20506072018E+03 -0.40497755526E+03  0.47375742962E+03  0.12500000000E+03 0.  0.
         21    1    1    2  503  501  0.52577399033E+02 -0.20506072018E+03 -0.36506615063E+03  0.42200423716E+03  0.00000000000E+00 0.  1.
<mgrwt>
<rscale>  3 0.24584402E+03</rscale>
<asrwt>0</asrwt>
<pdfrwt beam="1">  1       21 0.96706123E-02 0.24584402E+03</pdfrwt>
<pdfrwt beam="2">  1       21 0.12813888E+00 0.24584402E+03</pdfrwt>
<totfact> 0.37521836E+04</totfact>
</mgrwt>
</event>
<event>
 4    0  0.1525083E-001  0.2896858E+03  0.7546771E-02  0.1090513E+00
         21   -1    0    0  503  501  0.00000000000E+00  0.00000000000E+00  0.26303421016E+03  0.26303421016E+03  0.00000000000E+00 0.  1.
         21   -1    0    0  501  502 -0.00000000000E+00 -0.00000000000E+00 -0.81538698584E+03  0.81538698584E+03  0.00000000000E+00 0.  1.
         25    1    1    2    0    0  0.26131879168E+03 -0.23097199565E+01  0.15200704821E+03  0.32714520996E+03  0.12500000000E+03 0.  0.
         21    1    1    2  503  502 -0.26131879168E+03  0.23097199565E+01 -0.70435982390E+03  0.75127598605E+03  0.00000000000E+00 0.  1.
<mgrwt>
<rscale>  3 0.28968577E+03</rscale>
<asrwt>0</asrwt>
<pdfrwt beam="1">  1       21 0.40466801E-01 0.28968577E+03</pdfrwt>
<pdfrwt beam="2">  1       21 0.12544415E+00 0.28968577E+03</pdfrwt>
<totfact> 0.25893679E+03</totfact>
</mgrwt>
</event>
<event>
 4    0  0.1525083E-001  0.2536444E+03  0.7546771E-02  0.1111023E+00
         21   -1    0    0  502  501  0.00000000000E+00  0.00000000000E+00  0.16899454944E+03  0.16899454944E+03  0.00000000000E+00 0. -1.
         21   -1    0    0  503  502 -0.00000000000E+00 -0.00000000000E+00 -0.39702163197E+03  0.39702163197E+03  0.00000000000E+00 0. -1.
         25    1    1    2    0    0 -0.19071412199E+03  0.11107929667E+03 -0.23419059951E+03  0.34522561228E+03  0.12500000000E+03 0.  0.
         21    1    1    2  503  501  0.19071412199E+03 -0.11107929667E+03  0.61635169810E+01  0.22079056913E+03  0.00000000000E+00 0. -1.
<mgrwt>
<rscale>  3 0.25364441E+03</rscale>
<asrwt>0</asrwt>
<pdfrwt beam="1">  1       21 0.25999161E-01 0.25364441E+03</pdfrwt>
<pdfrwt beam="2">  1       21 0.61080251E-01 0.25364441E+03</pdfrwt>
<totfact> 0.34020976E+04</totfact>
</mgrwt>
</event>
<event>
 4    0  0.1525083E-001  0.2666829E+03  0.7546771E-02  0.1103193E+00
         21   -1    0    0  503  501  0.00000000000E+00  0.00000000000E+00  0.28719349559E+03  0.28719349559E+03  0.00000000000E+00 0. -1.
         21   -1    0    0  501  502 -0.00000000000E+00 -0.00000000000E+00 -0.22260285367E+03  0.22260285367E+03  0.00000000000E+00 0. -1.
         25    1    1    2    0    0 -0.23543134619E+03 -0.81747333370E+01  0.46784033491E+01  0.26672388812E+03  0.12500000000E+03 0.  0.
         21    1    1    2  503  502  0.23543134619E+03  0.81747333370E+01  0.59912238577E+02  0.24307246114E+03  0.00000000000E+00 0. -1.
<mgrwt>
<rscale>  3 0.26668285E+03</rscale>
<asrwt>0</asrwt>
<pdfrwt beam="1">  1       21 0.44183615E-01 0.26668285E+03</pdfrwt>
<pdfrwt beam="2">  1       21 0.34246593E-01 0.26668285E+03</pdfrwt>
<totfact> 0.39084982E+04</totfact>
</mgrwt>
</event>
<event>
 4    0  0.1525083E-001  0.3273677E+03  0.7546771E-02  0.1072308E+00
         21   -1    0    0  503  501  0.00000000000E+00  0.00000000000E+00  0.83418620477E+03  0.83418620477E+03  0.00000000000E+00 0. -1.
         21   -1    0    0  501  502 -0.00000000000E+00 -0.00000000000E+00 -0.23299335357E+03  0.23299335357E+03  0.00000000000E+00 0.  1.
         25    1    1    2    0    0 -0.13016660127E+03 -0.27313227703E+03  0.67984647813E+03  0.75456001661E+03  0.12500000000E+03 0.  0.
         21    1    1    2  503  502  0.13016660127E+03  0.27313227703E+03 -0.78653626934E+02  0.31261954173E+03  0.00000000000E+00 0.  1.
<mgrwt>
<rscale>  3 0.32736766E+03</rscale>
<asrwt>0</asrwt>
<pdfrwt beam="1">  1       21 0.12833634E+00 0.32736766E+03</pdfrwt>
<pdfrwt beam="2">  1       21 0.35845132E-01 0.32736766E+03</pdfrwt>
<totfact> 0.30598946E+03</totfact>
</mgrwt>
</event>
<event>
 4    0  0.1525083E-001  0.2382319E+03  0.7546771E-02  0.1120976E+00
         21   -1    0    0  503  501  0.00000000000E+00  0.00000000000E+00  0.39245156072E+03  0.39245156072E+03  0.00000000000E+00 0. -1.
         21   -1    0    0  501  502 -0.00000000000E+00 -0.00000000000E+00 -0.17219383470E+03  0.17219383470E+03  0.00000000000E+00 0. -1.
         25    1    1    2    0    0  0.18938889590E+03  0.72534588097E+02  0.26564821379E+03  0.35682403766E+03  0.12500000000E+03 0.  0.
         21    1    1    2  503  502 -0.18938889590E+03 -0.72534588097E+02 -0.45390487775E+02  0.20782135776E+03  0.00000000000E+00 0. -1.
<mgrwt>
<rscale>  3 0.23823186E+03</rscale>
<asrwt>0</asrwt>
<pdfrwt beam="1">  1       21 0.60377163E-01 0.23823186E+03</pdfrwt>
<pdfrwt beam="2">  1       21 0.26491359E-01 0.23823186E+03</pdfrwt>
<totfact> 0.33872679E+04</totfact>
</mgrwt>
</event>
<event>
 4    0  0.1525083E-001  0.2935798E+03  0.7546771E-02  0.1088495E+00
         21   -1    0    0  503  501  0.00000000000E+00  0.00000000000E+00  0.56697897149E+03  0.56697897149E+03  0.00000000000E+00 0. -1.
         21   -1    0    0  501  502 -0.00000000000E+00 -0.00000000000E+00 -0.40825080430E+03  0.40825080430E+03  0.00000000000E+00 0. -1.
         25    1    1    2    0    0 -0.18887726121E+03 -0.18678725956E+03  0.47734764656E+03  0.56040153088E+03  0.12500000000E+03 0.  0.
         21    1    1    2  503  502  0.18887726121E+03  0.18678725956E+03 -0.31861947938E+03  0.41482824491E+03  0.00000000000E+00 0. -1.
<mgrwt>
<rscale>  3 0.29357980E+03</rscale>
<asrwt>0</asrwt>
<pdfrwt beam="1">  1       21 0.87227534E-01 0.29357980E+03</pdfrwt>
<pdfrwt beam="2">  1       21 0.62807816E-01 0.29357980E+03</pdfrwt>
<totfact> 0.24660139E+03</totfact>
</mgrwt>
</event>
<event>
 4    0  0.1525083E-001  0.2717712E+03  0.7546771E-02  0.1100270E+00
         21   -1    0    0  502  501  0.00000000000E+00  0.00000000000E+00  0.15390472298E+03  0.15390472298E+03  0.00000000000E+00 0. -1.
         21   -1    0    0  503  502 -0.00000000000E+00 -0.00000000000E+00 -0.53961658515E+03  0.53961658515E+03  0.00000000000E+00 0.  1.
         25    1    1    2    0    0  0.22752356872E+03 -0.80421560060E+02 -0.44183705282E+02  0.27533942954E+03  0.12500000000E+03 0.  0.
         21    1    1    2  503  501 -0.22752356872E+03  0.80421560060E+02 -0.34152815688E+03  0.41818187860E+03  0.00000000000E+00 0.  1.
<mgrwt>
<rscale>  3 0.27177123E+03</rscale>
<asrwt>0</asrwt>
<pdfrwt beam="1">  1       21 0.23677650E-01 0.27177123E+03</pdfrwt>
<pdfrwt beam="2">  1       21 0.83017936E-01 0.27177123E+03</pdfrwt>
<totfact> 0.20373165E+04</totfact>
</mgrwt>
</event>
<event>
 4    0  0.1525083E-001  0.2519479E+03  0.7546771E-02  0.1112080E+00
         21   -1    0    0  503  501  0.00000000000E+00  0.00000000000E+00  0.11970864277E+04  0.11970864277E+04  0.00000000000E+00 0.  1.
         21   -1    0    0  501  502 -0.00000000000E+00 -0.00000000000E+00 -0.96872763218E+02  0.96872763218E+02  0.00000000000E+00 0. -1.
         25    1    1    2    0    0  0.21780486685E+03  0.20341436291E+02  0.10356816442E+04  0.10658865804E+04  0.12500000000E+03 0.  0.
         21    1    1    2  503  502 -0.21780486685E+03 -0.20341436291E+02  0.64532020311E+02  0.22807261059E+03  0.00000000000E+00 0. -1.
<mgrwt>
<rscale>  3 0.25194788E+03</rscale>
<asrwt>0</asrwt>
<pdfrwt beam="1">  1       21 0.18416713E+00 0.25194788E+03</pdfrwt>
<pdfrwt beam="2">  1       21 0.14903503E-01 0.25194788E+03</pdfrwt>
<totfact> 0.64657175E+03</totfact>
</mgrwt>
</event>
<event>
 4    0  0.1525083E-001  0.3498369E+03  0.7546771E-02  0.1062682E+00
         21   -1    0    0  502  501  0.00000000000E+00  0.00000000000E+00  0.41947248029E+03  0.41947248029E+03  0.00000000000E+00 0.  1.
         21   -1    0    0  503  502 -0.00000000000E+00 -0.00000000000E+00 -0.28667651962E+03  0.28667651962E+03  0.00000000000E+00 0.  1.
         25    1    1    2    0    0  0.32554479662E+03  0.27954039257E+02  0.14613918314E+03  0.37913388634E+03  0.12500000000E+03 0.  0.
         21    1    1    2  503  501 -0.32554479662E+03 -0.27954039257E+02 -0.13343222481E+02  0.32701511357E+03  0.00000000000E+00 0.  1.
<mgrwt>
<rscale>  3 0.34983688E+03</rscale>
<asrwt>0</asrwt>
<pdfrwt beam="1">  1       21 0.64534228E-01 0.34983688E+03</pdfrwt>
<pdfrwt beam="2">  1       21 0.44104080E-01 0.34983688E+03</pdfrwt>
<totfact> 0.10083718E+04</totfact>
</mgrwt>
</event>
<event>
 4    0  0.1525083E-001  0.2470284E+03  0.7546771E-02  0.1115197E+00
         21   -1    0    0  503  501  0.00000000000E+00  0.00000000000E+00  0.96748421566E+03  0.96748421566E+03  0.00000000000E+00 0. -1.
         21   -1    0    0  501  502 -0.00000000000E+00 -0.00000000000E+00 -0.41602146094E+03  0.41602146094E+03  0.00000000000E+00 0. -1.
         25    1    1    2    0    0 -0.15142908380E+03 -0.14989089391E+03  0.92284937571E+03  0.95533973943E+03  0.12500000000E+03 0.  0.
         21    1    1    2  503  502  0.15142908380E+03  0.14989089391E+03 -0.37138662099E+03  0.42816593716E+03  0.00000000000E+00 0. -1.
<mgrwt>
<rscale>  3 0.24702843E+03</rscale>
<asrwt>0</asrwt>
<pdfrwt beam="1">  1       21 0.14884372E+00 0.24702843E+03</pdfrwt>
<pdfrwt beam="2">  1       21 0.64003302E-01 0.24702843E+03</pdfrwt>
<totfact> 0.65160093E+02</totfact>
</mgrwt>
</event>
<event>
 4    0  0.1525083E-001  0.2441681E+03  0.7546771E-02  0.1117047E+00
         21   -1    0    0  502  501  0.00000000000E+00  0.00000000000E+00  0.17368901051E+03  0.17368901051E+03  0.00000000000E+00 0.  1.
         21   -1    0    0  503  502 -0.00000000000E+00 -0.00000000000E+00 -0.42245390480E+03  0.42245390480E+03  0.00000000000E+00 0. -1.
         25    1    1    2    0    0  0.16721963278E+03  0.12661219804E+03  0.31383745572E+02  0.24617675309E+03  0.12500000000E+03 0.  0.
         21    1    1    2  503  501 -0.16721963278E+03 -0.12661219804E+03 -0.28014863987E+03  0.34996616222E+03  0.00000000000E+00 0. -1.
<mgrwt>
<rscale>  3 0.24416809E+03</rscale>
<asrwt>0</asrwt>
<pdfrwt beam="1">  1       21 0.26721386E-01 0.24416809E+03</pdfrwt>
<pdfrwt beam="2">  1       21 0.64992909E-01 0.24416809E+03</pdfrwt>
<totfact> 0.28302377E+04</totfact>
</mgrwt>
</event>
<event>
 4    0  0.1525083E-001  0.2384995E+03  0.7546771E-02  0.1120796E+00
         21   -1    0    0  502  501  0.00000000000E+00  0.00000000000E+00  0.19992882465E+03  0.19992882465E+03  0.00000000000E+00 0. -1.
         21   -1    0    0  503  502 -0.00000000000E+00 -0.00000000000E+00 -0.24524091595E+03  0.24524091595E+03  0.00000000000E+00 0. -1.
         25    1    1    2    0    0  0.20198963607E+03  0.21381643434E+02 -0.41053244654E+02  0.24200693513E+03  0.12500000000E+03 0.  0.
         21    1    1    2  503  501 -0.20198963607E+03 -0.21381643434E+02 -0.42588466472E+01  0.20316280548E+03  0.00000000000E+00 0. -1.
<mgrwt>
<rscale>  3 0.23849945E+03</rscale>
<asrwt>0</asrwt>
<pdfrwt beam="1">  1       21 0.30758281E-01 0.23849945E+03</pdfrwt>
<pdfrwt beam="2">  1       21 0.37729372E-01 0.23849945E+03</pdfrwt>
<totfact> 0.67447928E+04</totfact>
</mgrwt>
</event>
<event>
 4    0  0.1525083E-001  0.2927680E+03  0.7546771E-02  0.1088913E+00
         21   -1    0    0  502  501  0.00000000000E+00  0.00000000000E+00  0.96101656481E+03  0.96101656481E+03  0.00000000000E+00 0.  1.
         21   -1    0    0  503  502 -0.00000000000E+00 -0.00000000000E+00 -0.26930166273E+03  0.26930166273E+03  0.00000000000E+00 0.  1.
         25    1    1    2    0    0  0.18460105569E+03 -0.18976444895E+03  0.86547162198E+03  0.91364885175E+03  0.12500000000E+03 0.  0.
         21    1    1    2  503  501 -0.18460105569E+03  0.18976444895E+03 -0.17375671990E+03  0.31666937579E+03  0.00000000000E+00 0.  1.
<mgrwt>
<rscale>  3 0.29276799E+03</rscale>
<asrwt>0</asrwt>
<pdfrwt beam="1">  1       21 0.14784870E+00 0.29276799E+03</pdfrwt>
<pdfrwt beam="2">  1       21 0.41431025E-01 0.29276799E+03</pdfrwt>
<totfact> 0.16071854E+03</totfact>
</mgrwt>
</event>
<event>
 4    0  0.1525083E-001  0.3876645E+03  0.7546771E-02  0.1048137E+00
         21   -1    0    0  502  501  0.00000000000E+00  0.00000000000E+00  0.12481818430E+04  0.12481818430E+04  0.00000000000E+00 0. -1.
         21   -1    0    0  503  502 -0.00000000000E+00 -0.00000000000E+00 -0.62156869321E+03  0.62156869321E+03  0.00000000000E+00 0. -1.
         25    1    1    2    0    0  0.33122009706E+03 -0.15796203744E+03  0.11595832087E+04  0.12226679745E+04  0.12500000000E+03 0.  0.
         21    1    1    2  503  501 -0.33122009706E+03  0.15796203744E+03 -0.53297005891E+03  0.64708256170E+03  0.00000000000E+00 0. -1.
<mgrwt>
<rscale>  3 0.38766449E+03</rscale>
<asrwt>0</asrwt>
<pdfrwt beam="1">  1       21 0.19202798E+00 0.38766449E+03</pdfrwt>
<pdfrwt beam="2">  1       21 0.95625953E-01 0.38766449E+03</pdfrwt>
<totfact> 0.11457188E+02</totfact>
</mgrwt>
</event>
<event>
 4    0  0.1525083E-001  0.2597025E+03  0.7546771E-02  0.1107322E+00
         21   -1    0    0  502  501  0.00000000000E+00  0.00000000000E+00  0.94995050975E+02  0.94995050975E+02  0.00000000000E+00 0. -1.
         21   -1    0    0  503  502 -0.00000000000E+00 -0.00000000000E+00 -0.84540585008E+03  0.84540585008E+03  0.00000000000E+00 0. -1.
         25    1    1    2    0    0 -0.84539317075E+02 -0.21136109925E+03 -0.15377952012E+03  0.30181708238E+03  0.12500000000E+03 0.  0.
         21    1    1    2  503  501  0.84539317075E+02  0.21136109925E+03 -0.59663127898E+03  0.63858381867E+03  0.00000000000E+00 0. -1.
<mgrwt>
<rscale>  3 0.25970254E+03</rscale>
<asrwt>0</asrwt>
<pdfrwt beam="1">  1       21 0.14614623E-01 0.25970254E+03</pdfrwt>
<pdfrwt beam="2">  1       21 0.13006244E+00 0.25970254E+03</pdfrwt>
<totfact> 0.17065048E+04</totfact>
</mgrwt>
</event>
<event>
 4    0  0.1525083E-001  0.2882192E+03  0.7546771E-02  0.1091283E+00
         21   -1    0    0  503  501  0.00000000000E+00  0.00000000000E+00  0.63131323364E+03  0.63131323364E+03  0.00000000000E+00 0. -1.
         21   -1    0    0  501  502 -0.00000000000E+00 -0.00000000000E+00 -0.13042369874E+03  0.13042369874E+03  0.00000000000E+00 0.  1.
         25    1    1    2    0    0  0.69582553408E+02 -0.25020702065E+03  0.37546574913E+03  0.47333372338E+03  0.12500000000E+03 0.  0.
         21    1    1    2  503  502 -0.69582553408E+02  0.25020702065E+03  0.12542378578E+03  0.28840320900E+03  0.00000000000E+00 0.  1.
<mgrwt>
<rscale>  3 0.28821916E+03</rscale>
<asrwt>0</asrwt>
<pdfrwt beam="1">  1       21 0.97125111E-01 0.28821916E+03</pdfrwt>
<pdfrwt beam="2">  1       21 0.20065185E-01 0.28821916E+03</pdfrwt>
<totfact> 0.19192437E+04</totfact>
</mgrwt>
</event>
<event>
 4    0  0.1525083E-001  0.2681830E+03  0.7546771E-02  0.1102324E+00
         21   -1    0    0  503  501  0.00000000000E+00  0.00000000000E+00  0.12171287370E+03  0.12171287370E+03  0.00000000000E+00 0.  1.
         21   -1    0    0  501  502 -0.00000000000E+00 -0.00000000000E+00 -0.11120364098E+04  0.11120364098E+04  0.00000000000E+00 0.  1.
         25    1    1    2    0    0 -0.17194171716E+03 -0.16350281828E+03 -0.61560703966E+02  0.27515785643E+03  0.12500000000E+03 0.  0.
         21    1    1    2  503  502  0.17194171716E+03  0.16350281828E+03 -0.92876283219E+03  0.95859142711E+03  0.00000000000E+00 0.  1.
<mgrwt>
<rscale>  3 0.26818301E+03</rscale>
<asrwt>0</asrwt>
<pdfrwt beam="1">  1       21 0.18725057E-01 0.26818301E+03</pdfrwt>
<pdfrwt beam="2">  1       21 0.17108253E+00 0.26818301E+03</pdfrwt>
<totfact> 0.51700627E+03</totfact>
</mgrwt>
</event>
<event>
 4    0  0.1525083E-001  0.2422337E+03  0.7546771E-02  0.1118314E+00
         21   -1    0    0  502  501  0.00000000000E+00  0.00000000000E+00  0.27774100031E+03  0.27774100031E+03  0.00000000000E+00 0. -1.
         21   -1    0    0  503  502 -0.00000000000E+00 -0.00000000000E+00 -0.27894056910E+03  0.27894056910E+03  0.00000000000E+00 0. -1.
         25    1    1    2    0    0 -0.10154432159E+03  0.18094448883E+03  0.16309430185E+03  0.29202210290E+03  0.12500000000E+03 0.  0.
         21    1    1    2  503  501  0.10154432159E+03 -0.18094448883E+03 -0.16429387063E+03  0.26465946651E+03  0.00000000000E+00 0. -1.
<mgrwt>
<rscale>  3 0.24223368E+03</rscale>
<asrwt>0</asrwt>
<pdfrwt beam="1">  1       21 0.42729385E-01 0.24223368E+03</pdfrwt>
<pdfrwt beam="2">  1       21 0.42913934E-01 0.24223368E+03</pdfrwt>
<totfact> 0.26809939E+04</totfact>
</mgrwt>
</event>
<event>
 4    0  0.1525083E-001  0.2362486E+03  0.7546771E-02  0.1122317E+00
         21   -1    0    0  503  501  0.00000000000E+00  0.00000000000E+00  0.21114889450E+03  0.21114889450E+03  0.00000000000E+00 0. -1.
         21   -1    0    0  501  502 -0.00000000000E+00 -0.00000000000E+00 -0.22741482837E+03  0.22741482837E+03  0.00000000000E+00 0. -1.
         25    1    1    2    0    0 -0.11624163812E+03 -0.16332881642E+03 -0.27116704296E+02  0.23779978208E+03  0.12500000000E+03 0.  0.
         21    1    1    2  503  502  0.11624163812E+03  0.16332881642E+03  0.10850770431E+02  0.20076394080E+03  0.00000000000E+00 0. -1.
<mgrwt>
<rscale>  3 0.23624864E+03</rscale>
<asrwt>0</asrwt>
<pdfrwt beam="1">  1       21 0.32484445E-01 0.23624864E+03</pdfrwt>
<pdfrwt beam="2">  1       21 0.34986897E-01 0.23624864E+03</pdfrwt>
<totfact> 0.70517486E+04</totfact>
</mgrwt>
</event>
<event>
 4    0  0.1525083E-001  0.4313712E+03  0.7546771E-02  0.1033428E+00
         21   -1    0    0  503  501  0.00000000000E+00  0.00000000000E+00  0.81520988038E+03  0.81520988038E+03  0.00000000000E+00 0.  1.
         21   -1    0    0  501  502 -0.00000000000E+00 -0.00000000000E+00 -0.36225073162E+03  0.36225073162E+03  0.00000000000E+00 0.  1.
         25    1    1    2    0    0  0.38581760681E+03 -0.14697250548E+03  0.60019299870E+03  0.73912974421E+03  0.12500000000E+03 0.  0.
         21    1    1    2  503  502 -0.38581760681E+03  0.14697250548E+03 -0.14723384994E+03  0.43833086780E+03  0.00000000000E+00 0.  1.
<mgrwt>
<rscale>  3 0.43137124E+03</rscale>
<asrwt>0</asrwt>
<pdfrwt beam="1">  1       21 0.12541690E+00 0.43137124E+03</pdfrwt>
<pdfrwt beam="2">  1       21 0.55730882E-01 0.43137124E+03</pdfrwt>
<totfact> 0.12314325E+03</totfact>
</mgrwt>
</event>
<event>
 4    0  0.1525083E-001  0.2511032E+03  0.7546771E-02  0.1112610E+00
         21   -1    0    0  502  501  0.00000000000E+00  0.00000000000E+00  0.63120568655E+03  0.63120568655E+03  0.00000000000E+00 0.  1.
         21   -1    0    0  503  502 -0.00000000000E+00 -0.00000000000E+00 -0.12592000302E+03  0.12592000302E+03  0.00000000000E+00 0.  1.
         25    1    1    2    0    0  0.86532424676E+02  0.19984978679E+03  0.47495073016E+03  0.53724388678E+03  0.12500000000E+03 0.  0.
         21    1    1    2  503  501 -0.86532424676E+02 -0.19984978679E+03  0.30334953360E+02  0.21988180279E+03  0.00000000000E+00 0.  1.
<mgrwt>
<rscale>  3 0.25110316E+03</rscale>
<asrwt>0</asrwt>
<pdfrwt beam="1">  1       21 0.97108565E-01 0.25110316E+03</pdfrwt>
<pdfrwt beam="2">  1       21 0.19372309E-01 0.25110316E+03</pdfrwt>
<totfact> 0.20864537E+04</totfact>
</mgrwt>
</event>
<event>
 4    0  0.1525083E-001  0.2409366E+03  0.7546771E-02  0.1119170E+00
         21   -1    0    0  502  501  0.00000000000E+00  0.00000000000E+00  0.54291915675E+03  0.54291915675E+03  0.00000000000E+00 0.  1.
         21   -1    0    0  503  502 -0.00000000000E+00 -0.00000000000E+00 -0.99258998152E+02  0.99258998152E+02  0.00000000000E+00 0.  1.
         25    1    1    2    0    0 -0.20595761027E+03  0.26319469634E+01  0.15114677232E+03  0.28442188937E+03  0.12500000000E+03 0.  0.
         21    1    1    2  503  501  0.20595761027E+03 -0.26319469634E+01  0.29251338629E+03  0.35775626553E+03  0.00000000000E+00 0.  1.
<mgrwt>
<rscale>  3 0.24093664E+03</rscale>
<asrwt>0</asrwt>
<pdfrwt beam="1">  1       21 0.83526022E-01 0.24093664E+03</pdfrwt>
<pdfrwt beam="2">  1       21 0.15270615E-01 0.24093664E+03</pdfrwt>
<totfact> 0.46280730E+04</totfact>
</mgrwt>
</event>
<event>
 4    0  0.1525083E-001  0.2385234E+03  0.7546771E-02  0.1120780E+00
         21   -1    0    0  502  501  0.00000000000E+00  0.00000000000E+00  0.71783008853E+02  0.71783008853E+02  0.00000000000E+00 0. -1.
         21   -1    0    0  503  502 -0.00000000000E+00 -0.00000000000E+00 -0.75113175813E+03  0.75113175813E+03  0.00000000000E+00 0. -1.
         25    1    1    2    0    0  0.15115721686E+03  0.13571993851E+03 -0.23748383928E+03  0.33658873992E+03  0.12500000000E+03 0.  0.
         21    1    1    2  503  501 -0.15115721686E+03 -0.13571993851E+03 -0.44186491000E+03  0.48632602707E+03  0.00000000000E+00 0. -1.
<mgrwt>
<rscale>  3 0.23852339E+03</rscale>
<asrwt>0</asrwt>
<pdfrwt beam="1">  1       21 0.11043540E-01 0.23852339E+03</pdfrwt>
<pdfrwt beam="2">  1       21 0.11555873E+00 0.23852339E+03</pdfrwt>
<totfact> 0.38498302E+04</totfact>
</mgrwt>
</event>
<event>
 4    0  0.1525083E-001  0.3304779E+03  0.7546771E-02  0.1070926E+00
         21   -1    0    0  502  501  0.00000000000E+00  0.00000000000E+00  0.21989726088E+03  0.21989726088E+03  0.00000000000E+00 0.  1.
         21   -1    0    0  503  502 -0.00000000000E+00 -0.00000000000E+00 -0.58658236921E+03  0.58658236921E+03  0.00000000000E+00 0.  1.
         25    1    1    2    0    0 -0.22051995238E+03  0.21204155006E+03 -0.20194153601E+01  0.33048410913E+03  0.12500000000E+03 0.  0.
         21    1    1    2  503  501  0.22051995238E+03 -0.21204155006E+03 -0.36466569297E+03  0.47599552096E+03  0.00000000000E+00 0.  1.
<mgrwt>
<rscale>  3 0.33047794E+03</rscale>
<asrwt>0</asrwt>
<pdfrwt beam="1">  1       21 0.33830348E-01 0.33047794E+03</pdfrwt>
<pdfrwt beam="2">  1       21 0.90243441E-01 0.33047794E+03</pdfrwt>
<totfact> 0.81365156E+03</totfact>
</mgrwt>
</event>
<event>
 4    0  0.1525083E-001  0.2406423E+03  0.7546771E-02  0.1119366E+00
         21   -1    0    0  502  501  0.00000000000E+00  0.00000000000E+00  0.13332705668E+03  0.13332705668E+03  0.00000000000E+00 0.  1.
         21   -1    0    0  503  502 -0.00000000000E+00 -0.00000000000E+00 -0.54403761225E+03  0.54403761225E+03  0.00000000000E+00 0.  1.
         25    1    1    2    0    0 -0.86327743896E+02 -0.18663132261E+03 -0.27160768446E+02  0.24217026508E+03  0.12500000000E+03 0.  0.
         21    1    1    2  503  501  0.86327743896E+02  0.18663132261E+03 -0.38354978712E+03  0.43519440385E+03  0.00000000000E+00 0.  1.
<mgrwt>
<rscale>  3 0.24064233E+03</rscale>
<asrwt>0</asrwt>
<pdfrwt beam="1">  1       21 0.20511855E-01 0.24064233E+03</pdfrwt>
<pdfrwt beam="2">  1       21 0.83698093E-01 0.24064233E+03</pdfrwt>
<totfact> 0.26637124E+04</totfact>
</mgrwt>
</event>
<event>
 4    0  0.1525083E-001  0.2958342E+03  0.7546771E-02  0.1087342E+00
         21   -1    0    0  502  501  0.00000000000E+00  0.00000000000E+00  0.60300413629E+02  0.60300413629E+02  0.00000000000E+00 0.  1.
         21   -1    0    0  503  502 -0.00000000000E+00 -0.00000000000E+00 -0.13188497538E+04  0.13188497538E+04  0.00000000000E+00 0.  1.
         25    1    1    2    0    0  0.14386833645E+02  0.26774221356E+03 -0.65113931911E+03  0.71519248234E+03  0.12500000000E+03 0.  0.
         21    1    1    2  503  501 -0.14386833645E+02 -0.26774221356E+03 -0.60741002107E+03  0.66395768509E+03  0.00000000000E+00 0.  1.
<mgrwt>
<rscale>  3 0.29583420E+03</rscale>
<asrwt>0</asrwt>
<pdfrwt beam="1">  1       21 0.92769870E-02 0.29583420E+03</pdfrwt>
<pdfrwt beam="2">  1       21 0.20289996E+00 0.29583420E+03</pdfrwt>
<totfact> 0.11104749E+04</totfact>
</mgrwt>
</event>
<event>
 4    0  0.1525083E-001  0.2846614E+03  0.7546771E-02  0.1093170E+00
         21   -1    0    0  503  501  0.00000000000E+00  0.00000000000E+00  0.75582153360E+03  0.75582153360E+03  0.00000000000E+00 0.  1.
         21   -1    0    0  501  502 -0.00000000000E+00 -0.00000000000E+00 -0.51739685982E+03  0.51739685982E+03  0.00000000000E+00 0. -1.
         25    1    1    2    0    0  0.17101587998E+03  0.19015955856E+03  0.69436413487E+03  0.75044895944E+03  0.12500000000E+03 0.  0.
         21    1    1    2  503  502 -0.17101587998E+03 -0.19015955856E+03 -0.45593946110E+03  0.52276943398E+03  0.00000000000E+00 0. -1.
<mgrwt>
<rscale>  3 0.28466136E+03</rscale>
<asrwt>0</asrwt>
<pdfrwt beam="1">  1       21 0.11628024E+00 0.28466136E+03</pdfrwt>
<pdfrwt beam="2">  1       21 0.79599517E-01 0.28466136E+03</pdfrwt>
<totfact> 0.73234583E+02</totfact>
</mgrwt>
</event>
<event>
 4    0  0.1525083E-001  0.2868682E+03  0.7546771E-02  0.1091996E+00
         21   -1    0    0  502  501  0.00000000000E+00  0.00000000000E+00  0.48987119100E+03  0.48987119100E+03  0.00000000000E+00 0.  1.
         21   -1    0    0  503  502 -0.00000000000E+00 -0.00000000000E+00 -0.21863909799E+03  0.21863909799E+03  0.00000000000E+00 0. -1.
         25    1    1    2    0    0  0.39896382346E+02 -0.25510125876E+03  0.33650384637E+03  0.44218572135E+03  0.12500000000E+03 0.  0.
         21    1    1    2  503  501 -0.39896382346E+02  0.25510125876E+03 -0.65271753358E+02  0.26632456764E+03  0.00000000000E+00 0. -1.
<mgrwt>
<rscale>  3 0.28686822E+03</rscale>
<asrwt>0</asrwt>
<pdfrwt beam="1">  1       21 0.75364798E-01 0.28686822E+03</pdfrwt>
<pdfrwt beam="2">  1       21 0.33636784E-01 0.28686822E+03</pdfrwt>
<totfact> 0.12706268E+04</totfact>
</mgrwt>
</event>
<event>
 4    0  0.1525083E-001  0.2544125E+03  0.7546771E-02  0.1110548E+00
         21   -1    0    0  503  501  0.00000000000E+00  0.00000000000E+00  0.48431752810E+03  0.48431752810E+03  0.00000000000E+00 0. -1.
         21   -1    0    0  501  502 -0.00000000000E+00 -0.00000000000E+00 -0.30773302997E+03  0.30773302997E+03  0.00000000000E+00 0. -1.
         25    1    1    2    0    0  0.70445317548E+02  0.21009089818E+03  0.40214075411E+03  0.47586018364E+03  0.12500000000E+03 0.  0.
         21    1    1    2  503  502 -0.70445317548E+02 -0.21009089818E+03 -0.22555625598E+03  0.31619037442E+03  0.00000000000E+00 0. -1.
<mgrwt>
<rscale>  3 0.25441252E+03</rscale>
<asrwt>0</asrwt>
<pdfrwt beam="1">  1       21 0.74510389E-01 0.25441252E+03</pdfrwt>
<pdfrwt beam="2">  1       21 0.47343543E-01 0.25441252E+03</pdfrwt>
<totfact> 0.66083659E+03</totfact>
</mgrwt>
</event>
<event>
 4    0  0.1525083E-001  0.2844436E+03  0.7546771E-02  0.1093286E+00
         21   -1    0    0  503  501  0.00000000000E+00  0.00000000000E+00  0.11759807107E+03  0.11759807107E+03  0.00000000000E+00 0.  1.
         21   -1    0    0  501  502 -0.00000000000E+00 -0.00000000000E+00 -0.74704798414E+03  0.74704798414E+03  0.00000000000E+00 0.  1.
         25    1    1    2    0    0 -0.25416747689E+03 -0.26116144998E+02 -0.15049930074E+03  0.32180459733E+03  0.12500000000E+03 0.  0.
         21    1    1    2  503  502  0.25416747689E+03  0.26116144998E+02 -0.47895061233E+03  0.54284145787E+03  0.00000000000E+00 0.  1.
<mgrwt>
<rscale>  3 0.28444360E+03</rscale>
<asrwt>0</asrwt>
<pdfrwt beam="1">  1       21 0.18092011E-01 0.28444360E+03</pdfrwt>
<pdfrwt beam="2">  1       21 0.11493046E+00 0.28444360E+03</pdfrwt>
<totfact> 0.15509684E+04</totfact>
</mgrwt>
</event>
<event>
 4    0  0.1525083E-001  0.2417676E+03  0.7546771E-02  0.1118621E+00
         21   -1    0    0  503  501  0.00000000000E+00  0.00000000000E+00  0.60866143444E+02  0.60866143444E+02  0.00000000000E+00 0. -1.
         21   -1    0    0  501  502 -0.00000000000E+00 -0.00000000000E+00 -0.89281167946E+03  0.89281167946E+03  0.00000000000E+00 0. -1.
         25    1    1    2    0    0 -0.20596408547E+03  0.20133391790E+02 -0.31676718190E+03  0.39848840071E+03  0.12500000000E+03 0.  0.
         21    1    1    2  503  502  0.20596408547E+03 -0.20133391790E+02 -0.51517835411E+03  0.55518942219E+03  0.00000000000E+00 0. -1.
<mgrwt>
<rscale>  3 0.24176757E+03</rscale>
<asrwt>0</asrwt>
<pdfrwt beam="1">  1       21 0.93640226E-02 0.24176757E+03</pdfrwt>
<pdfrwt beam="2">  1       21 0.13735564E+00 0.24176757E+03</pdfrwt>
<totfact> 0.33325955E+04</totfact>
</mgrwt>
</event>
<event>
 4    0  0.1525083E-001  0.2775962E+03  0.7546771E-02  0.1097009E+00
         21   -1    0    0  502  501  0.00000000000E+00  0.00000000000E+00  0.22196917711E+03  0.22196917711E+03  0.00000000000E+00 0.  1.
         21   -1    0    0  503  502 -0.00000000000E+00 -0.00000000000E+00 -0.42871372653E+03  0.42871372653E+03  0.00000000000E+00 0.  1.
         25    1    1    2    0    0 -0.15748461788E+03 -0.19139818863E+03  0.62685188067E+02  0.28458584695E+03  0.12500000000E+03 0.  0.
         21    1    1    2  503  501  0.15748461788E+03  0.19139818863E+03 -0.26942973748E+03  0.36609705669E+03  0.00000000000E+00 0.  1.
<mgrwt>
<rscale>  3 0.27759624E+03</rscale>
<asrwt>0</asrwt>
<pdfrwt beam="1">  1       21 0.34149104E-01 0.27759624E+03</pdfrwt>
<pdfrwt beam="2">  1       21 0.65955958E-01 0.27759624E+03</pdfrwt>
<totfact> 0.16667975E+04</totfact>
</mgrwt>
</event>
<event>
 4    0  0.1525083E-001  0.2732450E+03  0.7546771E-02  0.1099437E+00
         21   -1    0    0  503  501  0.00000000000E+00  0.00000000000E+00  0.46210831534E+02  0.46210831534E+02  0.00000000000E+00 0.  1.
         21   -1    0    0  501  502 -0.00000000000E+00 -0.00000000000E+00 -0.15159127854E+04  0.15159127854E+04  0.00000000000E+00 0.  1.
         25    1    1    2    0    0  0.14100176358E+03  0.19787963183E+03 -0.94838412979E+03  0.98696266579E+03  0.12500000000E+03 0.  0.
         21    1    1    2  503  502 -0.14100176358E+03 -0.19787963183E+03 -0.52131782410E+03  0.57516095117E+03  0.00000000000E+00 0.  1.
<mgrwt>
<rscale>  3 0.27324503E+03</rscale>
<asrwt>0</asrwt>
<pdfrwt beam="1">  1       21 0.71093577E-02 0.27324503E+03</pdfrwt>
<pdfrwt beam="2">  1       21 0.23321739E+00 0.27324503E+03</pdfrwt>
<totfact> 0.11580970E+04</totfact>
</mgrwt>
</event>
<event>
 4    0  0.1525083E-001  0.3471717E+03  0.7546771E-02  0.1063782E+00
         21   -1    0    0  503  501  0.00000000000E+00  0.00000000000E+00  0.75427447935E+03  0.75427447935E+03  0.00000000000E+00 0. -1.
         21   -1    0    0  501  502 -0.00000000000E+00 -0.00000000000E+00 -0.17445508319E+03  0.17445508319E+03  0.00000000000E+00 0. -1.
         25    1    1    2    0    0 -0.31893098302E+03  0.56446290753E+02  0.47491018591E+03  0.58827531000E+03  0.12500000000E+03 0.  0.
         21    1    1    2  503  502  0.31893098302E+03 -0.56446290753E+02  0.10490921024E+03  0.34045425253E+03  0.00000000000E+00 0. -1.
<mgrwt>
<rscale>  3 0.34717165E+03</rscale>
<asrwt>0</asrwt>
<pdfrwt beam="1">  1       21 0.11604223E+00 0.34717165E+03</pdfrwt>
<pdfrwt beam="2">  1       21 0.26839244E-01 0.34717165E+03</pdfrwt>
<totfact> 0.69417034E+03</totfact>
</mgrwt>
</event>
<event>
 4    0  0.1525083E-001  0.3301587E+03  0.7546771E-02  0.1071067E+00
         21   -1    0    0  502  501  0.00000000000E+00  0.00000000000E+00  0.35841687043E+03  0.35841687043E+03  0.00000000000E+00 0.  1.
         21   -1    0    0  503  502 -0.00000000000E+00 -0.00000000000E+00 -0.31944368702E+03  0.31944368702E+03  0.00000000000E+00 0.  1.
         25    1    1    2    0    0  0.20072501932E+03 -0.23041107233E+03  0.13625284898E+03  0.35716891590E+03  0.12500000000E+03 0.  0.
         21    1    1    2  503  501 -0.20072501932E+03  0.23041107233E+03 -0.97279665558E+02  0.32069164155E+03  0.00000000000E+00 0.  1.
<mgrwt>
<rscale>  3 0.33015874E+03</rscale>
<asrwt>0</asrwt>
<pdfrwt beam="1">  1       21 0.55141057E-01 0.33015874E+03</pdfrwt>
<pdfrwt beam="2">  1       21 0.49145182E-01 0.33015874E+03</pdfrwt>
<totfact> 0.11408899E+04</totfact>
</mgrwt>
</event>
<event>
 4    0  0.1525083E-001  0.2675068E+03  0.7546771E-02  0.1102715E+00
         21   -1    0    0  503  501  0.00000000000E+00  0.00000000000E+00  0.18908529129E+03  0.18908529129E+03  0.00000000000E+00 0.  1.
         21   -1    0    0  501  502 -0.00000000000E+00 -0.00000000000E+00 -0.62589644022E+03  0.62589644022E+03  0.00000000000E+00 0. -1.
         25    1    1    2    0    0 -0.43122112393E+02 -0.23254107943E+03  0.51492935901E+02  0.27241768049E+03  0.12500000000E+03 0.  0.
         21    1    1    2  503  502  0.43122112393E+02  0.23254107943E+03 -0.48830408483E+03  0.54256405102E+03  0.00000000000E+00 0. -1.
<mgrwt>
<rscale>  3 0.26750677E+03</rscale>
<asrwt>0</asrwt>
<pdfrwt beam="1">  1       21 0.29090046E-01 0.26750677E+03</pdfrwt>
<pdfrwt beam="2">  1       21 0.96291757E-01 0.26750677E+03</pdfrwt>
<totfact> 0.96969446E+03</totfact>
</mgrwt>
</event>
<event>
 4    0  0.1525083E-001  0.2592212E+03  0.7546771E-02  0.1107612E+00
         21   -1    0    0  502  501  0.00000000000E+00  0.00000000000E+00  0.10278032943E+04  0.10278032943E+04  0.00000000000E+00 0. -1.
         21   -1    0    0  503  502 -0.00000000000E+00 -0.00000000000E+00 -0.57527072253E+02  0.57527072253E+02  0.00000000000E+00 0. -1.
         25    1    1    2    0    0  0.13097594306E+03 -0.18551528003E+03  0.51989297787E+03  0.58093401107E+03  0.12500000000E+03 0.  0.
         21    1    1    2  503  501 -0.13097594306E+03  0.18551528003E+03  0.45038324418E+03  0.50439635548E+03  0.00000000000E+00 0. -1.
<mgrwt>
<rscale>  3 0.25922117E+03</rscale>
<asrwt>0</asrwt>
<pdfrwt beam="1">  1       21 0.15812357E+00 0.25922117E+03</pdfrwt>
<pdfrwt beam="2">  1       21 0.88503195E-02 0.25922117E+03</pdfrwt>
<totfact> 0.25135803E+04</totfact>
</mgrwt>
</event>
<event>
 4    0  0.1525083E-001  0.2945225E+03  0.7546771E-02  0.1088011E+00
         21   -1    0    0  503  501  0.00000000000E+00  0.00000000000E+00  0.30204802264E+03  0.30204802264E+03  0.00000000000E+00 0.  1.
         21   -1    0    0  501  502 -0.00000000000E+00 -0.00000000000E+00 -0.57019027266E+03  0.57019027266E+03  0.00000000000E+00 0.  1.
         25    1    1    2    0    0 -0.11647254420E+03  0.23990133817E+03  0.18402463091E+03  0.34728744635E+03  0.12500000000E+03 0.  0.
         21    1    1    2  503  502  0.11647254420E+03 -0.23990133817E+03 -0.45216688093E+03  0.52495084896E+03  0.00000000000E+00 0.  1.
<mgrwt>
<rscale>  3 0.29452250E+03</rscale>
<asrwt>0</asrwt>
<pdfrwt beam="1">  1       21 0.46468927E-01 0.29452250E+03</pdfrwt>
<pdfrwt beam="2">  1       21 0.87721579E-01 0.29452250E+03</pdfrwt>
<totfact> 0.46260850E+03</totfact>
</mgrwt>
</event>
<event>
 4    0  0.1525083E-001  0.3553624E+03  0.7546771E-02  0.1060435E+00
         21   -1    0    0  502  501  0.00000000000E+00  0.00000000000E+00  0.67179126019E+03  0.67179126019E+03  0.00000000000E+00 0. -1.
         21   -1    0    0  503  502 -0.00000000000E+00 -0.00000000000E+00 -0.17618783964E+03  0.17618783964E+03  0.00000000000E+00 0.  1.
         25    1    1    2    0    0 -0.32870023194E+03  0.51123303041E+02  0.25040904550E+03  0.43472649409E+03  0.12500000000E+03 0.  0.
         21    1    1    2  503  501  0.32870023194E+03 -0.51123303041E+02  0.24519437505E+03  0.41325260574E+03  0.00000000000E+00 0.  1.
<mgrwt>
<rscale>  3 0.35536240E+03</rscale>
<asrwt>0</asrwt>
<pdfrwt beam="1">  1       21 0.10335250E+00 0.35536240E+03</pdfrwt>
<pdfrwt beam="2">  1       21 0.27105822E-01 0.35536240E+03</pdfrwt>
<totfact> 0.90257679E+03</totfact>
</mgrwt>
</event>
<event>
 4    0  0.1525083E-001  0.2393976E+03  0.7546771E-02  0.1120195E+00
         21   -1    0    0  503  501  0.00000000000E+00  0.00000000000E+00  0.34902051283E+03  0.34902051283E+03  0.00000000000E+00 0. -1.
         21   -1    0    0  501  502 -0.00000000000E+00 -0.00000000000E+00 -0.14105383133E+03  0.14105383133E+03  0.00000000000E+00 0.  1.
         25    1    1    2    0    0  0.16051051737E+03  0.12618477320E+03  0.10508520829E+03  0.26144621660E+03  0.12500000000E+03 0.  0.
         21    1    1    2  503  502 -0.16051051737E+03 -0.12618477320E+03  0.10288147322E+03  0.22862812755E+03  0.00000000000E+00 0.  1.
<mgrwt>
<rscale>  3 0.23939763E+03</rscale>
<asrwt>0</asrwt>
<pdfrwt beam="1">  1       21 0.53695463E-01 0.23939763E+03</pdfrwt>
<pdfrwt beam="2">  1       21 0.21700590E-01 0.23939763E+03</pdfrwt>
<totfact> 0.63705349E+04</totfact>
</mgrwt>
</event>
<event>
 4    0  0.1525083E-001  0.3074754E+03  0.7546771E-02  0.1081562E+00
         21   -1    0    0  503  501  0.00000000000E+00  0.00000000000E+00  0.29831648882E+03  0.29831648882E+03  0.00000000000E+00 0.  1.
         21   -1    0    0  501  502 -0.00000000000E+00 -0.00000000000E+00 -0.57590358997E+03  0.57590358997E+03  0.00000000000E+00 0. -1.
         25    1    1    2    0    0  0.26640247990E+03 -0.89139451018E+02  0.16580171902E+03  0.34932983419E+03  0.12500000000E+03 0.  0.
         21    1    1    2  503  502 -0.26640247990E+03  0.89139451018E+02 -0.44338882017E+03  0.52489024460E+03  0.00000000000E+00 0. -1.
<mgrwt>
<rscale>  3 0.30747540E+03</rscale>
<asrwt>0</asrwt>
<pdfrwt beam="1">  1       21 0.45894844E-01 0.30747540E+03</pdfrwt>
<pdfrwt beam="2">  1       21 0.88600552E-01 0.30747540E+03</pdfrwt>
<totfact> 0.46075428E+03</totfact>
</mgrwt>
</event>
<event>
 4    0  0.1525083E-001  0.5209580E+03  0.7546771E-02  0.1008449E+00
         21   -1    0    0  503  501  0.00000000000E+00  0.00000000000E+00  0.27979149497E+04  0.27979149497E+04  0.00000000000E+00 0.  1.
         21   -1    0    0  501  502 -0.00000000000E+00 -0.00000000000E+00 -0.27285322958E+03  0.27285322958E+03  0.00000000000E+00 0.  1.
         25    1    1    2    0    0 -0.39465286717E+03  0.31626145328E+03  0.25113794895E+04  0.25648438808E+04  0.12500000000E+03 0.  0.
         21    1    1    2  503  502  0.39465286717E+03 -0.31626145328E+03  0.13682230620E+02  0.50592429852E+03  0.00000000000E+00 0.  1.
<mgrwt>
<rscale>  3 0.52095796E+03</rscale>
<asrwt>0</asrwt>
<pdfrwt beam="1">  1       21 0.43044843E+00 0.52095796E+03</pdfrwt>
<pdfrwt beam="2">  1       21 0.41977422E-01 0.52095796E+03</pdfrwt>
<totfact> 0.21133450E+01</totfact>
</mgrwt>
</event>
<event>
 4    0  0.1525083E-001  0.2834953E+03  0.7546771E-02  0.1093795E+00
         21   -1    0    0  503  501  0.00000000000E+00  0.00000000000E+00  0.31693971608E+03  0.31693971608E+03  0.00000000000E+00 0.  1.
         21   -1    0    0  501  502 -0.00000000000E+00 -0.00000000000E+00 -0.38284417838E+03  0.38284417838E+03  0.00000000000E+00 0.  1.
         25    1    1    2    0    0 -0.24202233879E+02  0.25329599652E+03  0.18812391317E+03  0.34023553119E+03  0.12500000000E+03 0.  0.
         21    1    1    2  503  502  0.24202233879E+02 -0.25329599652E+03 -0.25402837548E+03  0.35954836326E+03  0.00000000000E+00 0.  1.
<mgrwt>
<rscale>  3 0.28349534E+03</rscale>
<asrwt>0</asrwt>
<pdfrwt beam="1">  1       21 0.48759957E-01 0.28349534E+03</pdfrwt>
<pdfrwt beam="2">  1       21 0.58899104E-01 0.28349534E+03</pdfrwt>
<totfact> 0.10270804E+04</totfact>
</mgrwt>
</event>
<event>
 4    0  0.1525083E-001  0.3402602E+03  0.7546771E-02  0.1066685E+00
         21   -1    0    0  502  501  0.00000000000E+00  0.00000000000E+00  0.18141633990E+04  0.18141633990E+04  0.00000000000E+00 0. -1.
         21   -1    0    0  503  502 -0.00000000000E+00 -0.00000000000E+00 -0.94269728602E+03  0.94269728602E+03  0.00000000000E+00 0. -1.
         25    1    1    2    0    0 -0.66896489415E+02  0.30931673571E+03  0.17709433058E+04  0.18033350148E+04  0.12500000000E+03 0.  0.
         21    1    1    2  503  501  0.66896489415E+02 -0.30931673571E+03 -0.89947719283E+03  0.95352567019E+03  0.00000000000E+00 0. -1.
<mgrwt>
<rscale>  3 0.34026017E+03</rscale>
<asrwt>0</asrwt>
<pdfrwt beam="1">  1       21 0.27910206E+00 0.34026017E+03</pdfrwt>
<pdfrwt beam="2">  1       21 0.14503035E+00 0.34026017E+03</pdfrwt>
<totfact> 0.11956160E+01</totfact>
</mgrwt>
</event>
<event>
 4    0  0.1525083E-001  0.2383357E+03  0.7546771E-02  0.1120907E+00
         21   -1    0    0  503  501  0.00000000000E+00  0.00000000000E+00  0.12128435948E+03  0.12128435948E+03  0.00000000000E+00 0. -1.
         21   -1    0    0  501  502 -0.00000000000E+00 -0.00000000000E+00 -0.82552533715E+03  0.82552533715E+03  0.00000000000E+00 0. -1.
         25    1    1    2    0    0  0.30941259354E+02  0.20055311568E+03 -0.27047408196E+02  0.23986553740E+03  0.12500000000E+03 0.  0.
         21    1    1    2  503  502 -0.30941259354E+02 -0.20055311568E+03 -0.67719356948E+03  0.70694415924E+03  0.00000000000E+00 0. -1.
<mgrwt>
<rscale>  3 0.23833572E+03</rscale>
<asrwt>0</asrwt>
<pdfrwt beam="1">  1       21 0.18659133E-01 0.23833572E+03</pdfrwt>
<pdfrwt beam="2">  1       21 0.12700389E+00 0.23833572E+03</pdfrwt>
<totfact> 0.11682658E+04</totfact>
</mgrwt>
</event>
<event>
 4    0  0.1525083E-001  0.2878639E+03  0.7546771E-02  0.1091470E+00
         21   -1    0    0  503  501  0.00000000000E+00  0.00000000000E+00  0.68827584147E+03  0.68827584147E+03  0.00000000000E+00 0. -1.
         21   -1    0    0  501  502 -0.00000000000E+00 -0.00000000000E+00 -0.12336223801E+03  0.12336223801E+03  0.00000000000E+00 0. -1.
         25    1    1    2    0    0  0.24434829030E+03 -0.86801576575E+02  0.43495789976E+03  0.52158793625E+03  0.12500000000E+03 0.  0.
         21    1    1    2  503  502 -0.24434829030E+03  0.86801576575E+02  0.12995570369E+03  0.29005014324E+03  0.00000000000E+00 0. -1.
<mgrwt>
<rscale>  3 0.28786386E+03</rscale>
<asrwt>0</asrwt>
<pdfrwt beam="1">  1       21 0.10588859E+00 0.28786386E+03</pdfrwt>
<pdfrwt beam="2">  1       21 0.18978806E-01 0.28786386E+03</pdfrwt>
<totfact> 0.17308744E+04</totfact>
</mgrwt>
</event>
<event>
 4    0  0.1525083E-001  0.2413829E+03  0.7546771E-02  0.1118875E+00
         21   -1    0    0  502  501  0.00000000000E+00  0.00000000000E+00  0.34563344113E+03  0.34563344113E+03  0.00000000000E+00 0.  1.
         21   -1    0    0  503  502 -0.00000000000E+00 -0.00000000000E+00 -0.14617389245E+03  0.14617389245E+03  0.00000000000E+00 0.  1.
         25    1    1    2    0    0 -0.11559352584E+03  0.17111060135E+03  0.12852419397E+03  0.27346694415E+03  0.12500000000E+03 0.  0.
         21    1    1    2  503  501  0.11559352584E+03 -0.17111060135E+03  0.70935354709E+02  0.21834038943E+03  0.00000000000E+00 0.  1.
<mgrwt>
<rscale>  3 0.24138289E+03</rscale>
<asrwt>0</asrwt>
<pdfrwt beam="1">  1       21 0.53174375E-01 0.24138289E+03</pdfrwt>
<pdfrwt beam="2">  1       21 0.22488291E-01 0.24138289E+03</pdfrwt>
<totfact> 0.60737578E+04</totfact>
</mgrwt>
</event>
<event>
 4    0  0.1525083E-001  0.2541624E+03  0.7546771E-02  0.1110702E+00
         21   -1    0    0  502  501  0.00000000000E+00  0.00000000000E+00  0.16746283641E+03  0.16746283641E+03  0.00000000000E+00 0. -1.
         21   -1    0    0  503  502 -0.00000000000E+00 -0.00000000000E+00 -0.65623162121E+03  0.65623162121E+03  0.00000000000E+00 0. -1.
         25    1    1    2    0    0 -0.16488449340E+03 -0.14760297657E+03  0.33608474289E+02  0.25637485134E+03  0.12500000000E+03 0.  0.
         21    1    1    2  503  501  0.16488449340E+03  0.14760297657E+03 -0.52237725909E+03  0.56731960628E+03  0.00000000000E+00 0. -1.
<mgrwt>
<rscale>  3 0.25416242E+03</rscale>
<asrwt>0</asrwt>
<pdfrwt beam="1">  1       21 0.25763513E-01 0.25416242E+03</pdfrwt>
<pdfrwt beam="2">  1       21 0.10095871E+00 0.25416242E+03</pdfrwt>
<totfact> 0.11045429E+04</totfact>
</mgrwt>
</event>
<event>
 4    0  0.1525083E-001  0.2418194E+03  0.7546771E-02  0.1118587E+00
         21   -1    0    0  503  501  0.00000000000E+00  0.00000000000E+00  0.99323715603E+03  0.99323715603E+03  0.00000000000E+00 0. -1.
         21   -1    0    0  501  502 -0.00000000000E+00 -0.00000000000E+00 -0.88598494475E+02  0.88598494475E+02  0.00000000000E+00 0.  1.
         25    1    1    2    0    0  0.16770613769E+03  0.12135188406E+03  0.82554577111E+03  0.86023394992E+03  0.12500000000E+03 0.  0.
         21    1    1    2  503  502 -0.16770613769E+03 -0.12135188406E+03  0.79092890435E+02  0.22160170058E+03  0.00000000000E+00 0.  1.
<mgrwt>
<rscale>  3 0.24181941E+03</rscale>
<asrwt>0</asrwt>
<pdfrwt beam="1">  1       21 0.15280571E+00 0.24181941E+03</pdfrwt>
<pdfrwt beam="2">  1       21 0.13630538E-01 0.24181941E+03</pdfrwt>
<totfact> 0.12851031E+04</totfact>
</mgrwt>
</event>
<event>
 4    0  0.1525083E-001  0.2576445E+03  0.7546771E-02  0.1108567E+00
         21   -1    0    0  502  501  0.00000000000E+00  0.00000000000E+00  0.23768003175E+03  0.23768003175E+03  0.00000000000E+00 0. -1.
         21   -1    0    0  503  502 -0.00000000000E+00 -0.00000000000E+00 -0.26017634416E+03  0.26017634416E+03  0.00000000000E+00 0. -1.
         25    1    1    2    0    0 -0.66593975710E+02  0.21522293255E+03  0.47408825613E+02  0.26196996973E+03  0.12500000000E+03 0.  0.
         21    1    1    2  503  501  0.66593975710E+02 -0.21522293255E+03 -0.69905138020E+02  0.23588640617E+03  0.00000000000E+00 0. -1.
<mgrwt>
<rscale>  3 0.25764446E+03</rscale>
<asrwt>0</asrwt>
<pdfrwt beam="1">  1       21 0.36566159E-01 0.25764446E+03</pdfrwt>
<pdfrwt beam="2">  1       21 0.40027129E-01 0.25764446E+03</pdfrwt>
<totfact> 0.42122759E+04</totfact>
</mgrwt>
</event>
<event>
 4    0  0.1525083E-001  0.2908742E+03  0.7546771E-02  0.1089894E+00
         21   -1    0    0  502  501  0.00000000000E+00  0.00000000000E+00  0.16221638214E+03  0.16221638214E+03  0.00000000000E+00 0. -1.
         21   -1    0    0  503  502 -0.00000000000E+00 -0.00000000000E+00 -0.86332862377E+03  0.86332862377E+03  0.00000000000E+00 0.  1.
         25    1    1    2    0    0  0.13370041250E+03 -0.22606860028E+03 -0.15431960226E+02  0.29128329463E+03  0.12500000000E+03 0.  0.
         21    1    1    2  503  501 -0.13370041250E+03  0.22606860028E+03 -0.68568028141E+03  0.73426171128E+03  0.00000000000E+00 0.  1.
<mgrwt>
<rscale>  3 0.29087422E+03</rscale>
<asrwt>0</asrwt>
<pdfrwt beam="1">  1       21 0.24956367E-01 0.29087422E+03</pdfrwt>
<pdfrwt beam="2">  1       21 0.13281979E+00 0.29087422E+03</pdfrwt>
<totfact> 0.58296588E+03</totfact>
</mgrwt>
</event>
<event>
 4    0  0.1525083E-001  0.2894598E+03  0.7546771E-02  0.1090632E+00
         21   -1    0    0  503  501  0.00000000000E+00  0.00000000000E+00  0.31993767495E+03  0.31993767495E+03  0.00000000000E+00 0.  1.
         21   -1    0    0  501  502 -0.00000000000E+00 -0.00000000000E+00 -0.34376321654E+03  0.34376321654E+03  0.00000000000E+00 0.  1.
         25    1    1    2    0    0 -0.13471848602E+03  0.22363560953E+03  0.17257260674E+03  0.33699890345E+03  0.12500000000E+03 0.  0.
         21    1    1    2  503  502  0.13471848602E+03 -0.22363560953E+03 -0.19639814833E+03  0.32670198805E+03  0.00000000000E+00 0.  1.
<mgrwt>
<rscale>  3 0.28945977E+03</rscale>
<asrwt>0</asrwt>
<pdfrwt beam="1">  1       21 0.49221181E-01 0.28945977E+03</pdfrwt>
<pdfrwt beam="2">  1       21 0.52886649E-01 0.28945977E+03</pdfrwt>
<totfact> 0.12647364E+04</totfact>
</mgrwt>
</event>
<event>
 4    0  0.1525083E-001  0.3989940E+03  0.7546771E-02  0.1044129E+00
         21   -1    0    0  503  501  0.00000000000E+00  0.00000000000E+00  0.30249354357E+03  0.30249354357E+03  0.00000000000E+00 0. -1.
         21   -1    0    0  501  502 -0.00000000000E+00 -0.00000000000E+00 -0.72360717929E+03  0.72360717929E+03  0.00000000000E+00 0.  1.
         25    1    1    2    0    0  0.55244755937E+02 -0.37485893100E+03  0.70745093416E+02  0.40521731139E+03  0.12500000000E+03 0.  0.
         21    1    1    2  503  502 -0.55244755937E+02  0.37485893100E+03 -0.49185872914E+03  0.62088341147E+03  0.00000000000E+00 0.  1.
<mgrwt>
<rscale>  3 0.39899399E+03</rscale>
<asrwt>0</asrwt>
<pdfrwt beam="1">  1       21 0.46537469E-01 0.39899399E+03</pdfrwt>
<pdfrwt beam="2">  1       21 0.11132418E+00 0.39899399E+03</pdfrwt>
<totfact> 0.24754548E+03</totfact>
</mgrwt>
</event>
<event>
 4    0  0.1525083E-001  0.2552514E+03  0.7546771E-02  0.1110030E+00
         21   -1    0    0  503  501  0.00000000000E+00  0.00000000000E+00  0.54529636507E+03  0.54529636507E+03  0.00000000000E+00 0.  1.
         21   -1    0    0  501  502 -0.00000000000E+00 -0.00000000000E+00 -0.15660315092E+03  0.15660315092E+03  0.00000000000E+00 0. -1.
         25    1    1    2    0    0  0.21586335770E+03  0.54141271011E+02  0.40503019778E+03  0.47875121675E+03  0.12500000000E+03 0.  0.
         21    1    1    2  503  502 -0.21586335770E+03 -0.54141271011E+02 -0.16336983637E+02  0.22314829925E+03  0.00000000000E+00 0. -1.
<mgrwt>
<rscale>  3 0.25525138E+03</rscale>
<asrwt>0</asrwt>
<pdfrwt beam="1">  1       21 0.83891748E-01 0.25525138E+03</pdfrwt>
<pdfrwt beam="2">  1       21 0.24092793E-01 0.25525138E+03</pdfrwt>
<totfact> 0.19386013E+04</totfact>
</mgrwt>
</event>
<event>
 4    0  0.1525083E-001  0.5694717E+03  0.7546771E-02  0.9970848E-01
         21   -1    0    0  502  501  0.00000000000E+00  0.00000000000E+00  0.11382158862E+04  0.11382158862E+04  0.00000000000E+00 0. -1.
         21   -1    0    0  503  502 -0.00000000000E+00 -0.00000000000E+00 -0.46507290399E+03  0.46507290399E+03  0.00000000000E+00 0. -1.
         25    1    1    2    0    0  0.44065111792E+03  0.33837796735E+03  0.84744084159E+03  0.10210063842E+04  0.12500000000E+03 0.  0.
         21    1    1    2  503  501 -0.44065111792E+03 -0.33837796735E+03 -0.17429785943E+03  0.58228240598E+03  0.00000000000E+00 0. -1.
<mgrwt>
<rscale>  3 0.56947173E+03</rscale>
<asrwt>0</asrwt>
<pdfrwt beam="1">  1       21 0.17511014E+00 0.56947173E+03</pdfrwt>
<pdfrwt beam="2">  1       21 0.71549678E-01 0.56947173E+03</pdfrwt>
<totfact> 0.26955144E+02</totfact>
</mgrwt>
</event>
<event>
 4    0  0.1525083E-001  0.3225283E+03  0.7546771E-02  0.1074492E+00
         21   -1    0    0  503  501  0.00000000000E+00  0.00000000000E+00  0.29532695151E+03  0.29532695151E+03  0.00000000000E+00 0.  1.
         21   -1    0    0  501  502 -0.00000000000E+00 -0.00000000000E+00 -0.42636506604E+03  0.42636506604E+03  0.00000000000E+00 0.  1.
         25    1    1    2    0    0 -0.16655777295E+02  0.29685360667E+03  0.10807051135E+03  0.34015248659E+03  0.12500000000E+03 0.  0.
         21    1    1    2  503  502  0.16655777295E+02 -0.29685360667E+03 -0.23910862587E+03  0.38153953095E+03  0.00000000000E+00 0.  1.
<mgrwt>
<rscale>  3 0.32252826E+03</rscale>
<asrwt>0</asrwt>
<pdfrwt beam="1">  1       21 0.45434915E-01 0.32252826E+03</pdfrwt>
<pdfrwt beam="2">  1       21 0.65594626E-01 0.32252826E+03</pdfrwt>
<totfact> 0.92456173E+03</totfact>
</mgrwt>
</event>
<event>
 4    0  0.1525083E-001  0.2601679E+03  0.7546771E-02  0.1107042E+00
         21   -1    0    0  502  501  0.00000000000E+00  0.00000000000E+00  0.85608162025E+02  0.85608162025E+02  0.00000000000E+00 0.  1.
         21   -1    0    0  503  502 -0.00000000000E+00 -0.00000000000E+00 -0.12714542847E+04  0.12714542847E+04  0.00000000000E+00 0.  1.
         25    1    1    2    0    0 -0.49243043252E+02 -0.22279462022E+03 -0.15842012157E+03  0.30460508043E+03  0.12500000000E+03 0.  0.
         21    1    1    2  503  501  0.49243043252E+02  0.22279462022E+03 -0.10274260012E+04  0.10524573663E+04  0.00000000000E+00 0.  1.
<mgrwt>
<rscale>  3 0.26016787E+03</rscale>
<asrwt>0</asrwt>
<pdfrwt beam="1">  1       21 0.13170488E-01 0.26016787E+03</pdfrwt>
<pdfrwt beam="2">  1       21 0.19560833E+00 0.26016787E+03</pdfrwt>
<totfact> 0.67549792E+03</totfact>
</mgrwt>
</event>
<event>
 4    0  0.1525083E-001  0.3157436E+03  0.7546771E-02  0.1077625E+00
         21   -1    0    0  502  501  0.00000000000E+00  0.00000000000E+00  0.10240325093E+04  0.10240325093E+04  0.00000000000E+00 0. -1.
         21   -1    0    0  503  502 -0.00000000000E+00 -0.00000000000E+00 -0.21292299347E+03  0.21292299347E+03  0.00000000000E+00 0. -1.
         25    1    1    2    0    0 -0.28872378420E+03 -0.26600679965E+02  0.88340171227E+03  0.93813250929E+03  0.12500000000E+03 0.  0.
         21    1    1    2  503  501  0.28872378420E+03  0.26600679965E+02 -0.72292196483E+02  0.29882299344E+03  0.00000000000E+00 0. -1.
<mgrwt>
<rscale>  3 0.31574360E+03</rscale>
<asrwt>0</asrwt>
<pdfrwt beam="1">  1       21 0.15754346E+00 0.31574360E+03</pdfrwt>
<pdfrwt beam="2">  1       21 0.32757384E-01 0.31574360E+03</pdfrwt>
<totfact> 0.21463128E+03</totfact>
</mgrwt>
</event>
<event>
 4    0  0.1525083E-001  0.2749433E+03  0.7546771E-02  0.1098483E+00
         21   -1    0    0  502  501  0.00000000000E+00  0.00000000000E+00  0.75805715005E+02  0.75805715005E+02  0.00000000000E+00 0.  1.
         21   -1    0    0  503  502 -0.00000000000E+00 -0.00000000000E+00 -0.15642301898E+04  0.15642301898E+04  0.00000000000E+00 0.  1.
         25    1    1    2    0    0  0.22436194471E+03 -0.98135177204E+02 -0.23134111583E+03  0.35932228864E+03  0.12500000000E+03 0.  0.
         21    1    1    2  503  501 -0.22436194471E+03  0.98135177204E+02 -0.12570833589E+04  0.12807136161E+04  0.00000000000E+00 0.  1.
<mgrwt>
<rscale>  3 0.27494326E+03</rscale>
<asrwt>0</asrwt>
<pdfrwt beam="1">  1       21 0.11662417E-01 0.27494326E+03</pdfrwt>
<pdfrwt beam="2">  1       21 0.24065080E+00 0.27494326E+03</pdfrwt>
<totfact> 0.43405844E+03</totfact>
</mgrwt>
</event>
<event>
 4    0  0.1525083E-001  0.2402033E+03  0.7546771E-02  0.1119657E+00
         21   -1    0    0  503  501  0.00000000000E+00  0.00000000000E+00  0.13229335223E+03  0.13229335223E+03  0.00000000000E+00 0.  1.
         21   -1    0    0  501  502 -0.00000000000E+00 -0.00000000000E+00 -0.11421130960E+04  0.11421130960E+04  0.00000000000E+00 0. -1.
         25    1    1    2    0    0 -0.14634474624E+03  0.14372136680E+03  0.38079727094E+01  0.24023346287E+03  0.12500000000E+03 0.  0.
         21    1    1    2  503  502  0.14634474624E+03 -0.14372136680E+03 -0.10136277165E+04  0.10341729854E+04  0.00000000000E+00 0. -1.
<mgrwt>
<rscale>  3 0.24020328E+03</rscale>
<asrwt>0</asrwt>
<pdfrwt beam="1">  1       21 0.20352824E-01 0.24020328E+03</pdfrwt>
<pdfrwt beam="2">  1       21 0.17570970E+00 0.24020328E+03</pdfrwt>
<totfact> 0.41818473E+03</totfact>
</mgrwt>
</event>
<event>
 4    0  0.1525083E-001  0.2463181E+03  0.7546771E-02  0.1115654E+00
         21   -1    0    0  502  501  0.00000000000E+00  0.00000000000E+00  0.26240602621E+04  0.26240602621E+04  0.00000000000E+00 0. -1.
         21   -1    0    0  503  502 -0.00000000000E+00 -0.00000000000E+00 -0.18962232472E+03  0.18962232472E+03  0.00000000000E+00 0.  1.
         25    1    1    2    0    0 -0.20307717844E+03 -0.61703234674E+02  0.25568368102E+04  0.25686741918E+04  0.12500000000E+03 0.  0.
         21    1    1    2  503  501  0.20307717844E+03  0.61703234674E+02 -0.12239887282E+03  0.24500839503E+03  0.00000000000E+00 0.  1.
<mgrwt>
<rscale>  3 0.24631815E+03</rscale>
<asrwt>0</asrwt>
<pdfrwt beam="1">  1       21 0.40370155E+00 0.24631815E+03</pdfrwt>
<pdfrwt beam="2">  1       21 0.29172667E-01 0.24631815E+03</pdfrwt>
<totfact> 0.85184042E+01</totfact>
</mgrwt>
</event>
<event>
 4    0  0.1525083E-001  0.2930345E+03  0.7546771E-02  0.1088775E+00
         21   -1    0    0  502  501  0.00000000000E+00  0.00000000000E+00  0.13415098120E+04  0.13415098120E+04  0.00000000000E+00 0. -1.
         21   -1    0    0  503  502 -0.00000000000E+00 -0.00000000000E+00 -0.77817818581E+02  0.77817818581E+02  0.00000000000E+00 0. -1.
         25    1    1    2    0    0 -0.23461038265E+03  0.12329708090E+03  0.10129248720E+04  0.10544600505E+04  0.12500000000E+03 0.  0.
         21    1    1    2  503  501  0.23461038265E+03 -0.12329708090E+03  0.25076712144E+03  0.36486758009E+03  0.00000000000E+00 0. -1.
<mgrwt>
<rscale>  3 0.29303447E+03</rscale>
<asrwt>0</asrwt>
<pdfrwt beam="1">  1       21 0.20638611E+00 0.29303447E+03</pdfrwt>
<pdfrwt beam="2">  1       21 0.11971973E-01 0.29303447E+03</pdfrwt>
<totfact> 0.66894055E+03</totfact>
</mgrwt>
</event>
<event>
 4    0  0.1525083E-001  0.2367867E+03  0.7546771E-02  0.1121952E+00
         21   -1    0    0  503  501  0.00000000000E+00  0.00000000000E+00  0.57032577056E+02  0.57032577056E+02  0.00000000000E+00 0.  1.
         21   -1    0    0  501  502 -0.00000000000E+00 -0.00000000000E+00 -0.84422549857E+03  0.84422549857E+03  0.00000000000E+00 0.  1.
         25    1    1    2    0    0  0.56463187563E+02 -0.19301512474E+03 -0.39577986869E+03  0.46120454724E+03  0.12500000000E+03 0.  0.
         21    1    1    2  503  502 -0.56463187563E+02  0.19301512474E+03 -0.39141305283E+03  0.44005352839E+03  0.00000000000E+00 0.  1.
<mgrwt>
<rscale>  3 0.23678668E+03</rscale>
<asrwt>0</asrwt>
<pdfrwt beam="1">  1       21 0.87742426E-02 0.23678668E+03</pdfrwt>
<pdfrwt beam="2">  1       21 0.12988085E+00 0.23678668E+03</pdfrwt>
<totfact> 0.43235865E+04</totfact>
</mgrwt>
</event>
<event>
 4    0  0.1525083E-001  0.2573843E+03  0.7546771E-02  0.1108725E+00
         21   -1    0    0  503  501  0.00000000000E+00  0.00000000000E+00  0.39180289248E+03  0.39180289248E+03  0.00000000000E+00 0. -1.
         21   -1    0    0  501  502 -0.00000000000E+00 -0.00000000000E+00 -0.16031049828E+03  0.16031049828E+03  0.00000000000E+00 0. -1.
         25    1    1    2    0    0  0.19651424685E+03  0.10956202368E+03  0.19780484730E+03  0.32461275986E+03  0.12500000000E+03 0.  0.
         21    1    1    2  503  502 -0.19651424685E+03 -0.10956202368E+03  0.33687546900E+02  0.22750063091E+03  0.00000000000E+00 0. -1.
<mgrwt>
<rscale>  3 0.25738432E+03</rscale>
<asrwt>0</asrwt>
<pdfrwt beam="1">  1       21 0.60277367E-01 0.25738432E+03</pdfrwt>
<pdfrwt beam="2">  1       21 0.24663154E-01 0.25738432E+03</pdfrwt>
<totfact> 0.38691176E+04</totfact>
</mgrwt>
</event>
<event>
 4    0  0.1525083E-001  0.3056744E+03  0.7546771E-02  0.1082438E+00
         21   -1    0    0  502  501  0.00000000000E+00  0.00000000000E+00  0.16163158043E+03  0.16163158043E+03  0.00000000000E+00 0. -1.
         21   -1    0    0  503  502 -0.00000000000E+00 -0.00000000000E+00 -0.67062739074E+03  0.67062739074E+03  0.00000000000E+00 0. -1.
         25    1    1    2    0    0  0.62808241317E+02 -0.27178480517E+03 -0.72355407628E+02  0.31412125129E+03  0.12500000000E+03 0.  0.
         21    1    1    2  503  501 -0.62808241317E+02  0.27178480517E+03 -0.43664040269E+03  0.51813771988E+03  0.00000000000E+00 0. -1.
<mgrwt>
<rscale>  3 0.30567443E+03</rscale>
<asrwt>0</asrwt>
<pdfrwt beam="1">  1       21 0.24866397E-01 0.30567443E+03</pdfrwt>
<pdfrwt beam="2">  1       21 0.10317344E+00 0.30567443E+03</pdfrwt>
<totfact> 0.10941412E+04</totfact>
</mgrwt>
</event>
<event>
 4    0  0.1525083E-001  0.2425846E+03  0.7546771E-02  0.1118083E+00
         21   -1    0    0  503  501  0.00000000000E+00  0.00000000000E+00  0.36091849749E+03  0.36091849749E+03  0.00000000000E+00 0. -1.
         21   -1    0    0  501  502 -0.00000000000E+00 -0.00000000000E+00 -0.38071782744E+03  0.38071782744E+03  0.00000000000E+00 0. -1.
         25    1    1    2    0    0 -0.17089368973E+03  0.11839617689E+03  0.28400597055E+03  0.37350595604E+03  0.12500000000E+03 0.  0.
         21    1    1    2  503  502  0.17089368973E+03 -0.11839617689E+03 -0.30380530049E+03  0.36813036889E+03  0.00000000000E+00 0. -1.
<mgrwt>
<rscale>  3 0.24258464E+03</rscale>
<asrwt>0</asrwt>
<pdfrwt beam="1">  1       21 0.55525923E-01 0.24258464E+03</pdfrwt>
<pdfrwt beam="2">  1       21 0.58571973E-01 0.24258464E+03</pdfrwt>
<totfact> 0.80712910E+03</totfact>
</mgrwt>
</event>
<event>
 4    0  0.1525083E-001  0.2428635E+03  0.7546771E-02  0.1117900E+00
         21   -1    0    0  502  501  0.00000000000E+00  0.00000000000E+00  0.97999275517E+02  0.97999275517E+02  0.00000000000E+00 0. -1.
         21   -1    0    0  503  502 -0.00000000000E+00 -0.00000000000E+00 -0.55234411763E+03  0.55234411763E+03  0.00000000000E+00 0. -1.
         25    1    1    2    0    0  0.88416226888E+02 -0.18852119971E+03 -0.32313446478E+03  0.40422587033E+03  0.12500000000E+03 0.  0.
         21    1    1    2  503  501 -0.88416226888E+02  0.18852119971E+03 -0.13121037734E+03  0.24611752282E+03  0.00000000000E+00 0. -1.
<mgrwt>
<rscale>  3 0.24286348E+03</rscale>
<asrwt>0</asrwt>
<pdfrwt beam="1">  1       21 0.15076812E-01 0.24286348E+03</pdfrwt>
<pdfrwt beam="2">  1       21 0.84976017E-01 0.24286348E+03</pdfrwt>
<totfact> 0.45501946E+04</totfact>
</mgrwt>
</event>
<event>
 4    0  0.1525083E-001  0.2964073E+03  0.7546771E-02  0.1087050E+00
         21   -1    0    0  502  501  0.00000000000E+00  0.00000000000E+00  0.30407882192E+03  0.30407882192E+03  0.00000000000E+00 0.  1.
         21   -1    0    0  503  502 -0.00000000000E+00 -0.00000000000E+00 -0.26715734621E+03  0.26715734621E+03  0.00000000000E+00 0.  1.
         25    1    1    2    0    0 -0.13499114608E+03  0.23239980031E+03  0.56573867814E+02  0.30175798121E+03  0.12500000000E+03 0.  0.
         21    1    1    2  503  501  0.13499114608E+03 -0.23239980031E+03 -0.19652392101E+02  0.26947818691E+03  0.00000000000E+00 0.  1.
<mgrwt>
<rscale>  3 0.29640728E+03</rscale>
<asrwt>0</asrwt>
<pdfrwt beam="1">  1       21 0.46781357E-01 0.29640728E+03</pdfrwt>
<pdfrwt beam="2">  1       21 0.41101130E-01 0.29640728E+03</pdfrwt>
<totfact> 0.23732095E+04</totfact>
</mgrwt>
</event>
<event>
 4    0  0.1525083E-001  0.2836839E+03  0.7546771E-02  0.1093694E+00
         21   -1    0    0  502  501  0.00000000000E+00  0.00000000000E+00  0.12359887468E+03  0.12359887468E+03  0.00000000000E+00 0.  1.
         21   -1    0    0  503  502 -0.00000000000E+00 -0.00000000000E+00 -0.66677433070E+03  0.66677433070E+03  0.00000000000E+00 0.  1.
         25    1    1    2    0    0 -0.20143740883E+03 -0.15580277601E+03 -0.14725863410E+03  0.31962734552E+03  0.12500000000E+03 0.  0.
         21    1    1    2  503  501  0.20143740883E+03  0.15580277601E+03 -0.39591682193E+03  0.47074585986E+03  0.00000000000E+00 0.  1.
<mgrwt>
<rscale>  3 0.28368386E+03</rscale>
<asrwt>0</asrwt>
<pdfrwt beam="1">  1       21 0.19015211E-01 0.28368386E+03</pdfrwt>
<pdfrwt beam="2">  1       21 0.10258067E+00 0.28368386E+03</pdfrwt>
<totfact> 0.18661495E+04</totfact>
</mgrwt>
</event>
<event>
 4    0  0.1525083E-001  0.2396007E+03  0.7546771E-02  0.1120059E+00
         21   -1    0    0  503  501  0.00000000000E+00  0.00000000000E+00  0.11208857185E+04  0.11208857185E+04  0.00000000000E+00 0.  1.
         21   -1    0    0  501  502 -0.00000000000E+00 -0.00000000000E+00 -0.44461070261E+02  0.44461070261E+02  0.00000000000E+00 0.  1.
         25    1    1    2    0    0  0.16916729911E+03 -0.11474282765E+03  0.51941156687E+03  0.57201124760E+03  0.12500000000E+03 0.  0.
         21    1    1    2  503  502 -0.16916729911E+03  0.11474282765E+03  0.55701308138E+03  0.59333554117E+03  0.00000000000E+00 0.  1.
<mgrwt>
<rscale>  3 0.23960069E+03</rscale>
<asrwt>0</asrwt>
<pdfrwt beam="1">  1       21 0.17244394E+00 0.23960069E+03</pdfrwt>
<pdfrwt beam="2">  1       21 0.68401655E-02 0.23960069E+03</pdfrwt>
<totfact> 0.31380427E+04</totfact>
</mgrwt>
</event>
<event>
 4    0  0.1525083E-001  0.2385120E+03  0.7546771E-02  0.1120788E+00
         21   -1    0    0  503  501  0.00000000000E+00  0.00000000000E+00  0.11854768875E+03  0.11854768875E+03  0.00000000000E+00 0. -1.
         21   -1    0    0  501  502 -0.00000000000E+00 -0.00000000000E+00 -0.41185343505E+03  0.41185343505E+03  0.00000000000E+00 0. -1.
         25    1    1    2    0    0  0.13169467267E+03 -0.15465928194E+03 -0.14898776438E+03  0.28122114827E+03  0.12500000000E+03 0.  0.
         21    1    1    2  503  502 -0.13169467267E+03  0.15465928194E+03 -0.14431798193E+03  0.24917997553E+03  0.00000000000E+00 0. -1.
<mgrwt>
<rscale>  3 0.23851201E+03</rscale>
<asrwt>0</asrwt>
<pdfrwt beam="1">  1       21 0.18238106E-01 0.23851201E+03</pdfrwt>
<pdfrwt beam="2">  1       21 0.63362065E-01 0.23851201E+03</pdfrwt>
<totfact> 0.61874087E+04</totfact>
</mgrwt>
</event>
<event>
 4    0  0.1525083E-001  0.2786821E+03  0.7546771E-02  0.1096411E+00
         21   -1    0    0  502  501  0.00000000000E+00  0.00000000000E+00  0.57264500285E+02  0.57264500285E+02  0.00000000000E+00 0.  1.
         21   -1    0    0  503  502 -0.00000000000E+00 -0.00000000000E+00 -0.14906493046E+04  0.14906493046E+04  0.00000000000E+00 0.  1.
         25    1    1    2    0    0 -0.18858996640E+03  0.16270390780E+03 -0.41768551821E+03  0.50212043293E+03  0.12500000000E+03 0.  0.
         21    1    1    2  503  501  0.18858996640E+03 -0.16270390780E+03 -0.10156992861E+04  0.10457933720E+04  0.00000000000E+00 0.  1.
<mgrwt>
<rscale>  3 0.27868214E+03</rscale>
<asrwt>0</asrwt>
<pdfrwt beam="1">  1       21 0.88099234E-02 0.27868214E+03</pdfrwt>
<pdfrwt beam="2">  1       21 0.22933065E+00 0.27868214E+03</pdfrwt>
<totfact> 0.83698449E+03</totfact>
</mgrwt>
</event>
<event>
 4    0  0.1525083E-001  0.2727579E+03  0.7546771E-02  0.1099711E+00
         21   -1    0    0  503  501  0.00000000000E+00  0.00000000000E+00  0.43041697118E+03  0.43041697118E+03  0.00000000000E+00 0.  1.
         21   -1    0    0  501  502 -0.00000000000E+00 -0.00000000000E+00 -0.23489951020E+03  0.23489951020E+03  0.00000000000E+00 0. -1.
         25    1    1    2    0    0  0.50013455590E+02  0.23721411077E+03  0.29633951742E+03  0.40275797903E+03  0.12500000000E+03 0.  0.
         21    1    1    2  503  502 -0.50013455590E+02 -0.23721411077E+03 -0.10082205644E+03  0.26255850235E+03  0.00000000000E+00 0. -1.
<mgrwt>
<rscale>  3 0.27275791E+03</rscale>
<asrwt>0</asrwt>
<pdfrwt beam="1">  1       21 0.66217996E-01 0.27275791E+03</pdfrwt>
<pdfrwt beam="2">  1       21 0.36138386E-01 0.27275791E+03</pdfrwt>
<totfact> 0.14784611E+04</totfact>
</mgrwt>
</event>
<event>
 4    0  0.1525083E-001  0.2671185E+03  0.7546771E-02  0.1102940E+00
         21   -1    0    0  502  501  0.00000000000E+00  0.00000000000E+00  0.39530745421E+03  0.39530745421E+03  0.00000000000E+00 0.  1.
         21   -1    0    0  503  502 -0.00000000000E+00 -0.00000000000E+00 -0.26946854951E+03  0.26946854951E+03  0.00000000000E+00 0.  1.
         25    1    1    2    0    0 -0.14828882265E+03 -0.18367824115E+03  0.27671944688E+03  0.38461139281E+03  0.12500000000E+03 0.  0.
         21    1    1    2  503  501  0.14828882265E+03  0.18367824115E+03 -0.15088054218E+03  0.28016461091E+03  0.00000000000E+00 0.  1.
<mgrwt>
<rscale>  3 0.26711846E+03</rscale>
<asrwt>0</asrwt>
<pdfrwt beam="1">  1       21 0.60816531E-01 0.26711846E+03</pdfrwt>
<pdfrwt beam="2">  1       21 0.41456700E-01 0.26711846E+03</pdfrwt>
<totfact> 0.13517148E+04</totfact>
</mgrwt>
</event>
<event>
 4    0  0.1525083E-001  0.3066479E+03  0.7546771E-02  0.1081964E+00
         21   -1    0    0  503  501  0.00000000000E+00  0.00000000000E+00  0.20295132985E+04  0.20295132985E+04  0.00000000000E+00 0.  1.
         21   -1    0    0  501  502 -0.00000000000E+00 -0.00000000000E+00 -0.11951929784E+03  0.11951929784E+03  0.00000000000E+00 0.  1.
         25    1    1    2    0    0  0.69203837293E+02  0.27132778610E+03  0.18332119817E+04  0.18586820891E+04  0.12500000000E+03 0.  0.
         21    1    1    2  503  502 -0.69203837293E+02 -0.27132778610E+03  0.76782018969E+02  0.29035050722E+03  0.00000000000E+00 0.  1.
<mgrwt>
<rscale>  3 0.30664791E+03</rscale>
<asrwt>0</asrwt>
<pdfrwt beam="1">  1       21 0.31223279E+00 0.30664791E+03</pdfrwt>
<pdfrwt beam="2">  1       21 0.18387586E-01 0.30664791E+03</pdfrwt>
<totfact> 0.69036137E+02</totfact>
</mgrwt>
</event>
<event>
 4    0  0.1525083E-001  0.3887086E+03  0.7546771E-02  0.1047761E+00
         21   -1    0    0  502  501  0.00000000000E+00  0.00000000000E+00  0.11423597316E+04  0.11423597316E+04  0.00000000000E+00 0. -1.
         21   -1    0    0  503  502 -0.00000000000E+00 -0.00000000000E+00 -0.21689448831E+04  0.21689448831E+04  0.00000000000E+00 0. -1.
         25    1    1    2    0    0 -0.34381123173E+03  0.13138964122E+03  0.10929680443E+04  0.11600317007E+04  0.12500000000E+03 0.  0.
         21    1    1    2  503  501  0.34381123173E+03 -0.13138964122E+03 -0.21195531958E+04  0.21512729140E+04  0.00000000000E+00 0. -1.
<mgrwt>
<rscale>  3 0.38870863E+03</rscale>
<asrwt>0</asrwt>
<pdfrwt beam="1">  1       21 0.17574765E+00 0.38870863E+03</pdfrwt>
<pdfrwt beam="2">  1       21 0.33368383E+00 0.38870863E+03</pdfrwt>
<totfact> 0.31603913E+00</totfact>
</mgrwt>
</event>
<event>
 4    0  0.1525083E-001  0.2554450E+03  0.7546771E-02  0.1109911E+00
         21   -1    0    0  502  501  0.00000000000E+00  0.00000000000E+00  0.13087758951E+04  0.13087758951E+04  0.00000000000E+00 0.  1.
         21   -1    0    0  503  502 -0.00000000000E+00 -0.00000000000E+00 -0.64295236741E+02  0.64295236741E+02  0.00000000000E+00 0.  1.
         25    1    1    2    0    0  0.17184126181E+03 -0.14176648040E+03  0.10392170539E+04  0.10701515030E+04  0.12500000000E+03 0.  0.
         21    1    1    2  503  501 -0.17184126181E+03  0.14176648040E+03  0.20526360443E+03  0.30291962883E+03  0.00000000000E+00 0.  1.
<mgrwt>
<rscale>  3 0.25544501E+03</rscale>
<asrwt>0</asrwt>
<pdfrwt beam="1">  1       21 0.20135012E+00 0.25544501E+03</pdfrwt>
<pdfrwt beam="2">  1       21 0.98915758E-02 0.25544501E+03</pdfrwt>
<totfact> 0.10389813E+04</totfact>
</mgrwt>
</event>
<event>
 4    0  0.1525083E-001  0.2804929E+03  0.7546771E-02  0.1095420E+00
         21   -1    0    0  503  501  0.00000000000E+00  0.00000000000E+00  0.10789035652E+03  0.10789035652E+03  0.00000000000E+00 0.  1.
         21   -1    0    0  501  502 -0.00000000000E+00 -0.00000000000E+00 -0.78120587772E+03  0.78120587772E+03  0.00000000000E+00 0.  1.
         25    1    1    2    0    0 -0.18124175933E+03 -0.17378925017E+03 -0.17367607440E+03  0.32990855948E+03  0.12500000000E+03 0.  0.
         21    1    1    2  503  502  0.18124175933E+03  0.17378925017E+03 -0.49963944680E+03  0.55918767475E+03  0.00000000000E+00 0.  1.
<mgrwt>
<rscale>  3 0.28049292E+03</rscale>
<asrwt>0</asrwt>
<pdfrwt beam="1">  1       21 0.16598517E-01 0.28049292E+03</pdfrwt>
<pdfrwt beam="2">  1       21 0.12018552E+00 0.28049292E+03</pdfrwt>
<totfact> 0.16319268E+04</totfact>
</mgrwt>
</event>
<event>
 4    0  0.1525083E-001  0.2584820E+03  0.7546771E-02  0.1108059E+00
         21   -1    0    0  502  501  0.00000000000E+00  0.00000000000E+00  0.52967164432E+03  0.52967164432E+03  0.00000000000E+00 0. -1.
         21   -1    0    0  503  502 -0.00000000000E+00 -0.00000000000E+00 -0.67737565691E+03  0.67737565691E+03  0.00000000000E+00 0.  1.
         25    1    1    2    0    0 -0.22620695201E+03 -0.42844871397E+01  0.47705639160E+03  0.54258247552E+03  0.12500000000E+03 0.  0.
         21    1    1    2  503  501  0.22620695201E+03  0.42844871397E+01 -0.62476040419E+03  0.66446482571E+03  0.00000000000E+00 0.  1.
<mgrwt>
<rscale>  3 0.25848200E+03</rscale>
<asrwt>0</asrwt>
<pdfrwt beam="1">  1       21 0.81487946E-01 0.25848200E+03</pdfrwt>
<pdfrwt beam="2">  1       21 0.10421164E+00 0.25848200E+03</pdfrwt>
<totfact> 0.92541108E+02</totfact>
</mgrwt>
</event>
<event>
 4    0  0.1525083E-001  0.2409334E+03  0.7546771E-02  0.1119173E+00
         21   -1    0    0  503  501  0.00000000000E+00  0.00000000000E+00  0.73851868874E+02  0.73851868874E+02  0.00000000000E+00 0.  1.
         21   -1    0    0  501  502 -0.00000000000E+00 -0.00000000000E+00 -0.90907940032E+03  0.90907940032E+03  0.00000000000E+00 0.  1.
         25    1    1    2    0    0 -0.26174594436E+02  0.20430070787E+03 -0.19367504802E+03  0.30912604687E+03  0.12500000000E+03 0.  0.
         21    1    1    2  503  502  0.26174594436E+02 -0.20430070787E+03 -0.64155248343E+03  0.67380522232E+03  0.00000000000E+00 0.  1.
<mgrwt>
<rscale>  3 0.24093337E+03</rscale>
<asrwt>0</asrwt>
<pdfrwt beam="1">  1       21 0.11361825E-01 0.24093337E+03</pdfrwt>
<pdfrwt beam="2">  1       21 0.13985838E+00 0.24093337E+03</pdfrwt>
<totfact> 0.22549497E+04</totfact>
</mgrwt>
</event>
<event>
 4    0  0.1525083E-001  0.3457330E+03  0.7546771E-02  0.1064380E+00
         21   -1    0    0  502  501  0.00000000000E+00  0.00000000000E+00  0.28368974434E+03  0.28368974434E+03  0.00000000000E+00 0.  1.
         21   -1    0    0  503  502 -0.00000000000E+00 -0.00000000000E+00 -0.48093806619E+03  0.48093806619E+03  0.00000000000E+00 0.  1.
         25    1    1    2    0    0 -0.30260472643E+03  0.11107049827E+03  0.61648570280E+02  0.35118630705E+03  0.12500000000E+03 0.  0.
         21    1    1    2  503  501  0.30260472643E+03 -0.11107049827E+03 -0.25889689213E+03  0.41344150348E+03  0.00000000000E+00 0.  1.
<mgrwt>
<rscale>  3 0.34573295E+03</rscale>
<asrwt>0</asrwt>
<pdfrwt beam="1">  1       21 0.43644577E-01 0.34573295E+03</pdfrwt>
<pdfrwt beam="2">  1       21 0.73990471E-01 0.34573295E+03</pdfrwt>
<totfact> 0.76056624E+03</totfact>
</mgrwt>
</event>
<event>
 4    0  0.1525083E-001  0.3229954E+03  0.7546771E-02  0.1074279E+00
         21   -1    0    0  503  501  0.00000000000E+00  0.00000000000E+00  0.48773319258E+03  0.48773319258E+03  0.00000000000E+00 0. -1.
         21   -1    0    0  501  502 -0.00000000000E+00 -0.00000000000E+00 -0.32911890644E+03  0.32911890644E+03  0.00000000000E+00 0. -1.
         25    1    1    2    0    0 -0.84056095707E+02 -0.28571940383E+03  0.33933683593E+03  0.46848211616E+03  0.12500000000E+03 0.  0.
         21    1    1    2  503  502  0.84056095707E+02  0.28571940383E+03 -0.18072254978E+03  0.34836998285E+03  0.00000000000E+00 0. -1.
<mgrwt>
<rscale>  3 0.32299536E+03</rscale>
<asrwt>0</asrwt>
<pdfrwt beam="1">  1       21 0.75035876E-01 0.32299536E+03</pdfrwt>
<pdfrwt beam="2">  1       21 0.50633678E-01 0.32299536E+03</pdfrwt>
<totfact> 0.54521190E+03</totfact>
</mgrwt>
</event>
<event>
 4    0  0.1525083E-001  0.2776977E+03  0.7546771E-02  0.1096953E+00
         21   -1    0    0  503  501  0.00000000000E+00  0.00000000000E+00  0.76948248379E+02  0.76948248379E+02  0.00000000000E+00 0. -1.
         21   -1    0    0  501  502 -0.00000000000E+00 -0.00000000000E+00 -0.10964077050E+04  0.10964077050E+04  0.00000000000E+00 0.  1.
         25    1    1    2    0    0  0.35505164566E+02 -0.24541876116E+03 -0.28394913653E+03  0.39716885223E+03  0.12500000000E+03 0.  0.
         21    1    1    2  503  502 -0.35505164566E+02  0.24541876116E+03 -0.73551032011E+03  0.77618710118E+03  0.00000000000E+00 0.  1.
<mgrwt>
<rscale>  3 0.27769765E+03</rscale>
<asrwt>0</asrwt>
<pdfrwt beam="1">  1       21 0.11838194E-01 0.27769765E+03</pdfrwt>
<pdfrwt beam="2">  1       21 0.16867808E+00 0.27769765E+03</pdfrwt>
<totfact> 0.12404811E+04</totfact>
</mgrwt>
</event>
<event>
 4    0  0.1525083E-001  0.2878806E+03  0.7546771E-02  0.1091461E+00
         21   -1    0    0  502  501  0.00000000000E+00  0.00000000000E+00  0.72557874972E+03  0.72557874972E+03  0.00000000000E+00 0.  1.
         21   -1    0    0  503  502 -0.00000000000E+00 -0.00000000000E+00 -0.16760481474E+03  0.16760481474E+03  0.00000000000E+00 0.  1.
         25    1    1    2    0    0 -0.98726230197E+02  0.23979860370E+03  0.56461642279E+03  0.63377199666E+03  0.12500000000E+03 0.  0.
         21    1    1    2  503  501  0.98726230197E+02 -0.23979860370E+03 -0.66424878113E+01  0.25941156781E+03  0.00000000000E+00 0.  1.
<mgrwt>
<rscale>  3 0.28788060E+03</rscale>
<asrwt>0</asrwt>
<pdfrwt beam="1">  1       21 0.11162750E+00 0.28788060E+03</pdfrwt>
<pdfrwt beam="2">  1       21 0.25785357E-01 0.28788060E+03</pdfrwt>
<totfact> 0.84874839E+03</totfact>
</mgrwt>
</event>
<event>
 4    0  0.1525083E-001  0.3543731E+03  0.7546771E-02  0.1060834E+00
         21   -1    0    0  502  501  0.00000000000E+00  0.00000000000E+00  0.31493402598E+03  0.31493402598E+03  0.00000000000E+00 0. -1.
         21   -1    0    0  503  502 -0.00000000000E+00 -0.00000000000E+00 -0.40730839359E+03  0.40730839359E+03  0.00000000000E+00 0. -1.
         25    1    1    2    0    0  0.27588233976E+03  0.18396798028E+03  0.56344587334E+02  0.35882446361E+03  0.12500000000E+03 0.  0.
         21    1    1    2  503  501 -0.27588233976E+03 -0.18396798028E+03 -0.14871895494E+03  0.36341795597E+03  0.00000000000E+00 0. -1.
<mgrwt>
<rscale>  3 0.35437308E+03</rscale>
<asrwt>0</asrwt>
<pdfrwt beam="1">  1       21 0.48451389E-01 0.35437308E+03</pdfrwt>
<pdfrwt beam="2">  1       21 0.62662830E-01 0.35437308E+03</pdfrwt>
<totfact> 0.88228053E+03</totfact>
</mgrwt>
</event>
<event>
 4    0  0.1525083E-001  0.2562725E+03  0.7546771E-02  0.1109404E+00
         21   -1    0    0  502  501  0.00000000000E+00  0.00000000000E+00  0.75590487099E+02  0.75590487099E+02  0.00000000000E+00 0. -1.
         21   -1    0    0  503  502 -0.00000000000E+00 -0.00000000000E+00 -0.77412758143E+03  0.77412758143E+03  0.00000000000E+00 0. -1.
         25    1    1    2    0    0  0.72802941700E+02 -0.21154268860E+03 -0.31947524151E+03  0.40956074929E+03  0.12500000000E+03 0.  0.
         21    1    1    2  503  501 -0.72802941700E+02  0.21154268860E+03 -0.37906185282E+03  0.44015731924E+03  0.00000000000E+00 0. -1.
<mgrwt>
<rscale>  3 0.25627247E+03</rscale>
<asrwt>0</asrwt>
<pdfrwt beam="1">  1       21 0.11629305E-01 0.25627247E+03</pdfrwt>
<pdfrwt beam="2">  1       21 0.11909656E+00 0.25627247E+03</pdfrwt>
<totfact> 0.32307459E+04</totfact>
</mgrwt>
</event>
<event>
 4    0  0.1525083E-001  0.2591830E+03  0.7546771E-02  0.1107635E+00
         21   -1    0    0  502  501  0.00000000000E+00  0.00000000000E+00  0.46728814079E+03  0.46728814079E+03  0.00000000000E+00 0.  1.
         21   -1    0    0  503  502 -0.00000000000E+00 -0.00000000000E+00 -0.33246150525E+03  0.33246150525E+03  0.00000000000E+00 0.  1.
         25    1    1    2    0    0 -0.13184115445E+03  0.18484788532E+03  0.38359380951E+03  0.46294712593E+03  0.12500000000E+03 0.  0.
         21    1    1    2  503  501  0.13184115445E+03 -0.18484788532E+03 -0.24876717396E+03  0.33680252011E+03  0.00000000000E+00 0.  1.
<mgrwt>
<rscale>  3 0.25918301E+03</rscale>
<asrwt>0</asrwt>
<pdfrwt beam="1">  1       21 0.71890483E-01 0.25918301E+03</pdfrwt>
<pdfrwt beam="2">  1       21 0.51147924E-01 0.25918301E+03</pdfrwt>
<totfact> 0.60727578E+03</totfact>
</mgrwt>
</event>
<event>
 4    0  0.1525083E-001  0.2689571E+03  0.7546771E-02  0.1101878E+00
         21   -1    0    0  503  501  0.00000000000E+00  0.00000000000E+00  0.75058153190E+03  0.75058153190E+03  0.00000000000E+00 0.  1.
         21   -1    0    0  501  502 -0.00000000000E+00 -0.00000000000E+00 -0.65009742782E+03  0.65009742782E+03  0.00000000000E+00 0. -1.
         25    1    1    2    0    0 -0.16787486636E+02 -0.23755226170E+03  0.70306101453E+03  0.75275008263E+03  0.12500000000E+03 0.  0.
         21    1    1    2  503  502  0.16787486636E+02  0.23755226170E+03 -0.60257691046E+03  0.64792887708E+03  0.00000000000E+00 0. -1.
<mgrwt>
<rscale>  3 0.26895705E+03</rscale>
<asrwt>0</asrwt>
<pdfrwt beam="1">  1       21 0.11547408E+00 0.26895705E+03</pdfrwt>
<pdfrwt beam="2">  1       21 0.10001499E+00 0.26895705E+03</pdfrwt>
<totfact> 0.44248984E+02</totfact>
</mgrwt>
</event>
