<event>
 5    0  0.2254433E+000  0.2285991E+03  0.7546771E-02  0.1127630E+00
         21   -1    0    0  502  501  0.00000000000E+00  0.00000000000E+00  0.20942505600E+03  0.20942505600E+03  0.00000000000E+00 0.  1.
         21   -1    0    0  503  502 -0.00000000000E+00 -0.00000000000E+00 -0.44468934994E+03  0.44468934994E+03  0.00000000000E+00 0.  1.
         25    1    1    2    0    0  0.22738841408E+03  0.57257635805E+02  0.24906697446E+02  0.26688812505E+03  0.12500000000E+03 0.  0.
         21    1    1    2  503  504 -0.18251125722E+03 -0.18661386271E+02 -0.27079292914E+03  0.32708931016E+03  0.00000000000E+00 0.  1.
         21    1    1    2  504  501 -0.44877156859E+02 -0.38596249534E+02  0.10621937756E+02  0.60136970721E+02  0.00000000000E+00 0.  1.
<mgrwt>
<rscale>  4 0.22859906E+03</rscale>
<asrwt>0</asrwt>
<pdfrwt beam="1">  1       21 0.32219240E-01 0.22859906E+03</pdfrwt>
<pdfrwt beam="2">  1       21 0.68413745E-01 0.22859906E+03</pdfrwt>
<totfact> 0.17680633E+04</totfact>
</mgrwt>
</event>
<event>
 5    0  0.2221929E+000  0.2664814E+03  0.7546771E-02  0.1103310E+00
         21   -1    0    0  502  501  0.00000000000E+00  0.00000000000E+00  0.35336892805E+03  0.35336892805E+03  0.00000000000E+00 0.  1.
         21   -1    0    0  503  502 -0.00000000000E+00 -0.00000000000E+00 -0.30330494732E+03  0.30330494732E+03  0.00000000000E+00 0.  1.
         25    1    1    2    0    0 -0.21004555678E+03  0.10615176917E+03  0.23503263429E+03  0.35532052179E+03  0.12500000000E+03 0.  0.
         21    1    1    2  503  504  0.26184257969E+02 -0.26244299660E+02 -0.23029344453E+02  0.43643204923E+02  0.00000000000E+00 0.  1.
         21    1    1    2  504  501  0.18386129881E+03 -0.79907469512E+02 -0.16193930912E+03  0.25771014866E+03  0.00000000000E+00 0.  1.
<mgrwt>
<rscale>  4 0.26648140E+03</rscale>
<asrwt>0</asrwt>
<pdfrwt beam="1">  1       21 0.54364450E-01 0.26648140E+03</pdfrwt>
<pdfrwt beam="2">  1       21 0.46662300E-01 0.26648140E+03</pdfrwt>
<totfact> 0.13480118E+04</totfact>
</mgrwt>
</event>
<event>
 5    0  0.2758215E+000  0.2334862E+03  0.7546771E-02  0.1124210E+00
         21   -1    0    0  502  501  0.00000000000E+00  0.00000000000E+00  0.11638175120E+04  0.11638175120E+04  0.00000000000E+00 0.  1.
         21   -1    0    0  503  502 -0.00000000000E+00 -0.00000000000E+00 -0.91279426994E+02  0.91279426994E+02  0.00000000000E+00 0. -1.
         25    1    1    2    0    0 -0.13178717415E+03 -0.15193042685E+03  0.99107308305E+03  0.10189708385E+04  0.12500000000E+03 0.  0.
         21    1    1    2  503  504  0.14134153118E+03  0.11537482018E+03  0.77163670163E+02  0.19809848450E+03  0.00000000000E+00 0. -1.
         21    1    1    2  504  501 -0.95543570319E+01  0.36555606666E+02  0.43013317654E+01  0.38027615913E+02  0.00000000000E+00 0.  1.
<mgrwt>
<rscale>  4 0.23348622E+03</rscale>
<asrwt>0</asrwt>
<pdfrwt beam="1">  1       21 0.17904884E+00 0.23348622E+03</pdfrwt>
<pdfrwt beam="2">  1       21 0.14042990E-01 0.23348622E+03</pdfrwt>
<totfact> 0.79113626E+03</totfact>
</mgrwt>
</event>
<event>
 5    0  0.2159162E+000  0.5063400E+03  0.7546771E-02  0.1012137E+00
         21   -1    0    0  502  501  0.00000000000E+00  0.00000000000E+00  0.39914352711E+03  0.39914352711E+03  0.00000000000E+00 0. -1.
         21   -1    0    0  503  502 -0.00000000000E+00 -0.00000000000E+00 -0.17731726079E+04  0.17731726079E+04  0.00000000000E+00 0.  1.
         25    1    1    2    0    0 -0.46483392578E+03 -0.15711350896E+03  0.18180519064E+03  0.53799011199E+03  0.12500000000E+03 0.  0.
         21    1    1    2  503  504  0.43210307663E+03  0.12248050541E+03 -0.13389414754E+04  0.14122601805E+04  0.00000000000E+00 0.  1.
         21    1    1    2  504  501  0.32730849154E+02  0.34633003546E+02 -0.21689279610E+03  0.22206584253E+03  0.00000000000E+00 0.  1.
<mgrwt>
<rscale>  4 0.50634004E+03</rscale>
<asrwt>0</asrwt>
<pdfrwt beam="1">  1       21 0.61406697E-01 0.50634004E+03</pdfrwt>
<pdfrwt beam="2">  1       21 0.27279578E+00 0.50634004E+03</pdfrwt>
<totfact> 0.90920321E+01</totfact>
</mgrwt>
</event>
<event>
 5    0  0.2159162E+000  0.2676686E+03  0.7546771E-02  0.1102621E+00
         21   -1    0    0  502  501  0.00000000000E+00  0.00000000000E+00  0.60989671747E+02  0.60989671747E+02  0.00000000000E+00 0.  1.
         21   -1    0    0  503  502 -0.00000000000E+00 -0.00000000000E+00 -0.21859742515E+04  0.21859742515E+04  0.00000000000E+00 0.  1.
         25    1    1    2    0    0  0.23629667229E+03 -0.12259073288E+03 -0.43501537537E+03  0.52509806887E+03  0.12500000000E+03 0.  0.
         21    1    1    2  503  504 -0.19784553108E+03  0.18096939711E+02 -0.77139315421E+03  0.79656622560E+03  0.00000000000E+00 0.  1.
         21    1    1    2  504  501 -0.38451141209E+02  0.10449379317E+03 -0.91857605014E+03  0.92529962875E+03  0.00000000000E+00 0.  1.
<mgrwt>
<rscale>  4 0.26766861E+03</rscale>
<asrwt>0</asrwt>
<pdfrwt beam="1">  1       21 0.93830273E-02 0.26766861E+03</pdfrwt>
<pdfrwt beam="2">  1       21 0.33630370E+00 0.26766861E+03</pdfrwt>
<totfact> 0.17522328E+03</totfact>
</mgrwt>
</event>
<event>
 5    0  0.2159162E+000  0.2464645E+03  0.7546771E-02  0.1115560E+00
         21   -1    0    0  502  501  0.00000000000E+00  0.00000000000E+00  0.44760756679E+03  0.44760756679E+03  0.00000000000E+00 0. -1.
         21   -1    0    0  503  502 -0.00000000000E+00 -0.00000000000E+00 -0.33807373011E+03  0.33807373011E+03  0.00000000000E+00 0.  1.
         25    1    1    2    0    0 -0.28686716043E+03  0.73863855968E+02  0.24341728283E+03  0.40326865801E+03  0.12500000000E+03 0.  0.
         21    1    1    2  503  504  0.19128218288E+03 -0.61903524166E+02 -0.18512745680E+03  0.27330037515E+03  0.00000000000E+00 0.  1.
         21    1    1    2  504  501  0.95584977553E+02 -0.11960331802E+02  0.51244010651E+02  0.10911226374E+03  0.00000000000E+00 0. -1.
<mgrwt>
<rscale>  4 0.24646454E+03</rscale>
<asrwt>0</asrwt>
<pdfrwt beam="1">  1       21 0.68862703E-01 0.24646454E+03</pdfrwt>
<pdfrwt beam="2">  1       21 0.52011343E-01 0.24646454E+03</pdfrwt>
<totfact> 0.64987312E+03</totfact>
</mgrwt>
</event>
<event>
 5    0  0.2159162E+000  0.2779606E+03  0.7546771E-02  0.1096808E+00
         21   -1    0    0  502  501  0.00000000000E+00  0.00000000000E+00  0.18530664202E+03  0.18530664202E+03  0.00000000000E+00 0. -1.
         21   -1    0    0  503  502 -0.00000000000E+00 -0.00000000000E+00 -0.11741763893E+04  0.11741763893E+04  0.00000000000E+00 0. -1.
         25    1    1    2    0    0  0.13946397321E+02  0.24787612208E+03  0.55745200369E+02  0.28349532847E+03  0.12500000000E+03 0.  0.
         21    1    1    2  503  504  0.19458517253E+02 -0.26554668330E+02 -0.17211213360E+03  0.17523233388E+03  0.00000000000E+00 0.  1.
         21    1    1    2  504  501 -0.33404914574E+02 -0.22132145375E+03 -0.87250281401E+03  0.90075536894E+03  0.00000000000E+00 0. -1.
<mgrwt>
<rscale>  4 0.27796056E+03</rscale>
<asrwt>0</asrwt>
<pdfrwt beam="1">  1       21 0.28508714E-01 0.27796056E+03</pdfrwt>
<pdfrwt beam="2">  1       21 0.18064252E+00 0.27796056E+03</pdfrwt>
<totfact> 0.19719386E+03</totfact>
</mgrwt>
</event>
<event>
 5    0  0.2159162E+000  0.4184562E+03  0.7546771E-02  0.1037570E+00
         21   -1    0    0  502  501  0.00000000000E+00  0.00000000000E+00  0.38512921839E+03  0.38512921839E+03  0.00000000000E+00 0.  1.
         21   -1    0    0  503  502 -0.00000000000E+00 -0.00000000000E+00 -0.48389644878E+03  0.48389644878E+03  0.00000000000E+00 0.  1.
         25    1    1    2    0    0 -0.36927697457E+03  0.15203660065E+03  0.79785702334E+02  0.42599456591E+03  0.12500000000E+03 0.  0.
         21    1    1    2  503  504  0.84943753687E+02 -0.36858213663E+02 -0.10359822734E+02  0.93173467962E+02  0.00000000000E+00 0. -1.
         21    1    1    2  504  501  0.28433322088E+03 -0.11517838699E+03 -0.16819311000E+03  0.34985763330E+03  0.00000000000E+00 0.  1.
<mgrwt>
<rscale>  4 0.41845622E+03</rscale>
<asrwt>0</asrwt>
<pdfrwt beam="1">  1       21 0.59250649E-01 0.41845622E+03</pdfrwt>
<pdfrwt beam="2">  1       21 0.74445607E-01 0.41845622E+03</pdfrwt>
<totfact> 0.38071226E+03</totfact>
</mgrwt>
</event>
<event>
 5    0  0.3541872E+000  0.2744230E+03  0.7546771E-02  0.1098775E+00
         21   -1    0    0  502  501  0.00000000000E+00  0.00000000000E+00  0.52147387043E+03  0.52147387043E+03  0.00000000000E+00 0.  1.
         21   -1    0    0  503  502 -0.00000000000E+00 -0.00000000000E+00 -0.16750506178E+03  0.16750506178E+03  0.00000000000E+00 0.  1.
         25    1    1    2    0    0  0.10038800697E+03 -0.22272235265E+03  0.34462393904E+03  0.44053791854E+03  0.12500000000E+03 0.  0.
         21    1    1    2  503  504 -0.82139318795E+02  0.20838253810E+03  0.16600847581E+01  0.22399309311E+03  0.00000000000E+00 0.  1.
         21    1    1    2  504  501 -0.18248688173E+02  0.14339814548E+02  0.76847848532E+01  0.24447920557E+02  0.00000000000E+00 0.  1.
<mgrwt>
<rscale>  4 0.27442303E+03</rscale>
<asrwt>0</asrwt>
<pdfrwt beam="1">  1       21 0.80226749E-01 0.27442303E+03</pdfrwt>
<pdfrwt beam="2">  1       21 0.25770010E-01 0.27442303E+03</pdfrwt>
<totfact> 0.18700715E+04</totfact>
</mgrwt>
</event>
<event>
 5    0  0.2159162E+000  0.4304311E+03  0.7546771E-02  0.1033724E+00
         21   -1    0    0  502  501  0.00000000000E+00  0.00000000000E+00  0.98754956288E+03  0.98754956288E+03  0.00000000000E+00 0.  1.
         21   -1    0    0  503  502 -0.00000000000E+00 -0.00000000000E+00 -0.32845491809E+03  0.32845491809E+03  0.00000000000E+00 0.  1.
         25    1    1    2    0    0 -0.14129488009E+03 -0.44647374765E+03  0.63075173890E+03  0.79547206526E+03  0.12500000000E+03 0.  0.
         21    1    1    2  503  504  0.80970036052E+02  0.32263125255E+03  0.12161600006E+03  0.35417160153E+03  0.00000000000E+00 0.  1.
         21    1    1    2  504  501  0.60324844038E+02  0.12384249510E+03 -0.93273094167E+02  0.16636081419E+03  0.00000000000E+00 0.  1.
<mgrwt>
<rscale>  4 0.43043109E+03</rscale>
<asrwt>0</asrwt>
<pdfrwt beam="1">  1       21 0.15193070E+00 0.43043109E+03</pdfrwt>
<pdfrwt beam="2">  1       21 0.50531526E-01 0.43043109E+03</pdfrwt>
<totfact> 0.91565827E+02</totfact>
</mgrwt>
</event>
