<event>
 5    0  0.2396052E+000  0.5235587E+03  0.7546771E-02  0.1007806E+00
         -1   -1    0    0    0  501 -0.00000000000E+00  0.00000000000E+00  0.10351860273E+04  0.10351860273E+04  0.00000000000E+00 0. -1.
         21   -1    0    0  501  502  0.00000000000E+00 -0.00000000000E+00 -0.92876287532E+02  0.92876287532E+02  0.00000000000E+00 0. -1.
         25    1    1    2    0    0  0.17454571607E+03  0.18371952889E+03  0.44710717120E+03  0.52891293691E+03  0.12500000000E+03 0.  0.
         21    1    1    2  503  502 -0.16509657683E+03 -0.15838212000E+03  0.20349019406E+03  0.30618627450E+03  0.00000000000E+00 0. -1.
         -1    1    1    2    0  503 -0.94491392403E+01 -0.25337408891E+02  0.29171237447E+03  0.29296310338E+03  0.00000000000E+00 0. -1.
<mgrwt>
<rscale>  4 0.52355875E+03</rscale>
<asrwt>0</asrwt>
<pdfrwt beam="1">  1       21 0.14288660E-01 0.52355875E+03</pdfrwt>
<pdfrwt beam="2">  1       -1 0.15925938E+00 0.52355875E+03</pdfrwt>
<totfact> 0.12143692E+03</totfact>
</mgrwt>
</event>
<event>
 5    0  0.2396052E+000  0.5190098E+03  0.7546771E-02  0.1008933E+00
         21   -1    0    0  501  502  0.00000000000E+00  0.00000000000E+00  0.46623567348E+02  0.46623567348E+02  0.00000000000E+00 0.  1.
          1   -1    0    0  503    0 -0.00000000000E+00 -0.00000000000E+00 -0.18761005926E+04  0.18761005926E+04  0.00000000000E+00 0.  1.
         25    1    1    2    0    0  0.64296232561E+02  0.25157650714E+03 -0.77695735025E+03  0.82868116219E+03  0.12500000000E+03 0.  0.
         21    1    1    2  503  502 -0.54602630544E+02 -0.22424248090E+03 -0.63715497526E+03  0.67766702739E+03  0.00000000000E+00 0.  1.
          1    1    1    2  501    0 -0.96936020168E+01 -0.27334026237E+02 -0.41536469978E+03  0.41637597041E+03  0.00000000000E+00 0.  1.
<mgrwt>
<rscale>  4 0.51900983E+03</rscale>
<asrwt>0</asrwt>
<pdfrwt beam="1">  1       21 0.71728559E-02 0.51900983E+03</pdfrwt>
<pdfrwt beam="2">  1        1 0.28863088E+00 0.51900983E+03</pdfrwt>
<totfact> 0.61817759E+03</totfact>
</mgrwt>
</event>
<event>
 5    0  0.2396052E+000  0.4784917E+03  0.7546771E-02  0.1019551E+00
         21   -1    0    0  501  502  0.00000000000E+00  0.00000000000E+00  0.98462646311E+02  0.98462646311E+02  0.00000000000E+00 0.  1.
          2   -1    0    0  503    0 -0.00000000000E+00 -0.00000000000E+00 -0.12758770015E+04  0.12758770015E+04  0.00000000000E+00 0.  1.
         25    1    1    2    0    0 -0.96563836796E+02 -0.18231303935E+03 -0.28700959434E+03  0.37491615881E+03  0.12500000000E+03 0.  0.
         21    1    1    2  503  502  0.10818984265E+03  0.20726834568E+03 -0.19774291550E+03  0.30621474458E+03  0.00000000000E+00 0.  1.
          2    1    1    2  501    0 -0.11626005854E+02 -0.24955306325E+02 -0.69266184535E+03  0.69320874441E+03  0.00000000000E+00 0.  1.
<mgrwt>
<rscale>  4 0.47849171E+03</rscale>
<asrwt>0</asrwt>
<pdfrwt beam="1">  1       21 0.15148099E-01 0.47849171E+03</pdfrwt>
<pdfrwt beam="2">  1        2 0.19628878E+00 0.47849171E+03</pdfrwt>
<totfact> 0.83535348E+03</totfact>
</mgrwt>
</event>
<event>
 5    0  0.2396052E+000  0.5860118E+03  0.7546771E-02  0.9934860E-01
          2   -1    0    0  503    0 -0.00000000000E+00  0.00000000000E+00  0.59655530229E+03  0.59655530229E+03  0.00000000000E+00 0.  1.
         21   -1    0    0  501  502  0.00000000000E+00 -0.00000000000E+00 -0.95626279286E+03  0.95626279286E+03  0.00000000000E+00 0.  1.
         25    1    1    2    0    0 -0.25416912957E+03  0.78765315372E+02 -0.43330628184E+03  0.52362701918E+03  0.12500000000E+03 0.  0.
         21    1    1    2  503  502  0.27787683378E+03 -0.89774757824E+02 -0.43280861050E+03  0.52210950500E+03  0.00000000000E+00 0.  1.
          2    1    1    2  501    0 -0.23707704201E+02  0.11009442452E+02  0.50640740176E+03  0.50708157097E+03  0.00000000000E+00 0.  1.
<mgrwt>
<rscale>  4 0.58601184E+03</rscale>
<asrwt>0</asrwt>
<pdfrwt beam="1">  1       21 0.14711735E+00 0.58601184E+03</pdfrwt>
<pdfrwt beam="2">  1        2 0.91777740E-01 0.58601184E+03</pdfrwt>
<totfact> 0.16884499E+02</totfact>
</mgrwt>
</event>
<event>
 5    0  0.2396052E+000  0.6402503E+03  0.7546771E-02  0.9825248E-01
         21   -1    0    0  501  502  0.00000000000E+00  0.00000000000E+00  0.20913893491E+03  0.20913893491E+03  0.00000000000E+00 0.  1.
          2   -1    0    0  503    0 -0.00000000000E+00 -0.00000000000E+00 -0.96026189388E+03  0.96026189388E+03  0.00000000000E+00 0. -1.
         25    1    1    2    0    0 -0.21734573084E+03 -0.36256663718E+02 -0.31053284401E+03  0.40076097563E+03  0.12500000000E+03 0.  0.
         21    1    1    2  503  502  0.27955952881E+03  0.12986607783E+03  0.58111775738E+01  0.30830585155E+03  0.00000000000E+00 0.  1.
          2    1    1    2  501    0 -0.62213797969E+02 -0.93609414111E+02 -0.44640129253E+03  0.46033400162E+03  0.00000000000E+00 0. -1.
<mgrwt>
<rscale>  4 0.64025032E+03</rscale>
<asrwt>0</asrwt>
<pdfrwt beam="1">  1       21 0.32175220E-01 0.64025032E+03</pdfrwt>
<pdfrwt beam="2">  1        2 0.14773260E+00 0.64025032E+03</pdfrwt>
<totfact> 0.29516158E+03</totfact>
</mgrwt>
</event>
<event>
 5    0  0.2396052E+000  0.4564306E+03  0.7546771E-02  0.1025822E+00
         21   -1    0    0  501  502  0.00000000000E+00  0.00000000000E+00  0.77692734489E+03  0.77692734489E+03  0.00000000000E+00 0.  1.
          2   -1    0    0  503    0 -0.00000000000E+00 -0.00000000000E+00 -0.20325586971E+04  0.20325586971E+04  0.00000000000E+00 0.  1.
         25    1    1    2    0    0 -0.15644545282E+03  0.12603505807E+03  0.17876456299E+03  0.29654980113E+03  0.12500000000E+03 0.  0.
         21    1    1    2  503  502  0.12198300658E+03 -0.53043540668E+02  0.53022628612E+03  0.54665655177E+03  0.00000000000E+00 0.  1.
          2    1    1    2  501    0  0.34462446235E+02 -0.72991517398E+02 -0.19646222013E+04  0.19662796891E+04  0.00000000000E+00 0.  1.
<mgrwt>
<rscale>  4 0.45643064E+03</rscale>
<asrwt>0</asrwt>
<pdfrwt beam="1">  1       21 0.11952728E+00 0.45643064E+03</pdfrwt>
<pdfrwt beam="2">  1        2 0.31270134E+00 0.45643064E+03</pdfrwt>
<totfact> 0.41070332E+01</totfact>
</mgrwt>
</event>
<event>
 5    0  0.2396052E+000  0.5878190E+03  0.7546771E-02  0.9931005E-01
         21   -1    0    0  501  502  0.00000000000E+00  0.00000000000E+00  0.59210099243E+02  0.59210099243E+02  0.00000000000E+00 0.  1.
          2   -1    0    0  503    0 -0.00000000000E+00 -0.00000000000E+00 -0.17483765479E+04  0.17483765479E+04  0.00000000000E+00 0.  1.
         25    1    1    2    0    0  0.14927078948E+02  0.28402396092E+03 -0.89693954714E+03  0.94921966862E+03  0.12500000000E+03 0.  0.
         21    1    1    2  503  502 -0.23942376832E+02 -0.26591205633E+03 -0.51218266181E+03  0.57759288272E+03  0.00000000000E+00 0.  1.
          2    1    1    2  501    0  0.90152978848E+01 -0.18111904585E+02 -0.28004423975E+03  0.28077409585E+03  0.00000000000E+00 0.  1.
<mgrwt>
<rscale>  4 0.58781899E+03</rscale>
<asrwt>0</asrwt>
<pdfrwt beam="1">  1       21 0.91092467E-02 0.58781899E+03</pdfrwt>
<pdfrwt beam="2">  1        2 0.26898099E+00 0.58781899E+03</pdfrwt>
<totfact> 0.11424215E+04</totfact>
</mgrwt>
</event>
<event>
 5    0  0.2396052E+000  0.7990735E+03  0.7546771E-02  0.9561359E-01
          2   -1    0    0  503    0 -0.00000000000E+00  0.00000000000E+00  0.16270431270E+04  0.16270431270E+04  0.00000000000E+00 0.  1.
         21   -1    0    0  501  502  0.00000000000E+00 -0.00000000000E+00 -0.19871188403E+03  0.19871188403E+03  0.00000000000E+00 0. -1.
         25    1    1    2    0    0 -0.11754093185E+03  0.35022568342E+03  0.28799683664E+03  0.48481035251E+03  0.12500000000E+03 0.  0.
         21    1    1    2  503  502  0.11651927179E+03 -0.39201133360E+03  0.31929979876E+03  0.51884678649E+03  0.00000000000E+00 0. -1.
          2    1    1    2  501    0  0.10216600590E+01  0.41785650180E+02  0.82103460756E+03  0.82209787201E+03  0.00000000000E+00 0.  1.
<mgrwt>
<rscale>  4 0.79907349E+03</rscale>
<asrwt>0</asrwt>
<pdfrwt beam="1">  1       21 0.30571060E-01 0.79907349E+03</pdfrwt>
<pdfrwt beam="2">  1        2 0.25031432E+00 0.79907349E+03</pdfrwt>
<totfact> 0.13052443E+03</totfact>
</mgrwt>
</event>
<event>
 5    0  0.2396052E+000  0.4517242E+03  0.7546771E-02  0.1027209E+00
         21   -1    0    0  501  502  0.00000000000E+00  0.00000000000E+00  0.29541253660E+03  0.29541253660E+03  0.00000000000E+00 0. -1.
         -1   -1    0    0    0  501 -0.00000000000E+00 -0.00000000000E+00 -0.67859847639E+03  0.67859847639E+03  0.00000000000E+00 0. -1.
         25    1    1    2    0    0  0.26925397045E+03 -0.20180453207E+02  0.16832477116E+03  0.34185257039E+03  0.12500000000E+03 0.  0.
         21    1    1    2  503  502 -0.98386012229E+02  0.21744848815E+01 -0.69598661940E+02  0.12053426704E+03  0.00000000000E+00 0.  1.
         -1    1    1    2    0  503 -0.17086795823E+03  0.18005968326E+02 -0.48191204901E+03  0.51162417557E+03  0.00000000000E+00 0. -1.
<mgrwt>
<rscale>  4 0.45172419E+03</rscale>
<asrwt>0</asrwt>
<pdfrwt beam="1">  1       21 0.45448083E-01 0.45172419E+03</pdfrwt>
<pdfrwt beam="2">  1       -1 0.10439977E+00 0.45172419E+03</pdfrwt>
<totfact> 0.36547805E+02</totfact>
</mgrwt>
</event>
<event>
 5    0  0.2396052E+000  0.5570899E+03  0.7546771E-02  0.9998661E-01
          2   -1    0    0  503    0 -0.00000000000E+00  0.00000000000E+00  0.12318983006E+04  0.12318983006E+04  0.00000000000E+00 0. -1.
         21   -1    0    0  501  502  0.00000000000E+00 -0.00000000000E+00 -0.79952603482E+02  0.79952603482E+02  0.00000000000E+00 0. -1.
         25    1    1    2    0    0 -0.74176030661E+02  0.27440941086E+03  0.53059111689E+03  0.61478007581E+03  0.12500000000E+03 0.  0.
         21    1    1    2  503  502  0.89921065847E+02 -0.22933201528E+03  0.39331369097E+03  0.46408472375E+03  0.00000000000E+00 0. -1.
          2    1    1    2  501    0 -0.15745035186E+02 -0.45077395583E+02  0.22804088927E+03  0.23298610453E+03  0.00000000000E+00 0. -1.
<mgrwt>
<rscale>  4 0.55708990E+03</rscale>
<asrwt>0</asrwt>
<pdfrwt beam="1">  1       21 0.12300401E-01 0.55708990E+03</pdfrwt>
<pdfrwt beam="2">  1        2 0.18952280E+00 0.55708990E+03</pdfrwt>
<totfact> 0.12869741E+04</totfact>
</mgrwt>
</event>
<event>
 5    0  0.2396052E+000  0.5427066E+03  0.7546771E-02  0.1003196E+00
         21   -1    0    0  501  502  0.00000000000E+00  0.00000000000E+00  0.22256035043E+03  0.22256035043E+03  0.00000000000E+00 0. -1.
          2   -1    0    0  503    0 -0.00000000000E+00 -0.00000000000E+00 -0.16425061576E+04  0.16425061576E+04  0.00000000000E+00 0. -1.
         25    1    1    2    0    0  0.33531525877E+03 -0.19487750097E+03 -0.56900945253E+02  0.41143198796E+03  0.12500000000E+03 0.  0.
         21    1    1    2  503  502 -0.72242653499E+01 -0.75903021884E+02 -0.15207598183E+03  0.17011926108E+03  0.00000000000E+00 0.  1.
          2    1    1    2  501    0 -0.32809099342E+03  0.27078052285E+03 -0.12109688801E+04  0.12835152590E+04  0.00000000000E+00 0. -1.
<mgrwt>
<rscale>  4 0.54270664E+03</rscale>
<asrwt>0</asrwt>
<pdfrwt beam="1">  1       21 0.34240053E-01 0.54270664E+03</pdfrwt>
<pdfrwt beam="2">  1        2 0.25269326E+00 0.54270664E+03</pdfrwt>
<totfact> 0.10660430E+03</totfact>
</mgrwt>
</event>
<event>
 5    0  0.2396052E+000  0.5004380E+03  0.7546771E-02  0.1013665E+00
          3   -1    0    0  503    0 -0.00000000000E+00  0.00000000000E+00  0.60123336811E+02  0.60123336811E+02  0.00000000000E+00 0. -1.
         21   -1    0    0  501  502  0.00000000000E+00 -0.00000000000E+00 -0.18104717282E+04  0.18104717282E+04  0.00000000000E+00 0.  1.
         25    1    1    2    0    0 -0.22704785784E+03  0.12416992862E+03 -0.94419093222E+03  0.98696019039E+03  0.12500000000E+03 0.  0.
         21    1    1    2  503  502  0.16852418884E+03 -0.12868000411E+03 -0.79638636686E+03  0.82412996002E+03  0.00000000000E+00 0.  1.
          3    1    1    2  501    0  0.58523668995E+02  0.45100754892E+01 -0.97710922738E+01  0.59504914568E+02  0.00000000000E+00 0. -1.
<mgrwt>
<rscale>  4 0.50043801E+03</rscale>
<asrwt>0</asrwt>
<pdfrwt beam="1">  1       21 0.27853416E+00 0.50043801E+03</pdfrwt>
<pdfrwt beam="2">  1        3 0.92497426E-02 0.50043801E+03</pdfrwt>
<totfact> 0.16448481E+02</totfact>
</mgrwt>
</event>
<event>
 5    0  0.2396052E+000  0.8658431E+03  0.7546771E-02  0.9469316E-01
          1   -1    0    0  503    0 -0.00000000000E+00  0.00000000000E+00  0.74771671095E+03  0.74771671095E+03  0.00000000000E+00 0.  1.
         21   -1    0    0  501  502  0.00000000000E+00 -0.00000000000E+00 -0.10921220811E+04  0.10921220811E+04  0.00000000000E+00 0.  1.
         25    1    1    2    0    0 -0.21419088072E+03  0.89843252202E+02 -0.52223255902E+01  0.26382156097E+03  0.12500000000E+03 0.  0.
         21    1    1    2  503  502 -0.15203574239E+03  0.56694850528E+03  0.23254293366E+03  0.63136494248E+03  0.00000000000E+00 0.  1.
          1    1    1    2  501    0  0.36622662311E+03 -0.65679175748E+03 -0.57172597819E+03  0.94465228857E+03  0.00000000000E+00 0.  1.
<mgrwt>
<rscale>  4 0.86584307E+03</rscale>
<asrwt>0</asrwt>
<pdfrwt beam="1">  1       21 0.16801878E+00 0.86584307E+03</pdfrwt>
<pdfrwt beam="2">  1        1 0.11503334E+00 0.86584307E+03</pdfrwt>
<totfact> 0.47515377E+01</totfact>
</mgrwt>
</event>
<event>
 5    0  0.2396052E+000  0.3916116E+03  0.7546771E-02  0.1046724E+00
         21   -1    0    0  501  502  0.00000000000E+00  0.00000000000E+00  0.18055090268E+03  0.18055090268E+03  0.00000000000E+00 0.  1.
         -2   -1    0    0    0  501 -0.00000000000E+00 -0.00000000000E+00 -0.55217513677E+03  0.55217513677E+03  0.00000000000E+00 0.  1.
         25    1    1    2    0    0  0.16133571413E+03  0.17535394865E+03 -0.70716110063E+01  0.26917137226E+03  0.12500000000E+03 0.  0.
         21    1    1    2  503  502  0.78151048696E+01 -0.27058291818E+02 -0.15023721913E+03  0.15285433926E+03  0.00000000000E+00 0. -1.
         -2    1    1    2    0  503 -0.16915081900E+03 -0.14829565684E+03 -0.21431540395E+03  0.31070032793E+03  0.00000000000E+00 0.  1.
<mgrwt>
<rscale>  4 0.39161158E+03</rscale>
<asrwt>0</asrwt>
<pdfrwt beam="1">  1       21 0.27777062E-01 0.39161158E+03</pdfrwt>
<pdfrwt beam="2">  1       -2 0.84950020E-01 0.39161158E+03</pdfrwt>
<totfact> 0.12090410E+03</totfact>
</mgrwt>
</event>
<event>
 5    0  0.2396052E+000  0.4650232E+03  0.7546771E-02  0.1023334E+00
          2   -1    0    0  503    0 -0.00000000000E+00  0.00000000000E+00  0.29805422506E+04  0.29805422506E+04  0.00000000000E+00 0.  1.
         21   -1    0    0  501  502  0.00000000000E+00 -0.00000000000E+00 -0.10228569580E+03  0.10228569580E+03  0.00000000000E+00 0. -1.
         25    1    1    2    0    0 -0.29062717397E+03 -0.46114131335E+02  0.23942638890E+03  0.39942541614E+03  0.12500000000E+03 0.  0.
         21    1    1    2  503  502  0.12213626121E+03  0.49871990570E+02  0.20523883410E+03  0.24398250095E+03  0.00000000000E+00 0. -1.
          2    1    1    2  501    0  0.16849091276E+03 -0.37578592342E+01  0.24335913318E+04  0.24394200293E+04  0.00000000000E+00 0.  1.
<mgrwt>
<rscale>  4 0.46502321E+03</rscale>
<asrwt>0</asrwt>
<pdfrwt beam="1">  1       21 0.15736263E-01 0.46502321E+03</pdfrwt>
<pdfrwt beam="2">  1        2 0.45854490E+00 0.46502321E+03</pdfrwt>
<totfact> 0.88521970E+02</totfact>
</mgrwt>
</event>
<event>
 5    0  0.2396052E+000  0.4587112E+03  0.7546771E-02  0.1025156E+00
          2   -1    0    0  503    0 -0.00000000000E+00  0.00000000000E+00  0.19980652778E+04  0.19980652778E+04  0.00000000000E+00 0.  1.
         21   -1    0    0  501  502  0.00000000000E+00 -0.00000000000E+00 -0.84007269907E+02  0.84007269907E+02  0.00000000000E+00 0. -1.
         25    1    1    2    0    0 -0.23449270470E+03  0.99582491384E+02  0.31319551350E+03  0.42263451211E+03  0.12500000000E+03 0.  0.
         21    1    1    2  503  502 -0.65581714751E+01 -0.15787255453E+03  0.34694955353E+03  0.38123581388E+03  0.00000000000E+00 0.  1.
          2    1    1    2  501    0  0.24105087617E+03  0.58290063145E+02  0.12539129409E+04  0.12782022217E+04  0.00000000000E+00 0.  1.
<mgrwt>
<rscale>  4 0.45871123E+03</rscale>
<asrwt>0</asrwt>
<pdfrwt beam="1">  1       21 0.12924197E-01 0.45871123E+03</pdfrwt>
<pdfrwt beam="2">  1        2 0.30739462E+00 0.45871123E+03</pdfrwt>
<totfact> 0.45428121E+03</totfact>
</mgrwt>
</event>
<event>
 5    0  0.2396052E+000  0.5065370E+03  0.7546771E-02  0.1012087E+00
          2   -1    0    0  503    0 -0.00000000000E+00  0.00000000000E+00  0.28932057057E+04  0.28932057057E+04  0.00000000000E+00 0.  1.
         21   -1    0    0  501  502  0.00000000000E+00 -0.00000000000E+00 -0.56148310614E+02  0.56148310614E+02  0.00000000000E+00 0.  1.
         25    1    1    2    0    0 -0.19006512908E+03  0.14616565997E+03  0.52961227114E+03  0.59464553407E+03  0.12500000000E+03 0.  0.
         21    1    1    2  503  502  0.20501491695E+03 -0.11289098339E+03  0.56073739664E+03  0.60761987977E+03  0.00000000000E+00 0.  1.
          2    1    1    2  501    0 -0.14949787864E+02 -0.33274676582E+02  0.17467077273E+04  0.17470886025E+04  0.00000000000E+00 0.  1.
<mgrwt>
<rscale>  4 0.50653699E+03</rscale>
<asrwt>0</asrwt>
<pdfrwt beam="1">  1       21 0.86382039E-02 0.50653699E+03</pdfrwt>
<pdfrwt beam="2">  1        2 0.44510845E+00 0.50653699E+03</pdfrwt>
<totfact> 0.29432036E+03</totfact>
</mgrwt>
</event>
<event>
 5    0  0.2396052E+000  0.3579949E+03  0.7546771E-02  0.1059381E+00
         -2   -1    0    0    0  501 -0.00000000000E+00  0.00000000000E+00  0.33521725099E+03  0.33521725099E+03  0.00000000000E+00 0. -1.
         21   -1    0    0  501  502  0.00000000000E+00 -0.00000000000E+00 -0.45957567257E+03  0.45957567257E+03  0.00000000000E+00 0. -1.
         25    1    1    2    0    0  0.22316226636E+03  0.59020233346E+02 -0.21058158860E+03  0.33653289665E+03  0.12500000000E+03 0.  0.
         21    1    1    2  503  502 -0.81778205492E+02 -0.49833439911E+01 -0.15393735341E+03  0.17438238840E+03  0.00000000000E+00 0. -1.
         -2    1    1    2    0  503 -0.14138406087E+03 -0.54036889355E+02  0.24016052042E+03  0.28387763851E+03  0.00000000000E+00 0. -1.
<mgrwt>
<rscale>  4 0.35799493E+03</rscale>
<asrwt>0</asrwt>
<pdfrwt beam="1">  1       21 0.70703950E-01 0.35799493E+03</pdfrwt>
<pdfrwt beam="2">  1       -2 0.51571885E-01 0.35799493E+03</pdfrwt>
<totfact> 0.50222792E+02</totfact>
</mgrwt>
</event>
<event>
 5    0  0.2396052E+000  0.5214479E+03  0.7546771E-02  0.1008328E+00
          2   -1    0    0  503    0 -0.00000000000E+00  0.00000000000E+00  0.29662700674E+04  0.29662700674E+04  0.00000000000E+00 0. -1.
         21   -1    0    0  501  502  0.00000000000E+00 -0.00000000000E+00 -0.17777742891E+03  0.17777742891E+03  0.00000000000E+00 0. -1.
         25    1    1    2    0    0  0.21053080266E+01 -0.20008229334E+03 -0.85459375033E+02  0.25092959413E+03  0.12500000000E+03 0.  0.
         21    1    1    2  503  502  0.34077632420E+02  0.94714473905E+02  0.29385833667E+03  0.31062008729E+03  0.00000000000E+00 0.  1.
          2    1    1    2  501    0 -0.36182940447E+02  0.10536781944E+03  0.25800936769E+04  0.25824978149E+04  0.00000000000E+00 0. -1.
<mgrwt>
<rscale>  4 0.52144790E+03</rscale>
<asrwt>0</asrwt>
<pdfrwt beam="1">  1       21 0.27350376E-01 0.52144790E+03</pdfrwt>
<pdfrwt beam="2">  1        2 0.45634921E+00 0.52144790E+03</pdfrwt>
<totfact> 0.30765019E+02</totfact>
</mgrwt>
</event>
<event>
 5    0  0.2396052E+000  0.7162783E+03  0.7546771E-02  0.9689792E-01
         21   -1    0    0  501  502  0.00000000000E+00  0.00000000000E+00  0.45476503877E+03  0.45476503877E+03  0.00000000000E+00 0. -1.
          1   -1    0    0  503    0 -0.00000000000E+00 -0.00000000000E+00 -0.10932385464E+04  0.10932385464E+04  0.00000000000E+00 0. -1.
         25    1    1    2    0    0  0.48077000188E+03  0.61495430867E+02 -0.48774405647E+02  0.50291691697E+03  0.12500000000E+03 0.  0.
         21    1    1    2  503  502  0.39484106666E+02  0.21160015317E+03 -0.37598629422E+01  0.21528528995E+03  0.00000000000E+00 0.  1.
          1    1    1    2  501    0 -0.52025410855E+03 -0.27309558404E+03 -0.58593923903E+03  0.82980137823E+03  0.00000000000E+00 0. -1.
<mgrwt>
<rscale>  4 0.71627827E+03</rscale>
<asrwt>0</asrwt>
<pdfrwt beam="1">  1       21 0.69963853E-01 0.71627827E+03</pdfrwt>
<pdfrwt beam="2">  1        1 0.16819054E+00 0.71627827E+03</pdfrwt>
<totfact> 0.23622439E+02</totfact>
</mgrwt>
</event>
<event>
 5    0  0.2396052E+000  0.3343997E+03  0.7546771E-02  0.1069207E+00
         21   -1    0    0  501  502  0.00000000000E+00  0.00000000000E+00  0.30032437382E+03  0.30032437382E+03  0.00000000000E+00 0.  1.
         -3   -1    0    0    0  501 -0.00000000000E+00 -0.00000000000E+00 -0.55120534526E+03  0.55120534526E+03  0.00000000000E+00 0.  1.
         25    1    1    2    0    0 -0.18317886255E+03 -0.98336463336E+02  0.15423343118E+03  0.28746740163E+03  0.12500000000E+03 0.  0.
         21    1    1    2  503  502 -0.58370070643E+02  0.60084311811E+02  0.78290986147E+01  0.84133729609E+02  0.00000000000E+00 0. -1.
         -3    1    1    2    0  503  0.24154893320E+03  0.38252151525E+02 -0.41294350122E+03  0.47992858784E+03  0.00000000000E+00 0.  1.
<mgrwt>
<rscale>  4 0.33439967E+03</rscale>
<asrwt>0</asrwt>
<pdfrwt beam="1">  1       21 0.46203750E-01 0.33439967E+03</pdfrwt>
<pdfrwt beam="2">  1       -3 0.84800821E-01 0.33439967E+03</pdfrwt>
<totfact> 0.28269848E+02</totfact>
</mgrwt>
</event>
<event>
 5    0  0.2396052E+000  0.6666199E+03  0.7546771E-02  0.9776083E-01
         -3   -1    0    0    0  501 -0.00000000000E+00  0.00000000000E+00  0.49610793049E+03  0.49610793049E+03  0.00000000000E+00 0. -1.
         21   -1    0    0  501  502  0.00000000000E+00 -0.00000000000E+00 -0.29914186276E+03  0.29914186276E+03  0.00000000000E+00 0. -1.
         25    1    1    2    0    0 -0.21123490788E+03  0.10418559615E+03  0.23087245881E+03  0.35270655932E+03  0.12500000000E+03 0.  0.
         21    1    1    2  503  502  0.24277623388E+03 -0.15091485296E+03 -0.14308312376E+03  0.31966916161E+03  0.00000000000E+00 0. -1.
         -3    1    1    2    0  503 -0.31541326006E+02  0.46729256815E+02  0.10917673268E+03  0.12287407232E+03  0.00000000000E+00 0. -1.
<mgrwt>
<rscale>  4 0.66661994E+03</rscale>
<asrwt>0</asrwt>
<pdfrwt beam="1">  1       21 0.46021825E-01 0.66661994E+03</pdfrwt>
<pdfrwt beam="2">  1       -3 0.76324297E-01 0.66661994E+03</pdfrwt>
<totfact> 0.34686600E+02</totfact>
</mgrwt>
</event>
<event>
 5    0  0.2396052E+000  0.5819061E+03  0.7546771E-02  0.9943673E-01
         21   -1    0    0  501  502  0.00000000000E+00  0.00000000000E+00  0.10492883816E+03  0.10492883816E+03  0.00000000000E+00 0. -1.
          1   -1    0    0  503    0 -0.00000000000E+00 -0.00000000000E+00 -0.16739650781E+04  0.16739650781E+04  0.00000000000E+00 0. -1.
         25    1    1    2    0    0  0.12699247372E+03  0.26412685750E+03 -0.35650808504E+03  0.47813502270E+03  0.12500000000E+03 0.  0.
         21    1    1    2  503  502 -0.10199806463E+03 -0.24135249513E+03 -0.34821584668E+03  0.43578539210E+03  0.00000000000E+00 0. -1.
          1    1    1    2  501    0 -0.24994409087E+02 -0.22774362368E+02 -0.86431230827E+03  0.86497350150E+03  0.00000000000E+00 0. -1.
<mgrwt>
<rscale>  4 0.58190610E+03</rscale>
<asrwt>0</asrwt>
<pdfrwt beam="1">  1       21 0.16142900E-01 0.58190610E+03</pdfrwt>
<pdfrwt beam="2">  1        1 0.25753306E+00 0.58190610E+03</pdfrwt>
<totfact> 0.19084641E+03</totfact>
</mgrwt>
</event>
<event>
 5    0  0.2396052E+000  0.5894822E+03  0.7546771E-02  0.9927471E-01
         21   -1    0    0  501  502  0.00000000000E+00  0.00000000000E+00  0.63313806050E+03  0.63313806050E+03  0.00000000000E+00 0. -1.
         -2   -1    0    0    0  501 -0.00000000000E+00 -0.00000000000E+00 -0.33116298428E+03  0.33116298428E+03  0.00000000000E+00 0. -1.
         25    1    1    2    0    0 -0.39658813675E+02 -0.24162473670E+03  0.30516474259E+03  0.41073818304E+03  0.12500000000E+03 0.  0.
         21    1    1    2  503  502 -0.88332384637E+02  0.28704299522E+03  0.16077758350E+03  0.34065484385E+03  0.00000000000E+00 0. -1.
         -2    1    1    2    0  503  0.12799119831E+03 -0.45418258524E+02 -0.16396724987E+03  0.21290801789E+03  0.00000000000E+00 0. -1.
<mgrwt>
<rscale>  4 0.58948217E+03</rscale>
<asrwt>0</asrwt>
<pdfrwt beam="1">  1       21 0.97405855E-01 0.58948217E+03</pdfrwt>
<pdfrwt beam="2">  1       -2 0.50948152E-01 0.58948217E+03</pdfrwt>
<totfact> 0.23229112E+02</totfact>
</mgrwt>
</event>
<event>
 5    0  0.2396052E+000  0.6427322E+03  0.7546771E-02  0.9820513E-01
         21   -1    0    0  501  502  0.00000000000E+00  0.00000000000E+00  0.14851750530E+04  0.14851750530E+04  0.00000000000E+00 0. -1.
          1   -1    0    0  503    0 -0.00000000000E+00 -0.00000000000E+00 -0.12648909802E+03  0.12648909802E+03  0.00000000000E+00 0. -1.
         25    1    1    2    0    0 -0.17885883778E+03 -0.23503772177E+03  0.77840609764E+03  0.84188732462E+03  0.12500000000E+03 0.  0.
         21    1    1    2  503  502  0.19695929860E+03  0.25139378216E+03  0.63448992448E+03  0.71033039023E+03  0.00000000000E+00 0. -1.
          1    1    1    2  501    0 -0.18100460815E+02 -0.16356060393E+02 -0.54210067148E+02  0.59446436171E+02  0.00000000000E+00 0. -1.
<mgrwt>
<rscale>  4 0.64273219E+03</rscale>
<asrwt>0</asrwt>
<pdfrwt beam="1">  1       21 0.22848846E+00 0.64273219E+03</pdfrwt>
<pdfrwt beam="2">  1        1 0.19459862E-01 0.64273219E+03</pdfrwt>
<totfact> 0.20883431E+02</totfact>
</mgrwt>
</event>
<event>
 5    0  0.2396052E+000  0.4448966E+03  0.7546771E-02  0.1029255E+00
         21   -1    0    0  501  502  0.00000000000E+00  0.00000000000E+00  0.13272094539E+04  0.13272094539E+04  0.00000000000E+00 0. -1.
          3   -1    0    0  503    0 -0.00000000000E+00 -0.00000000000E+00 -0.15669920433E+03  0.15669920433E+03  0.00000000000E+00 0.  1.
         25    1    1    2    0    0  0.24783909841E+03  0.16382781200E+03  0.73757531840E+03  0.80492615872E+03  0.12500000000E+03 0.  0.
         21    1    1    2  503  502  0.10013389815E+03  0.47144645148E+02  0.13539448572E+03  0.17487447466E+03  0.00000000000E+00 0. -1.
          3    1    1    2  501    0 -0.34797299657E+03 -0.21097245715E+03  0.29754044542E+03  0.50410802481E+03  0.00000000000E+00 0.  1.
<mgrwt>
<rscale>  4 0.44489662E+03</rscale>
<asrwt>0</asrwt>
<pdfrwt beam="1">  1       21 0.20418606E+00 0.44489662E+03</pdfrwt>
<pdfrwt beam="2">  1        3 0.24107571E-01 0.44489662E+03</pdfrwt>
<totfact> 0.90560061E+01</totfact>
</mgrwt>
</event>
<event>
 5    0  0.2396052E+000  0.4576999E+03  0.7546771E-02  0.1025450E+00
          2   -1    0    0  503    0 -0.00000000000E+00  0.00000000000E+00  0.59339487286E+03  0.59339487286E+03  0.00000000000E+00 0. -1.
         21   -1    0    0  501  502  0.00000000000E+00 -0.00000000000E+00 -0.90308042265E+03  0.90308042265E+03  0.00000000000E+00 0. -1.
         25    1    1    2    0    0 -0.11100724769E+02 -0.21896317957E+03 -0.69564254743E+03  0.74000787421E+03  0.12500000000E+03 0.  0.
         21    1    1    2  503  502 -0.60906008624E+01  0.16230185795E+03 -0.14770215589E+03  0.21953340376E+03  0.00000000000E+00 0.  1.
          2    1    1    2  501    0  0.17191325631E+02  0.56661321620E+02  0.53365915352E+03  0.53693401753E+03  0.00000000000E+00 0. -1.
<mgrwt>
<rscale>  4 0.45769987E+03</rscale>
<asrwt>0</asrwt>
<pdfrwt beam="1">  1       21 0.13893545E+00 0.45769987E+03</pdfrwt>
<pdfrwt beam="2">  1        2 0.91291520E-01 0.45769987E+03</pdfrwt>
<totfact> 0.20562445E+02</totfact>
</mgrwt>
</event>
<event>
 5    0  0.2396052E+000  0.8423951E+03  0.7546771E-02  0.9500601E-01
          1   -1    0    0  503    0 -0.00000000000E+00  0.00000000000E+00  0.21940928548E+04  0.21940928548E+04  0.00000000000E+00 0. -1.
         21   -1    0    0  501  502  0.00000000000E+00 -0.00000000000E+00 -0.13219655098E+03  0.13219655098E+03  0.00000000000E+00 0.  1.
         25    1    1    2    0    0  0.40286460747E+03  0.16201811131E+03  0.51656462901E+03  0.68630443412E+03  0.12500000000E+03 0.  0.
         21    1    1    2  503  502 -0.22989535828E+03 -0.25829064821E+03  0.86867147842E+03  0.93496313945E+03  0.00000000000E+00 0. -1.
          1    1    1    2  501    0 -0.17296924920E+03  0.96272536903E+02  0.67666019634E+03  0.70502183218E+03  0.00000000000E+00 0. -1.
<mgrwt>
<rscale>  4 0.84239508E+03</rscale>
<asrwt>0</asrwt>
<pdfrwt beam="1">  1       21 0.20337932E-01 0.84239508E+03</pdfrwt>
<pdfrwt beam="2">  1        1 0.33755272E+00 0.84239508E+03</pdfrwt>
<totfact> 0.52834635E+02</totfact>
</mgrwt>
</event>
<event>
 5    0  0.2396052E+000  0.4393307E+03  0.7546771E-02  0.1030952E+00
          2   -1    0    0  503    0 -0.00000000000E+00  0.00000000000E+00  0.26056489426E+04  0.26056489426E+04  0.00000000000E+00 0.  1.
         21   -1    0    0  501  502  0.00000000000E+00 -0.00000000000E+00 -0.46020007470E+02  0.46020007470E+02  0.00000000000E+00 0.  1.
         25    1    1    2    0    0 -0.41823674172E+02 -0.19961946502E+03  0.87274876574E+03  0.90493787557E+03  0.12500000000E+03 0.  0.
         21    1    1    2  503  502  0.16393446818E+01  0.14385493917E+03  0.14829578110E+03  0.20661212372E+03  0.00000000000E+00 0.  1.
          2    1    1    2  501    0  0.40184329490E+02  0.55764525846E+02  0.15385843883E+04  0.15401189508E+04  0.00000000000E+00 0.  1.
<mgrwt>
<rscale>  4 0.43933067E+03</rscale>
<asrwt>0</asrwt>
<pdfrwt beam="1">  1       21 0.70800032E-02 0.43933067E+03</pdfrwt>
<pdfrwt beam="2">  1        2 0.40086895E+00 0.43933067E+03</pdfrwt>
<totfact> 0.62423586E+03</totfact>
</mgrwt>
</event>
<event>
 5    0  0.2396052E+000  0.5792573E+03  0.7546771E-02  0.9949400E-01
         -2   -1    0    0    0  501 -0.00000000000E+00  0.00000000000E+00  0.28321800550E+04  0.28321800550E+04  0.00000000000E+00 0. -1.
         21   -1    0    0  501  502  0.00000000000E+00 -0.00000000000E+00 -0.36710601429E+02  0.36710601429E+02  0.00000000000E+00 0.  1.
         25    1    1    2    0    0 -0.11193578526E+02 -0.23206603800E+03  0.18898064732E+04  0.19081334986E+04  0.12500000000E+03 0.  0.
         21    1    1    2  503  502  0.11176964001E+02  0.20911056766E+03  0.37428774353E+03  0.42888631243E+03  0.00000000000E+00 0.  1.
         -2    1    1    2    0  503  0.16614525138E-01  0.22955470338E+02  0.53137523679E+03  0.53187084538E+03  0.00000000000E+00 0. -1.
<mgrwt>
<rscale>  4 0.57925726E+03</rscale>
<asrwt>0</asrwt>
<pdfrwt beam="1">  1       21 0.56477870E-02 0.57925726E+03</pdfrwt>
<pdfrwt beam="2">  1       -2 0.43571984E+00 0.57925726E+03</pdfrwt>
<totfact> 0.86616174E+01</totfact>
</mgrwt>
</event>
<event>
 5    0  0.2396052E+000  0.3205095E+03  0.7546771E-02  0.1075415E+00
         21   -1    0    0  501  502  0.00000000000E+00  0.00000000000E+00  0.34065115355E+02  0.34065115355E+02  0.00000000000E+00 0. -1.
          3   -1    0    0  503    0 -0.00000000000E+00 -0.00000000000E+00 -0.16551356652E+04  0.16551356652E+04  0.00000000000E+00 0. -1.
         25    1    1    2    0    0 -0.14557522391E+03  0.14843617403E+03 -0.10719490452E+04  0.10990565040E+04  0.12500000000E+03 0.  0.
         21    1    1    2  503  502  0.29949322797E+02 -0.48947879310E+02 -0.93892228774E+02  0.11003911781E+03  0.00000000000E+00 0.  1.
          3    1    1    2  501    0  0.11562590112E+03 -0.99488294721E+02 -0.45522927587E+03  0.48010515870E+03  0.00000000000E+00 0. -1.
<mgrwt>
<rscale>  4 0.32050951E+03</rscale>
<asrwt>0</asrwt>
<pdfrwt beam="1">  1       21 0.52407881E-02 0.32050951E+03</pdfrwt>
<pdfrwt beam="2">  1        3 0.25463620E+00 0.32050951E+03</pdfrwt>
<totfact> 0.95229409E+02</totfact>
</mgrwt>
</event>
<event>
 5    0  0.2396052E+000  0.4495851E+03  0.7546771E-02  0.1027846E+00
          2   -1    0    0  503    0 -0.00000000000E+00  0.00000000000E+00  0.10358577940E+04  0.10358577940E+04  0.00000000000E+00 0.  1.
         21   -1    0    0  501  502  0.00000000000E+00 -0.00000000000E+00 -0.17860440973E+03  0.17860440973E+03  0.00000000000E+00 0. -1.
         25    1    1    2    0    0 -0.15957344280E+03 -0.21420677726E+03  0.12177151172E+01  0.29491475023E+03  0.12500000000E+03 0.  0.
         21    1    1    2  503  502  0.40065587022E+02  0.11079909110E+03  0.12560430914E+03  0.17221536611E+03  0.00000000000E+00 0.  1.
          2    1    1    2  501    0  0.11950785577E+03  0.10340768616E+03  0.73043136003E+03  0.74733208741E+03  0.00000000000E+00 0.  1.
<mgrwt>
<rscale>  4 0.44958505E+03</rscale>
<asrwt>0</asrwt>
<pdfrwt beam="1">  1       21 0.27477602E-01 0.44958505E+03</pdfrwt>
<pdfrwt beam="2">  1        2 0.15936273E+00 0.44958505E+03</pdfrwt>
<totfact> 0.37336936E+03</totfact>
</mgrwt>
</event>
<event>
 5    0  0.2396052E+000  0.5609946E+03  0.7546771E-02  0.9989807E-01
         -1   -1    0    0    0  501 -0.00000000000E+00  0.00000000000E+00  0.56485307187E+03  0.56485307187E+03  0.00000000000E+00 0.  1.
         21   -1    0    0  501  502  0.00000000000E+00 -0.00000000000E+00 -0.25255213192E+03  0.25255213192E+03  0.00000000000E+00 0.  1.
         25    1    1    2    0    0  0.25837472064E+02 -0.21816377632E+03  0.18151992582E+03  0.31118722939E+03  0.12500000000E+03 0.  0.
         21    1    1    2  503  502 -0.60259858171E+02  0.21471004381E+03 -0.11987688196E+03  0.25318396523E+03  0.00000000000E+00 0.  1.
         -1    1    1    2    0  503  0.34422386107E+02  0.34537325119E+01  0.25065789608E+03  0.25303400918E+03  0.00000000000E+00 0.  1.
<mgrwt>
<rscale>  4 0.56099463E+03</rscale>
<asrwt>0</asrwt>
<pdfrwt beam="1">  1       21 0.38854174E-01 0.56099463E+03</pdfrwt>
<pdfrwt beam="2">  1       -1 0.86900472E-01 0.56099463E+03</pdfrwt>
<totfact> 0.74631883E+02</totfact>
</mgrwt>
</event>
<event>
 5    0  0.2396052E+000  0.5275470E+03  0.7546771E-02  0.1006829E+00
          1   -1    0    0  503    0 -0.00000000000E+00  0.00000000000E+00  0.12400410358E+03  0.12400410358E+03  0.00000000000E+00 0.  1.
         21   -1    0    0  501  502  0.00000000000E+00 -0.00000000000E+00 -0.16048231090E+04  0.16048231090E+04  0.00000000000E+00 0. -1.
         25    1    1    2    0    0  0.18889754095E+01  0.21454410582E+03 -0.11882186557E+04  0.12138868627E+04  0.12500000000E+03 0.  0.
         21    1    1    2  503  502  0.24864995267E+02 -0.22020983592E+03 -0.37086698894E+03  0.43203352105E+03  0.00000000000E+00 0.  1.
          1    1    1    2  501    0 -0.26753970677E+02  0.56657300964E+01  0.78266639270E+02  0.82906828833E+02  0.00000000000E+00 0.  1.
<mgrwt>
<rscale>  4 0.52754702E+03</rscale>
<asrwt>0</asrwt>
<pdfrwt beam="1">  1       21 0.24689585E+00 0.52754702E+03</pdfrwt>
<pdfrwt beam="2">  1        1 0.19077556E-01 0.52754702E+03</pdfrwt>
<totfact> 0.16949928E+02</totfact>
</mgrwt>
</event>
<event>
 5    0  0.2396052E+000  0.1530302E+04  0.7546771E-02  0.8864549E-01
          2   -1    0    0  503    0 -0.00000000000E+00  0.00000000000E+00  0.14996483943E+04  0.14996483943E+04  0.00000000000E+00 0.  1.
         21   -1    0    0  501  502  0.00000000000E+00 -0.00000000000E+00 -0.55226154394E+03  0.55226154394E+03  0.00000000000E+00 0. -1.
         25    1    1    2    0    0  0.64909690371E+03  0.21015430449E+03  0.27362676051E+03  0.74564618029E+03  0.12500000000E+03 0.  0.
         21    1    1    2  503  502 -0.75158236261E+03 -0.36717442163E+03  0.30097192756E+03  0.88897536797E+03  0.00000000000E+00 0.  1.
          2    1    1    2  501    0  0.10248545889E+03  0.15702011713E+03  0.37278816229E+03  0.41728838998E+03  0.00000000000E+00 0.  1.
<mgrwt>
<rscale>  4 0.15303019E+04</rscale>
<asrwt>0</asrwt>
<pdfrwt beam="1">  1       21 0.84963315E-01 0.15303019E+04</pdfrwt>
<pdfrwt beam="2">  1        2 0.23071514E+00 0.15303019E+04</pdfrwt>
<totfact> 0.15138197E+02</totfact>
</mgrwt>
</event>
<event>
 5    0  0.2396052E+000  0.6273327E+03  0.7546771E-02  0.9850268E-01
         21   -1    0    0  501  502  0.00000000000E+00  0.00000000000E+00  0.46478034748E+03  0.46478034748E+03  0.00000000000E+00 0. -1.
          2   -1    0    0  503    0 -0.00000000000E+00 -0.00000000000E+00 -0.30161038112E+04  0.30161038112E+04  0.00000000000E+00 0.  1.
         25    1    1    2    0    0  0.17834329404E+03 -0.20288670786E+03  0.32632122919E+03  0.44167849322E+03  0.12500000000E+03 0.  0.
         21    1    1    2  503  502 -0.15115867903E+03  0.16376405094E+03 -0.73519467247E+02  0.23467578207E+03  0.00000000000E+00 0.  1.
          2    1    1    2  501    0 -0.27184615008E+02  0.39122656923E+02 -0.28041252257E+04  0.28045298834E+04  0.00000000000E+00 0.  1.
<mgrwt>
<rscale>  4 0.62733275E+03</rscale>
<asrwt>0</asrwt>
<pdfrwt beam="1">  1       21 0.71504669E-01 0.62733275E+03</pdfrwt>
<pdfrwt beam="2">  1        2 0.46401597E+00 0.62733275E+03</pdfrwt>
<totfact> 0.36537024E+01</totfact>
</mgrwt>
</event>
<event>
 5    0  0.2396052E+000  0.5716143E+03  0.7546771E-02  0.9966113E-01
          1   -1    0    0  503    0 -0.00000000000E+00  0.00000000000E+00  0.18984997983E+04  0.18984997983E+04  0.00000000000E+00 0.  1.
         21   -1    0    0  501  502  0.00000000000E+00 -0.00000000000E+00 -0.78949606399E+02  0.78949606399E+02  0.00000000000E+00 0.  1.
         25    1    1    2    0    0  0.26616616173E+03 -0.17053160643E+02  0.34157433016E+03  0.45103576239E+03  0.12500000000E+03 0.  0.
         21    1    1    2  503  502 -0.23262596791E+03 -0.66257564138E+02  0.64936570095E+03  0.69295073369E+03  0.00000000000E+00 0. -1.
          1    1    1    2  501    0 -0.33540193811E+02  0.83310724781E+02  0.82861016076E+03  0.83346290858E+03  0.00000000000E+00 0.  1.
<mgrwt>
<rscale>  4 0.57161434E+03</rscale>
<asrwt>0</asrwt>
<pdfrwt beam="1">  1       21 0.12146095E-01 0.57161434E+03</pdfrwt>
<pdfrwt beam="2">  1        1 0.29207686E+00 0.57161434E+03</pdfrwt>
<totfact> 0.22963140E+03</totfact>
</mgrwt>
</event>
<event>
 5    0  0.2396052E+000  0.4095362E+03  0.7546771E-02  0.1040527E+00
          2   -1    0    0  503    0 -0.00000000000E+00  0.00000000000E+00  0.11874215679E+03  0.11874215679E+03  0.00000000000E+00 0. -1.
         21   -1    0    0  501  502  0.00000000000E+00 -0.00000000000E+00 -0.74422354678E+03  0.74422354678E+03  0.00000000000E+00 0.  1.
         25    1    1    2    0    0 -0.14306631882E+03 -0.16116214412E+03 -0.54851194073E+03  0.60243801125E+03  0.12500000000E+03 0.  0.
         21    1    1    2  503  502  0.83940541421E+02  0.13078562948E+02 -0.36613595933E+01  0.85032163661E+02  0.00000000000E+00 0. -1.
          2    1    1    2  501    0  0.59125777397E+02  0.14808358118E+03 -0.73308089669E+02  0.17549552865E+03  0.00000000000E+00 0. -1.
<mgrwt>
<rscale>  4 0.40953619E+03</rscale>
<asrwt>0</asrwt>
<pdfrwt beam="1">  1       21 0.11449593E+00 0.40953619E+03</pdfrwt>
<pdfrwt beam="2">  1        2 0.18268024E-01 0.40953619E+03</pdfrwt>
<totfact> 0.20949607E+03</totfact>
</mgrwt>
</event>
<event>
 5    0  0.2396052E+000  0.5219110E+03  0.7546771E-02  0.1008213E+00
         21   -1    0    0  501  502  0.00000000000E+00  0.00000000000E+00  0.14980662432E+03  0.14980662432E+03  0.00000000000E+00 0. -1.
         -1   -1    0    0    0  501 -0.00000000000E+00 -0.00000000000E+00 -0.66783811743E+03  0.66783811743E+03  0.00000000000E+00 0. -1.
         25    1    1    2    0    0  0.20549492315E+03 -0.11705906974E+03 -0.40736638258E+03  0.48734316339E+03  0.12500000000E+03 0.  0.
         21    1    1    2  503  502 -0.99930701284E+02  0.13153967135E+03  0.14613158121E+02  0.16583839902E+03  0.00000000000E+00 0.  1.
         -1    1    1    2    0  503 -0.10556422186E+03 -0.14480601613E+02 -0.12527826866E+03  0.16446317934E+03  0.00000000000E+00 0. -1.
<mgrwt>
<rscale>  4 0.52191097E+03</rscale>
<asrwt>0</asrwt>
<pdfrwt beam="1">  1       21 0.23047173E-01 0.52191097E+03</pdfrwt>
<pdfrwt beam="2">  1       -1 0.10274433E+00 0.52191097E+03</pdfrwt>
<totfact> 0.14663979E+03</totfact>
</mgrwt>
</event>
<event>
 5    0  0.2396052E+000  0.4147218E+03  0.7546771E-02  0.1038798E+00
         21   -1    0    0  501  502  0.00000000000E+00  0.00000000000E+00  0.48553920380E+02  0.48553920380E+02  0.00000000000E+00 0.  1.
          1   -1    0    0  503    0 -0.00000000000E+00 -0.00000000000E+00 -0.18073723275E+04  0.18073723275E+04  0.00000000000E+00 0. -1.
         25    1    1    2    0    0  0.17461912422E+03  0.14600936754E+03 -0.67256192274E+03  0.72095430775E+03  0.12500000000E+03 0.  0.
         21    1    1    2  503  502 -0.11270866960E+03 -0.87390261806E+02 -0.20574538750E+03  0.25034269819E+03  0.00000000000E+00 0.  1.
          1    1    1    2  501    0 -0.61910454621E+02 -0.58619105732E+02 -0.88051109686E+03  0.88462924191E+03  0.00000000000E+00 0. -1.
<mgrwt>
<rscale>  4 0.41472177E+03</rscale>
<asrwt>0</asrwt>
<pdfrwt beam="1">  1       21 0.74698331E-02 0.41472177E+03</pdfrwt>
<pdfrwt beam="2">  1        1 0.27805731E+00 0.41472177E+03</pdfrwt>
<totfact> 0.65121286E+03</totfact>
</mgrwt>
</event>
<event>
 5    0  0.2396052E+000  0.3798101E+03  0.7546771E-02  0.1051004E+00
         21   -1    0    0  501  502  0.00000000000E+00  0.00000000000E+00  0.50334015033E+03  0.50334015033E+03  0.00000000000E+00 0.  1.
          2   -1    0    0  503    0 -0.00000000000E+00 -0.00000000000E+00 -0.17432510128E+03  0.17432510128E+03  0.00000000000E+00 0.  1.
         25    1    1    2    0    0  0.23210727152E+03  0.51584734843E+02  0.26670571151E+03  0.37853891070E+03  0.12500000000E+03 0.  0.
         21    1    1    2  503  502 -0.11018882274E+03  0.14619868863E+02  0.10608129665E+03  0.15365076870E+03  0.00000000000E+00 0.  1.
          2    1    1    2  501    0 -0.12191844878E+03 -0.66204603706E+02 -0.43771959115E+02  0.14547557221E+03  0.00000000000E+00 0.  1.
<mgrwt>
<rscale>  4 0.37981009E+03</rscale>
<asrwt>0</asrwt>
<pdfrwt beam="1">  1       21 0.77436946E-01 0.37981009E+03</pdfrwt>
<pdfrwt beam="2">  1        2 0.26819247E-01 0.37981009E+03</pdfrwt>
<totfact> 0.34477276E+03</totfact>
</mgrwt>
</event>
<event>
 5    0  0.2396052E+000  0.7327442E+03  0.7546771E-02  0.9662818E-01
          2   -1    0    0  503    0 -0.00000000000E+00  0.00000000000E+00  0.25159478907E+03  0.25159478907E+03  0.00000000000E+00 0.  1.
         21   -1    0    0  501  502  0.00000000000E+00 -0.00000000000E+00 -0.15609022493E+04  0.15609022493E+04  0.00000000000E+00 0. -1.
         25    1    1    2    0    0  0.10134205070E+03  0.18928941152E+03 -0.11619331271E+04  0.11881979147E+04  0.12500000000E+03 0.  0.
         21    1    1    2  503  502 -0.10408624744E+03 -0.31122290652E+03 -0.28908039968E+03  0.43733410790E+03  0.00000000000E+00 0.  1.
          2    1    1    2  501    0  0.27441967410E+01  0.12193349500E+03  0.14170606658E+03  0.18696501577E+03  0.00000000000E+00 0.  1.
<mgrwt>
<rscale>  4 0.73274423E+03</rscale>
<asrwt>0</asrwt>
<pdfrwt beam="1">  1       21 0.24013881E+00 0.73274423E+03</pdfrwt>
<pdfrwt beam="2">  1        2 0.38706891E-01 0.73274423E+03</pdfrwt>
<totfact> 0.97012972E+01</totfact>
</mgrwt>
</event>
<event>
 5    0  0.2396052E+000  0.4437079E+03  0.7546771E-02  0.1029615E+00
          2   -1    0    0  503    0 -0.00000000000E+00  0.00000000000E+00  0.22688954691E+04  0.22688954691E+04  0.00000000000E+00 0.  1.
         21   -1    0    0  501  502  0.00000000000E+00 -0.00000000000E+00 -0.57083600177E+02  0.57083600177E+02  0.00000000000E+00 0.  1.
         25    1    1    2    0    0 -0.13395308647E+03  0.21258874969E+03  0.51694140385E+03  0.58820984426E+03  0.12500000000E+03 0.  0.
         21    1    1    2  503  502  0.68452720404E+02 -0.14791431125E+03  0.31351117006E+03  0.35334639118E+03  0.00000000000E+00 0.  1.
          2    1    1    2  501    0  0.65500366066E+02 -0.64674438439E+02  0.13813592950E+04  0.13844228339E+04  0.00000000000E+00 0.  1.
<mgrwt>
<rscale>  4 0.44370786E+03</rscale>
<asrwt>0</asrwt>
<pdfrwt beam="1">  1       21 0.87820941E-02 0.44370786E+03</pdfrwt>
<pdfrwt beam="2">  1        2 0.34906077E+00 0.44370786E+03</pdfrwt>
<totfact> 0.65433474E+03</totfact>
</mgrwt>
</event>
<event>
 5    0  0.2396052E+000  0.4890837E+03  0.7546771E-02  0.1016668E+00
         21   -1    0    0  501  502  0.00000000000E+00  0.00000000000E+00  0.13598786956E+03  0.13598786956E+03  0.00000000000E+00 0.  1.
          2   -1    0    0  503    0 -0.00000000000E+00 -0.00000000000E+00 -0.71994137791E+03  0.71994137791E+03  0.00000000000E+00 0.  1.
         25    1    1    2    0    0 -0.14580684896E+03 -0.15080337954E+03 -0.53830335290E+02  0.25004799836E+03  0.12500000000E+03 0.  0.
         21    1    1    2  503  502  0.16302753233E+03  0.12867670046E+03 -0.25293836318E+03  0.32728196575E+03  0.00000000000E+00 0.  1.
          2    1    1    2  501    0 -0.17220683372E+02  0.22126679083E+02 -0.27718480987E+03  0.27859928336E+03  0.00000000000E+00 0.  1.
<mgrwt>
<rscale>  4 0.48908369E+03</rscale>
<asrwt>0</asrwt>
<pdfrwt beam="1">  1       21 0.20921211E-01 0.48908369E+03</pdfrwt>
<pdfrwt beam="2">  1        2 0.11076021E+00 0.48908369E+03</pdfrwt>
<totfact> 0.10300805E+04</totfact>
</mgrwt>
</event>
<event>
 5    0  0.2396052E+000  0.8926317E+03  0.7546771E-02  0.9434839E-01
         21   -1    0    0  501  502  0.00000000000E+00  0.00000000000E+00  0.66916388889E+03  0.66916388889E+03  0.00000000000E+00 0.  1.
         -2   -1    0    0    0  501 -0.00000000000E+00 -0.00000000000E+00 -0.47703579560E+03  0.47703579560E+03  0.00000000000E+00 0. -1.
         25    1    1    2    0    0  0.91815288346E+02 -0.28927942294E+03  0.54510007731E+03  0.63629531351E+03  0.12500000000E+03 0.  0.
         21    1    1    2  503  502 -0.64247327257E+02  0.27143759250E+03 -0.17579929862E+03  0.32971423851E+03  0.00000000000E+00 0. -1.
         -2    1    1    2    0  503 -0.27567961089E+02  0.17841830449E+02 -0.17717268539E+03  0.18019013248E+03  0.00000000000E+00 0. -1.
<mgrwt>
<rscale>  4 0.89263172E+03</rscale>
<asrwt>0</asrwt>
<pdfrwt beam="1">  1       21 0.10294829E+00 0.89263172E+03</pdfrwt>
<pdfrwt beam="2">  1       -2 0.73390122E-01 0.89263172E+03</pdfrwt>
<totfact> 0.89188831E+01</totfact>
</mgrwt>
</event>
<event>
 5    0  0.2396052E+000  0.4762493E+03  0.7546771E-02  0.1020171E+00
         21   -1    0    0  501  502  0.00000000000E+00  0.00000000000E+00  0.20544511404E+03  0.20544511404E+03  0.00000000000E+00 0. -1.
          1   -1    0    0  503    0 -0.00000000000E+00 -0.00000000000E+00 -0.13583544151E+04  0.13583544151E+04  0.00000000000E+00 0. -1.
         25    1    1    2    0    0  0.21215062646E+03  0.50012800264E+02 -0.14588943873E+03  0.29054758101E+03  0.12500000000E+03 0.  0.
         21    1    1    2  503  502 -0.15357867589E+03  0.10019965256E+03  0.60905287673E+02  0.19322482793E+03  0.00000000000E+00 0. -1.
          1    1    1    2  501    0 -0.58571950570E+02 -0.15021245282E+03 -0.10679251500E+04  0.10800271202E+04  0.00000000000E+00 0. -1.
<mgrwt>
<rscale>  4 0.47624934E+03</rscale>
<asrwt>0</asrwt>
<pdfrwt beam="1">  1       21 0.31606941E-01 0.47624934E+03</pdfrwt>
<pdfrwt beam="2">  1        1 0.20897760E+00 0.47624934E+03</pdfrwt>
<totfact> 0.87063930E+02</totfact>
</mgrwt>
</event>
<event>
 5    0  0.2396052E+000  0.4577648E+03  0.7546771E-02  0.1025431E+00
          2   -1    0    0  503    0 -0.00000000000E+00  0.00000000000E+00  0.71634216988E+03  0.71634216988E+03  0.00000000000E+00 0.  1.
         21   -1    0    0  501  502  0.00000000000E+00 -0.00000000000E+00 -0.23831192074E+03  0.23831192074E+03  0.00000000000E+00 0.  1.
         25    1    1    2    0    0 -0.18188065217E+03  0.94463536081E+02  0.71075824028E+02  0.25036114723E+03  0.12500000000E+03 0.  0.
         21    1    1    2  503  502  0.17883855016E+03 -0.58099292552E+02 -0.88269484547E+02  0.20772639871E+03  0.00000000000E+00 0.  1.
          2    1    1    2  501    0  0.30421020079E+01 -0.36364243529E+02  0.49522390966E+03  0.49656654468E+03  0.00000000000E+00 0.  1.
<mgrwt>
<rscale>  4 0.45776476E+03</rscale>
<asrwt>0</asrwt>
<pdfrwt beam="1">  1       21 0.36663373E-01 0.45776476E+03</pdfrwt>
<pdfrwt beam="2">  1        2 0.11020649E+00 0.45776476E+03</pdfrwt>
<totfact> 0.34439991E+03</totfact>
</mgrwt>
</event>
<event>
 5    0  0.2396052E+000  0.9290717E+03  0.7546771E-02  0.9389953E-01
         21   -1    0    0  501  502  0.00000000000E+00  0.00000000000E+00  0.48875213986E+03  0.48875213986E+03  0.00000000000E+00 0.  1.
         -1   -1    0    0    0  501 -0.00000000000E+00 -0.00000000000E+00 -0.13293515171E+04  0.13293515171E+04  0.00000000000E+00 0.  1.
         25    1    1    2    0    0 -0.39538320144E+03 -0.20017674083E+03 -0.20022423614E+03  0.50210890083E+03  0.12500000000E+03 0.  0.
         21    1    1    2  503  502  0.33917847939E+03  0.10094442962E+03  0.24043475876E+03  0.42783255132E+03  0.00000000000E+00 0.  1.
         -1    1    1    2    0  503  0.56204722050E+02  0.99232311214E+02 -0.88080989990E+03  0.88816220485E+03  0.00000000000E+00 0.  1.
<mgrwt>
<rscale>  4 0.92907170E+03</rscale>
<asrwt>0</asrwt>
<pdfrwt beam="1">  1       21 0.75192638E-01 0.92907170E+03</pdfrwt>
<pdfrwt beam="2">  1       -1 0.20451561E+00 0.92907170E+03</pdfrwt>
<totfact> 0.18140897E+01</totfact>
</mgrwt>
</event>
<event>
 5    0  0.2396052E+000  0.4254123E+03  0.7546771E-02  0.1035319E+00
          1   -1    0    0  503    0 -0.00000000000E+00  0.00000000000E+00  0.68054824764E+03  0.68054824764E+03  0.00000000000E+00 0.  1.
         21   -1    0    0  501  502  0.00000000000E+00 -0.00000000000E+00 -0.17753196171E+03  0.17753196171E+03  0.00000000000E+00 0.  1.
         25    1    1    2    0    0 -0.17150934498E+03 -0.11503484024E+03  0.87769268203E+02  0.25685971721E+03  0.12500000000E+03 0.  0.
         21    1    1    2  503  502  0.15485058881E+03  0.82917654851E+02 -0.85698286664E+01  0.17586211731E+03  0.00000000000E+00 0.  1.
          1    1    1    2  501    0  0.16658756171E+02  0.32117185388E+02  0.42381684639E+03  0.42535837483E+03  0.00000000000E+00 0.  1.
<mgrwt>
<rscale>  4 0.42541231E+03</rscale>
<asrwt>0</asrwt>
<pdfrwt beam="1">  1       21 0.27312610E-01 0.42541231E+03</pdfrwt>
<pdfrwt beam="2">  1        1 0.10469973E+00 0.42541231E+03</pdfrwt>
<totfact> 0.39428100E+03</totfact>
</mgrwt>
</event>
<event>
 5    0  0.2396052E+000  0.6287952E+03  0.7546771E-02  0.9847403E-01
         21   -1    0    0  501  502  0.00000000000E+00  0.00000000000E+00  0.35431264582E+03  0.35431264582E+03  0.00000000000E+00 0.  1.
         -3   -1    0    0    0  501 -0.00000000000E+00 -0.00000000000E+00 -0.78720955565E+03  0.78720955565E+03  0.00000000000E+00 0.  1.
         25    1    1    2    0    0  0.19910416964E+02 -0.21250142316E+03  0.27364664620E+03  0.36886415728E+03  0.12500000000E+03 0.  0.
         21    1    1    2  503  502  0.38820734764E+02  0.16334617842E+03 -0.20351263069E+03  0.26383027556E+03  0.00000000000E+00 0.  1.
         -3    1    1    2    0  503 -0.58731151727E+02  0.49155244740E+02 -0.50303092534E+03  0.50882776862E+03  0.00000000000E+00 0.  1.
<mgrwt>
<rscale>  4 0.62879525E+03</rscale>
<asrwt>0</asrwt>
<pdfrwt beam="1">  1       21 0.54509638E-01 0.62879525E+03</pdfrwt>
<pdfrwt beam="2">  1       -3 0.12110916E+00 0.62879525E+03</pdfrwt>
<totfact> 0.82773036E+01</totfact>
</mgrwt>
</event>
<event>
 5    0  0.2396052E+000  0.8914517E+03  0.7546771E-02  0.9436331E-01
          1   -1    0    0  503    0 -0.00000000000E+00  0.00000000000E+00  0.27784786322E+04  0.27784786322E+04  0.00000000000E+00 0.  1.
         21   -1    0    0  501  502  0.00000000000E+00 -0.00000000000E+00 -0.15463881335E+03  0.15463881335E+03  0.00000000000E+00 0.  1.
         25    1    1    2    0    0  0.18518806250E+03 -0.32686252559E+03  0.49769436457E+03  0.63597044715E+03  0.12500000000E+03 0.  0.
         21    1    1    2  503  502 -0.44753118294E+03  0.20179185535E+03  0.79275827302E+03  0.93245364069E+03  0.00000000000E+00 0.  1.
          1    1    1    2  501    0  0.26234312045E+03  0.12507067024E+03  0.13333871812E+04  0.13646933577E+04  0.00000000000E+00 0.  1.
<mgrwt>
<rscale>  4 0.89145169E+03</rscale>
<asrwt>0</asrwt>
<pdfrwt beam="1">  1       21 0.23790589E-01 0.89145169E+03</pdfrwt>
<pdfrwt beam="2">  1        1 0.42745821E+00 0.89145169E+03</pdfrwt>
<totfact> 0.15355871E+02</totfact>
</mgrwt>
</event>
<event>
 5    0  0.2396052E+000  0.6739623E+03  0.7546771E-02  0.9762826E-01
         21   -1    0    0  501  502  0.00000000000E+00  0.00000000000E+00  0.29152226139E+03  0.29152226139E+03  0.00000000000E+00 0.  1.
          2   -1    0    0  503    0 -0.00000000000E+00 -0.00000000000E+00 -0.14439314436E+04  0.14439314436E+04  0.00000000000E+00 0. -1.
         25    1    1    2    0    0  0.14391262317E+03  0.14919847857E+03  0.20991948414E+03  0.32040945513E+03  0.12500000000E+03 0.  0.
         21    1    1    2  503  502 -0.14094062700E+03 -0.12323037032E+03 -0.30830455773E+03  0.36069611147E+03  0.00000000000E+00 0. -1.
          2    1    1    2  501    0 -0.29719961665E+01 -0.25968108253E+02 -0.10540241086E+04  0.10543481384E+04  0.00000000000E+00 0. -1.
<mgrwt>
<rscale>  4 0.67396229E+03</rscale>
<asrwt>0</asrwt>
<pdfrwt beam="1">  1       21 0.44849578E-01 0.67396229E+03</pdfrwt>
<pdfrwt beam="2">  1        2 0.22214330E+00 0.67396229E+03</pdfrwt>
<totfact> 0.76403861E+02</totfact>
</mgrwt>
</event>
<event>
 5    0  0.2396052E+000  0.7675590E+03  0.7546771E-02  0.9608199E-01
         21   -1    0    0  501  502  0.00000000000E+00  0.00000000000E+00  0.28404460485E+03  0.28404460485E+03  0.00000000000E+00 0.  1.
          2   -1    0    0  503    0 -0.00000000000E+00 -0.00000000000E+00 -0.15265289496E+04  0.15265289496E+04  0.00000000000E+00 0. -1.
         25    1    1    2    0    0  0.11882345668E+03  0.22601642570E+03  0.18561408180E+03  0.33952912380E+03  0.12500000000E+03 0.  0.
         21    1    1    2  503  502 -0.41679173775E+02 -0.18163403844E+03 -0.42569934298E+03  0.46470206376E+03  0.00000000000E+00 0. -1.
          2    1    1    2  501    0 -0.77144282909E+02 -0.44382387258E+02 -0.10023990835E+04  0.10063423669E+04  0.00000000000E+00 0. -1.
<mgrwt>
<rscale>  4 0.76755903E+03</rscale>
<asrwt>0</asrwt>
<pdfrwt beam="1">  1       21 0.43699170E-01 0.76755903E+03</pdfrwt>
<pdfrwt beam="2">  1        2 0.23485061E+00 0.76755903E+03</pdfrwt>
<totfact> 0.71426697E+02</totfact>
</mgrwt>
</event>
<event>
 5    0  0.2396052E+000  0.4213252E+03  0.7546771E-02  0.1036636E+00
         21   -1    0    0  501  502  0.00000000000E+00  0.00000000000E+00  0.21966021941E+03  0.21966021941E+03  0.00000000000E+00 0.  1.
         -2   -1    0    0    0  501 -0.00000000000E+00 -0.00000000000E+00 -0.76257752170E+03  0.76257752170E+03  0.00000000000E+00 0. -1.
         25    1    1    2    0    0 -0.22626168302E+03 -0.13003196124E+03  0.63128039494E+02  0.29616348444E+03  0.12500000000E+03 0.  0.
         21    1    1    2  503  502  0.77902312292E+02  0.70119298860E+02 -0.68472203356E+02  0.12519556288E+03  0.00000000000E+00 0. -1.
         -2    1    1    2    0  503  0.14835937072E+03  0.59912662382E+02 -0.53757313842E+03  0.56087869379E+03  0.00000000000E+00 0. -1.
<mgrwt>
<rscale>  4 0.42132516E+03</rscale>
<asrwt>0</asrwt>
<pdfrwt beam="1">  1       21 0.33793881E-01 0.42132516E+03</pdfrwt>
<pdfrwt beam="2">  1       -2 0.11731962E+00 0.42132516E+03</pdfrwt>
<totfact> 0.38208938E+02</totfact>
</mgrwt>
</event>
<event>
 5    0  0.2396052E+000  0.5272138E+03  0.7546771E-02  0.1006910E+00
          2   -1    0    0  503    0 -0.00000000000E+00  0.00000000000E+00  0.67721933264E+03  0.67721933264E+03  0.00000000000E+00 0. -1.
         21   -1    0    0  501  502  0.00000000000E+00 -0.00000000000E+00 -0.34890464130E+03  0.34890464130E+03  0.00000000000E+00 0. -1.
         25    1    1    2    0    0  0.24425264454E+03 -0.36879402049E+03  0.57940270824E+02  0.46330385159E+03  0.12500000000E+03 0.  0.
         21    1    1    2  503  502  0.40952298662E+01  0.57672948918E+02 -0.29040336989E+02  0.64701476930E+02  0.00000000000E+00 0.  1.
          2    1    1    2  501    0 -0.24834787441E+03  0.31112107157E+03  0.29941475751E+03  0.49811864542E+03  0.00000000000E+00 0. -1.
<mgrwt>
<rscale>  4 0.52721383E+03</rscale>
<asrwt>0</asrwt>
<pdfrwt beam="1">  1       21 0.53677637E-01 0.52721383E+03</pdfrwt>
<pdfrwt beam="2">  1        2 0.10418759E+00 0.52721383E+03</pdfrwt>
<totfact> 0.16412114E+03</totfact>
</mgrwt>
</event>
<event>
 5    0  0.2396052E+000  0.5024798E+03  0.7546771E-02  0.1013134E+00
          2   -1    0    0  503    0 -0.00000000000E+00  0.00000000000E+00  0.19829681996E+04  0.19829681996E+04  0.00000000000E+00 0. -1.
         21   -1    0    0  501  502  0.00000000000E+00 -0.00000000000E+00 -0.13406761848E+04  0.13406761848E+04  0.00000000000E+00 0. -1.
         25    1    1    2    0    0 -0.52487583296E+02 -0.20305845721E+03 -0.50670640393E+03  0.56246249940E+03  0.12500000000E+03 0.  0.
         21    1    1    2  503  502 -0.16309815022E+03  0.18851144018E+03 -0.78064519122E+03  0.81947817803E+03  0.00000000000E+00 0. -1.
          2    1    1    2  501    0  0.21558573351E+03  0.14547017029E+02  0.19296436100E+04  0.19417037070E+04  0.00000000000E+00 0. -1.
<mgrwt>
<rscale>  4 0.50247976E+03</rscale>
<asrwt>0</asrwt>
<pdfrwt beam="1">  1       21 0.20625788E+00 0.50247976E+03</pdfrwt>
<pdfrwt beam="2">  1        2 0.30507203E+00 0.50247976E+03</pdfrwt>
<totfact> 0.93113513E+00</totfact>
</mgrwt>
</event>
<event>
 5    0  0.2396052E+000  0.7914962E+03  0.7546771E-02  0.9572408E-01
          2   -1    0    0  503    0 -0.00000000000E+00  0.00000000000E+00  0.11659806657E+04  0.11659806657E+04  0.00000000000E+00 0. -1.
         21   -1    0    0  501  502  0.00000000000E+00 -0.00000000000E+00 -0.19062967427E+03  0.19062967427E+03  0.00000000000E+00 0. -1.
         25    1    1    2    0    0 -0.31718605094E+03  0.94015390028E+02  0.52097728117E+03  0.62967309929E+03  0.12500000000E+03 0.  0.
         21    1    1    2  503  502  0.41349411735E+03  0.22694801272E+02  0.30499517218E+03  0.51430972588E+03  0.00000000000E+00 0. -1.
          2    1    1    2  501    0 -0.96308066413E+02 -0.11671019130E+03  0.14937853807E+03  0.21262751479E+03  0.00000000000E+00 0. -1.
<mgrwt>
<rscale>  4 0.79149618E+03</rscale>
<asrwt>0</asrwt>
<pdfrwt beam="1">  1       21 0.29327643E-01 0.79149618E+03</pdfrwt>
<pdfrwt beam="2">  1        2 0.17938164E+00 0.79149618E+03</pdfrwt>
<totfact> 0.25998764E+03</totfact>
</mgrwt>
</event>
<event>
 5    0  0.2396052E+000  0.4621091E+03  0.7546771E-02  0.1024171E+00
          1   -1    0    0  503    0 -0.00000000000E+00  0.00000000000E+00  0.18024821357E+04  0.18024821357E+04  0.00000000000E+00 0. -1.
         21   -1    0    0  501  502  0.00000000000E+00 -0.00000000000E+00 -0.56513539603E+03  0.56513539603E+03  0.00000000000E+00 0.  1.
         25    1    1    2    0    0  0.98661785948E+02  0.17647084836E+03 -0.31563724551E+03  0.39513033177E+03  0.12500000000E+03 0.  0.
         21    1    1    2  503  502 -0.45682066252E+02 -0.20923319215E+03 -0.15436889999E+03  0.26399836582E+03  0.00000000000E+00 0. -1.
          1    1    1    2  501    0 -0.52979719696E+02  0.32762343785E+02  0.17073528851E+04  0.17084888341E+04  0.00000000000E+00 0. -1.
<mgrwt>
<rscale>  4 0.46210915E+03</rscale>
<asrwt>0</asrwt>
<pdfrwt beam="1">  1       21 0.86943908E-01 0.46210915E+03</pdfrwt>
<pdfrwt beam="2">  1        1 0.27730494E+00 0.46210915E+03</pdfrwt>
<totfact> 0.49681671E+01</totfact>
</mgrwt>
</event>
<event>
 5    0  0.2396052E+000  0.7533263E+03  0.7546771E-02  0.9630146E-01
          1   -1    0    0  503    0 -0.00000000000E+00  0.00000000000E+00  0.49705822077E+03  0.49705822077E+03  0.00000000000E+00 0.  1.
         21   -1    0    0  501  502  0.00000000000E+00 -0.00000000000E+00 -0.66166613895E+03  0.66166613895E+03  0.00000000000E+00 0.  1.
         25    1    1    2    0    0 -0.13881138936E+03  0.28329119672E+03 -0.54424049159E+03  0.64136200125E+03  0.12500000000E+03 0.  0.
         21    1    1    2  503  502  0.66682717692E+02 -0.18162105258E+03  0.11559507750E+03  0.22537749116E+03  0.00000000000E+00 0. -1.
          1    1    1    2  501    0  0.72128671673E+02 -0.10167014415E+03  0.26403749591E+03  0.29198486731E+03  0.00000000000E+00 0.  1.
<mgrwt>
<rscale>  4 0.75332626E+03</rscale>
<asrwt>0</asrwt>
<pdfrwt beam="1">  1       21 0.10179479E+00 0.75332626E+03</pdfrwt>
<pdfrwt beam="2">  1        1 0.76470495E-01 0.75332626E+03</pdfrwt>
<totfact> 0.33296725E+02</totfact>
</mgrwt>
</event>
<event>
 5    0  0.2396052E+000  0.5831676E+03  0.7546771E-02  0.9940957E-01
          1   -1    0    0  503    0 -0.00000000000E+00  0.00000000000E+00  0.60535191676E+03  0.60535191676E+03  0.00000000000E+00 0.  1.
         21   -1    0    0  501  502  0.00000000000E+00 -0.00000000000E+00 -0.43107490927E+03  0.43107490927E+03  0.00000000000E+00 0.  1.
         25    1    1    2    0    0  0.18267416726E+03 -0.23937225137E+03 -0.48753589104E+02  0.32965260284E+03  0.12500000000E+03 0.  0.
         21    1    1    2  503  502  0.68031478859E+02  0.23997159527E+03 -0.12408482693E+03  0.27858875233E+03  0.00000000000E+00 0.  1.
          1    1    1    2  501    0 -0.25070564612E+03 -0.59934389614E+00  0.34711542352E+03  0.42818547086E+03  0.00000000000E+00 0.  1.
<mgrwt>
<rscale>  4 0.58316758E+03</rscale>
<asrwt>0</asrwt>
<pdfrwt beam="1">  1       21 0.66319217E-01 0.58316758E+03</pdfrwt>
<pdfrwt beam="2">  1        1 0.93131064E-01 0.58316758E+03</pdfrwt>
<totfact> 0.71167739E+02</totfact>
</mgrwt>
</event>
<event>
 5    0  0.2396052E+000  0.3201733E+03  0.7546771E-02  0.1075570E+00
          2   -1    0    0  503    0 -0.00000000000E+00  0.00000000000E+00  0.82830500476E+02  0.82830500476E+02  0.00000000000E+00 0. -1.
         21   -1    0    0  501  502  0.00000000000E+00 -0.00000000000E+00 -0.96990765231E+03  0.96990765231E+03  0.00000000000E+00 0. -1.
         25    1    1    2    0    0 -0.19562016935E+03  0.74600152081E+02 -0.63042813273E+03  0.67594161278E+03  0.12500000000E+03 0.  0.
         21    1    1    2  503  502  0.41053100299E+02  0.55385401024E+02 -0.98770897554E+02  0.12045160810E+03  0.00000000000E+00 0.  1.
          2    1    1    2  501    0  0.15456706905E+03 -0.12998555310E+03 -0.15787812155E+03  0.25634493191E+03  0.00000000000E+00 0. -1.
<mgrwt>
<rscale>  4 0.32017329E+03</rscale>
<asrwt>0</asrwt>
<pdfrwt beam="1">  1       21 0.14921656E+00 0.32017329E+03</pdfrwt>
<pdfrwt beam="2">  1        2 0.12743154E-01 0.32017329E+03</pdfrwt>
<totfact> 0.16630526E+03</totfact>
</mgrwt>
</event>
<event>
 5    0  0.2396052E+000  0.4004891E+03  0.7546771E-02  0.1043610E+00
          2   -1    0    0  503    0 -0.00000000000E+00  0.00000000000E+00  0.13530882926E+04  0.13530882926E+04  0.00000000000E+00 0.  1.
         21   -1    0    0  501  502  0.00000000000E+00 -0.00000000000E+00 -0.92557590970E+02  0.92557590970E+02  0.00000000000E+00 0.  1.
         25    1    1    2    0    0 -0.29992339445E+03 -0.41866065862E+01  0.44295418516E+03  0.54936780063E+03  0.12500000000E+03 0.  0.
         21    1    1    2  503  502  0.51684374320E+02  0.39101702043E+02  0.33202013960E+02  0.72818894406E+02  0.00000000000E+00 0. -1.
          2    1    1    2  501    0  0.24823902013E+03 -0.34915095457E+02  0.78437450247E+03  0.82345918851E+03  0.00000000000E+00 0.  1.
<mgrwt>
<rscale>  4 0.40048915E+03</rscale>
<asrwt>0</asrwt>
<pdfrwt beam="1">  1       21 0.14239630E-01 0.40048915E+03</pdfrwt>
<pdfrwt beam="2">  1        2 0.20816742E+00 0.40048915E+03</pdfrwt>
<totfact> 0.85864426E+03</totfact>
</mgrwt>
</event>
<event>
 5    0  0.2396052E+000  0.4621117E+03  0.7546771E-02  0.1024171E+00
         -4   -1    0    0    0  501 -0.00000000000E+00  0.00000000000E+00  0.46303755447E+03  0.46303755447E+03  0.00000000000E+00 0. -1.
         21   -1    0    0  501  502  0.00000000000E+00 -0.00000000000E+00 -0.36713013419E+03  0.36713013419E+03  0.00000000000E+00 0. -1.
         25    1    1    2    0    0 -0.77934237423E+02  0.21460982712E+03 -0.96177728286E+02  0.27750005167E+03  0.12500000000E+03 0.  0.
         21    1    1    2  503  502  0.64270213115E+02 -0.18815726446E+03 -0.12456037416E+03  0.23462545317E+03  0.00000000000E+00 0. -1.
         -4    1    1    2    0  503  0.13664024308E+02 -0.26452562660E+02  0.31664552272E+03  0.31804218382E+03  0.00000000000E+00 0. -1.
<mgrwt>
<rscale>  4 0.46211170E+03</rscale>
<asrwt>0</asrwt>
<pdfrwt beam="1">  1       21 0.56481559E-01 0.46211170E+03</pdfrwt>
<pdfrwt beam="2">  1       -4 0.71236547E-01 0.46211170E+03</pdfrwt>
<totfact> 0.21987182E+02</totfact>
</mgrwt>
</event>
<event>
 5    0  0.2396052E+000  0.6301850E+03  0.7546771E-02  0.9844688E-01
         21   -1    0    0  501  502  0.00000000000E+00  0.00000000000E+00  0.87724112678E+02  0.87724112678E+02  0.00000000000E+00 0.  1.
          1   -1    0    0  503    0 -0.00000000000E+00 -0.00000000000E+00 -0.25122118476E+04  0.25122118476E+04  0.00000000000E+00 0.  1.
         25    1    1    2    0    0  0.52809540213E+02  0.26883459072E+03 -0.36702931841E+03  0.47475931299E+03  0.12500000000E+03 0.  0.
         21    1    1    2  503  502 -0.37337283234E+02 -0.30746720060E+03 -0.68140147422E+03  0.74849056188E+03  0.00000000000E+00 0.  1.
          1    1    1    2  501    0 -0.15472256978E+02  0.38632609880E+02 -0.13760569423E+04  0.13766860854E+04  0.00000000000E+00 0.  1.
<mgrwt>
<rscale>  4 0.63018500E+03</rscale>
<asrwt>0</asrwt>
<pdfrwt beam="1">  1       21 0.13496018E-01 0.63018500E+03</pdfrwt>
<pdfrwt beam="2">  1        1 0.38649412E+00 0.63018500E+03</pdfrwt>
<totfact> 0.72609581E+02</totfact>
</mgrwt>
</event>
<event>
 5    0  0.2396052E+000  0.7639689E+03  0.7546771E-02  0.9613687E-01
         21   -1    0    0  501  502  0.00000000000E+00  0.00000000000E+00  0.39128250577E+03  0.39128250577E+03  0.00000000000E+00 0.  1.
          2   -1    0    0  503    0 -0.00000000000E+00 -0.00000000000E+00 -0.22597949884E+04  0.22597949884E+04  0.00000000000E+00 0.  1.
         25    1    1    2    0    0  0.42908073471E+03 -0.23192096955E+03  0.10622659793E+03  0.51459372628E+03  0.12500000000E+03 0.  0.
         21    1    1    2  503  502 -0.11739111015E+02  0.20996226660E+03 -0.13504556370E+03  0.24991851552E+03  0.00000000000E+00 0. -1.
          2    1    1    2  501    0 -0.41734162369E+03  0.21958702946E+02 -0.18396935168E+04  0.18865652524E+04  0.00000000000E+00 0.  1.
<mgrwt>
<rscale>  4 0.76396887E+03</rscale>
<asrwt>0</asrwt>
<pdfrwt beam="1">  1       21 0.60197308E-01 0.76396887E+03</pdfrwt>
<pdfrwt beam="2">  1        2 0.34766077E+00 0.76396887E+03</pdfrwt>
<totfact> 0.14172521E+02</totfact>
</mgrwt>
</event>
<event>
 5    0  0.2396052E+000  0.1004384E+04  0.7546771E-02  0.9303750E-01
         21   -1    0    0  501  502  0.00000000000E+00  0.00000000000E+00  0.69819174217E+03  0.69819174217E+03  0.00000000000E+00 0. -1.
         -2   -1    0    0    0  501 -0.00000000000E+00 -0.00000000000E+00 -0.10935350187E+04  0.10935350187E+04  0.00000000000E+00 0.  1.
         25    1    1    2    0    0  0.11892427152E+03  0.19005513643E+03 -0.31645168540E+03  0.40746853429E+03  0.12500000000E+03 0.  0.
         21    1    1    2  503  502  0.21225497466E+02 -0.10176216426E+03  0.63905319769E+03  0.64745273905E+03  0.00000000000E+00 0. -1.
         -2    1    1    2    0  503 -0.14014976899E+03 -0.88292972171E+02 -0.71794478878E+03  0.73680548751E+03  0.00000000000E+00 0.  1.
<mgrwt>
<rscale>  4 0.10043840E+04</rscale>
<asrwt>0</asrwt>
<pdfrwt beam="1">  1       21 0.10741411E+00 0.10043840E+04</pdfrwt>
<pdfrwt beam="2">  1       -2 0.16823616E+00 0.10043840E+04</pdfrwt>
<totfact> 0.10297287E+01</totfact>
</mgrwt>
</event>
<event>
 5    0  0.2396052E+000  0.5167154E+03  0.7546771E-02  0.1009506E+00
          4   -1    0    0  503    0 -0.00000000000E+00  0.00000000000E+00  0.83394140573E+03  0.83394140573E+03  0.00000000000E+00 0. -1.
         21   -1    0    0  501  502  0.00000000000E+00 -0.00000000000E+00 -0.17191767576E+03  0.17191767576E+03  0.00000000000E+00 0. -1.
         25    1    1    2    0    0  0.18226643546E+03  0.23565122785E+03  0.28279058250E+03  0.42935773923E+03  0.12500000000E+03 0.  0.
         21    1    1    2  503  502 -0.90482617397E+02 -0.11832776681E+03 -0.20083029455E+02  0.15030599629E+03  0.00000000000E+00 0. -1.
          4    1    1    2  501    0 -0.91783818063E+02 -0.11732346104E+03  0.39931617693E+03  0.42619534597E+03  0.00000000000E+00 0. -1.
<mgrwt>
<rscale>  4 0.51671538E+03</rscale>
<asrwt>0</asrwt>
<pdfrwt beam="1">  1       21 0.26448874E-01 0.51671538E+03</pdfrwt>
<pdfrwt beam="2">  1        4 0.12829868E+00 0.51671538E+03</pdfrwt>
<totfact> 0.26034375E+02</totfact>
</mgrwt>
</event>
<event>
 5    0  0.2396052E+000  0.5235300E+03  0.7546771E-02  0.1007813E+00
          4   -1    0    0  503    0 -0.00000000000E+00  0.00000000000E+00  0.53523574467E+03  0.53523574467E+03  0.00000000000E+00 0. -1.
         21   -1    0    0  501  502  0.00000000000E+00 -0.00000000000E+00 -0.19092030399E+03  0.19092030399E+03  0.00000000000E+00 0. -1.
         25    1    1    2    0    0  0.35689148812E+02  0.26278964005E+03  0.58754119772E+02  0.29901363990E+03  0.12500000000E+03 0.  0.
         21    1    1    2  503  502 -0.12550740378E+02 -0.22408402305E+03  0.11789156577E+03  0.25351448035E+03  0.00000000000E+00 0. -1.
          4    1    1    2  501    0 -0.23138408434E+02 -0.38705616998E+02  0.16766975514E+03  0.17362792840E+03  0.00000000000E+00 0. -1.
<mgrwt>
<rscale>  4 0.52352997E+03</rscale>
<asrwt>0</asrwt>
<pdfrwt beam="1">  1       21 0.29372355E-01 0.52352997E+03</pdfrwt>
<pdfrwt beam="2">  1        4 0.82343960E-01 0.52352997E+03</pdfrwt>
<totfact> 0.61249874E+02</totfact>
</mgrwt>
</event>
<event>
 5    0  0.2396052E+000  0.3612941E+03  0.7546771E-02  0.1058073E+00
         21   -1    0    0  501  502  0.00000000000E+00  0.00000000000E+00  0.17154932000E+04  0.17154932000E+04  0.00000000000E+00 0.  1.
         -4   -1    0    0    0  501 -0.00000000000E+00 -0.00000000000E+00 -0.36282464011E+03  0.36282464011E+03  0.00000000000E+00 0.  1.
         25    1    1    2    0    0  0.60620331924E+02 -0.21577972757E+03  0.13387024159E+04  0.13630791883E+04  0.12500000000E+03 0.  0.
         21    1    1    2  503  502 -0.71757642927E+02  0.68050189489E+02  0.34162121354E+03  0.35564735504E+03  0.00000000000E+00 0. -1.
         -4    1    1    2    0  503  0.11137311003E+02  0.14772953808E+03 -0.32765506950E+03  0.35959129673E+03  0.00000000000E+00 0.  1.
<mgrwt>
<rscale>  4 0.36129411E+03</rscale>
<asrwt>0</asrwt>
<pdfrwt beam="1">  1       21 0.26392203E+00 0.36129411E+03</pdfrwt>
<pdfrwt beam="2">  1       -4 0.55819176E-01 0.36129411E+03</pdfrwt>
<totfact> 0.64197549E+00</totfact>
</mgrwt>
</event>
<event>
 5    0  0.2396052E+000  0.5249298E+03  0.7546771E-02  0.1007469E+00
         21   -1    0    0  501  502  0.00000000000E+00  0.00000000000E+00  0.92012145469E+02  0.92012145469E+02  0.00000000000E+00 0. -1.
          2   -1    0    0  503    0 -0.00000000000E+00 -0.00000000000E+00 -0.10885214652E+04  0.10885214652E+04  0.00000000000E+00 0. -1.
         25    1    1    2    0    0  0.35542203307E+02 -0.22554389217E+03 -0.53376772889E+03  0.59385712416E+03  0.12500000000E+03 0.  0.
         21    1    1    2  503  502  0.73733523842E+01  0.21815938999E+03 -0.13630013971E+03  0.25734337732E+03  0.00000000000E+00 0. -1.
          2    1    1    2  501    0 -0.42915555691E+02  0.73845021825E+01 -0.32644145114E+03  0.32933310920E+03  0.00000000000E+00 0. -1.
<mgrwt>
<rscale>  4 0.52492985E+03</rscale>
<asrwt>0</asrwt>
<pdfrwt beam="1">  1       21 0.14155714E-01 0.52492985E+03</pdfrwt>
<pdfrwt beam="2">  1        2 0.16746484E+00 0.52492985E+03</pdfrwt>
<totfact> 0.12127694E+04</totfact>
</mgrwt>
</event>
<event>
 5    0  0.2396052E+000  0.3734018E+03  0.7546771E-02  0.1053400E+00
          2   -1    0    0  503    0 -0.00000000000E+00  0.00000000000E+00  0.27014880667E+03  0.27014880667E+03  0.00000000000E+00 0.  1.
         21   -1    0    0  501  502  0.00000000000E+00 -0.00000000000E+00 -0.43134079500E+03  0.43134079500E+03  0.00000000000E+00 0. -1.
         25    1    1    2    0    0  0.10231308367E+03 -0.17219172563E+03 -0.19535781068E+03  0.30644352115E+03  0.12500000000E+03 0.  0.
         21    1    1    2  503  502 -0.10431187097E+03  0.87425329049E+02 -0.14374920710E+03  0.19795956437E+03  0.00000000000E+00 0.  1.
          2    1    1    2  501    0  0.19987873004E+01  0.84766396579E+02  0.17791502945E+03  0.19708651614E+03  0.00000000000E+00 0.  1.
<mgrwt>
<rscale>  4 0.37340180E+03</rscale>
<asrwt>0</asrwt>
<pdfrwt beam="1">  1       21 0.66360122E-01 0.37340180E+03</pdfrwt>
<pdfrwt beam="2">  1        2 0.41561355E-01 0.37340180E+03</pdfrwt>
<totfact> 0.30095638E+03</totfact>
</mgrwt>
</event>
<event>
 5    0  0.2396052E+000  0.5111976E+03  0.7546771E-02  0.1010897E+00
          2   -1    0    0  503    0 -0.00000000000E+00  0.00000000000E+00  0.15819365901E+04  0.15819365901E+04  0.00000000000E+00 0. -1.
         21   -1    0    0  501  502  0.00000000000E+00 -0.00000000000E+00 -0.25212064022E+03  0.25212064022E+03  0.00000000000E+00 0. -1.
         25    1    1    2    0    0  0.86407907713E+01 -0.26977021818E+03  0.36138810331E+02  0.29963585816E+03  0.12500000000E+03 0.  0.
         21    1    1    2  503  502 -0.29843329876E+02  0.20771012112E+03 -0.27482426836E+02  0.21163506926E+03  0.00000000000E+00 0. -1.
          2    1    1    2  501    0  0.21202539104E+02  0.62060097062E+02  0.13211595664E+04  0.13227863029E+04  0.00000000000E+00 0. -1.
<mgrwt>
<rscale>  4 0.51119764E+03</rscale>
<asrwt>0</asrwt>
<pdfrwt beam="1">  1       21 0.38787792E-01 0.51119764E+03</pdfrwt>
<pdfrwt beam="2">  1        2 0.24337485E+00 0.51119764E+03</pdfrwt>
<totfact> 0.89825251E+02</totfact>
</mgrwt>
</event>
<event>
 5    0  0.2396052E+000  0.5100205E+03  0.7546771E-02  0.1011196E+00
          1   -1    0    0  503    0 -0.00000000000E+00  0.00000000000E+00  0.40494401203E+03  0.40494401203E+03  0.00000000000E+00 0.  1.
         21   -1    0    0  501  502  0.00000000000E+00 -0.00000000000E+00 -0.76483817887E+03  0.76483817887E+03  0.00000000000E+00 0. -1.
         25    1    1    2    0    0 -0.19672291807E+03  0.12849301715E+03 -0.67095993724E+03  0.72181895191E+03  0.12500000000E+03 0.  0.
         21    1    1    2  503  502  0.10320371871E+03 -0.58186710811E+02  0.30949834423E+01  0.11851700213E+03  0.00000000000E+00 0. -1.
          1    1    1    2  501    0  0.93519199359E+02 -0.70306306336E+02  0.30797078696E+03  0.32944623686E+03  0.00000000000E+00 0.  1.
<mgrwt>
<rscale>  4 0.51002051E+03</rscale>
<asrwt>0</asrwt>
<pdfrwt beam="1">  1       21 0.11766741E+00 0.51002051E+03</pdfrwt>
<pdfrwt beam="2">  1        1 0.62299079E-01 0.51002051E+03</pdfrwt>
<totfact> 0.32028105E+02</totfact>
</mgrwt>
</event>
<event>
 5    0  0.2396052E+000  0.5089984E+03  0.7546771E-02  0.1011457E+00
         21   -1    0    0  501  502  0.00000000000E+00  0.00000000000E+00  0.83385460267E+03  0.83385460267E+03  0.00000000000E+00 0. -1.
          2   -1    0    0  503    0 -0.00000000000E+00 -0.00000000000E+00 -0.89206235220E+02  0.89206235220E+02  0.00000000000E+00 0. -1.
         25    1    1    2    0    0  0.19256611914E+03 -0.54632153071E+02  0.62339591679E+03  0.66656871473E+03  0.12500000000E+03 0.  0.
         21    1    1    2  503  502 -0.19797929398E+03  0.31462723710E+02  0.11762189197E+03  0.23242334930E+03  0.00000000000E+00 0. -1.
          2    1    1    2  501    0  0.54131748440E+01  0.23169429360E+02  0.36305586943E+01  0.24068773862E+02  0.00000000000E+00 0. -1.
<mgrwt>
<rscale>  4 0.50899837E+03</rscale>
<asrwt>0</asrwt>
<pdfrwt beam="1">  1       21 0.12828532E+00 0.50899837E+03</pdfrwt>
<pdfrwt beam="2">  1        2 0.13724037E-01 0.50899837E+03</pdfrwt>
<totfact> 0.21696948E+03</totfact>
</mgrwt>
</event>
<event>
 5    0  0.2396052E+000  0.5687098E+03  0.7546771E-02  0.9972538E-01
         21   -1    0    0  501  502  0.00000000000E+00  0.00000000000E+00  0.65290175000E+03  0.65290175000E+03  0.00000000000E+00 0. -1.
          1   -1    0    0  503    0 -0.00000000000E+00 -0.00000000000E+00 -0.63612722226E+03  0.63612722226E+03  0.00000000000E+00 0. -1.
         25    1    1    2    0    0  0.26779099154E+03 -0.34128128647E+02  0.16908650108E+03  0.34218706750E+03  0.12500000000E+03 0.  0.
         21    1    1    2  503  502 -0.24105428496E+03  0.34745864100E+02  0.35955629823E+03  0.43427545978E+03  0.00000000000E+00 0. -1.
          1    1    1    2  501    0 -0.26736706583E+02 -0.61773545385E+00 -0.51186827158E+03  0.51256644498E+03  0.00000000000E+00 0. -1.
<mgrwt>
<rscale>  4 0.56870981E+03</rscale>
<asrwt>0</asrwt>
<pdfrwt beam="1">  1       21 0.10044642E+00 0.56870981E+03</pdfrwt>
<pdfrwt beam="2">  1        1 0.97865726E-01 0.56870981E+03</pdfrwt>
<totfact> 0.25189541E+02</totfact>
</mgrwt>
</event>
<event>
 5    0  0.2396052E+000  0.1118337E+04  0.7546771E-02  0.9187502E-01
          2   -1    0    0  503    0 -0.00000000000E+00  0.00000000000E+00  0.15776923393E+04  0.15776923393E+04  0.00000000000E+00 0. -1.
         21   -1    0    0  501  502  0.00000000000E+00 -0.00000000000E+00 -0.10023939170E+04  0.10023939170E+04  0.00000000000E+00 0.  1.
         25    1    1    2    0    0 -0.20169809302E+03  0.10780237708E+03  0.23660176011E+03  0.35200691204E+03  0.12500000000E+03 0.  0.
         21    1    1    2  503  502  0.21715742077E+03 -0.14035978296E+03 -0.92673682256E+03  0.96213271036E+03  0.00000000000E+00 0.  1.
          2    1    1    2  501    0 -0.15459327748E+02  0.32557405875E+02  0.12654334848E+04  0.12659466339E+04  0.00000000000E+00 0. -1.
<mgrwt>
<rscale>  4 0.11183365E+04</rscale>
<asrwt>0</asrwt>
<pdfrwt beam="1">  1       21 0.15421445E+00 0.11183365E+04</pdfrwt>
<pdfrwt beam="2">  1        2 0.24272190E+00 0.11183365E+04</pdfrwt>
<totfact> 0.30774477E+01</totfact>
</mgrwt>
</event>
<event>
 5    0  0.2396052E+000  0.5805916E+03  0.7546771E-02  0.9946511E-01
         21   -1    0    0  501  502  0.00000000000E+00  0.00000000000E+00  0.16754029657E+03  0.16754029657E+03  0.00000000000E+00 0. -1.
          2   -1    0    0  503    0 -0.00000000000E+00 -0.00000000000E+00 -0.12046187524E+04  0.12046187524E+04  0.00000000000E+00 0. -1.
         25    1    1    2    0    0 -0.56939399639E+02  0.23003138420E+03 -0.18224854889E+03  0.32403096537E+03  0.12500000000E+03 0.  0.
         21    1    1    2  503  502  0.80520862825E+02 -0.30068245729E+03 -0.16125682021E+03  0.35056712844E+03  0.00000000000E+00 0. -1.
          2    1    1    2  501    0 -0.23581463186E+02  0.70651073090E+02 -0.69357308671E+03  0.69756095514E+03  0.00000000000E+00 0. -1.
<mgrwt>
<rscale>  4 0.58059164E+03</rscale>
<asrwt>0</asrwt>
<pdfrwt beam="1">  1       21 0.25775431E-01 0.58059164E+03</pdfrwt>
<pdfrwt beam="2">  1        2 0.18532596E+00 0.58059164E+03</pdfrwt>
<totfact> 0.32782652E+03</totfact>
</mgrwt>
</event>
<event>
 5    0  0.2396052E+000  0.1108828E+04  0.7546771E-02  0.9196630E-01
         21   -1    0    0  501  502  0.00000000000E+00  0.00000000000E+00  0.40007619334E+03  0.40007619334E+03  0.00000000000E+00 0. -1.
          1   -1    0    0  503    0 -0.00000000000E+00 -0.00000000000E+00 -0.27533111981E+04  0.27533111981E+04  0.00000000000E+00 0.  1.
         25    1    1    2    0    0  0.23340345335E+03 -0.33844720253E+03 -0.69552737230E+03  0.81756162248E+03  0.12500000000E+03 0.  0.
         21    1    1    2  503  502  0.40596189355E+02  0.20972372338E+03  0.29253471257E+03  0.36222734408E+03  0.00000000000E+00 0. -1.
          1    1    1    2  501    0 -0.27399964271E+03  0.12872347914E+03 -0.19502423450E+04  0.19735984249E+04  0.00000000000E+00 0.  1.
<mgrwt>
<rscale>  4 0.11088277E+04</rscale>
<asrwt>0</asrwt>
<pdfrwt beam="1">  1       21 0.61550182E-01 0.11088277E+04</pdfrwt>
<pdfrwt beam="2">  1        1 0.42358635E+00 0.11088277E+04</pdfrwt>
<totfact> 0.21160389E+01</totfact>
</mgrwt>
</event>
<event>
 5    0  0.2396052E+000  0.5063695E+03  0.7546771E-02  0.1012130E+00
          3   -1    0    0  503    0 -0.00000000000E+00  0.00000000000E+00  0.29300040250E+03  0.29300040250E+03  0.00000000000E+00 0.  1.
         21   -1    0    0  501  502  0.00000000000E+00 -0.00000000000E+00 -0.58120803951E+03  0.58120803951E+03  0.00000000000E+00 0.  1.
         25    1    1    2    0    0 -0.17497406755E+03  0.17297156040E+03 -0.33330456421E+03  0.43272626168E+03  0.12500000000E+03 0.  0.
         21    1    1    2  503  502  0.16620020536E+03 -0.14239365310E+03 -0.13596112905E+03  0.25765071185E+03  0.00000000000E+00 0.  1.
          3    1    1    2  501    0  0.87738621887E+01 -0.30577907296E+02  0.18105805624E+03  0.18383146848E+03  0.00000000000E+00 0.  1.
<mgrwt>
<rscale>  4 0.50636950E+03</rscale>
<asrwt>0</asrwt>
<pdfrwt beam="1">  1       21 0.89416622E-01 0.50636950E+03</pdfrwt>
<pdfrwt beam="2">  1        3 0.45076985E-01 0.50636950E+03</pdfrwt>
<totfact> 0.24315193E+02</totfact>
</mgrwt>
</event>
<event>
 5    0  0.2396052E+000  0.6406616E+03  0.7546771E-02  0.9824461E-01
         21   -1    0    0  501  502  0.00000000000E+00  0.00000000000E+00  0.29610849830E+03  0.29610849830E+03  0.00000000000E+00 0.  1.
          2   -1    0    0  503    0 -0.00000000000E+00 -0.00000000000E+00 -0.22387315395E+04  0.22387315395E+04  0.00000000000E+00 0. -1.
         25    1    1    2    0    0 -0.15039862098E+03  0.20181470518E+03  0.14818381367E+03  0.31769854116E+03  0.12500000000E+03 0.  0.
         21    1    1    2  503  502  0.12278511352E+03 -0.22568666963E+03 -0.19899210516E+03  0.32497463727E+03  0.00000000000E+00 0. -1.
          2    1    1    2  501    0  0.27613507460E+02  0.23871964444E+02 -0.18918147497E+04  0.18921668594E+04  0.00000000000E+00 0. -1.
<mgrwt>
<rscale>  4 0.64066164E+03</rscale>
<asrwt>0</asrwt>
<pdfrwt beam="1">  1       21 0.45555154E-01 0.64066164E+03</pdfrwt>
<pdfrwt beam="2">  1        2 0.34442024E+00 0.64066164E+03</pdfrwt>
<totfact> 0.27385994E+02</totfact>
</mgrwt>
</event>
<event>
 5    0  0.2396052E+000  0.5545380E+03  0.7546771E-02  0.1000449E+00
          1   -1    0    0  503    0 -0.00000000000E+00  0.00000000000E+00  0.71998545743E+03  0.71998545743E+03  0.00000000000E+00 0. -1.
         21   -1    0    0  501  502  0.00000000000E+00 -0.00000000000E+00 -0.15051727117E+04  0.15051727117E+04  0.00000000000E+00 0.  1.
         25    1    1    2    0    0  0.10302359643E+03  0.20971830936E+03 -0.38848597200E+03  0.47025735629E+03  0.12500000000E+03 0.  0.
         21    1    1    2  503  502 -0.94423154398E+02 -0.18697111350E+03 -0.10653822755E+04  0.10857777500E+04  0.00000000000E+00 0.  1.
          1    1    1    2  501    0 -0.86004420365E+01 -0.22747195855E+02  0.66868099325E+03  0.66912306286E+03  0.00000000000E+00 0. -1.
<mgrwt>
<rscale>  4 0.55453798E+03</rscale>
<asrwt>0</asrwt>
<pdfrwt beam="1">  1       21 0.23156503E+00 0.55453798E+03</pdfrwt>
<pdfrwt beam="2">  1        1 0.11076699E+00 0.55453798E+03</pdfrwt>
<totfact> 0.20227686E+01</totfact>
</mgrwt>
</event>
<event>
 5    0  0.2396052E+000  0.6287426E+03  0.7546771E-02  0.9847506E-01
         21   -1    0    0  501  502  0.00000000000E+00  0.00000000000E+00  0.22912944775E+03  0.22912944775E+03  0.00000000000E+00 0. -1.
          1   -1    0    0  503    0 -0.00000000000E+00 -0.00000000000E+00 -0.84807815588E+03  0.84807815588E+03  0.00000000000E+00 0. -1.
         25    1    1    2    0    0  0.25533510240E+03 -0.68578178384E+02 -0.21469346067E+03  0.36279093583E+03  0.12500000000E+03 0.  0.
         21    1    1    2  503  502 -0.27511713063E+03  0.11725203144E+03  0.76650024370E+01  0.29915919960E+03  0.00000000000E+00 0. -1.
          1    1    1    2  501    0  0.19782028232E+02 -0.48673853054E+02 -0.41192024990E+03  0.41525746819E+03  0.00000000000E+00 0. -1.
<mgrwt>
<rscale>  4 0.62874255E+03</rscale>
<asrwt>0</asrwt>
<pdfrwt beam="1">  1       21 0.35250684E-01 0.62874255E+03</pdfrwt>
<pdfrwt beam="2">  1        1 0.13047356E+00 0.62874255E+03</pdfrwt>
<totfact> 0.16292918E+03</totfact>
</mgrwt>
</event>
<event>
 5    0  0.2396052E+000  0.6463715E+03  0.7546771E-02  0.9813612E-01
         21   -1    0    0  501  502  0.00000000000E+00  0.00000000000E+00  0.53427829268E+03  0.53427829268E+03  0.00000000000E+00 0.  1.
          1   -1    0    0  503    0 -0.00000000000E+00 -0.00000000000E+00 -0.63768440033E+03  0.63768440033E+03  0.00000000000E+00 0.  1.
         25    1    1    2    0    0  0.57159037836E+02  0.26455522811E+03  0.26805510783E+03  0.40091790327E+03  0.12500000000E+03 0.  0.
         21    1    1    2  503  502  0.26076397944E+03 -0.10820108338E+03 -0.38652510874E+02  0.28495498595E+03  0.00000000000E+00 0.  1.
          1    1    1    2  501    0 -0.31792301728E+03 -0.15635414473E+03 -0.33280870461E+03  0.48608980379E+03  0.00000000000E+00 0.  1.
<mgrwt>
<rscale>  4 0.64637146E+03</rscale>
<asrwt>0</asrwt>
<pdfrwt beam="1">  1       21 0.82196660E-01 0.64637146E+03</pdfrwt>
<pdfrwt beam="2">  1        1 0.98105293E-01 0.64637146E+03</pdfrwt>
<totfact> 0.39897762E+02</totfact>
</mgrwt>
</event>
<event>
 5    0  0.2396052E+000  0.8745523E+03  0.7546771E-02  0.9457964E-01
         21   -1    0    0  501  502  0.00000000000E+00  0.00000000000E+00  0.19012771310E+04  0.19012771310E+04  0.00000000000E+00 0. -1.
          2   -1    0    0  503    0 -0.00000000000E+00 -0.00000000000E+00 -0.89603152435E+03  0.89603152435E+03  0.00000000000E+00 0.  1.
         25    1    1    2    0    0 -0.24959279474E+03 -0.65396953818E+02  0.12243346659E+03  0.31175034643E+03  0.12500000000E+03 0.  0.
         21    1    1    2  503  502  0.19640492276E+03  0.40110309801E+02  0.16771263730E+04  0.16890638240E+04  0.00000000000E+00 0. -1.
          2    1    1    2  501    0  0.53187871978E+02  0.25286644017E+02 -0.79431423285E+03  0.79649448498E+03  0.00000000000E+00 0.  1.
<mgrwt>
<rscale>  4 0.87455230E+03</rscale>
<asrwt>0</asrwt>
<pdfrwt beam="1">  1       21 0.29250417E+00 0.87455230E+03</pdfrwt>
<pdfrwt beam="2">  1        2 0.13785100E+00 0.87455230E+03</pdfrwt>
<totfact> 0.97601570E+00</totfact>
</mgrwt>
</event>
<event>
 5    0  0.2396052E+000  0.6932165E+03  0.7546771E-02  0.9728904E-01
          2   -1    0    0  503    0 -0.00000000000E+00  0.00000000000E+00  0.96635059744E+03  0.96635059744E+03  0.00000000000E+00 0. -1.
         21   -1    0    0  501  502  0.00000000000E+00 -0.00000000000E+00 -0.20571524103E+03  0.20571524103E+03  0.00000000000E+00 0. -1.
         25    1    1    2    0    0 -0.95978188281E+02 -0.28528217070E+03  0.11781703829E+03  0.34655963997E+03  0.12500000000E+03 0.  0.
         21    1    1    2  503  502  0.80011346333E+02  0.34793394880E+03  0.27129227054E+03  0.44839641426E+03  0.00000000000E+00 0. -1.
          2    1    1    2  501    0  0.15966841948E+02 -0.62651778098E+02  0.37152604758E+03  0.37710978424E+03  0.00000000000E+00 0. -1.
<mgrwt>
<rscale>  4 0.69321647E+03</rscale>
<asrwt>0</asrwt>
<pdfrwt beam="1">  1       21 0.31648499E-01 0.69321647E+03</pdfrwt>
<pdfrwt beam="2">  1        2 0.14866932E+00 0.69321647E+03</pdfrwt>
<totfact> 0.30031086E+03</totfact>
</mgrwt>
</event>
<event>
 5    0  0.2396052E+000  0.5157817E+03  0.7546771E-02  0.1009740E+00
         -2   -1    0    0    0  501 -0.00000000000E+00  0.00000000000E+00  0.17035020307E+04  0.17035020307E+04  0.00000000000E+00 0. -1.
         21   -1    0    0  501  502  0.00000000000E+00 -0.00000000000E+00 -0.14495597070E+03  0.14495597070E+03  0.00000000000E+00 0.  1.
         25    1    1    2    0    0 -0.20772856837E+03  0.77917853605E+02  0.11833369363E+03  0.28080280104E+03  0.12500000000E+03 0.  0.
         21    1    1    2  503  502  0.24412115418E+03 -0.80128831810E+02  0.19663779222E+03  0.32354627016E+03  0.00000000000E+00 0. -1.
         -2    1    1    2    0  503 -0.36392585810E+02  0.22109782041E+01  0.12435745742E+04  0.12441089302E+04  0.00000000000E+00 0. -1.
<mgrwt>
<rscale>  4 0.51578170E+03</rscale>
<asrwt>0</asrwt>
<pdfrwt beam="1">  1       21 0.22300920E-01 0.51578170E+03</pdfrwt>
<pdfrwt beam="2">  1       -2 0.26207722E+00 0.51578170E+03</pdfrwt>
<totfact> 0.85519718E+01</totfact>
</mgrwt>
</event>
<event>
 5    0  0.2396052E+000  0.3734784E+03  0.7546771E-02  0.1053371E+00
         21   -1    0    0  501  502  0.00000000000E+00  0.00000000000E+00  0.14685460112E+03  0.14685460112E+03  0.00000000000E+00 0. -1.
          2   -1    0    0  503    0 -0.00000000000E+00 -0.00000000000E+00 -0.95912363322E+03  0.95912363322E+03  0.00000000000E+00 0.  1.
         25    1    1    2    0    0  0.16665631460E+03 -0.17250460563E+03 -0.11138294124E+03  0.29251209507E+03  0.12500000000E+03 0.  0.
         21    1    1    2  503  502 -0.97366757211E+02 -0.31147731697E+02 -0.26506581954E+02  0.10560807491E+03  0.00000000000E+00 0.  1.
          2    1    1    2  501    0 -0.69289557389E+02  0.20365233733E+03 -0.67437950890E+03  0.70785806437E+03  0.00000000000E+00 0.  1.
<mgrwt>
<rscale>  4 0.37347845E+03</rscale>
<asrwt>0</asrwt>
<pdfrwt beam="1">  1       21 0.22593015E-01 0.37347845E+03</pdfrwt>
<pdfrwt beam="2">  1        2 0.14755749E+00 0.37347845E+03</pdfrwt>
<totfact> 0.61885436E+03</totfact>
</mgrwt>
</event>
<event>
 5    0  0.2396052E+000  0.5753743E+03  0.7546771E-02  0.9957856E-01
          2   -1    0    0  503    0 -0.00000000000E+00  0.00000000000E+00  0.49995869357E+03  0.49995869357E+03  0.00000000000E+00 0. -1.
         21   -1    0    0  501  502  0.00000000000E+00 -0.00000000000E+00 -0.30176844211E+03  0.30176844211E+03  0.00000000000E+00 0.  1.
         25    1    1    2    0    0  0.16134868278E+03 -0.21413134686E+03 -0.21887793192E+01  0.29583005577E+03  0.12500000000E+03 0.  0.
         21    1    1    2  503  502 -0.18118145346E+01  0.27640350807E+03  0.56283377542E+02  0.28208154944E+03  0.00000000000E+00 0. -1.
          2    1    1    2  501    0 -0.15953686825E+03 -0.62272161215E+02  0.14409565324E+03  0.22381553046E+03  0.00000000000E+00 0. -1.
<mgrwt>
<rscale>  4 0.57537431E+03</rscale>
<asrwt>0</asrwt>
<pdfrwt beam="1">  1       21 0.46425914E-01 0.57537431E+03</pdfrwt>
<pdfrwt beam="2">  1        2 0.76916722E-01 0.57537431E+03</pdfrwt>
<totfact> 0.31866972E+03</totfact>
</mgrwt>
</event>
<event>
 5    0  0.2396052E+000  0.4079023E+03  0.7546771E-02  0.1041077E+00
          3   -1    0    0  503    0 -0.00000000000E+00  0.00000000000E+00  0.80334022516E+03  0.80334022516E+03  0.00000000000E+00 0.  1.
         21   -1    0    0  501  502  0.00000000000E+00 -0.00000000000E+00 -0.64760488616E+02  0.64760488616E+02  0.00000000000E+00 0. -1.
         25    1    1    2    0    0 -0.16743871230E+03  0.10961360627E+03  0.31462503059E+03  0.39327442700E+03  0.12500000000E+03 0.  0.
         21    1    1    2  503  502  0.14679587319E+03 -0.86485950955E+02  0.28156742350E+03  0.32910342155E+03  0.00000000000E+00 0.  1.
          3    1    1    2  501    0  0.20642839108E+02 -0.23127655317E+02  0.14238728245E+03  0.14572286523E+03  0.00000000000E+00 0.  1.
<mgrwt>
<rscale>  4 0.40790233E+03</rscale>
<asrwt>0</asrwt>
<pdfrwt beam="1">  1       21 0.99631526E-02 0.40790233E+03</pdfrwt>
<pdfrwt beam="2">  1        3 0.12359080E+00 0.40790233E+03</pdfrwt>
<totfact> 0.22240315E+03</totfact>
</mgrwt>
</event>
<event>
 5    0  0.2396052E+000  0.5804582E+03  0.7546771E-02  0.9946800E-01
         21   -1    0    0  501  502  0.00000000000E+00  0.00000000000E+00  0.29696614453E+03  0.29696614453E+03  0.00000000000E+00 0.  1.
          2   -1    0    0  503    0 -0.00000000000E+00 -0.00000000000E+00 -0.43180191055E+03  0.43180191055E+03  0.00000000000E+00 0.  1.
         25    1    1    2    0    0 -0.10606302375E+03 -0.21139302174E+03 -0.18970203618E+03  0.32794547897E+03  0.12500000000E+03 0.  0.
         21    1    1    2  503  502  0.14224138678E+03  0.12385260742E+03  0.16848303998E+03  0.25290040577E+03  0.00000000000E+00 0.  1.
          2    1    1    2  501    0 -0.36178363029E+02  0.87540414315E+02 -0.11361676982E+03  0.14792217033E+03  0.00000000000E+00 0.  1.
<mgrwt>
<rscale>  4 0.58045818E+03</rscale>
<asrwt>0</asrwt>
<pdfrwt beam="1">  1       21 0.45687099E-01 0.58045818E+03</pdfrwt>
<pdfrwt beam="2">  1        2 0.66431063E-01 0.58045818E+03</pdfrwt>
<totfact> 0.38931867E+03</totfact>
</mgrwt>
</event>
<event>
 5    0  0.2396052E+000  0.5053998E+03  0.7546771E-02  0.1012379E+00
         21   -1    0    0  501  502  0.00000000000E+00  0.00000000000E+00  0.80860860687E+03  0.80860860687E+03  0.00000000000E+00 0.  1.
         -2   -1    0    0    0  501 -0.00000000000E+00 -0.00000000000E+00 -0.10182767121E+03  0.10182767121E+03  0.00000000000E+00 0.  1.
         25    1    1    2    0    0 -0.20608673764E+03  0.25410875331E+02  0.18801665498E+03  0.30674536437E+03  0.12500000000E+03 0.  0.
         21    1    1    2  503  502  0.20629917370E+03 -0.46205442316E+02  0.53631499721E+03  0.57647902668E+03  0.00000000000E+00 0.  1.
         -2    1    1    2    0  503 -0.21243606474E+00  0.20794566985E+02 -0.17550716522E+02  0.27211887028E+02  0.00000000000E+00 0.  1.
<mgrwt>
<rscale>  4 0.50539982E+03</rscale>
<asrwt>0</asrwt>
<pdfrwt beam="1">  1       21 0.12440132E+00 0.50539982E+03</pdfrwt>
<pdfrwt beam="2">  1       -2 0.15665796E-01 0.50539982E+03</pdfrwt>
<totfact> 0.11199475E+03</totfact>
</mgrwt>
</event>
<event>
 5    0  0.2396052E+000  0.5271198E+03  0.7546771E-02  0.1006933E+00
         -2   -1    0    0    0  501 -0.00000000000E+00  0.00000000000E+00  0.19080966630E+03  0.19080966630E+03  0.00000000000E+00 0. -1.
         21   -1    0    0  501  502  0.00000000000E+00 -0.00000000000E+00 -0.66583837026E+03  0.66583837026E+03  0.00000000000E+00 0.  1.
         25    1    1    2    0    0  0.26150326569E+03 -0.16639265661E+00 -0.48837800729E+03  0.56791026022E+03  0.12500000000E+03 0.  0.
         21    1    1    2  503  502 -0.16859217595E+03 -0.36895708264E+02 -0.37372991292E+02  0.17658243275E+03  0.00000000000E+00 0. -1.
         -2    1    1    2    0  503 -0.92911089748E+02  0.37062100920E+02  0.50722294622E+02  0.11215534358E+03  0.00000000000E+00 0. -1.
<mgrwt>
<rscale>  4 0.52711978E+03</rscale>
<asrwt>0</asrwt>
<pdfrwt beam="1">  1       21 0.10243667E+00 0.52711978E+03</pdfrwt>
<pdfrwt beam="2">  1       -2 0.29355333E-01 0.52711978E+03</pdfrwt>
<totfact> 0.60260039E+02</totfact>
</mgrwt>
</event>
<event>
 5    0  0.2396052E+000  0.7024195E+03  0.7546771E-02  0.9713104E-01
          2   -1    0    0  503    0 -0.00000000000E+00  0.00000000000E+00  0.56155215028E+03  0.56155215028E+03  0.00000000000E+00 0. -1.
         21   -1    0    0  501  502  0.00000000000E+00 -0.00000000000E+00 -0.22389388689E+04  0.22389388689E+04  0.00000000000E+00 0. -1.
         25    1    1    2    0    0  0.17889186484E+03  0.12703807487E+03 -0.28461227504E+03  0.38048668686E+03  0.12500000000E+03 0.  0.
         21    1    1    2  503  502 -0.20086296514E+03 -0.11940715292E+03 -0.18989606946E+04  0.19132840141E+04  0.00000000000E+00 0. -1.
          2    1    1    2  501    0  0.21971100297E+02 -0.76309219406E+01  0.50618625101E+03  0.50672031825E+03  0.00000000000E+00 0. -1.
<mgrwt>
<rscale>  4 0.70241947E+03</rscale>
<asrwt>0</asrwt>
<pdfrwt beam="1">  1       21 0.34445213E+00 0.70241947E+03</pdfrwt>
<pdfrwt beam="2">  1        2 0.86392640E-01 0.70241947E+03</pdfrwt>
<totfact> 0.89453800E+00</totfact>
</mgrwt>
</event>
<event>
 5    0  0.2396052E+000  0.7086077E+03  0.7546771E-02  0.9702624E-01
         21   -1    0    0  501  502  0.00000000000E+00  0.00000000000E+00  0.16960433282E+03  0.16960433282E+03  0.00000000000E+00 0.  1.
          2   -1    0    0  503    0 -0.00000000000E+00 -0.00000000000E+00 -0.86693886562E+03  0.86693886562E+03  0.00000000000E+00 0. -1.
         25    1    1    2    0    0 -0.45933882146E+02  0.31401224486E+03 -0.21316261171E+03  0.40221500529E+03  0.12500000000E+03 0.  0.
         21    1    1    2  503  502  0.59676196791E+02 -0.35288986496E+03 -0.37860387934E+03  0.52099270888E+03  0.00000000000E+00 0. -1.
          2    1    1    2  501    0 -0.13742314646E+02  0.38877620105E+02 -0.10556804176E+03  0.11333548428E+03  0.00000000000E+00 0. -1.
<mgrwt>
<rscale>  4 0.70860772E+03</rscale>
<asrwt>0</asrwt>
<pdfrwt beam="1">  1       21 0.26092974E-01 0.70860772E+03</pdfrwt>
<pdfrwt beam="2">  1        2 0.13337521E+00 0.70860772E+03</pdfrwt>
<totfact> 0.51306088E+03</totfact>
</mgrwt>
</event>
<event>
 5    0  0.2396052E+000  0.6775078E+03  0.7546771E-02  0.9756489E-01
          2   -1    0    0  503    0 -0.00000000000E+00  0.00000000000E+00  0.17220688330E+04  0.17220688330E+04  0.00000000000E+00 0. -1.
         21   -1    0    0  501  502  0.00000000000E+00 -0.00000000000E+00 -0.34518129485E+03  0.34518129485E+03  0.00000000000E+00 0. -1.
         25    1    1    2    0    0  0.12883350895E+03  0.25038058800E+03 -0.21060243015E+03  0.37318480069E+03  0.12500000000E+03 0.  0.
         21    1    1    2  503  502 -0.10995612396E+03 -0.20264179339E+03  0.19879903211E+03  0.30442585435E+03  0.00000000000E+00 0.  1.
          2    1    1    2  501    0 -0.18877384989E+02 -0.47738794612E+02  0.13886909362E+04  0.13896394728E+04  0.00000000000E+00 0. -1.
<mgrwt>
<rscale>  4 0.67750784E+03</rscale>
<asrwt>0</asrwt>
<pdfrwt beam="1">  1       21 0.53104815E-01 0.67750784E+03</pdfrwt>
<pdfrwt beam="2">  1        2 0.26493366E+00 0.67750784E+03</pdfrwt>
<totfact> 0.37390376E+02</totfact>
</mgrwt>
</event>
<event>
 5    0  0.2396052E+000  0.5630641E+03  0.7546771E-02  0.9985145E-01
         21   -1    0    0  501  502  0.00000000000E+00  0.00000000000E+00  0.30704733604E+03  0.30704733604E+03  0.00000000000E+00 0. -1.
          2   -1    0    0  503    0 -0.00000000000E+00 -0.00000000000E+00 -0.79899872278E+03  0.79899872278E+03  0.00000000000E+00 0.  1.
         25    1    1    2    0    0  0.98106105836E+02 -0.24978057247E+03 -0.59088052388E+02  0.30188000981E+03  0.12500000000E+03 0.  0.
         21    1    1    2  503  502 -0.74470147753E+02  0.22861658978E+03  0.10714067725E+03  0.26323083549E+03  0.00000000000E+00 0. -1.
          2    1    1    2  501    0 -0.23635958083E+02  0.21163982691E+02 -0.54000401160E+03  0.54093521352E+03  0.00000000000E+00 0.  1.
<mgrwt>
<rscale>  4 0.56306413E+03</rscale>
<asrwt>0</asrwt>
<pdfrwt beam="1">  1       21 0.47238051E-01 0.56306413E+03</pdfrwt>
<pdfrwt beam="2">  1        2 0.12292288E+00 0.56306413E+03</pdfrwt>
<totfact> 0.17370357E+03</totfact>
</mgrwt>
</event>
<event>
 5    0  0.2396052E+000  0.4872785E+03  0.7546771E-02  0.1017154E+00
          2   -1    0    0  503    0 -0.00000000000E+00  0.00000000000E+00  0.46383432611E+03  0.46383432611E+03  0.00000000000E+00 0. -1.
         21   -1    0    0  501  502  0.00000000000E+00 -0.00000000000E+00 -0.31983879403E+03  0.31983879403E+03  0.00000000000E+00 0. -1.
         25    1    1    2    0    0  0.28516399707E+03  0.61924817392E+02 -0.94280773972E+02  0.33116016152E+03  0.12500000000E+03 0.  0.
         21    1    1    2  503  502 -0.15662868021E+03 -0.59591623378E+02 -0.15230679770E+02  0.16827263190E+03  0.00000000000E+00 0. -1.
          2    1    1    2  501    0 -0.12853531687E+03 -0.23331940148E+01  0.25350698582E+03  0.28424032672E+03  0.00000000000E+00 0. -1.
<mgrwt>
<rscale>  4 0.48727852E+03</rscale>
<asrwt>0</asrwt>
<pdfrwt beam="1">  1       21 0.49205968E-01 0.48727852E+03</pdfrwt>
<pdfrwt beam="2">  1        2 0.71359127E-01 0.48727852E+03</pdfrwt>
<totfact> 0.31081454E+03</totfact>
</mgrwt>
</event>
<event>
 5    0  0.2396052E+000  0.7478858E+03  0.7546771E-02  0.9638673E-01
         21   -1    0    0  501  502  0.00000000000E+00  0.00000000000E+00  0.11793946152E+04  0.11793946152E+04  0.00000000000E+00 0. -1.
          2   -1    0    0  503    0 -0.00000000000E+00 -0.00000000000E+00 -0.14434321912E+03  0.14434321912E+03  0.00000000000E+00 0. -1.
         25    1    1    2    0    0  0.26820291847E+03  0.75006259240E+01  0.91716189887E+02  0.30988050012E+03  0.12500000000E+03 0.  0.
         21    1    1    2  503  502 -0.21748475396E+03 -0.39706810584E-03  0.93733793345E+03  0.96223802653E+03  0.00000000000E+00 0. -1.
          2    1    1    2  501    0 -0.50718164519E+02 -0.75002288559E+01  0.59972727560E+01  0.51619307682E+02  0.00000000000E+00 0. -1.
<mgrwt>
<rscale>  4 0.74788579E+03</rscale>
<asrwt>0</asrwt>
<pdfrwt beam="1">  1       21 0.18144532E+00 0.74788579E+03</pdfrwt>
<pdfrwt beam="2">  1        2 0.22206650E-01 0.74788579E+03</pdfrwt>
<totfact> 0.44842272E+02</totfact>
</mgrwt>
</event>
<event>
 5    0  0.2396052E+000  0.6103994E+03  0.7546771E-02  0.9884062E-01
         21   -1    0    0  501  502  0.00000000000E+00  0.00000000000E+00  0.82043908192E+03  0.82043908192E+03  0.00000000000E+00 0. -1.
          2   -1    0    0  503    0 -0.00000000000E+00 -0.00000000000E+00 -0.17502928778E+03  0.17502928778E+03  0.00000000000E+00 0. -1.
         25    1    1    2    0    0 -0.58677879507E+01  0.27291329981E+03  0.50029861773E+03  0.58347219904E+03  0.12500000000E+03 0.  0.
         21    1    1    2  503  502 -0.25129468995E+02 -0.28100301020E+03  0.20180941077E+03  0.34687349312E+03  0.00000000000E+00 0. -1.
          2    1    1    2  501    0  0.30997256946E+02  0.80897103891E+01 -0.56698234354E+02  0.65122677550E+02  0.00000000000E+00 0. -1.
<mgrwt>
<rscale>  4 0.61039940E+03</rscale>
<asrwt>0</asrwt>
<pdfrwt beam="1">  1       21 0.12622139E+00 0.61039940E+03</pdfrwt>
<pdfrwt beam="2">  1        2 0.26927583E-01 0.61039940E+03</pdfrwt>
<totfact> 0.10053293E+03</totfact>
</mgrwt>
</event>
<event>
 5    0  0.2396052E+000  0.4097037E+03  0.7546771E-02  0.1040470E+00
         21   -1    0    0  501  502  0.00000000000E+00  0.00000000000E+00  0.43693268272E+02  0.43693268272E+02  0.00000000000E+00 0. -1.
          1   -1    0    0  503    0 -0.00000000000E+00 -0.00000000000E+00 -0.17704769007E+04  0.17704769007E+04  0.00000000000E+00 0.  1.
         25    1    1    2    0    0  0.82483653045E+00 -0.20142731047E+03 -0.47683587912E+03  0.53251394102E+03  0.12500000000E+03 0.  0.
         21    1    1    2  503  502  0.28383193358E+02  0.16672064161E+03 -0.45497216246E+03  0.48538752210E+03  0.00000000000E+00 0.  1.
          1    1    1    2  501    0 -0.29208029888E+02  0.34706668861E+02 -0.79497559088E+03  0.79626870589E+03  0.00000000000E+00 0.  1.
<mgrwt>
<rscale>  4 0.40970375E+03</rscale>
<asrwt>0</asrwt>
<pdfrwt beam="1">  1       21 0.67220424E-02 0.40970375E+03</pdfrwt>
<pdfrwt beam="2">  1        1 0.27238102E+00 0.40970375E+03</pdfrwt>
<totfact> 0.82974377E+03</totfact>
</mgrwt>
</event>
<event>
 5    0  0.2396052E+000  0.5533767E+03  0.7546771E-02  0.1000715E+00
         21   -1    0    0  501  502  0.00000000000E+00  0.00000000000E+00  0.12540976679E+03  0.12540976679E+03  0.00000000000E+00 0.  1.
          1   -1    0    0  503    0 -0.00000000000E+00 -0.00000000000E+00 -0.20759335993E+04  0.20759335993E+04  0.00000000000E+00 0.  1.
         25    1    1    2    0    0 -0.38516039140E+03  0.88623189004E+02 -0.92057923590E+03  0.10096007757E+04  0.12500000000E+03 0.  0.
         21    1    1    2  503  502 -0.36398385052E+02 -0.11890214408E+03 -0.49285617227E+03  0.50830086450E+03  0.00000000000E+00 0. -1.
          1    1    1    2  501    0  0.42155877646E+03  0.30278955072E+02 -0.53708842436E+03  0.68344172591E+03  0.00000000000E+00 0.  1.
<mgrwt>
<rscale>  4 0.55337667E+03</rscale>
<asrwt>0</asrwt>
<pdfrwt beam="1">  1       21 0.19293811E-01 0.55337667E+03</pdfrwt>
<pdfrwt beam="2">  1        1 0.31937439E+00 0.55337667E+03</pdfrwt>
<totfact> 0.74082084E+02</totfact>
</mgrwt>
</event>
<event>
 5    0  0.2396052E+000  0.3887219E+03  0.7546771E-02  0.1047756E+00
          2   -1    0    0  503    0 -0.00000000000E+00  0.00000000000E+00  0.69319400617E+03  0.69319400617E+03  0.00000000000E+00 0. -1.
         21   -1    0    0  501  502  0.00000000000E+00 -0.00000000000E+00 -0.25894762302E+03  0.25894762302E+03  0.00000000000E+00 0.  1.
         25    1    1    2    0    0 -0.13983485520E+03 -0.14538518187E+03  0.13365205394E+02  0.23768522578E+03  0.12500000000E+03 0.  0.
         21    1    1    2  503  502  0.74464142708E+02  0.85412709580E+02 -0.12075927393E+03  0.16559903909E+03  0.00000000000E+00 0.  1.
          2    1    1    2  501    0  0.65370712496E+02  0.59972472287E+02  0.54164045168E+03  0.54885736433E+03  0.00000000000E+00 0. -1.
<mgrwt>
<rscale>  4 0.38872190E+03</rscale>
<asrwt>0</asrwt>
<pdfrwt beam="1">  1       21 0.39838096E-01 0.38872190E+03</pdfrwt>
<pdfrwt beam="2">  1        2 0.10664523E+00 0.38872190E+03</pdfrwt>
<totfact> 0.30677353E+03</totfact>
</mgrwt>
</event>
<event>
 5    0  0.2396052E+000  0.7197524E+03  0.7546771E-02  0.9684037E-01
          2   -1    0    0  503    0 -0.00000000000E+00  0.00000000000E+00  0.53605331332E+03  0.53605331332E+03  0.00000000000E+00 0. -1.
         21   -1    0    0  501  502  0.00000000000E+00 -0.00000000000E+00 -0.90917801501E+03  0.90917801501E+03  0.00000000000E+00 0. -1.
         25    1    1    2    0    0  0.16471393624E+02  0.24310800384E+03 -0.63000288802E+02  0.28101039968E+03  0.12500000000E+03 0.  0.
         21    1    1    2  503  502  0.28893423779E+02 -0.31510122192E+03 -0.69839618201E+03  0.76673387628E+03  0.00000000000E+00 0. -1.
          2    1    1    2  501    0 -0.45364817403E+02  0.71993218087E+02  0.38827176912E+03  0.39748705238E+03  0.00000000000E+00 0. -1.
<mgrwt>
<rscale>  4 0.71975238E+03</rscale>
<asrwt>0</asrwt>
<pdfrwt beam="1">  1       21 0.13987354E+00 0.71975238E+03</pdfrwt>
<pdfrwt beam="2">  1        2 0.82469741E-01 0.71975238E+03</pdfrwt>
<totfact> 0.21334960E+02</totfact>
</mgrwt>
</event>
<event>
 5    0  0.2396052E+000  0.5348996E+03  0.7546771E-02  0.1005051E+00
          2   -1    0    0  503    0 -0.00000000000E+00  0.00000000000E+00  0.55972764050E+03  0.55972764050E+03  0.00000000000E+00 0.  1.
         21   -1    0    0  501  502  0.00000000000E+00 -0.00000000000E+00 -0.28811960058E+03  0.28811960058E+03  0.00000000000E+00 0. -1.
         25    1    1    2    0    0 -0.16636397747E+03  0.12009781369E+03  0.21658691383E+02  0.24123547991E+03  0.12500000000E+03 0.  0.
         21    1    1    2  503  502  0.13711150915E+03 -0.25809008162E+03 -0.29342774794E+02  0.29371934666E+03  0.00000000000E+00 0. -1.
          2    1    1    2  501    0  0.29252468321E+02  0.13799226792E+03  0.27929212333E+03  0.31289241452E+03  0.00000000000E+00 0.  1.
<mgrwt>
<rscale>  4 0.53489964E+03</rscale>
<asrwt>0</asrwt>
<pdfrwt beam="1">  1       21 0.44326093E-01 0.53489964E+03</pdfrwt>
<pdfrwt beam="2">  1        2 0.86111944E-01 0.53489964E+03</pdfrwt>
<totfact> 0.30979522E+03</totfact>
</mgrwt>
</event>
<event>
 5    0  0.2396052E+000  0.9152198E+03  0.7546771E-02  0.9406753E-01
          1   -1    0    0  503    0 -0.00000000000E+00  0.00000000000E+00  0.22835103655E+04  0.22835103655E+04  0.00000000000E+00 0.  1.
         21   -1    0    0  501  502  0.00000000000E+00 -0.00000000000E+00 -0.10461685075E+03  0.10461685075E+03  0.00000000000E+00 0.  1.
         25    1    1    2    0    0  0.33990565457E+03 -0.35904405038E+02  0.16868644569E+04  0.17256771645E+04  0.12500000000E+03 0.  0.
         21    1    1    2  503  502 -0.32417154606E+03  0.10359998822E+02  0.22736885292E+03  0.39609483224E+03  0.00000000000E+00 0.  1.
          1    1    1    2  501    0 -0.15734108512E+02  0.25544406216E+02  0.26466020500E+03  0.26635521953E+03  0.00000000000E+00 0.  1.
<mgrwt>
<rscale>  4 0.91521978E+03</rscale>
<asrwt>0</asrwt>
<pdfrwt beam="1">  1       21 0.16094902E-01 0.91521978E+03</pdfrwt>
<pdfrwt beam="2">  1        1 0.35130925E+00 0.91521978E+03</pdfrwt>
<totfact> 0.71117334E+02</totfact>
</mgrwt>
</event>
<event>
 5    0  0.2396052E+000  0.6082002E+03  0.7546771E-02  0.9888538E-01
         21   -1    0    0  501  502  0.00000000000E+00  0.00000000000E+00  0.65508155086E+03  0.65508155086E+03  0.00000000000E+00 0.  1.
          2   -1    0    0  503    0 -0.00000000000E+00 -0.00000000000E+00 -0.17422496745E+04  0.17422496745E+04  0.00000000000E+00 0. -1.
         25    1    1    2    0    0 -0.45046488894E+03  0.29439184917E+02  0.47052550014E+03  0.66393111695E+03  0.12500000000E+03 0.  0.
         21    1    1    2  503  502 -0.20414203279E+02 -0.10279108655E+03 -0.37765507876E+00  0.10479928336E+03  0.00000000000E+00 0. -1.
          2    1    1    2  501    0  0.47087909222E+03  0.73351901632E+02 -0.15573159687E+04  0.16286008250E+04  0.00000000000E+00 0. -1.
<mgrwt>
<rscale>  4 0.60820016E+03</rscale>
<asrwt>0</asrwt>
<pdfrwt beam="1">  1       21 0.10078178E+00 0.60820016E+03</pdfrwt>
<pdfrwt beam="2">  1        2 0.26803841E+00 0.60820016E+03</pdfrwt>
<totfact> 0.85225066E+01</totfact>
</mgrwt>
</event>
<event>
 5    0  0.2396052E+000  0.4091486E+03  0.7546771E-02  0.1040657E+00
         -3   -1    0    0    0  501 -0.00000000000E+00  0.00000000000E+00  0.51646169536E+03  0.51646169536E+03  0.00000000000E+00 0.  1.
         21   -1    0    0  501  502  0.00000000000E+00 -0.00000000000E+00 -0.20196753275E+03  0.20196753275E+03  0.00000000000E+00 0.  1.
         25    1    1    2    0    0 -0.52756134450E+02 -0.19360097105E+03  0.79069333412E+01  0.23654188912E+03  0.12500000000E+03 0.  0.
         21    1    1    2  503  502  0.79549634973E+02  0.15329253027E+03  0.12204358306E+01  0.17270852245E+03  0.00000000000E+00 0.  1.
         -3    1    1    2    0  503 -0.26793500522E+02  0.40308440780E+02  0.30536679343E+03  0.30917881654E+03  0.00000000000E+00 0.  1.
<mgrwt>
<rscale>  4 0.40914862E+03</rscale>
<asrwt>0</asrwt>
<pdfrwt beam="1">  1       21 0.31071928E-01 0.40914862E+03</pdfrwt>
<pdfrwt beam="2">  1       -3 0.79455645E-01 0.40914862E+03</pdfrwt>
<totfact> 0.72675500E+02</totfact>
</mgrwt>
</event>
<event>
 5    0  0.2396052E+000  0.9055909E+03  0.7546771E-02  0.9418619E-01
          1   -1    0    0  503    0 -0.00000000000E+00  0.00000000000E+00  0.58225079869E+03  0.58225079869E+03  0.00000000000E+00 0. -1.
         21   -1    0    0  501  502  0.00000000000E+00 -0.00000000000E+00 -0.95313736314E+03  0.95313736314E+03  0.00000000000E+00 0.  1.
         25    1    1    2    0    0  0.18709229973E+03  0.78098269797E+02  0.13285602979E+03  0.27272439021E+03  0.12500000000E+03 0.  0.
         21    1    1    2  503  502 -0.17703043036E+03 -0.11334663812E+03 -0.86976707208E+03  0.89480835564E+03  0.00000000000E+00 0.  1.
          1    1    1    2  501    0 -0.10061869372E+02  0.35248368322E+02  0.36602447785E+03  0.36785541598E+03  0.00000000000E+00 0. -1.
<mgrwt>
<rscale>  4 0.90559087E+03</rscale>
<asrwt>0</asrwt>
<pdfrwt beam="1">  1       21 0.14663651E+00 0.90559087E+03</pdfrwt>
<pdfrwt beam="2">  1        1 0.89577048E-01 0.90559087E+03</pdfrwt>
<totfact> 0.10063232E+02</totfact>
</mgrwt>
</event>
<event>
 5    0  0.2396052E+000  0.4124561E+03  0.7546771E-02  0.1039550E+00
          2   -1    0    0  503    0 -0.00000000000E+00  0.00000000000E+00  0.26140919102E+04  0.26140919102E+04  0.00000000000E+00 0.  1.
         21   -1    0    0  501  502  0.00000000000E+00 -0.00000000000E+00 -0.83504398391E+02  0.83504398391E+02  0.00000000000E+00 0. -1.
         25    1    1    2    0    0  0.22182825677E+03  0.13169056621E+03  0.31455488054E+03  0.42558189999E+03  0.12500000000E+03 0.  0.
         21    1    1    2  503  502 -0.12549128370E+03  0.86965311001E+01  0.13688284711E+03  0.18590482988E+03  0.00000000000E+00 0.  1.
          2    1    1    2  501    0 -0.96336973062E+02 -0.14038709731E+03  0.20791497842E+04  0.20861095787E+04  0.00000000000E+00 0.  1.
<mgrwt>
<rscale>  4 0.41245606E+03</rscale>
<asrwt>0</asrwt>
<pdfrwt beam="1">  1       21 0.12846833E-01 0.41245606E+03</pdfrwt>
<pdfrwt beam="2">  1        2 0.40216792E+00 0.41245606E+03</pdfrwt>
<totfact> 0.21383680E+03</totfact>
</mgrwt>
</event>
<event>
 5    0  0.2396052E+000  0.4350282E+03  0.7546771E-02  0.1032283E+00
          2   -1    0    0  503    0 -0.00000000000E+00  0.00000000000E+00  0.12172344692E+04  0.12172344692E+04  0.00000000000E+00 0. -1.
         21   -1    0    0  501  502  0.00000000000E+00 -0.00000000000E+00 -0.18799435840E+03  0.18799435840E+03  0.00000000000E+00 0. -1.
         25    1    1    2    0    0  0.25137764615E+02  0.21738625730E+03  0.29185491846E+02  0.25370353763E+03  0.12500000000E+03 0.  0.
         21    1    1    2  503  502 -0.11053645476E+01 -0.18268386424E+03  0.35570512463E+02  0.18611791274E+03  0.00000000000E+00 0. -1.
          2    1    1    2  501    0 -0.24032400067E+02 -0.34702393057E+02  0.96448410649E+03  0.96540737722E+03  0.00000000000E+00 0. -1.
<mgrwt>
<rscale>  4 0.43502824E+03</rscale>
<asrwt>0</asrwt>
<pdfrwt beam="1">  1       21 0.28922210E-01 0.43502824E+03</pdfrwt>
<pdfrwt beam="2">  1        2 0.18726684E+00 0.43502824E+03</pdfrwt>
<totfact> 0.26395381E+03</totfact>
</mgrwt>
</event>
<event>
 5    0  0.2396052E+000  0.4796751E+03  0.7546771E-02  0.1019225E+00
         21   -1    0    0  501  502  0.00000000000E+00  0.00000000000E+00  0.23482938888E+03  0.23482938888E+03  0.00000000000E+00 0. -1.
          1   -1    0    0  503    0 -0.00000000000E+00 -0.00000000000E+00 -0.90232582656E+03  0.90232582656E+03  0.00000000000E+00 0.  1.
         25    1    1    2    0    0 -0.24792919341E+02  0.27509703254E+03  0.13109849916E+02  0.30346323389E+03  0.12500000000E+03 0.  0.
         21    1    1    2  503  502 -0.66979940838E+02 -0.15867172912E+03 -0.40881825427E+02  0.17701512293E+03  0.00000000000E+00 0.  1.
          1    1    1    2  501    0  0.91772860179E+02 -0.11642530342E+03 -0.63972446217E+03  0.65667685862E+03  0.00000000000E+00 0.  1.
<mgrwt>
<rscale>  4 0.47967507E+03</rscale>
<asrwt>0</asrwt>
<pdfrwt beam="1">  1       21 0.36127598E-01 0.47967507E+03</pdfrwt>
<pdfrwt beam="2">  1        1 0.13881936E+00 0.47967507E+03</pdfrwt>
<totfact> 0.14364848E+03</totfact>
</mgrwt>
</event>
<event>
 5    0  0.2396052E+000  0.3790533E+03  0.7546771E-02  0.1051284E+00
          2   -1    0    0  503    0 -0.00000000000E+00  0.00000000000E+00  0.10464125581E+04  0.10464125581E+04  0.00000000000E+00 0. -1.
         21   -1    0    0  501  502  0.00000000000E+00 -0.00000000000E+00 -0.15756102248E+03  0.15756102248E+03  0.00000000000E+00 0. -1.
         25    1    1    2    0    0 -0.13292311094E+03  0.15904724843E+03  0.10527707188E+03  0.26395613749E+03  0.12500000000E+03 0.  0.
         21    1    1    2  503  502  0.70300193361E+02 -0.96336091682E+02 -0.28910388277E+02  0.12271336642E+03  0.00000000000E+00 0. -1.
          2    1    1    2  501    0  0.62622917575E+02 -0.62711156749E+02  0.81248485198E+03  0.81730407663E+03  0.00000000000E+00 0. -1.
<mgrwt>
<rscale>  4 0.37905334E+03</rscale>
<asrwt>0</asrwt>
<pdfrwt beam="1">  1       21 0.24240158E-01 0.37905334E+03</pdfrwt>
<pdfrwt beam="2">  1        2 0.16098654E+00 0.37905334E+03</pdfrwt>
<totfact> 0.47636353E+03</totfact>
</mgrwt>
</event>
<event>
 5    0  0.2396052E+000  0.4573484E+03  0.7546771E-02  0.1025553E+00
         21   -1    0    0  501  502  0.00000000000E+00  0.00000000000E+00  0.10802280177E+03  0.10802280177E+03  0.00000000000E+00 0.  1.
          4   -1    0    0  503    0 -0.00000000000E+00 -0.00000000000E+00 -0.71017061201E+03  0.71017061201E+03  0.00000000000E+00 0.  1.
         25    1    1    2    0    0 -0.21806435680E+03  0.42296850947E+02 -0.28566607624E+03  0.38284617593E+03  0.12500000000E+03 0.  0.
         21    1    1    2  503  502  0.16585601454E+03 -0.10943800351E+03 -0.15200132518E+03  0.25017853031E+03  0.00000000000E+00 0.  1.
          4    1    1    2  501    0  0.52208342263E+02  0.67141152559E+02 -0.16448040882E+03  0.18516870754E+03  0.00000000000E+00 0.  1.
<mgrwt>
<rscale>  4 0.45734836E+03</rscale>
<asrwt>0</asrwt>
<pdfrwt beam="1">  1       21 0.16618893E-01 0.45734836E+03</pdfrwt>
<pdfrwt beam="2">  1        4 0.10925702E+00 0.45734836E+03</pdfrwt>
<totfact> 0.94601944E+02</totfact>
</mgrwt>
</event>
<event>
 5    0  0.2396052E+000  0.4934118E+03  0.7546771E-02  0.1015513E+00
         21   -1    0    0  501  502  0.00000000000E+00  0.00000000000E+00  0.44910911585E+02  0.44910911585E+02  0.00000000000E+00 0. -1.
          2   -1    0    0  503    0 -0.00000000000E+00 -0.00000000000E+00 -0.26720529057E+04  0.26720529057E+04  0.00000000000E+00 0. -1.
         25    1    1    2    0    0  0.14291059454E+03  0.17525171770E+03 -0.11580592452E+04  0.11865339515E+04  0.12500000000E+03 0.  0.
         21    1    1    2  503  502 -0.10602748003E+03 -0.11772586474E+03 -0.18104007662E+03  0.24057579906E+03  0.00000000000E+00 0. -1.
          2    1    1    2  501    0 -0.36883114512E+02 -0.57525852961E+02 -0.12880426723E+04  0.12898540667E+04  0.00000000000E+00 0. -1.
<mgrwt>
<rscale>  4 0.49341184E+03</rscale>
<asrwt>0</asrwt>
<pdfrwt beam="1">  1       21 0.69093695E-02 0.49341184E+03</pdfrwt>
<pdfrwt beam="2">  1        2 0.41108515E+00 0.49341184E+03</pdfrwt>
<totfact> 0.58995742E+03</totfact>
</mgrwt>
</event>
<event>
 5    0  0.2396052E+000  0.4139109E+03  0.7546771E-02  0.1039067E+00
         21   -1    0    0  501  502  0.00000000000E+00  0.00000000000E+00  0.10857865113E+04  0.10857865113E+04  0.00000000000E+00 0. -1.
          1   -1    0    0  503    0 -0.00000000000E+00 -0.00000000000E+00 -0.60151199593E+03  0.60151199593E+03  0.00000000000E+00 0.  1.
         25    1    1    2    0    0  0.26992001017E+03  0.11710906840E+03  0.97783913738E+03  0.10287690335E+04  0.12500000000E+03 0.  0.
         21    1    1    2  503  502 -0.42200902148E+02  0.34782576751E+02  0.33847758999E+02  0.64314963864E+02  0.00000000000E+00 0.  1.
          1    1    1    2  501    0 -0.22771910802E+03 -0.15189164515E+03 -0.52741238101E+03  0.59421450981E+03  0.00000000000E+00 0.  1.
<mgrwt>
<rscale>  4 0.41391092E+03</rscale>
<asrwt>0</asrwt>
<pdfrwt beam="1">  1       21 0.16704408E+00 0.41391092E+03</pdfrwt>
<pdfrwt beam="2">  1        1 0.92540307E-01 0.41391092E+03</pdfrwt>
<totfact> 0.75882342E+01</totfact>
</mgrwt>
</event>
<event>
 5    0  0.2396052E+000  0.9211600E+03  0.7546771E-02  0.9399510E-01
          2   -1    0    0  503    0 -0.00000000000E+00  0.00000000000E+00  0.16403931404E+04  0.16403931404E+04  0.00000000000E+00 0. -1.
         21   -1    0    0  501  502  0.00000000000E+00 -0.00000000000E+00 -0.54212966214E+03  0.54212966214E+03  0.00000000000E+00 0. -1.
         25    1    1    2    0    0 -0.28227077493E+03 -0.29498337889E+02 -0.45788688083E+03  0.55302110082E+03  0.12500000000E+03 0.  0.
         21    1    1    2  503  502  0.22031015887E+03  0.30205002883E+02  0.30837918811E+03  0.38019288784E+03  0.00000000000E+00 0.  1.
          2    1    1    2  501    0  0.61960616062E+02 -0.70666499429E+00  0.12477711710E+04  0.12493088139E+04  0.00000000000E+00 0. -1.
<mgrwt>
<rscale>  4 0.92116003E+03</rscale>
<asrwt>0</asrwt>
<pdfrwt beam="1">  1       21 0.83404564E-01 0.92116003E+03</pdfrwt>
<pdfrwt beam="2">  1        2 0.25236817E+00 0.92116003E+03</pdfrwt>
<totfact> 0.14258036E+02</totfact>
</mgrwt>
</event>
<event>
 5    0  0.2396052E+000  0.6247356E+03  0.7546771E-02  0.9855376E-01
          1   -1    0    0  503    0 -0.00000000000E+00  0.00000000000E+00  0.12000127527E+04  0.12000127527E+04  0.00000000000E+00 0.  1.
         21   -1    0    0  501  502  0.00000000000E+00 -0.00000000000E+00 -0.31602869173E+03  0.31602869173E+03  0.00000000000E+00 0.  1.
         25    1    1    2    0    0  0.29222584754E+03 -0.36094729544E+02 -0.95125776221E+02  0.33372546917E+03  0.12500000000E+03 0.  0.
         21    1    1    2  503  502 -0.27702072912E+03  0.13349729286E+02  0.88261692452E+02  0.29104780705E+03  0.00000000000E+00 0.  1.
          1    1    1    2  501    0 -0.15205118413E+02  0.22745000258E+02  0.89084814471E+03  0.89126816817E+03  0.00000000000E+00 0.  1.
<mgrwt>
<rscale>  4 0.62473557E+03</rscale>
<asrwt>0</asrwt>
<pdfrwt beam="1">  1       21 0.48619799E-01 0.62473557E+03</pdfrwt>
<pdfrwt beam="2">  1        1 0.18461734E+00 0.62473557E+03</pdfrwt>
<totfact> 0.44753128E+02</totfact>
</mgrwt>
</event>
<event>
 5    0  0.2396052E+000  0.6159671E+03  0.7546771E-02  0.9872822E-01
         21   -1    0    0  501  502  0.00000000000E+00  0.00000000000E+00  0.38291953628E+03  0.38291953628E+03  0.00000000000E+00 0. -1.
          2   -1    0    0  503    0 -0.00000000000E+00 -0.00000000000E+00 -0.23085363566E+04  0.23085363566E+04  0.00000000000E+00 0. -1.
         25    1    1    2    0    0 -0.38531160094E+03  0.27324873651E+03  0.11013621721E+03  0.50088410652E+03  0.12500000000E+03 0.  0.
         21    1    1    2  503  502 -0.91682385980E+02 -0.71082270593E+02 -0.31168677878E+02  0.12012425056E+03  0.00000000000E+00 0.  1.
          2    1    1    2  501    0  0.47699398692E+03 -0.20216646592E+03 -0.20045843596E+04  0.20704475358E+04  0.00000000000E+00 0. -1.
<mgrwt>
<rscale>  4 0.61596713E+03</rscale>
<asrwt>0</asrwt>
<pdfrwt beam="1">  1       21 0.58910697E-01 0.61596713E+03</pdfrwt>
<pdfrwt beam="2">  1        2 0.35515945E+00 0.61596713E+03</pdfrwt>
<totfact> 0.14496467E+02</totfact>
</mgrwt>
</event>
<event>
 5    0  0.2396052E+000  0.7989556E+03  0.7546771E-02  0.9561530E-01
          2   -1    0    0  503    0 -0.00000000000E+00  0.00000000000E+00  0.38171029628E+04  0.38171029628E+04  0.00000000000E+00 0. -1.
         21   -1    0    0  501  502  0.00000000000E+00 -0.00000000000E+00 -0.91909347282E+02  0.91909347282E+02  0.00000000000E+00 0. -1.
         25    1    1    2    0    0 -0.31890448078E+03  0.19057894017E+03  0.75600017001E+03  0.85157598449E+03  0.12500000000E+03 0.  0.
         21    1    1    2  503  502  0.34831619104E+03 -0.20783498846E+03  0.89118067427E+03  0.97914378187E+03  0.00000000000E+00 0. -1.
          2    1    1    2  501    0 -0.29411710256E+02  0.17256048292E+02  0.20780127712E+04  0.20782925437E+04  0.00000000000E+00 0. -1.
<mgrwt>
<rscale>  4 0.79895565E+03</rscale>
<asrwt>0</asrwt>
<pdfrwt beam="1">  1       21 0.14139903E-01 0.79895565E+03</pdfrwt>
<pdfrwt beam="2">  1        2 0.58724649E+00 0.79895565E+03</pdfrwt>
<totfact> 0.27443328E+02</totfact>
</mgrwt>
</event>
<event>
 5    0  0.2396052E+000  0.7739563E+03  0.7546771E-02  0.9598499E-01
         21   -1    0    0  501  502  0.00000000000E+00  0.00000000000E+00  0.12677886420E+04  0.12677886420E+04  0.00000000000E+00 0.  1.
          2   -1    0    0  503    0 -0.00000000000E+00 -0.00000000000E+00 -0.64991805026E+03  0.64991805026E+03  0.00000000000E+00 0.  1.
         25    1    1    2    0    0  0.56342820465E+02 -0.20236021007E+03  0.24899069150E+02  0.24570130582E+03  0.12500000000E+03 0.  0.
         21    1    1    2  503  502 -0.46750483137E+01  0.18834715941E+03  0.11232955647E+04  0.11389861431E+04  0.00000000000E+00 0.  1.
          2    1    1    2  501    0 -0.51667772152E+02  0.14013050666E+02 -0.53032404204E+03  0.53301924340E+03  0.00000000000E+00 0.  1.
<mgrwt>
<rscale>  4 0.77395634E+03</rscale>
<asrwt>0</asrwt>
<pdfrwt beam="1">  1       21 0.19504441E+00 0.77395634E+03</pdfrwt>
<pdfrwt beam="2">  1        2 0.99987393E-01 0.77395634E+03</pdfrwt>
<totfact> 0.64275572E+01</totfact>
</mgrwt>
</event>
<event>
 5    0  0.2396052E+000  0.3753578E+03  0.7546771E-02  0.1052663E+00
          1   -1    0    0  503    0 -0.00000000000E+00  0.00000000000E+00  0.79953045502E+03  0.79953045502E+03  0.00000000000E+00 0. -1.
         21   -1    0    0  501  502  0.00000000000E+00 -0.00000000000E+00 -0.34520078907E+03  0.34520078907E+03  0.00000000000E+00 0. -1.
         25    1    1    2    0    0 -0.16610816160E+03  0.11757695573E+03 -0.84438733207E+02  0.25332027462E+03  0.12500000000E+03 0.  0.
         21    1    1    2  503  502  0.75417906796E+02 -0.84719486272E+02 -0.15438820896E+03  0.19157497510E+03  0.00000000000E+00 0. -1.
          1    1    1    2  501    0  0.90690254803E+02 -0.32857469459E+02  0.69315660812E+03  0.69983599436E+03  0.00000000000E+00 0. -1.
<mgrwt>
<rscale>  4 0.37535780E+03</rscale>
<asrwt>0</asrwt>
<pdfrwt beam="1">  1       21 0.53107814E-01 0.37535780E+03</pdfrwt>
<pdfrwt beam="2">  1        1 0.12300469E+00 0.37535780E+03</pdfrwt>
<totfact> 0.80247429E+02</totfact>
</mgrwt>
</event>
<event>
 5    0  0.2396052E+000  0.8974080E+03  0.7546771E-02  0.9428827E-01
         21   -1    0    0  501  502  0.00000000000E+00  0.00000000000E+00  0.27204279717E+03  0.27204279717E+03  0.00000000000E+00 0.  1.
          2   -1    0    0  503    0 -0.00000000000E+00 -0.00000000000E+00 -0.19995943105E+04  0.19995943105E+04  0.00000000000E+00 0. -1.
         25    1    1    2    0    0 -0.43321751966E+03 -0.47518033886E+03 -0.35933029988E+03  0.74713923614E+03  0.12500000000E+03 0.  0.
         21    1    1    2  503  502  0.37024173287E+02  0.16004459688E+03 -0.38570886295E+03  0.41923309668E+03  0.00000000000E+00 0. -1.
          2    1    1    2  501    0  0.39619334637E+03  0.31513574198E+03 -0.98251235047E+03  0.11052647748E+04  0.00000000000E+00 0. -1.
<mgrwt>
<rscale>  4 0.89740797E+03</rscale>
<asrwt>0</asrwt>
<pdfrwt beam="1">  1       21 0.41852739E-01 0.89740797E+03</pdfrwt>
<pdfrwt beam="2">  1        2 0.30762989E+00 0.89740797E+03</pdfrwt>
<totfact> 0.42111722E+02</totfact>
</mgrwt>
</event>
<event>
 5    0  0.2396052E+000  0.6447694E+03  0.7546771E-02  0.9816644E-01
         -1   -1    0    0    0  501 -0.00000000000E+00  0.00000000000E+00  0.37283771425E+03  0.37283771425E+03  0.00000000000E+00 0. -1.
         21   -1    0    0  501  502  0.00000000000E+00 -0.00000000000E+00 -0.59852292382E+03  0.59852292382E+03  0.00000000000E+00 0.  1.
         25    1    1    2    0    0  0.27845995839E+03  0.57158173252E+02 -0.43391435098E+03  0.53358567183E+03  0.12500000000E+03 0.  0.
         21    1    1    2  503  502 -0.22181296055E+03 -0.77250096508E+02  0.14937895217E+02  0.23535442973E+03  0.00000000000E+00 0. -1.
         -1    1    1    2    0  503 -0.56646997836E+02  0.20091923257E+02  0.19329124619E+03  0.20242053650E+03  0.00000000000E+00 0. -1.
<mgrwt>
<rscale>  4 0.64476942E+03</rscale>
<asrwt>0</asrwt>
<pdfrwt beam="1">  1       21 0.92080450E-01 0.64476942E+03</pdfrwt>
<pdfrwt beam="2">  1       -1 0.57359648E-01 0.64476942E+03</pdfrwt>
<totfact> 0.25522476E+02</totfact>
</mgrwt>
</event>
<event>
 5    0  0.2396052E+000  0.7028241E+03  0.7546771E-02  0.9712415E-01
         21   -1    0    0  501  502  0.00000000000E+00  0.00000000000E+00  0.19628620232E+03  0.19628620232E+03  0.00000000000E+00 0. -1.
          2   -1    0    0  503    0 -0.00000000000E+00 -0.00000000000E+00 -0.21189952480E+04  0.21189952480E+04  0.00000000000E+00 0.  1.
         25    1    1    2    0    0 -0.38563102902E+03  0.19770715988E+03 -0.18215687066E+03  0.48642115203E+03  0.12500000000E+03 0.  0.
         21    1    1    2  503  502  0.47524620700E+02  0.97354607905E+02 -0.43700814115E+03  0.45023618767E+03  0.00000000000E+00 0.  1.
          2    1    1    2  501    0  0.33810640832E+03 -0.29506176778E+03 -0.13035440339E+04  0.13786241106E+04  0.00000000000E+00 0.  1.
<mgrwt>
<rscale>  4 0.70282406E+03</rscale>
<asrwt>0</asrwt>
<pdfrwt beam="1">  1       21 0.30197876E-01 0.70282406E+03</pdfrwt>
<pdfrwt beam="2">  1        2 0.32599928E+00 0.70282406E+03</pdfrwt>
<totfact> 0.73222150E+02</totfact>
</mgrwt>
</event>
<event>
 5    0  0.2396052E+000  0.7884530E+03  0.7546771E-02  0.9576883E-01
          2   -1    0    0  503    0 -0.00000000000E+00  0.00000000000E+00  0.31213238959E+03  0.31213238959E+03  0.00000000000E+00 0. -1.
         21   -1    0    0  501  502  0.00000000000E+00 -0.00000000000E+00 -0.58560231403E+03  0.58560231403E+03  0.00000000000E+00 0. -1.
         25    1    1    2    0    0 -0.19369816111E+03  0.26810205132E+03 -0.34729249409E+03  0.49561554050E+03  0.12500000000E+03 0.  0.
         21    1    1    2  503  502  0.20891056866E+03 -0.28401482718E+03  0.30955538888E+02  0.35392978561E+03  0.00000000000E+00 0. -1.
          2    1    1    2  501    0 -0.15212407556E+02  0.15912775861E+02  0.42867030748E+02  0.48189377506E+02  0.00000000000E+00 0. -1.
<mgrwt>
<rscale>  4 0.78845304E+03</rscale>
<asrwt>0</asrwt>
<pdfrwt beam="1">  1       21 0.90092662E-01 0.78845304E+03</pdfrwt>
<pdfrwt beam="2">  1        2 0.48020368E-01 0.78845304E+03</pdfrwt>
<totfact> 0.11903778E+03</totfact>
</mgrwt>
</event>
<event>
 5    0  0.2396052E+000  0.9069827E+03  0.7546771E-02  0.9416895E-01
         21   -1    0    0  501  502  0.00000000000E+00  0.00000000000E+00  0.63205613730E+03  0.63205613730E+03  0.00000000000E+00 0. -1.
          2   -1    0    0  503    0 -0.00000000000E+00 -0.00000000000E+00 -0.73752881567E+03  0.73752881567E+03  0.00000000000E+00 0.  1.
         25    1    1    2    0    0 -0.28913290061E+02 -0.45704507325E+03  0.16284268463E+03  0.50186543741E+03  0.12500000000E+03 0.  0.
         21    1    1    2  503  502  0.22441715828E+02  0.43167411366E+03  0.14320942138E+03  0.45536261308E+03  0.00000000000E+00 0. -1.
          2    1    1    2  501    0  0.64715742330E+01  0.25370959592E+02 -0.41152478438E+03  0.41235690248E+03  0.00000000000E+00 0.  1.
<mgrwt>
<rscale>  4 0.90698272E+03</rscale>
<asrwt>0</asrwt>
<pdfrwt beam="1">  1       21 0.97239406E-01 0.90698272E+03</pdfrwt>
<pdfrwt beam="2">  1        2 0.11346597E+00 0.90698272E+03</pdfrwt>
<totfact> 0.35547273E+02</totfact>
</mgrwt>
</event>
<event>
 5    0  0.2396052E+000  0.4628525E+03  0.7546771E-02  0.1023957E+00
          2   -1    0    0  503    0 -0.00000000000E+00  0.00000000000E+00  0.74707596155E+03  0.74707596155E+03  0.00000000000E+00 0.  1.
         21   -1    0    0  501  502  0.00000000000E+00 -0.00000000000E+00 -0.13015970022E+03  0.13015970022E+03  0.00000000000E+00 0.  1.
         25    1    1    2    0    0  0.31274588902E+02  0.23006814189E+03  0.15112801136E+03  0.30393111989E+03  0.12500000000E+03 0.  0.
         21    1    1    2  503  502 -0.20443763393E+02 -0.19769329460E+03  0.13385414241E+03  0.23961952681E+03  0.00000000000E+00 0.  1.
          2    1    1    2  501    0 -0.10830825510E+02 -0.32374847291E+02  0.33193410756E+03  0.33368501507E+03  0.00000000000E+00 0.  1.
<mgrwt>
<rscale>  4 0.46285254E+03</rscale>
<asrwt>0</asrwt>
<pdfrwt beam="1">  1       21 0.20024570E-01 0.46285254E+03</pdfrwt>
<pdfrwt beam="2">  1        2 0.11493476E+00 0.46285254E+03</pdfrwt>
<totfact> 0.10721772E+04</totfact>
</mgrwt>
</event>
<event>
 5    0  0.2396052E+000  0.4298794E+03  0.7546771E-02  0.1033898E+00
          1   -1    0    0  503    0 -0.00000000000E+00  0.00000000000E+00  0.97078558885E+03  0.97078558885E+03  0.00000000000E+00 0.  1.
         21   -1    0    0  501  502  0.00000000000E+00 -0.00000000000E+00 -0.10045990629E+03  0.10045990629E+03  0.00000000000E+00 0. -1.
         25    1    1    2    0    0 -0.19531640603E+03  0.46826294330E+02  0.11707157403E+03  0.26395445393E+03  0.12500000000E+03 0.  0.
         21    1    1    2  503  502  0.16812957325E+03 -0.11675286742E+01  0.25024114284E+03  0.30147893143E+03  0.00000000000E+00 0. -1.
          1    1    1    2  501    0  0.27186832777E+02 -0.45658765655E+02  0.50301296568E+03  0.50581210978E+03  0.00000000000E+00 0.  1.
<mgrwt>
<rscale>  4 0.42987938E+03</rscale>
<asrwt>0</asrwt>
<pdfrwt beam="1">  1       21 0.15455371E-01 0.42987938E+03</pdfrwt>
<pdfrwt beam="2">  1        1 0.14935162E+00 0.42987938E+03</pdfrwt>
<totfact> 0.66445024E+03</totfact>
</mgrwt>
</event>
<event>
 5    0  0.2396052E+000  0.4050442E+03  0.7546771E-02  0.1042047E+00
         21   -1    0    0  501  502  0.00000000000E+00  0.00000000000E+00  0.98477930274E+03  0.98477930274E+03  0.00000000000E+00 0. -1.
         -3   -1    0    0    0  501 -0.00000000000E+00 -0.00000000000E+00 -0.66212581831E+02  0.66212581831E+02  0.00000000000E+00 0.  1.
         25    1    1    2    0    0 -0.11930066359E+03  0.16084635273E+03  0.41211693082E+03  0.47494164082E+03  0.12500000000E+03 0.  0.
         21    1    1    2  503  502  0.89398504255E+02 -0.12386379283E+03  0.50593060244E+03  0.52848851097E+03  0.00000000000E+00 0. -1.
         -3    1    1    2    0  503  0.29902159339E+02 -0.36982559896E+02  0.51918765197E+00  0.47561732784E+02  0.00000000000E+00 0.  1.
<mgrwt>
<rscale>  4 0.40504419E+03</rscale>
<asrwt>0</asrwt>
<pdfrwt beam="1">  1       21 0.15150450E+00 0.40504419E+03</pdfrwt>
<pdfrwt beam="2">  1       -3 0.10186552E-01 0.40504419E+03</pdfrwt>
<totfact> 0.98622061E+02</totfact>
</mgrwt>
</event>
<event>
 5    0  0.2396052E+000  0.7233388E+03  0.7546771E-02  0.9678132E-01
         21   -1    0    0  501  502  0.00000000000E+00  0.00000000000E+00  0.33239055345E+03  0.33239055345E+03  0.00000000000E+00 0.  1.
          1   -1    0    0  503    0 -0.00000000000E+00 -0.00000000000E+00 -0.77723849064E+03  0.77723849064E+03  0.00000000000E+00 0.  1.
         25    1    1    2    0    0 -0.13596870748E+03  0.19986399842E+03 -0.19558729147E+03  0.33513056540E+03  0.12500000000E+03 0.  0.
         21    1    1    2  503  502  0.21323747954E+03 -0.31368547396E+03  0.10574855434E+03  0.39376586444E+03  0.00000000000E+00 0.  1.
          1    1    1    2  501    0 -0.77268772059E+02  0.11382147554E+03 -0.35500920006E+03  0.38073261426E+03  0.00000000000E+00 0.  1.
<mgrwt>
<rscale>  4 0.72333879E+03</rscale>
<asrwt>0</asrwt>
<pdfrwt beam="1">  1       21 0.51137009E-01 0.72333879E+03</pdfrwt>
<pdfrwt beam="2">  1        1 0.11957515E+00 0.72333879E+03</pdfrwt>
<totfact> 0.84712441E+02</totfact>
</mgrwt>
</event>
<event>
 5    0  0.2396052E+000  0.3849278E+03  0.7546771E-02  0.1049127E+00
          1   -1    0    0  503    0 -0.00000000000E+00  0.00000000000E+00  0.28264673539E+04  0.28264673539E+04  0.00000000000E+00 0.  1.
         21   -1    0    0  501  502  0.00000000000E+00 -0.00000000000E+00 -0.57066628880E+02  0.57066628880E+02  0.00000000000E+00 0.  1.
         25    1    1    2    0    0 -0.14704047449E+03 -0.17284221079E+03  0.27727040565E+03  0.37947227674E+03  0.12500000000E+03 0.  0.
         21    1    1    2  503  502  0.43092778376E+02  0.47392440200E+02  0.35516602771E+03  0.36089602128E+03  0.00000000000E+00 0. -1.
          1    1    1    2  501    0  0.10394769611E+03  0.12544977059E+03  0.21369642916E+04  0.21431656847E+04  0.00000000000E+00 0.  1.
<mgrwt>
<rscale>  4 0.38492775E+03</rscale>
<asrwt>0</asrwt>
<pdfrwt beam="1">  1       21 0.87794835E-02 0.38492775E+03</pdfrwt>
<pdfrwt beam="2">  1        1 0.43484102E+00 0.38492775E+03</pdfrwt>
<totfact> 0.10290444E+03</totfact>
</mgrwt>
</event>
<event>
 5    0  0.2396052E+000  0.5660883E+03  0.7546771E-02  0.9978372E-01
          2   -1    0    0  503    0 -0.00000000000E+00  0.00000000000E+00  0.16964361587E+04  0.16964361587E+04  0.00000000000E+00 0. -1.
         21   -1    0    0  501  502  0.00000000000E+00 -0.00000000000E+00 -0.15579605767E+04  0.15579605767E+04  0.00000000000E+00 0.  1.
         25    1    1    2    0    0 -0.21300393676E+03 -0.80907461969E+02 -0.34505941944E+03  0.43198113086E+03  0.12500000000E+03 0.  0.
         21    1    1    2  503  502  0.18616163888E+03  0.51144424433E+02 -0.11612266184E+04  0.11771657348E+04  0.00000000000E+00 0.  1.
          2    1    1    2  501    0  0.26842297880E+02  0.29763037536E+02  0.16447616199E+04  0.16452498697E+04  0.00000000000E+00 0. -1.
<mgrwt>
<rscale>  4 0.56608834E+03</rscale>
<asrwt>0</asrwt>
<pdfrwt beam="1">  1       21 0.23968624E+00 0.56608834E+03</pdfrwt>
<pdfrwt beam="2">  1        2 0.26099018E+00 0.56608834E+03</pdfrwt>
<totfact> 0.78619396E+00</totfact>
</mgrwt>
</event>
<event>
 5    0  0.2396052E+000  0.6032645E+03  0.7546771E-02  0.9898656E-01
          2   -1    0    0  503    0 -0.00000000000E+00  0.00000000000E+00  0.87800419989E+03  0.87800419989E+03  0.00000000000E+00 0.  1.
         21   -1    0    0  501  502  0.00000000000E+00 -0.00000000000E+00 -0.19688864555E+03  0.19688864555E+03  0.00000000000E+00 0.  1.
         25    1    1    2    0    0 -0.24401845272E+03 -0.74722555858E+02  0.38626598548E+03  0.47953610621E+03  0.12500000000E+03 0.  0.
         21    1    1    2  503  502  0.15253202285E+03  0.42296718159E+02 -0.10100992954E+03  0.18777123376E+03  0.00000000000E+00 0.  1.
          2    1    1    2  501    0  0.91486429862E+02  0.32425837698E+02  0.39585949840E+03  0.40758550547E+03  0.00000000000E+00 0.  1.
<mgrwt>
<rscale>  4 0.60326451E+03</rscale>
<asrwt>0</asrwt>
<pdfrwt beam="1">  1       21 0.30290561E-01 0.60326451E+03</pdfrwt>
<pdfrwt beam="2">  1        2 0.13507757E+00 0.60326451E+03</pdfrwt>
<totfact> 0.37959356E+03</totfact>
</mgrwt>
</event>
<event>
 5    0  0.2396052E+000  0.5380340E+03  0.7546771E-02  0.1004302E+00
          2   -1    0    0  503    0 -0.00000000000E+00  0.00000000000E+00  0.16847528191E+04  0.16847528191E+04  0.00000000000E+00 0. -1.
         21   -1    0    0  501  502  0.00000000000E+00 -0.00000000000E+00 -0.78032527923E+02  0.78032527923E+02  0.00000000000E+00 0. -1.
         25    1    1    2    0    0  0.11939862437E+03  0.18018780093E+03  0.59852101369E+03  0.64851837209E+03  0.12500000000E+03 0.  0.
         21    1    1    2  503  502 -0.14008032422E+03 -0.21332558959E+03  0.25746427068E+03  0.36251642043E+03  0.00000000000E+00 0. -1.
          2    1    1    2  501    0  0.20681699843E+02  0.33137788659E+02  0.75073500678E+03  0.75175055447E+03  0.00000000000E+00 0. -1.
<mgrwt>
<rscale>  4 0.53803396E+03</rscale>
<asrwt>0</asrwt>
<pdfrwt beam="1">  1       21 0.12005006E-01 0.53803396E+03</pdfrwt>
<pdfrwt beam="2">  1        2 0.25919271E+00 0.53803396E+03</pdfrwt>
<totfact> 0.75527888E+03</totfact>
</mgrwt>
</event>
<event>
 5    0  0.2396052E+000  0.4639602E+03  0.7546771E-02  0.1023639E+00
         21   -1    0    0  501  502  0.00000000000E+00  0.00000000000E+00  0.72202143553E+02  0.72202143553E+02  0.00000000000E+00 0.  1.
          1   -1    0    0  503    0 -0.00000000000E+00 -0.00000000000E+00 -0.18364141771E+04  0.18364141771E+04  0.00000000000E+00 0.  1.
         25    1    1    2    0    0  0.23904939657E+03 -0.99522245112E+01 -0.30007979345E+03  0.40362921501E+03  0.12500000000E+03 0.  0.
         21    1    1    2  503  502 -0.17688977151E+03 -0.10426925588E+02 -0.38440331141E+03  0.42327841648E+03  0.00000000000E+00 0.  1.
          1    1    1    2  501    0 -0.62159625058E+02  0.20379150100E+02 -0.10797289287E+04  0.10817086892E+04  0.00000000000E+00 0.  1.
<mgrwt>
<rscale>  4 0.46396025E+03</rscale>
<asrwt>0</asrwt>
<pdfrwt beam="1">  1       21 0.11108022E-01 0.46396025E+03</pdfrwt>
<pdfrwt beam="2">  1        1 0.28252526E+00 0.46396025E+03</pdfrwt>
<totfact> 0.30348595E+03</totfact>
</mgrwt>
</event>
<event>
 5    0  0.2396052E+000  0.5660150E+03  0.7546771E-02  0.9978536E-01
         21   -1    0    0  501  502  0.00000000000E+00  0.00000000000E+00  0.14547346240E+03  0.14547346240E+03  0.00000000000E+00 0.  1.
          2   -1    0    0  503    0 -0.00000000000E+00 -0.00000000000E+00 -0.22103392042E+04  0.22103392042E+04  0.00000000000E+00 0.  1.
         25    1    1    2    0    0  0.27371019114E+03  0.74130571696E+02 -0.52978710738E+03  0.61376867755E+03  0.12500000000E+03 0.  0.
         21    1    1    2  503  502  0.16212930218E+03  0.15352340379E+03 -0.14170402386E+03  0.26445297600E+03  0.00000000000E+00 0.  1.
          2    1    1    2  501    0 -0.43583949332E+03 -0.22765397548E+03 -0.13933746105E+04  0.14775910130E+04  0.00000000000E+00 0.  1.
<mgrwt>
<rscale>  4 0.56601496E+03</rscale>
<asrwt>0</asrwt>
<pdfrwt beam="1">  1       21 0.22380532E-01 0.56601496E+03</pdfrwt>
<pdfrwt beam="2">  1        2 0.34005220E+00 0.56601496E+03</pdfrwt>
<totfact> 0.12114609E+03</totfact>
</mgrwt>
</event>
<event>
 5    0  0.2396052E+000  0.5321071E+03  0.7546771E-02  0.1005722E+00
         21   -1    0    0  501  502  0.00000000000E+00  0.00000000000E+00  0.40532679145E+03  0.40532679145E+03  0.00000000000E+00 0. -1.
          1   -1    0    0  503    0 -0.00000000000E+00 -0.00000000000E+00 -0.10372983235E+04  0.10372983235E+04  0.00000000000E+00 0. -1.
         25    1    1    2    0    0  0.24548413782E+03 -0.39620843997E+02  0.21298222158E+02  0.27912521826E+03  0.12500000000E+03 0.  0.
         21    1    1    2  503  502 -0.19450230715E+03  0.96211979162E+02  0.20698214901E+03  0.29988248103E+03  0.00000000000E+00 0. -1.
          1    1    1    2  501    0 -0.50981830666E+02 -0.56591135165E+02 -0.86025190317E+03  0.86361741561E+03  0.00000000000E+00 0. -1.
<mgrwt>
<rscale>  4 0.53210712E+03</rscale>
<asrwt>0</asrwt>
<pdfrwt beam="1">  1       21 0.62357968E-01 0.53210712E+03</pdfrwt>
<pdfrwt beam="2">  1        1 0.15958436E+00 0.53210712E+03</pdfrwt>
<totfact> 0.35067988E+02</totfact>
</mgrwt>
</event>
<event>
 5    0  0.2396052E+000  0.5824355E+03  0.7546771E-02  0.9942532E-01
          2   -1    0    0  503    0 -0.00000000000E+00  0.00000000000E+00  0.13537139684E+03  0.13537139684E+03  0.00000000000E+00 0. -1.
         21   -1    0    0  501  502  0.00000000000E+00 -0.00000000000E+00 -0.12615630644E+04  0.12615630644E+04  0.00000000000E+00 0. -1.
         25    1    1    2    0    0  0.22935427280E+03  0.16491239763E+03 -0.80661827924E+03  0.86374621837E+03  0.12500000000E+03 0.  0.
         21    1    1    2  503  502 -0.17509690910E+03 -0.18562912136E+03 -0.37455031961E+03  0.45321632826E+03  0.00000000000E+00 0. -1.
          2    1    1    2  501    0 -0.54257363697E+02  0.20716723728E+02  0.54976931279E+02  0.79971914634E+02  0.00000000000E+00 0. -1.
<mgrwt>
<rscale>  4 0.58243548E+03</rscale>
<asrwt>0</asrwt>
<pdfrwt beam="1">  1       21 0.19408663E+00 0.58243548E+03</pdfrwt>
<pdfrwt beam="2">  1        2 0.20826368E-01 0.58243548E+03</pdfrwt>
<totfact> 0.40746282E+02</totfact>
</mgrwt>
</event>
<event>
 5    0  0.2396052E+000  0.6173516E+03  0.7546771E-02  0.9870047E-01
          1   -1    0    0  503    0 -0.00000000000E+00  0.00000000000E+00  0.20590225529E+04  0.20590225529E+04  0.00000000000E+00 0. -1.
         21   -1    0    0  501  502  0.00000000000E+00 -0.00000000000E+00 -0.67759030512E+02  0.67759030512E+02  0.00000000000E+00 0. -1.
         25    1    1    2    0    0  0.24248750359E+03  0.54338540277E+02  0.10999396613E+04  0.11345682548E+04  0.12500000000E+03 0.  0.
         21    1    1    2  503  502 -0.24304791375E+03 -0.21733967929E+02  0.24750025465E+03  0.34756442538E+03  0.00000000000E+00 0. -1.
          1    1    1    2  501    0  0.56041016183E+00 -0.32604572348E+02  0.64382360644E+03  0.64464890321E+03  0.00000000000E+00 0. -1.
<mgrwt>
<rscale>  4 0.61735156E+03</rscale>
<asrwt>0</asrwt>
<pdfrwt beam="1">  1       21 0.10424468E-01 0.61735156E+03</pdfrwt>
<pdfrwt beam="2">  1        1 0.31677265E+00 0.61735156E+03</pdfrwt>
<totfact> 0.23546061E+03</totfact>
</mgrwt>
</event>
<event>
 5    0  0.2396052E+000  0.5223816E+03  0.7546771E-02  0.1008097E+00
          2   -1    0    0  503    0 -0.00000000000E+00  0.00000000000E+00  0.38780190405E+04  0.38780190405E+04  0.00000000000E+00 0.  1.
         21   -1    0    0  501  502  0.00000000000E+00 -0.00000000000E+00 -0.88031157139E+02  0.88031157139E+02  0.00000000000E+00 0.  1.
         25    1    1    2    0    0 -0.21914338385E+03  0.17684280879E+03  0.22314684899E+03  0.38041650584E+03  0.12500000000E+03 0.  0.
         21    1    1    2  503  502  0.10869050054E+03  0.60777480698E+00  0.49997297771E+03  0.51165122177E+03  0.00000000000E+00 0. -1.
          2    1    1    2  501    0  0.11045288331E+03 -0.17745058360E+03  0.30668680567E+04  0.30739824701E+04  0.00000000000E+00 0.  1.
<mgrwt>
<rscale>  4 0.52238161E+03</rscale>
<asrwt>0</asrwt>
<pdfrwt beam="1">  1       21 0.13543258E-01 0.52238161E+03</pdfrwt>
<pdfrwt beam="2">  1        2 0.59661818E+00 0.52238161E+03</pdfrwt>
<totfact> 0.28899145E+02</totfact>
</mgrwt>
</event>
<event>
 5    0  0.2396052E+000  0.4786119E+03  0.7546771E-02  0.1019517E+00
         21   -1    0    0  501  502  0.00000000000E+00  0.00000000000E+00  0.40823330667E+02  0.40823330667E+02  0.00000000000E+00 0. -1.
          2   -1    0    0  503    0 -0.00000000000E+00 -0.00000000000E+00 -0.23512337137E+04  0.23512337137E+04  0.00000000000E+00 0. -1.
         25    1    1    2    0    0  0.12761597745E+03 -0.17710297838E+03 -0.11702193203E+04  0.11969501077E+04  0.12500000000E+03 0.  0.
         21    1    1    2  503  502 -0.12401848589E+03  0.11043307035E+03 -0.23664118065E+03  0.28909357698E+03  0.00000000000E+00 0.  1.
          2    1    1    2  501    0 -0.35974915652E+01  0.66669908035E+02 -0.90354988204E+03  0.90601335968E+03  0.00000000000E+00 0. -1.
<mgrwt>
<rscale>  4 0.47861191E+03</rscale>
<asrwt>0</asrwt>
<pdfrwt beam="1">  1       21 0.62805125E-02 0.47861191E+03</pdfrwt>
<pdfrwt beam="2">  1        2 0.36172826E+00 0.47861191E+03</pdfrwt>
<totfact> 0.10584422E+04</totfact>
</mgrwt>
</event>
<event>
 5    0  0.2396052E+000  0.4769771E+03  0.7546771E-02  0.1019969E+00
         21   -1    0    0  501  502  0.00000000000E+00  0.00000000000E+00  0.17682148997E+03  0.17682148997E+03  0.00000000000E+00 0. -1.
         -3   -1    0    0    0  501 -0.00000000000E+00 -0.00000000000E+00 -0.14916756799E+04  0.14916756799E+04  0.00000000000E+00 0. -1.
         25    1    1    2    0    0 -0.63867971957E+01 -0.20284566633E+03 -0.20933609021E+03  0.31722823675E+03  0.12500000000E+03 0.  0.
         21    1    1    2  503  502  0.10979031649E+02  0.16950853698E+03  0.63812314756E+02  0.18145438755E+03  0.00000000000E+00 0. -1.
         -3    1    1    2    0  503 -0.45922344529E+01  0.33337129343E+02 -0.11693304145E+04  0.11698145456E+04  0.00000000000E+00 0. -1.
<mgrwt>
<rscale>  4 0.47697714E+03</rscale>
<asrwt>0</asrwt>
<pdfrwt beam="1">  1       21 0.27203306E-01 0.47697714E+03</pdfrwt>
<pdfrwt beam="2">  1       -3 0.22948857E+00 0.47697714E+03</pdfrwt>
<totfact> 0.63157932E+01</totfact>
</mgrwt>
</event>
<event>
 5    0  0.2396052E+000  0.3822500E+03  0.7546771E-02  0.1050105E+00
          2   -1    0    0  503    0 -0.00000000000E+00  0.00000000000E+00  0.13036479713E+04  0.13036479713E+04  0.00000000000E+00 0.  1.
         21   -1    0    0  501  502  0.00000000000E+00 -0.00000000000E+00 -0.23076368080E+03  0.23076368080E+03  0.00000000000E+00 0.  1.
         25    1    1    2    0    0 -0.22624655959E+03 -0.18538161519E+02 -0.11695891465E+03  0.28431594552E+03  0.12500000000E+03 0.  0.
         21    1    1    2  503  502 -0.46090903122E+02 -0.48402726430E+02  0.74731259969E+02  0.10025944590E+03  0.00000000000E+00 0. -1.
          2    1    1    2  501    0  0.27233746271E+03  0.66940887949E+02  0.11151119452E+04  0.11498362607E+04  0.00000000000E+00 0.  1.
<mgrwt>
<rscale>  4 0.38224999E+03</rscale>
<asrwt>0</asrwt>
<pdfrwt beam="1">  1       21 0.35502106E-01 0.38224999E+03</pdfrwt>
<pdfrwt beam="2">  1        2 0.20056122E+00 0.38224999E+03</pdfrwt>
<totfact> 0.15856653E+03</totfact>
</mgrwt>
</event>
<event>
 5    0  0.2396052E+000  0.4753235E+03  0.7546771E-02  0.1020428E+00
          2   -1    0    0  503    0 -0.00000000000E+00  0.00000000000E+00  0.68625551143E+03  0.68625551143E+03  0.00000000000E+00 0.  1.
         21   -1    0    0  501  502  0.00000000000E+00 -0.00000000000E+00 -0.34899229006E+03  0.34899229006E+03  0.00000000000E+00 0.  1.
         25    1    1    2    0    0  0.21264141329E+03 -0.36656628585E+02 -0.16313950882E+03  0.29799258112E+03  0.12500000000E+03 0.  0.
         21    1    1    2  503  502 -0.20377218733E+03  0.56293538028E+02 -0.23682398435E+02  0.21272734368E+03  0.00000000000E+00 0.  1.
          2    1    1    2  501    0 -0.88692259620E+01 -0.19636909442E+02  0.52408512862E+03  0.52452787668E+03  0.00000000000E+00 0.  1.
<mgrwt>
<rscale>  4 0.47532349E+03</rscale>
<asrwt>0</asrwt>
<pdfrwt beam="1">  1       21 0.53691122E-01 0.47532349E+03</pdfrwt>
<pdfrwt beam="2">  1        2 0.10557777E+00 0.47532349E+03</pdfrwt>
<totfact> 0.16295727E+03</totfact>
</mgrwt>
</event>
<event>
 5    0  0.2396052E+000  0.5549168E+03  0.7546771E-02  0.1000362E+00
          2   -1    0    0  503    0 -0.00000000000E+00  0.00000000000E+00  0.19163160610E+04  0.19163160610E+04  0.00000000000E+00 0.  1.
         21   -1    0    0  501  502  0.00000000000E+00 -0.00000000000E+00 -0.90068375614E+02  0.90068375614E+02  0.00000000000E+00 0.  1.
         25    1    1    2    0    0  0.25416409037E+03 -0.94787425700E+02  0.57126743527E+03  0.64463596201E+03  0.12500000000E+03 0.  0.
         21    1    1    2  503  502 -0.21292216076E+03  0.88225637007E+02  0.19772524034E+03  0.30366903075E+03  0.00000000000E+00 0.  1.
          2    1    1    2  501    0 -0.41241929613E+02  0.65617886924E+01  0.10572550097E+04  0.10580794438E+04  0.00000000000E+00 0.  1.
<mgrwt>
<rscale>  4 0.55491677E+03</rscale>
<asrwt>0</asrwt>
<pdfrwt beam="1">  1       21 0.13856675E-01 0.55491677E+03</pdfrwt>
<pdfrwt beam="2">  1        2 0.29481782E+00 0.55491677E+03</pdfrwt>
<totfact> 0.43376708E+03</totfact>
</mgrwt>
</event>
<event>
 5    0  0.2396052E+000  0.4080747E+03  0.7546771E-02  0.1041019E+00
          2   -1    0    0  503    0 -0.00000000000E+00  0.00000000000E+00  0.18085354134E+03  0.18085354134E+03  0.00000000000E+00 0. -1.
         21   -1    0    0  501  502  0.00000000000E+00 -0.00000000000E+00 -0.64024115445E+03  0.64024115445E+03  0.00000000000E+00 0.  1.
         25    1    1    2    0    0 -0.20464980854E+03  0.16618046050E+03 -0.39512877238E+03  0.49117129024E+03  0.12500000000E+03 0.  0.
         21    1    1    2  503  502  0.11448678638E+02 -0.10603008464E+03 -0.69872423081E+02  0.12749747683E+03  0.00000000000E+00 0. -1.
          2    1    1    2  501    0  0.19320112990E+03 -0.60150375861E+02  0.56135823528E+01  0.20242592872E+03  0.00000000000E+00 0. -1.
<mgrwt>
<rscale>  4 0.40807466E+03</rscale>
<asrwt>0</asrwt>
<pdfrwt beam="1">  1       21 0.98498639E-01 0.40807466E+03</pdfrwt>
<pdfrwt beam="2">  1        2 0.27823622E-01 0.40807466E+03</pdfrwt>
<totfact> 0.18706447E+03</totfact>
</mgrwt>
</event>
<event>
 5    0  0.2396052E+000  0.3995997E+03  0.7546771E-02  0.1043918E+00
         21   -1    0    0  501  502  0.00000000000E+00  0.00000000000E+00  0.37498925019E+03  0.37498925019E+03  0.00000000000E+00 0.  1.
          1   -1    0    0  503    0 -0.00000000000E+00 -0.00000000000E+00 -0.23063212029E+03  0.23063212029E+03  0.00000000000E+00 0.  1.
         25    1    1    2    0    0 -0.18057049468E+03  0.13615204539E+03  0.53799519107E+02  0.26393649098E+03  0.12500000000E+03 0.  0.
         21    1    1    2  503  502  0.10997532334E+03 -0.50202149045E+01  0.14592863771E+03  0.18279754267E+03  0.00000000000E+00 0.  1.
          1    1    1    2  501    0  0.70595171342E+02 -0.13113183048E+03 -0.55371026915E+02  0.15888733683E+03  0.00000000000E+00 0.  1.
<mgrwt>
<rscale>  4 0.39959975E+03</rscale>
<asrwt>0</asrwt>
<pdfrwt beam="1">  1       21 0.57690654E-01 0.39959975E+03</pdfrwt>
<pdfrwt beam="2">  1        1 0.35481865E-01 0.39959975E+03</pdfrwt>
<totfact> 0.35715908E+03</totfact>
</mgrwt>
</event>
<event>
 5    0  0.2396052E+000  0.6679546E+03  0.7546771E-02  0.9773660E-01
         21   -1    0    0  501  502  0.00000000000E+00  0.00000000000E+00  0.58587584565E+02  0.58587584565E+02  0.00000000000E+00 0. -1.
          1   -1    0    0  503    0 -0.00000000000E+00 -0.00000000000E+00 -0.23972135007E+04  0.23972135007E+04  0.00000000000E+00 0.  1.
         25    1    1    2    0    0 -0.17018501893E+03  0.16601463411E+03 -0.31052504688E+03  0.41057837759E+03  0.12500000000E+03 0.  0.
         21    1    1    2  503  502  0.15012310456E+03 -0.17087049928E+03 -0.15420819910E+04  0.15587657107E+04  0.00000000000E+00 0.  1.
          1    1    1    2  501    0  0.20061914363E+02  0.48558651740E+01 -0.48601887824E+03  0.48645699691E+03  0.00000000000E+00 0.  1.
<mgrwt>
<rscale>  4 0.66795457E+03</rscale>
<asrwt>0</asrwt>
<pdfrwt beam="1">  1       21 0.90134783E-02 0.66795457E+03</pdfrwt>
<pdfrwt beam="2">  1        1 0.36880192E+00 0.66795457E+03</pdfrwt>
<totfact> 0.18020947E+03</totfact>
</mgrwt>
</event>
<event>
 5    0  0.2396052E+000  0.7207479E+03  0.7546771E-02  0.9682394E-01
          2   -1    0    0  503    0 -0.00000000000E+00  0.00000000000E+00  0.15068988835E+04  0.15068988835E+04  0.00000000000E+00 0.  1.
         21   -1    0    0  501  502  0.00000000000E+00 -0.00000000000E+00 -0.16315426330E+03  0.16315426330E+03  0.00000000000E+00 0. -1.
         25    1    1    2    0    0  0.17720904979E+03 -0.18377089250E+03  0.61522559062E+03  0.67771846339E+03  0.12500000000E+03 0.  0.
         21    1    1    2  503  502 -0.18019467255E+03  0.21727587444E+03  0.19961855655E+02  0.28297950687E+03  0.00000000000E+00 0. -1.
          2    1    1    2  501    0  0.29856227578E+01 -0.33504981939E+02  0.70855717396E+03  0.70935517657E+03  0.00000000000E+00 0.  1.
<mgrwt>
<rscale>  4 0.72074787E+03</rscale>
<asrwt>0</asrwt>
<pdfrwt beam="1">  1       21 0.25100657E-01 0.72074787E+03</pdfrwt>
<pdfrwt beam="2">  1        2 0.23183059E+00 0.72074787E+03</pdfrwt>
<totfact> 0.22769899E+03</totfact>
</mgrwt>
</event>
<event>
 5    0  0.2396052E+000  0.4410073E+03  0.7546771E-02  0.1030438E+00
          2   -1    0    0  503    0 -0.00000000000E+00  0.00000000000E+00  0.11846094686E+04  0.11846094686E+04  0.00000000000E+00 0.  1.
         21   -1    0    0  501  502  0.00000000000E+00 -0.00000000000E+00 -0.31745742167E+03  0.31745742167E+03  0.00000000000E+00 0. -1.
         25    1    1    2    0    0  0.40659179933E+02 -0.24413470430E+03 -0.23852395309E+03  0.36575073336E+03  0.12500000000E+03 0.  0.
         21    1    1    2  503  502  0.21490969159E+01  0.43932336899E+02  0.89525300518E+02  0.99746921135E+02  0.00000000000E+00 0.  1.
          2    1    1    2  501    0 -0.42808276849E+02  0.20020236740E+03  0.10161506995E+04  0.10365692357E+04  0.00000000000E+00 0.  1.
<mgrwt>
<rscale>  4 0.44100733E+03</rscale>
<asrwt>0</asrwt>
<pdfrwt beam="1">  1       21 0.48839604E-01 0.44100733E+03</pdfrwt>
<pdfrwt beam="2">  1        2 0.18224761E+00 0.44100733E+03</pdfrwt>
<totfact> 0.94358805E+02</totfact>
</mgrwt>
</event>
<event>
 5    0  0.2396052E+000  0.6314118E+03  0.7546771E-02  0.9842298E-01
         21   -1    0    0  501  502  0.00000000000E+00  0.00000000000E+00  0.10358466957E+03  0.10358466957E+03  0.00000000000E+00 0.  1.
          2   -1    0    0  503    0 -0.00000000000E+00 -0.00000000000E+00 -0.13273037640E+04  0.13273037640E+04  0.00000000000E+00 0.  1.
         25    1    1    2    0    0  0.29605472254E+03 -0.12275563089E+03 -0.45143652545E+03  0.56757138772E+03  0.12500000000E+03 0.  0.
         21    1    1    2  503  502 -0.26329148159E+03  0.11398052813E+03 -0.41552340222E+03  0.50494916859E+03  0.00000000000E+00 0.  1.
          2    1    1    2  501    0 -0.32763240949E+02  0.87751027592E+01 -0.35675916678E+03  0.35836787728E+03  0.00000000000E+00 0.  1.
<mgrwt>
<rscale>  4 0.63141177E+03</rscale>
<asrwt>0</asrwt>
<pdfrwt beam="1">  1       21 0.15936104E-01 0.63141177E+03</pdfrwt>
<pdfrwt beam="2">  1        2 0.20420056E+00 0.63141177E+03</pdfrwt>
<totfact> 0.69536017E+03</totfact>
</mgrwt>
</event>
<event>
 5    0  0.2396052E+000  0.6018205E+03  0.7546771E-02  0.9901636E-01
          3   -1    0    0  503    0 -0.00000000000E+00  0.00000000000E+00  0.75857049986E+03  0.75857049986E+03  0.00000000000E+00 0. -1.
         21   -1    0    0  501  502  0.00000000000E+00 -0.00000000000E+00 -0.33318110070E+03  0.33318110070E+03  0.00000000000E+00 0. -1.
         25    1    1    2    0    0 -0.25800818243E+03 -0.30601763907E+02 -0.15041190785E+03  0.32519752794E+03  0.12500000000E+03 0.  0.
         21    1    1    2  503  502  0.25764593893E+03  0.61247535589E+02  0.89873006387E+02  0.27966023625E+03  0.00000000000E+00 0. -1.
          3    1    1    2  501    0  0.36224350013E+00 -0.30645771682E+02  0.48592830063E+03  0.48689383637E+03  0.00000000000E+00 0. -1.
<mgrwt>
<rscale>  4 0.60182053E+03</rscale>
<asrwt>0</asrwt>
<pdfrwt beam="1">  1       21 0.51258631E-01 0.60182053E+03</pdfrwt>
<pdfrwt beam="2">  1        3 0.11670315E+00 0.60182053E+03</pdfrwt>
<totfact> 0.10408740E+02</totfact>
</mgrwt>
</event>
<event>
 5    0  0.2396052E+000  0.6132340E+03  0.7546771E-02  0.9878324E-01
         -1   -1    0    0    0  501 -0.00000000000E+00  0.00000000000E+00  0.93155700900E+03  0.93155700900E+03  0.00000000000E+00 0.  1.
         21   -1    0    0  501  502  0.00000000000E+00 -0.00000000000E+00 -0.23999337442E+03  0.23999337442E+03  0.00000000000E+00 0.  1.
         25    1    1    2    0    0  0.51240168572E+02 -0.25542117099E+03  0.17004215810E+03  0.33526834774E+03  0.12500000000E+03 0.  0.
         21    1    1    2  503  502 -0.94068817925E+02  0.28151901517E+03 -0.15213166147E+02  0.29720925092E+03  0.00000000000E+00 0.  1.
         -1    1    1    2    0  503  0.42828649353E+02 -0.26097844189E+02  0.53673464262E+03  0.53907278476E+03  0.00000000000E+00 0.  1.
<mgrwt>
<rscale>  4 0.61323397E+03</rscale>
<asrwt>0</asrwt>
<pdfrwt beam="1">  1       21 0.36922058E-01 0.61323397E+03</pdfrwt>
<pdfrwt beam="2">  1       -1 0.14331646E+00 0.61323397E+03</pdfrwt>
<totfact> 0.25108999E+02</totfact>
</mgrwt>
</event>
<event>
 5    0  0.2396052E+000  0.4637702E+03  0.7546771E-02  0.1023693E+00
         -2   -1    0    0    0  501 -0.00000000000E+00  0.00000000000E+00  0.19806569821E+03  0.19806569821E+03  0.00000000000E+00 0. -1.
         21   -1    0    0  501  502  0.00000000000E+00 -0.00000000000E+00 -0.88587733116E+03  0.88587733116E+03  0.00000000000E+00 0. -1.
         25    1    1    2    0    0  0.15851177795E+03 -0.13138290223E+03 -0.47433826718E+03  0.53198612995E+03  0.12500000000E+03 0.  0.
         21    1    1    2  503  502 -0.18347816384E+03  0.12288674473E+03 -0.34948790317E+03  0.41340921990E+03  0.00000000000E+00 0. -1.
         -2    1    1    2    0  503  0.24966385881E+02  0.84961575054E+01  0.13601453740E+03  0.13854767952E+03  0.00000000000E+00 0. -1.
<mgrwt>
<rscale>  4 0.46377021E+03</rscale>
<asrwt>0</asrwt>
<pdfrwt beam="1">  1       21 0.13628882E+00 0.46377021E+03</pdfrwt>
<pdfrwt beam="2">  1       -2 0.30471646E-01 0.46377021E+03</pdfrwt>
<totfact> 0.27620845E+02</totfact>
</mgrwt>
</event>
<event>
 5    0  0.2396052E+000  0.4357121E+03  0.7546771E-02  0.1032071E+00
          1   -1    0    0  503    0 -0.00000000000E+00  0.00000000000E+00  0.12149440984E+04  0.12149440984E+04  0.00000000000E+00 0. -1.
         21   -1    0    0  501  502  0.00000000000E+00 -0.00000000000E+00 -0.47365167159E+02  0.47365167159E+02  0.00000000000E+00 0. -1.
         25    1    1    2    0    0 -0.72399653956E+02 -0.18722644792E+03  0.37463637909E+03  0.44302693962E+03  0.12500000000E+03 0.  0.
         21    1    1    2  503  502  0.44569041301E+02  0.16232546378E+03  0.62844053338E+03  0.65059469689E+03  0.00000000000E+00 0.  1.
          1    1    1    2  501    0  0.27830612654E+02  0.24900984140E+02  0.16450201873E+03  0.16868762900E+03  0.00000000000E+00 0. -1.
<mgrwt>
<rscale>  4 0.43571205E+03</rscale>
<asrwt>0</asrwt>
<pdfrwt beam="1">  1       21 0.72869497E-02 0.43571205E+03</pdfrwt>
<pdfrwt beam="2">  1        1 0.18691445E+00 0.43571205E+03</pdfrwt>
<totfact> 0.17058793E+04</totfact>
</mgrwt>
</event>
<event>
 5    0  0.2396052E+000  0.4026307E+03  0.7546771E-02  0.1042873E+00
         -4   -1    0    0    0  501 -0.00000000000E+00  0.00000000000E+00  0.20786120631E+03  0.20786120631E+03  0.00000000000E+00 0.  1.
         21   -1    0    0  501  502  0.00000000000E+00 -0.00000000000E+00 -0.34294716068E+03  0.34294716068E+03  0.00000000000E+00 0.  1.
         25    1    1    2    0    0  0.10685833661E+03  0.18624865365E+03 -0.81356796828E+02  0.26144061176E+03  0.12500000000E+03 0.  0.
         21    1    1    2  503  502 -0.13946359772E+03 -0.59281667932E+02 -0.12986982809E+02  0.15209560469E+03  0.00000000000E+00 0.  1.
         -4    1    1    2    0  503  0.32605261115E+02 -0.12696698572E+03 -0.40742174733E+02  0.13727215055E+03  0.00000000000E+00 0.  1.
<mgrwt>
<rscale>  4 0.40263067E+03</rscale>
<asrwt>0</asrwt>
<pdfrwt beam="1">  1       21 0.52761101E-01 0.40263067E+03</pdfrwt>
<pdfrwt beam="2">  1       -4 0.31978648E-01 0.40263067E+03</pdfrwt>
<totfact> 0.13437489E+03</totfact>
</mgrwt>
</event>
<event>
 5    0  0.2396052E+000  0.9042423E+03  0.7546771E-02  0.9420294E-01
          2   -1    0    0  503    0 -0.00000000000E+00  0.00000000000E+00  0.22334150517E+04  0.22334150517E+04  0.00000000000E+00 0. -1.
         21   -1    0    0  501  502  0.00000000000E+00 -0.00000000000E+00 -0.12525052075E+03  0.12525052075E+03  0.00000000000E+00 0. -1.
         25    1    1    2    0    0  0.29909578245E+02  0.27646259127E+03  0.14705130655E+04  0.15017855450E+04  0.12500000000E+03 0.  0.
         21    1    1    2  503  502 -0.26833199230E+02 -0.25371992883E+03  0.39365383277E+02  0.25815393909E+03  0.00000000000E+00 0. -1.
          2    1    1    2  501    0 -0.30763790157E+01 -0.22742662443E+02  0.59828608216E+03  0.59872608839E+03  0.00000000000E+00 0. -1.
<mgrwt>
<rscale>  4 0.90424226E+03</rscale>
<asrwt>0</asrwt>
<pdfrwt beam="1">  1       21 0.19269312E-01 0.90424226E+03</pdfrwt>
<pdfrwt beam="2">  1        2 0.34360229E+00 0.90424226E+03</pdfrwt>
<totfact> 0.14799640E+03</totfact>
</mgrwt>
</event>
<event>
 5    0  0.2396052E+000  0.5542464E+03  0.7546771E-02  0.1000516E+00
          2   -1    0    0  503    0 -0.00000000000E+00  0.00000000000E+00  0.11245431346E+04  0.11245431346E+04  0.00000000000E+00 0.  1.
         21   -1    0    0  501  502  0.00000000000E+00 -0.00000000000E+00 -0.17496611437E+03  0.17496611437E+03  0.00000000000E+00 0.  1.
         25    1    1    2    0    0  0.21481350088E+03 -0.10072231704E+03  0.53559724156E+03  0.59898182817E+03  0.12500000000E+03 0.  0.
         21    1    1    2  503  502  0.11294066705E+03  0.13030364049E+03  0.96837176188E+00  0.17244004970E+03  0.00000000000E+00 0.  1.
          2    1    1    2  501    0 -0.32775416792E+03 -0.29581323444E+02  0.41301140695E+03  0.52808737114E+03  0.00000000000E+00 0.  1.
<mgrwt>
<rscale>  4 0.55424639E+03</rscale>
<asrwt>0</asrwt>
<pdfrwt beam="1">  1       21 0.26917864E-01 0.55424639E+03</pdfrwt>
<pdfrwt beam="2">  1        2 0.17300663E+00 0.55424639E+03</pdfrwt>
<totfact> 0.33720618E+03</totfact>
</mgrwt>
</event>
<event>
 5    0  0.2396052E+000  0.4525350E+03  0.7546771E-02  0.1026969E+00
          2   -1    0    0  503    0 -0.00000000000E+00  0.00000000000E+00  0.15456609032E+04  0.15456609032E+04  0.00000000000E+00 0.  1.
         21   -1    0    0  501  502  0.00000000000E+00 -0.00000000000E+00 -0.66854880187E+02  0.66854880187E+02  0.00000000000E+00 0.  1.
         25    1    1    2    0    0  0.64041282483E+02  0.20317055843E+03  0.36515920343E+03  0.44084669164E+03  0.12500000000E+03 0.  0.
         21    1    1    2  503  502 -0.96621641856E+01 -0.20460865606E+03  0.34592602233E+03  0.40202347254E+03  0.00000000000E+00 0.  1.
          2    1    1    2  501    0 -0.54379118297E+02  0.14380976336E+01  0.76772079722E+03  0.76964561918E+03  0.00000000000E+00 0.  1.
<mgrwt>
<rscale>  4 0.45253499E+03</rscale>
<asrwt>0</asrwt>
<pdfrwt beam="1">  1       21 0.10285367E-01 0.45253499E+03</pdfrwt>
<pdfrwt beam="2">  1        2 0.23779396E+00 0.45253499E+03</pdfrwt>
<totfact> 0.12061108E+04</totfact>
</mgrwt>
</event>
<event>
 5    0  0.2396052E+000  0.4516967E+03  0.7546771E-02  0.1027217E+00
          4   -1    0    0  503    0 -0.00000000000E+00  0.00000000000E+00  0.17475961519E+03  0.17475961519E+03  0.00000000000E+00 0.  1.
         21   -1    0    0  501  502  0.00000000000E+00 -0.00000000000E+00 -0.15743948546E+04  0.15743948546E+04  0.00000000000E+00 0. -1.
         25    1    1    2    0    0  0.96338278413E+02 -0.25612859581E+03 -0.79360482932E+03  0.84871464380E+03  0.12500000000E+03 0.  0.
         21    1    1    2  503  502  0.65518529146E+02  0.11606876361E+03 -0.66515797937E+03  0.67838025699E+03  0.00000000000E+00 0. -1.
          4    1    1    2  501    0 -0.16185680756E+03  0.14005983219E+03  0.59127569262E+02  0.22205956902E+03  0.00000000000E+00 0.  1.
<mgrwt>
<rscale>  4 0.45169669E+03</rscale>
<asrwt>0</asrwt>
<pdfrwt beam="1">  1       21 0.24221459E+00 0.45169669E+03</pdfrwt>
<pdfrwt beam="2">  1        4 0.26886095E-01 0.45169669E+03</pdfrwt>
<totfact> 0.36357930E+01</totfact>
</mgrwt>
</event>
<event>
 5    0  0.2396052E+000  0.5006512E+03  0.7546771E-02  0.1013609E+00
          2   -1    0    0  503    0 -0.00000000000E+00  0.00000000000E+00  0.15071451767E+04  0.15071451767E+04  0.00000000000E+00 0. -1.
         21   -1    0    0  501  502  0.00000000000E+00 -0.00000000000E+00 -0.15954960557E+03  0.15954960557E+03  0.00000000000E+00 0. -1.
         25    1    1    2    0    0 -0.13263278949E+03 -0.24895864648E+03  0.70883859660E+03  0.77307762905E+03  0.12500000000E+03 0.  0.
         21    1    1    2  503  502  0.18626549020E+03 -0.15786082037E+02  0.59028855030E+03  0.61918059227E+03  0.00000000000E+00 0. -1.
          2    1    1    2  501    0 -0.53632700714E+02  0.26474472852E+03  0.48468424275E+02  0.27443656101E+03  0.00000000000E+00 0. -1.
<mgrwt>
<rscale>  4 0.50065119E+03</rscale>
<asrwt>0</asrwt>
<pdfrwt beam="1">  1       21 0.24546094E-01 0.50065119E+03</pdfrwt>
<pdfrwt beam="2">  1        2 0.23186848E+00 0.50065119E+03</pdfrwt>
<totfact> 0.24691688E+03</totfact>
</mgrwt>
</event>
<event>
 5    0  0.2396052E+000  0.4490052E+03  0.7546771E-02  0.1028019E+00
          1   -1    0    0  503    0 -0.00000000000E+00  0.00000000000E+00  0.18009272458E+04  0.18009272458E+04  0.00000000000E+00 0. -1.
         21   -1    0    0  501  502  0.00000000000E+00 -0.00000000000E+00 -0.51831002244E+02  0.51831002244E+02  0.00000000000E+00 0.  1.
         25    1    1    2    0    0  0.17778726971E+03  0.11179977167E+03  0.37483273124E+03  0.44747299207E+03  0.12500000000E+03 0.  0.
         21    1    1    2  503  502 -0.12825248631E+03 -0.13184129354E+03  0.56341788080E+03  0.59268080391E+03  0.00000000000E+00 0. -1.
          1    1    1    2  501    0 -0.49534783404E+02  0.20041521861E+02  0.81084563149E+03  0.81260445203E+03  0.00000000000E+00 0. -1.
<mgrwt>
<rscale>  4 0.44900524E+03</rscale>
<asrwt>0</asrwt>
<pdfrwt beam="1">  1       21 0.79740017E-02 0.44900524E+03</pdfrwt>
<pdfrwt beam="2">  1        1 0.27706568E+00 0.44900524E+03</pdfrwt>
<totfact> 0.58199752E+03</totfact>
</mgrwt>
</event>
<event>
 5    0  0.2396052E+000  0.5393167E+03  0.7546771E-02  0.1003997E+00
         -1   -1    0    0    0  501 -0.00000000000E+00  0.00000000000E+00  0.37446173013E+03  0.37446173013E+03  0.00000000000E+00 0. -1.
         21   -1    0    0  501  502  0.00000000000E+00 -0.00000000000E+00 -0.24465379821E+03  0.24465379821E+03  0.00000000000E+00 0.  1.
         25    1    1    2    0    0  0.27036075297E+03 -0.45677415829E+02  0.80687670755E+02  0.31195650863E+03  0.12500000000E+03 0.  0.
         21    1    1    2  503  502 -0.23206652083E+03  0.12992808982E+02 -0.59990527315E+01  0.23250735861E+03  0.00000000000E+00 0.  1.
         -1    1    1    2    0  503 -0.38294232147E+02  0.32684606848E+02  0.55119313894E+02  0.74651661098E+02  0.00000000000E+00 0. -1.
<mgrwt>
<rscale>  4 0.53931671E+03</rscale>
<asrwt>0</asrwt>
<pdfrwt beam="1">  1       21 0.37639046E-01 0.53931671E+03</pdfrwt>
<pdfrwt beam="2">  1       -1 0.57609497E-01 0.53931671E+03</pdfrwt>
<totfact> 0.18515756E+03</totfact>
</mgrwt>
</event>
<event>
 5    0  0.2396052E+000  0.3959455E+03  0.7546771E-02  0.1045193E+00
          1   -1    0    0  503    0 -0.00000000000E+00  0.00000000000E+00  0.11734823336E+04  0.11734823336E+04  0.00000000000E+00 0. -1.
         21   -1    0    0  501  502  0.00000000000E+00 -0.00000000000E+00 -0.27110132675E+03  0.27110132675E+03  0.00000000000E+00 0.  1.
         25    1    1    2    0    0 -0.18904731200E+03  0.20319427338E+03 -0.14191160533E+03  0.33584327095E+03  0.12500000000E+03 0.  0.
         21    1    1    2  503  502  0.63707154672E+02 -0.37964684424E+00  0.37121535399E+02  0.73734348024E+02  0.00000000000E+00 0. -1.
          1    1    1    2  501    0  0.12534015733E+03 -0.20281462654E+03  0.10071710768E+04  0.10350060414E+04  0.00000000000E+00 0. -1.
<mgrwt>
<rscale>  4 0.39594554E+03</rscale>
<asrwt>0</asrwt>
<pdfrwt beam="1">  1       21 0.41707897E-01 0.39594554E+03</pdfrwt>
<pdfrwt beam="2">  1        1 0.18053574E+00 0.39594554E+03</pdfrwt>
<totfact> 0.68288643E+02</totfact>
</mgrwt>
</event>
<event>
 5    0  0.2396052E+000  0.5508450E+03  0.7546771E-02  0.1001299E+00
         21   -1    0    0  501  502  0.00000000000E+00  0.00000000000E+00  0.18387764731E+03  0.18387764731E+03  0.00000000000E+00 0. -1.
          1   -1    0    0  503    0 -0.00000000000E+00 -0.00000000000E+00 -0.65840882617E+03  0.65840882617E+03  0.00000000000E+00 0. -1.
         25    1    1    2    0    0  0.31936937681E+03  0.84647295722E+02 -0.22053880812E+03  0.41644246830E+03  0.12500000000E+03 0.  0.
         21    1    1    2  503  502 -0.19524349799E+03 -0.27342107541E+02 -0.10401660363E+03  0.22290596265E+03  0.00000000000E+00 0.  1.
          1    1    1    2  501    0 -0.12412587882E+03 -0.57305188181E+02 -0.14997576712E+03  0.20293804253E+03  0.00000000000E+00 0. -1.
<mgrwt>
<rscale>  4 0.55084499E+03</rscale>
<asrwt>0</asrwt>
<pdfrwt beam="1">  1       21 0.28288869E-01 0.55084499E+03</pdfrwt>
<pdfrwt beam="2">  1        1 0.10129366E+00 0.55084499E+03</pdfrwt>
<totfact> 0.37887556E+03</totfact>
</mgrwt>
</event>
<event>
 5    0  0.2396052E+000  0.4602519E+03  0.7546771E-02  0.1024708E+00
          2   -1    0    0  503    0 -0.00000000000E+00  0.00000000000E+00  0.27514330431E+03  0.27514330431E+03  0.00000000000E+00 0.  1.
         21   -1    0    0  501  502  0.00000000000E+00 -0.00000000000E+00 -0.63139235237E+03  0.63139235237E+03  0.00000000000E+00 0.  1.
         25    1    1    2    0    0  0.12858694827E+03  0.29365616236E+03 -0.39672912543E+03  0.52515478092E+03  0.12500000000E+03 0.  0.
         21    1    1    2  503  502 -0.76452993676E+02 -0.80213782538E+02 -0.74372281890E+02  0.13345616308E+03  0.00000000000E+00 0. -1.
          2    1    1    2  501    0 -0.52133954593E+02 -0.21344237982E+03  0.11485235927E+03  0.24792471267E+03  0.00000000000E+00 0.  1.
<mgrwt>
<rscale>  4 0.46025193E+03</rscale>
<asrwt>0</asrwt>
<pdfrwt beam="1">  1       21 0.97137285E-01 0.46025193E+03</pdfrwt>
<pdfrwt beam="2">  1        2 0.42329739E-01 0.46025193E+03</pdfrwt>
<totfact> 0.12016048E+03</totfact>
</mgrwt>
</event>
<event>
 5    0  0.2396052E+000  0.4961089E+03  0.7546771E-02  0.1014800E+00
          2   -1    0    0  503    0 -0.00000000000E+00  0.00000000000E+00  0.95322991919E+03  0.95322991919E+03  0.00000000000E+00 0.  1.
         21   -1    0    0  501  502  0.00000000000E+00 -0.00000000000E+00 -0.86791234835E+02  0.86791234835E+02  0.00000000000E+00 0.  1.
         25    1    1    2    0    0 -0.22175814810E+03  0.13575421746E+02  0.54981163360E+03  0.60603531313E+03  0.12500000000E+03 0.  0.
         21    1    1    2  503  502  0.18126124662E+03 -0.47109125580E+02  0.10249893643E+03  0.21349693490E+03  0.00000000000E+00 0.  1.
          2    1    1    2  501    0  0.40496901481E+02  0.33533703834E+02  0.21412811432E+03  0.22048890599E+03  0.00000000000E+00 0.  1.
<mgrwt>
<rscale>  4 0.49610889E+03</rscale>
<asrwt>0</asrwt>
<pdfrwt beam="1">  1       21 0.13352498E-01 0.49610889E+03</pdfrwt>
<pdfrwt beam="2">  1        2 0.14665075E+00 0.49610889E+03</pdfrwt>
<totfact> 0.16463184E+04</totfact>
</mgrwt>
</event>
<event>
 5    0  0.2396052E+000  0.4182981E+03  0.7546771E-02  0.1037622E+00
          1   -1    0    0  503    0 -0.00000000000E+00  0.00000000000E+00  0.30494562595E+03  0.30494562595E+03  0.00000000000E+00 0. -1.
         21   -1    0    0  501  502  0.00000000000E+00 -0.00000000000E+00 -0.68068935543E+03  0.68068935543E+03  0.00000000000E+00 0.  1.
         25    1    1    2    0    0  0.88207502949E+02 -0.19438575704E+03 -0.57767344323E+03  0.62840909695E+03  0.12500000000E+03 0.  0.
         21    1    1    2  503  502 -0.40807413226E+02  0.93359484125E+02 -0.24498376795E+02  0.10479221687E+03  0.00000000000E+00 0. -1.
          1    1    1    2  501    0 -0.47400089723E+02  0.10102627291E+03  0.22642809055E+03  0.25243366755E+03  0.00000000000E+00 0. -1.
<mgrwt>
<rscale>  4 0.41829806E+03</rscale>
<asrwt>0</asrwt>
<pdfrwt beam="1">  1       21 0.10472144E+00 0.41829806E+03</pdfrwt>
<pdfrwt beam="2">  1        1 0.46914712E-01 0.41829806E+03</pdfrwt>
<totfact> 0.63261295E+02</totfact>
</mgrwt>
</event>
<event>
 5    0  0.2396052E+000  0.6105135E+03  0.7546771E-02  0.9883831E-01
         21   -1    0    0  501  502  0.00000000000E+00  0.00000000000E+00  0.50024681517E+03  0.50024681517E+03  0.00000000000E+00 0.  1.
          1   -1    0    0  503    0 -0.00000000000E+00 -0.00000000000E+00 -0.68308411785E+03  0.68308411785E+03  0.00000000000E+00 0. -1.
         25    1    1    2    0    0 -0.33880594484E+03 -0.26277099788E+03  0.28342831784E+02  0.44751132019E+03  0.12500000000E+03 0.  0.
         21    1    1    2  503  502 -0.33133508159E+02  0.10425988384E+03  0.15541486848E+03  0.19005718636E+03  0.00000000000E+00 0. -1.
          1    1    1    2  501    0  0.37193945299E+03  0.15851111404E+03 -0.36659500295E+03  0.54576242648E+03  0.00000000000E+00 0. -1.
<mgrwt>
<rscale>  4 0.61051348E+03</rscale>
<asrwt>0</asrwt>
<pdfrwt beam="1">  1       21 0.76961048E-01 0.61051348E+03</pdfrwt>
<pdfrwt beam="2">  1        1 0.10508986E+00 0.61051348E+03</pdfrwt>
<totfact> 0.42300953E+02</totfact>
</mgrwt>
</event>
<event>
 5    0  0.2396052E+000  0.4141752E+03  0.7546771E-02  0.1038979E+00
         21   -1    0    0  501  502  0.00000000000E+00  0.00000000000E+00  0.20056063675E+03  0.20056063675E+03  0.00000000000E+00 0. -1.
         -1   -1    0    0    0  501 -0.00000000000E+00 -0.00000000000E+00 -0.60043209195E+03  0.60043209195E+03  0.00000000000E+00 0. -1.
         25    1    1    2    0    0  0.56844871016E+02  0.29882367973E+03 -0.87471450151E+02  0.34029867105E+03  0.12500000000E+03 0.  0.
         21    1    1    2  503  502 -0.42515688009E+02 -0.73516401092E+02 -0.13308197019E+02  0.85961346338E+02  0.00000000000E+00 0.  1.
         -1    1    1    2    0  503 -0.14329183007E+02 -0.22530727864E+03 -0.29909180803E+03  0.37473271131E+03  0.00000000000E+00 0. -1.
<mgrwt>
<rscale>  4 0.41417516E+03</rscale>
<asrwt>0</asrwt>
<pdfrwt beam="1">  1       21 0.30855483E-01 0.41417516E+03</pdfrwt>
<pdfrwt beam="2">  1       -1 0.92374167E-01 0.41417516E+03</pdfrwt>
<totfact> 0.10684576E+03</totfact>
</mgrwt>
</event>
<event>
 5    0  0.2396052E+000  0.6180522E+03  0.7546771E-02  0.9868645E-01
         21   -1    0    0  501  502  0.00000000000E+00  0.00000000000E+00  0.17822563968E+04  0.17822563968E+04  0.00000000000E+00 0. -1.
          2   -1    0    0  503    0 -0.00000000000E+00 -0.00000000000E+00 -0.10303545172E+04  0.10303545172E+04  0.00000000000E+00 0. -1.
         25    1    1    2    0    0  0.20240120829E+03 -0.49597763339E+02  0.15348588186E+04  0.15539764413E+04  0.12500000000E+03 0.  0.
         21    1    1    2  503  502  0.58181884198E+02 -0.18376296537E+03  0.16150766664E+03  0.25147303130E+03  0.00000000000E+00 0.  1.
          2    1    1    2  501    0 -0.26058309249E+03  0.23336072871E+03 -0.94446460556E+03  0.10071614414E+04  0.00000000000E+00 0. -1.
<mgrwt>
<rscale>  4 0.61805222E+03</rscale>
<asrwt>0</asrwt>
<pdfrwt beam="1">  1       21 0.27419329E+00 0.61805222E+03</pdfrwt>
<pdfrwt beam="2">  1        2 0.15851608E+00 0.61805222E+03</pdfrwt>
<totfact> 0.11280002E+01</totfact>
</mgrwt>
</event>
<event>
 5    0  0.2396052E+000  0.4212422E+03  0.7546771E-02  0.1036663E+00
         21   -1    0    0  501  502  0.00000000000E+00  0.00000000000E+00  0.62351663973E+03  0.62351663973E+03  0.00000000000E+00 0. -1.
          4   -1    0    0  503    0 -0.00000000000E+00 -0.00000000000E+00 -0.68188607080E+03  0.68188607080E+03  0.00000000000E+00 0.  1.
         25    1    1    2    0    0  0.15131850506E+03 -0.26427376563E+03  0.32058050879E+03  0.45949404326E+03  0.12500000000E+03 0.  0.
         21    1    1    2  503  502 -0.57115838003E+02 -0.45381389010E+02  0.18322695086E+03  0.19721512351E+03  0.00000000000E+00 0.  1.
          4    1    1    2  501    0 -0.94202667055E+02  0.30965515464E+03 -0.56217689071E+03  0.64869354377E+03  0.00000000000E+00 0.  1.
<mgrwt>
<rscale>  4 0.42124218E+03</rscale>
<asrwt>0</asrwt>
<pdfrwt beam="1">  1       21 0.95925637E-01 0.42124218E+03</pdfrwt>
<pdfrwt beam="2">  1        4 0.10490555E+00 0.42124218E+03</pdfrwt>
<totfact> 0.27180464E+01</totfact>
</mgrwt>
</event>
<event>
 5    0  0.2396052E+000  0.9611990E+03  0.7546771E-02  0.9352156E-01
         -1   -1    0    0    0  501 -0.00000000000E+00  0.00000000000E+00  0.46685899595E+03  0.46685899595E+03  0.00000000000E+00 0. -1.
         21   -1    0    0  501  502  0.00000000000E+00 -0.00000000000E+00 -0.16782664479E+04  0.16782664479E+04  0.00000000000E+00 0. -1.
         25    1    1    2    0    0 -0.28050469546E+03  0.28161079356E+03 -0.26916459866E+03  0.49604647403E+03  0.12500000000E+03 0.  0.
         21    1    1    2  503  502  0.27045837928E+03 -0.22998457532E+03 -0.12692000458E+04  0.13179185848E+04  0.00000000000E+00 0. -1.
         -1    1    1    2    0  503  0.10046316187E+02 -0.51626218241E+02  0.32695719252E+03  0.33116038504E+03  0.00000000000E+00 0. -1.
<mgrwt>
<rscale>  4 0.96119897E+03</rscale>
<asrwt>0</asrwt>
<pdfrwt beam="1">  1       21 0.25819484E+00 0.96119897E+03</pdfrwt>
<pdfrwt beam="2">  1       -1 0.71824460E-01 0.96119897E+03</pdfrwt>
<totfact> 0.78208855E+00</totfact>
</mgrwt>
</event>
<event>
 5    0  0.2396052E+000  0.3706788E+03  0.7546771E-02  0.1054434E+00
          1   -1    0    0  503    0 -0.00000000000E+00  0.00000000000E+00  0.12443445752E+03  0.12443445752E+03  0.00000000000E+00 0. -1.
         21   -1    0    0  501  502  0.00000000000E+00 -0.00000000000E+00 -0.56440109129E+03  0.56440109129E+03  0.00000000000E+00 0. -1.
         25    1    1    2    0    0  0.20713270024E+03  0.11216205526E+03 -0.23589396760E+03  0.35602703002E+03  0.12500000000E+03 0.  0.
         21    1    1    2  503  502 -0.69470549301E+02 -0.69065622304E+02 -0.14917707435E+03  0.17846573037E+03  0.00000000000E+00 0. -1.
          1    1    1    2  501    0 -0.13766215094E+03 -0.43096432959E+02 -0.54895591824E+02  0.15434278842E+03  0.00000000000E+00 0. -1.
<mgrwt>
<rscale>  4 0.37067884E+03</rscale>
<asrwt>0</asrwt>
<pdfrwt beam="1">  1       21 0.86830936E-01 0.37067884E+03</pdfrwt>
<pdfrwt beam="2">  1        1 0.19143763E-01 0.37067884E+03</pdfrwt>
<totfact> 0.31692594E+03</totfact>
</mgrwt>
</event>
<event>
 5    0  0.2396052E+000  0.5378296E+03  0.7546771E-02  0.1004351E+00
          2   -1    0    0  503    0 -0.00000000000E+00  0.00000000000E+00  0.12551131596E+04  0.12551131596E+04  0.00000000000E+00 0. -1.
         21   -1    0    0  501  502  0.00000000000E+00 -0.00000000000E+00 -0.19939603151E+03  0.19939603151E+03  0.00000000000E+00 0. -1.
         25    1    1    2    0    0 -0.15084181098E+03 -0.20208975317E+03  0.12908281753E+02  0.28175369388E+03  0.12500000000E+03 0.  0.
         21    1    1    2  503  502  0.12786522680E+03  0.19888991484E+03  0.15079201679E+03  0.28043706385E+03  0.00000000000E+00 0. -1.
          2    1    1    2  501    0  0.22976584183E+02  0.31998383233E+01  0.89201682956E+03  0.89231843341E+03  0.00000000000E+00 0. -1.
<mgrwt>
<rscale>  4 0.53782958E+03</rscale>
<asrwt>0</asrwt>
<pdfrwt beam="1">  1       21 0.30676313E-01 0.53782958E+03</pdfrwt>
<pdfrwt beam="2">  1        2 0.19309433E+00 0.53782958E+03</pdfrwt>
<totfact> 0.21864898E+03</totfact>
</mgrwt>
</event>
<event>
 5    0  0.2396052E+000  0.3723306E+03  0.7546771E-02  0.1053805E+00
         21   -1    0    0  501  502  0.00000000000E+00  0.00000000000E+00  0.74532781412E+02  0.74532781412E+02  0.00000000000E+00 0. -1.
          1   -1    0    0  503    0 -0.00000000000E+00 -0.00000000000E+00 -0.19871705357E+04  0.19871705357E+04  0.00000000000E+00 0.  1.
         25    1    1    2    0    0  0.18842756086E+03  0.77746741445E+02 -0.28465681356E+03  0.37175798983E+03  0.12500000000E+03 0.  0.
         21    1    1    2  503  502 -0.12545714875E+03 -0.37525914542E+02 -0.11254223610E+03  0.17266570401E+03  0.00000000000E+00 0.  1.
          1    1    1    2  501    0 -0.62970412105E+02 -0.40220826903E+02 -0.15154387047E+04  0.15172796233E+04  0.00000000000E+00 0.  1.
<mgrwt>
<rscale>  4 0.37233060E+03</rscale>
<asrwt>0</asrwt>
<pdfrwt beam="1">  1       21 0.11466582E-01 0.37233060E+03</pdfrwt>
<pdfrwt beam="2">  1        1 0.30571852E+00 0.37233060E+03</pdfrwt>
<totfact> 0.23327253E+03</totfact>
</mgrwt>
</event>
<event>
 5    0  0.2396052E+000  0.5455717E+03  0.7546771E-02  0.1002524E+00
         21   -1    0    0  501  502  0.00000000000E+00  0.00000000000E+00  0.76777125680E+02  0.76777125680E+02  0.00000000000E+00 0.  1.
          2   -1    0    0  503    0 -0.00000000000E+00 -0.00000000000E+00 -0.26004157540E+04  0.26004157540E+04  0.00000000000E+00 0.  1.
         25    1    1    2    0    0 -0.21248798369E+03  0.87729384348E+01 -0.33418181601E+03  0.41536802213E+03  0.12500000000E+03 0.  0.
         21    1    1    2  503  502 -0.15847573628E+02  0.23304847719E+03 -0.98215290988E+03  0.10095479566E+04  0.00000000000E+00 0. -1.
          2    1    1    2  501    0  0.22833555732E+03 -0.24182141563E+03 -0.12073039025E+04  0.12522769010E+04  0.00000000000E+00 0.  1.
<mgrwt>
<rscale>  4 0.54557166E+03</rscale>
<asrwt>0</asrwt>
<pdfrwt beam="1">  1       21 0.11811865E-01 0.54557166E+03</pdfrwt>
<pdfrwt beam="2">  1        2 0.40006399E+00 0.54557166E+03</pdfrwt>
<totfact> 0.24508301E+03</totfact>
</mgrwt>
</event>
<event>
 5    0  0.2396052E+000  0.6409606E+03  0.7546771E-02  0.9823890E-01
          2   -1    0    0  503    0 -0.00000000000E+00  0.00000000000E+00  0.16260762688E+04  0.16260762688E+04  0.00000000000E+00 0.  1.
         21   -1    0    0  501  502  0.00000000000E+00 -0.00000000000E+00 -0.12849207222E+04  0.12849207222E+04  0.00000000000E+00 0. -1.
         25    1    1    2    0    0  0.24673451742E+03 -0.18088971847E+03 -0.10895072942E+04  0.11385298224E+04  0.12500000000E+03 0.  0.
         21    1    1    2  503  502 -0.17921798415E+03  0.72770098984E+02 -0.11268907334E+03  0.22386022513E+03  0.00000000000E+00 0. -1.
          2    1    1    2  501    0 -0.67516533272E+02  0.10811961948E+03  0.15433519142E+04  0.15486069435E+04  0.00000000000E+00 0.  1.
<mgrwt>
<rscale>  4 0.64096063E+03</rscale>
<asrwt>0</asrwt>
<pdfrwt beam="1">  1       21 0.19768011E+00 0.64096063E+03</pdfrwt>
<pdfrwt beam="2">  1        2 0.25016558E+00 0.64096063E+03</pdfrwt>
<totfact> 0.15628395E+01</totfact>
</mgrwt>
</event>
<event>
 5    0  0.2396052E+000  0.9269485E+03  0.7546771E-02  0.9392508E-01
         21   -1    0    0  501  502  0.00000000000E+00  0.00000000000E+00  0.14604084410E+03  0.14604084410E+03  0.00000000000E+00 0. -1.
          2   -1    0    0  503    0 -0.00000000000E+00 -0.00000000000E+00 -0.24819025841E+04  0.24819025841E+04  0.00000000000E+00 0.  1.
         25    1    1    2    0    0  0.18190543102E+01 -0.33626478726E+03 -0.12625056698E+04  0.13124872885E+04  0.12500000000E+03 0.  0.
         21    1    1    2  503  502  0.13152978887E+02  0.30030050179E+03 -0.66512520244E+02  0.30785923338E+03  0.00000000000E+00 0. -1.
          2    1    1    2  501    0 -0.14972033197E+02  0.35964285472E+02 -0.10068435499E+04  0.10075969063E+04  0.00000000000E+00 0.  1.
<mgrwt>
<rscale>  4 0.92694849E+03</rscale>
<asrwt>0</asrwt>
<pdfrwt beam="1">  1       21 0.22467823E-01 0.92694849E+03</pdfrwt>
<pdfrwt beam="2">  1        2 0.38183115E+00 0.92694849E+03</pdfrwt>
<totfact> 0.79427029E+02</totfact>
</mgrwt>
</event>
<event>
 5    0  0.2396052E+000  0.4096780E+03  0.7546771E-02  0.1040479E+00
          2   -1    0    0  503    0 -0.00000000000E+00  0.00000000000E+00  0.10375300875E+04  0.10375300875E+04  0.00000000000E+00 0. -1.
         21   -1    0    0  501  502  0.00000000000E+00 -0.00000000000E+00 -0.39287220749E+03  0.39287220749E+03  0.00000000000E+00 0.  1.
         25    1    1    2    0    0 -0.14365173073E+03  0.21704344697E+03 -0.27587064715E+03  0.39934107173E+03  0.12500000000E+03 0.  0.
         21    1    1    2  503  502 -0.34658769696E+02 -0.83546278867E+02  0.69464160323E+01  0.90716391711E+02  0.00000000000E+00 0. -1.
          2    1    1    2  501    0  0.17831050042E+03 -0.13349716810E+03  0.91358211108E+03  0.94034483151E+03  0.00000000000E+00 0. -1.
<mgrwt>
<rscale>  4 0.40967801E+03</rscale>
<asrwt>0</asrwt>
<pdfrwt beam="1">  1       21 0.60441878E-01 0.40967801E+03</pdfrwt>
<pdfrwt beam="2">  1        2 0.15962001E+00 0.40967801E+03</pdfrwt>
<totfact> 0.73658099E+02</totfact>
</mgrwt>
</event>
<event>
 5    0  0.2396052E+000  0.7286931E+03  0.7546771E-02  0.9669383E-01
         21   -1    0    0  501  502  0.00000000000E+00  0.00000000000E+00  0.45782953010E+03  0.45782953010E+03  0.00000000000E+00 0. -1.
          1   -1    0    0  503    0 -0.00000000000E+00 -0.00000000000E+00 -0.87518128062E+03  0.87518128062E+03  0.00000000000E+00 0. -1.
         25    1    1    2    0    0 -0.32829408493E+03  0.61762409428E+02  0.30087134254E+02  0.35794110837E+03  0.12500000000E+03 0.  0.
         21    1    1    2  503  502  0.35716134573E+03 -0.74119759081E+02  0.13710224836E+03  0.38968576068E+03  0.00000000000E+00 0. -1.
          1    1    1    2  501    0 -0.28867260806E+02  0.12357349653E+02 -0.58454113313E+03  0.58538394166E+03  0.00000000000E+00 0. -1.
<mgrwt>
<rscale>  4 0.72869311E+03</rscale>
<asrwt>0</asrwt>
<pdfrwt beam="1">  1       21 0.70435313E-01 0.72869311E+03</pdfrwt>
<pdfrwt beam="2">  1        1 0.13464327E+00 0.72869311E+03</pdfrwt>
<totfact> 0.34371929E+02</totfact>
</mgrwt>
</event>
<event>
 5    0  0.2396052E+000  0.5727204E+03  0.7546771E-02  0.9963677E-01
         21   -1    0    0  501  502  0.00000000000E+00  0.00000000000E+00  0.13358307371E+03  0.13358307371E+03  0.00000000000E+00 0. -1.
          2   -1    0    0  503    0 -0.00000000000E+00 -0.00000000000E+00 -0.17880952059E+04  0.17880952059E+04  0.00000000000E+00 0. -1.
         25    1    1    2    0    0  0.20480052064E+03  0.30689944412E+03 -0.47646969676E+03  0.61545015557E+03  0.12500000000E+03 0.  0.
         21    1    1    2  503  502  0.10846145453E+03 -0.51321681340E+02 -0.52201153594E+03  0.53562472474E+03  0.00000000000E+00 0.  1.
          2    1    1    2  501    0 -0.31326197517E+03 -0.25557776278E+03 -0.65603089944E+03  0.77060339925E+03  0.00000000000E+00 0. -1.
<mgrwt>
<rscale>  4 0.57272036E+03</rscale>
<asrwt>0</asrwt>
<pdfrwt beam="1">  1       21 0.20551242E-01 0.57272036E+03</pdfrwt>
<pdfrwt beam="2">  1        2 0.27509157E+00 0.57272036E+03</pdfrwt>
<totfact> 0.24140409E+03</totfact>
</mgrwt>
</event>
<event>
 5    0  0.2396052E+000  0.3915998E+03  0.7546771E-02  0.1046728E+00
         21   -1    0    0  501  502  0.00000000000E+00  0.00000000000E+00  0.76784684769E+02  0.76784684769E+02  0.00000000000E+00 0.  1.
          2   -1    0    0  503    0 -0.00000000000E+00 -0.00000000000E+00 -0.15895444907E+04  0.15895444907E+04  0.00000000000E+00 0.  1.
         25    1    1    2    0    0  0.16841762658E+01 -0.25641022078E+03 -0.26179119816E+03  0.38718040912E+03  0.12500000000E+03 0.  0.
         21    1    1    2  503  502  0.29372987064E+02  0.48004852522E+02 -0.25546783023E+03  0.26159329219E+03  0.00000000000E+00 0. -1.
          2    1    1    2  501    0 -0.31057163330E+02  0.20840536826E+03 -0.99550077757E+03  0.10175554742E+04  0.00000000000E+00 0.  1.
<mgrwt>
<rscale>  4 0.39159981E+03</rscale>
<asrwt>0</asrwt>
<pdfrwt beam="1">  1       21 0.11813029E-01 0.39159981E+03</pdfrwt>
<pdfrwt beam="2">  1        2 0.24454528E+00 0.39159981E+03</pdfrwt>
<totfact> 0.89868568E+03</totfact>
</mgrwt>
</event>
<event>
 5    0  0.2396052E+000  0.5248556E+03  0.7546771E-02  0.1007487E+00
         21   -1    0    0  501  502  0.00000000000E+00  0.00000000000E+00  0.42303346180E+03  0.42303346180E+03  0.00000000000E+00 0.  1.
          2   -1    0    0  503    0 -0.00000000000E+00 -0.00000000000E+00 -0.10133770201E+04  0.10133770201E+04  0.00000000000E+00 0.  1.
         25    1    1    2    0    0  0.17090385384E+03  0.15644267553E+03  0.79970594271E+01  0.26338449261E+03  0.12500000000E+03 0.  0.
         21    1    1    2  503  502 -0.16331724646E+03 -0.11752845236E+03  0.25159982955E+03  0.32216134829E+03  0.00000000000E+00 0.  1.
          2    1    1    2  501    0 -0.75866073851E+01 -0.38914223172E+02 -0.84994044726E+03  0.85086464097E+03  0.00000000000E+00 0.  1.
<mgrwt>
<rscale>  4 0.52485559E+03</rscale>
<asrwt>0</asrwt>
<pdfrwt beam="1">  1       21 0.65082072E-01 0.52485559E+03</pdfrwt>
<pdfrwt beam="2">  1        2 0.15590416E+00 0.52485559E+03</pdfrwt>
<totfact> 0.62826159E+02</totfact>
</mgrwt>
</event>
<event>
 5    0  0.2396052E+000  0.4284386E+03  0.7546771E-02  0.1034354E+00
          2   -1    0    0  503    0 -0.00000000000E+00  0.00000000000E+00  0.15259588708E+04  0.15259588708E+04  0.00000000000E+00 0.  1.
         21   -1    0    0  501  502  0.00000000000E+00 -0.00000000000E+00 -0.96397878046E+02  0.96397878046E+02  0.00000000000E+00 0.  1.
         25    1    1    2    0    0 -0.13753664650E+03 -0.15095607203E+03  0.74304043765E+03  0.78066520148E+03  0.12500000000E+03 0.  0.
         21    1    1    2  503  502  0.18460853985E+03 -0.40475310112E+02  0.59510264166E+03  0.62439227880E+03  0.00000000000E+00 0.  1.
          2    1    1    2  501    0 -0.47071893354E+02  0.19143138214E+03  0.91417913403E+02  0.21729926853E+03  0.00000000000E+00 0.  1.
<mgrwt>
<rscale>  4 0.42843859E+03</rscale>
<asrwt>0</asrwt>
<pdfrwt beam="1">  1       21 0.14830444E-01 0.42843859E+03</pdfrwt>
<pdfrwt beam="2">  1        2 0.23476289E+00 0.42843859E+03</pdfrwt>
<totfact> 0.63640769E+03</totfact>
</mgrwt>
</event>
<event>
 5    0  0.2396052E+000  0.6270396E+03  0.7546771E-02  0.9850843E-01
          2   -1    0    0  503    0 -0.00000000000E+00  0.00000000000E+00  0.12780471865E+04  0.12780471865E+04  0.00000000000E+00 0. -1.
         21   -1    0    0  501  502  0.00000000000E+00 -0.00000000000E+00 -0.15195501071E+03  0.15195501071E+03  0.00000000000E+00 0.  1.
         25    1    1    2    0    0 -0.19755089535E+03 -0.64404977629E+02 -0.35294101860E+02  0.24504087623E+03  0.12500000000E+03 0.  0.
         21    1    1    2  503  502  0.14447340998E+03  0.46952491728E+02  0.53680582364E+03  0.55788672234E+03  0.00000000000E+00 0. -1.
          2    1    1    2  501    0  0.53077485371E+02  0.17452485901E+02  0.62458045401E+03  0.62707459863E+03  0.00000000000E+00 0. -1.
<mgrwt>
<rscale>  4 0.62703965E+03</rscale>
<asrwt>0</asrwt>
<pdfrwt beam="1">  1       21 0.23377695E-01 0.62703965E+03</pdfrwt>
<pdfrwt beam="2">  1        2 0.19662264E+00 0.62703965E+03</pdfrwt>
<totfact> 0.35712424E+03</totfact>
</mgrwt>
</event>
<event>
 5    0  0.2396052E+000  0.5058011E+03  0.7546771E-02  0.1012276E+00
          1   -1    0    0  503    0 -0.00000000000E+00  0.00000000000E+00  0.21694285233E+04  0.21694285233E+04  0.00000000000E+00 0. -1.
         21   -1    0    0  501  502  0.00000000000E+00 -0.00000000000E+00 -0.64972361218E+02  0.64972361218E+02  0.00000000000E+00 0. -1.
         25    1    1    2    0    0  0.19955201219E+03 -0.27715123194E+03  0.10200149681E+04  0.10829078197E+04  0.12500000000E+03 0.  0.
         21    1    1    2  503  502 -0.82120487477E+02  0.89628782874E+02  0.15998870784E+03  0.20093153017E+03  0.00000000000E+00 0. -1.
          1    1    1    2  501    0 -0.11743152471E+03  0.18752244907E+03  0.92445248621E+03  0.95056153466E+03  0.00000000000E+00 0. -1.
<mgrwt>
<rscale>  4 0.50580115E+03</rscale>
<asrwt>0</asrwt>
<pdfrwt beam="1">  1       21 0.99957495E-02 0.50580115E+03</pdfrwt>
<pdfrwt beam="2">  1        1 0.33375818E+00 0.50580115E+03</pdfrwt>
<totfact> 0.21920566E+03</totfact>
</mgrwt>
</event>
<event>
 5    0  0.2396052E+000  0.5011025E+03  0.7546771E-02  0.1013492E+00
         21   -1    0    0  501  502  0.00000000000E+00  0.00000000000E+00  0.18267978359E+04  0.18267978359E+04  0.00000000000E+00 0.  1.
          2   -1    0    0  503    0 -0.00000000000E+00 -0.00000000000E+00 -0.15524066615E+04  0.15524066615E+04  0.00000000000E+00 0.  1.
         25    1    1    2    0    0  0.15910542884E+03  0.15136165374E+03  0.17826399354E+04  0.18004596710E+04  0.12500000000E+03 0.  0.
         21    1    1    2  503  502 -0.48546020497E+02  0.23063331667E+02  0.26373059402E+01  0.53810675115E+02  0.00000000000E+00 0. -1.
          2    1    1    2  501    0 -0.11055940835E+03 -0.17442498540E+03 -0.15108860669E+04  0.15249341512E+04  0.00000000000E+00 0.  1.
<mgrwt>
<rscale>  4 0.50110247E+03</rscale>
<asrwt>0</asrwt>
<pdfrwt beam="1">  1       21 0.28104582E+00 0.50110247E+03</pdfrwt>
<pdfrwt beam="2">  1        2 0.23883179E+00 0.50110247E+03</pdfrwt>
<totfact> 0.54209110E+00</totfact>
</mgrwt>
</event>
<event>
 5    0  0.2396052E+000  0.9099965E+03  0.7546771E-02  0.9413171E-01
         21   -1    0    0  501  502  0.00000000000E+00  0.00000000000E+00  0.24186049960E+03  0.24186049960E+03  0.00000000000E+00 0.  1.
          1   -1    0    0  503    0 -0.00000000000E+00 -0.00000000000E+00 -0.15409229018E+04  0.15409229018E+04  0.00000000000E+00 0.  1.
         25    1    1    2    0    0 -0.27193719759E+03 -0.29025572981E+03 -0.23690578953E+03  0.47952849887E+03  0.12500000000E+03 0.  0.
         21    1    1    2  503  502  0.26724698711E+03  0.40852550924E+03 -0.40148243868E+03  0.63206185804E+03  0.00000000000E+00 0.  1.
          1    1    1    2  501    0  0.46902104834E+01 -0.11826977943E+03 -0.66067417400E+03  0.67119304450E+03  0.00000000000E+00 0.  1.
<mgrwt>
<rscale>  4 0.90999648E+03</rscale>
<asrwt>0</asrwt>
<pdfrwt beam="1">  1       21 0.37209308E-01 0.90999648E+03</pdfrwt>
<pdfrwt beam="2">  1        1 0.23706506E+00 0.90999648E+03</pdfrwt>
<totfact> 0.43199133E+02</totfact>
</mgrwt>
</event>
<event>
 5    0  0.2396052E+000  0.4385192E+03  0.7546771E-02  0.1031202E+00
         21   -1    0    0  501  502  0.00000000000E+00  0.00000000000E+00  0.83285990946E+03  0.83285990946E+03  0.00000000000E+00 0.  1.
          2   -1    0    0  503    0 -0.00000000000E+00 -0.00000000000E+00 -0.36598105885E+03  0.36598105885E+03  0.00000000000E+00 0.  1.
         25    1    1    2    0    0  0.13113879839E+03 -0.23083377475E+03  0.53082639405E+03  0.60653382151E+03  0.12500000000E+03 0.  0.
         21    1    1    2  503  502  0.88102143799E+02  0.11129085005E+03  0.18933001713E+03  0.23662944963E+03  0.00000000000E+00 0. -1.
          2    1    1    2  501    0 -0.21924094219E+03  0.11954292471E+03 -0.25327756057E+03  0.35567769718E+03  0.00000000000E+00 0.  1.
<mgrwt>
<rscale>  4 0.43851915E+03</rscale>
<asrwt>0</asrwt>
<pdfrwt beam="1">  1       21 0.12813229E+00 0.43851915E+03</pdfrwt>
<pdfrwt beam="2">  1        2 0.56304779E-01 0.43851915E+03</pdfrwt>
<totfact> 0.44236427E+02</totfact>
</mgrwt>
</event>
<event>
 5    0  0.2396052E+000  0.4593591E+03  0.7546771E-02  0.1024967E+00
         21   -1    0    0  501  502  0.00000000000E+00  0.00000000000E+00  0.15335632743E+03  0.15335632743E+03  0.00000000000E+00 0.  1.
          2   -1    0    0  503    0 -0.00000000000E+00 -0.00000000000E+00 -0.68397364079E+03  0.68397364079E+03  0.00000000000E+00 0.  1.
         25    1    1    2    0    0  0.23091468412E+02 -0.23621549575E+03 -0.12947438898E+03  0.29785834511E+03  0.12500000000E+03 0.  0.
         21    1    1    2  503  502 -0.26360696246E+02  0.18845226280E+03 -0.66728689954E+02  0.20164786069E+03  0.00000000000E+00 0.  1.
          2    1    1    2  501    0  0.32692278342E+01  0.47763232957E+02 -0.33441423442E+03  0.33782376242E+03  0.00000000000E+00 0.  1.
<mgrwt>
<rscale>  4 0.45935912E+03</rscale>
<asrwt>0</asrwt>
<pdfrwt beam="1">  1       21 0.23593281E-01 0.45935912E+03</pdfrwt>
<pdfrwt beam="2">  1        2 0.10522672E+00 0.45935912E+03</pdfrwt>
<totfact> 0.87435353E+03</totfact>
</mgrwt>
</event>
<event>
 5    0  0.2396052E+000  0.4097323E+03  0.7546771E-02  0.1040461E+00
         21   -1    0    0  501  502  0.00000000000E+00  0.00000000000E+00  0.28621001927E+03  0.28621001927E+03  0.00000000000E+00 0. -1.
          1   -1    0    0  503    0 -0.00000000000E+00 -0.00000000000E+00 -0.63245732427E+03  0.63245732427E+03  0.00000000000E+00 0. -1.
         25    1    1    2    0    0 -0.14960341231E+03 -0.19032475615E+03  0.10093833407E+03  0.29054817340E+03  0.12500000000E+03 0.  0.
         21    1    1    2  503  502  0.95228831067E+02  0.97500275801E+02  0.29499698295E+02  0.13944556733E+03  0.00000000000E+00 0. -1.
          1    1    1    2  501    0  0.54374581244E+02  0.92824480350E+02 -0.47668533737E+03  0.48867360282E+03  0.00000000000E+00 0. -1.
<mgrwt>
<rscale>  4 0.40973227E+03</rscale>
<asrwt>0</asrwt>
<pdfrwt beam="1">  1       21 0.44032311E-01 0.40973227E+03</pdfrwt>
<pdfrwt beam="2">  1        1 0.97301127E-01 0.40973227E+03</pdfrwt>
<totfact> 0.16764645E+03</totfact>
</mgrwt>
</event>
<event>
 5    0  0.2396052E+000  0.5877198E+03  0.7546771E-02  0.9931216E-01
         21   -1    0    0  501  502  0.00000000000E+00  0.00000000000E+00  0.33096196676E+03  0.33096196676E+03  0.00000000000E+00 0. -1.
          2   -1    0    0  503    0 -0.00000000000E+00 -0.00000000000E+00 -0.10424827351E+04  0.10424827351E+04  0.00000000000E+00 0.  1.
         25    1    1    2    0    0 -0.14839992714E+03  0.22115681278E+03  0.20867745061E+03  0.36069953231E+03  0.12500000000E+03 0.  0.
         21    1    1    2  503  502  0.11107686624E+03 -0.14297659170E+03 -0.14295030625E+03  0.23068412612E+03  0.00000000000E+00 0. -1.
          2    1    1    2  501    0  0.37323060900E+02 -0.78180221079E+02 -0.77724791273E+03  0.78206104346E+03  0.00000000000E+00 0.  1.
<mgrwt>
<rscale>  4 0.58771981E+03</rscale>
<asrwt>0</asrwt>
<pdfrwt beam="1">  1       21 0.50917227E-01 0.58771981E+03</pdfrwt>
<pdfrwt beam="2">  1        2 0.16038196E+00 0.58771981E+03</pdfrwt>
<totfact> 0.10170243E+03</totfact>
</mgrwt>
</event>
<event>
 5    0  0.2396052E+000  0.7167979E+03  0.7546771E-02  0.9688929E-01
         21   -1    0    0  501  502  0.00000000000E+00  0.00000000000E+00  0.11910151465E+03  0.11910151465E+03  0.00000000000E+00 0.  1.
          1   -1    0    0  503    0 -0.00000000000E+00 -0.00000000000E+00 -0.22953073841E+04  0.22953073841E+04  0.00000000000E+00 0. -1.
         25    1    1    2    0    0  0.31548329876E+03  0.12231658353E+02 -0.31845571441E+03  0.46553020020E+03  0.12500000000E+03 0.  0.
         21    1    1    2  503  502 -0.26002962940E+03  0.20463448699E+03 -0.76594768564E+03  0.83436595003E+03  0.00000000000E+00 0. -1.
          1    1    1    2  501    0 -0.55453669356E+02 -0.21686614534E+03 -0.10918024694E+04  0.11145127485E+04  0.00000000000E+00 0. -1.
<mgrwt>
<rscale>  4 0.71679793E+03</rscale>
<asrwt>0</asrwt>
<pdfrwt beam="1">  1       21 0.18323311E-01 0.71679793E+03</pdfrwt>
<pdfrwt beam="2">  1        1 0.35312420E+00 0.71679793E+03</pdfrwt>
<totfact> 0.56361159E+02</totfact>
</mgrwt>
</event>
<event>
 5    0  0.2396052E+000  0.5104347E+03  0.7546771E-02  0.1011091E+00
         21   -1    0    0  501  502  0.00000000000E+00  0.00000000000E+00  0.39419645564E+03  0.39419645564E+03  0.00000000000E+00 0. -1.
          3   -1    0    0  503    0 -0.00000000000E+00 -0.00000000000E+00 -0.22197122281E+03  0.22197122281E+03  0.00000000000E+00 0. -1.
         25    1    1    2    0    0 -0.97546325600E+02 -0.21276180643E+03  0.24438028717E+02  0.26646780136E+03  0.12500000000E+03 0.  0.
         21    1    1    2  503  502  0.11962117317E+03  0.17771566443E+03  0.19302935866E+03  0.28836160590E+03  0.00000000000E+00 0. -1.
          3    1    1    2  501    0 -0.22074847575E+02  0.35046142002E+02 -0.45242154547E+02  0.61338271191E+02  0.00000000000E+00 0. -1.
<mgrwt>
<rscale>  4 0.51043472E+03</rscale>
<asrwt>0</asrwt>
<pdfrwt beam="1">  1       21 0.60645608E-01 0.51043472E+03</pdfrwt>
<pdfrwt beam="2">  1        3 0.34149419E-01 0.51043472E+03</pdfrwt>
<totfact> 0.10188068E+03</totfact>
</mgrwt>
</event>
<event>
 5    0  0.2396052E+000  0.4256238E+03  0.7546771E-02  0.1035251E+00
          1   -1    0    0  503    0 -0.00000000000E+00  0.00000000000E+00  0.43988294737E+03  0.43988294737E+03  0.00000000000E+00 0. -1.
         21   -1    0    0  501  502  0.00000000000E+00 -0.00000000000E+00 -0.25501871911E+03  0.25501871911E+03  0.00000000000E+00 0.  1.
         25    1    1    2    0    0  0.21741974520E+03  0.17691162935E+02 -0.27411735109E+02  0.25290457898E+03  0.12500000000E+03 0.  0.
         21    1    1    2  503  502 -0.17296370790E+03 -0.50921485808E+00 -0.46309023457E+02  0.17905649724E+03  0.00000000000E+00 0. -1.
          1    1    1    2  501    0 -0.44456037300E+02 -0.17181948077E+02  0.25858498683E+03  0.26294059026E+03  0.00000000000E+00 0. -1.
<mgrwt>
<rscale>  4 0.42562380E+03</rscale>
<asrwt>0</asrwt>
<pdfrwt beam="1">  1       21 0.39233649E-01 0.42562380E+03</pdfrwt>
<pdfrwt beam="2">  1        1 0.67674300E-01 0.42562380E+03</pdfrwt>
<totfact> 0.34917109E+03</totfact>
</mgrwt>
</event>
<event>
 5    0  0.2396052E+000  0.6503920E+03  0.7546771E-02  0.9806044E-01
          2   -1    0    0  503    0 -0.00000000000E+00  0.00000000000E+00  0.84605505920E+03  0.84605505920E+03  0.00000000000E+00 0. -1.
         21   -1    0    0  501  502  0.00000000000E+00 -0.00000000000E+00 -0.29790540553E+03  0.29790540553E+03  0.00000000000E+00 0.  1.
         25    1    1    2    0    0  0.35786924233E+03  0.29509746042E+01 -0.17974562816E+02  0.37950914055E+03  0.12500000000E+03 0.  0.
         21    1    1    2  503  502 -0.25625058964E+03  0.43142310351E+02  0.89342907346E+02  0.27478678775E+03  0.00000000000E+00 0.  1.
          2    1    1    2  501    0 -0.10161865269E+03 -0.46093284955E+02  0.47678130914E+03  0.48966453643E+03  0.00000000000E+00 0. -1.
<mgrwt>
<rscale>  4 0.65039198E+03</rscale>
<asrwt>0</asrwt>
<pdfrwt beam="1">  1       21 0.45831601E-01 0.65039198E+03</pdfrwt>
<pdfrwt beam="2">  1        2 0.13016232E+00 0.65039198E+03</pdfrwt>
<totfact> 0.16925925E+03</totfact>
</mgrwt>
</event>
<event>
 5    0  0.2396052E+000  0.4465872E+03  0.7546771E-02  0.1028745E+00
          2   -1    0    0  503    0 -0.00000000000E+00  0.00000000000E+00  0.41415128162E+03  0.41415128162E+03  0.00000000000E+00 0. -1.
         21   -1    0    0  501  502  0.00000000000E+00 -0.00000000000E+00 -0.44676375362E+03  0.44676375362E+03  0.00000000000E+00 0. -1.
         25    1    1    2    0    0 -0.17492929089E+03 -0.12112087308E+03 -0.23531032077E+03  0.34097869401E+03  0.12500000000E+03 0.  0.
         21    1    1    2  503  502  0.17099711520E+03  0.89341132116E+02 -0.98790645343E+02  0.21675203090E+03  0.00000000000E+00 0. -1.
          2    1    1    2  501    0  0.39321756937E+01  0.31779740962E+02  0.30148849411E+03  0.30318431032E+03  0.00000000000E+00 0. -1.
<mgrwt>
<rscale>  4 0.44658718E+03</rscale>
<asrwt>0</asrwt>
<pdfrwt beam="1">  1       21 0.68732885E-01 0.44658718E+03</pdfrwt>
<pdfrwt beam="2">  1        2 0.63715582E-01 0.44658718E+03</pdfrwt>
<totfact> 0.17144102E+03</totfact>
</mgrwt>
</event>
<event>
 5    0  0.2396052E+000  0.6621829E+03  0.7546771E-02  0.9784184E-01
          2   -1    0    0  503    0 -0.00000000000E+00  0.00000000000E+00  0.19291708534E+04  0.19291708534E+04  0.00000000000E+00 0.  1.
         21   -1    0    0  501  502  0.00000000000E+00 -0.00000000000E+00 -0.91198018047E+02  0.91198018047E+02  0.00000000000E+00 0. -1.
         25    1    1    2    0    0  0.24413470935E+03  0.13739846782E+03  0.92454139482E+03  0.97410568523E+03  0.12500000000E+03 0.  0.
         21    1    1    2  503  502 -0.21881879744E+03 -0.14074682953E+03  0.18947689018E+03  0.32185839751E+03  0.00000000000E+00 0. -1.
          2    1    1    2  501    0 -0.25315911913E+02  0.33483617055E+01  0.72395455036E+03  0.72440478871E+03  0.00000000000E+00 0.  1.
<mgrwt>
<rscale>  4 0.66218288E+03</rscale>
<asrwt>0</asrwt>
<pdfrwt beam="1">  1       21 0.14030466E-01 0.66218288E+03</pdfrwt>
<pdfrwt beam="2">  1        2 0.29679548E+00 0.66218288E+03</pdfrwt>
<totfact> 0.40980980E+03</totfact>
</mgrwt>
</event>
<event>
 5    0  0.2396052E+000  0.6803345E+03  0.7546771E-02  0.9751467E-01
          2   -1    0    0  503    0 -0.00000000000E+00  0.00000000000E+00  0.36127331300E+03  0.36127331300E+03  0.00000000000E+00 0.  1.
         21   -1    0    0  501  502  0.00000000000E+00 -0.00000000000E+00 -0.71175703637E+03  0.71175703637E+03  0.00000000000E+00 0. -1.
         25    1    1    2    0    0 -0.22407525162E+03 -0.25652035541E+03 -0.50650728333E+03  0.62304657867E+03  0.12500000000E+03 0.  0.
         21    1    1    2  503  502  0.11618530584E+03  0.20593751071E+03 -0.20136610867E+02  0.23730732544E+03  0.00000000000E+00 0.  1.
          2    1    1    2  501    0  0.10788994578E+03  0.50582844696E+02  0.17616017083E+03  0.21267644525E+03  0.00000000000E+00 0.  1.
<mgrwt>
<rscale>  4 0.68033451E+03</rscale>
<asrwt>0</asrwt>
<pdfrwt beam="1">  1       21 0.10950108E+00 0.68033451E+03</pdfrwt>
<pdfrwt beam="2">  1        2 0.55580510E-01 0.68033451E+03</pdfrwt>
<totfact> 0.63575742E+02</totfact>
</mgrwt>
</event>
<event>
 5    0  0.2396052E+000  0.7905621E+03  0.7546771E-02  0.9573779E-01
         -1   -1    0    0    0  501 -0.00000000000E+00  0.00000000000E+00  0.22881857231E+03  0.22881857231E+03  0.00000000000E+00 0. -1.
         21   -1    0    0  501  502  0.00000000000E+00 -0.00000000000E+00 -0.12651069779E+04  0.12651069779E+04  0.00000000000E+00 0. -1.
         25    1    1    2    0    0 -0.24573112184E+03  0.83763899840E+02 -0.43512071732E+02  0.29140774791E+03  0.12500000000E+03 0.  0.
         21    1    1    2  503  502  0.13368353524E+03 -0.55897295792E+01 -0.10470095197E+04  0.10555242617E+04  0.00000000000E+00 0. -1.
         -1    1    1    2    0  503  0.11204758659E+03 -0.78174170261E+02  0.54233185787E+02  0.14699354067E+03  0.00000000000E+00 0. -1.
<mgrwt>
<rscale>  4 0.79056214E+03</rscale>
<asrwt>0</asrwt>
<pdfrwt beam="1">  1       21 0.19463184E+00 0.79056214E+03</pdfrwt>
<pdfrwt beam="2">  1       -1 0.35202858E-01 0.79056214E+03</pdfrwt>
<totfact> 0.82409861E+01</totfact>
</mgrwt>
</event>
<event>
 5    0  0.2396052E+000  0.5464326E+03  0.7546771E-02  0.1002323E+00
         21   -1    0    0  501  502  0.00000000000E+00  0.00000000000E+00  0.76660867788E+03  0.76660867788E+03  0.00000000000E+00 0. -1.
          2   -1    0    0  503    0 -0.00000000000E+00 -0.00000000000E+00 -0.45640923104E+03  0.45640923104E+03  0.00000000000E+00 0. -1.
         25    1    1    2    0    0  0.44571124172E+02 -0.26417795248E+03  0.26036665073E+03  0.39394462618E+03  0.12500000000E+03 0.  0.
         21    1    1    2  503  502 -0.50830245104E+02  0.22645127898E+03  0.40772055910E+03  0.46914811081E+03  0.00000000000E+00 0. -1.
          2    1    1    2  501    0  0.62591209317E+01  0.37726673500E+02 -0.35788776299E+03  0.35992517192E+03  0.00000000000E+00 0. -1.
<mgrwt>
<rscale>  4 0.54643257E+03</rscale>
<asrwt>0</asrwt>
<pdfrwt beam="1">  1       21 0.11793980E+00 0.54643257E+03</pdfrwt>
<pdfrwt beam="2">  1        2 0.70216805E-01 0.54643257E+03</pdfrwt>
<totfact> 0.41615421E+02</totfact>
</mgrwt>
</event>
<event>
 5    0  0.2396052E+000  0.4577158E+03  0.7546771E-02  0.1025446E+00
         21   -1    0    0  501  502  0.00000000000E+00  0.00000000000E+00  0.87695461764E+02  0.87695461764E+02  0.00000000000E+00 0. -1.
          1   -1    0    0  503    0 -0.00000000000E+00 -0.00000000000E+00 -0.87964004391E+03  0.87964004391E+03  0.00000000000E+00 0. -1.
         25    1    1    2    0    0 -0.73978840312E+02 -0.19226554865E+03 -0.43753607270E+03  0.49950147640E+03  0.12500000000E+03 0.  0.
         21    1    1    2  503  502 -0.61938917236E+01  0.18930607685E+03 -0.13056752124E+03  0.23005006548E+03  0.00000000000E+00 0. -1.
          1    1    1    2  501    0  0.80172732036E+02  0.29594717993E+01 -0.22384098821E+03  0.23778396380E+03  0.00000000000E+00 0. -1.
<mgrwt>
<rscale>  4 0.45771581E+03</rscale>
<asrwt>0</asrwt>
<pdfrwt beam="1">  1       21 0.13491609E-01 0.45771581E+03</pdfrwt>
<pdfrwt beam="2">  1        1 0.13532924E+00 0.45771581E+03</pdfrwt>
<totfact> 0.10044047E+04</totfact>
</mgrwt>
</event>
<event>
 5    0  0.2396052E+000  0.3813687E+03  0.7546771E-02  0.1050429E+00
         -3   -1    0    0    0  501 -0.00000000000E+00  0.00000000000E+00  0.13175797596E+04  0.13175797596E+04  0.00000000000E+00 0.  1.
         21   -1    0    0  501  502  0.00000000000E+00 -0.00000000000E+00 -0.31816204373E+03  0.31816204373E+03  0.00000000000E+00 0. -1.
         25    1    1    2    0    0 -0.72242505503E+02 -0.28793763061E+03 -0.15234485205E+03  0.35631588888E+03  0.12500000000E+03 0.  0.
         21    1    1    2  503  502 -0.42931706571E+02  0.40814964158E+02 -0.30154186697E+02  0.66470051178E+02  0.00000000000E+00 0.  1.
         -3    1    1    2    0  503  0.11517421207E+03  0.24712266645E+03  0.11819167546E+04  0.12129558632E+04  0.00000000000E+00 0.  1.
<mgrwt>
<rscale>  4 0.38136866E+03</rscale>
<asrwt>0</asrwt>
<pdfrwt beam="1">  1       21 0.48948008E-01 0.38136866E+03</pdfrwt>
<pdfrwt beam="2">  1       -3 0.20270457E+00 0.38136866E+03</pdfrwt>
<totfact> 0.28255494E+01</totfact>
</mgrwt>
</event>
<event>
 5    0  0.2396052E+000  0.3208416E+03  0.7546771E-02  0.1075263E+00
         21   -1    0    0  501  502  0.00000000000E+00  0.00000000000E+00  0.68748501277E+03  0.68748501277E+03  0.00000000000E+00 0. -1.
          1   -1    0    0  503    0 -0.00000000000E+00 -0.00000000000E+00 -0.32308537347E+03  0.32308537347E+03  0.00000000000E+00 0.  1.
         25    1    1    2    0    0 -0.48552729778E+00  0.20732917983E+03  0.44105514408E+03  0.50313046485E+03  0.12500000000E+03 0.  0.
         21    1    1    2  503  502 -0.47737388502E+02 -0.60105451373E+02  0.18671945711E+03  0.20188035865E+03  0.00000000000E+00 0.  1.
          1    1    1    2  501    0  0.48222915800E+02 -0.14722372846E+03 -0.26337496188E+03  0.30555956273E+03  0.00000000000E+00 0.  1.
<mgrwt>
<rscale>  4 0.32084157E+03</rscale>
<asrwt>0</asrwt>
<pdfrwt beam="1">  1       21 0.10576692E+00 0.32084157E+03</pdfrwt>
<pdfrwt beam="2">  1        1 0.49705442E-01 0.32084157E+03</pdfrwt>
<totfact> 0.59086036E+02</totfact>
</mgrwt>
</event>
<event>
 5    0  0.2396052E+000  0.6016242E+03  0.7546771E-02  0.9902042E-01
          2   -1    0    0  503    0 -0.00000000000E+00  0.00000000000E+00  0.13573603959E+04  0.13573603959E+04  0.00000000000E+00 0. -1.
         21   -1    0    0  501  502  0.00000000000E+00 -0.00000000000E+00 -0.43537355200E+03  0.43537355200E+03  0.00000000000E+00 0.  1.
         25    1    1    2    0    0 -0.17897963542E+03  0.38233812988E+03 -0.22655893364E+03  0.49514654989E+03  0.12500000000E+03 0.  0.
         21    1    1    2  503  502 -0.50708241455E+02 -0.11847397610E+03  0.39669143282E+02  0.13483712283E+03  0.00000000000E+00 0. -1.
          2    1    1    2  501    0  0.22968787688E+03 -0.26386415378E+03  0.11088766343E+04  0.11627502752E+04  0.00000000000E+00 0. -1.
<mgrwt>
<rscale>  4 0.60162416E+03</rscale>
<asrwt>0</asrwt>
<pdfrwt beam="1">  1       21 0.66980547E-01 0.60162416E+03</pdfrwt>
<pdfrwt beam="2">  1        2 0.20882468E+00 0.60162416E+03</pdfrwt>
<totfact> 0.36234178E+02</totfact>
</mgrwt>
</event>
<event>
 5    0  0.2396052E+000  0.5438467E+03  0.7546771E-02  0.1002928E+00
         21   -1    0    0  501  502  0.00000000000E+00  0.00000000000E+00  0.16123425782E+04  0.16123425782E+04  0.00000000000E+00 0.  1.
          4   -1    0    0  503    0 -0.00000000000E+00 -0.00000000000E+00 -0.10525334196E+04  0.10525334196E+04  0.00000000000E+00 0. -1.
         25    1    1    2    0    0  0.40427488776E+03 -0.16227357277E+03  0.13740994333E+04  0.14469088257E+04  0.12500000000E+03 0.  0.
         21    1    1    2  503  502 -0.46398410121E+02 -0.67858074270E+02  0.14604781430E+03  0.16759324201E+03  0.00000000000E+00 0. -1.
          4    1    1    2  501    0 -0.35787647763E+03  0.23013164704E+03 -0.96033808893E+03  0.10503739302E+04  0.00000000000E+00 0. -1.
<mgrwt>
<rscale>  4 0.54384674E+03</rscale>
<asrwt>0</asrwt>
<pdfrwt beam="1">  1       21 0.24805270E+00 0.54384674E+03</pdfrwt>
<pdfrwt beam="2">  1        4 0.16192822E+00 0.54384674E+03</pdfrwt>
<totfact> 0.59672209E-01</totfact>
</mgrwt>
</event>
<event>
 5    0  0.2396052E+000  0.5366206E+03  0.7546771E-02  0.1004639E+00
         21   -1    0    0  501  502  0.00000000000E+00  0.00000000000E+00  0.48648309801E+03  0.48648309801E+03  0.00000000000E+00 0. -1.
         -2   -1    0    0    0  501 -0.00000000000E+00 -0.00000000000E+00 -0.44157021570E+03  0.44157021570E+03  0.00000000000E+00 0.  1.
         25    1    1    2    0    0  0.18671970435E+03  0.11344058415E+03  0.66781666455E+02  0.26041851911E+03  0.12500000000E+03 0.  0.
         21    1    1    2  503  502 -0.22232473399E+03 -0.12998831197E+03  0.27000468543E+03  0.37313238769E+03  0.00000000000E+00 0. -1.
         -2    1    1    2    0  503  0.35605029640E+02  0.16547727827E+02 -0.29187346958E+03  0.29450240691E+03  0.00000000000E+00 0.  1.
<mgrwt>
<rscale>  4 0.53662063E+03</rscale>
<asrwt>0</asrwt>
<pdfrwt beam="1">  1       21 0.74843553E-01 0.53662063E+03</pdfrwt>
<pdfrwt beam="2">  1       -2 0.67933880E-01 0.53662063E+03</pdfrwt>
<totfact> 0.23879477E+02</totfact>
</mgrwt>
</event>
<event>
 5    0  0.2396052E+000  0.4870402E+03  0.7546771E-02  0.1017218E+00
          2   -1    0    0  503    0 -0.00000000000E+00  0.00000000000E+00  0.19621977665E+04  0.19621977665E+04  0.00000000000E+00 0. -1.
         21   -1    0    0  501  502  0.00000000000E+00 -0.00000000000E+00 -0.38505506878E+03  0.38505506878E+03  0.00000000000E+00 0. -1.
         25    1    1    2    0    0  0.34870454509E+02  0.24161078694E+03 -0.32392512458E+03  0.42443398462E+03  0.12500000000E+03 0.  0.
         21    1    1    2  503  502  0.95981909716E+01 -0.46591281274E+02  0.10066561074E+03  0.11133929201E+03  0.00000000000E+00 0.  1.
          2    1    1    2  501    0 -0.44468645481E+02 -0.19501950567E+03  0.18004022115E+04  0.18114795586E+04  0.00000000000E+00 0. -1.
<mgrwt>
<rscale>  4 0.48704024E+03</rscale>
<asrwt>0</asrwt>
<pdfrwt beam="1">  1       21 0.59239242E-01 0.48704024E+03</pdfrwt>
<pdfrwt beam="2">  1        2 0.30187657E+00 0.48704024E+03</pdfrwt>
<totfact> 0.22984898E+02</totfact>
</mgrwt>
</event>
<event>
 5    0  0.2396052E+000  0.8124914E+03  0.7546771E-02  0.9542110E-01
         -2   -1    0    0    0  501 -0.00000000000E+00  0.00000000000E+00  0.98933291404E+03  0.98933291404E+03  0.00000000000E+00 0. -1.
         21   -1    0    0  501  502  0.00000000000E+00 -0.00000000000E+00 -0.46513013741E+03  0.46513013741E+03  0.00000000000E+00 0. -1.
         25    1    1    2    0    0  0.17755639012E+03  0.19827721458E+03  0.22839975812E+03  0.37233261341E+03  0.12500000000E+03 0.  0.
         21    1    1    2  503  502 -0.20411039721E+03 -0.21047567787E+03 -0.33812045393E+03  0.44753380497E+03  0.00000000000E+00 0. -1.
         -2    1    1    2    0  503  0.26554007084E+02  0.12198463293E+02  0.63392347244E+03  0.63459663307E+03  0.00000000000E+00 0. -1.
<mgrwt>
<rscale>  4 0.81249142E+03</rscale>
<asrwt>0</asrwt>
<pdfrwt beam="1">  1       21 0.71558483E-01 0.81249142E+03</pdfrwt>
<pdfrwt beam="2">  1       -2 0.15220506E+00 0.81249142E+03</pdfrwt>
<totfact> 0.36912078E+01</totfact>
</mgrwt>
</event>
<event>
 5    0  0.2396052E+000  0.6466571E+03  0.7546771E-02  0.9813072E-01
          2   -1    0    0  503    0 -0.00000000000E+00  0.00000000000E+00  0.87879011666E+03  0.87879011666E+03  0.00000000000E+00 0.  1.
         21   -1    0    0  501  502  0.00000000000E+00 -0.00000000000E+00 -0.81510557809E+03  0.81510557809E+03  0.00000000000E+00 0. -1.
         25    1    1    2    0    0 -0.78616511381E+02 -0.20713001496E+03 -0.64759471351E+03  0.69576383344E+03  0.12500000000E+03 0.  0.
         21    1    1    2  503  502  0.74022994487E+02  0.23282952178E+03 -0.38993095511E+02  0.24740543935E+03  0.00000000000E+00 0.  1.
          2    1    1    2  501    0  0.45935168934E+01 -0.25699506817E+02  0.75027234759E+03  0.75072642195E+03  0.00000000000E+00 0.  1.
<mgrwt>
<rscale>  4 0.64665714E+03</rscale>
<asrwt>0</asrwt>
<pdfrwt beam="1">  1       21 0.12540086E+00 0.64665714E+03</pdfrwt>
<pdfrwt beam="2">  1        2 0.13519848E+00 0.64665714E+03</pdfrwt>
<totfact> 0.15527285E+02</totfact>
</mgrwt>
</event>
<event>
 5    0  0.2396052E+000  0.4967750E+03  0.7546771E-02  0.1014624E+00
         21   -1    0    0  501  502  0.00000000000E+00  0.00000000000E+00  0.13750420490E+04  0.13750420490E+04  0.00000000000E+00 0. -1.
         -2   -1    0    0    0  501 -0.00000000000E+00 -0.00000000000E+00 -0.18247045124E+03  0.18247045124E+03  0.00000000000E+00 0.  1.
         25    1    1    2    0    0 -0.20416255445E+03  0.13938085176E+03  0.73501754781E+03  0.78548403298E+03  0.12500000000E+03 0.  0.
         21    1    1    2  503  502  0.17545794125E+03 -0.13230219788E+03  0.59351527182E+03  0.63288998933E+03  0.00000000000E+00 0. -1.
         -2    1    1    2    0  503  0.28704613201E+02 -0.70786538811E+01 -0.13596122192E+03  0.13913847787E+03  0.00000000000E+00 0.  1.
<mgrwt>
<rscale>  4 0.49677501E+03</rscale>
<asrwt>0</asrwt>
<pdfrwt beam="1">  1       21 0.21154492E+00 0.49677501E+03</pdfrwt>
<pdfrwt beam="2">  1       -2 0.28072378E-01 0.49677501E+03</pdfrwt>
<totfact> 0.89928165E+01</totfact>
</mgrwt>
</event>
<event>
 5    0  0.2396052E+000  0.5934366E+03  0.7546771E-02  0.9919117E-01
         21   -1    0    0  501  502  0.00000000000E+00  0.00000000000E+00  0.23427634120E+03  0.23427634120E+03  0.00000000000E+00 0.  1.
          2   -1    0    0  503    0 -0.00000000000E+00 -0.00000000000E+00 -0.11694366889E+04  0.11694366889E+04  0.00000000000E+00 0.  1.
         25    1    1    2    0    0 -0.15880908643E+03 -0.14600153538E+03  0.12888761378E+03  0.28066669067E+03  0.12500000000E+03 0.  0.
         21    1    1    2  503  502  0.14233558436E+03  0.12189113359E+03 -0.27111456408E+03  0.32957544490E+03  0.00000000000E+00 0.  1.
          2    1    1    2  501    0  0.16473502067E+02  0.24110401784E+02 -0.79293339736E+03  0.79347089448E+03  0.00000000000E+00 0.  1.
<mgrwt>
<rscale>  4 0.59343657E+03</rscale>
<asrwt>0</asrwt>
<pdfrwt beam="1">  1       21 0.36042514E-01 0.59343657E+03</pdfrwt>
<pdfrwt beam="2">  1        2 0.17991333E+00 0.59343657E+03</pdfrwt>
<totfact> 0.17537238E+03</totfact>
</mgrwt>
</event>
<event>
 5    0  0.2396052E+000  0.4861932E+03  0.7546771E-02  0.1017447E+00
         21   -1    0    0  501  502  0.00000000000E+00  0.00000000000E+00  0.40831434921E+03  0.40831434921E+03  0.00000000000E+00 0.  1.
          2   -1    0    0  503    0 -0.00000000000E+00 -0.00000000000E+00 -0.79443677203E+03  0.79443677203E+03  0.00000000000E+00 0.  1.
         25    1    1    2    0    0  0.35160546460E+03 -0.15165856405E+03  0.21051865024E+03  0.45449953232E+03  0.12500000000E+03 0.  0.
         21    1    1    2  503  502 -0.69171445487E+02  0.31233145741E+02  0.14984855671E+01  0.75910761573E+02  0.00000000000E+00 0. -1.
          2    1    1    2  501    0 -0.28243401911E+03  0.12042541831E+03 -0.59813955863E+03  0.67234082735E+03  0.00000000000E+00 0.  1.
<mgrwt>
<rscale>  4 0.48619319E+03</rscale>
<asrwt>0</asrwt>
<pdfrwt beam="1">  1       21 0.62817593E-01 0.48619319E+03</pdfrwt>
<pdfrwt beam="2">  1        2 0.12222104E+00 0.48619319E+03</pdfrwt>
<totfact> 0.95863418E+02</totfact>
</mgrwt>
</event>
<event>
 5    0  0.2396052E+000  0.4134258E+03  0.7546771E-02  0.1039227E+00
         21   -1    0    0  501  502  0.00000000000E+00  0.00000000000E+00  0.30455912568E+04  0.30455912568E+04  0.00000000000E+00 0. -1.
         -2   -1    0    0    0  501 -0.00000000000E+00 -0.00000000000E+00 -0.27200531145E+03  0.27200531145E+03  0.00000000000E+00 0. -1.
         25    1    1    2    0    0 -0.16837182623E+03  0.14444890068E+03  0.21157471681E+04  0.21310151656E+04  0.12500000000E+03 0.  0.
         21    1    1    2  503  502  0.11001512592E+03 -0.10700887555E+03  0.91113336643E+03  0.92396874341E+03  0.00000000000E+00 0. -1.
         -2    1    1    2    0  503  0.58356700305E+02 -0.37440025131E+02 -0.25329458911E+03  0.26261265930E+03  0.00000000000E+00 0. -1.
<mgrwt>
<rscale>  4 0.41342583E+03</rscale>
<asrwt>0</asrwt>
<pdfrwt beam="1">  1       21 0.46855248E+00 0.41342583E+03</pdfrwt>
<pdfrwt beam="2">  1       -2 0.41846973E-01 0.41342583E+03</pdfrwt>
<totfact> 0.10676235E+00</totfact>
</mgrwt>
</event>
<event>
 5    0  0.2396052E+000  0.6192571E+03  0.7546771E-02  0.9866240E-01
         21   -1    0    0  501  502  0.00000000000E+00  0.00000000000E+00  0.34533862648E+03  0.34533862648E+03  0.00000000000E+00 0. -1.
          2   -1    0    0  503    0 -0.00000000000E+00 -0.00000000000E+00 -0.12827818856E+04  0.12827818856E+04  0.00000000000E+00 0.  1.
         25    1    1    2    0    0  0.25781128828E+03 -0.33936420320E+02  0.22375072619E+03  0.36511330907E+03  0.12500000000E+03 0.  0.
         21    1    1    2  503  502 -0.20229201282E+03 -0.16628700259E+02 -0.15856073111E+03  0.25756567623E+03  0.00000000000E+00 0.  1.
          2    1    1    2  501    0 -0.55519275461E+02  0.50565120579E+02 -0.10026332542E+04  0.10054415268E+04  0.00000000000E+00 0.  1.
<mgrwt>
<rscale>  4 0.61925712E+03</rscale>
<asrwt>0</asrwt>
<pdfrwt beam="1">  1       21 0.53129020E-01 0.61925712E+03</pdfrwt>
<pdfrwt beam="2">  1        2 0.19735106E+00 0.61925712E+03</pdfrwt>
<totfact> 0.66343320E+02</totfact>
</mgrwt>
</event>
<event>
 5    0  0.2396052E+000  0.5373942E+03  0.7546771E-02  0.1004455E+00
          2   -1    0    0  503    0 -0.00000000000E+00  0.00000000000E+00  0.41131609619E+04  0.41131609619E+04  0.00000000000E+00 0.  1.
         21   -1    0    0  501  502  0.00000000000E+00 -0.00000000000E+00 -0.86951570914E+02  0.86951570914E+02  0.00000000000E+00 0.  1.
         25    1    1    2    0    0  0.22312452842E+03 -0.74168462925E+02  0.13608426792E+03  0.29904756152E+03  0.12500000000E+03 0.  0.
         21    1    1    2  503  502  0.26154556759E+02  0.23403068993E+02  0.66301764881E+03  0.66394590676E+03  0.00000000000E+00 0. -1.
          2    1    1    2  501    0 -0.24927908518E+03  0.50765393931E+02  0.32271074743E+04  0.32371190645E+04  0.00000000000E+00 0.  1.
<mgrwt>
<rscale>  4 0.53739422E+03</rscale>
<asrwt>0</asrwt>
<pdfrwt beam="1">  1       21 0.13377168E-01 0.53739422E+03</pdfrwt>
<pdfrwt beam="2">  1        2 0.63279384E+00 0.53739422E+03</pdfrwt>
<totfact> 0.19271429E+02</totfact>
</mgrwt>
</event>
<event>
 5    0  0.2396052E+000  0.4653642E+03  0.7546771E-02  0.1023237E+00
         21   -1    0    0  501  502  0.00000000000E+00  0.00000000000E+00  0.11132384238E+04  0.11132384238E+04  0.00000000000E+00 0.  1.
         -3   -1    0    0    0  501 -0.00000000000E+00 -0.00000000000E+00 -0.16697808047E+03  0.16697808047E+03  0.00000000000E+00 0. -1.
         25    1    1    2    0    0  0.29538718994E+03 -0.77049345232E+02  0.64982606409E+03  0.72875860692E+03  0.12500000000E+03 0.  0.
         21    1    1    2  503  502 -0.12032774384E+03 -0.61073470276E+02  0.29944988828E+03  0.32844934206E+03  0.00000000000E+00 0. -1.
         -3    1    1    2    0  503 -0.17505944610E+03  0.13812281551E+03 -0.30156090439E+01  0.22300855529E+03  0.00000000000E+00 0. -1.
<mgrwt>
<rscale>  4 0.46536417E+03</rscale>
<asrwt>0</asrwt>
<pdfrwt beam="1">  1       21 0.17126745E+00 0.46536417E+03</pdfrwt>
<pdfrwt beam="2">  1       -3 0.25688936E-01 0.46536417E+03</pdfrwt>
<totfact> 0.13522925E+02</totfact>
</mgrwt>
</event>
<event>
 5    0  0.2396052E+000  0.7934844E+03  0.7546771E-02  0.9569496E-01
         21   -1    0    0  501  502  0.00000000000E+00  0.00000000000E+00  0.51664524440E+03  0.51664524440E+03  0.00000000000E+00 0.  1.
          2   -1    0    0  503    0 -0.00000000000E+00 -0.00000000000E+00 -0.51692956558E+03  0.51692956558E+03  0.00000000000E+00 0. -1.
         25    1    1    2    0    0 -0.19911662746E+03 -0.13585467272E+03 -0.19066570405E+03  0.33178657920E+03  0.12500000000E+03 0.  0.
         21    1    1    2  503  502  0.21981530684E+03  0.17727085936E+03  0.39859477681E+03  0.48848902014E+03  0.00000000000E+00 0.  1.
          2    1    1    2  501    0 -0.20698679380E+02 -0.41416186636E+02 -0.20821339394E+03  0.21329921064E+03  0.00000000000E+00 0. -1.
<mgrwt>
<rscale>  4 0.79348444E+03</rscale>
<asrwt>0</asrwt>
<pdfrwt beam="1">  1       21 0.79483884E-01 0.79348444E+03</pdfrwt>
<pdfrwt beam="2">  1        2 0.79527625E-01 0.79348444E+03</pdfrwt>
<totfact> 0.90357867E+02</totfact>
</mgrwt>
</event>
<event>
 5    0  0.2396052E+000  0.4698668E+03  0.7546771E-02  0.1021958E+00
          1   -1    0    0  503    0 -0.00000000000E+00  0.00000000000E+00  0.18893315775E+03  0.18893315775E+03  0.00000000000E+00 0. -1.
         21   -1    0    0  501  502  0.00000000000E+00 -0.00000000000E+00 -0.21711261156E+04  0.21711261156E+04  0.00000000000E+00 0. -1.
         25    1    1    2    0    0  0.26070668420E+02 -0.26376873663E+03 -0.20099343566E+04  0.20311855513E+04  0.12500000000E+03 0.  0.
         21    1    1    2  503  502  0.47850217624E+02  0.57123024725E+00 -0.19070649137E+02  0.51513680602E+02  0.00000000000E+00 0.  1.
          1    1    1    2  501    0 -0.73920886044E+02  0.26319750638E+03  0.46812047849E+02  0.27736004143E+03  0.00000000000E+00 0. -1.
<mgrwt>
<rscale>  4 0.46986677E+03</rscale>
<asrwt>0</asrwt>
<pdfrwt beam="1">  1       21 0.33401941E+00 0.46986677E+03</pdfrwt>
<pdfrwt beam="2">  1        1 0.29066639E-01 0.46986677E+03</pdfrwt>
<totfact> 0.29630516E+01</totfact>
</mgrwt>
</event>
<event>
 5    0  0.2396052E+000  0.5763389E+03  0.7546771E-02  0.9955749E-01
          1   -1    0    0  503    0 -0.00000000000E+00  0.00000000000E+00  0.75454302355E+03  0.75454302355E+03  0.00000000000E+00 0.  1.
         21   -1    0    0  501  502  0.00000000000E+00 -0.00000000000E+00 -0.55632531737E+03  0.55632531737E+03  0.00000000000E+00 0.  1.
         25    1    1    2    0    0 -0.34689180496E+03  0.27890982620E+03  0.34116636298E+03  0.57458167629E+03  0.12500000000E+03 0.  0.
         21    1    1    2  503  502  0.24559895243E+02  0.10759323345E+03  0.12449360404E+03  0.16636751421E+03  0.00000000000E+00 0. -1.
          1    1    1    2  501    0  0.32233190971E+03 -0.38650305966E+03 -0.26744226083E+03  0.56991915043E+03  0.00000000000E+00 0.  1.
<mgrwt>
<rscale>  4 0.57633887E+03</rscale>
<asrwt>0</asrwt>
<pdfrwt beam="1">  1       21 0.85588510E-01 0.57633887E+03</pdfrwt>
<pdfrwt beam="2">  1        1 0.11608354E+00 0.57633887E+03</pdfrwt>
<totfact> 0.28598721E+02</totfact>
</mgrwt>
</event>
<event>
 5    0  0.2396052E+000  0.5296792E+03  0.7546771E-02  0.1006310E+00
         21   -1    0    0  501  502  0.00000000000E+00  0.00000000000E+00  0.74819292022E+03  0.74819292022E+03  0.00000000000E+00 0. -1.
          2   -1    0    0  503    0 -0.00000000000E+00 -0.00000000000E+00 -0.30498671422E+04  0.30498671422E+04  0.00000000000E+00 0.  1.
         25    1    1    2    0    0  0.20380081199E+03  0.68711040136E+02  0.12592635413E+03  0.27881611264E+03  0.12500000000E+03 0.  0.
         21    1    1    2  503  502 -0.17129416441E+03 -0.91972876105E+02  0.52836860529E+03  0.56300451486E+03  0.00000000000E+00 0. -1.
          2    1    1    2  501    0 -0.32506647578E+02  0.23261835969E+02 -0.29559691814E+04  0.29562394349E+04  0.00000000000E+00 0.  1.
<mgrwt>
<rscale>  4 0.52967922E+03</rscale>
<asrwt>0</asrwt>
<pdfrwt beam="1">  1       21 0.11510660E+00 0.52967922E+03</pdfrwt>
<pdfrwt beam="2">  1        2 0.46921034E+00 0.52967922E+03</pdfrwt>
<totfact> 0.11592591E+01</totfact>
</mgrwt>
</event>
<event>
 5    0  0.2396052E+000  0.4338540E+03  0.7546771E-02  0.1032649E+00
          2   -1    0    0  503    0 -0.00000000000E+00  0.00000000000E+00  0.22061392047E+04  0.22061392047E+04  0.00000000000E+00 0. -1.
         21   -1    0    0  501  502  0.00000000000E+00 -0.00000000000E+00 -0.32218159051E+02  0.32218159051E+02  0.00000000000E+00 0.  1.
         25    1    1    2    0    0  0.22612473266E+03  0.35715099374E+02  0.96518454570E+03  0.99980706654E+03  0.12500000000E+03 0.  0.
         21    1    1    2  503  502 -0.16624329807E+03 -0.41717561601E+02  0.52719912829E+03  0.55436099247E+03  0.00000000000E+00 0.  1.
          2    1    1    2  501    0 -0.59881434594E+02  0.60024622273E+01  0.68153737162E+03  0.68418930471E+03  0.00000000000E+00 0. -1.
<mgrwt>
<rscale>  4 0.43385404E+03</rscale>
<asrwt>0</asrwt>
<pdfrwt beam="1">  1       21 0.49566416E-02 0.43385404E+03</pdfrwt>
<pdfrwt beam="2">  1        2 0.33940591E+00 0.43385404E+03</pdfrwt>
<totfact> 0.19314076E+04</totfact>
</mgrwt>
</event>
<event>
 5    0  0.2396052E+000  0.3165853E+03  0.7546771E-02  0.1077232E+00
         21   -1    0    0  501  502  0.00000000000E+00  0.00000000000E+00  0.88232703993E+03  0.88232703993E+03  0.00000000000E+00 0.  1.
         -2   -1    0    0    0  501 -0.00000000000E+00 -0.00000000000E+00 -0.90050130879E+02  0.90050130879E+02  0.00000000000E+00 0. -1.
         25    1    1    2    0    0  0.15800788638E+03 -0.12985997603E+03  0.48060371868E+03  0.53706148618E+03  0.12500000000E+03 0.  0.
         21    1    1    2  503  502 -0.61323444637E+02  0.16240998604E+02  0.27426897822E+03  0.28150987072E+03  0.00000000000E+00 0. -1.
         -2    1    1    2    0  503 -0.96684441739E+02  0.11361897742E+03  0.37404212151E+02  0.15380581391E+03  0.00000000000E+00 0. -1.
<mgrwt>
<rscale>  4 0.31658534E+03</rscale>
<asrwt>0</asrwt>
<pdfrwt beam="1">  1       21 0.13574262E+00 0.31658534E+03</pdfrwt>
<pdfrwt beam="2">  1       -2 0.13853867E-01 0.31658534E+03</pdfrwt>
<totfact> 0.11433970E+03</totfact>
</mgrwt>
</event>
<event>
 5    0  0.2396052E+000  0.4019618E+03  0.7546771E-02  0.1043102E+00
          2   -1    0    0  503    0 -0.00000000000E+00  0.00000000000E+00  0.62326056688E+03  0.62326056688E+03  0.00000000000E+00 0.  1.
         21   -1    0    0  501  502  0.00000000000E+00 -0.00000000000E+00 -0.10136248895E+04  0.10136248895E+04  0.00000000000E+00 0.  1.
         25    1    1    2    0    0 -0.23794992254E+03 -0.85314574299E+02 -0.91407943834E+03  0.95659027897E+03  0.12500000000E+03 0.  0.
         21    1    1    2  503  502  0.65410070716E+02  0.25001578084E+02 -0.44793911661E+02  0.83126715198E+02  0.00000000000E+00 0. -1.
          2    1    1    2  501    0  0.17253985183E+03  0.60312996215E+02  0.56850902740E+03  0.59716846218E+03  0.00000000000E+00 0.  1.
<mgrwt>
<rscale>  4 0.40196185E+03</rscale>
<asrwt>0</asrwt>
<pdfrwt beam="1">  1       21 0.15594229E+00 0.40196185E+03</pdfrwt>
<pdfrwt beam="2">  1        2 0.95886241E-01 0.40196185E+03</pdfrwt>
<totfact> 0.14490461E+02</totfact>
</mgrwt>
</event>
<event>
 5    0  0.2396052E+000  0.4359144E+03  0.7546771E-02  0.1032008E+00
         21   -1    0    0  501  502  0.00000000000E+00  0.00000000000E+00  0.57064327589E+02  0.57064327589E+02  0.00000000000E+00 0.  1.
          4   -1    0    0  503    0 -0.00000000000E+00 -0.00000000000E+00 -0.15287156410E+04  0.15287156410E+04  0.00000000000E+00 0.  1.
         25    1    1    2    0    0 -0.22126409334E+03  0.33068890303E+01 -0.45928730750E+03  0.52491767483E+03  0.12500000000E+03 0.  0.
         21    1    1    2  503  502  0.18013250634E+03  0.24269920754E+02 -0.33033949939E+03  0.37704235007E+03  0.00000000000E+00 0.  1.
          4    1    1    2  501    0  0.41131587002E+02 -0.27576809784E+02 -0.68202450652E+03  0.68381994368E+03  0.00000000000E+00 0.  1.
<mgrwt>
<rscale>  4 0.43591443E+03</rscale>
<asrwt>0</asrwt>
<pdfrwt beam="1">  1       21 0.87791288E-02 0.43591443E+03</pdfrwt>
<pdfrwt beam="2">  1        4 0.23518698E+00 0.43591443E+03</pdfrwt>
<totfact> 0.36866855E+02</totfact>
</mgrwt>
</event>
<event>
 5    0  0.2396052E+000  0.6034266E+03  0.7546771E-02  0.9898322E-01
         21   -1    0    0  501  502  0.00000000000E+00  0.00000000000E+00  0.15079506540E+03  0.15079506540E+03  0.00000000000E+00 0.  1.
         -4   -1    0    0    0  501 -0.00000000000E+00 -0.00000000000E+00 -0.11508943153E+04  0.11508943153E+04  0.00000000000E+00 0.  1.
         25    1    1    2    0    0  0.24766804729E+03  0.28300101841E+02 -0.30798607401E+03  0.41547656877E+03  0.12500000000E+03 0.  0.
         21    1    1    2  503  502 -0.30548870823E+03 -0.38996213977E+02 -0.15295827591E+03  0.34386085810E+03  0.00000000000E+00 0.  1.
         -4    1    1    2    0  503  0.57820660943E+02  0.10696112136E+02 -0.53915489996E+03  0.54235195381E+03  0.00000000000E+00 0.  1.
<mgrwt>
<rscale>  4 0.60342658E+03</rscale>
<asrwt>0</asrwt>
<pdfrwt beam="1">  1       21 0.23199240E-01 0.60342658E+03</pdfrwt>
<pdfrwt beam="2">  1       -4 0.17706067E+00 0.60342658E+03</pdfrwt>
<totfact> 0.14154735E+02</totfact>
</mgrwt>
</event>
<event>
 5    0  0.2396052E+000  0.3591917E+03  0.7546771E-02  0.1058904E+00
          2   -1    0    0  503    0 -0.00000000000E+00  0.00000000000E+00  0.19219162387E+04  0.19219162387E+04  0.00000000000E+00 0. -1.
         21   -1    0    0  501  502  0.00000000000E+00 -0.00000000000E+00 -0.53128533718E+02  0.53128533718E+02  0.00000000000E+00 0. -1.
         25    1    1    2    0    0 -0.19710940863E+03  0.13933750115E+03  0.45598181572E+03  0.53085918516E+03  0.12500000000E+03 0.  0.
         21    1    1    2  503  502  0.78770271977E+02 -0.36954250978E+02  0.16434315826E+03  0.18595441936E+03  0.00000000000E+00 0.  1.
          2    1    1    2  501    0  0.11833913665E+03 -0.10238325017E+03  0.12484627310E+04  0.12582311679E+04  0.00000000000E+00 0. -1.
<mgrwt>
<rscale>  4 0.35919169E+03</rscale>
<asrwt>0</asrwt>
<pdfrwt beam="1">  1       21 0.81736220E-02 0.35919169E+03</pdfrwt>
<pdfrwt beam="2">  1        2 0.29567937E+00 0.35919169E+03</pdfrwt>
<totfact> 0.11632085E+04</totfact>
</mgrwt>
</event>
<event>
 5    0  0.2396052E+000  0.3873050E+03  0.7546771E-02  0.1048266E+00
         -1   -1    0    0    0  501 -0.00000000000E+00  0.00000000000E+00  0.93338981245E+03  0.93338981245E+03  0.00000000000E+00 0. -1.
         21   -1    0    0  501  502  0.00000000000E+00 -0.00000000000E+00 -0.13100194225E+03  0.13100194225E+03  0.00000000000E+00 0.  1.
         25    1    1    2    0    0 -0.24373648899E+03  0.43986416828E+02  0.10924467407E+03  0.29816384714E+03  0.12500000000E+03 0.  0.
         21    1    1    2  503  502  0.94439848578E+02  0.44540996106E+02  0.87586778510E+02  0.13628730353E+03  0.00000000000E+00 0. -1.
         -1    1    1    2    0  503  0.14929664041E+03 -0.88527412934E+02  0.60555641762E+03  0.62994060403E+03  0.00000000000E+00 0. -1.
<mgrwt>
<rscale>  4 0.38730502E+03</rscale>
<asrwt>0</asrwt>
<pdfrwt beam="1">  1       21 0.20154146E-01 0.38730502E+03</pdfrwt>
<pdfrwt beam="2">  1       -1 0.14359843E+00 0.38730502E+03</pdfrwt>
<totfact> 0.86047995E+02</totfact>
</mgrwt>
</event>
<event>
 5    0  0.2396052E+000  0.5038503E+03  0.7546771E-02  0.1012779E+00
          1   -1    0    0  503    0 -0.00000000000E+00  0.00000000000E+00  0.12192605325E+04  0.12192605325E+04  0.00000000000E+00 0.  1.
         21   -1    0    0  501  502  0.00000000000E+00 -0.00000000000E+00 -0.41384914034E+03  0.41384914034E+03  0.00000000000E+00 0.  1.
         25    1    1    2    0    0  0.32388260826E+02 -0.25260694294E+03 -0.32825370786E+03  0.43386030446E+03  0.12500000000E+03 0.  0.
         21    1    1    2  503  502 -0.69606682147E+02 -0.31125645973E+02  0.94622819427E+02  0.12152108456E+03  0.00000000000E+00 0. -1.
          1    1    1    2  501    0  0.37218421322E+02  0.28373258891E+03  0.10390422806E+04  0.10777282838E+04  0.00000000000E+00 0.  1.
<mgrwt>
<rscale>  4 0.50385027E+03</rscale>
<asrwt>0</asrwt>
<pdfrwt beam="1">  1       21 0.63669099E-01 0.50385027E+03</pdfrwt>
<pdfrwt beam="2">  1        1 0.18757854E+00 0.50385027E+03</pdfrwt>
<totfact> 0.24824916E+02</totfact>
</mgrwt>
</event>
<event>
 5    0  0.2396052E+000  0.4727744E+03  0.7546771E-02  0.1021140E+00
          2   -1    0    0  503    0 -0.00000000000E+00  0.00000000000E+00  0.27088837920E+04  0.27088837920E+04  0.00000000000E+00 0. -1.
         21   -1    0    0  501  502  0.00000000000E+00 -0.00000000000E+00 -0.17944292992E+03  0.17944292992E+03  0.00000000000E+00 0.  1.
         25    1    1    2    0    0  0.62324743406E+02  0.19301506742E+03 -0.85676980411E+02  0.25318912864E+03  0.12500000000E+03 0.  0.
         21    1    1    2  503  502 -0.77369421615E+02 -0.21192279637E+02  0.22623630535E+03  0.24003750952E+03  0.00000000000E+00 0. -1.
          2    1    1    2  501    0  0.15044678210E+02 -0.17182278778E+03  0.23888815372E+04  0.23951000838E+04  0.00000000000E+00 0. -1.
<mgrwt>
<rscale>  4 0.47277436E+03</rscale>
<asrwt>0</asrwt>
<pdfrwt beam="1">  1       21 0.27606606E-01 0.47277436E+03</pdfrwt>
<pdfrwt beam="2">  1        2 0.41675132E+00 0.47277436E+03</pdfrwt>
<totfact> 0.43484343E+02</totfact>
</mgrwt>
</event>
<event>
 5    0  0.2396052E+000  0.6504494E+03  0.7546771E-02  0.9805936E-01
         21   -1    0    0  501  502  0.00000000000E+00  0.00000000000E+00  0.25005119927E+03  0.25005119927E+03  0.00000000000E+00 0.  1.
          3   -1    0    0  503    0 -0.00000000000E+00 -0.00000000000E+00 -0.13791183780E+04  0.13791183780E+04  0.00000000000E+00 0.  1.
         25    1    1    2    0    0  0.26788337230E+03  0.31542597513E+02  0.78513573894E+02  0.30748303676E+03  0.12500000000E+03 0.  0.
         21    1    1    2  503  502 -0.25919331064E+03 -0.55505109315E+02 -0.25191774004E+03  0.36568365726E+03  0.00000000000E+00 0.  1.
          3    1    1    2  501    0 -0.86900616582E+01  0.23962511802E+02 -0.95566301262E+03  0.95600288327E+03  0.00000000000E+00 0.  1.
<mgrwt>
<rscale>  4 0.65044938E+03</rscale>
<asrwt>0</asrwt>
<pdfrwt beam="1">  1       21 0.38469415E-01 0.65044938E+03</pdfrwt>
<pdfrwt beam="2">  1        3 0.21217206E+00 0.65044938E+03</pdfrwt>
<totfact> 0.38945205E+01</totfact>
</mgrwt>
</event>
<event>
 5    0  0.2396052E+000  0.4131846E+03  0.7546771E-02  0.1039308E+00
         21   -1    0    0  501  502  0.00000000000E+00  0.00000000000E+00  0.44952856056E+03  0.44952856056E+03  0.00000000000E+00 0. -1.
          4   -1    0    0  503    0 -0.00000000000E+00 -0.00000000000E+00 -0.17894558926E+03  0.17894558926E+03  0.00000000000E+00 0. -1.
         25    1    1    2    0    0 -0.96946340336E+02 -0.17920446106E+03  0.11757454009E+03  0.26638619380E+03  0.12500000000E+03 0.  0.
         21    1    1    2  503  502  0.75448642051E+02  0.12908728364E+03  0.22599456723E+03  0.27097890841E+03  0.00000000000E+00 0. -1.
          4    1    1    2  501    0  0.21497698285E+02  0.50117177422E+02 -0.72986136028E+02  0.91109047611E+02  0.00000000000E+00 0. -1.
<mgrwt>
<rscale>  4 0.41318461E+03</rscale>
<asrwt>0</asrwt>
<pdfrwt beam="1">  1       21 0.69158240E-01 0.41318461E+03</pdfrwt>
<pdfrwt beam="2">  1        4 0.27530091E-01 0.41318461E+03</pdfrwt>
<totfact> 0.99117351E+02</totfact>
</mgrwt>
</event>
<event>
 5    0  0.2396052E+000  0.4427662E+03  0.7546771E-02  0.1029901E+00
          2   -1    0    0  503    0 -0.00000000000E+00  0.00000000000E+00  0.25626364400E+04  0.25626364400E+04  0.00000000000E+00 0.  1.
         21   -1    0    0  501  502  0.00000000000E+00 -0.00000000000E+00 -0.13865960193E+03  0.13865960193E+03  0.00000000000E+00 0.  1.
         25    1    1    2    0    0 -0.26325670788E+03  0.12228794130E+03  0.12965286473E+03  0.34160401075E+03  0.12500000000E+03 0.  0.
         21    1    1    2  503  502 -0.86858334019E+01 -0.11647790737E+03  0.11657561380E+03  0.16502248434E+03  0.00000000000E+00 0. -1.
          2    1    1    2  501    0  0.27194254128E+03 -0.58100339352E+01  0.21777483595E+04  0.21946695468E+04  0.00000000000E+00 0.  1.
<mgrwt>
<rscale>  4 0.44276624E+03</rscale>
<asrwt>0</asrwt>
<pdfrwt beam="1">  1       21 0.21332248E-01 0.44276624E+03</pdfrwt>
<pdfrwt beam="2">  1        2 0.39425172E+00 0.44276624E+03</pdfrwt>
<totfact> 0.87723777E+02</totfact>
</mgrwt>
</event>
<event>
 5    0  0.2396052E+000  0.3746115E+03  0.7546771E-02  0.1052944E+00
          1   -1    0    0  503    0 -0.00000000000E+00  0.00000000000E+00  0.21155361200E+04  0.21155361200E+04  0.00000000000E+00 0.  1.
         21   -1    0    0  501  502  0.00000000000E+00 -0.00000000000E+00 -0.81632341709E+02  0.81632341709E+02  0.00000000000E+00 0.  1.
         25    1    1    2    0    0 -0.12098784700E+03  0.16695466797E+03  0.12901125898E+03  0.27346082941E+03  0.12500000000E+03 0.  0.
         21    1    1    2  503  502  0.26612129520E+02 -0.77140167446E+02  0.23545851491E+03  0.24919775905E+03  0.00000000000E+00 0. -1.
          1    1    1    2  501    0  0.94375717483E+02 -0.89814500525E+02  0.16694340044E+04  0.16745098733E+04  0.00000000000E+00 0.  1.
<mgrwt>
<rscale>  4 0.37461151E+03</rscale>
<asrwt>0</asrwt>
<pdfrwt beam="1">  1       21 0.12558823E-01 0.37461151E+03</pdfrwt>
<pdfrwt beam="2">  1        1 0.32546705E+00 0.37461151E+03</pdfrwt>
<totfact> 0.16276550E+03</totfact>
</mgrwt>
</event>
<event>
 5    0  0.2396052E+000  0.5458360E+03  0.7546771E-02  0.1002462E+00
          1   -1    0    0  503    0 -0.00000000000E+00  0.00000000000E+00  0.15010841038E+04  0.15010841038E+04  0.00000000000E+00 0. -1.
         21   -1    0    0  501  502  0.00000000000E+00 -0.00000000000E+00 -0.76562474077E+02  0.76562474077E+02  0.00000000000E+00 0.  1.
         25    1    1    2    0    0  0.11976335416E+02  0.21234799675E+03  0.15967522313E+03  0.29386439257E+03  0.12500000000E+03 0.  0.
         21    1    1    2  503  502 -0.10774838809E+02 -0.15457266518E+03  0.75965551726E+03  0.77529691788E+03  0.00000000000E+00 0. -1.
          1    1    1    2  501    0 -0.12014966075E+01 -0.57775331576E+02  0.50519088937E+03  0.50848526747E+03  0.00000000000E+00 0. -1.
<mgrwt>
<rscale>  4 0.54583596E+03</rscale>
<asrwt>0</asrwt>
<pdfrwt beam="1">  1       21 0.11778843E-01 0.54583596E+03</pdfrwt>
<pdfrwt beam="2">  1        1 0.23093599E+00 0.54583596E+03</pdfrwt>
<totfact> 0.44992060E+03</totfact>
</mgrwt>
</event>
<event>
 5    0  0.2396052E+000  0.3739244E+03  0.7546771E-02  0.1053202E+00
          2   -1    0    0  503    0 -0.00000000000E+00  0.00000000000E+00  0.30282047152E+03  0.30282047152E+03  0.00000000000E+00 0. -1.
         21   -1    0    0  501  502  0.00000000000E+00 -0.00000000000E+00 -0.23955165550E+03  0.23955165550E+03  0.00000000000E+00 0. -1.
         25    1    1    2    0    0  0.13669861264E+02  0.20780906092E+03 -0.10894560285E+03  0.26620596403E+03  0.12500000000E+03 0.  0.
         21    1    1    2  503  502 -0.19702923651E+02 -0.98415555778E+02  0.50336964591E+02  0.11228373357E+03  0.00000000000E+00 0.  1.
          2    1    1    2  501    0  0.60330623872E+01 -0.10939350514E+03  0.12187745429E+03  0.16388242942E+03  0.00000000000E+00 0. -1.
<mgrwt>
<rscale>  4 0.37392443E+03</rscale>
<asrwt>0</asrwt>
<pdfrwt beam="1">  1       21 0.36854101E-01 0.37392443E+03</pdfrwt>
<pdfrwt beam="2">  1        2 0.46587765E-01 0.37392443E+03</pdfrwt>
<totfact> 0.92342363E+03</totfact>
</mgrwt>
</event>
<event>
 5    0  0.2396052E+000  0.6992206E+03  0.7546771E-02  0.9718566E-01
         -1   -1    0    0    0  501 -0.00000000000E+00  0.00000000000E+00  0.21690307192E+04  0.21690307192E+04  0.00000000000E+00 0. -1.
         21   -1    0    0  501  502  0.00000000000E+00 -0.00000000000E+00 -0.12509682440E+03  0.12509682440E+03  0.00000000000E+00 0.  1.
         25    1    1    2    0    0  0.24625148909E+03  0.10810678739E+03  0.15474957378E+03  0.33451353328E+03  0.12500000000E+03 0.  0.
         21    1    1    2  503  502 -0.31226428675E+03 -0.51798935037E+02  0.71143707518E+03  0.77867504544E+03  0.00000000000E+00 0.  1.
         -1    1    1    2    0  503  0.66012797659E+02 -0.56307852354E+02  0.11777472458E+04  0.11809389649E+04  0.00000000000E+00 0. -1.
<mgrwt>
<rscale>  4 0.69922064E+03</rscale>
<asrwt>0</asrwt>
<pdfrwt beam="1">  1       21 0.19245667E-01 0.69922064E+03</pdfrwt>
<pdfrwt beam="2">  1       -1 0.33369701E+00 0.69922064E+03</pdfrwt>
<totfact> 0.47139424E+01</totfact>
</mgrwt>
</event>
<event>
 5    0  0.2396052E+000  0.6129257E+03  0.7546771E-02  0.9878946E-01
         21   -1    0    0  501  502  0.00000000000E+00  0.00000000000E+00  0.13618646830E+03  0.13618646830E+03  0.00000000000E+00 0. -1.
          2   -1    0    0  503    0 -0.00000000000E+00 -0.00000000000E+00 -0.27096982381E+04  0.27096982381E+04  0.00000000000E+00 0. -1.
         25    1    1    2    0    0  0.44166360995E+03  0.22647654726E+03 -0.62389403716E+03  0.80698645615E+03  0.12500000000E+03 0.  0.
         21    1    1    2  503  502 -0.99065554933E+02  0.39088325437E+01 -0.89665325572E+02  0.13367547926E+03  0.00000000000E+00 0.  1.
          2    1    1    2  501    0 -0.34259805501E+03 -0.23038537980E+03 -0.18599524071E+04  0.19052227710E+04  0.00000000000E+00 0. -1.
<mgrwt>
<rscale>  4 0.61292570E+03</rscale>
<asrwt>0</asrwt>
<pdfrwt beam="1">  1       21 0.20951765E-01 0.61292570E+03</pdfrwt>
<pdfrwt beam="2">  1        2 0.41687663E+00 0.61292570E+03</pdfrwt>
<totfact> 0.71379634E+02</totfact>
</mgrwt>
</event>
<event>
 5    0  0.2396052E+000  0.4487435E+03  0.7546771E-02  0.1028097E+00
         -1   -1    0    0    0  501 -0.00000000000E+00  0.00000000000E+00  0.23707618104E+03  0.23707618104E+03  0.00000000000E+00 0.  1.
         21   -1    0    0  501  502  0.00000000000E+00 -0.00000000000E+00 -0.39171399995E+03  0.39171399995E+03  0.00000000000E+00 0.  1.
         25    1    1    2    0    0 -0.85368540422E+01  0.21159242273E+03 -0.10957298320E+03  0.26921268522E+03  0.12500000000E+03 0.  0.
         21    1    1    2  503  502 -0.76158457318E+01 -0.19855284428E+03 -0.15229917664E+03  0.25035229634E+03  0.00000000000E+00 0.  1.
         -1    1    1    2    0  503  0.16152699774E+02 -0.13039578459E+02  0.10723434093E+03  0.10922519943E+03  0.00000000000E+00 0.  1.
<mgrwt>
<rscale>  4 0.44874351E+03</rscale>
<asrwt>0</asrwt>
<pdfrwt beam="1">  1       21 0.60263692E-01 0.44874351E+03</pdfrwt>
<pdfrwt beam="2">  1       -1 0.36473259E-01 0.44874351E+03</pdfrwt>
<totfact> 0.16131711E+03</totfact>
</mgrwt>
</event>
<event>
 5    0  0.2396052E+000  0.6226120E+03  0.7546771E-02  0.9859573E-01
         21   -1    0    0  501  502  0.00000000000E+00  0.00000000000E+00  0.64156328782E+03  0.64156328782E+03  0.00000000000E+00 0. -1.
          2   -1    0    0  503    0 -0.00000000000E+00 -0.00000000000E+00 -0.50901378913E+03  0.50901378913E+03  0.00000000000E+00 0. -1.
         25    1    1    2    0    0 -0.75674830996E+02 -0.36506584282E+03  0.27334185710E+03  0.47889510384E+03  0.12500000000E+03 0.  0.
         21    1    1    2  503  502  0.19279126724E+03  0.12419931804E+03  0.15179587920E+03  0.27501987613E+03  0.00000000000E+00 0. -1.
          2    1    1    2  501    0 -0.11711643624E+03  0.24086652478E+03 -0.29258823761E+03  0.39666209698E+03  0.00000000000E+00 0. -1.
<mgrwt>
<rscale>  4 0.62261200E+03</rscale>
<asrwt>0</asrwt>
<pdfrwt beam="1">  1       21 0.98702044E-01 0.62261200E+03</pdfrwt>
<pdfrwt beam="2">  1        2 0.78309814E-01 0.62261200E+03</pdfrwt>
<totfact> 0.56321551E+02</totfact>
</mgrwt>
</event>
<event>
 5    0  0.2396052E+000  0.3221593E+03  0.7546771E-02  0.1074660E+00
          2   -1    0    0  503    0 -0.00000000000E+00  0.00000000000E+00  0.19330886487E+04  0.19330886487E+04  0.00000000000E+00 0.  1.
         21   -1    0    0  501  502  0.00000000000E+00 -0.00000000000E+00 -0.69355749957E+02  0.69355749957E+02  0.00000000000E+00 0.  1.
         25    1    1    2    0    0  0.24738396175E+03  0.30228438995E+02  0.28946574543E+03  0.40190546256E+03  0.12500000000E+03 0.  0.
         21    1    1    2  503  502 -0.22127872482E+02 -0.31974716262E+02  0.75371651263E+02  0.84811031327E+02  0.00000000000E+00 0. -1.
          2    1    1    2  501    0 -0.22525608927E+03  0.17462772669E+01  0.14988955020E+04  0.15157279047E+04  0.00000000000E+00 0.  1.
<mgrwt>
<rscale>  4 0.32215931E+03</rscale>
<asrwt>0</asrwt>
<pdfrwt beam="1">  1       21 0.10670117E-01 0.32215931E+03</pdfrwt>
<pdfrwt beam="2">  1        2 0.29739821E+00 0.32215931E+03</pdfrwt>
<totfact> 0.72059281E+03</totfact>
</mgrwt>
</event>
<event>
 5    0  0.2396052E+000  0.3451718E+03  0.7546771E-02  0.1064614E+00
         21   -1    0    0  501  502  0.00000000000E+00  0.00000000000E+00  0.29126753223E+03  0.29126753223E+03  0.00000000000E+00 0. -1.
          2   -1    0    0  503    0 -0.00000000000E+00 -0.00000000000E+00 -0.45518003468E+03  0.45518003468E+03  0.00000000000E+00 0. -1.
         25    1    1    2    0    0  0.20508222185E+02 -0.26444657401E+03  0.12632669643E+03  0.31927419550E+03  0.12500000000E+03 0.  0.
         21    1    1    2  503  502 -0.34229469737E+02  0.37329671912E+02  0.88084458585E+01  0.51407681546E+02  0.00000000000E+00 0. -1.
          2    1    1    2  501    0  0.13721247552E+02  0.22711690210E+03 -0.29904764475E+03  0.37576568987E+03  0.00000000000E+00 0. -1.
<mgrwt>
<rscale>  4 0.34517176E+03</rscale>
<asrwt>0</asrwt>
<pdfrwt beam="1">  1       21 0.44810389E-01 0.34517176E+03</pdfrwt>
<pdfrwt beam="2">  1        2 0.70027698E-01 0.34517176E+03</pdfrwt>
<totfact> 0.39653296E+03</totfact>
</mgrwt>
</event>
<event>
 5    0  0.2396052E+000  0.6188181E+03  0.7546771E-02  0.9867116E-01
         21   -1    0    0  501  502  0.00000000000E+00  0.00000000000E+00  0.75885393600E+02  0.75885393600E+02  0.00000000000E+00 0. -1.
          2   -1    0    0  503    0 -0.00000000000E+00 -0.00000000000E+00 -0.19136167646E+04  0.19136167646E+04  0.00000000000E+00 0. -1.
         25    1    1    2    0    0  0.20421609345E+03  0.74251234611E+02 -0.17179389401E+03  0.30390064278E+03  0.12500000000E+03 0.  0.
         21    1    1    2  503  502 -0.19032103900E+03 -0.58896601947E+02 -0.10167967267E+04  0.10361305376E+04  0.00000000000E+00 0.  1.
          2    1    1    2  501    0 -0.13895054443E+02 -0.15354632663E+02 -0.64914075036E+03  0.64947097784E+03  0.00000000000E+00 0. -1.
<mgrwt>
<rscale>  4 0.61881815E+03</rscale>
<asrwt>0</asrwt>
<pdfrwt beam="1">  1       21 0.11674677E-01 0.61881815E+03</pdfrwt>
<pdfrwt beam="2">  1        2 0.29440256E+00 0.61881815E+03</pdfrwt>
<totfact> 0.59030670E+03</totfact>
</mgrwt>
</event>
<event>
 5    0  0.2396052E+000  0.7816533E+03  0.7546771E-02  0.9586960E-01
          2   -1    0    0  503    0 -0.00000000000E+00  0.00000000000E+00  0.16716412433E+04  0.16716412433E+04  0.00000000000E+00 0.  1.
         21   -1    0    0  501  502  0.00000000000E+00 -0.00000000000E+00 -0.35326547759E+03  0.35326547759E+03  0.00000000000E+00 0. -1.
         25    1    1    2    0    0 -0.17814826442E+03 -0.36396226357E+03  0.26594424602E+03  0.50055636586E+03  0.12500000000E+03 0.  0.
         21    1    1    2  503  502  0.70895246925E+02  0.21827669187E+03 -0.17189020845E+03  0.28673523329E+03  0.00000000000E+00 0. -1.
          2    1    1    2  501    0  0.10725301749E+03  0.14568557170E+03  0.12243217281E+04  0.12376151217E+04  0.00000000000E+00 0.  1.
<mgrwt>
<rscale>  4 0.78165331E+03</rscale>
<asrwt>0</asrwt>
<pdfrwt beam="1">  1       21 0.54348536E-01 0.78165331E+03</pdfrwt>
<pdfrwt beam="2">  1        2 0.25717557E+00 0.78165331E+03</pdfrwt>
<totfact> 0.37125703E+02</totfact>
</mgrwt>
</event>
<event>
 5    0  0.2396052E+000  0.7031444E+03  0.7546771E-02  0.9711870E-01
          2   -1    0    0  503    0 -0.00000000000E+00  0.00000000000E+00  0.22116202141E+04  0.22116202141E+04  0.00000000000E+00 0.  1.
         21   -1    0    0  501  502  0.00000000000E+00 -0.00000000000E+00 -0.16582793263E+03  0.16582793263E+03  0.00000000000E+00 0.  1.
         25    1    1    2    0    0  0.34266059679E+03  0.50099673077E+02  0.12466027456E+03  0.38870483132E+03  0.12500000000E+03 0.  0.
         21    1    1    2  503  502 -0.24775971278E+03 -0.50831263168E+02  0.46342480438E+03  0.52795003732E+03  0.00000000000E+00 0.  1.
          2    1    1    2  501    0 -0.94900884012E+02  0.73159009097E+00  0.14577072025E+04  0.14607932781E+04  0.00000000000E+00 0.  1.
<mgrwt>
<rscale>  4 0.70314443E+03</rscale>
<asrwt>0</asrwt>
<pdfrwt beam="1">  1       21 0.25511991E-01 0.70314443E+03</pdfrwt>
<pdfrwt beam="2">  1        2 0.34024924E+00 0.70314443E+03</pdfrwt>
<totfact> 0.91049043E+02</totfact>
</mgrwt>
</event>
<event>
 5    0  0.2396052E+000  0.3729121E+03  0.7546771E-02  0.1053585E+00
          1   -1    0    0  503    0 -0.00000000000E+00  0.00000000000E+00  0.18176386180E+04  0.18176386180E+04  0.00000000000E+00 0.  1.
         21   -1    0    0  501  502  0.00000000000E+00 -0.00000000000E+00 -0.11585790640E+03  0.11585790640E+03  0.00000000000E+00 0.  1.
         25    1    1    2    0    0  0.21451979588E+03 -0.94229102284E+02  0.18149553760E+03  0.32165742135E+03  0.12500000000E+03 0.  0.
         21    1    1    2  503  502  0.22126164220E+02  0.10209025671E+03  0.38614885266E+02  0.11136919243E+03  0.00000000000E+00 0. -1.
          1    1    1    2  501    0 -0.23664596010E+03 -0.78611544266E+01  0.14816702887E+04  0.15004699106E+04  0.00000000000E+00 0.  1.
<mgrwt>
<rscale>  4 0.37291212E+03</rscale>
<asrwt>0</asrwt>
<pdfrwt beam="1">  1       21 0.17824295E-01 0.37291212E+03</pdfrwt>
<pdfrwt beam="2">  1        1 0.27963669E+00 0.37291212E+03</pdfrwt>
<totfact> 0.13374660E+03</totfact>
</mgrwt>
</event>
<event>
 5    0  0.2396052E+000  0.5337669E+03  0.7546771E-02  0.1005323E+00
         21   -1    0    0  501  502  0.00000000000E+00  0.00000000000E+00  0.10713469266E+04  0.10713469266E+04  0.00000000000E+00 0. -1.
         -1   -1    0    0    0  501 -0.00000000000E+00 -0.00000000000E+00 -0.22273455645E+03  0.22273455645E+03  0.00000000000E+00 0.  1.
         25    1    1    2    0    0  0.87303275659E+02 -0.23960540598E+03  0.77336776315E+03  0.82386607504E+03  0.12500000000E+03 0.  0.
         21    1    1    2  503  502 -0.76354785759E+02  0.19710762731E+03  0.22821851265E+03  0.31107098799E+03  0.00000000000E+00 0. -1.
         -1    1    1    2    0  503 -0.10948489899E+02  0.42497778668E+02 -0.15297390564E+03  0.15914442004E+03  0.00000000000E+00 0.  1.
<mgrwt>
<rscale>  4 0.53376687E+03</rscale>
<asrwt>0</asrwt>
<pdfrwt beam="1">  1       21 0.16482260E+00 0.53376687E+03</pdfrwt>
<pdfrwt beam="2">  1       -1 0.34266856E-01 0.53376687E+03</pdfrwt>
<totfact> 0.14963825E+02</totfact>
</mgrwt>
</event>
<event>
 5    0  0.2396052E+000  0.3869359E+03  0.7546771E-02  0.1048400E+00
         -3   -1    0    0    0  501 -0.00000000000E+00  0.00000000000E+00  0.14082377230E+03  0.14082377230E+03  0.00000000000E+00 0.  1.
         21   -1    0    0  501  502  0.00000000000E+00 -0.00000000000E+00 -0.55438760280E+03  0.55438760280E+03  0.00000000000E+00 0. -1.
         25    1    1    2    0    0 -0.18622967758E+03  0.84580136018E+02 -0.31356799512E+03  0.39469631337E+03  0.12500000000E+03 0.  0.
         21    1    1    2  503  502  0.10629644959E+03 -0.99346073755E+02 -0.14682661155E+03  0.20670421240E+03  0.00000000000E+00 0.  1.
         -3    1    1    2    0  503  0.79933227983E+02  0.14765937737E+02  0.46830776174E+02  0.93810849320E+02  0.00000000000E+00 0.  1.
<mgrwt>
<rscale>  4 0.38693591E+03</rscale>
<asrwt>0</asrwt>
<pdfrwt beam="1">  1       21 0.85290401E-01 0.38693591E+03</pdfrwt>
<pdfrwt beam="2">  1       -3 0.21665196E-01 0.38693591E+03</pdfrwt>
<totfact> 0.11140714E+03</totfact>
</mgrwt>
</event>
<event>
 5    0  0.2396052E+000  0.9348844E+03  0.7546771E-02  0.9382995E-01
          3   -1    0    0  503    0 -0.00000000000E+00  0.00000000000E+00  0.33347870832E+04  0.33347870832E+04  0.00000000000E+00 0. -1.
         21   -1    0    0  501  502  0.00000000000E+00 -0.00000000000E+00 -0.28423153014E+03  0.28423153014E+03  0.00000000000E+00 0.  1.
         25    1    1    2    0    0 -0.49902678518E+03 -0.25020146536E+03  0.39550664005E+03  0.69547035014E+03  0.12500000000E+03 0.  0.
         21    1    1    2  503  502  0.30912366832E+03  0.16314331897E+03  0.10500953208E+03  0.36496600755E+03  0.00000000000E+00 0.  1.
          3    1    1    2  501    0  0.18990311686E+03  0.87058146394E+02  0.25500393809E+04  0.25585822556E+04  0.00000000000E+00 0. -1.
<mgrwt>
<rscale>  4 0.93488439E+03</rscale>
<asrwt>0</asrwt>
<pdfrwt beam="1">  1       21 0.43727930E-01 0.93488439E+03</pdfrwt>
<pdfrwt beam="2">  1        3 0.51304414E+00 0.93488439E+03</pdfrwt>
<totfact> 0.69921095E-01</totfact>
</mgrwt>
</event>
<event>
 5    0  0.2396052E+000  0.4559634E+03  0.7546771E-02  0.1025958E+00
          1   -1    0    0  503    0 -0.00000000000E+00  0.00000000000E+00  0.82580360819E+03  0.82580360819E+03  0.00000000000E+00 0.  1.
         21   -1    0    0  501  502  0.00000000000E+00 -0.00000000000E+00 -0.15466370188E+03  0.15466370188E+03  0.00000000000E+00 0. -1.
         25    1    1    2    0    0  0.17299118608E+03  0.16289739031E+03  0.13508495731E+03  0.30055690962E+03  0.12500000000E+03 0.  0.
         21    1    1    2  503  502  0.16740899486E+02 -0.18593433032E+03  0.11965160097E+03  0.22173934816E+03  0.00000000000E+00 0. -1.
          1    1    1    2  501    0 -0.18973208557E+03  0.23036940019E+02  0.41640334803E+03  0.45817105228E+03  0.00000000000E+00 0.  1.
<mgrwt>
<rscale>  4 0.45596345E+03</rscale>
<asrwt>0</asrwt>
<pdfrwt beam="1">  1       21 0.23794416E-01 0.45596345E+03</pdfrwt>
<pdfrwt beam="2">  1        1 0.12704671E+00 0.45596345E+03</pdfrwt>
<totfact> 0.38172135E+03</totfact>
</mgrwt>
</event>
<event>
 5    0  0.2396052E+000  0.5621943E+03  0.7546771E-02  0.9987102E-01
          1   -1    0    0  503    0 -0.00000000000E+00  0.00000000000E+00  0.11802578588E+04  0.11802578588E+04  0.00000000000E+00 0.  1.
         21   -1    0    0  501  502  0.00000000000E+00 -0.00000000000E+00 -0.14797979384E+03  0.14797979384E+03  0.00000000000E+00 0. -1.
         25    1    1    2    0    0 -0.21513685638E+03  0.23219134983E+01  0.42028120054E+03  0.48841636519E+03  0.12500000000E+03 0.  0.
         21    1    1    2  503  502  0.19122702013E+03  0.62459908262E+01 -0.33145798257E+02  0.19417885975E+03  0.00000000000E+00 0. -1.
          1    1    1    2  501    0  0.23909836250E+02 -0.85679043245E+01  0.64514266269E+03  0.64564242772E+03  0.00000000000E+00 0.  1.
<mgrwt>
<rscale>  4 0.56219429E+03</rscale>
<asrwt>0</asrwt>
<pdfrwt beam="1">  1       21 0.22766123E-01 0.56219429E+03</pdfrwt>
<pdfrwt beam="2">  1        1 0.18157813E+00 0.56219429E+03</pdfrwt>
<totfact> 0.21777965E+03</totfact>
</mgrwt>
</event>
<event>
 5    0  0.2396052E+000  0.3732958E+03  0.7546771E-02  0.1053440E+00
         21   -1    0    0  501  502  0.00000000000E+00  0.00000000000E+00  0.62521061838E+02  0.62521061838E+02  0.00000000000E+00 0.  1.
          1   -1    0    0  503    0 -0.00000000000E+00 -0.00000000000E+00 -0.10060329088E+04  0.10060329088E+04  0.00000000000E+00 0.  1.
         25    1    1    2    0    0  0.19972126557E+03  0.86546632216E+02 -0.37910946943E+03  0.45467339188E+03  0.12500000000E+03 0.  0.
         21    1    1    2  503  502 -0.12141828657E+03 -0.10539467103E+02 -0.20725128043E+03  0.24042997716E+03  0.00000000000E+00 0. -1.
          1    1    1    2  501    0 -0.78302979003E+02 -0.76007165114E+02 -0.35715109708E+03  0.37345060157E+03  0.00000000000E+00 0.  1.
<mgrwt>
<rscale>  4 0.37329581E+03</rscale>
<asrwt>0</asrwt>
<pdfrwt beam="1">  1       21 0.96186263E-02 0.37329581E+03</pdfrwt>
<pdfrwt beam="2">  1        1 0.15477427E+00 0.37329581E+03</pdfrwt>
<totfact> 0.14941972E+04</totfact>
</mgrwt>
</event>
<event>
 5    0  0.2396052E+000  0.5444485E+03  0.7546771E-02  0.1002787E+00
         -1   -1    0    0    0  501 -0.00000000000E+00  0.00000000000E+00  0.65316856956E+02  0.65316856956E+02  0.00000000000E+00 0.  1.
         21   -1    0    0  501  502  0.00000000000E+00 -0.00000000000E+00 -0.18581749509E+04  0.18581749509E+04  0.00000000000E+00 0.  1.
         25    1    1    2    0    0 -0.20784375855E+03  0.58326625321E+02 -0.14463375358E+04  0.14676914835E+04  0.12500000000E+03 0.  0.
         21    1    1    2  503  502  0.21284679969E+03 -0.27379279841E+02 -0.36200640566E+03  0.42083491163E+03  0.00000000000E+00 0.  1.
         -1    1    1    2    0  503 -0.50030411397E+01 -0.30947345480E+02  0.15485847549E+02  0.34965412728E+02  0.00000000000E+00 0.  1.
<mgrwt>
<rscale>  4 0.54444847E+03</rscale>
<asrwt>0</asrwt>
<pdfrwt beam="1">  1       21 0.28587302E+00 0.54444847E+03</pdfrwt>
<pdfrwt beam="2">  1       -1 0.10048749E-01 0.54444847E+03</pdfrwt>
<totfact> 0.18447959E+02</totfact>
</mgrwt>
</event>
<event>
 5    0  0.2396052E+000  0.1442083E+04  0.7546771E-02  0.8923907E-01
          2   -1    0    0  503    0 -0.00000000000E+00  0.00000000000E+00  0.20848802964E+04  0.20848802964E+04  0.00000000000E+00 0.  1.
         21   -1    0    0  501  502  0.00000000000E+00 -0.00000000000E+00 -0.44211625503E+03  0.44211625503E+03  0.00000000000E+00 0. -1.
         25    1    1    2    0    0  0.16998935984E+03  0.15421392032E+03  0.11424102296E+04  0.11719233970E+04  0.12500000000E+03 0.  0.
         21    1    1    2  503  502 -0.14541937028E+03 -0.11608406774E+03 -0.40651229520E+03  0.44707331635E+03  0.00000000000E+00 0. -1.
          2    1    1    2  501    0 -0.24569989564E+02 -0.38129852579E+02  0.90686610695E+03  0.90799983810E+03  0.00000000000E+00 0.  1.
<mgrwt>
<rscale>  4 0.14420834E+04</rscale>
<asrwt>0</asrwt>
<pdfrwt beam="1">  1       21 0.68017886E-01 0.14420834E+04</pdfrwt>
<pdfrwt beam="2">  1        2 0.32075081E+00 0.14420834E+04</pdfrwt>
<totfact> 0.12115934E+02</totfact>
</mgrwt>
</event>
<event>
 5    0  0.2396052E+000  0.5286894E+03  0.7546771E-02  0.1006550E+00
         21   -1    0    0  501  502  0.00000000000E+00  0.00000000000E+00  0.14721605005E+03  0.14721605005E+03  0.00000000000E+00 0. -1.
          1   -1    0    0  503    0 -0.00000000000E+00 -0.00000000000E+00 -0.10981120319E+04  0.10981120319E+04  0.00000000000E+00 0. -1.
         25    1    1    2    0    0  0.21489398860E+03 -0.15973612519E+03 -0.32164488661E+03  0.43677853554E+03  0.12500000000E+03 0.  0.
         21    1    1    2  503  502 -0.11604076907E+03  0.15424004290E+03 -0.23132252047E+02  0.19439792181E+03  0.00000000000E+00 0. -1.
          1    1    1    2  501    0 -0.98853219528E+02  0.54960822885E+01 -0.60611884317E+03  0.61415162458E+03  0.00000000000E+00 0. -1.
<mgrwt>
<rscale>  4 0.52868937E+03</rscale>
<asrwt>0</asrwt>
<pdfrwt beam="1">  1       21 0.22648623E-01 0.52868937E+03</pdfrwt>
<pdfrwt beam="2">  1        1 0.16894031E+00 0.52868937E+03</pdfrwt>
<totfact> 0.25399434E+03</totfact>
</mgrwt>
</event>
<event>
 5    0  0.2396052E+000  0.4685924E+03  0.7546771E-02  0.1022318E+00
         21   -1    0    0  501  502  0.00000000000E+00  0.00000000000E+00  0.51415257019E+02  0.51415257019E+02  0.00000000000E+00 0.  1.
          2   -1    0    0  503    0 -0.00000000000E+00 -0.00000000000E+00 -0.13291303817E+04  0.13291303817E+04  0.00000000000E+00 0.  1.
         25    1    1    2    0    0 -0.20405839071E+03  0.15131639417E+01 -0.43293734507E+03  0.49467348953E+03  0.12500000000E+03 0.  0.
         21    1    1    2  503  502  0.22180102024E+03 -0.11611697830E+02 -0.59236004578E+03  0.63263018260E+03  0.00000000000E+00 0.  1.
          2    1    1    2  501    0 -0.17742629534E+02  0.10098533888E+02 -0.25241773388E+03  0.25324196664E+03  0.00000000000E+00 0.  1.
<mgrwt>
<rscale>  4 0.46859239E+03</rscale>
<asrwt>0</asrwt>
<pdfrwt beam="1">  1       21 0.79100407E-02 0.46859239E+03</pdfrwt>
<pdfrwt beam="2">  1        2 0.20448157E+00 0.46859239E+03</pdfrwt>
<totfact> 0.25348726E+04</totfact>
</mgrwt>
</event>
<event>
 5    0  0.2396052E+000  0.5895188E+03  0.7546771E-02  0.9927393E-01
         21   -1    0    0  501  502  0.00000000000E+00  0.00000000000E+00  0.78272546978E+03  0.78272546978E+03  0.00000000000E+00 0. -1.
         -1   -1    0    0    0  501 -0.00000000000E+00 -0.00000000000E+00 -0.20843817867E+03  0.20843817867E+03  0.00000000000E+00 0. -1.
         25    1    1    2    0    0  0.15077015257E+03 -0.16319314597E+03  0.11946018546E+03  0.28153042057E+03  0.12500000000E+03 0.  0.
         21    1    1    2  503  502 -0.22931588344E+03  0.14414233353E+03  0.53256975695E+03  0.59748919047E+03  0.00000000000E+00 0. -1.
         -1    1    1    2    0  503  0.78545730871E+02  0.19050812443E+02 -0.77742651303E+02  0.11214403740E+03  0.00000000000E+00 0. -1.
<mgrwt>
<rscale>  4 0.58951881E+03</rscale>
<asrwt>0</asrwt>
<pdfrwt beam="1">  1       21 0.12041930E+00 0.58951881E+03</pdfrwt>
<pdfrwt beam="2">  1       -1 0.32067412E-01 0.58951881E+03</pdfrwt>
<totfact> 0.38603461E+02</totfact>
</mgrwt>
</event>
<event>
 5    0  0.2396052E+000  0.6314294E+03  0.7546771E-02  0.9842263E-01
         21   -1    0    0  501  502  0.00000000000E+00  0.00000000000E+00  0.33880203580E+03  0.33880203580E+03  0.00000000000E+00 0. -1.
         -1   -1    0    0    0  501 -0.00000000000E+00 -0.00000000000E+00 -0.20071516412E+04  0.20071516412E+04  0.00000000000E+00 0.  1.
         25    1    1    2    0    0  0.18760010487E+03 -0.27921373777E+03  0.21186687226E+03  0.41673334672E+03  0.12500000000E+03 0.  0.
         21    1    1    2  503  502 -0.19731460627E+02  0.11213875492E+03 -0.18280435695E+03  0.21536449060E+03  0.00000000000E+00 0.  1.
         -1    1    1    2    0  503 -0.16786864425E+03  0.16707498284E+03 -0.16974121207E+04  0.17138558397E+04  0.00000000000E+00 0.  1.
<mgrwt>
<rscale>  4 0.63142937E+03</rscale>
<asrwt>0</asrwt>
<pdfrwt beam="1">  1       21 0.52123391E-01 0.63142937E+03</pdfrwt>
<pdfrwt beam="2">  1       -1 0.30879255E+00 0.63142937E+03</pdfrwt>
<totfact> 0.92390813E+00</totfact>
</mgrwt>
</event>
<event>
 5    0  0.2396052E+000  0.5986964E+03  0.7546771E-02  0.9908114E-01
          1   -1    0    0  503    0 -0.00000000000E+00  0.00000000000E+00  0.94467908449E+03  0.94467908449E+03  0.00000000000E+00 0. -1.
         21   -1    0    0  501  502  0.00000000000E+00 -0.00000000000E+00 -0.25827831610E+03  0.25827831610E+03  0.00000000000E+00 0. -1.
         25    1    1    2    0    0  0.27471226675E+03 -0.22350187510E+02  0.10792608889E+03  0.32130888729E+03  0.12500000000E+03 0.  0.
         21    1    1    2  503  502 -0.28222268482E+03 -0.30427472347E+02 -0.16455427019E+02  0.28433476042E+03  0.00000000000E+00 0. -1.
          1    1    1    2  501    0  0.75104180710E+01  0.52777659857E+02  0.59493010651E+03  0.59731375289E+03  0.00000000000E+00 0. -1.
<mgrwt>
<rscale>  4 0.59869637E+03</rscale>
<asrwt>0</asrwt>
<pdfrwt beam="1">  1       21 0.39735126E-01 0.59869637E+03</pdfrwt>
<pdfrwt beam="2">  1        1 0.14533524E+00 0.59869637E+03</pdfrwt>
<totfact> 0.10688177E+03</totfact>
</mgrwt>
</event>
<event>
 5    0  0.2396052E+000  0.3559477E+03  0.7546771E-02  0.1060200E+00
         21   -1    0    0  501  502  0.00000000000E+00  0.00000000000E+00  0.85127344499E+03  0.85127344499E+03  0.00000000000E+00 0. -1.
          3   -1    0    0  503    0 -0.00000000000E+00 -0.00000000000E+00 -0.18893781384E+03  0.18893781384E+03  0.00000000000E+00 0. -1.
         25    1    1    2    0    0 -0.18702816035E+03  0.12243086329E+03  0.60937841203E+03  0.66101126927E+03  0.12500000000E+03 0.  0.
         21    1    1    2  503  502 -0.73781807396E+02 -0.23718782694E+02  0.63414508627E+02  0.10013858227E+03  0.00000000000E+00 0.  1.
          3    1    1    2  501    0  0.26080996775E+03 -0.98712080600E+02 -0.10457289504E+02  0.27906140729E+03  0.00000000000E+00 0. -1.
<mgrwt>
<rscale>  4 0.35594772E+03</rscale>
<asrwt>0</asrwt>
<pdfrwt beam="1">  1       21 0.13096514E+00 0.35594772E+03</pdfrwt>
<pdfrwt beam="2">  1        3 0.29067357E-01 0.35594772E+03</pdfrwt>
<totfact> 0.22759211E+02</totfact>
</mgrwt>
</event>
<event>
 5    0  0.2396052E+000  0.6235021E+03  0.7546771E-02  0.9857812E-01
         21   -1    0    0  501  502  0.00000000000E+00  0.00000000000E+00  0.40496277398E+03  0.40496277398E+03  0.00000000000E+00 0. -1.
          1   -1    0    0  503    0 -0.00000000000E+00 -0.00000000000E+00 -0.24634398620E+04  0.24634398620E+04  0.00000000000E+00 0.  1.
         25    1    1    2    0    0 -0.25417379294E+03  0.92894997937E+02 -0.10857450898E+03  0.31724946282E+03  0.12500000000E+03 0.  0.
         21    1    1    2  503  502  0.93511013532E+02  0.17427109328E+03  0.25590585313E+03  0.32342314275E+03  0.00000000000E+00 0. -1.
          1    1    1    2  501    0  0.16066277941E+03 -0.26716609122E+03 -0.22058084322E+04  0.22277300304E+04  0.00000000000E+00 0.  1.
<mgrwt>
<rscale>  4 0.62350210E+03</rscale>
<asrwt>0</asrwt>
<pdfrwt beam="1">  1       21 0.62301963E-01 0.62350210E+03</pdfrwt>
<pdfrwt beam="2">  1        1 0.37899076E+00 0.62350210E+03</pdfrwt>
<totfact> 0.36469494E+01</totfact>
</mgrwt>
</event>
<event>
 5    0  0.2396052E+000  0.3325578E+03  0.7546771E-02  0.1070011E+00
         21   -1    0    0  501  502  0.00000000000E+00  0.00000000000E+00  0.49191663906E+02  0.49191663906E+02  0.00000000000E+00 0. -1.
          1   -1    0    0  503    0 -0.00000000000E+00 -0.00000000000E+00 -0.26987107840E+04  0.26987107840E+04  0.00000000000E+00 0. -1.
         25    1    1    2    0    0 -0.10914398218E+03  0.20542508612E+03 -0.41897563990E+03  0.49525494614E+03  0.12500000000E+03 0.  0.
         21    1    1    2  503  502  0.59877229879E+02 -0.27534122011E+02 -0.14886420224E+03  0.16280037236E+03  0.00000000000E+00 0.  1.
          1    1    1    2  501    0  0.49266752303E+02 -0.17789096410E+03 -0.20816792779E+04  0.20898471294E+04  0.00000000000E+00 0. -1.
<mgrwt>
<rscale>  4 0.33255784E+03</rscale>
<asrwt>0</asrwt>
<pdfrwt beam="1">  1       21 0.75679488E-02 0.33255784E+03</pdfrwt>
<pdfrwt beam="2">  1        1 0.41518625E+00 0.33255784E+03</pdfrwt>
<totfact> 0.16675038E+03</totfact>
</mgrwt>
</event>
<event>
 5    0  0.2396052E+000  0.5868510E+03  0.7546771E-02  0.9933068E-01
         21   -1    0    0  501  502  0.00000000000E+00  0.00000000000E+00  0.60978154618E+03  0.60978154618E+03  0.00000000000E+00 0. -1.
          2   -1    0    0  503    0 -0.00000000000E+00 -0.00000000000E+00 -0.24747310280E+03  0.24747310280E+03  0.00000000000E+00 0. -1.
         25    1    1    2    0    0 -0.13921582711E+03 -0.21347415044E+03  0.13383909174E+03  0.31383142274E+03  0.12500000000E+03 0.  0.
         21    1    1    2  503  502  0.12072544130E+03  0.25538154519E+03  0.32859155528E+03  0.43332063879E+03  0.00000000000E+00 0. -1.
          2    1    1    2  501    0  0.18490385808E+02 -0.41907394755E+02 -0.10012220364E+03  0.11010258745E+03  0.00000000000E+00 0. -1.
<mgrwt>
<rscale>  4 0.58685100E+03</rscale>
<asrwt>0</asrwt>
<pdfrwt beam="1">  1       21 0.93812545E-01 0.58685100E+03</pdfrwt>
<pdfrwt beam="2">  1        2 0.38072785E-01 0.58685100E+03</pdfrwt>
<totfact> 0.14360004E+03</totfact>
</mgrwt>
</event>
<event>
 5    0  0.2396052E+000  0.7152518E+03  0.7546771E-02  0.9691499E-01
         21   -1    0    0  501  502  0.00000000000E+00  0.00000000000E+00  0.27265495184E+03  0.27265495184E+03  0.00000000000E+00 0.  1.
         -1   -1    0    0    0  501 -0.00000000000E+00 -0.00000000000E+00 -0.81653650253E+03  0.81653650253E+03  0.00000000000E+00 0.  1.
         25    1    1    2    0    0 -0.32905194691E+03 -0.64706554224E+02 -0.13310589210E+03  0.38184329303E+03  0.12500000000E+03 0.  0.
         21    1    1    2  503  502  0.34962174920E+03  0.57745851307E+02 -0.64241896040E+02  0.36013465824E+03  0.00000000000E+00 0.  1.
         -1    1    1    2    0  503 -0.20569802293E+02  0.69607029167E+01 -0.34653376255E+03  0.34721350311E+03  0.00000000000E+00 0.  1.
<mgrwt>
<rscale>  4 0.71525180E+03</rscale>
<asrwt>0</asrwt>
<pdfrwt beam="1">  1       21 0.41946916E-01 0.71525180E+03</pdfrwt>
<pdfrwt beam="2">  1       -1 0.12562100E+00 0.71525180E+03</pdfrwt>
<totfact> 0.26524940E+02</totfact>
</mgrwt>
</event>
<event>
 5    0  0.2396052E+000  0.4344752E+03  0.7546771E-02  0.1032456E+00
          1   -1    0    0  503    0 -0.00000000000E+00  0.00000000000E+00  0.91204539156E+02  0.91204539156E+02  0.00000000000E+00 0. -1.
         21   -1    0    0  501  502  0.00000000000E+00 -0.00000000000E+00 -0.13031709976E+04  0.13031709976E+04  0.00000000000E+00 0. -1.
         25    1    1    2    0    0  0.73345987983E+02 -0.29940002875E+03 -0.55732422050E+03  0.64904183064E+03  0.12500000000E+03 0.  0.
         21    1    1    2  503  502  0.21372501057E+02  0.84306057590E+02 -0.59261328322E+02  0.10524352798E+03  0.00000000000E+00 0. -1.
          1    1    1    2  501    0 -0.94718489040E+02  0.21509397116E+03 -0.59538090966E+03  0.64009017817E+03  0.00000000000E+00 0. -1.
<mgrwt>
<rscale>  4 0.43447516E+03</rscale>
<asrwt>0</asrwt>
<pdfrwt beam="1">  1       21 0.20048782E+00 0.43447516E+03</pdfrwt>
<pdfrwt beam="2">  1        1 0.14031469E-01 0.43447516E+03</pdfrwt>
<totfact> 0.51985205E+02</totfact>
</mgrwt>
</event>
<event>
 5    0  0.2396052E+000  0.7561182E+03  0.7546771E-02  0.9625800E-01
         21   -1    0    0  501  502  0.00000000000E+00  0.00000000000E+00  0.15068143167E+04  0.15068143167E+04  0.00000000000E+00 0. -1.
          2   -1    0    0  503    0 -0.00000000000E+00 -0.00000000000E+00 -0.42543185662E+03  0.42543185662E+03  0.00000000000E+00 0.  1.
         25    1    1    2    0    0  0.33660658238E+03  0.13447937827E+03  0.50575192644E+03  0.63466424634E+03  0.12500000000E+03 0.  0.
         21    1    1    2  503  502 -0.22734285285E+03 -0.25383983793E+03  0.88506026008E+03  0.94839395824E+03  0.00000000000E+00 0.  1.
          2    1    1    2  501    0 -0.10926372953E+03  0.11936045966E+03 -0.30942972643E+03  0.34918796875E+03  0.00000000000E+00 0.  1.
<mgrwt>
<rscale>  4 0.75611821E+03</rscale>
<asrwt>0</asrwt>
<pdfrwt beam="1">  1       21 0.23181758E+00 0.75611821E+03</pdfrwt>
<pdfrwt beam="2">  1        2 0.65451056E-01 0.75611821E+03</pdfrwt>
<totfact> 0.60618671E+01</totfact>
</mgrwt>
</event>
<event>
 5    0  0.2396052E+000  0.7020517E+03  0.7546771E-02  0.9713730E-01
         21   -1    0    0  501  502  0.00000000000E+00  0.00000000000E+00  0.15453970691E+03  0.15453970691E+03  0.00000000000E+00 0. -1.
          1   -1    0    0  503    0 -0.00000000000E+00 -0.00000000000E+00 -0.18196751462E+04  0.18196751462E+04  0.00000000000E+00 0. -1.
         25    1    1    2    0    0  0.10333173778E+03  0.22957439309E+03 -0.52346926949E+03  0.59416069046E+03  0.12500000000E+03 0.  0.
         21    1    1    2  503  502 -0.16199741455E+03 -0.30105994819E+03 -0.13249381251E+03  0.36665360367E+03  0.00000000000E+00 0. -1.
          1    1    1    2  501    0  0.58665676772E+02  0.71485555104E+02 -0.10091723573E+04  0.10134005589E+04  0.00000000000E+00 0. -1.
<mgrwt>
<rscale>  4 0.70205167E+03</rscale>
<asrwt>0</asrwt>
<pdfrwt beam="1">  1       21 0.23775339E-01 0.70205167E+03</pdfrwt>
<pdfrwt beam="2">  1        1 0.27995003E+00 0.70205167E+03</pdfrwt>
<totfact> 0.71143435E+02</totfact>
</mgrwt>
</event>
<event>
 5    0  0.2396052E+000  0.4794849E+03  0.7546771E-02  0.1019277E+00
          2   -1    0    0  503    0 -0.00000000000E+00  0.00000000000E+00  0.14159351944E+04  0.14159351944E+04  0.00000000000E+00 0. -1.
         21   -1    0    0  501  502  0.00000000000E+00 -0.00000000000E+00 -0.25814626034E+03  0.25814626034E+03  0.00000000000E+00 0.  1.
         25    1    1    2    0    0  0.71075559645E+02  0.21890430571E+03  0.54600648541E+02  0.26753889635E+03  0.12500000000E+03 0.  0.
         21    1    1    2  503  502 -0.76235416164E+02 -0.17790102672E+03 -0.89429188402E+02  0.21320927214E+03  0.00000000000E+00 0.  1.
          2    1    1    2  501    0  0.51598565184E+01 -0.41003278986E+02  0.11926174739E+04  0.11933332862E+04  0.00000000000E+00 0. -1.
<mgrwt>
<rscale>  4 0.47948491E+03</rscale>
<asrwt>0</asrwt>
<pdfrwt beam="1">  1       21 0.39714810E-01 0.47948491E+03</pdfrwt>
<pdfrwt beam="2">  1        2 0.21783618E+00 0.47948491E+03</pdfrwt>
<totfact> 0.10638149E+03</totfact>
</mgrwt>
</event>
<event>
 5    0  0.2396052E+000  0.9406234E+03  0.7546771E-02  0.9376178E-01
          1   -1    0    0  503    0 -0.00000000000E+00  0.00000000000E+00  0.60692484319E+03  0.60692484319E+03  0.00000000000E+00 0. -1.
         21   -1    0    0  501  502  0.00000000000E+00 -0.00000000000E+00 -0.72596484159E+03  0.72596484159E+03  0.00000000000E+00 0.  1.
         25    1    1    2    0    0  0.34539401633E+03  0.11663731542E+03  0.11018536823E+03  0.40083301416E+03  0.12500000000E+03 0.  0.
         21    1    1    2  503  502 -0.32989564484E+03 -0.80051261154E+02 -0.52960341738E+03  0.62906209598E+03  0.00000000000E+00 0.  1.
          1    1    1    2  501    0 -0.15498371490E+02 -0.36586054266E+02  0.30037805075E+03  0.30299457464E+03  0.00000000000E+00 0. -1.
<mgrwt>
<rscale>  4 0.94062343E+03</rscale>
<asrwt>0</asrwt>
<pdfrwt beam="1">  1       21 0.11168690E+00 0.94062343E+03</pdfrwt>
<pdfrwt beam="2">  1        1 0.93373053E-01 0.94062343E+03</pdfrwt>
<totfact> 0.19352887E+02</totfact>
</mgrwt>
</event>
<event>
 5    0  0.2396052E+000  0.4324157E+03  0.7546771E-02  0.1033100E+00
          2   -1    0    0  503    0 -0.00000000000E+00  0.00000000000E+00  0.44094298926E+03  0.44094298926E+03  0.00000000000E+00 0. -1.
         21   -1    0    0  501  502  0.00000000000E+00 -0.00000000000E+00 -0.77733531743E+03  0.77733531743E+03  0.00000000000E+00 0. -1.
         25    1    1    2    0    0 -0.25217960498E+03  0.16442057298E+03 -0.55378406166E+03  0.64259665805E+03  0.12500000000E+03 0.  0.
         21    1    1    2  503  502  0.57486211358E+02 -0.86842302579E+02 -0.13206996584E+03  0.16819252626E+03  0.00000000000E+00 0.  1.
          2    1    1    2  501    0  0.19469339362E+03 -0.77578270399E+02  0.34946169933E+03  0.40748912238E+03  0.00000000000E+00 0. -1.
<mgrwt>
<rscale>  4 0.43241572E+03</rscale>
<asrwt>0</asrwt>
<pdfrwt beam="1">  1       21 0.11959005E+00 0.43241572E+03</pdfrwt>
<pdfrwt beam="2">  1        2 0.67837383E-01 0.43241572E+03</pdfrwt>
<totfact> 0.42997956E+02</totfact>
</mgrwt>
</event>
<event>
 5    0  0.2396052E+000  0.6163281E+03  0.7546771E-02  0.9872098E-01
         21   -1    0    0  501  502  0.00000000000E+00  0.00000000000E+00  0.26609739376E+03  0.26609739376E+03  0.00000000000E+00 0.  1.
          1   -1    0    0  503    0 -0.00000000000E+00 -0.00000000000E+00 -0.58793245008E+03  0.58793245008E+03  0.00000000000E+00 0. -1.
         25    1    1    2    0    0 -0.62407262031E+02  0.23177684018E+03 -0.16462396611E+03  0.31676682310E+03  0.12500000000E+03 0.  0.
         21    1    1    2  503  502  0.99668835514E+02 -0.28445515174E+03  0.62887131824E+02  0.30790161005E+03  0.00000000000E+00 0.  1.
          1    1    1    2  501    0 -0.37261573483E+02  0.52678311556E+02 -0.22009822204E+03  0.22936141068E+03  0.00000000000E+00 0. -1.
<mgrwt>
<rscale>  4 0.61632805E+03</rscale>
<asrwt>0</asrwt>
<pdfrwt beam="1">  1       21 0.40938061E-01 0.61632805E+03</pdfrwt>
<pdfrwt beam="2">  1        1 0.90451145E-01 0.61632805E+03</pdfrwt>
<totfact> 0.20892068E+03</totfact>
</mgrwt>
</event>
<event>
 5    0  0.2396052E+000  0.4958237E+03  0.7546771E-02  0.1014875E+00
         21   -1    0    0  501  502  0.00000000000E+00  0.00000000000E+00  0.14592036472E+03  0.14592036472E+03  0.00000000000E+00 0.  1.
          2   -1    0    0  503    0 -0.00000000000E+00 -0.00000000000E+00 -0.15675755105E+04  0.15675755105E+04  0.00000000000E+00 0.  1.
         25    1    1    2    0    0 -0.19105676669E+03  0.77001930587E+02 -0.23403451488E+03  0.33590049057E+03  0.12500000000E+03 0.  0.
         21    1    1    2  503  502  0.20879317986E+03 -0.90684467170E+02 -0.41661400521E+02  0.23141723539E+03  0.00000000000E+00 0.  1.
          2    1    1    2  501    0 -0.17736413166E+02  0.13682536583E+02 -0.11459592304E+04  0.11461781493E+04  0.00000000000E+00 0.  1.
<mgrwt>
<rscale>  4 0.49582372E+03</rscale>
<asrwt>0</asrwt>
<pdfrwt beam="1">  1       21 0.22449289E-01 0.49582372E+03</pdfrwt>
<pdfrwt beam="2">  1        2 0.24116544E+00 0.49582372E+03</pdfrwt>
<totfact> 0.27232146E+03</totfact>
</mgrwt>
</event>
<event>
 5    0  0.2396052E+000  0.7053956E+03  0.7546771E-02  0.9708049E-01
         21   -1    0    0  501  502  0.00000000000E+00  0.00000000000E+00  0.15792681717E+03  0.15792681717E+03  0.00000000000E+00 0. -1.
          2   -1    0    0  503    0 -0.00000000000E+00 -0.00000000000E+00 -0.20092755762E+04  0.20092755762E+04  0.00000000000E+00 0. -1.
         25    1    1    2    0    0  0.80498779789E+02 -0.24268128205E+03 -0.17166091062E+02  0.28512090924E+03  0.12500000000E+03 0.  0.
         21    1    1    2  503  502  0.75795038798E+02  0.20894896930E+03 -0.64557592303E+03  0.68276850548E+03  0.00000000000E+00 0.  1.
          2    1    1    2  501    0 -0.15629381859E+03  0.33732312748E+02 -0.11886067449E+04  0.11993129787E+04  0.00000000000E+00 0. -1.
<mgrwt>
<rscale>  4 0.70539559E+03</rscale>
<asrwt>0</asrwt>
<pdfrwt beam="1">  1       21 0.24296436E-01 0.70539559E+03</pdfrwt>
<pdfrwt beam="2">  1        2 0.30911929E+00 0.70539559E+03</pdfrwt>
<totfact> 0.12925729E+03</totfact>
</mgrwt>
</event>
<event>
 5    0  0.2396052E+000  0.8088708E+03  0.7546771E-02  0.9547265E-01
          1   -1    0    0  503    0 -0.00000000000E+00  0.00000000000E+00  0.98560396059E+03  0.98560396059E+03  0.00000000000E+00 0. -1.
         21   -1    0    0  501  502  0.00000000000E+00 -0.00000000000E+00 -0.23640303208E+03  0.23640303208E+03  0.00000000000E+00 0. -1.
         25    1    1    2    0    0 -0.32551038655E+03 -0.28506685231E+03  0.36978951006E+03  0.58274299978E+03  0.12500000000E+03 0.  0.
         21    1    1    2  503  502  0.26762572089E+03  0.21289827906E+03  0.11767464992E+03  0.36165802485E+03  0.00000000000E+00 0. -1.
          1    1    1    2  501    0  0.57884665660E+02  0.72168573258E+02  0.26173676853E+03  0.27760596803E+03  0.00000000000E+00 0. -1.
<mgrwt>
<rscale>  4 0.80887081E+03</rscale>
<asrwt>0</asrwt>
<pdfrwt beam="1">  1       21 0.36369698E-01 0.80887081E+03</pdfrwt>
<pdfrwt beam="2">  1        1 0.15163138E+00 0.80887081E+03</pdfrwt>
<totfact> 0.11547909E+03</totfact>
</mgrwt>
</event>
<event>
 5    0  0.2396052E+000  0.5902578E+03  0.7546771E-02  0.9925827E-01
         21   -1    0    0  501  502  0.00000000000E+00  0.00000000000E+00  0.10563683297E+04  0.10563683297E+04  0.00000000000E+00 0.  1.
          2   -1    0    0  503    0 -0.00000000000E+00 -0.00000000000E+00 -0.10459611063E+03  0.10459611063E+03  0.00000000000E+00 0. -1.
         25    1    1    2    0    0  0.15332353296E+03 -0.17441586304E+03  0.17444424098E+03  0.31620371954E+03  0.12500000000E+03 0.  0.
         21    1    1    2  503  502 -0.10184567983E+03  0.18591752429E+03  0.76035109292E+03  0.78934887904E+03  0.00000000000E+00 0.  1.
          2    1    1    2  501    0 -0.51477853129E+02 -0.11501661250E+02  0.16976885156E+02  0.55411841730E+02  0.00000000000E+00 0. -1.
<mgrwt>
<rscale>  4 0.59025777E+03</rscale>
<asrwt>0</asrwt>
<pdfrwt beam="1">  1       21 0.16251820E+00 0.59025777E+03</pdfrwt>
<pdfrwt beam="2">  1        2 0.16091710E-01 0.59025777E+03</pdfrwt>
<totfact> 0.93000280E+02</totfact>
</mgrwt>
</event>
<event>
 5    0  0.2396052E+000  0.4976141E+03  0.7546771E-02  0.1014404E+00
         21   -1    0    0  501  502  0.00000000000E+00  0.00000000000E+00  0.14502932811E+03  0.14502932811E+03  0.00000000000E+00 0. -1.
          2   -1    0    0  503    0 -0.00000000000E+00 -0.00000000000E+00 -0.25930979379E+04  0.25930979379E+04  0.00000000000E+00 0.  1.
         25    1    1    2    0    0  0.90504472102E+02 -0.22671487163E+03 -0.25264483690E+03  0.37288752473E+03  0.12500000000E+03 0.  0.
         21    1    1    2  503  502 -0.88421378358E+02  0.17631073006E+03 -0.30330574304E+02  0.19955890715E+03  0.00000000000E+00 0. -1.
          2    1    1    2  501    0 -0.20830937446E+01  0.50404141569E+02 -0.21650931985E+04  0.21656808341E+04  0.00000000000E+00 0.  1.
<mgrwt>
<rscale>  4 0.49761414E+03</rscale>
<asrwt>0</asrwt>
<pdfrwt beam="1">  1       21 0.22312206E-01 0.49761414E+03</pdfrwt>
<pdfrwt beam="2">  1        2 0.39893811E+00 0.49761414E+03</pdfrwt>
<totfact> 0.76039271E+02</totfact>
</mgrwt>
</event>
<event>
 5    0  0.2396052E+000  0.5671118E+03  0.7546771E-02  0.9976090E-01
          2   -1    0    0  503    0 -0.00000000000E+00  0.00000000000E+00  0.35387695045E+03  0.35387695045E+03  0.00000000000E+00 0.  1.
         21   -1    0    0  501  502  0.00000000000E+00 -0.00000000000E+00 -0.77102483860E+03  0.77102483860E+03  0.00000000000E+00 0.  1.
         25    1    1    2    0    0 -0.23299543102E+03  0.13432855192E+03 -0.40725999353E+03  0.50380227577E+03  0.12500000000E+03 0.  0.
         21    1    1    2  503  502  0.26193752415E+03 -0.38791477023E+02 -0.24807111857E+03  0.36284338924E+03  0.00000000000E+00 0.  1.
          2    1    1    2  501    0 -0.28942093124E+02 -0.95537074900E+02  0.23818322395E+03  0.25825612404E+03  0.00000000000E+00 0.  1.
<mgrwt>
<rscale>  4 0.56711184E+03</rscale>
<asrwt>0</asrwt>
<pdfrwt beam="1">  1       21 0.11861920E+00 0.56711184E+03</pdfrwt>
<pdfrwt beam="2">  1        2 0.54442609E-01 0.56711184E+03</pdfrwt>
<totfact> 0.54285612E+02</totfact>
</mgrwt>
</event>
<event>
 5    0  0.2396052E+000  0.5386185E+03  0.7546771E-02  0.1004163E+00
          2   -1    0    0  503    0 -0.00000000000E+00  0.00000000000E+00  0.47481252723E+03  0.47481252723E+03  0.00000000000E+00 0. -1.
         21   -1    0    0  501  502  0.00000000000E+00 -0.00000000000E+00 -0.43616809925E+03  0.43616809925E+03  0.00000000000E+00 0. -1.
         25    1    1    2    0    0  0.24560494235E+03 -0.89627208155E+02 -0.16284563297E+03  0.33241318314E+03  0.12500000000E+03 0.  0.
         21    1    1    2  503  502 -0.22639293138E+03  0.10096447771E+03 -0.10648179022E+03  0.26978872621E+03  0.00000000000E+00 0. -1.
          2    1    1    2  501    0 -0.19212010968E+02 -0.11337269560E+02  0.30797185117E+03  0.30877871714E+03  0.00000000000E+00 0. -1.
<mgrwt>
<rscale>  4 0.53861849E+03</rscale>
<asrwt>0</asrwt>
<pdfrwt beam="1">  1       21 0.67102785E-01 0.53861849E+03</pdfrwt>
<pdfrwt beam="2">  1        2 0.73048081E-01 0.53861849E+03</pdfrwt>
<totfact> 0.15249771E+03</totfact>
</mgrwt>
</event>
<event>
 5    0  0.2396052E+000  0.4157049E+03  0.7546771E-02  0.1038473E+00
         -2   -1    0    0    0  501 -0.00000000000E+00  0.00000000000E+00  0.82105498916E+02  0.82105498916E+02  0.00000000000E+00 0.  1.
         21   -1    0    0  501  502  0.00000000000E+00 -0.00000000000E+00 -0.13819950847E+04  0.13819950847E+04  0.00000000000E+00 0. -1.
         25    1    1    2    0    0  0.17870140195E+03 -0.18278196279E+03 -0.93687393866E+03  0.97913288880E+03  0.12500000000E+03 0.  0.
         21    1    1    2  503  502 -0.70428829731E+02 -0.29488260901E+02 -0.48798179826E+02  0.90614788763E+02  0.00000000000E+00 0.  1.
         -2    1    1    2    0  503 -0.10827257222E+03  0.21227022369E+03 -0.31421746729E+03  0.39435290605E+03  0.00000000000E+00 0.  1.
<mgrwt>
<rscale>  4 0.41570491E+03</rscale>
<asrwt>0</asrwt>
<pdfrwt beam="1">  1       21 0.21261462E+00 0.41570491E+03</pdfrwt>
<pdfrwt beam="2">  1       -2 0.12631615E-01 0.41570491E+03</pdfrwt>
<totfact> 0.36037231E+02</totfact>
</mgrwt>
</event>
<event>
 5    0  0.2396052E+000  0.5610919E+03  0.7546771E-02  0.9989587E-01
          1   -1    0    0  503    0 -0.00000000000E+00  0.00000000000E+00  0.12959736275E+04  0.12959736275E+04  0.00000000000E+00 0. -1.
         21   -1    0    0  501  502  0.00000000000E+00 -0.00000000000E+00 -0.11815122395E+03  0.11815122395E+03  0.00000000000E+00 0.  1.
         25    1    1    2    0    0 -0.44126783914E+02 -0.25521138404E+03  0.13597113295E+03  0.31810874335E+03  0.12500000000E+03 0.  0.
         21    1    1    2  503  502  0.45855847917E+02  0.21109792065E+03  0.41722504297E+03  0.46983170111E+03  0.00000000000E+00 0. -1.
          1    1    1    2  501    0 -0.17290640027E+01  0.44113463389E+02  0.62462622758E+03  0.62618440694E+03  0.00000000000E+00 0. -1.
<mgrwt>
<rscale>  4 0.56109191E+03</rscale>
<asrwt>0</asrwt>
<pdfrwt beam="1">  1       21 0.18177112E-01 0.56109191E+03</pdfrwt>
<pdfrwt beam="2">  1        1 0.19938055E+00 0.56109191E+03</pdfrwt>
<totfact> 0.27735197E+03</totfact>
</mgrwt>
</event>
<event>
 5    0  0.2396052E+000  0.7297957E+03  0.7546771E-02  0.9667592E-01
         21   -1    0    0  501  502  0.00000000000E+00  0.00000000000E+00  0.11415127732E+04  0.11415127732E+04  0.00000000000E+00 0.  1.
          2   -1    0    0  503    0 -0.00000000000E+00 -0.00000000000E+00 -0.10723654233E+04  0.10723654233E+04  0.00000000000E+00 0.  1.
         25    1    1    2    0    0 -0.15107751047E+03  0.25173604588E+03  0.35972379602E+03  0.48085513451E+03  0.12500000000E+03 0.  0.
         21    1    1    2  503  502  0.10802060379E+03 -0.38792145744E+03  0.65925753704E+03  0.77251019937E+03  0.00000000000E+00 0.  1.
          2    1    1    2  501    0  0.43056906678E+02  0.13618541156E+03 -0.94983398319E+03  0.96051286257E+03  0.00000000000E+00 0.  1.
<mgrwt>
<rscale>  4 0.72979566E+03</rscale>
<asrwt>0</asrwt>
<pdfrwt beam="1">  1       21 0.17561735E+00 0.72979566E+03</pdfrwt>
<pdfrwt beam="2">  1        2 0.16497930E+00 0.72979566E+03</pdfrwt>
<totfact> 0.45134215E+01</totfact>
</mgrwt>
</event>
<event>
 5    0  0.2396052E+000  0.4296104E+03  0.7546771E-02  0.1033983E+00
         -3   -1    0    0    0  501 -0.00000000000E+00  0.00000000000E+00  0.65083077138E+03  0.65083077138E+03  0.00000000000E+00 0.  1.
         21   -1    0    0  501  502  0.00000000000E+00 -0.00000000000E+00 -0.25082508964E+04  0.25082508964E+04  0.00000000000E+00 0. -1.
         25    1    1    2    0    0 -0.25063190407E+03  0.16480439405E+03 -0.16381526939E+04  0.16700736775E+04  0.12500000000E+03 0.  0.
         21    1    1    2  503  502  0.83642965915E+02 -0.39774018286E+02 -0.83436936315E+03  0.83949410507E+03  0.00000000000E+00 0. -1.
         -3    1    1    2    0  503  0.16698893815E+03 -0.12503037577E+03  0.61510193203E+03  0.64951388524E+03  0.00000000000E+00 0.  1.
<mgrwt>
<rscale>  4 0.42961044E+03</rscale>
<asrwt>0</asrwt>
<pdfrwt beam="1">  1       21 0.38588475E+00 0.42961044E+03</pdfrwt>
<pdfrwt beam="2">  1       -3 0.10012781E+00 0.42961044E+03</pdfrwt>
<totfact> 0.37446431E-01</totfact>
</mgrwt>
</event>
<event>
 5    0  0.2396052E+000  0.5396704E+03  0.7546771E-02  0.1003913E+00
         21   -1    0    0  501  502  0.00000000000E+00  0.00000000000E+00  0.17223050397E+03  0.17223050397E+03  0.00000000000E+00 0. -1.
         -3   -1    0    0    0  501 -0.00000000000E+00 -0.00000000000E+00 -0.19583053557E+04  0.19583053557E+04  0.00000000000E+00 0.  1.
         25    1    1    2    0    0  0.71565469724E+02 -0.30745773260E+03 -0.36498491141E+03  0.49848857495E+03  0.12500000000E+03 0.  0.
         21    1    1    2  503  502  0.13777642501E+03  0.21215592363E+00  0.24041149825E+02  0.13985837545E+03  0.00000000000E+00 0. -1.
         -3    1    1    2    0  503 -0.20934189473E+03  0.30724557668E+03 -0.14451310901E+04  0.14921889092E+04  0.00000000000E+00 0.  1.
<mgrwt>
<rscale>  4 0.53967044E+03</rscale>
<asrwt>0</asrwt>
<pdfrwt beam="1">  1       21 0.26496999E-01 0.53967044E+03</pdfrwt>
<pdfrwt beam="2">  1       -3 0.30127777E+00 0.53967044E+03</pdfrwt>
<totfact> 0.25970742E+01</totfact>
</mgrwt>
</event>
<event>
 5    0  0.2396052E+000  0.7489989E+03  0.7546771E-02  0.9636922E-01
         21   -1    0    0  501  502  0.00000000000E+00  0.00000000000E+00  0.59540555197E+02  0.59540555197E+02  0.00000000000E+00 0.  1.
          2   -1    0    0  503    0 -0.00000000000E+00 -0.00000000000E+00 -0.32697928951E+04  0.32697928951E+04  0.00000000000E+00 0.  1.
         25    1    1    2    0    0  0.16823189431E+03  0.28244011888E+03 -0.74107421967E+03  0.82029896384E+03  0.12500000000E+03 0.  0.
         21    1    1    2  503  502 -0.14942559199E+03 -0.31891247048E+03 -0.15741360774E+04  0.16130522501E+04  0.00000000000E+00 0.  1.
          2    1    1    2  501    0 -0.18806302323E+02  0.36472351601E+02 -0.89504204287E+03  0.89598223640E+03  0.00000000000E+00 0.  1.
<mgrwt>
<rscale>  4 0.74899894E+03</rscale>
<asrwt>0</asrwt>
<pdfrwt beam="1">  1       21 0.91600855E-02 0.74899894E+03</pdfrwt>
<pdfrwt beam="2">  1        2 0.50304506E+00 0.74899894E+03</pdfrwt>
<totfact> 0.14713030E+03</totfact>
</mgrwt>
</event>
<event>
 5    0  0.2396052E+000  0.4989834E+03  0.7546771E-02  0.1014045E+00
         21   -1    0    0  501  502  0.00000000000E+00  0.00000000000E+00  0.12940594350E+03  0.12940594350E+03  0.00000000000E+00 0. -1.
          2   -1    0    0  503    0 -0.00000000000E+00 -0.00000000000E+00 -0.84147740452E+03  0.84147740452E+03  0.00000000000E+00 0.  1.
         25    1    1    2    0    0 -0.10413825424E+03 -0.26243127017E+03 -0.18409612987E+03  0.35948759727E+03  0.12500000000E+03 0.  0.
         21    1    1    2  503  502  0.11118291128E+03  0.12991805371E+03 -0.24409866557E+03  0.29803439227E+03  0.00000000000E+00 0. -1.
          2    1    1    2  501    0 -0.70446570372E+01  0.13251321645E+03 -0.28387666558E+03  0.31336135848E+03  0.00000000000E+00 0.  1.
<mgrwt>
<rscale>  4 0.49898335E+03</rscale>
<asrwt>0</asrwt>
<pdfrwt beam="1">  1       21 0.19908607E-01 0.49898335E+03</pdfrwt>
<pdfrwt beam="2">  1        2 0.12945806E+00 0.49898335E+03</pdfrwt>
<totfact> 0.92440502E+03</totfact>
</mgrwt>
</event>
<event>
 5    0  0.2396052E+000  0.1121636E+04  0.7546771E-02  0.9184357E-01
         21   -1    0    0  501  502  0.00000000000E+00  0.00000000000E+00  0.38713606273E+03  0.38713606273E+03  0.00000000000E+00 0. -1.
          1   -1    0    0  503    0 -0.00000000000E+00 -0.00000000000E+00 -0.31055996429E+04  0.31055996429E+04  0.00000000000E+00 0. -1.
         25    1    1    2    0    0 -0.56475340171E+03  0.88426642621E+02 -0.26657319114E+03  0.64300228779E+03  0.12500000000E+03 0.  0.
         21    1    1    2  503  502  0.52097908199E+03 -0.11493890171E+03 -0.15959508218E+03  0.55686690084E+03  0.00000000000E+00 0. -1.
          1    1    1    2  501    0  0.43774319725E+02  0.26512259092E+02 -0.22922953068E+04  0.22928665170E+04  0.00000000000E+00 0. -1.
<mgrwt>
<rscale>  4 0.11216357E+04</rscale>
<asrwt>0</asrwt>
<pdfrwt beam="1">  1       21 0.59559394E-01 0.11216357E+04</pdfrwt>
<pdfrwt beam="2">  1        1 0.47778456E+00 0.11216357E+04</pdfrwt>
<totfact> 0.12696972E+01</totfact>
</mgrwt>
</event>
<event>
 5    0  0.2396052E+000  0.3917567E+03  0.7546771E-02  0.1046672E+00
         21   -1    0    0  501  502  0.00000000000E+00  0.00000000000E+00  0.36446990861E+03  0.36446990861E+03  0.00000000000E+00 0. -1.
         -1   -1    0    0    0  501 -0.00000000000E+00 -0.00000000000E+00 -0.27583692036E+03  0.27583692036E+03  0.00000000000E+00 0. -1.
         25    1    1    2    0    0  0.21250034590E+03  0.49705021259E+01  0.15725341648E+03  0.29246322828E+03  0.12500000000E+03 0.  0.
         21    1    1    2  503  502 -0.48297197714E+02  0.12056727067E+03  0.55152126320E+00  0.12988221680E+03  0.00000000000E+00 0.  1.
         -1    1    1    2    0  503 -0.16420314819E+03 -0.12553777280E+03 -0.69171949488E+02  0.21796138389E+03  0.00000000000E+00 0. -1.
<mgrwt>
<rscale>  4 0.39175665E+03</rscale>
<asrwt>0</asrwt>
<pdfrwt beam="1">  1       21 0.56072293E-01 0.39175665E+03</pdfrwt>
<pdfrwt beam="2">  1       -1 0.42436450E-01 0.39175665E+03</pdfrwt>
<totfact> 0.14528424E+03</totfact>
</mgrwt>
</event>
<event>
 5    0  0.2396052E+000  0.6830948E+03  0.7546771E-02  0.9746587E-01
         21   -1    0    0  501  502  0.00000000000E+00  0.00000000000E+00  0.43100086252E+03  0.43100086252E+03  0.00000000000E+00 0.  1.
          2   -1    0    0  503    0 -0.00000000000E+00 -0.00000000000E+00 -0.21864644705E+04  0.21864644705E+04  0.00000000000E+00 0.  1.
         25    1    1    2    0    0 -0.58272642751E+03 -0.14584048701E+03  0.11834806419E+03  0.62487662884E+03  0.12500000000E+03 0.  0.
         21    1    1    2  503  502  0.30510808609E+02  0.48545727829E+02 -0.28624341003E+02  0.64085490013E+02  0.00000000000E+00 0. -1.
          2    1    1    2  501    0  0.55221561890E+03  0.97294759186E+02 -0.18451873312E+04  0.19285032142E+04  0.00000000000E+00 0.  1.
<mgrwt>
<rscale>  4 0.68309476E+03</rscale>
<asrwt>0</asrwt>
<pdfrwt beam="1">  1       21 0.66307825E-01 0.68309476E+03</pdfrwt>
<pdfrwt beam="2">  1        2 0.33637915E+00 0.68309476E+03</pdfrwt>
<totfact> 0.12776085E+02</totfact>
</mgrwt>
</event>
<event>
 5    0  0.2396052E+000  0.4435706E+03  0.7546771E-02  0.1029657E+00
          2   -1    0    0  503    0 -0.00000000000E+00  0.00000000000E+00  0.38475582603E+04  0.38475582603E+04  0.00000000000E+00 0. -1.
         21   -1    0    0  501  502  0.00000000000E+00 -0.00000000000E+00 -0.33084367480E+02  0.33084367480E+02  0.00000000000E+00 0.  1.
         25    1    1    2    0    0 -0.16556654803E+03  0.13421129171E+03  0.15964665614E+04  0.16154737492E+04  0.12500000000E+03 0.  0.
         21    1    1    2  503  502  0.27986787569E+02 -0.43712791300E+02  0.12324900545E+02  0.53347648262E+02  0.00000000000E+00 0.  1.
          2    1    1    2  501    0  0.13757976047E+03 -0.90498500410E+02  0.22056824309E+04  0.22118212303E+04  0.00000000000E+00 0. -1.
<mgrwt>
<rscale>  4 0.44357061E+03</rscale>
<asrwt>0</asrwt>
<pdfrwt beam="1">  1       21 0.50899057E-02 0.44357061E+03</pdfrwt>
<pdfrwt beam="2">  1        2 0.59193169E+00 0.44357061E+03</pdfrwt>
<totfact> 0.17885930E+03</totfact>
</mgrwt>
</event>
<event>
 5    0  0.2589598E+000  0.8339582E+03  0.7546771E-02  0.9512124E-01
         21   -1    0    0  501  502  0.00000000000E+00  0.00000000000E+00  0.77158834642E+03  0.77158834642E+03  0.00000000000E+00 0. -1.
          2   -1    0    0  503    0 -0.00000000000E+00 -0.00000000000E+00 -0.38499303210E+03  0.38499303210E+03  0.00000000000E+00 0.  1.
         25    1    1    2    0    0  0.22439567182E+02  0.20271890377E+03 -0.14637999265E+03  0.28044712580E+03  0.12500000000E+03 0.  0.
         21    1    1    2  503  502 -0.35507417074E+02 -0.18191077943E+03  0.69140194399E+03  0.71581349281E+03  0.00000000000E+00 0. -1.
          2    1    1    2  501    0  0.13067849892E+02 -0.20808124341E+02 -0.15842663702E+03  0.16032075990E+03  0.00000000000E+00 0.  1.
<mgrwt>
<rscale>  4 0.83395821E+03</rscale>
<asrwt>0</asrwt>
<pdfrwt beam="1">  1       21 0.11870590E+00 0.83395821E+03</pdfrwt>
<pdfrwt beam="2">  1        2 0.59229698E-01 0.83395821E+03</pdfrwt>
<totfact> 0.47157049E+02</totfact>
</mgrwt>
</event>
<event>
 5    0  0.2396052E+000  0.4527921E+03  0.7546771E-02  0.1026893E+00
          1   -1    0    0  503    0 -0.00000000000E+00  0.00000000000E+00  0.25599406692E+04  0.25599406692E+04  0.00000000000E+00 0. -1.
         21   -1    0    0  501  502  0.00000000000E+00 -0.00000000000E+00 -0.11449581001E+03  0.11449581001E+03  0.00000000000E+00 0. -1.
         25    1    1    2    0    0 -0.19154764073E+03  0.14846541212E+03  0.39759495667E+03  0.48211951510E+03  0.12500000000E+03 0.  0.
         21    1    1    2  503  502 -0.69365445714E+02 -0.81079859796E+02 -0.18650609064E+02  0.10832060719E+03  0.00000000000E+00 0. -1.
          1    1    1    2  501    0  0.26091308644E+03 -0.67385552328E+02  0.20665005116E+04  0.20839963569E+04  0.00000000000E+00 0. -1.
<mgrwt>
<rscale>  4 0.45279214E+03</rscale>
<asrwt>0</asrwt>
<pdfrwt beam="1">  1       21 0.17614742E-01 0.45279214E+03</pdfrwt>
<pdfrwt beam="2">  1        1 0.39383698E+00 0.45279214E+03</pdfrwt>
<totfact> 0.42928452E+02</totfact>
</mgrwt>
</event>
<event>
 5    0  0.2396052E+000  0.7258448E+03  0.7546771E-02  0.9674027E-01
         21   -1    0    0  501  502  0.00000000000E+00  0.00000000000E+00  0.16206516122E+04  0.16206516122E+04  0.00000000000E+00 0. -1.
         -3   -1    0    0    0  501 -0.00000000000E+00 -0.00000000000E+00 -0.14204042204E+03  0.14204042204E+03  0.00000000000E+00 0. -1.
         25    1    1    2    0    0 -0.26784698329E+03  0.12819740051E+02  0.23776666212E+03  0.37955808226E+03  0.12500000000E+03 0.  0.
         21    1    1    2  503  502  0.23602107479E+03  0.77522063438E+01  0.12953774971E+04  0.13167265869E+04  0.00000000000E+00 0. -1.
         -3    1    1    2    0  503  0.31825908498E+02 -0.20571946394E+02 -0.54532969072E+02  0.66407365148E+02  0.00000000000E+00 0. -1.
<mgrwt>
<rscale>  4 0.72584479E+03</rscale>
<asrwt>0</asrwt>
<pdfrwt beam="1">  1       21 0.24933100E+00 0.72584479E+03</pdfrwt>
<pdfrwt beam="2">  1       -3 0.21852374E-01 0.72584479E+03</pdfrwt>
<totfact> 0.52290755E+01</totfact>
</mgrwt>
</event>
<event>
 5    0  0.2396052E+000  0.7110741E+03  0.7546771E-02  0.9698479E-01
         21   -1    0    0  501  502  0.00000000000E+00  0.00000000000E+00  0.35764703999E+03  0.35764703999E+03  0.00000000000E+00 0.  1.
          2   -1    0    0  503    0 -0.00000000000E+00 -0.00000000000E+00 -0.20248842038E+04  0.20248842038E+04  0.00000000000E+00 0.  1.
         25    1    1    2    0    0  0.12178750738E+03  0.41556690359E+03 -0.41312716424E+02  0.45261439311E+03  0.12500000000E+03 0.  0.
         21    1    1    2  503  502 -0.11371984811E+03  0.22690835955E+03 -0.97434738098E+02  0.27186970349E+03  0.00000000000E+00 0. -1.
          2    1    1    2  501    0 -0.80676592721E+01 -0.64247526314E+03 -0.15284897092E+04  0.16580471471E+04  0.00000000000E+00 0.  1.
<mgrwt>
<rscale>  4 0.71107408E+03</rscale>
<asrwt>0</asrwt>
<pdfrwt beam="1">  1       21 0.55022621E-01 0.71107408E+03</pdfrwt>
<pdfrwt beam="2">  1        2 0.31152065E+00 0.71107408E+03</pdfrwt>
<totfact> 0.23515750E+02</totfact>
</mgrwt>
</event>
<event>
 5    0  0.2396052E+000  0.3712007E+03  0.7546771E-02  0.1054235E+00
          1   -1    0    0  503    0 -0.00000000000E+00  0.00000000000E+00  0.35278723101E+04  0.35278723101E+04  0.00000000000E+00 0. -1.
         21   -1    0    0  501  502  0.00000000000E+00 -0.00000000000E+00 -0.37864092630E+02  0.37864092630E+02  0.00000000000E+00 0. -1.
         25    1    1    2    0    0  0.13281231357E+03  0.16972427940E+03  0.46665720176E+03  0.52899847410E+03  0.12500000000E+03 0.  0.
         21    1    1    2  503  502 -0.12698879943E+01  0.36526153655E+02  0.58693857837E+03  0.58807539253E+03  0.00000000000E+00 0.  1.
          1    1    1    2  501    0 -0.13154242557E+03 -0.20625043306E+03  0.24364124374E+04  0.24486625361E+04  0.00000000000E+00 0. -1.
<mgrwt>
<rscale>  4 0.37120069E+03</rscale>
<asrwt>0</asrwt>
<pdfrwt beam="1">  1       21 0.58252478E-02 0.37120069E+03</pdfrwt>
<pdfrwt beam="2">  1        1 0.54274933E+00 0.37120069E+03</pdfrwt>
<totfact> 0.65876965E+02</totfact>
</mgrwt>
</event>
<event>
 5    0  0.2396052E+000  0.4410344E+03  0.7546771E-02  0.1030430E+00
         -1   -1    0    0    0  501 -0.00000000000E+00  0.00000000000E+00  0.12057236954E+04  0.12057236954E+04  0.00000000000E+00 0. -1.
         21   -1    0    0  501  502  0.00000000000E+00 -0.00000000000E+00 -0.91174739439E+02  0.91174739439E+02  0.00000000000E+00 0. -1.
         25    1    1    2    0    0 -0.33012306107E+02 -0.20652789547E+03  0.30741022223E+03  0.39226219382E+03  0.12500000000E+03 0.  0.
         21    1    1    2  503  502  0.16513981538E+02  0.18867976161E+03  0.13627318962E+03  0.23333055144E+03  0.00000000000E+00 0. -1.
         -1    1    1    2    0  503  0.16498324569E+02  0.17848133863E+02  0.67086554407E+03  0.67130568955E+03  0.00000000000E+00 0. -1.
<mgrwt>
<rscale>  4 0.44103437E+03</rscale>
<asrwt>0</asrwt>
<pdfrwt beam="1">  1       21 0.14026884E-01 0.44103437E+03</pdfrwt>
<pdfrwt beam="2">  1       -1 0.18549594E+00 0.44103437E+03</pdfrwt>
<totfact> 0.82410955E+02</totfact>
</mgrwt>
</event>
<event>
 5    0  0.2396052E+000  0.5927351E+03  0.7546771E-02  0.9920594E-01
         21   -1    0    0  501  502  0.00000000000E+00  0.00000000000E+00  0.29081464602E+03  0.29081464602E+03  0.00000000000E+00 0.  1.
         -1   -1    0    0    0  501 -0.00000000000E+00 -0.00000000000E+00 -0.16508556527E+04  0.16508556527E+04  0.00000000000E+00 0. -1.
         25    1    1    2    0    0 -0.21613831809E+03 -0.84144045678E+02 -0.20031843662E+03  0.33098107049E+03  0.12500000000E+03 0.  0.
         21    1    1    2  503  502  0.17937034723E+03  0.34558194224E+02  0.18766427318E+03  0.26188904078E+03  0.00000000000E+00 0.  1.
         -1    1    1    2    0  503  0.36767970862E+02  0.49585851454E+02 -0.13473868433E+04  0.13488001875E+04  0.00000000000E+00 0. -1.
<mgrwt>
<rscale>  4 0.59273505E+03</rscale>
<asrwt>0</asrwt>
<pdfrwt beam="1">  1       21 0.44740715E-01 0.59273505E+03</pdfrwt>
<pdfrwt beam="2">  1       -1 0.25397779E+00 0.59273505E+03</pdfrwt>
<totfact> 0.28883625E+01</totfact>
</mgrwt>
</event>
<event>
 5    0  0.2396052E+000  0.6828810E+03  0.7546771E-02  0.9746964E-01
         -1   -1    0    0    0  501 -0.00000000000E+00  0.00000000000E+00  0.10084306398E+04  0.10084306398E+04  0.00000000000E+00 0. -1.
         21   -1    0    0  501  502  0.00000000000E+00 -0.00000000000E+00 -0.30697620739E+03  0.30697620739E+03  0.00000000000E+00 0. -1.
         25    1    1    2    0    0  0.74864565037E+02 -0.27495284094E+03  0.22432397663E+03  0.38360137425E+03  0.12500000000E+03 0.  0.
         21    1    1    2  503  502 -0.71192087433E+02  0.25304559005E+03 -0.15108678315E+03  0.30319564640E+03  0.00000000000E+00 0. -1.
         -1    1    1    2    0  503 -0.36724776044E+01  0.21907250894E+02  0.62821723897E+03  0.62860982658E+03  0.00000000000E+00 0. -1.
<mgrwt>
<rscale>  4 0.68288100E+03</rscale>
<asrwt>0</asrwt>
<pdfrwt beam="1">  1       21 0.47227109E-01 0.68288100E+03</pdfrwt>
<pdfrwt beam="2">  1       -1 0.15514317E+00 0.68288100E+03</pdfrwt>
<totfact> 0.12002412E+02</totfact>
</mgrwt>
</event>
<event>
 5    0  0.2396052E+000  0.4761125E+03  0.7546771E-02  0.1020209E+00
         21   -1    0    0  501  502  0.00000000000E+00  0.00000000000E+00  0.39534126178E+03  0.39534126178E+03  0.00000000000E+00 0.  1.
          2   -1    0    0  503    0 -0.00000000000E+00 -0.00000000000E+00 -0.45007776186E+03  0.45007776186E+03  0.00000000000E+00 0.  1.
         25    1    1    2    0    0  0.14346353950E+03  0.14324519855E+03  0.14298967823E+02  0.23860099445E+03  0.12500000000E+03 0.  0.
         21    1    1    2  503  502 -0.18790901212E+03 -0.34636238966E+02  0.22206456146E+03  0.29295415228E+03  0.00000000000E+00 0. -1.
          2    1    1    2  501    0  0.44445472618E+02 -0.10860895958E+03 -0.29110002936E+03  0.31386387691E+03  0.00000000000E+00 0.  1.
<mgrwt>
<rscale>  4 0.47611255E+03</rscale>
<asrwt>0</asrwt>
<pdfrwt beam="1">  1       21 0.60821733E-01 0.47611255E+03</pdfrwt>
<pdfrwt beam="2">  1        2 0.69242732E-01 0.47611255E+03</pdfrwt>
<totfact> 0.20378559E+03</totfact>
</mgrwt>
</event>
<event>
 5    0  0.2396052E+000  0.6933993E+03  0.7546771E-02  0.9728587E-01
         21   -1    0    0  501  502  0.00000000000E+00  0.00000000000E+00  0.48563128356E+03  0.48563128356E+03  0.00000000000E+00 0. -1.
          2   -1    0    0  503    0 -0.00000000000E+00 -0.00000000000E+00 -0.46886328845E+03  0.46886328845E+03  0.00000000000E+00 0. -1.
         25    1    1    2    0    0  0.30999412750E+03  0.77351253967E+02  0.13497568964E+03  0.36867738250E+03  0.12500000000E+03 0.  0.
         21    1    1    2  503  502 -0.34555720631E+03 -0.51806641460E+02  0.99850777250E+02  0.36340595571E+03  0.00000000000E+00 0. -1.
          2    1    1    2  501    0  0.35563078811E+02 -0.25544612507E+02 -0.21805847179E+03  0.22241123380E+03  0.00000000000E+00 0. -1.
<mgrwt>
<rscale>  4 0.69339927E+03</rscale>
<asrwt>0</asrwt>
<pdfrwt beam="1">  1       21 0.74712506E-01 0.69339927E+03</pdfrwt>
<pdfrwt beam="2">  1        2 0.72132813E-01 0.69339927E+03</pdfrwt>
<totfact> 0.11835689E+03</totfact>
</mgrwt>
</event>
<event>
 5    0  0.2396052E+000  0.6191391E+03  0.7546771E-02  0.9866475E-01
          1   -1    0    0  503    0 -0.00000000000E+00  0.00000000000E+00  0.99789855643E+03  0.99789855643E+03  0.00000000000E+00 0. -1.
         21   -1    0    0  501  502  0.00000000000E+00 -0.00000000000E+00 -0.14037748094E+03  0.14037748094E+03  0.00000000000E+00 0. -1.
         25    1    1    2    0    0 -0.18662766105E+03 -0.19262965059E+03  0.60740433754E+03  0.67564864790E+03  0.12500000000E+03 0.  0.
         21    1    1    2  503  502  0.10997495728E+03  0.14094118783E+03 -0.17371654499E+02  0.17961259431E+03  0.00000000000E+00 0. -1.
          1    1    1    2  501    0  0.76652703769E+02  0.51688462760E+02  0.26748839246E+03  0.28301479516E+03  0.00000000000E+00 0. -1.
<mgrwt>
<rscale>  4 0.61913910E+03</rscale>
<asrwt>0</asrwt>
<pdfrwt beam="1">  1       21 0.21596536E-01 0.61913910E+03</pdfrwt>
<pdfrwt beam="2">  1        1 0.15352285E+00 0.61913910E+03</pdfrwt>
<totfact> 0.32684458E+03</totfact>
</mgrwt>
</event>
<event>
 5    0  0.2396052E+000  0.4731880E+03  0.7546771E-02  0.1021024E+00
         21   -1    0    0  501  502  0.00000000000E+00  0.00000000000E+00  0.27984755491E+02  0.27984755491E+02  0.00000000000E+00 0. -1.
          2   -1    0    0  503    0 -0.00000000000E+00 -0.00000000000E+00 -0.40364786895E+04  0.40364786895E+04  0.00000000000E+00 0. -1.
         25    1    1    2    0    0 -0.13582174314E+03 -0.14724473689E+03 -0.15903088880E+04  0.16077424911E+04  0.12500000000E+03 0.  0.
         21    1    1    2  503  502  0.16978785748E+03  0.72986688099E+02 -0.44504738858E+03  0.48189433620E+03  0.00000000000E+00 0. -1.
          2    1    1    2  501    0 -0.33966114332E+02  0.74258048795E+02 -0.19731376575E+04  0.19748266177E+04  0.00000000000E+00 0. -1.
<mgrwt>
<rscale>  4 0.47318801E+03</rscale>
<asrwt>0</asrwt>
<pdfrwt beam="1">  1       21 0.43053531E-02 0.47318801E+03</pdfrwt>
<pdfrwt beam="2">  1        2 0.62099585E+00 0.47318801E+03</pdfrwt>
<totfact> 0.16943592E+03</totfact>
</mgrwt>
</event>
<event>
 5    0  0.2396052E+000  0.3540969E+03  0.7546771E-02  0.1060946E+00
         21   -1    0    0  501  502  0.00000000000E+00  0.00000000000E+00  0.14154843577E+04  0.14154843577E+04  0.00000000000E+00 0. -1.
         -3   -1    0    0    0  501 -0.00000000000E+00 -0.00000000000E+00 -0.13796929759E+03  0.13796929759E+03  0.00000000000E+00 0. -1.
         25    1    1    2    0    0  0.19993741418E+03 -0.53889388156E+02  0.60865330464E+03  0.65495257919E+03  0.12500000000E+03 0.  0.
         21    1    1    2  503  502 -0.24229735607E+02 -0.14011613939E+02  0.70595733566E+03  0.70651197102E+03  0.00000000000E+00 0.  1.
         -3    1    1    2    0  503 -0.17570767857E+03  0.67901002095E+02 -0.37095580208E+02  0.19198910507E+03  0.00000000000E+00 0. -1.
<mgrwt>
<rscale>  4 0.35409686E+03</rscale>
<asrwt>0</asrwt>
<pdfrwt beam="1">  1       21 0.21776681E+00 0.35409686E+03</pdfrwt>
<pdfrwt beam="2">  1       -3 0.21226047E-01 0.35409686E+03</pdfrwt>
<totfact> 0.95898528E+01</totfact>
</mgrwt>
</event>
<event>
 5    0  0.2396052E+000  0.4870378E+03  0.7546771E-02  0.1017219E+00
          1   -1    0    0  503    0 -0.00000000000E+00  0.00000000000E+00  0.14807049539E+04  0.14807049539E+04  0.00000000000E+00 0.  1.
         21   -1    0    0  501  502  0.00000000000E+00 -0.00000000000E+00 -0.28743307510E+03  0.28743307510E+03  0.00000000000E+00 0.  1.
         25    1    1    2    0    0  0.27817443250E+03  0.68635907853E+02 -0.14719285098E+03  0.34551792736E+03  0.12500000000E+03 0.  0.
         21    1    1    2  503  502  0.67081537942E+02  0.53421302555E+02  0.11399659094E+03  0.14264988975E+03  0.00000000000E+00 0. -1.
          1    1    1    2  501    0 -0.34525597045E+03 -0.12205721041E+03  0.12264681388E+04  0.12799702119E+04  0.00000000000E+00 0.  1.
<mgrwt>
<rscale>  4 0.48703781E+03</rscale>
<asrwt>0</asrwt>
<pdfrwt beam="1">  1       21 0.44220474E-01 0.48703781E+03</pdfrwt>
<pdfrwt beam="2">  1        1 0.22780076E+00 0.48703781E+03</pdfrwt>
<totfact> 0.36031236E+02</totfact>
</mgrwt>
</event>
<event>
 5    0  0.2396052E+000  0.3369934E+03  0.7546771E-02  0.1068084E+00
         -1   -1    0    0    0  501 -0.00000000000E+00  0.00000000000E+00  0.64155786203E+02  0.64155786203E+02  0.00000000000E+00 0. -1.
         21   -1    0    0  501  502  0.00000000000E+00 -0.00000000000E+00 -0.11384605756E+04  0.11384605756E+04  0.00000000000E+00 0.  1.
         25    1    1    2    0    0  0.89643877854E+02 -0.18077385198E+03 -0.61647713153E+03  0.66059387228E+03  0.12500000000E+03 0.  0.
         21    1    1    2  503  502 -0.87875254561E+02  0.38547139574E+02 -0.35169868284E+03  0.36455439353E+03  0.00000000000E+00 0. -1.
         -1    1    1    2    0  503 -0.17686232935E+01  0.14222671241E+03 -0.10612897501E+03  0.17746809597E+03  0.00000000000E+00 0. -1.
<mgrwt>
<rscale>  4 0.33699341E+03</rscale>
<asrwt>0</asrwt>
<pdfrwt beam="1">  1       21 0.17514780E+00 0.33699341E+03</pdfrwt>
<pdfrwt beam="2">  1       -1 0.98701197E-02 0.33699341E+03</pdfrwt>
<totfact> 0.10299773E+03</totfact>
</mgrwt>
</event>
<event>
 5    0  0.2396052E+000  0.4616692E+03  0.7546771E-02  0.1024298E+00
         21   -1    0    0  501  502  0.00000000000E+00  0.00000000000E+00  0.18758205169E+03  0.18758205169E+03  0.00000000000E+00 0. -1.
          2   -1    0    0  503    0 -0.00000000000E+00 -0.00000000000E+00 -0.15874595762E+04  0.15874595762E+04  0.00000000000E+00 0.  1.
         25    1    1    2    0    0 -0.79513198764E+02  0.27290831567E+03 -0.14943326037E+03  0.34461079037E+03  0.12500000000E+03 0.  0.
         21    1    1    2  503  502  0.81239073488E+02 -0.95065753516E+02  0.37276080799E+02  0.13048674551E+03  0.00000000000E+00 0. -1.
          2    1    1    2  501    0 -0.17258747240E+01 -0.17784256215E+03 -0.12877203449E+04  0.12999440920E+04  0.00000000000E+00 0.  1.
<mgrwt>
<rscale>  4 0.46166918E+03</rscale>
<asrwt>0</asrwt>
<pdfrwt beam="1">  1       21 0.28858778E-01 0.46166918E+03</pdfrwt>
<pdfrwt beam="2">  1        2 0.24422454E+00 0.46166918E+03</pdfrwt>
<totfact> 0.16392759E+03</totfact>
</mgrwt>
</event>
<event>
 5    0  0.2396052E+000  0.6040268E+03  0.7546771E-02  0.9897087E-01
         21   -1    0    0  501  502  0.00000000000E+00  0.00000000000E+00  0.34017274247E+03  0.34017274247E+03  0.00000000000E+00 0. -1.
         -4   -1    0    0    0  501 -0.00000000000E+00 -0.00000000000E+00 -0.51329260982E+03  0.51329260982E+03  0.00000000000E+00 0. -1.
         25    1    1    2    0    0  0.32204345976E+03 -0.20275427479E+02  0.37528097540E+02  0.34807533817E+03  0.12500000000E+03 0.  0.
         21    1    1    2  503  502 -0.25456671524E+03 -0.41238393448E+02  0.18672342478E+02  0.25856038748E+03  0.00000000000E+00 0.  1.
         -4    1    1    2    0  503 -0.67476744525E+02  0.61513820927E+02 -0.22932030736E+03  0.24682962664E+03  0.00000000000E+00 0. -1.
<mgrwt>
<rscale>  4 0.60402683E+03</rscale>
<asrwt>0</asrwt>
<pdfrwt beam="1">  1       21 0.52334268E-01 0.60402683E+03</pdfrwt>
<pdfrwt beam="2">  1       -4 0.78968093E-01 0.60402683E+03</pdfrwt>
<totfact> 0.20314856E+02</totfact>
</mgrwt>
</event>
<event>
 5    0  0.2396052E+000  0.5210601E+03  0.7546771E-02  0.1008424E+00
         21   -1    0    0  501  502  0.00000000000E+00  0.00000000000E+00  0.63528800542E+02  0.63528800542E+02  0.00000000000E+00 0. -1.
          1   -1    0    0  503    0 -0.00000000000E+00 -0.00000000000E+00 -0.14398189991E+04  0.14398189991E+04  0.00000000000E+00 0. -1.
         25    1    1    2    0    0  0.20007790852E+03 -0.10158561104E+03 -0.63685955242E+03  0.68670655695E+03  0.12500000000E+03 0.  0.
         21    1    1    2  503  502 -0.22978488263E+03  0.10284739846E+03 -0.37904841639E+03  0.45503448399E+03  0.00000000000E+00 0. -1.
          1    1    1    2  501    0  0.29706974111E+02 -0.12617874239E+01 -0.36038222971E+03  0.36160675866E+03  0.00000000000E+00 0. -1.
<mgrwt>
<rscale>  4 0.52106008E+03</rscale>
<asrwt>0</asrwt>
<pdfrwt beam="1">  1       21 0.97736618E-02 0.52106008E+03</pdfrwt>
<pdfrwt beam="2">  1        1 0.22151061E+00 0.52106008E+03</pdfrwt>
<totfact> 0.69742299E+03</totfact>
</mgrwt>
</event>
<event>
 5    0  0.2396052E+000  0.6660074E+03  0.7546771E-02  0.9777198E-01
         21   -1    0    0  501  502  0.00000000000E+00  0.00000000000E+00  0.19113537034E+03  0.19113537034E+03  0.00000000000E+00 0. -1.
          2   -1    0    0  503    0 -0.00000000000E+00 -0.00000000000E+00 -0.11424192307E+04  0.11424192307E+04  0.00000000000E+00 0. -1.
         25    1    1    2    0    0 -0.18743015783E+03 -0.17409494204E+03 -0.36030876576E+03  0.45922382298E+03  0.12500000000E+03 0.  0.
         21    1    1    2  503  502  0.36693360329E+02  0.35003511190E+03 -0.16342834198E+03  0.38804613801E+03  0.00000000000E+00 0.  1.
          2    1    1    2  501    0  0.15073679750E+03 -0.17594016986E+03 -0.42754675262E+03  0.48628464007E+03  0.00000000000E+00 0. -1.
<mgrwt>
<rscale>  4 0.66600738E+03</rscale>
<asrwt>0</asrwt>
<pdfrwt beam="1">  1       21 0.29405442E-01 0.66600738E+03</pdfrwt>
<pdfrwt beam="2">  1        2 0.17575680E+00 0.66600738E+03</pdfrwt>
<totfact> 0.27148724E+03</totfact>
</mgrwt>
</event>
<event>
 5    0  0.2396052E+000  0.6035955E+03  0.7546771E-02  0.9897975E-01
         21   -1    0    0  501  502  0.00000000000E+00  0.00000000000E+00  0.21761342640E+03  0.21761342640E+03  0.00000000000E+00 0. -1.
          2   -1    0    0  503    0 -0.00000000000E+00 -0.00000000000E+00 -0.56197598315E+03  0.56197598315E+03  0.00000000000E+00 0. -1.
         25    1    1    2    0    0  0.20418209796E+03 -0.82179611613E+02 -0.31693194252E+03  0.40560408514E+03  0.12500000000E+03 0.  0.
         21    1    1    2  503  502 -0.19218195968E+03  0.61987019662E+02  0.11313914649E+03  0.23146654769E+03  0.00000000000E+00 0. -1.
          2    1    1    2  501    0 -0.12000138283E+02  0.20192591950E+02 -0.14056976072E+03  0.14251877672E+03  0.00000000000E+00 0. -1.
<mgrwt>
<rscale>  4 0.60359547E+03</rscale>
<asrwt>0</asrwt>
<pdfrwt beam="1">  1       21 0.33478989E-01 0.60359547E+03</pdfrwt>
<pdfrwt beam="2">  1        2 0.86457843E-01 0.60359547E+03</pdfrwt>
<totfact> 0.54491103E+03</totfact>
</mgrwt>
</event>
<event>
 5    0  0.2396052E+000  0.3151732E+03  0.7546771E-02  0.1077892E+00
         21   -1    0    0  501  502  0.00000000000E+00  0.00000000000E+00  0.11605244827E+03  0.11605244827E+03  0.00000000000E+00 0.  1.
         -3   -1    0    0    0  501 -0.00000000000E+00 -0.00000000000E+00 -0.53360550658E+03  0.53360550658E+03  0.00000000000E+00 0. -1.
         25    1    1    2    0    0 -0.16668798040E+03 -0.12980106200E+03 -0.11561205757E+03  0.27133806656E+03  0.12500000000E+03 0.  0.
         21    1    1    2  503  502  0.47869213343E+02  0.50281369474E+02 -0.40593267013E+02  0.80420712687E+02  0.00000000000E+00 0. -1.
         -3    1    1    2    0  503  0.11881876706E+03  0.79519692523E+02 -0.26134773373E+03  0.29789917561E+03  0.00000000000E+00 0. -1.
<mgrwt>
<rscale>  4 0.31517318E+03</rscale>
<asrwt>0</asrwt>
<pdfrwt beam="1">  1       21 0.17854223E-01 0.31517318E+03</pdfrwt>
<pdfrwt beam="2">  1       -3 0.82093155E-01 0.31517318E+03</pdfrwt>
<totfact> 0.19778287E+03</totfact>
</mgrwt>
</event>
<event>
 5    0  0.2396052E+000  0.4928925E+03  0.7546771E-02  0.1015651E+00
          2   -1    0    0  503    0 -0.00000000000E+00  0.00000000000E+00  0.13971762263E+04  0.13971762263E+04  0.00000000000E+00 0.  1.
         21   -1    0    0  501  502  0.00000000000E+00 -0.00000000000E+00 -0.27107965192E+03  0.27107965192E+03  0.00000000000E+00 0.  1.
         25    1    1    2    0    0 -0.16553882206E+03  0.14338546164E+03 -0.52530926678E+02  0.25757909557E+03  0.12500000000E+03 0.  0.
         21    1    1    2  503  502  0.17084034802E+03 -0.16493453158E+03  0.56943105438E+01  0.23753368054E+03  0.00000000000E+00 0.  1.
          2    1    1    2  501    0 -0.53015259601E+01  0.21549069944E+02  0.11729331905E+04  0.11731431021E+04  0.00000000000E+00 0.  1.
<mgrwt>
<rscale>  4 0.49289248E+03</rscale>
<asrwt>0</asrwt>
<pdfrwt beam="1">  1       21 0.41704563E-01 0.49289248E+03</pdfrwt>
<pdfrwt beam="2">  1        2 0.21495018E+00 0.49289248E+03</pdfrwt>
<totfact> 0.98156265E+02</totfact>
</mgrwt>
</event>
<event>
 5    0  0.2396052E+000  0.4417301E+03  0.7546771E-02  0.1030217E+00
          4   -1    0    0  503    0 -0.00000000000E+00  0.00000000000E+00  0.38114777765E+03  0.38114777765E+03  0.00000000000E+00 0. -1.
         21   -1    0    0  501  502  0.00000000000E+00 -0.00000000000E+00 -0.37992589194E+03  0.37992589194E+03  0.00000000000E+00 0. -1.
         25    1    1    2    0    0 -0.22561740899E+03  0.58326309862E+02 -0.26163279070E+03  0.37199716509E+03  0.12500000000E+03 0.  0.
         21    1    1    2  503  502  0.10517361255E+03  0.39520009056E+02  0.43718369708E+02  0.12055959415E+03  0.00000000000E+00 0.  1.
          4    1    1    2  501    0  0.12044379644E+03 -0.97846318918E+02  0.21913630670E+03  0.26851691035E+03  0.00000000000E+00 0. -1.
<mgrwt>
<rscale>  4 0.44173008E+03</rscale>
<asrwt>0</asrwt>
<pdfrwt beam="1">  1       21 0.58450137E-01 0.44173008E+03</pdfrwt>
<pdfrwt beam="2">  1        4 0.58638120E-01 0.44173008E+03</pdfrwt>
<totfact> 0.31241864E+02</totfact>
</mgrwt>
</event>
<event>
 5    0  0.2396052E+000  0.5975332E+03  0.7546771E-02  0.9910537E-01
          2   -1    0    0  503    0 -0.00000000000E+00  0.00000000000E+00  0.33302686090E+04  0.33302686090E+04  0.00000000000E+00 0.  1.
         21   -1    0    0  501  502  0.00000000000E+00 -0.00000000000E+00 -0.26052643468E+04  0.26052643468E+04  0.00000000000E+00 0.  1.
         25    1    1    2    0    0 -0.21964862558E+03 -0.66305200024E+02 -0.77590840868E+03  0.81871897311E+03  0.12500000000E+03 0.  0.
         21    1    1    2  503  502  0.26856290143E+03  0.14449629612E+03 -0.17944402690E+04  0.18201706213E+04  0.00000000000E+00 0.  1.
          2    1    1    2  501    0 -0.48914275858E+02 -0.78191096096E+02  0.32953529399E+04  0.32966433614E+04  0.00000000000E+00 0.  1.
<mgrwt>
<rscale>  4 0.59753323E+03</rscale>
<asrwt>0</asrwt>
<pdfrwt beam="1">  1       21 0.40080990E+00 0.59753323E+03</pdfrwt>
<pdfrwt beam="2">  1        2 0.51234902E+00 0.59753323E+03</pdfrwt>
<totfact> 0.89397860E-02</totfact>
</mgrwt>
</event>
<event>
 5    0  0.2396052E+000  0.4036290E+03  0.7546771E-02  0.1042530E+00
         21   -1    0    0  501  502  0.00000000000E+00  0.00000000000E+00  0.56273082739E+02  0.56273082739E+02  0.00000000000E+00 0. -1.
          2   -1    0    0  503    0 -0.00000000000E+00 -0.00000000000E+00 -0.20917351372E+04  0.20917351372E+04  0.00000000000E+00 0. -1.
         25    1    1    2    0    0  0.21933719227E+03  0.13163064680E+03 -0.68064915261E+03  0.73779651669E+03  0.12500000000E+03 0.  0.
         21    1    1    2  503  502 -0.64628844112E+02 -0.64070135819E+02 -0.71206927530E+02  0.11555213682E+03  0.00000000000E+00 0. -1.
          2    1    1    2  501    0 -0.15470834816E+03 -0.67560510985E+02 -0.12836059743E+04  0.12946595664E+04  0.00000000000E+00 0. -1.
<mgrwt>
<rscale>  4 0.40362899E+03</rscale>
<asrwt>0</asrwt>
<pdfrwt beam="1">  1       21 0.86573972E-02 0.40362899E+03</pdfrwt>
<pdfrwt beam="2">  1        2 0.32180541E+00 0.40362899E+03</pdfrwt>
<totfact> 0.84419677E+03</totfact>
</mgrwt>
</event>
<event>
 5    0  0.2396052E+000  0.6116419E+03  0.7546771E-02  0.9881543E-01
         21   -1    0    0  501  502  0.00000000000E+00  0.00000000000E+00  0.38156698145E+03  0.38156698145E+03  0.00000000000E+00 0.  1.
          3   -1    0    0  503    0 -0.00000000000E+00 -0.00000000000E+00 -0.59772987961E+03  0.59772987961E+03  0.00000000000E+00 0. -1.
         25    1    1    2    0    0  0.39357371144E+03 -0.10227886481E+03  0.11036919621E+03  0.43950835259E+03  0.12500000000E+03 0.  0.
         21    1    1    2  503  502 -0.13163310248E+03 -0.31951275903E+02 -0.10623838114E+03  0.17214746971E+03  0.00000000000E+00 0. -1.
          3    1    1    2  501    0 -0.26194060896E+03  0.13423014071E+03 -0.22029371323E+03  0.36764103877E+03  0.00000000000E+00 0. -1.
<mgrwt>
<rscale>  4 0.61164187E+03</rscale>
<asrwt>0</asrwt>
<pdfrwt beam="1">  1       21 0.58702613E-01 0.61164187E+03</pdfrwt>
<pdfrwt beam="2">  1        3 0.91958442E-01 0.61164187E+03</pdfrwt>
<totfact> 0.13573351E+02</totfact>
</mgrwt>
</event>
<event>
 5    0  0.2396052E+000  0.3608033E+03  0.7546771E-02  0.1058266E+00
         21   -1    0    0  501  502  0.00000000000E+00  0.00000000000E+00  0.91099945128E+02  0.91099945128E+02  0.00000000000E+00 0.  1.
          2   -1    0    0  503    0 -0.00000000000E+00 -0.00000000000E+00 -0.62242098326E+03  0.62242098326E+03  0.00000000000E+00 0. -1.
         25    1    1    2    0    0  0.73374780204E+02 -0.19707229768E+03 -0.19591563280E+03  0.31341551343E+03  0.12500000000E+03 0.  0.
         21    1    1    2  503  502 -0.49675537343E+02  0.10234894273E+03 -0.13052261985E+03  0.17314479311E+03  0.00000000000E+00 0. -1.
          2    1    1    2  501    0 -0.23699242861E+02  0.94723354951E+02 -0.20488278548E+03  0.22696062185E+03  0.00000000000E+00 0. -1.
<mgrwt>
<rscale>  4 0.36080327E+03</rscale>
<asrwt>0</asrwt>
<pdfrwt beam="1">  1       21 0.14015376E-01 0.36080327E+03</pdfrwt>
<pdfrwt beam="2">  1        2 0.95757077E-01 0.36080327E+03</pdfrwt>
<totfact> 0.26440383E+04</totfact>
</mgrwt>
</event>
<event>
 5    0  0.2396052E+000  0.4709311E+03  0.7546771E-02  0.1021658E+00
          2   -1    0    0  503    0 -0.00000000000E+00  0.00000000000E+00  0.17437763228E+04  0.17437763228E+04  0.00000000000E+00 0.  1.
         21   -1    0    0  501  502  0.00000000000E+00 -0.00000000000E+00 -0.30747528071E+03  0.30747528071E+03  0.00000000000E+00 0. -1.
         25    1    1    2    0    0  0.33922870242E+03  0.13282925958E+03  0.25503024836E+01  0.38516389860E+03  0.12500000000E+03 0.  0.
         21    1    1    2  503  502  0.29323333340E+02  0.68550969453E+01 -0.88582267902E+02  0.93561041139E+02  0.00000000000E+00 0.  1.
          2    1    1    2  501    0 -0.36855203576E+03 -0.13968435652E+03  0.15223330075E+04  0.15725266638E+04  0.00000000000E+00 0.  1.
<mgrwt>
<rscale>  4 0.47093107E+03</rscale>
<asrwt>0</asrwt>
<pdfrwt beam="1">  1       21 0.47303891E-01 0.47093107E+03</pdfrwt>
<pdfrwt beam="2">  1        2 0.26827327E+00 0.47093107E+03</pdfrwt>
<totfact> 0.49091324E+02</totfact>
</mgrwt>
</event>
<event>
 5    0  0.2396052E+000  0.4116970E+03  0.7546771E-02  0.1039803E+00
          2   -1    0    0  503    0 -0.00000000000E+00  0.00000000000E+00  0.13783989432E+04  0.13783989432E+04  0.00000000000E+00 0. -1.
         21   -1    0    0  501  502  0.00000000000E+00 -0.00000000000E+00 -0.15778304072E+03  0.15778304072E+03  0.00000000000E+00 0. -1.
         25    1    1    2    0    0  0.23947354913E+03  0.92437861237E+02  0.10096741110E+03  0.30283949054E+03  0.12500000000E+03 0.  0.
         21    1    1    2  503  502 -0.85637757024E+02 -0.91319897167E+02  0.24657584660E+02  0.12759759217E+03  0.00000000000E+00 0. -1.
          2    1    1    2  501    0 -0.15383579211E+03 -0.11179640698E+01  0.10949909068E+04  0.11057449013E+04  0.00000000000E+00 0. -1.
<mgrwt>
<rscale>  4 0.41169703E+03</rscale>
<asrwt>0</asrwt>
<pdfrwt beam="1">  1       21 0.24274315E-01 0.41169703E+03</pdfrwt>
<pdfrwt beam="2">  1        2 0.21206137E+00 0.41169703E+03</pdfrwt>
<totfact> 0.30304161E+03</totfact>
</mgrwt>
</event>
<event>
 5    0  0.2396052E+000  0.5429795E+03  0.7546771E-02  0.1003132E+00
         21   -1    0    0  501  502  0.00000000000E+00  0.00000000000E+00  0.29373256407E+03  0.29373256407E+03  0.00000000000E+00 0.  1.
         -1   -1    0    0    0  501 -0.00000000000E+00 -0.00000000000E+00 -0.28757745688E+03  0.28757745688E+03  0.00000000000E+00 0.  1.
         25    1    1    2    0    0  0.24019854666E+03 -0.23589905805E+02 -0.97361532306E+02  0.28871455358E+03  0.12500000000E+03 0.  0.
         21    1    1    2  503  502 -0.21722299105E+03  0.41621059595E+02  0.12706740094E+03  0.25507697824E+03  0.00000000000E+00 0.  1.
         -1    1    1    2    0  503 -0.22975555605E+02 -0.18031153790E+02 -0.23550761449E+02  0.37518489138E+02  0.00000000000E+00 0.  1.
<mgrwt>
<rscale>  4 0.54297955E+03</rscale>
<asrwt>0</asrwt>
<pdfrwt beam="1">  1       21 0.45189625E-01 0.54297955E+03</pdfrwt>
<pdfrwt beam="2">  1       -1 0.44242686E-01 0.54297955E+03</pdfrwt>
<totfact> 0.20833900E+03</totfact>
</mgrwt>
</event>
<event>
 5    0  0.2396052E+000  0.3289226E+03  0.7546771E-02  0.1071615E+00
         21   -1    0    0  501  502  0.00000000000E+00  0.00000000000E+00  0.41088685877E+02  0.41088685877E+02  0.00000000000E+00 0. -1.
          1   -1    0    0  503    0 -0.00000000000E+00 -0.00000000000E+00 -0.27731431905E+04  0.27731431905E+04  0.00000000000E+00 0. -1.
         25    1    1    2    0    0  0.21462520966E+03 -0.60715948232E+02 -0.43173171654E+03  0.50176456836E+03  0.12500000000E+03 0.  0.
         21    1    1    2  503  502 -0.24754664569E+02 -0.18512345244E+02 -0.28695996024E+03  0.28862002551E+03  0.00000000000E+00 0.  1.
          1    1    1    2  501    0 -0.18987054509E+03  0.79228293476E+02 -0.20133628278E+04  0.20238472825E+04  0.00000000000E+00 0. -1.
<mgrwt>
<rscale>  4 0.32892260E+03</rscale>
<asrwt>0</asrwt>
<pdfrwt beam="1">  1       21 0.63213341E-02 0.32892260E+03</pdfrwt>
<pdfrwt beam="2">  1        1 0.42663756E+00 0.32892260E+03</pdfrwt>
<totfact> 0.20338637E+03</totfact>
</mgrwt>
</event>
<event>
 5    0  0.2396052E+000  0.4866549E+03  0.7546771E-02  0.1017322E+00
         -4   -1    0    0    0  501 -0.00000000000E+00  0.00000000000E+00  0.12386491996E+04  0.12386491996E+04  0.00000000000E+00 0.  1.
         21   -1    0    0  501  502  0.00000000000E+00 -0.00000000000E+00 -0.15310241025E+03  0.15310241025E+03  0.00000000000E+00 0. -1.
         25    1    1    2    0    0 -0.25036605135E+03  0.11579426301E+01  0.12992117278E+03  0.30852716515E+03  0.12500000000E+03 0.  0.
         21    1    1    2  503  502  0.20416747887E+03  0.32114989169E+02  0.10707807997E+03  0.23276908551E+03  0.00000000000E+00 0. -1.
         -4    1    1    2    0  503  0.46198572483E+02 -0.33272931800E+02  0.84854753662E+03  0.85045535920E+03  0.00000000000E+00 0.  1.
<mgrwt>
<rscale>  4 0.48665489E+03</rscale>
<asrwt>0</asrwt>
<pdfrwt beam="1">  1       21 0.23554218E-01 0.48665489E+03</pdfrwt>
<pdfrwt beam="2">  1       -4 0.19056141E+00 0.48665489E+03</pdfrwt>
<totfact> 0.11278795E+02</totfact>
</mgrwt>
</event>
<event>
 5    0  0.2396052E+000  0.5814797E+03  0.7546771E-02  0.9944593E-01
         21   -1    0    0  501  502  0.00000000000E+00  0.00000000000E+00  0.47172369844E+02  0.47172369844E+02  0.00000000000E+00 0.  1.
          1   -1    0    0  503    0 -0.00000000000E+00 -0.00000000000E+00 -0.23491085348E+04  0.23491085348E+04  0.00000000000E+00 0.  1.
         25    1    1    2    0    0  0.15766354528E+03 -0.24665446522E+03 -0.85929284785E+03  0.91635441675E+03  0.12500000000E+03 0.  0.
         21    1    1    2  503  502 -0.15881818260E+03  0.20352011904E+03 -0.92083595534E+03  0.95633807340E+03  0.00000000000E+00 0.  1.
          1    1    1    2  501    0  0.11546373200E+01  0.43134346178E+02 -0.52180736177E+03  0.52358841450E+03  0.00000000000E+00 0.  1.
<mgrwt>
<rscale>  4 0.58147967E+03</rscale>
<asrwt>0</asrwt>
<pdfrwt beam="1">  1       21 0.72572878E-02 0.58147967E+03</pdfrwt>
<pdfrwt beam="2">  1        1 0.36140131E+00 0.58147967E+03</pdfrwt>
<totfact> 0.29023846E+03</totfact>
</mgrwt>
</event>
<event>
 5    0  0.2396052E+000  0.5728910E+03  0.7546771E-02  0.9963302E-01
          2   -1    0    0  503    0 -0.00000000000E+00  0.00000000000E+00  0.24629219734E+04  0.24629219734E+04  0.00000000000E+00 0. -1.
         21   -1    0    0  501  502  0.00000000000E+00 -0.00000000000E+00 -0.83867690653E+02  0.83867690653E+02  0.00000000000E+00 0.  1.
         25    1    1    2    0    0 -0.14336631559E+03  0.14000851805E+03  0.21215269344E+03  0.31747448859E+03  0.12500000000E+03 0.  0.
         21    1    1    2  503  502 -0.91042806660E+02 -0.24119094445E+03  0.86434902420E+03  0.90197621918E+03  0.00000000000E+00 0. -1.
          2    1    1    2  501    0  0.23440912225E+03  0.10118242640E+03  0.13025525651E+04  0.13273389562E+04  0.00000000000E+00 0. -1.
<mgrwt>
<rscale>  4 0.57289098E+03</rscale>
<asrwt>0</asrwt>
<pdfrwt beam="1">  1       21 0.12902724E-01 0.57289098E+03</pdfrwt>
<pdfrwt beam="2">  1        2 0.37891102E+00 0.57289098E+03</pdfrwt>
<totfact> 0.24769800E+03</totfact>
</mgrwt>
</event>
<event>
 5    0  0.2396052E+000  0.5327830E+03  0.7546771E-02  0.1005559E+00
          1   -1    0    0  503    0 -0.00000000000E+00  0.00000000000E+00  0.14898686689E+04  0.14898686689E+04  0.00000000000E+00 0. -1.
         21   -1    0    0  501  502  0.00000000000E+00 -0.00000000000E+00 -0.42355588148E+03  0.42355588148E+03  0.00000000000E+00 0. -1.
         25    1    1    2    0    0  0.22390099281E+03 -0.61463556786E+02 -0.61399505265E+02  0.27074771032E+03  0.12500000000E+03 0.  0.
         21    1    1    2  503  502 -0.24459040089E+03  0.70302569469E+02 -0.19447836074E+03  0.32029478340E+03  0.00000000000E+00 0. -1.
          1    1    1    2  501    0  0.20689408075E+02 -0.88390126822E+01  0.13221906534E+04  0.13223820566E+04  0.00000000000E+00 0. -1.
<mgrwt>
<rscale>  4 0.53278302E+03</rscale>
<asrwt>0</asrwt>
<pdfrwt beam="1">  1       21 0.65162444E-01 0.53278302E+03</pdfrwt>
<pdfrwt beam="2">  1        1 0.22921056E+00 0.53278302E+03</pdfrwt>
<totfact> 0.15180420E+02</totfact>
</mgrwt>
</event>
<event>
 5    0  0.2396052E+000  0.9167195E+03  0.7546771E-02  0.9404919E-01
         21   -1    0    0  501  502  0.00000000000E+00  0.00000000000E+00  0.16849840114E+03  0.16849840114E+03  0.00000000000E+00 0. -1.
          2   -1    0    0  503    0 -0.00000000000E+00 -0.00000000000E+00 -0.21043463193E+04  0.21043463193E+04  0.00000000000E+00 0.  1.
         25    1    1    2    0    0 -0.23133757336E+01 -0.22552879363E+03  0.49113285563E+02  0.26249895863E+03  0.12500000000E+03 0.  0.
         21    1    1    2  503  502  0.37836007733E+02  0.23412421788E+03 -0.11307623356E+04  0.11553653849E+04  0.00000000000E+00 0.  1.
          2    1    1    2  501    0 -0.35522632000E+02 -0.85954242507E+01 -0.85419886814E+03  0.85498037699E+03  0.00000000000E+00 0.  1.
<mgrwt>
<rscale>  4 0.91671949E+03</rscale>
<asrwt>0</asrwt>
<pdfrwt beam="1">  1       21 0.25922829E-01 0.91671949E+03</pdfrwt>
<pdfrwt beam="2">  1        2 0.32374561E+00 0.91671949E+03</pdfrwt>
<totfact> 0.97644163E+02</totfact>
</mgrwt>
</event>
<event>
 5    0  0.2396052E+000  0.9623316E+03  0.7546771E-02  0.9350852E-01
         -3   -1    0    0    0  501 -0.00000000000E+00  0.00000000000E+00  0.44414474912E+03  0.44414474912E+03  0.00000000000E+00 0. -1.
         21   -1    0    0  501  502  0.00000000000E+00 -0.00000000000E+00 -0.18883498563E+04  0.18883498563E+04  0.00000000000E+00 0.  1.
         25    1    1    2    0    0 -0.41937170722E+03  0.94998273033E+02 -0.50440118813E+03  0.67449452131E+03  0.12500000000E+03 0.  0.
         21    1    1    2  503  502  0.44226245714E+03 -0.20548077178E+02 -0.12563151551E+04  0.13320458226E+04  0.00000000000E+00 0.  1.
         -3    1    1    2    0  503 -0.22890749927E+02 -0.74450195855E+02  0.31651123603E+03  0.32595426156E+03  0.00000000000E+00 0. -1.
<mgrwt>
<rscale>  4 0.96233160E+03</rscale>
<asrwt>0</asrwt>
<pdfrwt beam="1">  1       21 0.29051535E+00 0.96233160E+03</pdfrwt>
<pdfrwt beam="2">  1       -3 0.68329963E-01 0.96233160E+03</pdfrwt>
<totfact> 0.28507221E+00</totfact>
</mgrwt>
</event>
<event>
 5    0  0.2396052E+000  0.5637586E+03  0.7546771E-02  0.9983586E-01
          2   -1    0    0  503    0 -0.00000000000E+00  0.00000000000E+00  0.79351014670E+03  0.79351014670E+03  0.00000000000E+00 0. -1.
         21   -1    0    0  501  502  0.00000000000E+00 -0.00000000000E+00 -0.14965674740E+03  0.14965674740E+03  0.00000000000E+00 0.  1.
         25    1    1    2    0    0  0.20454152951E+03 -0.38324082624E+02  0.34454712566E+03  0.42147798804E+03  0.12500000000E+03 0.  0.
         21    1    1    2  503  502 -0.25612733630E+03  0.55025548796E+02  0.50184867609E+02  0.26673497026E+03  0.00000000000E+00 0.  1.
          2    1    1    2  501    0  0.51585806792E+02 -0.16701466172E+02  0.24912140604E+03  0.25495393580E+03  0.00000000000E+00 0. -1.
<mgrwt>
<rscale>  4 0.56375857E+03</rscale>
<asrwt>0</asrwt>
<pdfrwt beam="1">  1       21 0.23024116E-01 0.56375857E+03</pdfrwt>
<pdfrwt beam="2">  1        2 0.12207848E+00 0.56375857E+03</pdfrwt>
<totfact> 0.74950763E+03</totfact>
</mgrwt>
</event>
<event>
 5    0  0.2396052E+000  0.4836238E+03  0.7546771E-02  0.1018144E+00
         21   -1    0    0  501  502  0.00000000000E+00  0.00000000000E+00  0.16552536601E+04  0.16552536601E+04  0.00000000000E+00 0.  1.
         -1   -1    0    0    0  501 -0.00000000000E+00 -0.00000000000E+00 -0.67790855714E+02  0.67790855714E+02  0.00000000000E+00 0. -1.
         25    1    1    2    0    0  0.14260034020E+02  0.21997898111E+03  0.93853332893E+03  0.97214397607E+03  0.12500000000E+03 0.  0.
         21    1    1    2  503  502  0.10635651155E+03 -0.19443204216E+03  0.54951018052E+03  0.59251748080E+03  0.00000000000E+00 0. -1.
         -1    1    1    2    0  503 -0.12061654557E+03 -0.25546938958E+02  0.99419294977E+02  0.15838305897E+03  0.00000000000E+00 0. -1.
<mgrwt>
<rscale>  4 0.48362381E+03</rscale>
<asrwt>0</asrwt>
<pdfrwt beam="1">  1       21 0.25465438E+00 0.48362381E+03</pdfrwt>
<pdfrwt beam="2">  1       -1 0.10429364E-01 0.48362381E+03</pdfrwt>
<totfact> 0.27489558E+02</totfact>
</mgrwt>
</event>
<event>
 5    0  0.2396052E+000  0.5421708E+03  0.7546771E-02  0.1003322E+00
         -4   -1    0    0    0  501 -0.00000000000E+00  0.00000000000E+00  0.18555175728E+03  0.18555175728E+03  0.00000000000E+00 0. -1.
         21   -1    0    0  501  502  0.00000000000E+00 -0.00000000000E+00 -0.59696425924E+03  0.59696425924E+03  0.00000000000E+00 0. -1.
         25    1    1    2    0    0  0.22715569420E+03 -0.84139769669E+02 -0.18361466821E+03  0.32866176630E+03  0.12500000000E+03 0.  0.
         21    1    1    2  503  502 -0.25954531909E+03  0.48166124184E+02 -0.27851971339E+03  0.38374077047E+03  0.00000000000E+00 0.  1.
         -4    1    1    2    0  503  0.32389624889E+02  0.35973645485E+02  0.50721879626E+02  0.70113479751E+02  0.00000000000E+00 0. -1.
<mgrwt>
<rscale>  4 0.54217081E+03</rscale>
<asrwt>0</asrwt>
<pdfrwt beam="1">  1       21 0.91840654E-01 0.54217081E+03</pdfrwt>
<pdfrwt beam="2">  1       -4 0.28546425E-01 0.54217081E+03</pdfrwt>
<totfact> 0.47569408E+02</totfact>
</mgrwt>
</event>
<event>
 5    0  0.2396052E+000  0.6408347E+03  0.7546771E-02  0.9824131E-01
          4   -1    0    0  503    0 -0.00000000000E+00  0.00000000000E+00  0.35240029374E+03  0.35240029374E+03  0.00000000000E+00 0. -1.
         21   -1    0    0  501  502  0.00000000000E+00 -0.00000000000E+00 -0.72935823802E+03  0.72935823802E+03  0.00000000000E+00 0. -1.
         25    1    1    2    0    0  0.18671891206E+03 -0.15771119207E+03 -0.28236573149E+03  0.39381744317E+03  0.12500000000E+03 0.  0.
         21    1    1    2  503  502 -0.25805227886E+03  0.25632992282E+03 -0.28491278620E+03  0.46202954851E+03  0.00000000000E+00 0. -1.
          4    1    1    2  501    0  0.71333366802E+02 -0.98618730747E+02  0.19032057341E+03  0.22591154007E+03  0.00000000000E+00 0. -1.
<mgrwt>
<rscale>  4 0.64083473E+03</rscale>
<asrwt>0</asrwt>
<pdfrwt beam="1">  1       21 0.11220896E+00 0.64083473E+03</pdfrwt>
<pdfrwt beam="2">  1        4 0.54215430E-01 0.64083473E+03</pdfrwt>
<totfact> 0.78852687E+01</totfact>
</mgrwt>
</event>
<event>
 5    0  0.2396052E+000  0.6230825E+03  0.7546771E-02  0.9858642E-01
          2   -1    0    0  503    0 -0.00000000000E+00  0.00000000000E+00  0.99250009713E+03  0.99250009713E+03  0.00000000000E+00 0.  1.
         21   -1    0    0  501  502  0.00000000000E+00 -0.00000000000E+00 -0.26480519233E+03  0.26480519233E+03  0.00000000000E+00 0.  1.
         25    1    1    2    0    0  0.54889226177E+01 -0.22999953579E+03  0.27711248932E+03  0.38124302809E+03  0.12500000000E+03 0.  0.
         21    1    1    2  503  502 -0.19949979419E+02  0.18024382431E+03 -0.17282330532E+03  0.25050695149E+03  0.00000000000E+00 0.  1.
          2    1    1    2  501    0  0.14461056801E+02  0.49755711475E+02  0.62340572081E+03  0.62555530988E+03  0.00000000000E+00 0.  1.
<mgrwt>
<rscale>  4 0.62308250E+03</rscale>
<asrwt>0</asrwt>
<pdfrwt beam="1">  1       21 0.40739261E-01 0.62308250E+03</pdfrwt>
<pdfrwt beam="2">  1        2 0.15269232E+00 0.62308250E+03</pdfrwt>
<totfact> 0.17403585E+03</totfact>
</mgrwt>
</event>
<event>
 5    0  0.2396052E+000  0.6013665E+03  0.7546771E-02  0.9902575E-01
          2   -1    0    0  503    0 -0.00000000000E+00  0.00000000000E+00  0.16179596058E+04  0.16179596058E+04  0.00000000000E+00 0. -1.
         21   -1    0    0  501  502  0.00000000000E+00 -0.00000000000E+00 -0.27928050609E+03  0.27928050609E+03  0.00000000000E+00 0. -1.
         25    1    1    2    0    0  0.25369339067E+03  0.12846969773E+03  0.11788681892E+03  0.33224554441E+03  0.12500000000E+03 0.  0.
         21    1    1    2  503  502 -0.22663490760E+03 -0.12888616312E+03 -0.73135581480E+02  0.27078374705E+03  0.00000000000E+00 0. -1.
          2    1    1    2  501    0 -0.27058483062E+02  0.41646539086E+00  0.12939278623E+04  0.12942108205E+04  0.00000000000E+00 0. -1.
<mgrwt>
<rscale>  4 0.60136649E+03</rscale>
<asrwt>0</asrwt>
<pdfrwt beam="1">  1       21 0.42966233E-01 0.60136649E+03</pdfrwt>
<pdfrwt beam="2">  1        2 0.24891686E+00 0.60136649E+03</pdfrwt>
<totfact> 0.67996329E+02</totfact>
</mgrwt>
</event>
<event>
 5    0  0.2396052E+000  0.4926929E+03  0.7546771E-02  0.1015704E+00
          1   -1    0    0  503    0 -0.00000000000E+00  0.00000000000E+00  0.77229522476E+03  0.77229522476E+03  0.00000000000E+00 0.  1.
         21   -1    0    0  501  502  0.00000000000E+00 -0.00000000000E+00 -0.67445976028E+03  0.67445976028E+03  0.00000000000E+00 0. -1.
         25    1    1    2    0    0  0.20570923370E+03 -0.40288386498E+02 -0.17975409534E+03  0.30311050412E+03  0.12500000000E+03 0.  0.
         21    1    1    2  503  502 -0.20391125914E+03  0.86787487151E+02 -0.40382809993E+03  0.46063977664E+03  0.00000000000E+00 0. -1.
          1    1    1    2  501    0 -0.17979745632E+01 -0.46499100653E+02  0.68141765975E+03  0.68300470429E+03  0.00000000000E+00 0.  1.
<mgrwt>
<rscale>  4 0.49269292E+03</rscale>
<asrwt>0</asrwt>
<pdfrwt beam="1">  1       21 0.10376304E+00 0.49269292E+03</pdfrwt>
<pdfrwt beam="2">  1        1 0.11881465E+00 0.49269292E+03</pdfrwt>
<totfact> 0.17738124E+02</totfact>
</mgrwt>
</event>
<event>
 5    0  0.2396052E+000  0.4207678E+03  0.7546771E-02  0.1036817E+00
         21   -1    0    0  501  502  0.00000000000E+00  0.00000000000E+00  0.18639029829E+03  0.18639029829E+03  0.00000000000E+00 0. -1.
          2   -1    0    0  503    0 -0.00000000000E+00 -0.00000000000E+00 -0.42986072147E+03  0.42986072147E+03  0.00000000000E+00 0. -1.
         25    1    1    2    0    0 -0.10739968010E+03 -0.17272926265E+03 -0.10304940885E+03  0.26002744110E+03  0.12500000000E+03 0.  0.
         21    1    1    2  503  502  0.65437093501E+02  0.14469369335E+03  0.44192074903E+02  0.16483694241E+03  0.00000000000E+00 0. -1.
          2    1    1    2  501    0  0.41962586594E+02  0.28035569301E+02 -0.18461308923E+03  0.19138663625E+03  0.00000000000E+00 0. -1.
<mgrwt>
<rscale>  4 0.42076782E+03</rscale>
<asrwt>0</asrwt>
<pdfrwt beam="1">  1       21 0.28675430E-01 0.42076782E+03</pdfrwt>
<pdfrwt beam="2">  1        2 0.66132419E-01 0.42076782E+03</pdfrwt>
<totfact> 0.10311726E+04</totfact>
</mgrwt>
</event>
<event>
 5    0  0.2396052E+000  0.7878403E+03  0.7546771E-02  0.9577786E-01
          1   -1    0    0  503    0 -0.00000000000E+00  0.00000000000E+00  0.13441739692E+04  0.13441739692E+04  0.00000000000E+00 0. -1.
         21   -1    0    0  501  502  0.00000000000E+00 -0.00000000000E+00 -0.18690138295E+03  0.18690138295E+03  0.00000000000E+00 0. -1.
         25    1    1    2    0    0 -0.35119926112E+03  0.14684999578E+03  0.53246213619E+03  0.66636834314E+03  0.12500000000E+03 0.  0.
         21    1    1    2  503  502  0.27914480404E+03 -0.19280697764E+03  0.13118619413E+03  0.36373915074E+03  0.00000000000E+00 0. -1.
          1    1    1    2  501    0  0.72054457079E+02  0.45956981866E+02  0.49362425589E+03  0.50096785822E+03  0.00000000000E+00 0. -1.
<mgrwt>
<rscale>  4 0.78784030E+03</rscale>
<asrwt>0</asrwt>
<pdfrwt beam="1">  1       21 0.28754060E-01 0.78784030E+03</pdfrwt>
<pdfrwt beam="2">  1        1 0.20679599E+00 0.78784030E+03</pdfrwt>
<totfact> 0.10159922E+03</totfact>
</mgrwt>
</event>
<event>
 5    0  0.2396052E+000  0.6193624E+03  0.7546771E-02  0.9866030E-01
         21   -1    0    0  501  502  0.00000000000E+00  0.00000000000E+00  0.75781478325E+03  0.75781478325E+03  0.00000000000E+00 0. -1.
          2   -1    0    0  503    0 -0.00000000000E+00 -0.00000000000E+00 -0.46919498652E+03  0.46919498652E+03  0.00000000000E+00 0. -1.
         25    1    1    2    0    0  0.16807198564E+03  0.15947637901E+03  0.51768750100E+02  0.26830190328E+03  0.12500000000E+03 0.  0.
         21    1    1    2  503  502 -0.17969096579E+03 -0.10978153633E+03  0.57727416432E+03  0.61448050392E+03  0.00000000000E+00 0. -1.
          2    1    1    2  501    0  0.11618980155E+02 -0.49694842678E+02 -0.34042311769E+03  0.34422736257E+03  0.00000000000E+00 0. -1.
<mgrwt>
<rscale>  4 0.61936241E+03</rscale>
<asrwt>0</asrwt>
<pdfrwt beam="1">  1       21 0.11658689E+00 0.61936241E+03</pdfrwt>
<pdfrwt beam="2">  1        2 0.72183844E-01 0.61936241E+03</pdfrwt>
<totfact> 0.40882867E+02</totfact>
</mgrwt>
</event>
<event>
 5    0  0.2396052E+000  0.5490955E+03  0.7546771E-02  0.1001703E+00
         21   -1    0    0  501  502  0.00000000000E+00  0.00000000000E+00  0.33333444573E+03  0.33333444573E+03  0.00000000000E+00 0.  1.
          4   -1    0    0  503    0 -0.00000000000E+00 -0.00000000000E+00 -0.54799150143E+03  0.54799150143E+03  0.00000000000E+00 0.  1.
         25    1    1    2    0    0  0.11558886247E+02  0.22934111277E+03 -0.27416134358E+03  0.37884085864E+03  0.12500000000E+03 0.  0.
         21    1    1    2  503  502  0.33265690520E+02  0.71238767426E+02  0.16338445707E+03  0.18131753628E+03  0.00000000000E+00 0.  1.
          4    1    1    2  501    0 -0.44824576766E+02 -0.30057988020E+03 -0.10388016919E+03  0.32116755224E+03  0.00000000000E+00 0.  1.
<mgrwt>
<rscale>  4 0.54909554E+03</rscale>
<asrwt>0</asrwt>
<pdfrwt beam="1">  1       21 0.51282222E-01 0.54909554E+03</pdfrwt>
<pdfrwt beam="2">  1        4 0.84306385E-01 0.54909554E+03</pdfrwt>
<totfact> 0.18362400E+02</totfact>
</mgrwt>
</event>
<event>
 5    0  0.2396052E+000  0.5146955E+03  0.7546771E-02  0.1010013E+00
         21   -1    0    0  501  502  0.00000000000E+00  0.00000000000E+00  0.26183107191E+03  0.26183107191E+03  0.00000000000E+00 0.  1.
          2   -1    0    0  503    0 -0.00000000000E+00 -0.00000000000E+00 -0.53563545881E+03  0.53563545881E+03  0.00000000000E+00 0.  1.
         25    1    1    2    0    0  0.51085595953E+02  0.23506496776E+03 -0.77667189347E+02  0.28199728630E+03  0.12500000000E+03 0.  0.
         21    1    1    2  503  502 -0.51801492630E+02 -0.21020489433E+03  0.85478472124E+02  0.23275751639E+03  0.00000000000E+00 0.  1.
          2    1    1    2  501    0  0.71589667637E+00 -0.24860073430E+02 -0.28161566968E+03  0.28271172803E+03  0.00000000000E+00 0.  1.
<mgrwt>
<rscale>  4 0.51469553E+03</rscale>
<asrwt>0</asrwt>
<pdfrwt beam="1">  1       21 0.40281704E-01 0.51469553E+03</pdfrwt>
<pdfrwt beam="2">  1        2 0.82405454E-01 0.51469553E+03</pdfrwt>
<totfact> 0.39924280E+03</totfact>
</mgrwt>
</event>
<event>
 5    0  0.2396052E+000  0.5194426E+03  0.7546771E-02  0.1008825E+00
          2   -1    0    0  503    0 -0.00000000000E+00  0.00000000000E+00  0.14435342288E+04  0.14435342288E+04  0.00000000000E+00 0.  1.
         21   -1    0    0  501  502  0.00000000000E+00 -0.00000000000E+00 -0.63033384832E+02  0.63033384832E+02  0.00000000000E+00 0.  1.
         25    1    1    2    0    0 -0.24204589120E+03 -0.84062955559E+00  0.43560368422E+03  0.51377279979E+03  0.12500000000E+03 0.  0.
         21    1    1    2  503  502  0.23475506943E+03 -0.34671886917E+02  0.58826399608E+03  0.63432374341E+03  0.00000000000E+00 0.  1.
          2    1    1    2  501    0  0.72908217697E+01  0.35512516473E+02  0.35663316366E+03  0.35847107042E+03  0.00000000000E+00 0.  1.
<mgrwt>
<rscale>  4 0.51944263E+03</rscale>
<asrwt>0</asrwt>
<pdfrwt beam="1">  1       21 0.96974449E-02 0.51944263E+03</pdfrwt>
<pdfrwt beam="2">  1        2 0.22208216E+00 0.51944263E+03</pdfrwt>
<totfact> 0.15112947E+04</totfact>
</mgrwt>
</event>
<event>
 5    0  0.2396052E+000  0.6180184E+03  0.7546771E-02  0.9868713E-01
          1   -1    0    0  503    0 -0.00000000000E+00  0.00000000000E+00  0.14022176186E+04  0.14022176186E+04  0.00000000000E+00 0. -1.
         21   -1    0    0  501  502  0.00000000000E+00 -0.00000000000E+00 -0.51215702620E+03  0.51215702620E+03  0.00000000000E+00 0.  1.
         25    1    1    2    0    0  0.20798696263E+03  0.74601176221E+02 -0.42005684833E+03  0.49081225326E+03  0.12500000000E+03 0.  0.
         21    1    1    2  503  502 -0.15291062749E+03 -0.10239036922E+03  0.95408161197E+02  0.20728763815E+03  0.00000000000E+00 0. -1.
          1    1    1    2  501    0 -0.55076335145E+02  0.27789192996E+02  0.12147092796E+04  0.12162747534E+04  0.00000000000E+00 0. -1.
<mgrwt>
<rscale>  4 0.61801836E+03</rscale>
<asrwt>0</asrwt>
<pdfrwt beam="1">  1       21 0.78793389E-01 0.61801836E+03</pdfrwt>
<pdfrwt beam="2">  1        1 0.21572579E+00 0.61801836E+03</pdfrwt>
<totfact> 0.11051560E+02</totfact>
</mgrwt>
</event>
<event>
 5    0  0.2396052E+000  0.4296966E+03  0.7546771E-02  0.1033956E+00
          2   -1    0    0  503    0 -0.00000000000E+00  0.00000000000E+00  0.70994623026E+03  0.70994623026E+03  0.00000000000E+00 0. -1.
         21   -1    0    0  501  502  0.00000000000E+00 -0.00000000000E+00 -0.20103558628E+03  0.20103558628E+03  0.00000000000E+00 0. -1.
         25    1    1    2    0    0 -0.16076532514E+03  0.12823252013E+03  0.33849995419E+02  0.24302240879E+03  0.12500000000E+03 0.  0.
         21    1    1    2  503  502  0.18577693322E+03 -0.31520524107E+02  0.61562353504E+01  0.18853252131E+03  0.00000000000E+00 0. -1.
          2    1    1    2  501    0 -0.25011608083E+02 -0.96711996021E+02  0.46890441321E+03  0.47942688644E+03  0.00000000000E+00 0. -1.
<mgrwt>
<rscale>  4 0.42969659E+03</rscale>
<asrwt>0</asrwt>
<pdfrwt beam="1">  1       21 0.30928552E-01 0.42969659E+03</pdfrwt>
<pdfrwt beam="2">  1        2 0.10922250E+00 0.42969659E+03</pdfrwt>
<totfact> 0.49292338E+03</totfact>
</mgrwt>
</event>
<event>
 5    0  0.2396052E+000  0.4895391E+03  0.7546771E-02  0.1016546E+00
         21   -1    0    0  501  502  0.00000000000E+00  0.00000000000E+00  0.12237562815E+03  0.12237562815E+03  0.00000000000E+00 0. -1.
         -1   -1    0    0    0  501 -0.00000000000E+00 -0.00000000000E+00 -0.59337933382E+03  0.59337933382E+03  0.00000000000E+00 0. -1.
         25    1    1    2    0    0  0.10635105872E+03 -0.21568797419E+03 -0.19607622265E+03  0.33451866164E+03  0.12500000000E+03 0.  0.
         21    1    1    2  503  502 -0.10336390669E+03  0.19213426072E+03 -0.17838462421E+03  0.28181686519E+03  0.00000000000E+00 0. -1.
         -1    1    1    2    0  503 -0.29871520266E+01  0.23553713472E+02 -0.96542858820E+02  0.99419435146E+02  0.00000000000E+00 0. -1.
<mgrwt>
<rscale>  4 0.48953913E+03</rscale>
<asrwt>0</asrwt>
<pdfrwt beam="1">  1       21 0.18827020E-01 0.48953913E+03</pdfrwt>
<pdfrwt beam="2">  1       -1 0.91289128E-01 0.48953913E+03</pdfrwt>
<totfact> 0.28264959E+03</totfact>
</mgrwt>
</event>
<event>
 5    0  0.2396052E+000  0.4542397E+03  0.7546771E-02  0.1026465E+00
          2   -1    0    0  503    0 -0.00000000000E+00  0.00000000000E+00  0.22565726590E+04  0.22565726590E+04  0.00000000000E+00 0. -1.
         21   -1    0    0  501  502  0.00000000000E+00 -0.00000000000E+00 -0.16773251641E+03  0.16773251641E+03  0.00000000000E+00 0. -1.
         25    1    1    2    0    0  0.20054576077E+03 -0.11012857337E+02  0.18723788804E+02  0.23730879768E+03  0.12500000000E+03 0.  0.
         21    1    1    2  503  502 -0.16850614831E+03  0.11455105368E+03  0.12537806533E+03  0.23924030844E+03  0.00000000000E+00 0. -1.
          2    1    1    2  501    0 -0.32039612466E+02 -0.10353819635E+03  0.19447382884E+04  0.19477560693E+04  0.00000000000E+00 0. -1.
<mgrwt>
<rscale>  4 0.45423970E+03</rscale>
<asrwt>0</asrwt>
<pdfrwt beam="1">  1       21 0.25805004E-01 0.45423970E+03</pdfrwt>
<pdfrwt beam="2">  1        2 0.34716500E+00 0.45423970E+03</pdfrwt>
<totfact> 0.89290915E+02</totfact>
</mgrwt>
</event>
<event>
 5    0  0.2396052E+000  0.5162716E+03  0.7546771E-02  0.1009617E+00
          2   -1    0    0  503    0 -0.00000000000E+00  0.00000000000E+00  0.18128722805E+04  0.18128722805E+04  0.00000000000E+00 0. -1.
         21   -1    0    0  501  502  0.00000000000E+00 -0.00000000000E+00 -0.35898685147E+03  0.35898685147E+03  0.00000000000E+00 0. -1.
         25    1    1    2    0    0  0.11200680003E+02  0.20818621375E+03 -0.12350547875E+03  0.27266381884E+03  0.12500000000E+03 0.  0.
         21    1    1    2  503  502 -0.16420259262E+02 -0.26671325951E+03 -0.49059013129E+02  0.27168432874E+03  0.00000000000E+00 0. -1.
          2    1    1    2  501    0  0.52195792595E+01  0.58527045765E+02  0.16264499209E+04  0.16275109844E+04  0.00000000000E+00 0. -1.
<mgrwt>
<rscale>  4 0.51627164E+03</rscale>
<asrwt>0</asrwt>
<pdfrwt beam="1">  1       21 0.55228747E-01 0.51627164E+03</pdfrwt>
<pdfrwt beam="2">  1        2 0.27890342E+00 0.51627164E+03</pdfrwt>
<totfact> 0.31922559E+02</totfact>
</mgrwt>
</event>
<event>
 5    0  0.2396052E+000  0.6175458E+03  0.7546771E-02  0.9869658E-01
         21   -1    0    0  501  502  0.00000000000E+00  0.00000000000E+00  0.88618123017E+02  0.88618123017E+02  0.00000000000E+00 0.  1.
          2   -1    0    0  503    0 -0.00000000000E+00 -0.00000000000E+00 -0.15860112740E+04  0.15860112740E+04  0.00000000000E+00 0.  1.
         25    1    1    2    0    0  0.15618535751E+03 -0.16829386624E+03 -0.51109378405E+03  0.57407190090E+03  0.12500000000E+03 0.  0.
         21    1    1    2  503  502 -0.22100002776E+03  0.27774412714E+03 -0.79732760569E+03  0.87276235209E+03  0.00000000000E+00 0.  1.
          2    1    1    2  501    0  0.64814670254E+02 -0.10945026090E+03 -0.18897176123E+03  0.22779514400E+03  0.00000000000E+00 0.  1.
<mgrwt>
<rscale>  4 0.61754581E+03</rscale>
<asrwt>0</asrwt>
<pdfrwt beam="1">  1       21 0.13633558E-01 0.61754581E+03</pdfrwt>
<pdfrwt beam="2">  1        2 0.24400173E+00 0.61754581E+03</pdfrwt>
<totfact> 0.66856585E+03</totfact>
</mgrwt>
</event>
<event>
 5    0  0.2396052E+000  0.4556754E+03  0.7546771E-02  0.1026043E+00
          2   -1    0    0  503    0 -0.00000000000E+00  0.00000000000E+00  0.21532960327E+04  0.21532960327E+04  0.00000000000E+00 0. -1.
         21   -1    0    0  501  502  0.00000000000E+00 -0.00000000000E+00 -0.16251809238E+03  0.16251809238E+03  0.00000000000E+00 0. -1.
         25    1    1    2    0    0 -0.12124518410E+03 -0.16134310232E+03  0.19807099121E+03  0.30917488399E+03  0.12500000000E+03 0.  0.
         21    1    1    2  503  502  0.92743052036E+02  0.14016504099E+03 -0.40668199419E+02  0.17292025579E+03  0.00000000000E+00 0. -1.
          2    1    1    2  501    0  0.28502132066E+02  0.21178061324E+02  0.18333751486E+04  0.18337189853E+04  0.00000000000E+00 0. -1.
<mgrwt>
<rscale>  4 0.45567542E+03</rscale>
<asrwt>0</asrwt>
<pdfrwt beam="1">  1       21 0.25002785E-01 0.45567542E+03</pdfrwt>
<pdfrwt beam="2">  1        2 0.33127629E+00 0.45567542E+03</pdfrwt>
<totfact> 0.10798803E+03</totfact>
</mgrwt>
</event>
<event>
 5    0  0.2396052E+000  0.1216664E+04  0.7546771E-02  0.9098395E-01
         21   -1    0    0  501  502  0.00000000000E+00  0.00000000000E+00  0.39717770494E+03  0.39717770494E+03  0.00000000000E+00 0. -1.
          2   -1    0    0  503    0 -0.00000000000E+00 -0.00000000000E+00 -0.21157240664E+04  0.21157240664E+04  0.00000000000E+00 0. -1.
         25    1    1    2    0    0  0.29192316324E+03 -0.13746823820E+03 -0.84565800978E+03  0.91371719873E+03  0.12500000000E+03 0.  0.
         21    1    1    2  503  502 -0.23623119680E+03  0.14828126168E+03  0.30881279097E+03  0.41612239879E+03  0.00000000000E+00 0. -1.
          2    1    1    2  501    0 -0.55691966432E+02 -0.10813023479E+02 -0.11817011426E+04  0.11830621738E+04  0.00000000000E+00 0. -1.
<mgrwt>
<rscale>  4 0.12166637E+04</rscale>
<asrwt>0</asrwt>
<pdfrwt beam="1">  1       21 0.61104263E-01 0.12166637E+04</pdfrwt>
<pdfrwt beam="2">  1        2 0.32549601E+00 0.12166637E+04</pdfrwt>
<totfact> 0.15263543E+02</totfact>
</mgrwt>
</event>
<event>
 5    0  0.2396052E+000  0.5534755E+03  0.7546771E-02  0.1000693E+00
         21   -1    0    0  501  502  0.00000000000E+00  0.00000000000E+00  0.15923918274E+04  0.15923918274E+04  0.00000000000E+00 0. -1.
          4   -1    0    0  503    0 -0.00000000000E+00 -0.00000000000E+00 -0.26579784611E+03  0.26579784611E+03  0.00000000000E+00 0. -1.
         25    1    1    2    0    0 -0.20277351255E+03 -0.10026058398E+03  0.33617446306E+03  0.42403720557E+03  0.12500000000E+03 0.  0.
         21    1    1    2  503  502  0.13727350298E+03  0.48721460578E+02  0.11998954829E+04  0.12087046642E+04  0.00000000000E+00 0. -1.
          4    1    1    2  501    0  0.65500009568E+02  0.51539123404E+02 -0.20947596461E+03  0.22544780381E+03  0.00000000000E+00 0. -1.
<mgrwt>
<rscale>  4 0.55347550E+03</rscale>
<asrwt>0</asrwt>
<pdfrwt beam="1">  1       21 0.24498335E+00 0.55347550E+03</pdfrwt>
<pdfrwt beam="2">  1        4 0.40891977E-01 0.55347550E+03</pdfrwt>
<totfact> 0.14908501E+01</totfact>
</mgrwt>
</event>
<event>
 5    0  0.2396052E+000  0.3228347E+03  0.7546771E-02  0.1074352E+00
         21   -1    0    0  501  502  0.00000000000E+00  0.00000000000E+00  0.39819334084E+02  0.39819334084E+02  0.00000000000E+00 0.  1.
          1   -1    0    0  503    0 -0.00000000000E+00 -0.00000000000E+00 -0.21393574250E+04  0.21393574250E+04  0.00000000000E+00 0.  1.
         25    1    1    2    0    0  0.13280946702E+02  0.20214629659E+03 -0.55782108920E+03  0.60648897461E+03  0.12500000000E+03 0.  0.
         21    1    1    2  503  502 -0.73228070374E+02 -0.40990189592E+02 -0.16342991765E+03  0.18371685801E+03  0.00000000000E+00 0. -1.
          1    1    1    2  501    0  0.59947123672E+02 -0.16115610700E+03 -0.13782870840E+04  0.13889709264E+04  0.00000000000E+00 0.  1.
<mgrwt>
<rscale>  4 0.32283470E+03</rscale>
<asrwt>0</asrwt>
<pdfrwt beam="1">  1       21 0.61260500E-02 0.32283470E+03</pdfrwt>
<pdfrwt beam="2">  1        1 0.32913199E+00 0.32283470E+03</pdfrwt>
<totfact> 0.57024312E+03</totfact>
</mgrwt>
</event>
<event>
 5    0  0.2396052E+000  0.3957369E+03  0.7546771E-02  0.1045266E+00
         21   -1    0    0  501  502  0.00000000000E+00  0.00000000000E+00  0.36148902425E+03  0.36148902425E+03  0.00000000000E+00 0. -1.
         -1   -1    0    0    0  501 -0.00000000000E+00 -0.00000000000E+00 -0.28803417127E+03  0.28803417127E+03  0.00000000000E+00 0. -1.
         25    1    1    2    0    0  0.28077374780E+03 -0.69609061871E+02 -0.32255605115E+02  0.31677238359E+03  0.12500000000E+03 0.  0.
         21    1    1    2  503  502 -0.38663898085E+02  0.94959298413E+01  0.70297713509E+02  0.80788849622E+02  0.00000000000E+00 0.  1.
         -1    1    1    2    0  503 -0.24210984971E+03  0.60113132030E+02  0.35412744587E+02  0.25196196231E+03  0.00000000000E+00 0. -1.
<mgrwt>
<rscale>  4 0.39573695E+03</rscale>
<asrwt>0</asrwt>
<pdfrwt beam="1">  1       21 0.55613696E-01 0.39573695E+03</pdfrwt>
<pdfrwt beam="2">  1       -1 0.44312949E-01 0.39573695E+03</pdfrwt>
<totfact> 0.13656887E+03</totfact>
</mgrwt>
</event>
<event>
 5    0  0.2396052E+000  0.7678992E+03  0.7546771E-02  0.9607680E-01
          2   -1    0    0  503    0 -0.00000000000E+00  0.00000000000E+00  0.21335541883E+04  0.21335541883E+04  0.00000000000E+00 0. -1.
         21   -1    0    0  501  502  0.00000000000E+00 -0.00000000000E+00 -0.44367212504E+03  0.44367212504E+03  0.00000000000E+00 0. -1.
         25    1    1    2    0    0 -0.19001270451E+03  0.27052762849E+03 -0.34040829124E+03  0.49070646053E+03  0.12500000000E+03 0.  0.
         21    1    1    2  503  502  0.10312353399E+03 -0.11931969307E+03  0.23642834743E+03  0.28420066130E+03  0.00000000000E+00 0.  1.
          2    1    1    2  501    0  0.86889170525E+02 -0.15120793543E+03  0.17938620071E+04  0.18023191916E+04  0.00000000000E+00 0. -1.
<mgrwt>
<rscale>  4 0.76789922E+03</rscale>
<asrwt>0</asrwt>
<pdfrwt beam="1">  1       21 0.68257251E-01 0.76789922E+03</pdfrwt>
<pdfrwt beam="2">  1        2 0.32823910E+00 0.76789922E+03</pdfrwt>
<totfact> 0.12539902E+02</totfact>
</mgrwt>
</event>
<event>
 5    0  0.2396052E+000  0.5883451E+03  0.7546771E-02  0.9929886E-01
          2   -1    0    0  503    0 -0.00000000000E+00  0.00000000000E+00  0.14491091202E+04  0.14491091202E+04  0.00000000000E+00 0.  1.
         21   -1    0    0  501  502  0.00000000000E+00 -0.00000000000E+00 -0.99892154150E+02  0.99892154150E+02  0.00000000000E+00 0. -1.
         25    1    1    2    0    0 -0.14413394787E+03 -0.19322398939E+03  0.46361200293E+03  0.53728129901E+03  0.12500000000E+03 0.  0.
         21    1    1    2  503  502  0.17560139363E+03  0.25053103249E+03  0.32137756530E+03  0.44371746321E+03  0.00000000000E+00 0. -1.
          2    1    1    2  501    0 -0.31467445755E+02 -0.57307043102E+02  0.56422739783E+03  0.56800251214E+03  0.00000000000E+00 0.  1.
<mgrwt>
<rscale>  4 0.58834509E+03</rscale>
<asrwt>0</asrwt>
<pdfrwt beam="1">  1       21 0.15368025E-01 0.58834509E+03</pdfrwt>
<pdfrwt beam="2">  1        2 0.22293985E+00 0.58834509E+03</pdfrwt>
<totfact> 0.63925434E+03</totfact>
</mgrwt>
</event>
<event>
 5    0  0.2396052E+000  0.4312277E+03  0.7546771E-02  0.1033473E+00
         -1   -1    0    0    0  501 -0.00000000000E+00  0.00000000000E+00  0.15602016917E+03  0.15602016917E+03  0.00000000000E+00 0. -1.
         21   -1    0    0  501  502  0.00000000000E+00 -0.00000000000E+00 -0.78613592442E+03  0.78613592442E+03  0.00000000000E+00 0. -1.
         25    1    1    2    0    0  0.21789007112E+03  0.11872857403E+03 -0.80870735076E+02  0.28937455517E+03  0.12500000000E+03 0.  0.
         21    1    1    2  503  502  0.13498018563E+02 -0.12016899454E+03 -0.17287207283E+03  0.21096809549E+03  0.00000000000E+00 0.  1.
         -1    1    1    2    0  503 -0.23138808969E+03  0.14404205071E+01 -0.37637294734E+03  0.44181344293E+03  0.00000000000E+00 0. -1.
<mgrwt>
<rscale>  4 0.43122773E+03</rscale>
<asrwt>0</asrwt>
<pdfrwt beam="1">  1       21 0.12094399E+00 0.43122773E+03</pdfrwt>
<pdfrwt beam="2">  1       -1 0.24003103E-01 0.43122773E+03</pdfrwt>
<totfact> 0.64796390E+02</totfact>
</mgrwt>
</event>
<event>
 5    0  0.2396052E+000  0.3599004E+03  0.7546771E-02  0.1058623E+00
          2   -1    0    0  503    0 -0.00000000000E+00  0.00000000000E+00  0.20232684681E+04  0.20232684681E+04  0.00000000000E+00 0.  1.
         21   -1    0    0  501  502  0.00000000000E+00 -0.00000000000E+00 -0.10493123408E+03  0.10493123408E+03  0.00000000000E+00 0.  1.
         25    1    1    2    0    0  0.42723528096E+01  0.22764944826E+03  0.16119352371E+03  0.30569736077E+03  0.12500000000E+03 0.  0.
         21    1    1    2  503  502 -0.16684518686E+02 -0.98499654687E+02  0.52367208450E+02  0.11279574309E+03  0.00000000000E+00 0. -1.
          2    1    1    2  501    0  0.12412165876E+02 -0.12914979358E+03  0.17047765019E+04  0.17097065984E+04  0.00000000000E+00 0.  1.
<mgrwt>
<rscale>  4 0.35990039E+03</rscale>
<asrwt>0</asrwt>
<pdfrwt beam="1">  1       21 0.16143268E-01 0.35990039E+03</pdfrwt>
<pdfrwt beam="2">  1        2 0.31127204E+00 0.35990039E+03</pdfrwt>
<totfact> 0.29974245E+03</totfact>
</mgrwt>
</event>
<event>
 5    0  0.2396052E+000  0.3708051E+03  0.7546771E-02  0.1054386E+00
          2   -1    0    0  503    0 -0.00000000000E+00  0.00000000000E+00  0.34415129030E+03  0.34415129030E+03  0.00000000000E+00 0.  1.
         21   -1    0    0  501  502  0.00000000000E+00 -0.00000000000E+00 -0.20518214551E+03  0.20518214551E+03  0.00000000000E+00 0. -1.
         25    1    1    2    0    0  0.11361127190E+03 -0.16961787030E+03 -0.18817608198E+02  0.24011839873E+03  0.12500000000E+03 0.  0.
         21    1    1    2  503  502 -0.38216672842E+02  0.12532098051E+03  0.25495599606E+01  0.13104336112E+03  0.00000000000E+00 0. -1.
          2    1    1    2  501    0 -0.75394599059E+02  0.44296889798E+02  0.15523719303E+03  0.17817167596E+03  0.00000000000E+00 0.  1.
<mgrwt>
<rscale>  4 0.37080507E+03</rscale>
<asrwt>0</asrwt>
<pdfrwt beam="1">  1       21 0.31566484E-01 0.37080507E+03</pdfrwt>
<pdfrwt beam="2">  1        2 0.52946352E-01 0.37080507E+03</pdfrwt>
<totfact> 0.10963694E+04</totfact>
</mgrwt>
</event>
<event>
 5    0  0.2396052E+000  0.3480556E+03  0.7546771E-02  0.1063416E+00
         21   -1    0    0  501  502  0.00000000000E+00  0.00000000000E+00  0.14909116259E+03  0.14909116259E+03  0.00000000000E+00 0. -1.
         -4   -1    0    0    0  501 -0.00000000000E+00 -0.00000000000E+00 -0.65173394310E+03  0.65173394310E+03  0.00000000000E+00 0.  1.
         25    1    1    2    0    0 -0.18605312411E+03  0.85205716191E+02 -0.62265743540E+02  0.24774543766E+03  0.12500000000E+03 0.  0.
         21    1    1    2  503  502  0.10419905552E+03 -0.23445049859E+02 -0.62278358113E+01  0.10698551058E+03  0.00000000000E+00 0.  1.
         -4    1    1    2    0  503  0.81854068582E+02 -0.61760666332E+02 -0.43414920116E+03  0.44609415746E+03  0.00000000000E+00 0.  1.
<mgrwt>
<rscale>  4 0.34805556E+03</rscale>
<asrwt>0</asrwt>
<pdfrwt beam="1">  1       21 0.22937102E-01 0.34805556E+03</pdfrwt>
<pdfrwt beam="2">  1       -4 0.10026676E+00 0.34805556E+03</pdfrwt>
<totfact> 0.63376030E+02</totfact>
</mgrwt>
</event>
<event>
 5    0  0.2396052E+000  0.6039215E+03  0.7546771E-02  0.9897304E-01
         21   -1    0    0  501  502  0.00000000000E+00  0.00000000000E+00  0.35975094913E+03  0.35975094913E+03  0.00000000000E+00 0.  1.
          2   -1    0    0  503    0 -0.00000000000E+00 -0.00000000000E+00 -0.83990532292E+03  0.83990532292E+03  0.00000000000E+00 0. -1.
         25    1    1    2    0    0  0.19020850782E+03  0.19746771730E+03 -0.87613457927E+02  0.31380550319E+03  0.12500000000E+03 0.  0.
         21    1    1    2  503  502 -0.15747328971E+03 -0.16631900481E+03  0.19242379692E+03  0.29914338694E+03  0.00000000000E+00 0.  1.
          2    1    1    2  501    0 -0.32735218104E+02 -0.31148712495E+02 -0.58496471278E+03  0.58670738192E+03  0.00000000000E+00 0. -1.
<mgrwt>
<rscale>  4 0.60392146E+03</rscale>
<asrwt>0</asrwt>
<pdfrwt beam="1">  1       21 0.55346300E-01 0.60392146E+03</pdfrwt>
<pdfrwt beam="2">  1        2 0.12921620E+00 0.60392146E+03</pdfrwt>
<totfact> 0.11489599E+03</totfact>
</mgrwt>
</event>
<event>
 5    0  0.2396052E+000  0.5807630E+03  0.7546771E-02  0.9946140E-01
          2   -1    0    0  503    0 -0.00000000000E+00  0.00000000000E+00  0.50418302594E+03  0.50418302594E+03  0.00000000000E+00 0.  1.
         21   -1    0    0  501  502  0.00000000000E+00 -0.00000000000E+00 -0.70656188348E+03  0.70656188348E+03  0.00000000000E+00 0.  1.
         25    1    1    2    0    0 -0.10919626722E+03  0.25810571935E+03 -0.60610452238E+02  0.31279548279E+03  0.12500000000E+03 0.  0.
         21    1    1    2  503  502 -0.15276647848E+03  0.47708785075E+02 -0.39230663920E+03  0.42369591015E+03  0.00000000000E+00 0.  1.
          2    1    1    2  501    0  0.26196274569E+03 -0.30581450442E+03  0.25053823390E+03  0.47425351648E+03  0.00000000000E+00 0.  1.
<mgrwt>
<rscale>  4 0.58076302E+03</rscale>
<asrwt>0</asrwt>
<pdfrwt beam="1">  1       21 0.10870183E+00 0.58076302E+03</pdfrwt>
<pdfrwt beam="2">  1        2 0.77566619E-01 0.58076302E+03</pdfrwt>
<totfact> 0.45231286E+02</totfact>
</mgrwt>
</event>
<event>
 5    0  0.2396052E+000  0.4501437E+03  0.7546771E-02  0.1027679E+00
         21   -1    0    0  501  502  0.00000000000E+00  0.00000000000E+00  0.10938126958E+04  0.10938126958E+04  0.00000000000E+00 0. -1.
         -2   -1    0    0    0  501 -0.00000000000E+00 -0.00000000000E+00 -0.33602415116E+03  0.33602415116E+03  0.00000000000E+00 0. -1.
         25    1    1    2    0    0 -0.22176982830E+03 -0.87941678273E+01  0.75474167620E+03  0.79656712958E+03  0.12500000000E+03 0.  0.
         21    1    1    2  503  502  0.17693251462E+03  0.30286166996E+02  0.29053379378E+03  0.34151464386E+03  0.00000000000E+00 0. -1.
         -2    1    1    2    0  503  0.44837313685E+02 -0.21491999168E+02 -0.28748692530E+03  0.29175507356E+03  0.00000000000E+00 0. -1.
<mgrwt>
<rscale>  4 0.45014366E+03</rscale>
<asrwt>0</asrwt>
<pdfrwt beam="1">  1       21 0.16827887E+00 0.45014366E+03</pdfrwt>
<pdfrwt beam="2">  1       -2 0.51696024E-01 0.45014366E+03</pdfrwt>
<totfact> 0.56054402E+01</totfact>
</mgrwt>
</event>
<event>
 5    0  0.2396052E+000  0.4877364E+03  0.7546771E-02  0.1017030E+00
          2   -1    0    0  503    0 -0.00000000000E+00  0.00000000000E+00  0.62445973607E+03  0.62445973607E+03  0.00000000000E+00 0. -1.
         21   -1    0    0  501  502  0.00000000000E+00 -0.00000000000E+00 -0.26978021653E+03  0.26978021653E+03  0.00000000000E+00 0.  1.
         25    1    1    2    0    0 -0.17857540015E+02 -0.25353973513E+03 -0.72566118284E+02  0.29239037355E+03  0.12500000000E+03 0.  0.
         21    1    1    2  503  502  0.11371952602E+03  0.15295528650E+03  0.45996385897E+02  0.19606916581E+03  0.00000000000E+00 0. -1.
          2    1    1    2  501    0 -0.95861986008E+02  0.10058444863E+03  0.38124925193E+03  0.40578041323E+03  0.00000000000E+00 0. -1.
<mgrwt>
<rscale>  4 0.48773637E+03</rscale>
<asrwt>0</asrwt>
<pdfrwt beam="1">  1       21 0.41504649E-01 0.48773637E+03</pdfrwt>
<pdfrwt beam="2">  1        2 0.96070728E-01 0.48773637E+03</pdfrwt>
<totfact> 0.31427465E+03</totfact>
</mgrwt>
</event>
<event>
 5    0  0.2396052E+000  0.6501387E+03  0.7546771E-02  0.9806519E-01
         -2   -1    0    0    0  501 -0.00000000000E+00  0.00000000000E+00  0.24829638028E+03  0.24829638028E+03  0.00000000000E+00 0. -1.
         21   -1    0    0  501  502  0.00000000000E+00 -0.00000000000E+00 -0.59426390973E+03  0.59426390973E+03  0.00000000000E+00 0.  1.
         25    1    1    2    0    0  0.22685846673E+03  0.16547004498E+03 -0.13358396408E+03  0.33513396601E+03  0.12500000000E+03 0.  0.
         21    1    1    2  503  502 -0.23293327159E+03 -0.24363062242E+03 -0.25078764702E+03  0.42012882916E+03  0.00000000000E+00 0.  1.
         -2    1    1    2    0  503  0.60748048594E+01  0.78160577436E+02  0.38404081644E+02  0.87297494845E+02  0.00000000000E+00 0. -1.
<mgrwt>
<rscale>  4 0.65013872E+03</rscale>
<asrwt>0</asrwt>
<pdfrwt beam="1">  1       21 0.91425216E-01 0.65013872E+03</pdfrwt>
<pdfrwt beam="2">  1       -2 0.38199444E-01 0.65013872E+03</pdfrwt>
<totfact> 0.47423080E+02</totfact>
</mgrwt>
</event>
<event>
 5    0  0.2396052E+000  0.5900729E+03  0.7546771E-02  0.9926218E-01
          1   -1    0    0  503    0 -0.00000000000E+00  0.00000000000E+00  0.88928106046E+03  0.88928106046E+03  0.00000000000E+00 0. -1.
         21   -1    0    0  501  502  0.00000000000E+00 -0.00000000000E+00 -0.33645168890E+03  0.33645168890E+03  0.00000000000E+00 0. -1.
         25    1    1    2    0    0  0.48974243402E+02  0.23536172787E+03  0.71540519301E+02  0.28024393903E+03  0.12500000000E+03 0.  0.
         21    1    1    2  503  502  0.12973183540E+03 -0.25471807289E+03 -0.12582813134E+03  0.31232093175E+03  0.00000000000E+00 0. -1.
          1    1    1    2  501    0 -0.17870607880E+03  0.19356345021E+02  0.60711698360E+03  0.63316787858E+03  0.00000000000E+00 0. -1.
<mgrwt>
<rscale>  4 0.59007286E+03</rscale>
<asrwt>0</asrwt>
<pdfrwt beam="1">  1       21 0.51761798E-01 0.59007286E+03</pdfrwt>
<pdfrwt beam="2">  1        1 0.13681247E+00 0.59007286E+03</pdfrwt>
<totfact> 0.67869507E+02</totfact>
</mgrwt>
</event>
<event>
 5    0  0.2396052E+000  0.5261750E+03  0.7546771E-02  0.1007164E+00
         -3   -1    0    0    0  501 -0.00000000000E+00  0.00000000000E+00  0.11847876507E+04  0.11847876507E+04  0.00000000000E+00 0. -1.
         21   -1    0    0  501  502  0.00000000000E+00 -0.00000000000E+00 -0.80270852469E+02  0.80270852469E+02  0.00000000000E+00 0. -1.
         25    1    1    2    0    0  0.19083954675E+03 -0.13725160509E+03  0.69169998229E+03  0.74116907734E+03  0.12500000000E+03 0.  0.
         21    1    1    2  503  502 -0.15738183063E+03  0.10426735793E+03  0.11217685789E+03  0.21960047811E+03  0.00000000000E+00 0. -1.
         -3    1    1    2    0  503 -0.33457716121E+02  0.32984247160E+02  0.30063995804E+03  0.30428894771E+03  0.00000000000E+00 0. -1.
<mgrwt>
<rscale>  4 0.52617503E+03</rscale>
<asrwt>0</asrwt>
<pdfrwt beam="1">  1       21 0.12349363E-01 0.52617503E+03</pdfrwt>
<pdfrwt beam="2">  1       -3 0.18227501E+00 0.52617503E+03</pdfrwt>
<totfact> 0.54709031E+02</totfact>
</mgrwt>
</event>
<event>
 5    0  0.2396052E+000  0.4185312E+03  0.7546771E-02  0.1037545E+00
          2   -1    0    0  503    0 -0.00000000000E+00  0.00000000000E+00  0.32783167226E+03  0.32783167226E+03  0.00000000000E+00 0. -1.
         21   -1    0    0  501  502  0.00000000000E+00 -0.00000000000E+00 -0.54287822967E+03  0.54287822967E+03  0.00000000000E+00 0. -1.
         25    1    1    2    0    0  0.24458816373E+03  0.28150477292E+01 -0.21697233407E+03  0.35004755117E+03  0.12500000000E+03 0.  0.
         21    1    1    2  503  502 -0.12505252238E+03 -0.20087592502E+02 -0.22807273843E+03  0.26088085162E+03  0.00000000000E+00 0. -1.
          2    1    1    2  501    0 -0.11953564135E+03  0.17272544773E+02  0.22999851509E+03  0.25978149915E+03  0.00000000000E+00 0. -1.
<mgrwt>
<rscale>  4 0.41853124E+03</rscale>
<asrwt>0</asrwt>
<pdfrwt beam="1">  1       21 0.83519727E-01 0.41853124E+03</pdfrwt>
<pdfrwt beam="2">  1        2 0.50435642E-01 0.41853124E+03</pdfrwt>
<totfact> 0.14304295E+03</totfact>
</mgrwt>
</event>
<event>
 5    0  0.2396052E+000  0.5845210E+03  0.7546771E-02  0.9938051E-01
          2   -1    0    0  503    0 -0.00000000000E+00  0.00000000000E+00  0.58468764275E+03  0.58468764275E+03  0.00000000000E+00 0. -1.
         21   -1    0    0  501  502  0.00000000000E+00 -0.00000000000E+00 -0.44254601410E+03  0.44254601410E+03  0.00000000000E+00 0. -1.
         25    1    1    2    0    0  0.21051649173E+03 -0.30212856209E+03 -0.22034127190E+02  0.38949886275E+03  0.12500000000E+03 0.  0.
         21    1    1    2  503  502  0.88917671669E+02  0.17038661399E+02  0.20319530809E+03  0.22245224554E+03  0.00000000000E+00 0.  1.
          2    1    1    2  501    0 -0.29943416340E+03  0.28508990069E+03 -0.39019552250E+02  0.41528254856E+03  0.00000000000E+00 0. -1.
<mgrwt>
<rscale>  4 0.58452099E+03</rscale>
<asrwt>0</asrwt>
<pdfrwt beam="1">  1       21 0.68084002E-01 0.58452099E+03</pdfrwt>
<pdfrwt beam="2">  1        2 0.89951945E-01 0.58452099E+03</pdfrwt>
<totfact> 0.11494182E+03</totfact>
</mgrwt>
</event>
<event>
 5    0  0.2396052E+000  0.5765195E+03  0.7546771E-02  0.9955355E-01
          2   -1    0    0  503    0 -0.00000000000E+00  0.00000000000E+00  0.19457866838E+04  0.19457866838E+04  0.00000000000E+00 0. -1.
         21   -1    0    0  501  502  0.00000000000E+00 -0.00000000000E+00 -0.89084036003E+02  0.89084036003E+02  0.00000000000E+00 0. -1.
         25    1    1    2    0    0  0.10003747537E+03 -0.24854741729E+03  0.29350343222E+03  0.41659642322E+03  0.12500000000E+03 0.  0.
         21    1    1    2  503  502 -0.60533804672E+02  0.24395073391E+03  0.55468226689E+03  0.60897349638E+03  0.00000000000E+00 0. -1.
          2    1    1    2  501    0 -0.39503670700E+02  0.45966833797E+01  0.10085169487E+04  0.10093008002E+04  0.00000000000E+00 0. -1.
<mgrwt>
<rscale>  4 0.57651945E+03</rscale>
<asrwt>0</asrwt>
<pdfrwt beam="1">  1       21 0.13705238E-01 0.57651945E+03</pdfrwt>
<pdfrwt beam="2">  1        2 0.29935177E+00 0.57651945E+03</pdfrwt>
<totfact> 0.42511939E+03</totfact>
</mgrwt>
</event>
<event>
 5    0  0.2396052E+000  0.3790636E+03  0.7546771E-02  0.1051280E+00
         21   -1    0    0  501  502  0.00000000000E+00  0.00000000000E+00  0.52086593679E+03  0.52086593679E+03  0.00000000000E+00 0.  1.
          1   -1    0    0  503    0 -0.00000000000E+00 -0.00000000000E+00 -0.24156652339E+03  0.24156652339E+03  0.00000000000E+00 0.  1.
         25    1    1    2    0    0 -0.22100184219E+03  0.42573403494E+02  0.40834401164E+03  0.48272574074E+03  0.12500000000E+03 0.  0.
         21    1    1    2  503  502  0.79075320213E+02 -0.90948534269E+01  0.74829092871E+01  0.79947586311E+02  0.00000000000E+00 0. -1.
          1    1    1    2  501    0  0.14192652198E+03 -0.33478550067E+02 -0.13652750753E+03  0.19975913312E+03  0.00000000000E+00 0.  1.
<mgrwt>
<rscale>  4 0.37906364E+03</rscale>
<asrwt>0</asrwt>
<pdfrwt beam="1">  1       21 0.80133221E-01 0.37906364E+03</pdfrwt>
<pdfrwt beam="2">  1        1 0.37164081E-01 0.37906364E+03</pdfrwt>
<totfact> 0.16225627E+03</totfact>
</mgrwt>
</event>
<event>
 5    0  0.2396052E+000  0.3717042E+03  0.7546771E-02  0.1054043E+00
         21   -1    0    0  501  502  0.00000000000E+00  0.00000000000E+00  0.48372711678E+02  0.48372711678E+02  0.00000000000E+00 0. -1.
          1   -1    0    0  503    0 -0.00000000000E+00 -0.00000000000E+00 -0.14529358376E+04  0.14529358376E+04  0.00000000000E+00 0.  1.
         25    1    1    2    0    0  0.13098093468E+03  0.20211085410E+03 -0.57729910842E+03  0.63789032222E+03  0.12500000000E+03 0.  0.
         21    1    1    2  503  502 -0.71708297192E+02 -0.60863877043E+02 -0.31475085777E+03  0.32850356753E+03  0.00000000000E+00 0.  1.
          1    1    1    2  501    0 -0.59272637491E+02 -0.14124697705E+03 -0.51251315974E+03  0.53491465954E+03  0.00000000000E+00 0.  1.
<mgrwt>
<rscale>  4 0.37170419E+03</rscale>
<asrwt>0</asrwt>
<pdfrwt beam="1">  1       21 0.74419561E-02 0.37170419E+03</pdfrwt>
<pdfrwt beam="2">  1        1 0.22352858E+00 0.37170419E+03</pdfrwt>
<totfact> 0.11371829E+04</totfact>
</mgrwt>
</event>
<event>
 5    0  0.2396052E+000  0.6342733E+03  0.7546771E-02  0.9836745E-01
         21   -1    0    0  501  502  0.00000000000E+00  0.00000000000E+00  0.10516922725E+04  0.10516922725E+04  0.00000000000E+00 0.  1.
         -2   -1    0    0    0  501 -0.00000000000E+00 -0.00000000000E+00 -0.20094235366E+03  0.20094235366E+03  0.00000000000E+00 0. -1.
         25    1    1    2    0    0  0.36699237677E+03 -0.34597660038E+02  0.51844574652E+03  0.64829884681E+03  0.12500000000E+03 0.  0.
         21    1    1    2  503  502 -0.24187331377E+03  0.23373167452E+02  0.39513650541E+03  0.46387699100E+03  0.00000000000E+00 0.  1.
         -2    1    1    2    0  503 -0.12511906300E+03  0.11224492586E+02 -0.62832333047E+02  0.14045878839E+03  0.00000000000E+00 0. -1.
<mgrwt>
<rscale>  4 0.63427326E+03</rscale>
<asrwt>0</asrwt>
<pdfrwt beam="1">  1       21 0.16179881E+00 0.63427326E+03</pdfrwt>
<pdfrwt beam="2">  1       -2 0.30914209E-01 0.63427326E+03</pdfrwt>
<totfact> 0.16206161E+02</totfact>
</mgrwt>
</event>
<event>
 5    0  0.2396052E+000  0.4813001E+03  0.7546771E-02  0.1018778E+00
         21   -1    0    0  501  502  0.00000000000E+00  0.00000000000E+00  0.46837692734E+02  0.46837692734E+02  0.00000000000E+00 0. -1.
          3   -1    0    0  503    0 -0.00000000000E+00 -0.00000000000E+00 -0.19563831356E+04  0.19563831356E+04  0.00000000000E+00 0. -1.
         25    1    1    2    0    0 -0.44966863891E+02 -0.21035700237E+03 -0.63373238984E+03  0.68081849947E+03  0.12500000000E+03 0.  0.
         21    1    1    2  503  502  0.90481814603E+02  0.21414083378E+03 -0.57660997125E+03  0.62170918797E+03  0.00000000000E+00 0. -1.
          3    1    1    2  501    0 -0.45514950711E+02 -0.37838314107E+01 -0.69920308176E+03  0.70069314087E+03  0.00000000000E+00 0. -1.
<mgrwt>
<rscale>  4 0.48130006E+03</rscale>
<asrwt>0</asrwt>
<pdfrwt beam="1">  1       21 0.72058003E-02 0.48130006E+03</pdfrwt>
<pdfrwt beam="2">  1        3 0.30098196E+00 0.48130006E+03</pdfrwt>
<totfact> 0.29941712E+02</totfact>
</mgrwt>
</event>
<event>
 5    0  0.2396052E+000  0.3886926E+03  0.7546771E-02  0.1047767E+00
          4   -1    0    0  503    0 -0.00000000000E+00  0.00000000000E+00  0.12985510382E+04  0.12985510382E+04  0.00000000000E+00 0. -1.
         21   -1    0    0  501  502  0.00000000000E+00 -0.00000000000E+00 -0.12358515609E+03  0.12358515609E+03  0.00000000000E+00 0.  1.
         25    1    1    2    0    0  0.26981753250E+03  0.15805669632E+02  0.16839625008E+03  0.34210176421E+03  0.12500000000E+03 0.  0.
         21    1    1    2  503  502 -0.90078879797E+02  0.11134513417E+02  0.44754908189E+02  0.10119873409E+03  0.00000000000E+00 0. -1.
          4    1    1    2  501    0 -0.17973865270E+03 -0.26940183049E+02  0.96181472379E+03  0.97883569594E+03  0.00000000000E+00 0. -1.
<mgrwt>
<rscale>  4 0.38869257E+03</rscale>
<asrwt>0</asrwt>
<pdfrwt beam="1">  1       21 0.19013102E-01 0.38869257E+03</pdfrwt>
<pdfrwt beam="2">  1        4 0.19977707E+00 0.38869257E+03</pdfrwt>
<totfact> 0.14989159E+02</totfact>
</mgrwt>
</event>
<event>
 5    0  0.2396052E+000  0.4703687E+03  0.7546771E-02  0.1021816E+00
         21   -1    0    0  501  502  0.00000000000E+00  0.00000000000E+00  0.16442745585E+04  0.16442745585E+04  0.00000000000E+00 0.  1.
          2   -1    0    0  503    0 -0.00000000000E+00 -0.00000000000E+00 -0.86020097909E+02  0.86020097909E+02  0.00000000000E+00 0.  1.
         25    1    1    2    0    0  0.91183636403E+02  0.27861189743E+03  0.11962367718E+04  0.12379606049E+04  0.12500000000E+03 0.  0.
         21    1    1    2  503  502 -0.40122219487E+02 -0.13143082715E+03  0.28957618395E+03  0.32052803487E+03  0.00000000000E+00 0. -1.
          2    1    1    2  501    0 -0.51061416916E+02 -0.14718107028E+03  0.72441504810E+02  0.17180601667E+03  0.00000000000E+00 0.  1.
<mgrwt>
<rscale>  4 0.47036869E+03</rscale>
<asrwt>0</asrwt>
<pdfrwt beam="1">  1       21 0.25296529E+00 0.47036869E+03</pdfrwt>
<pdfrwt beam="2">  1        2 0.13233862E-01 0.47036869E+03</pdfrwt>
<totfact> 0.30274168E+02</totfact>
</mgrwt>
</event>
<event>
 5    0  0.2396052E+000  0.5719234E+03  0.7546771E-02  0.9965432E-01
          2   -1    0    0  503    0 -0.00000000000E+00  0.00000000000E+00  0.17992368806E+04  0.17992368806E+04  0.00000000000E+00 0. -1.
         21   -1    0    0  501  502  0.00000000000E+00 -0.00000000000E+00 -0.10883871024E+03  0.10883871024E+03  0.00000000000E+00 0.  1.
         25    1    1    2    0    0 -0.19131848525E+03 -0.67133097115E+02  0.54109736778E+02  0.24425904106E+03  0.12500000000E+03 0.  0.
         21    1    1    2  503  502  0.17708624755E+03  0.34099080772E+02  0.59083476562E+03  0.61774428904E+03  0.00000000000E+00 0. -1.
          2    1    1    2  501    0  0.14232237698E+02  0.33034016343E+02  0.10454536680E+04  0.10460722607E+04  0.00000000000E+00 0. -1.
<mgrwt>
<rscale>  4 0.57192336E+03</rscale>
<asrwt>0</asrwt>
<pdfrwt beam="1">  1       21 0.16744418E-01 0.57192336E+03</pdfrwt>
<pdfrwt beam="2">  1        2 0.27680565E+00 0.57192336E+03</pdfrwt>
<totfact> 0.35134305E+03</totfact>
</mgrwt>
</event>
<event>
 5    0  0.2396052E+000  0.4356510E+03  0.7546771E-02  0.1032090E+00
         21   -1    0    0  501  502  0.00000000000E+00  0.00000000000E+00  0.14113162308E+04  0.14113162308E+04  0.00000000000E+00 0. -1.
          2   -1    0    0  503    0 -0.00000000000E+00 -0.00000000000E+00 -0.61289338883E+03  0.61289338883E+03  0.00000000000E+00 0. -1.
         25    1    1    2    0    0  0.46521054166E+02  0.19883639192E+03  0.39953234691E+03  0.46578022227E+03  0.12500000000E+03 0.  0.
         21    1    1    2  503  502 -0.24709443677E+02 -0.47424550593E+02  0.96781818772E+03  0.96929442848E+03  0.00000000000E+00 0. -1.
          2    1    1    2  501    0 -0.21811610489E+02 -0.15141184133E+03 -0.56892769268E+03  0.58913496887E+03  0.00000000000E+00 0. -1.
<mgrwt>
<rscale>  4 0.43565097E+03</rscale>
<asrwt>0</asrwt>
<pdfrwt beam="1">  1       21 0.21712557E+00 0.43565097E+03</pdfrwt>
<pdfrwt beam="2">  1        2 0.94291291E-01 0.43565097E+03</pdfrwt>
<totfact> 0.54828023E+01</totfact>
</mgrwt>
</event>
<event>
 5    0  0.2396052E+000  0.4167074E+03  0.7546771E-02  0.1038143E+00
         21   -1    0    0  501  502  0.00000000000E+00  0.00000000000E+00  0.32046302328E+03  0.32046302328E+03  0.00000000000E+00 0. -1.
          1   -1    0    0  503    0 -0.00000000000E+00 -0.00000000000E+00 -0.12259461407E+04  0.12259461407E+04  0.00000000000E+00 0.  1.
         25    1    1    2    0    0  0.10184590130E+03  0.20826447046E+03  0.25158578417E+03  0.36423492977E+03  0.12500000000E+03 0.  0.
         21    1    1    2  503  502  0.53967646060E+01 -0.27911004680E+02 -0.81145945781E+02  0.85981473395E+02  0.00000000000E+00 0.  1.
          1    1    1    2  501    0 -0.10724266590E+03 -0.18035346578E+03 -0.10759229558E+04  0.10961927608E+04  0.00000000000E+00 0.  1.
<mgrwt>
<rscale>  4 0.41670742E+03</rscale>
<asrwt>0</asrwt>
<pdfrwt beam="1">  1       21 0.49302004E-01 0.41670742E+03</pdfrwt>
<pdfrwt beam="2">  1        1 0.18860710E+00 0.41670742E+03</pdfrwt>
<totfact> 0.43874324E+02</totfact>
</mgrwt>
</event>
<event>
 5    0  0.2396052E+000  0.7321590E+03  0.7546771E-02  0.9663763E-01
          1   -1    0    0  503    0 -0.00000000000E+00  0.00000000000E+00  0.78442829509E+03  0.78442829509E+03  0.00000000000E+00 0. -1.
         21   -1    0    0  501  502  0.00000000000E+00 -0.00000000000E+00 -0.32719101240E+03  0.32719101240E+03  0.00000000000E+00 0. -1.
         25    1    1    2    0    0  0.23971166257E+03  0.15299863695E+03 -0.10767145458E+03  0.32876801276E+03  0.12500000000E+03 0.  0.
         21    1    1    2  503  502 -0.28870861219E+03 -0.21076525898E+03  0.19886047663E+03  0.40904785332E+03  0.00000000000E+00 0. -1.
          1    1    1    2  501    0  0.48996949615E+02  0.57766622023E+02  0.36604826064E+03  0.37380344141E+03  0.00000000000E+00 0. -1.
<mgrwt>
<rscale>  4 0.73215901E+03</rscale>
<asrwt>0</asrwt>
<pdfrwt beam="1">  1       21 0.50337079E-01 0.73215901E+03</pdfrwt>
<pdfrwt beam="2">  1        1 0.12068128E+00 0.73215901E+03</pdfrwt>
<totfact> 0.86264707E+02</totfact>
</mgrwt>
</event>
<event>
 5    0  0.2396052E+000  0.5576394E+03  0.7546771E-02  0.9997410E-01
          2   -1    0    0  503    0 -0.00000000000E+00  0.00000000000E+00  0.14067541219E+04  0.14067541219E+04  0.00000000000E+00 0.  1.
         21   -1    0    0  501  502  0.00000000000E+00 -0.00000000000E+00 -0.36053333695E+03  0.36053333695E+03  0.00000000000E+00 0. -1.
         25    1    1    2    0    0  0.12063664096E+03 -0.22218184162E+03  0.38213404496E+02  0.28461067122E+03  0.12500000000E+03 0.  0.
         21    1    1    2  503  502 -0.19607355008E+03  0.11922670187E+03 -0.17762737265E+03  0.29019187961E+03  0.00000000000E+00 0. -1.
          2    1    1    2  501    0  0.75436909120E+02  0.10295513976E+03  0.11856347531E+04  0.11924849080E+04  0.00000000000E+00 0.  1.
<mgrwt>
<rscale>  4 0.55763942E+03</rscale>
<asrwt>0</asrwt>
<pdfrwt beam="1">  1       21 0.55466668E-01 0.55763942E+03</pdfrwt>
<pdfrwt beam="2">  1        2 0.21642371E+00 0.55763942E+03</pdfrwt>
<totfact> 0.52108541E+02</totfact>
</mgrwt>
</event>
<event>
 5    0  0.2396052E+000  0.4523902E+03  0.7546771E-02  0.1027012E+00
         21   -1    0    0  501  502  0.00000000000E+00  0.00000000000E+00  0.24583028902E+03  0.24583028902E+03  0.00000000000E+00 0.  1.
          2   -1    0    0  503    0 -0.00000000000E+00 -0.00000000000E+00 -0.18317376582E+04  0.18317376582E+04  0.00000000000E+00 0.  1.
         25    1    1    2    0    0 -0.17733006532E+03  0.20092463971E+03 -0.36172671548E+01  0.29572748863E+03  0.12500000000E+03 0.  0.
         21    1    1    2  503  502  0.13541642146E+03 -0.72585268300E+02  0.36101170164E+02  0.15782750984E+03  0.00000000000E+00 0.  1.
          2    1    1    2  501    0  0.41913643866E+02 -0.12833937141E+03 -0.16183912722E+04  0.16240129487E+04  0.00000000000E+00 0.  1.
<mgrwt>
<rscale>  4 0.45239024E+03</rscale>
<asrwt>0</asrwt>
<pdfrwt beam="1">  1       21 0.37820045E-01 0.45239024E+03</pdfrwt>
<pdfrwt beam="2">  1        2 0.28180579E+00 0.45239024E+03</pdfrwt>
<totfact> 0.70495924E+02</totfact>
</mgrwt>
</event>
<event>
 5    0  0.2396052E+000  0.4838260E+03  0.7546771E-02  0.1018089E+00
          1   -1    0    0  503    0 -0.00000000000E+00  0.00000000000E+00  0.48639485116E+03  0.48639485116E+03  0.00000000000E+00 0.  1.
         21   -1    0    0  501  502  0.00000000000E+00 -0.00000000000E+00 -0.34370672937E+03  0.34370672937E+03  0.00000000000E+00 0.  1.
         25    1    1    2    0    0  0.87536444740E+02  0.25357686689E+03 -0.15819467294E+03  0.33558070732E+03  0.12500000000E+03 0.  0.
         21    1    1    2  503  502 -0.14648070183E+03 -0.60785705987E+02  0.37725888630E+02  0.16301760867E+03  0.00000000000E+00 0. -1.
          1    1    1    2  501    0  0.58944257094E+02 -0.19279116091E+03  0.26315690610E+03  0.33150326454E+03  0.00000000000E+00 0.  1.
<mgrwt>
<rscale>  4 0.48382595E+03</rscale>
<asrwt>0</asrwt>
<pdfrwt beam="1">  1       21 0.52877958E-01 0.48382595E+03</pdfrwt>
<pdfrwt beam="2">  1        1 0.74829977E-01 0.48382595E+03</pdfrwt>
<totfact> 0.16147570E+03</totfact>
</mgrwt>
</event>
<event>
 5    0  0.2396052E+000  0.5530998E+03  0.7546771E-02  0.1000779E+00
         21   -1    0    0  501  502  0.00000000000E+00  0.00000000000E+00  0.74966098016E+03  0.74966098016E+03  0.00000000000E+00 0. -1.
          1   -1    0    0  503    0 -0.00000000000E+00 -0.00000000000E+00 -0.84362308436E+03  0.84362308436E+03  0.00000000000E+00 0.  1.
         25    1    1    2    0    0  0.13797684775E+03 -0.16974626664E+03  0.64313917299E+03  0.69072744363E+03  0.12500000000E+03 0.  0.
         21    1    1    2  503  502 -0.11741189569E+03 -0.78949108914E+02 -0.19524941146E+02  0.14282765270E+03  0.00000000000E+00 0.  1.
          1    1    1    2  501    0 -0.20564952057E+02  0.24869537555E+03 -0.71757633604E+03  0.75972896819E+03  0.00000000000E+00 0.  1.
<mgrwt>
<rscale>  4 0.55309980E+03</rscale>
<asrwt>0</asrwt>
<pdfrwt beam="1">  1       21 0.11533246E+00 0.55309980E+03</pdfrwt>
<pdfrwt beam="2">  1        1 0.12978817E+00 0.55309980E+03</pdfrwt>
<totfact> 0.11649595E+02</totfact>
</mgrwt>
</event>
<event>
 5    0  0.2396052E+000  0.6080206E+03  0.7546771E-02  0.9888904E-01
         21   -1    0    0  501  502  0.00000000000E+00  0.00000000000E+00  0.14861414735E+03  0.14861414735E+03  0.00000000000E+00 0. -1.
          1   -1    0    0  503    0 -0.00000000000E+00 -0.00000000000E+00 -0.13473407099E+04  0.13473407099E+04  0.00000000000E+00 0. -1.
         25    1    1    2    0    0 -0.19730989444E+02  0.21102323560E+03  0.25657419203E+02  0.24739325186E+03  0.12500000000E+03 0.  0.
         21    1    1    2  503  502  0.46556819370E+02 -0.13534140659E+03 -0.51075576768E+03  0.53043028570E+03  0.00000000000E+00 0.  1.
          1    1    1    2  501    0 -0.26825829925E+02 -0.75681829011E+02 -0.71362821411E+03  0.71813131973E+03  0.00000000000E+00 0. -1.
<mgrwt>
<rscale>  4 0.60802060E+03</rscale>
<asrwt>0</asrwt>
<pdfrwt beam="1">  1       21 0.22863715E-01 0.60802060E+03</pdfrwt>
<pdfrwt beam="2">  1        1 0.20728319E+00 0.60802060E+03</pdfrwt>
<totfact> 0.16319788E+03</totfact>
</mgrwt>
</event>
<event>
 5    0  0.2396052E+000  0.3632815E+03  0.7546771E-02  0.1057292E+00
          2   -1    0    0  503    0 -0.00000000000E+00  0.00000000000E+00  0.27921224015E+04  0.27921224015E+04  0.00000000000E+00 0. -1.
         21   -1    0    0  501  502  0.00000000000E+00 -0.00000000000E+00 -0.28708905630E+02  0.28708905630E+02  0.00000000000E+00 0.  1.
         25    1    1    2    0    0  0.12527728095E+02 -0.22228827554E+03  0.73511281193E+03  0.77819333566E+03  0.12500000000E+03 0.  0.
         21    1    1    2  503  502 -0.15310028152E+02  0.94572085603E+02  0.50621021444E+03  0.51519613502E+03  0.00000000000E+00 0. -1.
          2    1    1    2  501    0  0.27823000570E+01  0.12771618994E+03  0.15220904695E+04  0.15274418365E+04  0.00000000000E+00 0. -1.
<mgrwt>
<rscale>  4 0.36328153E+03</rscale>
<asrwt>0</asrwt>
<pdfrwt beam="1">  1       21 0.44167569E-02 0.36328153E+03</pdfrwt>
<pdfrwt beam="2">  1        2 0.42955708E+00 0.36328153E+03</pdfrwt>
<totfact> 0.11279600E+04</totfact>
</mgrwt>
</event>
<event>
 5    0  0.2396052E+000  0.6628417E+03  0.7546771E-02  0.9782977E-01
         21   -1    0    0  501  502  0.00000000000E+00  0.00000000000E+00  0.14409246907E+04  0.14409246907E+04  0.00000000000E+00 0.  1.
          2   -1    0    0  503    0 -0.00000000000E+00 -0.00000000000E+00 -0.78726666980E+03  0.78726666980E+03  0.00000000000E+00 0. -1.
         25    1    1    2    0    0 -0.22581072880E+03 -0.43850090611E+02  0.11541991217E+04  0.11835176079E+04  0.12500000000E+03 0.  0.
         21    1    1    2  503  502  0.25363223401E+03  0.51182248984E+02  0.21019043906E+03  0.33336009571E+03  0.00000000000E+00 0. -1.
          2    1    1    2  501    0 -0.27821505207E+02 -0.73321583730E+01 -0.71073153987E+03  0.71131365688E+03  0.00000000000E+00 0. -1.
<mgrwt>
<rscale>  4 0.66284168E+03</rscale>
<asrwt>0</asrwt>
<pdfrwt beam="1">  1       21 0.22168072E+00 0.66284168E+03</pdfrwt>
<pdfrwt beam="2">  1        2 0.12111795E+00 0.66284168E+03</pdfrwt>
<totfact> 0.34452532E+01</totfact>
</mgrwt>
</event>
<event>
 5    0  0.2396052E+000  0.1371884E+04  0.7546771E-02  0.8974426E-01
         21   -1    0    0  501  502  0.00000000000E+00  0.00000000000E+00  0.54271690579E+03  0.54271690579E+03  0.00000000000E+00 0.  1.
          1   -1    0    0  503    0 -0.00000000000E+00 -0.00000000000E+00 -0.19841392653E+04  0.19841392653E+04  0.00000000000E+00 0.  1.
         25    1    1    2    0    0 -0.26792159911E+03 -0.79480894377E+02 -0.80721329689E+03  0.86331772976E+03  0.12500000000E+03 0.  0.
         21    1    1    2  503  502  0.24319882765E+03  0.80904122355E+02  0.48260923752E+03  0.54644562669E+03  0.00000000000E+00 0.  1.
          1    1    1    2  501    0  0.24722771460E+02 -0.14232279783E+01 -0.11168183002E+04  0.11170928147E+04  0.00000000000E+00 0.  1.
<mgrwt>
<rscale>  4 0.13718837E+04</rscale>
<asrwt>0</asrwt>
<pdfrwt beam="1">  1       21 0.83494909E-01 0.13718837E+04</pdfrwt>
<pdfrwt beam="2">  1        1 0.30525219E+00 0.13718837E+04</pdfrwt>
<totfact> 0.33910695E+01</totfact>
</mgrwt>
</event>
<event>
 5    0  0.2396052E+000  0.5777095E+03  0.7546771E-02  0.9952762E-01
         21   -1    0    0  501  502  0.00000000000E+00  0.00000000000E+00  0.74043804874E+02  0.74043804874E+02  0.00000000000E+00 0. -1.
          1   -1    0    0  503    0 -0.00000000000E+00 -0.00000000000E+00 -0.20905081285E+04  0.20905081285E+04  0.00000000000E+00 0. -1.
         25    1    1    2    0    0  0.38198061664E+02 -0.25343838851E+03 -0.42283464131E+03  0.51000415937E+03  0.12500000000E+03 0.  0.
         21    1    1    2  503  502 -0.48711786819E+02  0.27916496040E+03 -0.63325124030E+03  0.69376728564E+03  0.00000000000E+00 0. -1.
          1    1    1    2  501    0  0.10513725156E+02 -0.25726571895E+02 -0.96037844205E+03  0.96078048839E+03  0.00000000000E+00 0. -1.
<mgrwt>
<rscale>  4 0.57770953E+03</rscale>
<asrwt>0</asrwt>
<pdfrwt beam="1">  1       21 0.11391356E-01 0.57770953E+03</pdfrwt>
<pdfrwt beam="2">  1        1 0.32161660E+00 0.57770953E+03</pdfrwt>
<totfact> 0.19230522E+03</totfact>
</mgrwt>
</event>
<event>
 5    0  0.2396052E+000  0.5334830E+03  0.7546771E-02  0.1005391E+00
         21   -1    0    0  501  502  0.00000000000E+00  0.00000000000E+00  0.24072954875E+03  0.24072954875E+03  0.00000000000E+00 0.  1.
          1   -1    0    0  503    0 -0.00000000000E+00 -0.00000000000E+00 -0.76141671495E+03  0.76141671495E+03  0.00000000000E+00 0.  1.
         25    1    1    2    0    0 -0.74885785573E+02  0.25317076689E+03 -0.46673255602E+02  0.29581533239E+03  0.12500000000E+03 0.  0.
         21    1    1    2  503  502  0.48694113041E+02 -0.23543737997E+03 -0.93606861926E+01  0.24060236694E+03  0.00000000000E+00 0.  1.
          1    1    1    2  501    0  0.26191672532E+02 -0.17733386924E+02 -0.46465322440E+03  0.46572856437E+03  0.00000000000E+00 0.  1.
<mgrwt>
<rscale>  4 0.53348303E+03</rscale>
<asrwt>0</asrwt>
<pdfrwt beam="1">  1       21 0.37035316E-01 0.53348303E+03</pdfrwt>
<pdfrwt beam="2">  1        1 0.11714103E+00 0.53348303E+03</pdfrwt>
<totfact> 0.17747950E+03</totfact>
</mgrwt>
</event>
<event>
 5    0  0.2396052E+000  0.3978234E+03  0.7546771E-02  0.1044536E+00
          1   -1    0    0  503    0 -0.00000000000E+00  0.00000000000E+00  0.10765658034E+04  0.10765658034E+04  0.00000000000E+00 0. -1.
         21   -1    0    0  501  502  0.00000000000E+00 -0.00000000000E+00 -0.16006034657E+03  0.16006034657E+03  0.00000000000E+00 0.  1.
         25    1    1    2    0    0 -0.21278533738E+03 -0.19913986448E+03  0.12813980699E+03  0.34202206883E+03  0.12500000000E+03 0.  0.
         21    1    1    2  503  502  0.48125716828E+02  0.58086093818E+02 -0.15748597412E+01  0.75449049686E+02  0.00000000000E+00 0.  1.
          1    1    1    2  501    0  0.16465962056E+03  0.14105377066E+03  0.78994050954E+03  0.81915503140E+03  0.00000000000E+00 0. -1.
<mgrwt>
<rscale>  4 0.39782339E+03</rscale>
<asrwt>0</asrwt>
<pdfrwt beam="1">  1       21 0.24624669E-01 0.39782339E+03</pdfrwt>
<pdfrwt beam="2">  1        1 0.16562550E+00 0.39782339E+03</pdfrwt>
<totfact> 0.23006522E+03</totfact>
</mgrwt>
</event>
<event>
 5    0  0.2396052E+000  0.5242668E+03  0.7546771E-02  0.1007632E+00
          1   -1    0    0  503    0 -0.00000000000E+00  0.00000000000E+00  0.18901724975E+03  0.18901724975E+03  0.00000000000E+00 0.  1.
         21   -1    0    0  501  502  0.00000000000E+00 -0.00000000000E+00 -0.80395107563E+03  0.80395107563E+03  0.00000000000E+00 0. -1.
         25    1    1    2    0    0 -0.21010922963E+03  0.21437039467E+02 -0.14091720470E+03  0.28299839861E+03  0.12500000000E+03 0.  0.
         21    1    1    2  503  502  0.18356085935E+03 -0.28818174848E+02 -0.57553119543E+03  0.60478197162E+03  0.00000000000E+00 0. -1.
          1    1    1    2  501    0  0.26548370286E+02  0.73811353811E+01  0.10151457424E+03  0.10518795514E+03  0.00000000000E+00 0.  1.
<mgrwt>
<rscale>  4 0.52426680E+03</rscale>
<asrwt>0</asrwt>
<pdfrwt beam="1">  1       21 0.12368478E+00 0.52426680E+03</pdfrwt>
<pdfrwt beam="2">  1        1 0.29079577E-01 0.52426680E+03</pdfrwt>
<totfact> 0.75088717E+02</totfact>
</mgrwt>
</event>
<event>
 5    0  0.2396052E+000  0.4448716E+03  0.7546771E-02  0.1029263E+00
         21   -1    0    0  501  502  0.00000000000E+00  0.00000000000E+00  0.86962777333E+03  0.86962777333E+03  0.00000000000E+00 0. -1.
          2   -1    0    0  503    0 -0.00000000000E+00 -0.00000000000E+00 -0.31663382498E+03  0.31663382498E+03  0.00000000000E+00 0. -1.
         25    1    1    2    0    0  0.21325294619E+03  0.10927077987E+03  0.34038117216E+03  0.43462773122E+03  0.12500000000E+03 0.  0.
         21    1    1    2  503  502 -0.11386836106E+03  0.10059550202E+03  0.41604286216E+03  0.44291886597E+03  0.00000000000E+00 0. -1.
          2    1    1    2  501    0 -0.99384585121E+02 -0.20986628188E+03 -0.20343008597E+03  0.30871500111E+03  0.00000000000E+00 0. -1.
<mgrwt>
<rscale>  4 0.44487157E+03</rscale>
<asrwt>0</asrwt>
<pdfrwt beam="1">  1       21 0.13378889E+00 0.44487157E+03</pdfrwt>
<pdfrwt beam="2">  1        2 0.48712897E-01 0.44487157E+03</pdfrwt>
<totfact> 0.46293443E+02</totfact>
</mgrwt>
</event>
<event>
 5    0  0.2396052E+000  0.5013187E+03  0.7546771E-02  0.1013435E+00
         -1   -1    0    0    0  501 -0.00000000000E+00  0.00000000000E+00  0.49046406012E+03  0.49046406012E+03  0.00000000000E+00 0.  1.
         21   -1    0    0  501  502  0.00000000000E+00 -0.00000000000E+00 -0.65496974357E+03  0.65496974357E+03  0.00000000000E+00 0. -1.
         25    1    1    2    0    0  0.15042922147E+03 -0.19044673076E+03 -0.41756611225E+03  0.49888412084E+03  0.12500000000E+03 0.  0.
         21    1    1    2  503  502 -0.12983283175E+03  0.16297192473E+03 -0.14061844802E+03  0.25137613326E+03  0.00000000000E+00 0. -1.
         -1    1    1    2    0  503 -0.20596389716E+02  0.27474806030E+02  0.39367887682E+03  0.39517354958E+03  0.00000000000E+00 0.  1.
<mgrwt>
<rscale>  4 0.50131871E+03</rscale>
<asrwt>0</asrwt>
<pdfrwt beam="1">  1       21 0.10076458E+00 0.50131871E+03</pdfrwt>
<pdfrwt beam="2">  1       -1 0.75456009E-01 0.50131871E+03</pdfrwt>
<totfact> 0.12203646E+02</totfact>
</mgrwt>
</event>
<event>
 5    0  0.2396052E+000  0.3755262E+03  0.7546771E-02  0.1052600E+00
          2   -1    0    0  503    0 -0.00000000000E+00  0.00000000000E+00  0.31235669441E+03  0.31235669441E+03  0.00000000000E+00 0. -1.
         21   -1    0    0  501  502  0.00000000000E+00 -0.00000000000E+00 -0.42350886422E+03  0.42350886422E+03  0.00000000000E+00 0.  1.
         25    1    1    2    0    0  0.23215274380E+03  0.91065571623E+02 -0.15682908195E+03  0.32001280558E+03  0.12500000000E+03 0.  0.
         21    1    1    2  503  502 -0.73502286554E+02 -0.11908202839E+02 -0.14034234661E+03  0.15887216772E+03  0.00000000000E+00 0.  1.
          2    1    1    2  501    0 -0.15865045725E+03 -0.79157368784E+02  0.18601925874E+03  0.25698058534E+03  0.00000000000E+00 0. -1.
<mgrwt>
<rscale>  4 0.37552624E+03</rscale>
<asrwt>0</asrwt>
<pdfrwt beam="1">  1       21 0.65155209E-01 0.37552624E+03</pdfrwt>
<pdfrwt beam="2">  1        2 0.48054877E-01 0.37552624E+03</pdfrwt>
<totfact> 0.26735013E+03</totfact>
</mgrwt>
</event>
<event>
 5    0  0.2396052E+000  0.3529228E+03  0.7546771E-02  0.1061422E+00
          2   -1    0    0  503    0 -0.00000000000E+00  0.00000000000E+00  0.27615546109E+03  0.27615546109E+03  0.00000000000E+00 0.  1.
         21   -1    0    0  501  502  0.00000000000E+00 -0.00000000000E+00 -0.40946376215E+03  0.40946376215E+03  0.00000000000E+00 0. -1.
         25    1    1    2    0    0 -0.18076840896E+03 -0.11319198596E+03 -0.19715624220E+03  0.31620440731E+03  0.12500000000E+03 0.  0.
         21    1    1    2  503  502  0.92194510511E+02  0.47079159749E+02 -0.11777586344E+03  0.15680379160E+03  0.00000000000E+00 0.  1.
          2    1    1    2  501    0  0.88573898452E+02  0.66112826209E+02  0.18162380458E+03  0.21261102433E+03  0.00000000000E+00 0.  1.
<mgrwt>
<rscale>  4 0.35292283E+03</rscale>
<asrwt>0</asrwt>
<pdfrwt beam="1">  1       21 0.62994425E-01 0.35292283E+03</pdfrwt>
<pdfrwt beam="2">  1        2 0.42485456E-01 0.35292283E+03</pdfrwt>
<totfact> 0.33098233E+03</totfact>
</mgrwt>
</event>
<event>
 5    0  0.2396052E+000  0.3863597E+03  0.7546771E-02  0.1048608E+00
         21   -1    0    0  501  502  0.00000000000E+00  0.00000000000E+00  0.24949188500E+03  0.24949188500E+03  0.00000000000E+00 0.  1.
          3   -1    0    0  503    0 -0.00000000000E+00 -0.00000000000E+00 -0.26915575652E+03  0.26915575652E+03  0.00000000000E+00 0. -1.
         25    1    1    2    0    0 -0.20718967302E+03  0.85713927799E+02  0.61121120928E+02  0.26388487916E+03  0.12500000000E+03 0.  0.
         21    1    1    2  503  502  0.99272995962E+02 -0.10029705655E+02 -0.71252414971E+02  0.12260762359E+03  0.00000000000E+00 0. -1.
          3    1    1    2  501    0  0.10791667706E+03 -0.75684222143E+02 -0.95325774717E+01  0.13215513877E+03  0.00000000000E+00 0. -1.
<mgrwt>
<rscale>  4 0.38635969E+03</rscale>
<asrwt>0</asrwt>
<pdfrwt beam="1">  1       21 0.38383367E-01 0.38635969E+03</pdfrwt>
<pdfrwt beam="2">  1        3 0.41408578E-01 0.38635969E+03</pdfrwt>
<totfact> 0.18568764E+03</totfact>
</mgrwt>
</event>
<event>
 5    0  0.2396052E+000  0.6998236E+03  0.7546771E-02  0.9717534E-01
         21   -1    0    0  501  502  0.00000000000E+00  0.00000000000E+00  0.87134504017E+02  0.87134504017E+02  0.00000000000E+00 0. -1.
          3   -1    0    0  503    0 -0.00000000000E+00 -0.00000000000E+00 -0.25925912296E+04  0.25925912296E+04  0.00000000000E+00 0. -1.
         25    1    1    2    0    0 -0.21610045236E+03  0.82800325916E+02 -0.14491231257E+03  0.30029964671E+03  0.12500000000E+03 0.  0.
         21    1    1    2  503  502  0.70338304534E+02 -0.12719600603E+03 -0.12692943824E+04  0.12775893433E+04  0.00000000000E+00 0. -1.
          3    1    1    2  501    0  0.14576214782E+03  0.44395680117E+02 -0.10912500307E+04  0.11018367436E+04  0.00000000000E+00 0. -1.
<mgrwt>
<rscale>  4 0.69982361E+03</rscale>
<asrwt>0</asrwt>
<pdfrwt beam="1">  1       21 0.13405308E-01 0.69982361E+03</pdfrwt>
<pdfrwt beam="2">  1        3 0.39886019E+00 0.69982361E+03</pdfrwt>
<totfact> 0.28371271E+01</totfact>
</mgrwt>
</event>
<event>
 5    0  0.2396052E+000  0.3598690E+03  0.7546771E-02  0.1058636E+00
         -4   -1    0    0    0  501 -0.00000000000E+00  0.00000000000E+00  0.15732409566E+04  0.15732409566E+04  0.00000000000E+00 0.  1.
         21   -1    0    0  501  502  0.00000000000E+00 -0.00000000000E+00 -0.17410498319E+03  0.17410498319E+03  0.00000000000E+00 0.  1.
         25    1    1    2    0    0  0.87128328414E+02 -0.23057886189E+03  0.41606716303E+02  0.27948895507E+03  0.12500000000E+03 0.  0.
         21    1    1    2  503  502 -0.49085414132E+02  0.61925135781E+02 -0.18379025147E+02  0.81128841280E+02  0.00000000000E+00 0. -1.
         -4    1    1    2    0  503 -0.38042914281E+02  0.16865372611E+03  0.13759082822E+04  0.13867281434E+04  0.00000000000E+00 0.  1.
<mgrwt>
<rscale>  4 0.35986896E+03</rscale>
<asrwt>0</asrwt>
<pdfrwt beam="1">  1       21 0.26785383E-01 0.35986896E+03</pdfrwt>
<pdfrwt beam="2">  1       -4 0.24203706E+00 0.35986896E+03</pdfrwt>
<totfact> 0.42722171E+01</totfact>
</mgrwt>
</event>
<event>
 5    0  0.2396052E+000  0.6836107E+03  0.7546771E-02  0.9745678E-01
          2   -1    0    0  503    0 -0.00000000000E+00  0.00000000000E+00  0.58091959082E+03  0.58091959082E+03  0.00000000000E+00 0. -1.
         21   -1    0    0  501  502  0.00000000000E+00 -0.00000000000E+00 -0.28238274978E+03  0.28238274978E+03  0.00000000000E+00 0.  1.
         25    1    1    2    0    0  0.22785263393E+03 -0.44079169092E+02  0.31408315344E+03  0.41004027023E+03  0.12500000000E+03 0.  0.
         21    1    1    2  503  502 -0.22931273887E+03 -0.39752640730E+01 -0.17386759003E+03  0.28780214349E+03  0.00000000000E+00 0.  1.
          2    1    1    2  501    0  0.14601049424E+01  0.48054433165E+02  0.15832127762E+03  0.16545992688E+03  0.00000000000E+00 0. -1.
<mgrwt>
<rscale>  4 0.68361073E+03</rscale>
<asrwt>0</asrwt>
<pdfrwt beam="1">  1       21 0.43443500E-01 0.68361073E+03</pdfrwt>
<pdfrwt beam="2">  1        2 0.89372244E-01 0.68361073E+03</pdfrwt>
<totfact> 0.30335383E+03</totfact>
</mgrwt>
</event>
<event>
 5    0  0.2396052E+000  0.5449287E+03  0.7546771E-02  0.1002675E+00
          2   -1    0    0  503    0 -0.00000000000E+00  0.00000000000E+00  0.22638878005E+03  0.22638878005E+03  0.00000000000E+00 0. -1.
         21   -1    0    0  501  502  0.00000000000E+00 -0.00000000000E+00 -0.91511143763E+03  0.91511143763E+03  0.00000000000E+00 0. -1.
         25    1    1    2    0    0 -0.22571666006E+03 -0.30678619250E+03 -0.55537936498E+03  0.68493577625E+03  0.12500000000E+03 0.  0.
         21    1    1    2  503  502  0.12926282163E+03  0.41238010430E+02 -0.10703812098E+03  0.17281958773E+03  0.00000000000E+00 0.  1.
          2    1    1    2  501    0  0.96453838437E+02  0.26554818207E+03 -0.26305171626E+02  0.28374485370E+03  0.00000000000E+00 0. -1.
<mgrwt>
<rscale>  4 0.54492875E+03</rscale>
<asrwt>0</asrwt>
<pdfrwt beam="1">  1       21 0.14078638E+00 0.54492875E+03</pdfrwt>
<pdfrwt beam="2">  1        2 0.34829043E-01 0.54492875E+03</pdfrwt>
<totfact> 0.57155523E+02</totfact>
</mgrwt>
</event>
<event>
 5    0  0.2396052E+000  0.6953995E+03  0.7546771E-02  0.9725132E-01
          2   -1    0    0  503    0 -0.00000000000E+00  0.00000000000E+00  0.14444981323E+04  0.14444981323E+04  0.00000000000E+00 0.  1.
         21   -1    0    0  501  502  0.00000000000E+00 -0.00000000000E+00 -0.94371259427E+02  0.94371259427E+02  0.00000000000E+00 0.  1.
         25    1    1    2    0    0 -0.30258325482E+02 -0.33228468047E+03  0.76743158009E+03  0.84611163877E+03  0.12500000000E+03 0.  0.
         21    1    1    2  503  502  0.62796568691E+02  0.32063797933E+03  0.45298682098E+03  0.55852411122E+03  0.00000000000E+00 0.  1.
          2    1    1    2  501    0 -0.32538243209E+02  0.11646701135E+02  0.12970847185E+03  0.13423364179E+03  0.00000000000E+00 0.  1.
<mgrwt>
<rscale>  4 0.69539954E+03</rscale>
<asrwt>0</asrwt>
<pdfrwt beam="1">  1       21 0.14518656E-01 0.69539954E+03</pdfrwt>
<pdfrwt beam="2">  1        2 0.22223047E+00 0.69539954E+03</pdfrwt>
<totfact> 0.70539040E+03</totfact>
</mgrwt>
</event>
<event>
 5    0  0.2396052E+000  0.7051675E+03  0.7546771E-02  0.9708436E-01
          2   -1    0    0  503    0 -0.00000000000E+00  0.00000000000E+00  0.17724536744E+04  0.17724536744E+04  0.00000000000E+00 0. -1.
         21   -1    0    0  501  502  0.00000000000E+00 -0.00000000000E+00 -0.46985777857E+03  0.46985777857E+03  0.00000000000E+00 0.  1.
         25    1    1    2    0    0 -0.20962824131E+03 -0.14360858366E+03  0.11397586418E+03  0.30525877951E+03  0.12500000000E+03 0.  0.
         21    1    1    2  503  502  0.24250383132E+03  0.15357935688E+03 -0.31894697887E+03  0.42909428147E+03  0.00000000000E+00 0.  1.
          2    1    1    2  501    0 -0.32875590011E+02 -0.99707732156E+01  0.15075670105E+04  0.15079583919E+04  0.00000000000E+00 0. -1.
<mgrwt>
<rscale>  4 0.70516754E+03</rscale>
<asrwt>0</asrwt>
<pdfrwt beam="1">  1       21 0.72285813E-01 0.70516754E+03</pdfrwt>
<pdfrwt beam="2">  1        2 0.27268518E+00 0.70516754E+03</pdfrwt>
<totfact> 0.17565551E+02</totfact>
</mgrwt>
</event>
<event>
 5    0  0.2396052E+000  0.6321828E+03  0.7546771E-02  0.9840798E-01
         -2   -1    0    0    0  501 -0.00000000000E+00  0.00000000000E+00  0.16642887328E+04  0.16642887328E+04  0.00000000000E+00 0.  1.
         21   -1    0    0  501  502  0.00000000000E+00 -0.00000000000E+00 -0.19154065215E+03  0.19154065215E+03  0.00000000000E+00 0.  1.
         25    1    1    2    0    0 -0.29631937818E+03  0.64222687181E+02  0.39408725511E+02  0.33031466071E+03  0.12500000000E+03 0.  0.
         21    1    1    2  503  502  0.23836643668E+03 -0.68088126887E+02  0.29344364809E+03  0.38414024231E+03  0.00000000000E+00 0.  1.
         -2    1    1    2    0  503  0.57952941496E+02  0.38654397067E+01  0.11398957071E+04  0.11413744820E+04  0.00000000000E+00 0.  1.
<mgrwt>
<rscale>  4 0.63218281E+03</rscale>
<asrwt>0</asrwt>
<pdfrwt beam="1">  1       21 0.29467794E-01 0.63218281E+03</pdfrwt>
<pdfrwt beam="2">  1       -2 0.25604441E+00 0.63218281E+03</pdfrwt>
<totfact> 0.52479797E+01</totfact>
</mgrwt>
</event>
<event>
 5    0  0.2396052E+000  0.4210239E+03  0.7546771E-02  0.1036734E+00
          4   -1    0    0  503    0 -0.00000000000E+00  0.00000000000E+00  0.26565241245E+03  0.26565241245E+03  0.00000000000E+00 0. -1.
         21   -1    0    0  501  502  0.00000000000E+00 -0.00000000000E+00 -0.68090996399E+03  0.68090996399E+03  0.00000000000E+00 0. -1.
         25    1    1    2    0    0 -0.88116526484E+02  0.25506248872E+03 -0.34102124586E+03  0.45248412737E+03  0.12500000000E+03 0.  0.
         21    1    1    2  503  502 -0.85760271675E+02  0.71803728917E+02 -0.51520451835E+02  0.12314607847E+03  0.00000000000E+00 0.  1.
          4    1    1    2  501    0  0.17387679816E+03 -0.32686621764E+03 -0.22715853833E+02  0.37093217060E+03  0.00000000000E+00 0. -1.
<mgrwt>
<rscale>  4 0.42102393E+03</rscale>
<asrwt>0</asrwt>
<pdfrwt beam="1">  1       21 0.10475538E+00 0.42102393E+03</pdfrwt>
<pdfrwt beam="2">  1        4 0.40869602E-01 0.42102393E+03</pdfrwt>
<totfact> 0.17273600E+02</totfact>
</mgrwt>
</event>
<event>
 5    0  0.2396052E+000  0.7148658E+03  0.7546771E-02  0.9692142E-01
          1   -1    0    0  503    0 -0.00000000000E+00  0.00000000000E+00  0.16535658063E+04  0.16535658063E+04  0.00000000000E+00 0. -1.
         21   -1    0    0  501  502  0.00000000000E+00 -0.00000000000E+00 -0.98651100000E+02  0.98651100000E+02  0.00000000000E+00 0. -1.
         25    1    1    2    0    0 -0.23694580822E+02  0.25242333779E+03  0.17792359422E+03  0.33400715562E+03  0.12500000000E+03 0.  0.
         21    1    1    2  503  502  0.76268444563E+02 -0.26918585509E+03  0.10520794094E+04  0.10886454813E+04  0.00000000000E+00 0. -1.
          1    1    1    2  501    0 -0.52573863741E+02  0.16762517294E+02  0.32491170269E+03  0.32956426942E+03  0.00000000000E+00 0. -1.
<mgrwt>
<rscale>  4 0.71486582E+03</rscale>
<asrwt>0</asrwt>
<pdfrwt beam="1">  1       21 0.15177094E-01 0.71486582E+03</pdfrwt>
<pdfrwt beam="2">  1        1 0.25439472E+00 0.71486582E+03</pdfrwt>
<totfact> 0.21644920E+03</totfact>
</mgrwt>
</event>
<event>
 5    0  0.2396052E+000  0.4415309E+03  0.7546771E-02  0.1030278E+00
         21   -1    0    0  501  502  0.00000000000E+00  0.00000000000E+00  0.20082285121E+04  0.20082285121E+04  0.00000000000E+00 0. -1.
          2   -1    0    0  503    0 -0.00000000000E+00 -0.00000000000E+00 -0.80528734409E+03  0.80528734409E+03  0.00000000000E+00 0. -1.
         25    1    1    2    0    0 -0.19265887322E+02  0.29643907591E+03  0.19338756383E+04  0.19605477002E+04  0.12500000000E+03 0.  0.
         21    1    1    2  503  502  0.27781554809E+02 -0.30822399014E+02  0.27193011279E+02  0.49611439518E+02  0.00000000000E+00 0.  1.
          2    1    1    2  501    0 -0.85156674876E+01 -0.26561667689E+03 -0.75812748158E+03  0.80335671651E+03  0.00000000000E+00 0. -1.
<mgrwt>
<rscale>  4 0.44153088E+03</rscale>
<asrwt>0</asrwt>
<pdfrwt beam="1">  1       21 0.30895823E+00 0.44153088E+03</pdfrwt>
<pdfrwt beam="2">  1        2 0.12389036E+00 0.44153088E+03</pdfrwt>
<totfact> 0.10671297E+01</totfact>
</mgrwt>
</event>
<event>
 5    0  0.2396052E+000  0.4045980E+03  0.7546771E-02  0.1042199E+00
         21   -1    0    0  501  502  0.00000000000E+00  0.00000000000E+00  0.94976266432E+03  0.94976266432E+03  0.00000000000E+00 0.  1.
          2   -1    0    0  503    0 -0.00000000000E+00 -0.00000000000E+00 -0.24709356867E+03  0.24709356867E+03  0.00000000000E+00 0. -1.
         25    1    1    2    0    0 -0.12822811705E+03 -0.16294310856E+03  0.39372053459E+03  0.46220532882E+03  0.12500000000E+03 0.  0.
         21    1    1    2  503  502  0.11521585527E+03  0.75820821447E+02  0.50298627508E+03  0.52155410380E+03  0.00000000000E+00 0.  1.
          2    1    1    2  501    0  0.13012261777E+02  0.87122287117E+02 -0.19403771402E+03  0.21309680038E+03  0.00000000000E+00 0. -1.
<mgrwt>
<rscale>  4 0.40459797E+03</rscale>
<asrwt>0</asrwt>
<pdfrwt beam="1">  1       21 0.14611733E+00 0.40459797E+03</pdfrwt>
<pdfrwt beam="2">  1        2 0.38014396E-01 0.40459797E+03</pdfrwt>
<totfact> 0.48667428E+02</totfact>
</mgrwt>
</event>
<event>
 5    0  0.2396052E+000  0.7749748E+03  0.7546771E-02  0.9596964E-01
          2   -1    0    0  503    0 -0.00000000000E+00  0.00000000000E+00  0.47095359005E+04  0.47095359005E+04  0.00000000000E+00 0.  1.
         21   -1    0    0  501  502  0.00000000000E+00 -0.00000000000E+00 -0.88163765508E+02  0.88163765508E+02  0.00000000000E+00 0. -1.
         25    1    1    2    0    0  0.99825484247E+02  0.21434050961E+03  0.12746701608E+03  0.29627659636E+03  0.12500000000E+03 0.  0.
         21    1    1    2  503  502 -0.32595175213E+02 -0.12319663322E+03  0.15094883518E+04  0.15148580594E+04  0.00000000000E+00 0.  1.
          2    1    1    2  501    0 -0.67230309034E+02 -0.91143876387E+02  0.29844167671E+04  0.29865650102E+04  0.00000000000E+00 0.  1.
<mgrwt>
<rscale>  4 0.77497475E+03</rscale>
<asrwt>0</asrwt>
<pdfrwt beam="1">  1       21 0.13563660E-01 0.77497475E+03</pdfrwt>
<pdfrwt beam="2">  1        2 0.72454379E+00 0.77497475E+03</pdfrwt>
<totfact> 0.49207473E+01</totfact>
</mgrwt>
</event>
<event>
 5    0  0.2396052E+000  0.4323847E+03  0.7546771E-02  0.1033109E+00
         -1   -1    0    0    0  501 -0.00000000000E+00  0.00000000000E+00  0.13993548233E+03  0.13993548233E+03  0.00000000000E+00 0.  1.
         21   -1    0    0  501  502  0.00000000000E+00 -0.00000000000E+00 -0.11230429847E+04  0.11230429847E+04  0.00000000000E+00 0.  1.
         25    1    1    2    0    0 -0.61589534284E+01 -0.24482038610E+03 -0.79355790762E+03  0.83984171539E+03  0.12500000000E+03 0.  0.
         21    1    1    2  503  502  0.26889492637E+02  0.14519353542E+03 -0.26025241287E+03  0.29922487521E+03  0.00000000000E+00 0.  1.
         -1    1    1    2    0  503 -0.20730539209E+02  0.99626850682E+02  0.70702818107E+02  0.12391187643E+03  0.00000000000E+00 0.  1.
<mgrwt>
<rscale>  4 0.43238467E+03</rscale>
<asrwt>0</asrwt>
<pdfrwt beam="1">  1       21 0.17277584E+00 0.43238467E+03</pdfrwt>
<pdfrwt beam="2">  1       -1 0.21528536E-01 0.43238467E+03</pdfrwt>
<totfact> 0.29777888E+02</totfact>
</mgrwt>
</event>
<event>
 5    0  0.2396052E+000  0.4535060E+03  0.7546771E-02  0.1026682E+00
          2   -1    0    0  503    0 -0.00000000000E+00  0.00000000000E+00  0.23135377278E+03  0.23135377278E+03  0.00000000000E+00 0.  1.
         21   -1    0    0  501  502  0.00000000000E+00 -0.00000000000E+00 -0.38372700059E+03  0.38372700059E+03  0.00000000000E+00 0. -1.
         25    1    1    2    0    0  0.14185370558E+03  0.16724430005E+03 -0.24850262479E+03  0.35421982470E+03  0.12500000000E+03 0.  0.
         21    1    1    2  503  502 -0.12270803754E+03 -0.73943865023E+02  0.34321457188E+02  0.14731910968E+03  0.00000000000E+00 0.  1.
          2    1    1    2  501    0 -0.19145668036E+02 -0.93300435027E+02  0.61807939792E+02  0.11354183899E+03  0.00000000000E+00 0.  1.
<mgrwt>
<rscale>  4 0.45350604E+03</rscale>
<asrwt>0</asrwt>
<pdfrwt beam="1">  1       21 0.59034923E-01 0.45350604E+03</pdfrwt>
<pdfrwt beam="2">  1        2 0.35592888E-01 0.45350604E+03</pdfrwt>
<totfact> 0.45565299E+03</totfact>
</mgrwt>
</event>
<event>
 5    0  0.2396052E+000  0.6938473E+03  0.7546771E-02  0.9727812E-01
          2   -1    0    0  503    0 -0.00000000000E+00  0.00000000000E+00  0.74646238588E+03  0.74646238588E+03  0.00000000000E+00 0. -1.
         21   -1    0    0  501  502  0.00000000000E+00 -0.00000000000E+00 -0.32268154952E+03  0.32268154952E+03  0.00000000000E+00 0.  1.
         25    1    1    2    0    0 -0.26409805407E+03  0.22130293640E+02 -0.22187383377E+03  0.36754663673E+03  0.12500000000E+03 0.  0.
         21    1    1    2  503  502  0.15707626989E+03 -0.98480990995E+01  0.28959386479E+03  0.32959755179E+03  0.00000000000E+00 0. -1.
          2    1    1    2  501    0  0.10702178418E+03 -0.12282194540E+02  0.35606080534E+03  0.37199974689E+03  0.00000000000E+00 0. -1.
<mgrwt>
<rscale>  4 0.69384726E+03</rscale>
<asrwt>0</asrwt>
<pdfrwt beam="1">  1       21 0.49643316E-01 0.69384726E+03</pdfrwt>
<pdfrwt beam="2">  1        2 0.11484037E+00 0.69384726E+03</pdfrwt>
<totfact> 0.16735218E+03</totfact>
</mgrwt>
</event>
<event>
 5    0  0.2396052E+000  0.8864852E+03  0.7546771E-02  0.9442635E-01
         21   -1    0    0  501  502  0.00000000000E+00  0.00000000000E+00  0.29440551097E+03  0.29440551097E+03  0.00000000000E+00 0. -1.
          2   -1    0    0  503    0 -0.00000000000E+00 -0.00000000000E+00 -0.16083466950E+04  0.16083466950E+04  0.00000000000E+00 0.  1.
         25    1    1    2    0    0 -0.44439855493E+03  0.29829501455E+03 -0.23730084178E+03  0.59867076164E+03  0.12500000000E+03 0.  0.
         21    1    1    2  503  502  0.28435228614E+03 -0.17958250935E+03 -0.17197877554E+03  0.37773376806E+03  0.00000000000E+00 0. -1.
          2    1    1    2  501    0  0.16004626879E+03 -0.11871250521E+03 -0.90466156675E+03  0.92634767631E+03  0.00000000000E+00 0.  1.
<mgrwt>
<rscale>  4 0.88648519E+03</rscale>
<asrwt>0</asrwt>
<pdfrwt beam="1">  1       21 0.45293154E-01 0.88648519E+03</pdfrwt>
<pdfrwt beam="2">  1        2 0.24743796E+00 0.88648519E+03</pdfrwt>
<totfact> 0.58552017E+02</totfact>
</mgrwt>
</event>
<event>
 5    0  0.2396052E+000  0.8139672E+03  0.7546771E-02  0.9540017E-01
          1   -1    0    0  503    0 -0.00000000000E+00  0.00000000000E+00  0.37158034291E+03  0.37158034291E+03  0.00000000000E+00 0. -1.
         21   -1    0    0  501  502  0.00000000000E+00 -0.00000000000E+00 -0.84526694091E+03  0.84526694091E+03  0.00000000000E+00 0.  1.
         25    1    1    2    0    0 -0.61527166318E+02 -0.43179987009E+03 -0.33079953279E+03  0.56150694644E+03  0.12500000000E+03 0.  0.
         21    1    1    2  503  502 -0.31549586477E+02  0.35840254068E+03 -0.29304884385E+03  0.46403166104E+03  0.00000000000E+00 0. -1.
          1    1    1    2  501    0  0.93076752795E+02  0.73397329415E+02  0.15016177864E+03  0.19130867633E+03  0.00000000000E+00 0. -1.
<mgrwt>
<rscale>  4 0.81396722E+03</rscale>
<asrwt>0</asrwt>
<pdfrwt beam="1">  1       21 0.13004107E+00 0.81396722E+03</pdfrwt>
<pdfrwt beam="2">  1        1 0.57166207E-01 0.81396722E+03</pdfrwt>
<totfact> 0.26082634E+02</totfact>
</mgrwt>
</event>
<event>
 5    0  0.2396052E+000  0.8125483E+03  0.7546771E-02  0.9542029E-01
         -1   -1    0    0    0  501 -0.00000000000E+00  0.00000000000E+00  0.29667161193E+03  0.29667161193E+03  0.00000000000E+00 0.  1.
         21   -1    0    0  501  502  0.00000000000E+00 -0.00000000000E+00 -0.84555642165E+03  0.84555642165E+03  0.00000000000E+00 0.  1.
         25    1    1    2    0    0  0.29938260681E+03 -0.76129335258E+02 -0.49810661871E+03  0.59930027912E+03  0.12500000000E+03 0.  0.
         21    1    1    2  503  502 -0.39489724217E+03  0.89490324603E+02 -0.12216442870E+03  0.42293793600E+03  0.00000000000E+00 0.  1.
         -1    1    1    2    0  503  0.95514635353E+02 -0.13360989344E+02  0.71386237683E+02  0.11998981846E+03  0.00000000000E+00 0.  1.
<mgrwt>
<rscale>  4 0.81254833E+03</rscale>
<asrwt>0</asrwt>
<pdfrwt beam="1">  1       21 0.13008560E+00 0.81254833E+03</pdfrwt>
<pdfrwt beam="2">  1       -1 0.45641787E-01 0.81254833E+03</pdfrwt>
<totfact> 0.16083634E+02</totfact>
</mgrwt>
</event>
<event>
 5    0  0.2396052E+000  0.5815055E+03  0.7546771E-02  0.9944537E-01
          2   -1    0    0  503    0 -0.00000000000E+00  0.00000000000E+00  0.56480516772E+03  0.56480516772E+03  0.00000000000E+00 0. -1.
         21   -1    0    0  501  502  0.00000000000E+00 -0.00000000000E+00 -0.22468768598E+03  0.22468768598E+03  0.00000000000E+00 0. -1.
         25    1    1    2    0    0  0.14936488553E+03  0.22654189815E+03  0.19232254993E+03  0.35530840668E+03  0.12500000000E+03 0.  0.
         21    1    1    2  503  502 -0.12810887946E+03 -0.20704015865E+03 -0.37777658001E+02  0.24638316448E+03  0.00000000000E+00 0. -1.
          2    1    1    2  501    0 -0.21256006068E+02 -0.19501739495E+02  0.18557258981E+03  0.18780128254E+03  0.00000000000E+00 0. -1.
<mgrwt>
<rscale>  4 0.58150548E+03</rscale>
<asrwt>0</asrwt>
<pdfrwt beam="1">  1       21 0.34567336E-01 0.58150548E+03</pdfrwt>
<pdfrwt beam="2">  1        2 0.86893102E-01 0.58150548E+03</pdfrwt>
<totfact> 0.50893297E+03</totfact>
</mgrwt>
</event>
<event>
 5    0  0.2396052E+000  0.5842069E+03  0.7546771E-02  0.9938725E-01
         21   -1    0    0  501  502  0.00000000000E+00  0.00000000000E+00  0.74232396096E+03  0.74232396096E+03  0.00000000000E+00 0. -1.
          1   -1    0    0  503    0 -0.00000000000E+00 -0.00000000000E+00 -0.77505379416E+03  0.77505379416E+03  0.00000000000E+00 0. -1.
         25    1    1    2    0    0  0.21304653688E+03  0.60960840123E+02  0.54336434663E+03  0.59997905304E+03  0.12500000000E+03 0.  0.
         21    1    1    2  503  502 -0.23671002320E+03  0.44956673898E+02  0.78856195620E+02  0.25351733116E+03  0.00000000000E+00 0.  1.
          1    1    1    2  501    0  0.23663486323E+02 -0.10591751402E+03 -0.65495037544E+03  0.66388137092E+03  0.00000000000E+00 0. -1.
<mgrwt>
<rscale>  4 0.58420688E+03</rscale>
<asrwt>0</asrwt>
<pdfrwt beam="1">  1       21 0.11420369E+00 0.58420688E+03</pdfrwt>
<pdfrwt beam="2">  1        1 0.11923904E+00 0.58420688E+03</pdfrwt>
<totfact> 0.13550623E+02</totfact>
</mgrwt>
</event>
<event>
 5    0  0.2396052E+000  0.5747800E+03  0.7546771E-02  0.9959157E-01
         21   -1    0    0  501  502  0.00000000000E+00  0.00000000000E+00  0.35622573418E+03  0.35622573418E+03  0.00000000000E+00 0.  1.
          3   -1    0    0  503    0 -0.00000000000E+00 -0.00000000000E+00 -0.34889483438E+03  0.34889483438E+03  0.00000000000E+00 0.  1.
         25    1    1    2    0    0 -0.20399326294E+03  0.22698949689E+03 -0.30437737782E+02  0.33119320480E+03  0.12500000000E+03 0.  0.
         21    1    1    2  503  502  0.13253619663E+03 -0.17418058171E+03  0.12277921328E+03  0.25095707536E+03  0.00000000000E+00 0.  1.
          3    1    1    2  501    0  0.71457066312E+02 -0.52808915183E+02 -0.85010575697E+02  0.12297028840E+03  0.00000000000E+00 0.  1.
<mgrwt>
<rscale>  4 0.57477996E+03</rscale>
<asrwt>0</asrwt>
<pdfrwt beam="1">  1       21 0.54803959E-01 0.57477996E+03</pdfrwt>
<pdfrwt beam="2">  1        3 0.53676129E-01 0.57477996E+03</pdfrwt>
<totfact> 0.51192329E+02</totfact>
</mgrwt>
</event>
<event>
 5    0  0.2396052E+000  0.1133208E+04  0.7546771E-02  0.9173417E-01
          2   -1    0    0  503    0 -0.00000000000E+00  0.00000000000E+00  0.36571929259E+04  0.36571929259E+04  0.00000000000E+00 0.  1.
         21   -1    0    0  501  502  0.00000000000E+00 -0.00000000000E+00 -0.13501584677E+03  0.13501584677E+03  0.00000000000E+00 0.  1.
         25    1    1    2    0    0  0.45896238035E+03 -0.22195376521E+03  0.77076835039E+03  0.93253353314E+03  0.12500000000E+03 0.  0.
         21    1    1    2  503  502 -0.49231466731E+03  0.29203309143E+03  0.14944743466E+04  0.16003470345E+04  0.00000000000E+00 0.  1.
          2    1    1    2  501    0  0.33352286963E+02 -0.70079326219E+02  0.12569343821E+04  0.12593282050E+04  0.00000000000E+00 0.  1.
<mgrwt>
<rscale>  4 0.11332076E+04</rscale>
<asrwt>0</asrwt>
<pdfrwt beam="1">  1       21 0.20771671E-01 0.11332076E+04</pdfrwt>
<pdfrwt beam="2">  1        2 0.56264499E+00 0.11332076E+04</pdfrwt>
<totfact> 0.16232055E+02</totfact>
</mgrwt>
</event>
<event>
 5    0  0.2396052E+000  0.8761029E+03  0.7546771E-02  0.9455957E-01
          2   -1    0    0  503    0 -0.00000000000E+00  0.00000000000E+00  0.11089025858E+04  0.11089025858E+04  0.00000000000E+00 0.  1.
         21   -1    0    0  501  502  0.00000000000E+00 -0.00000000000E+00 -0.36822127584E+03  0.36822127584E+03  0.00000000000E+00 0. -1.
         25    1    1    2    0    0 -0.45509427063E+03  0.10540229399E+03 -0.94898589027E+02  0.49279933131E+03  0.12500000000E+03 0.  0.
         21    1    1    2  503  502  0.25437528560E+03 -0.11811427779E+03  0.29265526837E+03  0.40534537699E+03  0.00000000000E+00 0.  1.
          2    1    1    2  501    0  0.20071898503E+03  0.12711983804E+02  0.54292463063E+03  0.57897915336E+03  0.00000000000E+00 0.  1.
<mgrwt>
<rscale>  4 0.87610286E+03</rscale>
<asrwt>0</asrwt>
<pdfrwt beam="1">  1       21 0.56649428E-01 0.87610286E+03</pdfrwt>
<pdfrwt beam="2">  1        2 0.17060040E+00 0.87610286E+03</pdfrwt>
<totfact> 0.70135191E+02</totfact>
</mgrwt>
</event>
<event>
 5    0  0.2396052E+000  0.4881438E+03  0.7546771E-02  0.1016921E+00
         21   -1    0    0  501  502  0.00000000000E+00  0.00000000000E+00  0.12978234362E+03  0.12978234362E+03  0.00000000000E+00 0. -1.
          2   -1    0    0  503    0 -0.00000000000E+00 -0.00000000000E+00 -0.14280254819E+04  0.14280254819E+04  0.00000000000E+00 0.  1.
         25    1    1    2    0    0 -0.41723493824E+02  0.28032931080E+03 -0.11247993315E+03  0.32954833908E+03  0.12500000000E+03 0.  0.
         21    1    1    2  503  502  0.53891608901E+02 -0.23636725070E+02 -0.31151386058E+03  0.31702347802E+03  0.00000000000E+00 0.  1.
          2    1    1    2  501    0 -0.12168115077E+02 -0.25669258573E+03 -0.87424934460E+03  0.91123600847E+03  0.00000000000E+00 0.  1.
<mgrwt>
<rscale>  4 0.48814381E+03</rscale>
<asrwt>0</asrwt>
<pdfrwt beam="1">  1       21 0.19966515E-01 0.48814381E+03</pdfrwt>
<pdfrwt beam="2">  1        2 0.21969622E+00 0.48814381E+03</pdfrwt>
<totfact> 0.40735486E+03</totfact>
</mgrwt>
</event>
<event>
 5    0  0.2396052E+000  0.4774437E+03  0.7546771E-02  0.1019840E+00
          1   -1    0    0  503    0 -0.00000000000E+00  0.00000000000E+00  0.93974421793E+03  0.93974421793E+03  0.00000000000E+00 0. -1.
         21   -1    0    0  501  502  0.00000000000E+00 -0.00000000000E+00 -0.69066021424E+03  0.69066021424E+03  0.00000000000E+00 0. -1.
         25    1    1    2    0    0 -0.21255670593E+03  0.38524094035E+02 -0.15778178862E+03  0.29527030307E+03  0.12500000000E+03 0.  0.
         21    1    1    2  503  502  0.15907775019E+03 -0.20267086675E+02 -0.44932304672E+03  0.47708247266E+03  0.00000000000E+00 0. -1.
          1    1    1    2  501    0  0.53478955738E+02 -0.18257007360E+02  0.85618883904E+03  0.85805165644E+03  0.00000000000E+00 0. -1.
<mgrwt>
<rscale>  4 0.47744374E+03</rscale>
<asrwt>0</asrwt>
<pdfrwt beam="1">  1       21 0.10625542E+00 0.47744374E+03</pdfrwt>
<pdfrwt beam="2">  1        1 0.14457603E+00 0.47744374E+03</pdfrwt>
<totfact> 0.12225689E+02</totfact>
</mgrwt>
</event>
<event>
 5    0  0.2396052E+000  0.7742391E+03  0.7546771E-02  0.9598072E-01
         21   -1    0    0  501  502  0.00000000000E+00  0.00000000000E+00  0.34590587324E+03  0.34590587324E+03  0.00000000000E+00 0.  1.
          2   -1    0    0  503    0 -0.00000000000E+00 -0.00000000000E+00 -0.55090225131E+03  0.55090225131E+03  0.00000000000E+00 0. -1.
         25    1    1    2    0    0  0.92112109272E+02 -0.29426330187E+03  0.18830516835E+03  0.38230794908E+03  0.12500000000E+03 0.  0.
         21    1    1    2  503  502 -0.10212302886E+03  0.26148662548E+03 -0.28144747072E+03  0.39751358103E+03  0.00000000000E+00 0. -1.
          2    1    1    2  501    0  0.10010919588E+02  0.32776676387E+02 -0.11185407570E+03  0.11698659443E+03  0.00000000000E+00 0. -1.
<mgrwt>
<rscale>  4 0.77423907E+03</rscale>
<asrwt>0</asrwt>
<pdfrwt beam="1">  1       21 0.53216289E-01 0.77423907E+03</pdfrwt>
<pdfrwt beam="2">  1        2 0.84754191E-01 0.77423907E+03</pdfrwt>
<totfact> 0.20732644E+03</totfact>
</mgrwt>
</event>
<event>
 5    0  0.2396052E+000  0.7325437E+03  0.7546771E-02  0.9663142E-01
          2   -1    0    0  503    0 -0.00000000000E+00  0.00000000000E+00  0.11273862653E+04  0.11273862653E+04  0.00000000000E+00 0.  1.
         21   -1    0    0  501  502  0.00000000000E+00 -0.00000000000E+00 -0.15456074880E+03  0.15456074880E+03  0.00000000000E+00 0.  1.
         25    1    1    2    0    0 -0.91784609228E+02 -0.33553202280E+03  0.20600318011E+03  0.42316481781E+03  0.12500000000E+03 0.  0.
         21    1    1    2  503  502  0.86250452689E+02  0.30534051475E+03  0.51357443357E+03  0.60368093340E+03  0.00000000000E+00 0.  1.
          2    1    1    2  501    0  0.55341565395E+01  0.30191508057E+02  0.25324790279E+03  0.25510126286E+03  0.00000000000E+00 0.  1.
<mgrwt>
<rscale>  4 0.73254369E+03</rscale>
<asrwt>0</asrwt>
<pdfrwt beam="1">  1       21 0.23778577E-01 0.73254369E+03</pdfrwt>
<pdfrwt beam="2">  1        2 0.17344404E+00 0.73254369E+03</pdfrwt>
<totfact> 0.41821301E+03</totfact>
</mgrwt>
</event>
<event>
 5    0  0.2396052E+000  0.6490933E+03  0.7546771E-02  0.9808482E-01
          2   -1    0    0  503    0 -0.00000000000E+00  0.00000000000E+00  0.13559085469E+04  0.13559085469E+04  0.00000000000E+00 0.  1.
         21   -1    0    0  501  502  0.00000000000E+00 -0.00000000000E+00 -0.18669793743E+03  0.18669793743E+03  0.00000000000E+00 0.  1.
         25    1    1    2    0    0 -0.26004938399E+02 -0.21689239848E+03 -0.78267126060E+02  0.26357031768E+03  0.12500000000E+03 0.  0.
         21    1    1    2  503  502  0.33726283577E+02  0.16467689180E+03  0.45930831480E+03  0.48910128699E+03  0.00000000000E+00 0.  1.
          2    1    1    2  501    0 -0.77213451782E+01  0.52215506686E+02  0.78816942076E+03  0.78993487968E+03  0.00000000000E+00 0.  1.
<mgrwt>
<rscale>  4 0.64909333E+03</rscale>
<asrwt>0</asrwt>
<pdfrwt beam="1">  1       21 0.28722760E-01 0.64909333E+03</pdfrwt>
<pdfrwt beam="2">  1        2 0.20860131E+00 0.64909333E+03</pdfrwt>
<totfact> 0.21425383E+03</totfact>
</mgrwt>
</event>
<event>
 5    0  0.2396052E+000  0.5431697E+03  0.7546771E-02  0.1003087E+00
          2   -1    0    0  503    0 -0.00000000000E+00  0.00000000000E+00  0.70824271432E+03  0.70824271432E+03  0.00000000000E+00 0. -1.
         21   -1    0    0  501  502  0.00000000000E+00 -0.00000000000E+00 -0.39537673106E+03  0.39537673106E+03  0.00000000000E+00 0. -1.
         25    1    1    2    0    0 -0.15521314764E+03 -0.16008172994E+03  0.44317561823E+02  0.25943463097E+03  0.12500000000E+03 0.  0.
         21    1    1    2  503  502  0.14982365268E+03  0.13275791815E+03 -0.25259484067E+03  0.32229791384E+03  0.00000000000E+00 0. -1.
          2    1    1    2  501    0  0.53894949657E+01  0.27323811797E+02  0.52114326211E+03  0.52188690057E+03  0.00000000000E+00 0. -1.
<mgrwt>
<rscale>  4 0.54316971E+03</rscale>
<asrwt>0</asrwt>
<pdfrwt beam="1">  1       21 0.60827190E-01 0.54316971E+03</pdfrwt>
<pdfrwt beam="2">  1        2 0.10896042E+00 0.54316971E+03</pdfrwt>
<totfact> 0.11781862E+03</totfact>
</mgrwt>
</event>
<event>
 5    0  0.2396052E+000  0.4600994E+03  0.7546771E-02  0.1024752E+00
         21   -1    0    0  501  502  0.00000000000E+00  0.00000000000E+00  0.76639812769E+02  0.76639812769E+02  0.00000000000E+00 0. -1.
          1   -1    0    0  503    0 -0.00000000000E+00 -0.00000000000E+00 -0.19020622351E+04  0.19020622351E+04  0.00000000000E+00 0. -1.
         25    1    1    2    0    0 -0.10607327104E+03 -0.18196675306E+03 -0.47867180392E+03  0.53769427551E+03  0.12500000000E+03 0.  0.
         21    1    1    2  503  502  0.94073523333E+02  0.16015884969E+03 -0.13651132062E+03  0.23051252805E+03  0.00000000000E+00 0. -1.
          1    1    1    2  501    0  0.11999747709E+02  0.21807903365E+02 -0.12102392978E+04  0.12104952443E+04  0.00000000000E+00 0. -1.
<mgrwt>
<rscale>  4 0.46009935E+03</rscale>
<asrwt>0</asrwt>
<pdfrwt beam="1">  1       21 0.11790740E-01 0.46009935E+03</pdfrwt>
<pdfrwt beam="2">  1        1 0.29262497E+00 0.46009935E+03</pdfrwt>
<totfact> 0.24666398E+03</totfact>
</mgrwt>
</event>
<event>
 5    0  0.2396052E+000  0.4539367E+03  0.7546771E-02  0.1026555E+00
          2   -1    0    0  503    0 -0.00000000000E+00  0.00000000000E+00  0.46910967127E+03  0.46910967127E+03  0.00000000000E+00 0.  1.
         21   -1    0    0  501  502  0.00000000000E+00 -0.00000000000E+00 -0.24136617191E+03  0.24136617191E+03  0.00000000000E+00 0.  1.
         25    1    1    2    0    0 -0.19285603332E+03  0.80098739751E+02  0.21993585314E+03  0.32803359156E+03  0.12500000000E+03 0.  0.
         21    1    1    2  503  502  0.46929318183E+02  0.76085765290E+02 -0.10730933205E+03  0.13966637866E+03  0.00000000000E+00 0.  1.
          2    1    1    2  501    0  0.14592671514E+03 -0.15618450504E+03  0.11511697826E+03  0.24277587296E+03  0.00000000000E+00 0.  1.
<mgrwt>
<rscale>  4 0.45393670E+03</rscale>
<asrwt>0</asrwt>
<pdfrwt beam="1">  1       21 0.37133257E-01 0.45393670E+03</pdfrwt>
<pdfrwt beam="2">  1        2 0.72170718E-01 0.45393670E+03</pdfrwt>
<totfact> 0.55414360E+03</totfact>
</mgrwt>
</event>
<event>
 5    0  0.2396052E+000  0.4946311E+03  0.7546771E-02  0.1015190E+00
         21   -1    0    0  501  502  0.00000000000E+00  0.00000000000E+00  0.67675635261E+03  0.67675635261E+03  0.00000000000E+00 0. -1.
          1   -1    0    0  503    0 -0.00000000000E+00 -0.00000000000E+00 -0.36132194170E+03  0.36132194170E+03  0.00000000000E+00 0. -1.
         25    1    1    2    0    0  0.25989202894E+03  0.63509460279E+02  0.19760682775E+03  0.35531785295E+03  0.12500000000E+03 0.  0.
         21    1    1    2  503  502 -0.20319816207E+02  0.18486339180E+03  0.25141126058E+03  0.31272190602E+03  0.00000000000E+00 0. -1.
          1    1    1    2  501    0 -0.23957221273E+03 -0.24837285208E+03 -0.13358367742E+03  0.37003853534E+03  0.00000000000E+00 0. -1.
<mgrwt>
<rscale>  4 0.49463105E+03</rscale>
<asrwt>0</asrwt>
<pdfrwt beam="1">  1       21 0.10411636E+00 0.49463105E+03</pdfrwt>
<pdfrwt beam="2">  1        1 0.55587991E-01 0.49463105E+03</pdfrwt>
<totfact> 0.50603864E+02</totfact>
</mgrwt>
</event>
<event>
 5    0  0.2396052E+000  0.5975452E+03  0.7546771E-02  0.9910512E-01
         21   -1    0    0  501  502  0.00000000000E+00  0.00000000000E+00  0.27380433813E+03  0.27380433813E+03  0.00000000000E+00 0.  1.
          2   -1    0    0  503    0 -0.00000000000E+00 -0.00000000000E+00 -0.10826567815E+04  0.10826567815E+04  0.00000000000E+00 0.  1.
         25    1    1    2    0    0  0.28735672322E+03 -0.46762160588E+02 -0.23801079260E+02  0.31772956648E+03  0.12500000000E+03 0.  0.
         21    1    1    2  503  502 -0.28000836050E+03  0.18958723391E+02 -0.29011531691E+02  0.28214497003E+03  0.00000000000E+00 0.  1.
          2    1    1    2  501    0 -0.73483627214E+01  0.27803437197E+02 -0.75603983237E+03  0.75658658308E+03  0.00000000000E+00 0.  1.
<mgrwt>
<rscale>  4 0.59754522E+03</rscale>
<asrwt>0</asrwt>
<pdfrwt beam="1">  1       21 0.42123744E-01 0.59754522E+03</pdfrwt>
<pdfrwt beam="2">  1        2 0.16656258E+00 0.59754522E+03</pdfrwt>
<totfact> 0.14323160E+03</totfact>
</mgrwt>
</event>
<event>
 5    0  0.2396052E+000  0.4820905E+03  0.7546771E-02  0.1018562E+00
         21   -1    0    0  501  502  0.00000000000E+00  0.00000000000E+00  0.47010860508E+03  0.47010860508E+03  0.00000000000E+00 0.  1.
          1   -1    0    0  503    0 -0.00000000000E+00 -0.00000000000E+00 -0.10822355101E+04  0.10822355101E+04  0.00000000000E+00 0. -1.
         25    1    1    2    0    0  0.45053699392E+02 -0.19498980969E+03  0.37006657513E+03  0.43889079706E+03  0.12500000000E+03 0.  0.
         21    1    1    2  503  502  0.15594093615E+02  0.15081248597E+03 -0.25408543130E+02  0.15373085489E+03  0.00000000000E+00 0. -1.
          1    1    1    2  501    0 -0.60647793008E+02  0.44177323713E+02 -0.95678493704E+03  0.95972246326E+03  0.00000000000E+00 0. -1.
<mgrwt>
<rscale>  4 0.48209051E+03</rscale>
<asrwt>0</asrwt>
<pdfrwt beam="1">  1       21 0.72324401E-01 0.48209051E+03</pdfrwt>
<pdfrwt beam="2">  1        1 0.16649777E+00 0.48209051E+03</pdfrwt>
<totfact> 0.23593970E+02</totfact>
</mgrwt>
</event>
<event>
 5    0  0.2396052E+000  0.5485428E+03  0.7546771E-02  0.1001832E+00
          2   -1    0    0  503    0 -0.00000000000E+00  0.00000000000E+00  0.27532451686E+04  0.27532451686E+04  0.00000000000E+00 0. -1.
         21   -1    0    0  501  502  0.00000000000E+00 -0.00000000000E+00 -0.20642050233E+03  0.20642050233E+03  0.00000000000E+00 0.  1.
         25    1    1    2    0    0 -0.20723754354E+03  0.17802016074E+03  0.26497714337E+03  0.40059513675E+03  0.12500000000E+03 0.  0.
         21    1    1    2  503  502  0.87343335340E+02 -0.10783222847E+03 -0.10134279675E+03  0.17183425205E+03  0.00000000000E+00 0.  1.
          2    1    1    2  501    0  0.11989420820E+03 -0.70187932267E+02  0.23831903197E+04  0.23872362821E+04  0.00000000000E+00 0. -1.
<mgrwt>
<rscale>  4 0.54854280E+03</rscale>
<asrwt>0</asrwt>
<pdfrwt beam="1">  1       21 0.31757002E-01 0.54854280E+03</pdfrwt>
<pdfrwt beam="2">  1        2 0.42357616E+00 0.54854280E+03</pdfrwt>
<totfact> 0.30279856E+02</totfact>
</mgrwt>
</event>
<event>
 5    0  0.2396052E+000  0.8217242E+03  0.7546771E-02  0.9529094E-01
          1   -1    0    0  503    0 -0.00000000000E+00  0.00000000000E+00  0.30589640815E+04  0.30589640815E+04  0.00000000000E+00 0.  1.
         21   -1    0    0  501  502  0.00000000000E+00 -0.00000000000E+00 -0.72234621959E+02  0.72234621959E+02  0.00000000000E+00 0. -1.
         25    1    1    2    0    0  0.83759295368E+02 -0.34897537852E+03  0.63405219371E+03  0.73922027754E+03  0.12500000000E+03 0.  0.
         21    1    1    2  503  502 -0.10334157513E+03  0.34418197766E+03  0.16353816800E+04  0.16743995802E+04  0.00000000000E+00 0. -1.
          1    1    1    2  501    0  0.19582279761E+02  0.47934008697E+01  0.71729558582E+03  0.71757884571E+03  0.00000000000E+00 0.  1.
<mgrwt>
<rscale>  4 0.82172423E+03</rscale>
<asrwt>0</asrwt>
<pdfrwt beam="1">  1       21 0.11113021E-01 0.82172423E+03</pdfrwt>
<pdfrwt beam="2">  1        1 0.47060976E+00 0.82172423E+03</pdfrwt>
<totfact> 0.41459185E+02</totfact>
</mgrwt>
</event>
<event>
 5    0  0.2396052E+000  0.8626643E+03  0.7546771E-02  0.9473495E-01
         21   -1    0    0  501  502  0.00000000000E+00  0.00000000000E+00  0.13087925267E+03  0.13087925267E+03  0.00000000000E+00 0.  1.
          1   -1    0    0  503    0 -0.00000000000E+00 -0.00000000000E+00 -0.18961783411E+04  0.18961783411E+04  0.00000000000E+00 0.  1.
         25    1    1    2    0    0 -0.24439179205E+03 -0.16469949786E+02 -0.12982273341E+04  0.13270334654E+04  0.12500000000E+03 0.  0.
         21    1    1    2  503  502  0.22680822557E+03  0.44275090504E+02  0.70658236002E+00  0.23109035914E+03  0.00000000000E+00 0.  1.
          1    1    1    2  501    0  0.17583566479E+02 -0.27805140718E+02 -0.46777833665E+03  0.46893376920E+03  0.00000000000E+00 0.  1.
<mgrwt>
<rscale>  4 0.86266433E+03</rscale>
<asrwt>0</asrwt>
<pdfrwt beam="1">  1       21 0.20135271E-01 0.86266433E+03</pdfrwt>
<pdfrwt beam="2">  1        1 0.29171972E+00 0.86266433E+03</pdfrwt>
<totfact> 0.85108722E+02</totfact>
</mgrwt>
</event>
<event>
 5    0  0.2396052E+000  0.5194549E+03  0.7546771E-02  0.1008822E+00
         21   -1    0    0  501  502  0.00000000000E+00  0.00000000000E+00  0.30721153353E+03  0.30721153353E+03  0.00000000000E+00 0. -1.
          1   -1    0    0  503    0 -0.00000000000E+00 -0.00000000000E+00 -0.48130676309E+03  0.48130676309E+03  0.00000000000E+00 0. -1.
         25    1    1    2    0    0  0.47342566955E+02 -0.27823520217E+03 -0.94548362861E+00  0.30867789087E+03  0.12500000000E+03 0.  0.
         21    1    1    2  503  502 -0.51026951143E+01  0.20234454104E+03  0.75829534327E+02  0.21614686919E+03  0.00000000000E+00 0. -1.
          1    1    1    2  501    0 -0.42239871841E+02  0.75890661132E+02 -0.24897928026E+03  0.26369353655E+03  0.00000000000E+00 0. -1.
<mgrwt>
<rscale>  4 0.51945491E+03</rscale>
<asrwt>0</asrwt>
<pdfrwt beam="1">  1       21 0.47263313E-01 0.51945491E+03</pdfrwt>
<pdfrwt beam="2">  1        1 0.74047194E-01 0.51945491E+03</pdfrwt>
<totfact> 0.20681180E+03</totfact>
</mgrwt>
</event>
<event>
 5    0  0.2396052E+000  0.4709745E+03  0.7546771E-02  0.1021646E+00
         21   -1    0    0  501  502  0.00000000000E+00  0.00000000000E+00  0.20116915855E+03  0.20116915855E+03  0.00000000000E+00 0. -1.
         -2   -1    0    0    0  501 -0.00000000000E+00 -0.00000000000E+00 -0.35465903982E+03  0.35465903982E+03  0.00000000000E+00 0. -1.
         25    1    1    2    0    0  0.18238409154E+03 -0.10933762114E+03 -0.32244863270E+02  0.24876375028E+03  0.12500000000E+03 0.  0.
         21    1    1    2  503  502 -0.17002104275E+03  0.14522113767E+03 -0.54281392297E+02  0.23009303196E+03  0.00000000000E+00 0. -1.
         -2    1    1    2    0  503 -0.12363048790E+02 -0.35883516530E+02 -0.66963625708E+02  0.76971416135E+02  0.00000000000E+00 0. -1.
<mgrwt>
<rscale>  4 0.47097455E+03</rscale>
<asrwt>0</asrwt>
<pdfrwt beam="1">  1       21 0.30949102E-01 0.47097455E+03</pdfrwt>
<pdfrwt beam="2">  1       -2 0.54562929E-01 0.47097455E+03</pdfrwt>
<totfact> 0.25053392E+03</totfact>
</mgrwt>
</event>
<event>
 5    0  0.2396052E+000  0.6024698E+03  0.7546771E-02  0.9900295E-01
         21   -1    0    0  501  502  0.00000000000E+00  0.00000000000E+00  0.16854587576E+03  0.16854587576E+03  0.00000000000E+00 0.  1.
          1   -1    0    0  503    0 -0.00000000000E+00 -0.00000000000E+00 -0.16806423422E+04  0.16806423422E+04  0.00000000000E+00 0. -1.
         25    1    1    2    0    0  0.30694267442E+03  0.31958559819E+03 -0.62091777137E+03  0.77298941697E+03  0.12500000000E+03 0.  0.
         21    1    1    2  503  502 -0.57717986065E+02 -0.67072871965E+01  0.34649780252E+02  0.67653240043E+02  0.00000000000E+00 0. -1.
          1    1    1    2  501    0 -0.24922468836E+03 -0.31287831099E+03 -0.92582847530E+03  0.10085455609E+04  0.00000000000E+00 0. -1.
<mgrwt>
<rscale>  4 0.60246985E+03</rscale>
<asrwt>0</asrwt>
<pdfrwt beam="1">  1       21 0.25930134E-01 0.60246985E+03</pdfrwt>
<pdfrwt beam="2">  1        1 0.25856037E+00 0.60246985E+03</pdfrwt>
<totfact> 0.75783023E+02</totfact>
</mgrwt>
</event>
<event>
 5    0  0.2396052E+000  0.1075054E+04  0.7546771E-02  0.9229853E-01
          2   -1    0    0  503    0 -0.00000000000E+00  0.00000000000E+00  0.95475851013E+03  0.95475851013E+03  0.00000000000E+00 0. -1.
         21   -1    0    0  501  502  0.00000000000E+00 -0.00000000000E+00 -0.39197762227E+03  0.39197762227E+03  0.00000000000E+00 0.  1.
         25    1    1    2    0    0 -0.32022695724E+03  0.34930890857E+02  0.64447811979E+03  0.73126090977E+03  0.12500000000E+03 0.  0.
         21    1    1    2  503  502  0.27235910050E+03 -0.32337441824E+02 -0.29151097727E+03  0.40025471845E+03  0.00000000000E+00 0.  1.
          2    1    1    2  501    0  0.47867856732E+02 -0.25934490331E+01  0.20981374534E+03  0.21522050418E+03  0.00000000000E+00 0. -1.
<mgrwt>
<rscale>  4 0.10750543E+04</rscale>
<asrwt>0</asrwt>
<pdfrwt beam="1">  1       21 0.60304250E-01 0.10750543E+04</pdfrwt>
<pdfrwt beam="2">  1        2 0.14688592E+00 0.10750543E+04</pdfrwt>
<totfact> 0.74732403E+02</totfact>
</mgrwt>
</event>
<event>
 5    0  0.3094389E+000  0.1013642E+04  0.7546771E-02  0.9293707E-01
         21   -1    0    0  501  502  0.00000000000E+00  0.00000000000E+00  0.35995423517E+03  0.35995423517E+03  0.00000000000E+00 0. -1.
          2   -1    0    0  503    0 -0.00000000000E+00 -0.00000000000E+00 -0.15884889355E+04  0.15884889355E+04  0.00000000000E+00 0. -1.
         25    1    1    2    0    0  0.10875449667E+03 -0.17131265138E+03 -0.67369883769E+03  0.71461226478E+03  0.12500000000E+03 0.  0.
         21    1    1    2  503  502 -0.93168632445E+02  0.13710578873E+03  0.31883465126E+03  0.35935209227E+03  0.00000000000E+00 0. -1.
          2    1    1    2  501    0 -0.15585864223E+02  0.34206862648E+02 -0.87367051385E+03  0.87447881357E+03  0.00000000000E+00 0. -1.
<mgrwt>
<rscale>  4 0.10136424E+04</rscale>
<asrwt>0</asrwt>
<pdfrwt beam="1">  1       21 0.55377574E-01 0.10136424E+04</pdfrwt>
<pdfrwt beam="2">  1        2 0.24438292E+00 0.10136424E+04</pdfrwt>
<totfact> 0.38211331E+02</totfact>
</mgrwt>
</event>
<event>
 5    0  0.2396052E+000  0.8142154E+03  0.7546771E-02  0.9539666E-01
         -2   -1    0    0    0  501 -0.00000000000E+00  0.00000000000E+00  0.25077603487E+03  0.25077603487E+03  0.00000000000E+00 0. -1.
         21   -1    0    0  501  502  0.00000000000E+00 -0.00000000000E+00 -0.12724093693E+04  0.12724093693E+04  0.00000000000E+00 0. -1.
         25    1    1    2    0    0 -0.27821289192E+03  0.81894338302E+02 -0.12352440472E+03  0.33910525569E+03  0.12500000000E+03 0.  0.
         21    1    1    2  503  502  0.29805595379E+03 -0.71172637807E+02 -0.10174664054E+04  0.10626103623E+04  0.00000000000E+00 0. -1.
         -2    1    1    2    0  503 -0.19843061871E+02 -0.10721700495E+02  0.11935747565E+03  0.12146978620E+03  0.00000000000E+00 0. -1.
<mgrwt>
<rscale>  4 0.81421536E+03</rscale>
<asrwt>0</asrwt>
<pdfrwt beam="1">  1       21 0.19575529E+00 0.81421536E+03</pdfrwt>
<pdfrwt beam="2">  1       -2 0.38580929E-01 0.81421536E+03</pdfrwt>
<totfact> 0.58439969E+01</totfact>
</mgrwt>
</event>
<event>
 5    0  0.2396052E+000  0.9232983E+03  0.7546771E-02  0.9396917E-01
          2   -1    0    0  503    0 -0.00000000000E+00  0.00000000000E+00  0.15705855776E+04  0.15705855776E+04  0.00000000000E+00 0. -1.
         21   -1    0    0  501  502  0.00000000000E+00 -0.00000000000E+00 -0.13463764459E+04  0.13463764459E+04  0.00000000000E+00 0.  1.
         25    1    1    2    0    0 -0.29450547222E+03 -0.20499500956E+02 -0.19575759102E+02  0.32118828287E+03  0.12500000000E+03 0.  0.
         21    1    1    2  503  502  0.18988311343E+03  0.13163514999E+02 -0.11663324550E+04  0.11817615117E+04  0.00000000000E+00 0.  1.
          2    1    1    2  501    0  0.10462235879E+03  0.73359859566E+01  0.14101173458E+04  0.14140122289E+04  0.00000000000E+00 0. -1.
<mgrwt>
<rscale>  4 0.92329832E+03</rscale>
<asrwt>0</asrwt>
<pdfrwt beam="1">  1       21 0.20713484E+00 0.92329832E+03</pdfrwt>
<pdfrwt beam="2">  1        2 0.24162855E+00 0.92329832E+03</pdfrwt>
<totfact> 0.13314168E+01</totfact>
</mgrwt>
</event>
<event>
 5    0  0.2396052E+000  0.4875791E+03  0.7546771E-02  0.1017073E+00
         -4   -1    0    0    0  501 -0.00000000000E+00  0.00000000000E+00  0.37652272462E+03  0.37652272462E+03  0.00000000000E+00 0.  1.
         21   -1    0    0  501  502  0.00000000000E+00 -0.00000000000E+00 -0.67054007038E+03  0.67054007038E+03  0.00000000000E+00 0.  1.
         25    1    1    2    0    0  0.18057593761E+03  0.11609054748E+03 -0.41864289114E+03  0.48679724194E+03  0.12500000000E+03 0.  0.
         21    1    1    2  503  502 -0.20613271285E+03 -0.69185368207E+02 -0.16045246194E+03  0.27022639216E+03  0.00000000000E+00 0.  1.
         -4    1    1    2    0  503  0.25556775242E+02 -0.46905179272E+02  0.28507800731E+03  0.29003916090E+03  0.00000000000E+00 0.  1.
<mgrwt>
<rscale>  4 0.48757908E+03</rscale>
<asrwt>0</asrwt>
<pdfrwt beam="1">  1       21 0.10316001E+00 0.48757908E+03</pdfrwt>
<pdfrwt beam="2">  1       -4 0.57926573E-01 0.48757908E+03</pdfrwt>
<totfact> 0.86123442E+01</totfact>
</mgrwt>
</event>
<event>
 5    0  0.2396052E+000  0.4593676E+03  0.7546771E-02  0.1024965E+00
         21   -1    0    0  501  502  0.00000000000E+00  0.00000000000E+00  0.42013142281E+03  0.42013142281E+03  0.00000000000E+00 0.  1.
         -2   -1    0    0    0  501 -0.00000000000E+00 -0.00000000000E+00 -0.16479209397E+03  0.16479209397E+03  0.00000000000E+00 0. -1.
         25    1    1    2    0    0 -0.21033108929E+03 -0.90664065802E+02  0.41109848630E+02  0.26414798807E+03  0.12500000000E+03 0.  0.
         21    1    1    2  503  502  0.14472470202E+03  0.78281121868E+02  0.18587520047E+03  0.24823932719E+03  0.00000000000E+00 0.  1.
         -2    1    1    2    0  503  0.65606387269E+02  0.12382943934E+02  0.28354279735E+02  0.72536201515E+02  0.00000000000E+00 0. -1.
<mgrwt>
<rscale>  4 0.45936755E+03</rscale>
<asrwt>0</asrwt>
<pdfrwt beam="1">  1       21 0.64635603E-01 0.45936755E+03</pdfrwt>
<pdfrwt beam="2">  1       -2 0.25352630E-01 0.45936755E+03</pdfrwt>
<totfact> 0.23214651E+03</totfact>
</mgrwt>
</event>
<event>
 5    0  0.2396052E+000  0.3560521E+03  0.7546771E-02  0.1060158E+00
          2   -1    0    0  503    0 -0.00000000000E+00  0.00000000000E+00  0.59990314788E+03  0.59990314788E+03  0.00000000000E+00 0. -1.
         21   -1    0    0  501  502  0.00000000000E+00 -0.00000000000E+00 -0.89095168221E+03  0.89095168221E+03  0.00000000000E+00 0.  1.
         25    1    1    2    0    0  0.60361902033E+02  0.23575347560E+03 -0.55299144807E+03  0.61696661345E+03  0.12500000000E+03 0.  0.
         21    1    1    2  503  502 -0.11363574247E+02 -0.68582831201E+02 -0.28838558637E+03  0.29664622361E+03  0.00000000000E+00 0.  1.
          2    1    1    2  501    0 -0.48998327786E+02 -0.16717064440E+03  0.55032850012E+03  0.57724199303E+03  0.00000000000E+00 0. -1.
<mgrwt>
<rscale>  4 0.35605211E+03</rscale>
<asrwt>0</asrwt>
<pdfrwt beam="1">  1       21 0.13706949E+00 0.35605211E+03</pdfrwt>
<pdfrwt beam="2">  1        2 0.92292792E-01 0.35605211E+03</pdfrwt>
<totfact> 0.21834262E+02</totfact>
</mgrwt>
</event>
<event>
 5    0  0.2396052E+000  0.4777738E+03  0.7546771E-02  0.1019749E+00
         -2   -1    0    0    0  501 -0.00000000000E+00  0.00000000000E+00  0.14808221383E+04  0.14808221383E+04  0.00000000000E+00 0.  1.
         21   -1    0    0  501  502  0.00000000000E+00 -0.00000000000E+00 -0.10195854414E+03  0.10195854414E+03  0.00000000000E+00 0.  1.
         25    1    1    2    0    0 -0.34207948745E+02 -0.20035532546E+03  0.17428102168E+03  0.29548488069E+03  0.12500000000E+03 0.  0.
         21    1    1    2  503  502  0.72471470979E+02  0.21973453690E+03  0.28673148647E+03  0.36844311114E+03  0.00000000000E+00 0.  1.
         -2    1    1    2    0  503 -0.38263522234E+02 -0.19379211438E+02  0.91785108598E+03  0.91885269059E+03  0.00000000000E+00 0.  1.
<mgrwt>
<rscale>  4 0.47777384E+03</rscale>
<asrwt>0</asrwt>
<pdfrwt beam="1">  1       21 0.15685931E-01 0.47777384E+03</pdfrwt>
<pdfrwt beam="2">  1       -2 0.22781877E+00 0.47777384E+03</pdfrwt>
<totfact> 0.27011381E+02</totfact>
</mgrwt>
</event>
<event>
 5    0  0.2396052E+000  0.9170627E+03  0.7546771E-02  0.9404500E-01
          1   -1    0    0  503    0 -0.00000000000E+00  0.00000000000E+00  0.98557801152E+03  0.98557801152E+03  0.00000000000E+00 0.  1.
         21   -1    0    0  501  502  0.00000000000E+00 -0.00000000000E+00 -0.56290821121E+03  0.56290821121E+03  0.00000000000E+00 0. -1.
         25    1    1    2    0    0 -0.23186160760E+01 -0.32056793743E+03 -0.44660869461E+03  0.56378498081E+03  0.12500000000E+03 0.  0.
         21    1    1    2  503  502  0.39789324329E+02  0.26257682489E+03  0.26045938452E+03  0.37197966380E+03  0.00000000000E+00 0.  1.
          1    1    1    2  501    0 -0.37470708253E+02  0.57991112541E+02  0.60881911040E+03  0.61272157812E+03  0.00000000000E+00 0.  1.
<mgrwt>
<rscale>  4 0.91706265E+03</rscale>
<asrwt>0</asrwt>
<pdfrwt beam="1">  1       21 0.86601264E-01 0.91706265E+03</pdfrwt>
<pdfrwt beam="2">  1        1 0.15162739E+00 0.91706265E+03</pdfrwt>
<totfact> 0.16785982E+02</totfact>
</mgrwt>
</event>
<event>
 5    0  0.2396052E+000  0.9022873E+03  0.7546771E-02  0.9422727E-01
         21   -1    0    0  501  502  0.00000000000E+00  0.00000000000E+00  0.16409215636E+04  0.16409215636E+04  0.00000000000E+00 0. -1.
          2   -1    0    0  503    0 -0.00000000000E+00 -0.00000000000E+00 -0.20014097710E+03  0.20014097710E+03  0.00000000000E+00 0. -1.
         25    1    1    2    0    0 -0.32135643227E+03  0.23094280559E+03  0.12886739542E+04  0.13538501011E+04  0.12500000000E+03 0.  0.
         21    1    1    2  503  502  0.25314992469E+03 -0.22021963362E+03  0.21108537206E+03  0.39640712115E+03  0.00000000000E+00 0.  1.
          2    1    1    2  501    0  0.68206507585E+02 -0.10723171968E+02 -0.58978739830E+02  0.90805318379E+02  0.00000000000E+00 0. -1.
<mgrwt>
<rscale>  4 0.90228726E+03</rscale>
<asrwt>0</asrwt>
<pdfrwt beam="1">  1       21 0.25244946E+00 0.90228726E+03</pdfrwt>
<pdfrwt beam="2">  1        2 0.30790921E-01 0.90228726E+03</pdfrwt>
<totfact> 0.10112355E+02</totfact>
</mgrwt>
</event>
<event>
 5    0  0.2396052E+000  0.6215031E+03  0.7546771E-02  0.9861772E-01
         21   -1    0    0  501  502  0.00000000000E+00  0.00000000000E+00  0.55301503803E+03  0.55301503803E+03  0.00000000000E+00 0.  1.
         -1   -1    0    0    0  501 -0.00000000000E+00 -0.00000000000E+00 -0.34228504718E+03  0.34228504718E+03  0.00000000000E+00 0. -1.
         25    1    1    2    0    0  0.13694642684E+03 -0.19592535284E+03 -0.47507829275E+02  0.27390337995E+03  0.12500000000E+03 0.  0.
         21    1    1    2  503  502 -0.98013517317E+02  0.13660803013E+03  0.41584857743E+03  0.44855149406E+03  0.00000000000E+00 0.  1.
         -1    1    1    2    0  503 -0.38932909519E+02  0.59317322703E+02 -0.15761075730E+03  0.17284521120E+03  0.00000000000E+00 0. -1.
<mgrwt>
<rscale>  4 0.62150313E+03</rscale>
<asrwt>0</asrwt>
<pdfrwt beam="1">  1       21 0.85079236E-01 0.62150313E+03</pdfrwt>
<pdfrwt beam="2">  1       -1 0.52659238E-01 0.62150313E+03</pdfrwt>
<totfact> 0.36464000E+02</totfact>
</mgrwt>
</event>
<event>
 5    0  0.2396052E+000  0.4803215E+03  0.7546771E-02  0.1019047E+00
         21   -1    0    0  501  502  0.00000000000E+00  0.00000000000E+00  0.50996994950E+03  0.50996994950E+03  0.00000000000E+00 0.  1.
         -4   -1    0    0    0  501 -0.00000000000E+00 -0.00000000000E+00 -0.26461094835E+03  0.26461094835E+03  0.00000000000E+00 0.  1.
         25    1    1    2    0    0 -0.18134961301E+03  0.10008778976E+03  0.76936754777E+02  0.25386908444E+03  0.12500000000E+03 0.  0.
         21    1    1    2  503  502  0.17423809171E+03 -0.63727669171E+02  0.31715528157E+03  0.36743380499E+03  0.00000000000E+00 0.  1.
         -4    1    1    2    0  503  0.71115213031E+01 -0.36360120594E+02 -0.14873303520E+03  0.15327800841E+03  0.00000000000E+00 0.  1.
<mgrwt>
<rscale>  4 0.48032150E+03</rscale>
<asrwt>0</asrwt>
<pdfrwt beam="1">  1       21 0.78456915E-01 0.48032150E+03</pdfrwt>
<pdfrwt beam="2">  1       -4 0.40709377E-01 0.48032150E+03</pdfrwt>
<totfact> 0.34366746E+02</totfact>
</mgrwt>
</event>
<event>
 5    0  0.2396052E+000  0.6543836E+03  0.7546771E-02  0.9798588E-01
         21   -1    0    0  501  502  0.00000000000E+00  0.00000000000E+00  0.24146022226E+03  0.24146022226E+03  0.00000000000E+00 0. -1.
          2   -1    0    0  503    0 -0.00000000000E+00 -0.00000000000E+00 -0.85899765642E+03  0.85899765642E+03  0.00000000000E+00 0. -1.
         25    1    1    2    0    0 -0.14986316487E+02  0.20334576976E+03 -0.34314022168E+03  0.41826343792E+03  0.12500000000E+03 0.  0.
         21    1    1    2  503  502  0.56936013880E+02 -0.22240431730E+03  0.13758265491E+03  0.26764599186E+03  0.00000000000E+00 0. -1.
          2    1    1    2  501    0 -0.41949697392E+02  0.19058547530E+02 -0.41197986739E+03  0.41454844889E+03  0.00000000000E+00 0. -1.
<mgrwt>
<rscale>  4 0.65438355E+03</rscale>
<asrwt>0</asrwt>
<pdfrwt beam="1">  1       21 0.37147726E-01 0.65438355E+03</pdfrwt>
<pdfrwt beam="2">  1        2 0.13215349E+00 0.65438355E+03</pdfrwt>
<totfact> 0.25682364E+03</totfact>
</mgrwt>
</event>
<event>
 5    0  0.2396052E+000  0.6188038E+03  0.7546771E-02  0.9867144E-01
         21   -1    0    0  501  502  0.00000000000E+00  0.00000000000E+00  0.93352226998E+03  0.93352226998E+03  0.00000000000E+00 0. -1.
          2   -1    0    0  503    0 -0.00000000000E+00 -0.00000000000E+00 -0.16126348783E+03  0.16126348783E+03  0.00000000000E+00 0. -1.
         25    1    1    2    0    0  0.22868279465E+03  0.44696794842E+02  0.74752826743E+03  0.79291685229E+03  0.12500000000E+03 0.  0.
         21    1    1    2  503  502 -0.22182428243E+03  0.63834995012E+01  0.70598564572E+02  0.23287532858E+03  0.00000000000E+00 0. -1.
          2    1    1    2  501    0 -0.68585122159E+01 -0.51080294344E+02 -0.45868049860E+02  0.68993576933E+02  0.00000000000E+00 0. -1.
<mgrwt>
<rscale>  4 0.61880375E+03</rscale>
<asrwt>0</asrwt>
<pdfrwt beam="1">  1       21 0.14361881E+00 0.61880375E+03</pdfrwt>
<pdfrwt beam="2">  1        2 0.24809768E-01 0.61880375E+03</pdfrwt>
<totfact> 0.78299744E+02</totfact>
</mgrwt>
</event>
<event>
 5    0  0.2396052E+000  0.5509867E+03  0.7546771E-02  0.1001266E+00
          4   -1    0    0  503    0 -0.00000000000E+00  0.00000000000E+00  0.20905697105E+03  0.20905697105E+03  0.00000000000E+00 0.  1.
         21   -1    0    0  501  502  0.00000000000E+00 -0.00000000000E+00 -0.94920748789E+03  0.94920748789E+03  0.00000000000E+00 0. -1.
         25    1    1    2    0    0 -0.30304626014E+03  0.76580521064E+02 -0.70572764576E+03  0.78190672204E+03  0.12500000000E+03 0.  0.
         21    1    1    2  503  502  0.12371507257E+03 -0.10591605224E+03 -0.90333861080E+02  0.18623596795E+03  0.00000000000E+00 0.  1.
          4    1    1    2  501    0  0.17933118757E+03  0.29335531171E+02  0.55910990000E+02  0.19012176895E+03  0.00000000000E+00 0.  1.
<mgrwt>
<rscale>  4 0.55098670E+03</rscale>
<asrwt>0</asrwt>
<pdfrwt beam="1">  1       21 0.14603192E+00 0.55098670E+03</pdfrwt>
<pdfrwt beam="2">  1        4 0.32162610E-01 0.55098670E+03</pdfrwt>
<totfact> 0.11623695E+02</totfact>
</mgrwt>
</event>
<event>
 5    0  0.2396052E+000  0.4232865E+03  0.7546771E-02  0.1036002E+00
          2   -1    0    0  503    0 -0.00000000000E+00  0.00000000000E+00  0.15161482101E+03  0.15161482101E+03  0.00000000000E+00 0.  1.
         21   -1    0    0  501  502  0.00000000000E+00 -0.00000000000E+00 -0.89868148564E+03  0.89868148564E+03  0.00000000000E+00 0.  1.
         25    1    1    2    0    0 -0.88051477016E+02  0.20649772958E+03 -0.67611211531E+03  0.72328899300E+03  0.12500000000E+03 0.  0.
         21    1    1    2  503  502  0.11438460828E+03 -0.17697990292E+02 -0.72121226165E+02  0.13637642295E+03  0.00000000000E+00 0. -1.
          2    1    1    2  501    0 -0.26333131266E+02 -0.18879973929E+03  0.11666768406E+01  0.19063089071E+03  0.00000000000E+00 0.  1.
<mgrwt>
<rscale>  4 0.42328654E+03</rscale>
<asrwt>0</asrwt>
<pdfrwt beam="1">  1       21 0.13825869E+00 0.42328654E+03</pdfrwt>
<pdfrwt beam="2">  1        2 0.23325357E-01 0.42328654E+03</pdfrwt>
<totfact> 0.96927726E+02</totfact>
</mgrwt>
</event>
<event>
 5    0  0.2396052E+000  0.9808406E+03  0.7546771E-02  0.9329812E-01
         21   -1    0    0  501  502  0.00000000000E+00  0.00000000000E+00  0.72973785179E+03  0.72973785179E+03  0.00000000000E+00 0. -1.
          2   -1    0    0  503    0 -0.00000000000E+00 -0.00000000000E+00 -0.49103402178E+03  0.49103402178E+03  0.00000000000E+00 0. -1.
         25    1    1    2    0    0  0.28394689081E+03 -0.83347714291E+02 -0.19671485081E+03  0.37668874526E+03  0.12500000000E+03 0.  0.
         21    1    1    2  503  502 -0.31405751139E+03  0.12136997903E+03  0.59151429757E+03  0.68062615032E+03  0.00000000000E+00 0. -1.
          2    1    1    2  501    0  0.30110620586E+02 -0.38022264738E+02 -0.15609561675E+03  0.16345697800E+03  0.00000000000E+00 0. -1.
<mgrwt>
<rscale>  4 0.98084055E+03</rscale>
<asrwt>0</asrwt>
<pdfrwt beam="1">  1       21 0.11226736E+00 0.98084055E+03</pdfrwt>
<pdfrwt beam="2">  1        2 0.75543695E-01 0.98084055E+03</pdfrwt>
<totfact> 0.40384811E+02</totfact>
</mgrwt>
</event>
<event>
 5    0  0.2396052E+000  0.6841284E+03  0.7546771E-02  0.9744766E-01
         21   -1    0    0  501  502  0.00000000000E+00  0.00000000000E+00  0.17748442115E+03  0.17748442115E+03  0.00000000000E+00 0. -1.
          1   -1    0    0  503    0 -0.00000000000E+00 -0.00000000000E+00 -0.12315097036E+04  0.12315097036E+04  0.00000000000E+00 0.  1.
         25    1    1    2    0    0  0.40243641635E+03  0.38649792207E+01 -0.26504809540E+03  0.49784083816E+03  0.12500000000E+03 0.  0.
         21    1    1    2  503  502 -0.25395098534E+03 -0.12308656901E+02 -0.26821453894E+03  0.36956953999E+03  0.00000000000E+00 0.  1.
          1    1    1    2  501    0 -0.14848543100E+03  0.84436776806E+01 -0.52076264809E+03  0.54158374658E+03  0.00000000000E+00 0.  1.
<mgrwt>
<rscale>  4 0.68412844E+03</rscale>
<asrwt>0</asrwt>
<pdfrwt beam="1">  1       21 0.27305295E-01 0.68412844E+03</pdfrwt>
<pdfrwt beam="2">  1        1 0.18946304E+00 0.68412844E+03</pdfrwt>
<totfact> 0.13741722E+03</totfact>
</mgrwt>
</event>
<event>
 5    0  0.2396052E+000  0.5661629E+03  0.7546771E-02  0.9978206E-01
         -1   -1    0    0    0  501 -0.00000000000E+00  0.00000000000E+00  0.91600375670E+03  0.91600375670E+03  0.00000000000E+00 0.  1.
         21   -1    0    0  501  502  0.00000000000E+00 -0.00000000000E+00 -0.87174621381E+03  0.87174621381E+03  0.00000000000E+00 0.  1.
         25    1    1    2    0    0  0.17005863989E+03 -0.30305917973E+03 -0.27858619722E+03  0.46260142315E+03  0.12500000000E+03 0.  0.
         21    1    1    2  503  502 -0.18499084313E+02 -0.10554827384E+03 -0.43659192911E+03  0.44954996029E+03  0.00000000000E+00 0.  1.
         -1    1    1    2    0  503 -0.15155955558E+03  0.40860745357E+03  0.75943566922E+03  0.87559858707E+03  0.00000000000E+00 0.  1.
<mgrwt>
<rscale>  4 0.56616287E+03</rscale>
<asrwt>0</asrwt>
<pdfrwt beam="1">  1       21 0.13411480E+00 0.56616287E+03</pdfrwt>
<pdfrwt beam="2">  1       -1 0.14092365E+00 0.56616287E+03</pdfrwt>
<totfact> 0.13778856E+01</totfact>
</mgrwt>
</event>
<event>
 5    0  0.2396052E+000  0.4191304E+03  0.7546771E-02  0.1037350E+00
          1   -1    0    0  503    0 -0.00000000000E+00  0.00000000000E+00  0.10976459538E+04  0.10976459538E+04  0.00000000000E+00 0.  1.
         21   -1    0    0  501  502  0.00000000000E+00 -0.00000000000E+00 -0.32222122739E+03  0.32222122739E+03  0.00000000000E+00 0. -1.
         25    1    1    2    0    0 -0.20515923683E+03 -0.65292645744E+02 -0.18797156935E+03  0.31194831772E+03  0.12500000000E+03 0.  0.
         21    1    1    2  503  502  0.87476488520E+02 -0.10789808872E+03  0.18535346288E+02  0.14013455197E+03  0.00000000000E+00 0.  1.
          1    1    1    2  501    0  0.11768274831E+03  0.17319073446E+03  0.94486094942E+03  0.96778431145E+03  0.00000000000E+00 0.  1.
<mgrwt>
<rscale>  4 0.41913039E+03</rscale>
<asrwt>0</asrwt>
<pdfrwt beam="1">  1       21 0.49572497E-01 0.41913039E+03</pdfrwt>
<pdfrwt beam="2">  1        1 0.16886861E+00 0.41913039E+03</pdfrwt>
<totfact> 0.53597304E+02</totfact>
</mgrwt>
</event>
<event>
 5    0  0.2396052E+000  0.4214080E+03  0.7546771E-02  0.1036609E+00
          2   -1    0    0  503    0 -0.00000000000E+00  0.00000000000E+00  0.28410180527E+03  0.28410180527E+03  0.00000000000E+00 0. -1.
         21   -1    0    0  501  502  0.00000000000E+00 -0.00000000000E+00 -0.62232869203E+03  0.62232869203E+03  0.00000000000E+00 0.  1.
         25    1    1    2    0    0 -0.57628500043E+02  0.20022499500E+03 -0.24712465710E+03  0.34656411930E+03  0.12500000000E+03 0.  0.
         21    1    1    2  503  502  0.10791578479E+03 -0.13050501458E+03 -0.29412632517E+03  0.33939309155E+03  0.00000000000E+00 0.  1.
          2    1    1    2  501    0 -0.50287284745E+02 -0.69719980417E+02  0.20302409551E+03  0.22047328644E+03  0.00000000000E+00 0. -1.
<mgrwt>
<rscale>  4 0.42140796E+03</rscale>
<asrwt>0</asrwt>
<pdfrwt beam="1">  1       21 0.95742876E-01 0.42140796E+03</pdfrwt>
<pdfrwt beam="2">  1        2 0.43707970E-01 0.42140796E+03</pdfrwt>
<totfact> 0.12113446E+03</totfact>
</mgrwt>
</event>
<event>
 5    0  0.2396052E+000  0.6432364E+03  0.7546771E-02  0.9819554E-01
          3   -1    0    0  503    0 -0.00000000000E+00  0.00000000000E+00  0.61310552206E+03  0.61310552206E+03  0.00000000000E+00 0.  1.
         21   -1    0    0  501  502  0.00000000000E+00 -0.00000000000E+00 -0.48698014776E+03  0.48698014776E+03  0.00000000000E+00 0.  1.
         25    1    1    2    0    0 -0.17041578395E+03 -0.12357196141E+03  0.96904054217E+02  0.26330014202E+03  0.12500000000E+03 0.  0.
         21    1    1    2  503  502  0.19296413558E+03  0.12298375507E+03 -0.37102047458E+03  0.43590865349E+03  0.00000000000E+00 0.  1.
          3    1    1    2  501    0 -0.22548351633E+02  0.58820634322E+00  0.40024179467E+03  0.40087687430E+03  0.00000000000E+00 0.  1.
<mgrwt>
<rscale>  4 0.64323645E+03</rscale>
<asrwt>0</asrwt>
<pdfrwt beam="1">  1       21 0.74920023E-01 0.64323645E+03</pdfrwt>
<pdfrwt beam="2">  1        3 0.94323926E-01 0.64323645E+03</pdfrwt>
<totfact> 0.73694724E+01</totfact>
</mgrwt>
</event>
<event>
 5    0  0.2396052E+000  0.5269144E+03  0.7546771E-02  0.1006983E+00
         21   -1    0    0  501  502  0.00000000000E+00  0.00000000000E+00  0.22648840909E+03  0.22648840909E+03  0.00000000000E+00 0. -1.
          2   -1    0    0  503    0 -0.00000000000E+00 -0.00000000000E+00 -0.13997440352E+04  0.13997440352E+04  0.00000000000E+00 0. -1.
         25    1    1    2    0    0  0.23182347197E+03 -0.11427368481E+03 -0.15287363344E+03  0.32526288599E+03  0.12500000000E+03 0.  0.
         21    1    1    2  503  502 -0.16762865258E+03  0.10099106721E+03  0.70580823355E+02  0.20803897098E+03  0.00000000000E+00 0. -1.
          2    1    1    2  501    0 -0.64194819390E+02  0.13282617605E+02 -0.10909628161E+04  0.10929305874E+04  0.00000000000E+00 0. -1.
<mgrwt>
<rscale>  4 0.52691438E+03</rscale>
<asrwt>0</asrwt>
<pdfrwt beam="1">  1       21 0.34844371E-01 0.52691438E+03</pdfrwt>
<pdfrwt beam="2">  1        2 0.21534523E+00 0.52691438E+03</pdfrwt>
<totfact> 0.14037582E+03</totfact>
</mgrwt>
</event>
<event>
 5    0  0.2396052E+000  0.9637070E+03  0.7546771E-02  0.9349271E-01
          1   -1    0    0  503    0 -0.00000000000E+00  0.00000000000E+00  0.23050345561E+03  0.23050345561E+03  0.00000000000E+00 0.  1.
         21   -1    0    0  501  502  0.00000000000E+00 -0.00000000000E+00 -0.13039319685E+04  0.13039319685E+04  0.00000000000E+00 0.  1.
         25    1    1    2    0    0  0.36675827147E+03 -0.27246519215E+02 -0.10092964693E+03  0.40133003392E+03  0.12500000000E+03 0.  0.
         21    1    1    2  503  502 -0.34940292640E+03 -0.16436531328E+02 -0.10126040316E+04  0.10713167082E+04  0.00000000000E+00 0.  1.
          1    1    1    2  501    0 -0.17355345067E+02  0.43683050544E+02  0.40105165634E+02  0.61788681955E+02  0.00000000000E+00 0.  1.
<mgrwt>
<rscale>  4 0.96370700E+03</rscale>
<asrwt>0</asrwt>
<pdfrwt beam="1">  1       21 0.20060491E+00 0.96370700E+03</pdfrwt>
<pdfrwt beam="2">  1        1 0.35462071E-01 0.96370700E+03</pdfrwt>
<totfact> 0.13673059E+02</totfact>
</mgrwt>
</event>
<event>
 5    0  0.2396052E+000  0.8476947E+03  0.7546771E-02  0.9493436E-01
         21   -1    0    0  501  502  0.00000000000E+00  0.00000000000E+00  0.86148227092E+03  0.86148227092E+03  0.00000000000E+00 0. -1.
          2   -1    0    0  503    0 -0.00000000000E+00 -0.00000000000E+00 -0.83440569321E+03  0.83440569321E+03  0.00000000000E+00 0.  1.
         25    1    1    2    0    0 -0.14084714869E+03  0.33692937663E+03  0.10626608319E+03  0.40034585619E+03  0.12500000000E+03 0.  0.
         21    1    1    2  503  502  0.14299152144E+03 -0.35946583284E+03  0.54642993966E+03  0.66951321058E+03  0.00000000000E+00 0. -1.
          2    1    1    2  501    0 -0.21443727536E+01  0.22536456203E+02 -0.62561944514E+03  0.62602889736E+03  0.00000000000E+00 0.  1.
<mgrwt>
<rscale>  4 0.84769471E+03</rscale>
<asrwt>0</asrwt>
<pdfrwt beam="1">  1       21 0.13253574E+00 0.84769471E+03</pdfrwt>
<pdfrwt beam="2">  1        2 0.12837011E+00 0.84769471E+03</pdfrwt>
<totfact> 0.13828772E+02</totfact>
</mgrwt>
</event>
<event>
 5    0  0.2396052E+000  0.4946553E+03  0.7546771E-02  0.1015183E+00
         21   -1    0    0  501  502  0.00000000000E+00  0.00000000000E+00  0.36027922774E+03  0.36027922774E+03  0.00000000000E+00 0. -1.
          2   -1    0    0  503    0 -0.00000000000E+00 -0.00000000000E+00 -0.52555683179E+03  0.52555683179E+03  0.00000000000E+00 0. -1.
         25    1    1    2    0    0 -0.14396712041E+03 -0.15569929195E+03  0.19317172282E+03  0.31290432366E+03  0.12500000000E+03 0.  0.
         21    1    1    2  503  502  0.12047039857E+03  0.18012898566E+03 -0.38701256211E+01  0.21673612130E+03  0.00000000000E+00 0. -1.
          2    1    1    2  501    0  0.23496721836E+02 -0.24429693710E+02 -0.35457920125E+03  0.35619561456E+03  0.00000000000E+00 0. -1.
<mgrwt>
<rscale>  4 0.49465534E+03</rscale>
<asrwt>0</asrwt>
<pdfrwt beam="1">  1       21 0.55427574E-01 0.49465534E+03</pdfrwt>
<pdfrwt beam="2">  1        2 0.80854897E-01 0.49465534E+03</pdfrwt>
<totfact> 0.20840518E+03</totfact>
</mgrwt>
</event>
<event>
 5    0  0.2396052E+000  0.3753546E+03  0.7546771E-02  0.1052664E+00
         21   -1    0    0  501  502  0.00000000000E+00  0.00000000000E+00  0.12096769931E+03  0.12096769931E+03  0.00000000000E+00 0. -1.
          2   -1    0    0  503    0 -0.00000000000E+00 -0.00000000000E+00 -0.46493819330E+03  0.46493819330E+03  0.00000000000E+00 0. -1.
         25    1    1    2    0    0  0.26937877974E+02 -0.20235848825E+03 -0.21861947689E+03  0.32418217519E+03  0.12500000000E+03 0.  0.
         21    1    1    2  503  502 -0.13065512300E+02  0.11370419072E+03 -0.90223488949E+01  0.11480746221E+03  0.00000000000E+00 0. -1.
          2    1    1    2  501    0 -0.13872365674E+02  0.88654297526E+02 -0.11632866821E+03  0.14691625521E+03  0.00000000000E+00 0. -1.
<mgrwt>
<rscale>  4 0.37535463E+03</rscale>
<asrwt>0</asrwt>
<pdfrwt beam="1">  1       21 0.18610415E-01 0.37535463E+03</pdfrwt>
<pdfrwt beam="2">  1        2 0.71528954E-01 0.37535463E+03</pdfrwt>
<totfact> 0.21823983E+04</totfact>
</mgrwt>
</event>
<event>
 5    0  0.2396052E+000  0.9042383E+03  0.7546771E-02  0.9420299E-01
         21   -1    0    0  501  502  0.00000000000E+00  0.00000000000E+00  0.32722233519E+03  0.32722233519E+03  0.00000000000E+00 0. -1.
          1   -1    0    0  503    0 -0.00000000000E+00 -0.00000000000E+00 -0.27620701130E+04  0.27620701130E+04  0.00000000000E+00 0.  1.
         25    1    1    2    0    0 -0.24302542086E+03  0.24540981718E+03 -0.40188176239E+03  0.54444585084E+03  0.12500000000E+03 0.  0.
         21    1    1    2  503  502  0.32503581857E+03 -0.22494957559E+03  0.10197963300E+03  0.40822841702E+03  0.00000000000E+00 0. -1.
          1    1    1    2  501    0 -0.82010397714E+02 -0.20460241590E+02 -0.21349456484E+04  0.21366181803E+04  0.00000000000E+00 0.  1.
<mgrwt>
<rscale>  4 0.90423834E+03</rscale>
<asrwt>0</asrwt>
<pdfrwt beam="1">  1       21 0.50341897E-01 0.90423834E+03</pdfrwt>
<pdfrwt beam="2">  1        1 0.42493387E+00 0.90423834E+03</pdfrwt>
<totfact> 0.33751865E+01</totfact>
</mgrwt>
</event>
<event>
 5    0  0.2396052E+000  0.4444909E+03  0.7546771E-02  0.1029378E+00
         21   -1    0    0  501  502  0.00000000000E+00  0.00000000000E+00  0.64724535943E+03  0.64724535943E+03  0.00000000000E+00 0. -1.
         -1   -1    0    0    0  501 -0.00000000000E+00 -0.00000000000E+00 -0.13197507049E+03  0.13197507049E+03  0.00000000000E+00 0.  1.
         25    1    1    2    0    0  0.21067321504E+03 -0.14507534585E+02  0.44787064741E+03  0.51069246021E+03  0.12500000000E+03 0.  0.
         21    1    1    2  503  502 -0.17112535494E+03  0.12111114525E+02  0.11504808927E+03  0.20655902072E+03  0.00000000000E+00 0.  1.
         -1    1    1    2    0  503 -0.39547860103E+02  0.23964200598E+01 -0.47648447745E+02  0.61968949001E+02  0.00000000000E+00 0.  1.
<mgrwt>
<rscale>  4 0.44449093E+03</rscale>
<asrwt>0</asrwt>
<pdfrwt beam="1">  1       21 0.99576207E-01 0.44449093E+03</pdfrwt>
<pdfrwt beam="2">  1       -1 0.20303857E-01 0.44449093E+03</pdfrwt>
<totfact> 0.13832241E+03</totfact>
</mgrwt>
</event>
<event>
 5    0  0.2396052E+000  0.3343114E+03  0.7546771E-02  0.1069245E+00
         21   -1    0    0  501  502  0.00000000000E+00  0.00000000000E+00  0.10974155499E+03  0.10974155499E+03  0.00000000000E+00 0. -1.
          2   -1    0    0  503    0 -0.00000000000E+00 -0.00000000000E+00 -0.18112458297E+04  0.18112458297E+04  0.00000000000E+00 0. -1.
         25    1    1    2    0    0 -0.22828858504E+03  0.27787597899E+02 -0.17844644511E+03  0.31679009207E+03  0.12500000000E+03 0.  0.
         21    1    1    2  503  502  0.33746138689E+02  0.46245978450E+02  0.90969912789E+01  0.57967643126E+02  0.00000000000E+00 0.  1.
          2    1    1    2  501    0  0.19454244635E+03 -0.74033576350E+02 -0.15321548209E+04  0.15462296495E+04  0.00000000000E+00 0. -1.
<mgrwt>
<rscale>  4 0.33431142E+03</rscale>
<asrwt>0</asrwt>
<pdfrwt beam="1">  1       21 0.16883317E-01 0.33431142E+03</pdfrwt>
<pdfrwt beam="2">  1        2 0.27865319E+00 0.33431142E+03</pdfrwt>
<totfact> 0.36016392E+03</totfact>
</mgrwt>
</event>
<event>
 5    0  0.2396052E+000  0.5563558E+03  0.7546771E-02  0.1000033E+00
          2   -1    0    0  503    0 -0.00000000000E+00  0.00000000000E+00  0.49780419314E+03  0.49780419314E+03  0.00000000000E+00 0.  1.
         21   -1    0    0  501  502  0.00000000000E+00 -0.00000000000E+00 -0.41531225632E+03  0.41531225632E+03  0.00000000000E+00 0.  1.
         25    1    1    2    0    0  0.14024994021E+03  0.23114532054E+03 -0.78040968807E+02  0.30791816729E+03  0.12500000000E+03 0.  0.
         21    1    1    2  503  502 -0.18801827148E+03 -0.16933432650E+03 -0.14377325726E+03  0.29102531512E+03  0.00000000000E+00 0.  1.
          2    1    1    2  501    0  0.47768331262E+02 -0.61810994038E+02  0.30430616288E+03  0.31417296705E+03  0.00000000000E+00 0.  1.
<mgrwt>
<rscale>  4 0.55635577E+03</rscale>
<asrwt>0</asrwt>
<pdfrwt beam="1">  1       21 0.63894193E-01 0.55635577E+03</pdfrwt>
<pdfrwt beam="2">  1        2 0.76585261E-01 0.55635577E+03</pdfrwt>
<totfact> 0.16069918E+03</totfact>
</mgrwt>
</event>
<event>
 5    0  0.2396052E+000  0.5551296E+03  0.7546771E-02  0.1000314E+00
         21   -1    0    0  501  502  0.00000000000E+00  0.00000000000E+00  0.10070946916E+03  0.10070946916E+03  0.00000000000E+00 0. -1.
          2   -1    0    0  503    0 -0.00000000000E+00 -0.00000000000E+00 -0.26358013533E+04  0.26358013533E+04  0.00000000000E+00 0. -1.
         25    1    1    2    0    0 -0.18698070469E+02  0.32387019635E+03 -0.46703502428E+03  0.58222696247E+03  0.12500000000E+03 0.  0.
         21    1    1    2  503  502 -0.23117723350E+02 -0.20393967185E+03 -0.21631488520E+03  0.29819112737E+03  0.00000000000E+00 0. -1.
          2    1    1    2  501    0  0.41815793819E+02 -0.11993052450E+03 -0.18517419746E+04  0.18560927326E+04  0.00000000000E+00 0. -1.
<mgrwt>
<rscale>  4 0.55512964E+03</rscale>
<asrwt>0</asrwt>
<pdfrwt beam="1">  1       21 0.15493765E-01 0.55512964E+03</pdfrwt>
<pdfrwt beam="2">  1        2 0.40550788E+00 0.55512964E+03</pdfrwt>
<totfact> 0.14141856E+03</totfact>
</mgrwt>
</event>
<event>
 5    0  0.2396052E+000  0.5817342E+03  0.7546771E-02  0.9944043E-01
         21   -1    0    0  501  502  0.00000000000E+00  0.00000000000E+00  0.30873494371E+02  0.30873494371E+02  0.00000000000E+00 0.  1.
          2   -1    0    0  503    0 -0.00000000000E+00 -0.00000000000E+00 -0.32498441735E+04  0.32498441735E+04  0.00000000000E+00 0.  1.
         25    1    1    2    0    0  0.18789049694E+03 -0.15631803769E+03 -0.19346703729E+04  0.19540503115E+04  0.12500000000E+03 0.  0.
         21    1    1    2  503  502 -0.19151008426E+03  0.17860435094E+03 -0.79852570696E+03  0.84036833069E+03  0.00000000000E+00 0.  1.
          2    1    1    2  501    0  0.36195873145E+01 -0.22286313255E+02 -0.48577459927E+03  0.48629902577E+03  0.00000000000E+00 0.  1.
<mgrwt>
<rscale>  4 0.58173425E+03</rscale>
<asrwt>0</asrwt>
<pdfrwt beam="1">  1       21 0.47497690E-02 0.58173425E+03</pdfrwt>
<pdfrwt beam="2">  1        2 0.49997596E+00 0.58173425E+03</pdfrwt>
<totfact> 0.49922571E+03</totfact>
</mgrwt>
</event>
<event>
 5    0  0.2396052E+000  0.6605188E+03  0.7546771E-02  0.9787239E-01
         21   -1    0    0  501  502  0.00000000000E+00  0.00000000000E+00  0.13947160982E+03  0.13947160982E+03  0.00000000000E+00 0.  1.
          1   -1    0    0  503    0 -0.00000000000E+00 -0.00000000000E+00 -0.15895853564E+04  0.15895853564E+04  0.00000000000E+00 0. -1.
         25    1    1    2    0    0  0.20687783775E+03  0.13832361024E+03 -0.45825060217E+02  0.28223535754E+03  0.12500000000E+03 0.  0.
         21    1    1    2  503  502 -0.19301974026E+03 -0.12265116595E+03 -0.59763217034E+03  0.63989385031E+03  0.00000000000E+00 0.  1.
          1    1    1    2  501    0 -0.13858097484E+02 -0.15672444292E+02 -0.80665651600E+03  0.80692775834E+03  0.00000000000E+00 0. -1.
<mgrwt>
<rscale>  4 0.66051879E+03</rscale>
<asrwt>0</asrwt>
<pdfrwt beam="1">  1       21 0.21457171E-01 0.66051879E+03</pdfrwt>
<pdfrwt beam="2">  1        1 0.24455159E+00 0.66051879E+03</pdfrwt>
<totfact> 0.12482965E+03</totfact>
</mgrwt>
</event>
<event>
 5    0  0.2396052E+000  0.6693701E+03  0.7546771E-02  0.9771096E-01
         21   -1    0    0  501  502  0.00000000000E+00  0.00000000000E+00  0.60772514915E+03  0.60772514915E+03  0.00000000000E+00 0.  1.
         -2   -1    0    0    0  501 -0.00000000000E+00 -0.00000000000E+00 -0.51983086610E+03  0.51983086610E+03  0.00000000000E+00 0. -1.
         25    1    1    2    0    0 -0.30146006633E+03 -0.10936550288E+03  0.44764640915E+03  0.56466918850E+03  0.12500000000E+03 0.  0.
         21    1    1    2  503  502 -0.19898934107E+01  0.12785693934E+03 -0.12463295410E+03  0.17856295770E+03  0.00000000000E+00 0. -1.
         -2    1    1    2    0  503  0.30344995974E+03 -0.18491436455E+02 -0.23511917200E+03  0.38432386906E+03  0.00000000000E+00 0. -1.
<mgrwt>
<rscale>  4 0.66937010E+03</rscale>
<asrwt>0</asrwt>
<pdfrwt beam="1">  1       21 0.93496177E-01 0.66937010E+03</pdfrwt>
<pdfrwt beam="2">  1       -2 0.79973980E-01 0.66937010E+03</pdfrwt>
<totfact> 0.96506288E+01</totfact>
</mgrwt>
</event>
<event>
 5    0  0.2396052E+000  0.4804410E+03  0.7546771E-02  0.1019014E+00
          2   -1    0    0  503    0 -0.00000000000E+00  0.00000000000E+00  0.27390465896E+04  0.27390465896E+04  0.00000000000E+00 0.  1.
         21   -1    0    0  501  502  0.00000000000E+00 -0.00000000000E+00 -0.44588051530E+02  0.44588051530E+02  0.00000000000E+00 0. -1.
         25    1    1    2    0    0 -0.17271654960E+03 -0.10093923284E+03  0.36859624360E+03  0.43761618574E+03  0.12500000000E+03 0.  0.
         21    1    1    2  503  502  0.11776042288E+03 -0.62850947384E+02  0.10882564841E+04  0.10964123011E+04  0.00000000000E+00 0.  1.
          2    1    1    2  501    0  0.54956126720E+02  0.16379018022E+03  0.12376058104E+04  0.12496061543E+04  0.00000000000E+00 0.  1.
<mgrwt>
<rscale>  4 0.48044097E+03</rscale>
<asrwt>0</asrwt>
<pdfrwt beam="1">  1       21 0.68597024E-02 0.48044097E+03</pdfrwt>
<pdfrwt beam="2">  1        2 0.42139165E+00 0.48044097E+03</pdfrwt>
<totfact> 0.54839635E+03</totfact>
</mgrwt>
</event>
<event>
 5    0  0.2396052E+000  0.4180838E+03  0.7546771E-02  0.1037692E+00
         21   -1    0    0  501  502  0.00000000000E+00  0.00000000000E+00  0.25246783929E+03  0.25246783929E+03  0.00000000000E+00 0. -1.
          2   -1    0    0  503    0 -0.00000000000E+00 -0.00000000000E+00 -0.14681263420E+04  0.14681263420E+04  0.00000000000E+00 0.  1.
         25    1    1    2    0    0  0.90507826270E+02 -0.32129352665E+03  0.27815185377E+02  0.35751906441E+03  0.12500000000E+03 0.  0.
         21    1    1    2  503  502 -0.36226003739E+02  0.46270637000E+02  0.25097397404E+02  0.63899722627E+02  0.00000000000E+00 0. -1.
          2    1    1    2  501    0 -0.54281822531E+02  0.27502288965E+03 -0.12685710855E+04  0.12991753942E+04  0.00000000000E+00 0.  1.
<mgrwt>
<rscale>  4 0.41808379E+03</rscale>
<asrwt>0</asrwt>
<pdfrwt beam="1">  1       21 0.38841206E-01 0.41808379E+03</pdfrwt>
<pdfrwt beam="2">  1        2 0.22586559E+00 0.41808379E+03</pdfrwt>
<totfact> 0.10595119E+03</totfact>
</mgrwt>
</event>
<event>
 5    0  0.2396052E+000  0.3818339E+03  0.7546771E-02  0.1050258E+00
          2   -1    0    0  503    0 -0.00000000000E+00  0.00000000000E+00  0.54371521331E+03  0.54371521331E+03  0.00000000000E+00 0. -1.
         21   -1    0    0  501  502  0.00000000000E+00 -0.00000000000E+00 -0.17682084466E+03  0.17682084466E+03  0.00000000000E+00 0. -1.
         25    1    1    2    0    0 -0.23503377982E+03  0.57866560924E+02  0.15480321543E+02  0.27286270702E+03  0.12500000000E+03 0.  0.
         21    1    1    2  503  502  0.92877722578E+02  0.28467954783E+02  0.66355393395E+02  0.11764239896E+03  0.00000000000E+00 0.  1.
          2    1    1    2  501    0  0.14215605724E+03 -0.86334515708E+02  0.28505865371E+03  0.33003095199E+03  0.00000000000E+00 0. -1.
<mgrwt>
<rscale>  4 0.38183393E+03</rscale>
<asrwt>0</asrwt>
<pdfrwt beam="1">  1       21 0.27203207E-01 0.38183393E+03</pdfrwt>
<pdfrwt beam="2">  1        2 0.83648494E-01 0.38183393E+03</pdfrwt>
<totfact> 0.88064235E+03</totfact>
</mgrwt>
</event>
<event>
 5    0  0.2396052E+000  0.1287524E+04  0.7546771E-02  0.9039518E-01
         21   -1    0    0  501  502  0.00000000000E+00  0.00000000000E+00  0.77499501419E+03  0.77499501419E+03  0.00000000000E+00 0. -1.
         -2   -1    0    0    0  501 -0.00000000000E+00 -0.00000000000E+00 -0.16192321433E+04  0.16192321433E+04  0.00000000000E+00 0. -1.
         25    1    1    2    0    0  0.21673241861E+03 -0.58353002661E+03  0.20402666207E+03  0.66688238248E+03  0.12500000000E+03 0.  0.
         21    1    1    2  503  502 -0.21518955255E+03  0.60467079671E+03  0.36042294760E+02  0.64283151986E+03  0.00000000000E+00 0.  1.
         -2    1    1    2    0  503 -0.15428660605E+01 -0.21140770103E+02 -0.10843060859E+04  0.10845132551E+04  0.00000000000E+00 0. -1.
<mgrwt>
<rscale>  4 0.12875237E+04</rscale>
<asrwt>0</asrwt>
<pdfrwt beam="1">  1       21 0.11923000E+00 0.12875237E+04</pdfrwt>
<pdfrwt beam="2">  1       -2 0.24911263E+00 0.12875237E+04</pdfrwt>
<totfact> 0.22476667E+00</totfact>
</mgrwt>
</event>
<event>
 5    0  0.2396052E+000  0.3676269E+03  0.7546771E-02  0.1055604E+00
         21   -1    0    0  501  502  0.00000000000E+00  0.00000000000E+00  0.44355131716E+02  0.44355131716E+02  0.00000000000E+00 0. -1.
          1   -1    0    0  503    0 -0.00000000000E+00 -0.00000000000E+00 -0.16604121431E+04  0.16604121431E+04  0.00000000000E+00 0. -1.
         25    1    1    2    0    0 -0.74859658603E+02 -0.21669642065E+03 -0.50370258417E+03  0.56736460985E+03  0.12500000000E+03 0.  0.
         21    1    1    2  503  502  0.47352231226E+02  0.81847367058E+02 -0.34103871957E+03  0.35390483684E+03  0.00000000000E+00 0.  1.
          1    1    1    2  501    0  0.27507427377E+02  0.13484905359E+03 -0.77131570764E+03  0.78349782812E+03  0.00000000000E+00 0. -1.
<mgrwt>
<rscale>  4 0.36762688E+03</rscale>
<asrwt>0</asrwt>
<pdfrwt beam="1">  1       21 0.68238665E-02 0.36762688E+03</pdfrwt>
<pdfrwt beam="2">  1        1 0.25544802E+00 0.36762688E+03</pdfrwt>
<totfact> 0.96338460E+03</totfact>
</mgrwt>
</event>
<event>
 5    0  0.2396052E+000  0.4438970E+03  0.7546771E-02  0.1029558E+00
          1   -1    0    0  503    0 -0.00000000000E+00  0.00000000000E+00  0.10475366482E+04  0.10475366482E+04  0.00000000000E+00 0. -1.
         21   -1    0    0  501  502  0.00000000000E+00 -0.00000000000E+00 -0.14682831050E+03  0.14682831050E+03  0.00000000000E+00 0. -1.
         25    1    1    2    0    0 -0.63558783225E+02  0.35685788307E+03  0.52294866811E+03  0.64845013464E+03  0.12500000000E+03 0.  0.
         21    1    1    2  503  502 -0.65937602475E+01 -0.49440413691E+02  0.14684379937E+03  0.15508363419E+03  0.00000000000E+00 0.  1.
          1    1    1    2  501    0  0.70152543472E+02 -0.30741746938E+03  0.23091587018E+03  0.39083118982E+03  0.00000000000E+00 0. -1.
<mgrwt>
<rscale>  4 0.44389702E+03</rscale>
<asrwt>0</asrwt>
<pdfrwt beam="1">  1       21 0.22588971E-01 0.44389702E+03</pdfrwt>
<pdfrwt beam="2">  1        1 0.16115948E+00 0.44389702E+03</pdfrwt>
<totfact> 0.28279236E+03</totfact>
</mgrwt>
</event>
<event>
 5    0  0.2396052E+000  0.6204243E+03  0.7546771E-02  0.9863915E-01
         -3   -1    0    0    0  501 -0.00000000000E+00  0.00000000000E+00  0.86163844048E+02  0.86163844048E+02  0.00000000000E+00 0. -1.
         21   -1    0    0  501  502  0.00000000000E+00 -0.00000000000E+00 -0.21686453873E+04  0.21686453873E+04  0.00000000000E+00 0. -1.
         25    1    1    2    0    0 -0.30769017193E+03 -0.77571831653E+02 -0.15657658371E+04  0.16024787947E+04  0.12500000000E+03 0.  0.
         21    1    1    2  503  502  0.94353048824E+02  0.14040572733E+03 -0.16573906587E+03  0.23682420494E+03  0.00000000000E+00 0.  1.
         -3    1    1    2    0  503  0.21333712310E+03 -0.62833895678E+02 -0.35097664037E+03  0.41550623175E+03  0.00000000000E+00 0. -1.
<mgrwt>
<rscale>  4 0.62042429E+03</rscale>
<asrwt>0</asrwt>
<pdfrwt beam="1">  1       21 0.33363774E+00 0.62042429E+03</pdfrwt>
<pdfrwt beam="2">  1       -3 0.13255977E-01 0.62042429E+03</pdfrwt>
<totfact> 0.39674763E+01</totfact>
</mgrwt>
</event>
<event>
 5    0  0.2396052E+000  0.5168995E+03  0.7546771E-02  0.1009460E+00
          2   -1    0    0  503    0 -0.00000000000E+00  0.00000000000E+00  0.20886701217E+04  0.20886701217E+04  0.00000000000E+00 0. -1.
         21   -1    0    0  501  502  0.00000000000E+00 -0.00000000000E+00 -0.65944749480E+02  0.65944749480E+02  0.00000000000E+00 0. -1.
         25    1    1    2    0    0  0.20475217793E+03  0.18707189667E+03  0.49921881125E+03  0.58460565375E+03  0.12500000000E+03 0.  0.
         21    1    1    2  503  502 -0.16848758816E+02 -0.65915198787E+02  0.97938055333E+03  0.98174078164E+03  0.00000000000E+00 0.  1.
          2    1    1    2  501    0 -0.18790341911E+03 -0.12115669788E+03  0.54412600766E+03  0.58826843580E+03  0.00000000000E+00 0. -1.
<mgrwt>
<rscale>  4 0.51689948E+03</rscale>
<asrwt>0</asrwt>
<pdfrwt beam="1">  1       21 0.10145348E-01 0.51689948E+03</pdfrwt>
<pdfrwt beam="2">  1        2 0.32133381E+00 0.51689948E+03</pdfrwt>
<totfact> 0.62322197E+03</totfact>
</mgrwt>
</event>
<event>
 5    0  0.2396052E+000  0.4264334E+03  0.7546771E-02  0.1034993E+00
         21   -1    0    0  501  502  0.00000000000E+00  0.00000000000E+00  0.69251970263E+03  0.69251970263E+03  0.00000000000E+00 0. -1.
          2   -1    0    0  503    0 -0.00000000000E+00 -0.00000000000E+00 -0.16841180947E+04  0.16841180947E+04  0.00000000000E+00 0.  1.
         25    1    1    2    0    0  0.19665647441E+03 -0.55554831461E+02  0.37056661869E+03  0.44125358595E+03  0.12500000000E+03 0.  0.
         21    1    1    2  503  502 -0.79321476133E+02 -0.16823423381E+03  0.24548945891E+03  0.30799306557E+03  0.00000000000E+00 0. -1.
          2    1    1    2  501    0 -0.11733499828E+03  0.22378906527E+03 -0.16076544697E+04  0.16273911458E+04  0.00000000000E+00 0.  1.
<mgrwt>
<rscale>  4 0.42643341E+03</rscale>
<asrwt>0</asrwt>
<pdfrwt beam="1">  1       21 0.10654149E+00 0.42643341E+03</pdfrwt>
<pdfrwt beam="2">  1        2 0.25909509E+00 0.42643341E+03</pdfrwt>
<totfact> 0.85215965E+01</totfact>
</mgrwt>
</event>
<event>
 5    0  0.2396052E+000  0.3960048E+03  0.7546771E-02  0.1045172E+00
         21   -1    0    0  501  502  0.00000000000E+00  0.00000000000E+00  0.30145060412E+03  0.30145060412E+03  0.00000000000E+00 0.  1.
          2   -1    0    0  503    0 -0.00000000000E+00 -0.00000000000E+00 -0.18938933840E+04  0.18938933840E+04  0.00000000000E+00 0.  1.
         25    1    1    2    0    0 -0.20002996118E+03 -0.95984883772E+02  0.10130426320E+02  0.25485821317E+03  0.12500000000E+03 0.  0.
         21    1    1    2  503  502  0.68308560414E+02  0.36045930764E+02  0.15700092913E+03  0.17497045550E+03  0.00000000000E+00 0.  1.
          2    1    1    2  501    0  0.13172140076E+03  0.59938953008E+02 -0.17595741353E+04  0.17655153194E+04  0.00000000000E+00 0.  1.
<mgrwt>
<rscale>  4 0.39600479E+03</rscale>
<asrwt>0</asrwt>
<pdfrwt beam="1">  1       21 0.46377017E-01 0.39600479E+03</pdfrwt>
<pdfrwt beam="2">  1        2 0.29136821E+00 0.39600479E+03</pdfrwt>
<totfact> 0.43628404E+02</totfact>
</mgrwt>
</event>
<event>
 5    0  0.2396052E+000  0.6578816E+03  0.7546771E-02  0.9792101E-01
          2   -1    0    0  503    0 -0.00000000000E+00  0.00000000000E+00  0.13642212950E+04  0.13642212950E+04  0.00000000000E+00 0. -1.
         21   -1    0    0  501  502  0.00000000000E+00 -0.00000000000E+00 -0.10640056525E+03  0.10640056525E+03  0.00000000000E+00 0.  1.
         25    1    1    2    0    0  0.21043877732E+03  0.22752675077E+02  0.71797314792E+02  0.25608986242E+03  0.12500000000E+03 0.  0.
         21    1    1    2  503  502 -0.20632473028E+03 -0.58015392861E+02  0.84864508631E+03  0.87529090173E+03  0.00000000000E+00 0. -1.
          2    1    1    2  501    0 -0.41140470348E+01  0.35262717784E+02  0.33737832867E+03  0.33924109613E+03  0.00000000000E+00 0. -1.
<mgrwt>
<rscale>  4 0.65788162E+03</rscale>
<asrwt>0</asrwt>
<pdfrwt beam="1">  1       21 0.16369319E-01 0.65788162E+03</pdfrwt>
<pdfrwt beam="2">  1        2 0.20988019E+00 0.65788162E+03</pdfrwt>
<totfact> 0.62794020E+03</totfact>
</mgrwt>
</event>
<event>
 5    0  0.2396052E+000  0.1119551E+04  0.7546771E-02  0.9186343E-01
         21   -1    0    0  501  502  0.00000000000E+00  0.00000000000E+00  0.17572992061E+04  0.17572992061E+04  0.00000000000E+00 0.  1.
          2   -1    0    0  503    0 -0.00000000000E+00 -0.00000000000E+00 -0.34182024469E+03  0.34182024469E+03  0.00000000000E+00 0.  1.
         25    1    1    2    0    0 -0.18059035468E+03 -0.14144812132E+03 -0.79390882766E+02  0.27303545464E+03  0.12500000000E+03 0.  0.
         21    1    1    2  503  502  0.10501981688E+03  0.10184685524E+03  0.16460245911E+04  0.16525129042E+04  0.00000000000E+00 0.  1.
          2    1    1    2  501    0  0.75570537797E+02  0.39601266079E+02 -0.15115474692E+03  0.17357109199E+03  0.00000000000E+00 0.  1.
<mgrwt>
<rscale>  4 0.11195514E+04</rscale>
<asrwt>0</asrwt>
<pdfrwt beam="1">  1       21 0.27035372E+00 0.11195514E+04</pdfrwt>
<pdfrwt beam="2">  1        2 0.52587731E-01 0.11195514E+04</pdfrwt>
<totfact> 0.41054658E+01</totfact>
</mgrwt>
</event>
<event>
 5    0  0.2396052E+000  0.4383627E+03  0.7546771E-02  0.1031250E+00
          2   -1    0    0  503    0 -0.00000000000E+00  0.00000000000E+00  0.75485740109E+03  0.75485740109E+03  0.00000000000E+00 0.  1.
         21   -1    0    0  501  502  0.00000000000E+00 -0.00000000000E+00 -0.12173589158E+03  0.12173589158E+03  0.00000000000E+00 0.  1.
         25    1    1    2    0    0 -0.24472686848E+03 -0.87491649919E+02  0.21278294493E+03  0.35839588532E+03  0.12500000000E+03 0.  0.
         21    1    1    2  503  502  0.77303117885E+02  0.10022257918E+03  0.24295612665E+03  0.27394893117E+03  0.00000000000E+00 0. -1.
          2    1    1    2  501    0  0.16742375060E+03 -0.12730929264E+02  0.17738243793E+03  0.24424847616E+03  0.00000000000E+00 0.  1.
<mgrwt>
<rscale>  4 0.43836271E+03</rscale>
<asrwt>0</asrwt>
<pdfrwt beam="1">  1       21 0.18728599E-01 0.43836271E+03</pdfrwt>
<pdfrwt beam="2">  1        2 0.11613190E+00 0.43836271E+03</pdfrwt>
<totfact> 0.12050630E+04</totfact>
</mgrwt>
</event>
<event>
 5    0  0.2396052E+000  0.6947206E+03  0.7546771E-02  0.9726303E-01
         21   -1    0    0  501  502  0.00000000000E+00  0.00000000000E+00  0.28403570851E+03  0.28403570851E+03  0.00000000000E+00 0. -1.
         -4   -1    0    0    0  501 -0.00000000000E+00 -0.00000000000E+00 -0.49491056063E+03  0.49491056063E+03  0.00000000000E+00 0. -1.
         25    1    1    2    0    0  0.20747410366E+03 -0.21357749628E+03 -0.21389037769E+03  0.38734344486E+03  0.12500000000E+03 0.  0.
         21    1    1    2  503  502 -0.20926621139E+03  0.23544463465E+03  0.68651751263E+02  0.32239662865E+03  0.00000000000E+00 0. -1.
         -4    1    1    2    0  503  0.17921077287E+01 -0.21867138367E+02 -0.65636225692E+02  0.69206195630E+02  0.00000000000E+00 0. -1.
<mgrwt>
<rscale>  4 0.69472060E+03</rscale>
<asrwt>0</asrwt>
<pdfrwt beam="1">  1       21 0.43697802E-01 0.69472060E+03</pdfrwt>
<pdfrwt beam="2">  1       -4 0.76140084E-01 0.69472060E+03</pdfrwt>
<totfact> 0.32193830E+02</totfact>
</mgrwt>
</event>
<event>
 5    0  0.2396052E+000  0.7280145E+03  0.7546771E-02  0.9670488E-01
          2   -1    0    0  503    0 -0.00000000000E+00  0.00000000000E+00  0.34162074465E+03  0.34162074465E+03  0.00000000000E+00 0.  1.
         21   -1    0    0  501  502  0.00000000000E+00 -0.00000000000E+00 -0.16031462553E+04  0.16031462553E+04  0.00000000000E+00 0.  1.
         25    1    1    2    0    0 -0.38084289594E+03 -0.54026811132E+00 -0.34023851538E+03  0.52576501464E+03  0.12500000000E+03 0.  0.
         21    1    1    2  503  502 -0.20532995455E+03 -0.74673259186E+02 -0.78183978599E+03  0.81179427002E+03  0.00000000000E+00 0.  1.
          2    1    1    2  501    0  0.58617285048E+03  0.75213527298E+02 -0.13944720928E+03  0.60720771529E+03  0.00000000000E+00 0.  1.
<mgrwt>
<rscale>  4 0.72801451E+03</rscale>
<asrwt>0</asrwt>
<pdfrwt beam="1">  1       21 0.24663788E+00 0.72801451E+03</pdfrwt>
<pdfrwt beam="2">  1        2 0.52557038E-01 0.72801451E+03</pdfrwt>
<totfact> 0.62879612E+01</totfact>
</mgrwt>
</event>
<event>
 5    0  0.2396052E+000  0.3752084E+03  0.7546771E-02  0.1052719E+00
          3   -1    0    0  503    0 -0.00000000000E+00  0.00000000000E+00  0.91008162058E+03  0.91008162058E+03  0.00000000000E+00 0.  1.
         21   -1    0    0  501  502  0.00000000000E+00 -0.00000000000E+00 -0.15665127895E+03  0.15665127895E+03  0.00000000000E+00 0.  1.
         25    1    1    2    0    0 -0.12568080419E+03 -0.21906717579E+03  0.46097393475E+02  0.28554520086E+03  0.12500000000E+03 0.  0.
         21    1    1    2  503  502 -0.42846171764E+02  0.66537648147E+02  0.74180162601E+02  0.10847004001E+03  0.00000000000E+00 0. -1.
          3    1    1    2  501    0  0.16852697595E+03  0.15252952765E+03  0.63315278555E+03  0.67271765867E+03  0.00000000000E+00 0.  1.
<mgrwt>
<rscale>  4 0.37520837E+03</rscale>
<asrwt>0</asrwt>
<pdfrwt beam="1">  1       21 0.24100197E-01 0.37520837E+03</pdfrwt>
<pdfrwt beam="2">  1        3 0.14001255E+00 0.37520837E+03</pdfrwt>
<totfact> 0.31776659E+02</totfact>
</mgrwt>
</event>
<event>
 5    0  0.2396052E+000  0.4088353E+03  0.7546771E-02  0.1040763E+00
         21   -1    0    0  501  502  0.00000000000E+00  0.00000000000E+00  0.43210140020E+03  0.43210140020E+03  0.00000000000E+00 0. -1.
          2   -1    0    0  503    0 -0.00000000000E+00 -0.00000000000E+00 -0.18887469512E+03  0.18887469512E+03  0.00000000000E+00 0. -1.
         25    1    1    2    0    0  0.16307824377E+03 -0.15455545670E+03  0.18833153626E+03  0.31870938225E+03  0.12500000000E+03 0.  0.
         21    1    1    2  503  502 -0.11822533633E+03  0.94524272396E+02  0.12751202071E+03  0.19791761834E+03  0.00000000000E+00 0. -1.
          2    1    1    2  501    0 -0.44852907438E+02  0.60031184306E+02 -0.72616851886E+02  0.10434909474E+03  0.00000000000E+00 0. -1.
<mgrwt>
<rscale>  4 0.40883530E+03</rscale>
<asrwt>0</asrwt>
<pdfrwt beam="1">  1       21 0.66477138E-01 0.40883530E+03</pdfrwt>
<pdfrwt beam="2">  1        2 0.29057646E-01 0.40883530E+03</pdfrwt>
<totfact> 0.44236045E+03</totfact>
</mgrwt>
</event>
<event>
 5    0  0.2396052E+000  0.4072747E+03  0.7546771E-02  0.1041289E+00
          1   -1    0    0  503    0 -0.00000000000E+00  0.00000000000E+00  0.13658638030E+03  0.13658638030E+03  0.00000000000E+00 0. -1.
         21   -1    0    0  501  502  0.00000000000E+00 -0.00000000000E+00 -0.50598605277E+03  0.50598605277E+03  0.00000000000E+00 0. -1.
         25    1    1    2    0    0 -0.15569184348E+03 -0.13600265841E+03 -0.23302913620E+03  0.33565495906E+03  0.12500000000E+03 0.  0.
         21    1    1    2  503  502  0.11691152449E+03  0.11685322045E+03 -0.18075875484E+03  0.24494225266E+03  0.00000000000E+00 0. -1.
          1    1    1    2  501    0  0.38780318991E+02  0.19149437960E+02  0.44388218568E+02  0.61975221362E+02  0.00000000000E+00 0. -1.
<mgrwt>
<rscale>  4 0.40727473E+03</rscale>
<asrwt>0</asrwt>
<pdfrwt beam="1">  1       21 0.77844008E-01 0.40727473E+03</pdfrwt>
<pdfrwt beam="2">  1        1 0.21013289E-01 0.40727473E+03</pdfrwt>
<totfact> 0.35902458E+03</totfact>
</mgrwt>
</event>
<event>
 5    0  0.2396052E+000  0.6392369E+03  0.7546771E-02  0.9827188E-01
          2   -1    0    0  503    0 -0.00000000000E+00  0.00000000000E+00  0.13434164171E+04  0.13434164171E+04  0.00000000000E+00 0. -1.
         21   -1    0    0  501  502  0.00000000000E+00 -0.00000000000E+00 -0.24438643326E+04  0.24438643326E+04  0.00000000000E+00 0. -1.
         25    1    1    2    0    0 -0.81460138163E+02  0.29967362775E+03 -0.11781393028E+04  0.12247764098E+04  0.12500000000E+03 0.  0.
         21    1    1    2  503  502  0.29695300540E+03  0.63315755100E+02 -0.11890879905E+04  0.12272408979E+04  0.00000000000E+00 0. -1.
          2    1    1    2  501    0 -0.21549286724E+03 -0.36298938285E+03  0.12667793778E+04  0.13352634421E+04  0.00000000000E+00 0. -1.
<mgrwt>
<rscale>  4 0.63923690E+03</rscale>
<asrwt>0</asrwt>
<pdfrwt beam="1">  1       21 0.37597912E+00 0.63923690E+03</pdfrwt>
<pdfrwt beam="2">  1        2 0.20667945E+00 0.63923690E+03</pdfrwt>
<totfact> 0.17171308E+00</totfact>
</mgrwt>
</event>
<event>
 5    0  0.2396052E+000  0.3992895E+03  0.7546771E-02  0.1044026E+00
          1   -1    0    0  503    0 -0.00000000000E+00  0.00000000000E+00  0.82353532559E+03  0.82353532559E+03  0.00000000000E+00 0.  1.
         21   -1    0    0  501  502  0.00000000000E+00 -0.00000000000E+00 -0.14186030171E+03  0.14186030171E+03  0.00000000000E+00 0. -1.
         25    1    1    2    0    0  0.20104618698E+03  0.36338010564E+02  0.12590286717E+03  0.27058557292E+03  0.12500000000E+03 0.  0.
         21    1    1    2  503  502 -0.14710984902E+03 -0.40649674691E+02  0.17270453683E+02  0.15359678480E+03  0.00000000000E+00 0. -1.
          1    1    1    2  501    0 -0.53936337960E+02  0.43116641271E+01  0.53850170302E+03  0.54121326957E+03  0.00000000000E+00 0.  1.
<mgrwt>
<rscale>  4 0.39928946E+03</rscale>
<asrwt>0</asrwt>
<pdfrwt beam="1">  1       21 0.21824662E-01 0.39928946E+03</pdfrwt>
<pdfrwt beam="2">  1        1 0.12669774E+00 0.39928946E+03</pdfrwt>
<totfact> 0.45739665E+03</totfact>
</mgrwt>
</event>
<event>
 5    0  0.2396052E+000  0.3779712E+03  0.7546771E-02  0.1051686E+00
         21   -1    0    0  501  502  0.00000000000E+00  0.00000000000E+00  0.89669167883E+02  0.89669167883E+02  0.00000000000E+00 0. -1.
         -1   -1    0    0    0  501 -0.00000000000E+00 -0.00000000000E+00 -0.12594335093E+04  0.12594335093E+04  0.00000000000E+00 0.  1.
         25    1    1    2    0    0  0.55642156101E+02 -0.23173672345E+03 -0.17995546378E+03  0.32373898047E+03  0.12500000000E+03 0.  0.
         21    1    1    2  503  502 -0.49658677524E+02  0.68884821183E+02 -0.17620339329E+03  0.19559841167E+03  0.00000000000E+00 0.  1.
         -1    1    1    2    0  503 -0.59834785767E+01  0.16285190227E+03 -0.81360548432E+03  0.82976528501E+03  0.00000000000E+00 0.  1.
<mgrwt>
<rscale>  4 0.37797116E+03</rscale>
<asrwt>0</asrwt>
<pdfrwt beam="1">  1       21 0.13795257E-01 0.37797116E+03</pdfrwt>
<pdfrwt beam="2">  1       -1 0.19375900E+00 0.37797116E+03</pdfrwt>
<totfact> 0.75524567E+02</totfact>
</mgrwt>
</event>
<event>
 5    0  0.2396052E+000  0.3757240E+03  0.7546771E-02  0.1052526E+00
          1   -1    0    0  503    0 -0.00000000000E+00  0.00000000000E+00  0.88748170737E+03  0.88748170737E+03  0.00000000000E+00 0. -1.
         21   -1    0    0  501  502  0.00000000000E+00 -0.00000000000E+00 -0.14480728197E+03  0.14480728197E+03  0.00000000000E+00 0. -1.
         25    1    1    2    0    0  0.15892086485E+03 -0.15689210274E+03  0.35170988798E+03  0.43496645674E+03  0.12500000000E+03 0.  0.
         21    1    1    2  503  502  0.10180536166E+03  0.44048067342E+02  0.26358465532E+03  0.28597453456E+03  0.00000000000E+00 0.  1.
          1    1    1    2  501    0 -0.26072622651E+03  0.11284403540E+03  0.12737988210E+03  0.31134799804E+03  0.00000000000E+00 0. -1.
<mgrwt>
<rscale>  4 0.37572402E+03</rscale>
<asrwt>0</asrwt>
<pdfrwt beam="1">  1       21 0.22278044E-01 0.37572402E+03</pdfrwt>
<pdfrwt beam="2">  1        1 0.13653564E+00 0.37572402E+03</pdfrwt>
<totfact> 0.39162524E+03</totfact>
</mgrwt>
</event>
<event>
 5    0  0.2396052E+000  0.5530417E+03  0.7546771E-02  0.1000792E+00
         21   -1    0    0  501  502  0.00000000000E+00  0.00000000000E+00  0.13466941081E+03  0.13466941081E+03  0.00000000000E+00 0. -1.
          2   -1    0    0  503    0 -0.00000000000E+00 -0.00000000000E+00 -0.19932294787E+04  0.19932294787E+04  0.00000000000E+00 0. -1.
         25    1    1    2    0    0 -0.27178745765E+03  0.48047310888E+01 -0.12643973453E+03  0.32481304476E+03  0.12500000000E+03 0.  0.
         21    1    1    2  503  502  0.21606797150E+03 -0.36291750572E+02 -0.31045121784E+03  0.37997686526E+03  0.00000000000E+00 0. -1.
          2    1    1    2  501    0  0.55719486148E+02  0.31487019483E+02 -0.14216691155E+04  0.14231089795E+04  0.00000000000E+00 0. -1.
<mgrwt>
<rscale>  4 0.55304169E+03</rscale>
<asrwt>0</asrwt>
<pdfrwt beam="1">  1       21 0.20718372E-01 0.55304169E+03</pdfrwt>
<pdfrwt beam="2">  1        2 0.30665068E+00 0.55304169E+03</pdfrwt>
<totfact> 0.18491704E+03</totfact>
</mgrwt>
</event>
<event>
 5    0  0.2396052E+000  0.7212368E+03  0.7546771E-02  0.9681588E-01
         -1   -1    0    0    0  501 -0.00000000000E+00  0.00000000000E+00  0.79795774594E+03  0.79795774594E+03  0.00000000000E+00 0. -1.
         21   -1    0    0  501  502  0.00000000000E+00 -0.00000000000E+00 -0.36874015273E+03  0.36874015273E+03  0.00000000000E+00 0. -1.
         25    1    1    2    0    0 -0.16502327443E+03  0.38436613635E+03  0.17409975212E+03  0.47000609737E+03  0.12500000000E+03 0.  0.
         21    1    1    2  503  502  0.10593978936E+03 -0.18337829678E+03 -0.13692356063E+03  0.25218822366E+03  0.00000000000E+00 0.  1.
         -1    1    1    2    0  503  0.59083485065E+02 -0.20098783957E+03  0.39204140173E+03  0.44450357764E+03  0.00000000000E+00 0. -1.
<mgrwt>
<rscale>  4 0.72123683E+03</rscale>
<asrwt>0</asrwt>
<pdfrwt beam="1">  1       21 0.56729255E-01 0.72123683E+03</pdfrwt>
<pdfrwt beam="2">  1       -1 0.12276273E+00 0.72123683E+03</pdfrwt>
<totfact> 0.14696781E+02</totfact>
</mgrwt>
</event>
<event>
 5    0  0.2396052E+000  0.6532839E+03  0.7546771E-02  0.9800637E-01
         21   -1    0    0  501  502  0.00000000000E+00  0.00000000000E+00  0.74442881034E+03  0.74442881034E+03  0.00000000000E+00 0. -1.
          1   -1    0    0  503    0 -0.00000000000E+00 -0.00000000000E+00 -0.15368785575E+04  0.15368785575E+04  0.00000000000E+00 0.  1.
         25    1    1    2    0    0  0.23944148011E+03  0.15124135842E+03  0.69410278774E+03  0.76000648079E+03  0.12500000000E+03 0.  0.
         21    1    1    2  503  502 -0.51770116959E+01 -0.50341925959E+02 -0.10697622979E+03  0.11834282699E+03  0.00000000000E+00 0.  1.
          1    1    1    2  501    0 -0.23426446841E+03 -0.10089943246E+03 -0.13795763051E+04  0.14029580600E+04  0.00000000000E+00 0.  1.
<mgrwt>
<rscale>  4 0.65328394E+03</rscale>
<asrwt>0</asrwt>
<pdfrwt beam="1">  1       21 0.11452751E+00 0.65328394E+03</pdfrwt>
<pdfrwt beam="2">  1        1 0.23644285E+00 0.65328394E+03</pdfrwt>
<totfact> 0.35784455E+01</totfact>
</mgrwt>
</event>
<event>
 5    0  0.2396052E+000  0.1045524E+04  0.7546771E-02  0.9259977E-01
          4   -1    0    0  503    0 -0.00000000000E+00  0.00000000000E+00  0.64602548617E+03  0.64602548617E+03  0.00000000000E+00 0.  1.
         21   -1    0    0  501  502  0.00000000000E+00 -0.00000000000E+00 -0.75387317847E+03  0.75387317847E+03  0.00000000000E+00 0. -1.
         25    1    1    2    0    0 -0.21469633192E+03  0.36249253089E+02 -0.66342916447E+03  0.70934602245E+03  0.12500000000E+03 0.  0.
         21    1    1    2  503  502  0.19885574407E+03 -0.17372581919E+03  0.29804129489E+03  0.39818699208E+03  0.00000000000E+00 0.  1.
          4    1    1    2  501    0  0.15840587850E+02  0.13747656610E+03  0.25754017729E+03  0.29236565012E+03  0.00000000000E+00 0.  1.
<mgrwt>
<rscale>  4 0.10455243E+04</rscale>
<asrwt>0</asrwt>
<pdfrwt beam="1">  1       21 0.11598049E+00 0.10455243E+04</pdfrwt>
<pdfrwt beam="2">  1        4 0.99388537E-01 0.10455243E+04</pdfrwt>
<totfact> 0.17671757E+01</totfact>
</mgrwt>
</event>
<event>
 5    0  0.2396052E+000  0.7278589E+03  0.7546771E-02  0.9670741E-01
         21   -1    0    0  501  502  0.00000000000E+00  0.00000000000E+00  0.10002872306E+03  0.10002872306E+03  0.00000000000E+00 0. -1.
          2   -1    0    0  503    0 -0.00000000000E+00 -0.00000000000E+00 -0.16113714560E+04  0.16113714560E+04  0.00000000000E+00 0.  1.
         25    1    1    2    0    0  0.14382281128E+03  0.19189907452E+03 -0.11704526491E+03  0.29467753542E+03  0.12500000000E+03 0.  0.
         21    1    1    2  503  502 -0.95595659536E+02 -0.17510410418E+03 -0.11447086491E+04  0.11619629377E+04  0.00000000000E+00 0.  1.
          2    1    1    2  501    0 -0.48227151747E+02 -0.16794970338E+02 -0.24958881895E+03  0.25475970588E+03  0.00000000000E+00 0.  1.
<mgrwt>
<rscale>  4 0.72785887E+03</rscale>
<asrwt>0</asrwt>
<pdfrwt beam="1">  1       21 0.15389034E-01 0.72785887E+03</pdfrwt>
<pdfrwt beam="2">  1        2 0.24790330E+00 0.72785887E+03</pdfrwt>
<totfact> 0.50922517E+03</totfact>
</mgrwt>
</event>
<event>
 5    0  0.2396052E+000  0.7588866E+03  0.7546771E-02  0.9621511E-01
         21   -1    0    0  501  502  0.00000000000E+00  0.00000000000E+00  0.12444298768E+04  0.12444298768E+04  0.00000000000E+00 0.  1.
         -1   -1    0    0    0  501 -0.00000000000E+00 -0.00000000000E+00 -0.43936620397E+03  0.43936620397E+03  0.00000000000E+00 0. -1.
         25    1    1    2    0    0  0.28015502849E+03 -0.29578285352E+03  0.10125699802E+04  0.10985887772E+04  0.12500000000E+03 0.  0.
         21    1    1    2  503  502 -0.10519034731E+03  0.19061677864E+03  0.80560872631E+02  0.23214180939E+03  0.00000000000E+00 0. -1.
         -1    1    1    2    0  503 -0.17496468118E+03  0.10516607489E+03 -0.28806718006E+03  0.35306549420E+03  0.00000000000E+00 0. -1.
<mgrwt>
<rscale>  4 0.75888657E+03</rscale>
<asrwt>0</asrwt>
<pdfrwt beam="1">  1       21 0.19145075E+00 0.75888657E+03</pdfrwt>
<pdfrwt beam="2">  1       -1 0.67594801E-01 0.75888657E+03</pdfrwt>
<totfact> 0.25382616E+01</totfact>
</mgrwt>
</event>
<event>
 5    0  0.2396052E+000  0.4283120E+03  0.7546771E-02  0.1034395E+00
         -4   -1    0    0    0  501 -0.00000000000E+00  0.00000000000E+00  0.14243119076E+04  0.14243119076E+04  0.00000000000E+00 0. -1.
         21   -1    0    0  501  502  0.00000000000E+00 -0.00000000000E+00 -0.39785542311E+03  0.39785542311E+03  0.00000000000E+00 0.  1.
         25    1    1    2    0    0  0.27582003391E+03 -0.13770797895E+03 -0.22121421527E+03  0.39950082304E+03  0.12500000000E+03 0.  0.
         21    1    1    2  503  502 -0.84224728836E+02  0.44215650510E+02 -0.50092910257E+02  0.10750873618E+03  0.00000000000E+00 0. -1.
         -4    1    1    2    0  503 -0.19159530507E+03  0.93492328439E+02  0.12977636100E+04  0.13151577714E+04  0.00000000000E+00 0. -1.
<mgrwt>
<rscale>  4 0.42831196E+03</rscale>
<asrwt>0</asrwt>
<pdfrwt beam="1">  1       21 0.61208527E-01 0.42831196E+03</pdfrwt>
<pdfrwt beam="2">  1       -4 0.21912491E+00 0.42831196E+03</pdfrwt>
<totfact> 0.10533576E+01</totfact>
</mgrwt>
</event>
<event>
 5    0  0.2396052E+000  0.4253286E+03  0.7546771E-02  0.1035346E+00
         21   -1    0    0  501  502  0.00000000000E+00  0.00000000000E+00  0.31649380757E+03  0.31649380757E+03  0.00000000000E+00 0. -1.
         -4   -1    0    0    0  501 -0.00000000000E+00 -0.00000000000E+00 -0.71452217381E+03  0.71452217381E+03  0.00000000000E+00 0. -1.
         25    1    1    2    0    0 -0.23389358102E+03  0.12282128820E+03  0.19499395422E+03  0.35133875144E+03  0.12500000000E+03 0.  0.
         21    1    1    2  503  502  0.41635294527E+02  0.50071774362E+02 -0.66400906996E+02  0.93004090168E+02  0.00000000000E+00 0.  1.
         -4    1    1    2    0  503  0.19225828649E+03 -0.17289306256E+03 -0.52662141347E+03  0.58667313977E+03  0.00000000000E+00 0. -1.
<mgrwt>
<rscale>  4 0.42532857E+03</rscale>
<asrwt>0</asrwt>
<pdfrwt beam="1">  1       21 0.48691356E-01 0.42532857E+03</pdfrwt>
<pdfrwt beam="2">  1       -4 0.10992649E+00 0.42532857E+03</pdfrwt>
<totfact> 0.11119235E+02</totfact>
</mgrwt>
</event>
<event>
 5    0  0.2396052E+000  0.5604027E+03  0.7546771E-02  0.9991144E-01
         21   -1    0    0  501  502  0.00000000000E+00  0.00000000000E+00  0.87610343631E+02  0.87610343631E+02  0.00000000000E+00 0. -1.
          1   -1    0    0  503    0 -0.00000000000E+00 -0.00000000000E+00 -0.23778172462E+04  0.23778172462E+04  0.00000000000E+00 0.  1.
         25    1    1    2    0    0  0.59893396206E+02  0.22872447158E+03 -0.25994966169E+03  0.37296236998E+03  0.12500000000E+03 0.  0.
         21    1    1    2  503  502 -0.47543570872E+02 -0.26385093743E+03 -0.55123626473E+03  0.61297563399E+03  0.00000000000E+00 0. -1.
          1    1    1    2  501    0 -0.12349825334E+02  0.35126465849E+02 -0.14790209762E+04  0.14794895859E+04  0.00000000000E+00 0.  1.
<mgrwt>
<rscale>  4 0.56040266E+03</rscale>
<asrwt>0</asrwt>
<pdfrwt beam="1">  1       21 0.13478515E-01 0.56040266E+03</pdfrwt>
<pdfrwt beam="2">  1        1 0.36581803E+00 0.56040266E+03</pdfrwt>
<totfact> 0.91108601E+02</totfact>
</mgrwt>
</event>
<event>
 5    0  0.2396052E+000  0.4887318E+03  0.7546771E-02  0.1016763E+00
          1   -1    0    0  503    0 -0.00000000000E+00  0.00000000000E+00  0.29364187252E+04  0.29364187252E+04  0.00000000000E+00 0. -1.
         21   -1    0    0  501  502  0.00000000000E+00 -0.00000000000E+00 -0.20817325507E+03  0.20817325507E+03  0.00000000000E+00 0. -1.
         25    1    1    2    0    0 -0.19058018287E+03 -0.28394678934E+03  0.16916900572E+03  0.40148441785E+03  0.12500000000E+03 0.  0.
         21    1    1    2  503  502 -0.83832985199E+02  0.80464383431E+01 -0.54765372864E+02  0.10045875095E+03  0.00000000000E+00 0.  1.
          1    1    1    2  501    0  0.27441316807E+03  0.27590035100E+03  0.26138418372E+04  0.26426488114E+04  0.00000000000E+00 0. -1.
<mgrwt>
<rscale>  4 0.48873178E+03</rscale>
<asrwt>0</asrwt>
<pdfrwt beam="1">  1       21 0.32026657E-01 0.48873178E+03</pdfrwt>
<pdfrwt beam="2">  1        1 0.45175670E+00 0.48873178E+03</pdfrwt>
<totfact> 0.73075531E+01</totfact>
</mgrwt>
</event>
<event>
 5    0  0.2396052E+000  0.4099581E+03  0.7546771E-02  0.1040385E+00
         21   -1    0    0  501  502  0.00000000000E+00  0.00000000000E+00  0.38356711565E+03  0.38356711565E+03  0.00000000000E+00 0.  1.
          2   -1    0    0  503    0 -0.00000000000E+00 -0.00000000000E+00 -0.27288077505E+03  0.27288077505E+03  0.00000000000E+00 0. -1.
         25    1    1    2    0    0 -0.15315527096E+03 -0.14964212184E+03  0.97568182110E+01  0.24813201558E+03  0.12500000000E+03 0.  0.
         21    1    1    2  503  502  0.11665313005E+03 -0.74412739683E+02  0.11635118331E+03  0.18078386663E+03  0.00000000000E+00 0.  1.
          2    1    1    2  501    0  0.36502140915E+02  0.22405486153E+03 -0.15421660911E+02  0.22753200850E+03  0.00000000000E+00 0. -1.
<mgrwt>
<rscale>  4 0.40995805E+03</rscale>
<asrwt>0</asrwt>
<pdfrwt beam="1">  1       21 0.59010326E-01 0.40995805E+03</pdfrwt>
<pdfrwt beam="2">  1        2 0.41981657E-01 0.40995805E+03</pdfrwt>
<totfact> 0.38282369E+03</totfact>
</mgrwt>
</event>
<event>
 5    0  0.2396052E+000  0.6971061E+03  0.7546771E-02  0.9722194E-01
         21   -1    0    0  501  502  0.00000000000E+00  0.00000000000E+00  0.12185033502E+03  0.12185033502E+03  0.00000000000E+00 0. -1.
          2   -1    0    0  503    0 -0.00000000000E+00 -0.00000000000E+00 -0.20089078258E+04  0.20089078258E+04  0.00000000000E+00 0.  1.
         25    1    1    2    0    0 -0.16224896078E+03  0.13203574284E+03 -0.97504978555E+03  0.10050399231E+04  0.12500000000E+03 0.  0.
         21    1    1    2  503  502  0.10556173907E+03 -0.41943475203E+02  0.72968573370E+02  0.13500721672E+03  0.00000000000E+00 0. -1.
          2    1    1    2  501    0  0.56687221711E+02 -0.90092267637E+02 -0.98497627857E+03  0.99071102101E+03  0.00000000000E+00 0.  1.
<mgrwt>
<rscale>  4 0.69710614E+03</rscale>
<asrwt>0</asrwt>
<pdfrwt beam="1">  1       21 0.18746207E-01 0.69710614E+03</pdfrwt>
<pdfrwt beam="2">  1        2 0.30906271E+00 0.69710614E+03</pdfrwt>
<totfact> 0.21376423E+03</totfact>
</mgrwt>
</event>
<event>
 5    0  0.2396052E+000  0.4169662E+03  0.7546771E-02  0.1038058E+00
          2   -1    0    0  503    0 -0.00000000000E+00  0.00000000000E+00  0.15122565189E+04  0.15122565189E+04  0.00000000000E+00 0. -1.
         21   -1    0    0  501  502  0.00000000000E+00 -0.00000000000E+00 -0.44810325405E+03  0.44810325405E+03  0.00000000000E+00 0. -1.
         25    1    1    2    0    0  0.30638600013E+02  0.22888983512E+03 -0.12095341601E+03  0.28910899204E+03  0.12500000000E+03 0.  0.
         21    1    1    2  503  502 -0.76771489606E+02 -0.85436276691E+02 -0.22526136393E+03  0.25285549444E+03  0.00000000000E+00 0. -1.
          2    1    1    2  501    0  0.46132889594E+02 -0.14345355843E+03  0.14103680448E+04  0.14183952865E+04  0.00000000000E+00 0. -1.
<mgrwt>
<rscale>  4 0.41696622E+03</rscale>
<asrwt>0</asrwt>
<pdfrwt beam="1">  1       21 0.68938963E-01 0.41696622E+03</pdfrwt>
<pdfrwt beam="2">  1        2 0.23265485E+00 0.41696622E+03</pdfrwt>
<totfact> 0.29393202E+02</totfact>
</mgrwt>
</event>
<event>
 5    0  0.2396052E+000  0.4634234E+03  0.7546771E-02  0.1023793E+00
          2   -1    0    0  503    0 -0.00000000000E+00  0.00000000000E+00  0.23283256812E+04  0.23283256812E+04  0.00000000000E+00 0.  1.
         21   -1    0    0  501  502  0.00000000000E+00 -0.00000000000E+00 -0.27314449792E+03  0.27314449792E+03  0.00000000000E+00 0.  1.
         25    1    1    2    0    0  0.19019225369E+01  0.20687394064E+03  0.65348750200E+02  0.25039150101E+03  0.12500000000E+03 0.  0.
         21    1    1    2  503  502 -0.11143020468E+03 -0.12773844655E+03 -0.13823240402E+03  0.21872813894E+03  0.00000000000E+00 0.  1.
          2    1    1    2  501    0  0.10952828215E+03 -0.79135494093E+02  0.21280648371E+04  0.21323505392E+04  0.00000000000E+00 0.  1.
<mgrwt>
<rscale>  4 0.46342336E+03</rscale>
<asrwt>0</asrwt>
<pdfrwt beam="1">  1       21 0.42022232E-01 0.46342336E+03</pdfrwt>
<pdfrwt beam="2">  1        2 0.35820394E+00 0.46342336E+03</pdfrwt>
<totfact> 0.30505451E+02</totfact>
</mgrwt>
</event>
<event>
 5    0  0.2396052E+000  0.7022781E+03  0.7546771E-02  0.9713344E-01
         21   -1    0    0  501  502  0.00000000000E+00  0.00000000000E+00  0.10819149893E+03  0.10819149893E+03  0.00000000000E+00 0.  1.
          2   -1    0    0  503    0 -0.00000000000E+00 -0.00000000000E+00 -0.24289595032E+04  0.24289595032E+04  0.00000000000E+00 0.  1.
         25    1    1    2    0    0  0.12329467489E+03  0.15998258048E+03 -0.10417018288E+04  0.10684398453E+04  0.12500000000E+03 0.  0.
         21    1    1    2  503  502 -0.12807864393E+03 -0.12809320879E+03  0.79268585391E+01  0.18131421416E+03  0.00000000000E+00 0.  1.
          2    1    1    2  501    0  0.47839690374E+01 -0.31889371689E+02 -0.12869930340E+04  0.12873969427E+04  0.00000000000E+00 0.  1.
<mgrwt>
<rscale>  4 0.70227809E+03</rscale>
<asrwt>0</asrwt>
<pdfrwt beam="1">  1       21 0.16644846E-01 0.70227809E+03</pdfrwt>
<pdfrwt beam="2">  1        2 0.37368607E+00 0.70227809E+03</pdfrwt>
<totfact> 0.15698080E+03</totfact>
</mgrwt>
</event>
<event>
 5    0  0.2396052E+000  0.6826618E+03  0.7546771E-02  0.9747351E-01
         21   -1    0    0  501  502  0.00000000000E+00  0.00000000000E+00  0.34532199370E+03  0.34532199370E+03  0.00000000000E+00 0. -1.
          1   -1    0    0  503    0 -0.00000000000E+00 -0.00000000000E+00 -0.10083972989E+04  0.10083972989E+04  0.00000000000E+00 0.  1.
         25    1    1    2    0    0  0.35578108837E+03 -0.96197611077E+02 -0.75941340875E+02  0.39651765468E+03  0.12500000000E+03 0.  0.
         21    1    1    2  503  502 -0.26240759422E+03  0.83958558393E+02  0.77281560301E+02  0.28614546055E+03  0.00000000000E+00 0. -1.
          1    1    1    2  501    0 -0.93373494154E+02  0.12239052684E+02 -0.66441552466E+03  0.67105617741E+03  0.00000000000E+00 0.  1.
<mgrwt>
<rscale>  4 0.68266180E+03</rscale>
<asrwt>0</asrwt>
<pdfrwt beam="1">  1       21 0.53126461E-01 0.68266180E+03</pdfrwt>
<pdfrwt beam="2">  1        1 0.15513805E+00 0.68266180E+03</pdfrwt>
<totfact> 0.50783141E+02</totfact>
</mgrwt>
</event>
<event>
 5    0  0.2396052E+000  0.1081511E+04  0.7546771E-02  0.9223402E-01
          1   -1    0    0  503    0 -0.00000000000E+00  0.00000000000E+00  0.28196769117E+04  0.28196769117E+04  0.00000000000E+00 0. -1.
         21   -1    0    0  501  502  0.00000000000E+00 -0.00000000000E+00 -0.92711799389E+03  0.92711799389E+03  0.00000000000E+00 0. -1.
         25    1    1    2    0    0  0.21226872626E+03  0.92137493266E+02 -0.83189088047E+03  0.87247622708E+03  0.12500000000E+03 0.  0.
         21    1    1    2  503  502 -0.23592337832E+03 -0.17868551404E+03  0.22125410770E+03  0.36951553897E+03  0.00000000000E+00 0.  1.
          1    1    1    2  501    0  0.23654652061E+02  0.86548020776E+02  0.25031956906E+04  0.25048031395E+04  0.00000000000E+00 0. -1.
<mgrwt>
<rscale>  4 0.10815111E+04</rscale>
<asrwt>0</asrwt>
<pdfrwt beam="1">  1       21 0.14263354E+00 0.10815111E+04</pdfrwt>
<pdfrwt beam="2">  1        1 0.43379644E+00 0.10815111E+04</pdfrwt>
<totfact> 0.24189098E+00</totfact>
</mgrwt>
</event>
<event>
 5    0  0.2396052E+000  0.5241315E+03  0.7546771E-02  0.1007665E+00
          2   -1    0    0  503    0 -0.00000000000E+00  0.00000000000E+00  0.12788329211E+04  0.12788329211E+04  0.00000000000E+00 0. -1.
         21   -1    0    0  501  502  0.00000000000E+00 -0.00000000000E+00 -0.16361513264E+03  0.16361513264E+03  0.00000000000E+00 0.  1.
         25    1    1    2    0    0 -0.27362984011E+03  0.17964510938E+02  0.13879924950E+03  0.33179247235E+03  0.12500000000E+03 0.  0.
         21    1    1    2  503  502  0.22214764958E+03 -0.11442075705E+02  0.12015226282E+03  0.25281824612E+03  0.00000000000E+00 0.  1.
          2    1    1    2  501    0  0.51482190525E+02 -0.65224352325E+01  0.85626627619E+03  0.85783733530E+03  0.00000000000E+00 0. -1.
<mgrwt>
<rscale>  4 0.52413148E+03</rscale>
<asrwt>0</asrwt>
<pdfrwt beam="1">  1       21 0.25171560E-01 0.52413148E+03</pdfrwt>
<pdfrwt beam="2">  1        2 0.19674352E+00 0.52413148E+03</pdfrwt>
<totfact> 0.31401013E+03</totfact>
</mgrwt>
</event>
<event>
 5    0  0.2396052E+000  0.4460071E+03  0.7546771E-02  0.1028920E+00
          2   -1    0    0  503    0 -0.00000000000E+00  0.00000000000E+00  0.11892178684E+04  0.11892178684E+04  0.00000000000E+00 0. -1.
         21   -1    0    0  501  502  0.00000000000E+00 -0.00000000000E+00 -0.23567194214E+03  0.23567194214E+03  0.00000000000E+00 0.  1.
         25    1    1    2    0    0  0.69242436156E+02 -0.20964792119E+03  0.67542708709E+02  0.26255243919E+03  0.12500000000E+03 0.  0.
         21    1    1    2  503  502 -0.96756949485E+02  0.12890890977E+03 -0.88654751836E+02  0.18395401413E+03  0.00000000000E+00 0.  1.
          2    1    1    2  501    0  0.27514513330E+02  0.80739011415E+02  0.97465796935E+03  0.97838335719E+03  0.00000000000E+00 0. -1.
<mgrwt>
<rscale>  4 0.44600706E+03</rscale>
<asrwt>0</asrwt>
<pdfrwt beam="1">  1       21 0.36257223E-01 0.44600706E+03</pdfrwt>
<pdfrwt beam="2">  1        2 0.18295659E+00 0.44600706E+03</pdfrwt>
<totfact> 0.17376381E+03</totfact>
</mgrwt>
</event>
<event>
 5    0  0.2396052E+000  0.6202732E+03  0.7546771E-02  0.9864216E-01
          2   -1    0    0  503    0 -0.00000000000E+00  0.00000000000E+00  0.19600430581E+04  0.19600430581E+04  0.00000000000E+00 0.  1.
         21   -1    0    0  501  502  0.00000000000E+00 -0.00000000000E+00 -0.10620033381E+04  0.10620033381E+04  0.00000000000E+00 0.  1.
         25    1    1    2    0    0 -0.21345143314E+03 -0.55799108730E+02 -0.91551865724E+03  0.94998656127E+03  0.12500000000E+03 0.  0.
         21    1    1    2  503  502  0.94173267778E+02  0.16777876389E+03 -0.52029188966E+02  0.19931220354E+03  0.00000000000E+00 0. -1.
          2    1    1    2  501    0  0.11927816536E+03 -0.11197965516E+03  0.18655875662E+04  0.18727476315E+04  0.00000000000E+00 0.  1.
<mgrwt>
<rscale>  4 0.62027318E+03</rscale>
<asrwt>0</asrwt>
<pdfrwt beam="1">  1       21 0.16338513E+00 0.62027318E+03</pdfrwt>
<pdfrwt beam="2">  1        2 0.30154509E+00 0.62027318E+03</pdfrwt>
<totfact> 0.18224856E+01</totfact>
</mgrwt>
</event>
<event>
 5    0  0.2396052E+000  0.1309178E+04  0.7546771E-02  0.9022318E-01
          2   -1    0    0  503    0 -0.00000000000E+00  0.00000000000E+00  0.26260300858E+04  0.26260300858E+04  0.00000000000E+00 0.  1.
         21   -1    0    0  501  502  0.00000000000E+00 -0.00000000000E+00 -0.55978974331E+03  0.55978974331E+03  0.00000000000E+00 0.  1.
         25    1    1    2    0    0  0.16682576414E+03 -0.22622050122E+03  0.70487363780E+03  0.76907632652E+03  0.12500000000E+03 0.  0.
         21    1    1    2  503  502 -0.12953008127E+03  0.20959761859E+03 -0.49869025502E+03  0.55623841483E+03  0.00000000000E+00 0.  1.
          2    1    1    2  501    0 -0.37295682862E+02  0.16622882634E+02  0.18600569597E+04  0.18605050878E+04  0.00000000000E+00 0.  1.
<mgrwt>
<rscale>  4 0.13091782E+04</rscale>
<asrwt>0</asrwt>
<pdfrwt beam="1">  1       21 0.86121501E-01 0.13091782E+04</pdfrwt>
<pdfrwt beam="2">  1        2 0.40400462E+00 0.13091782E+04</pdfrwt>
<totfact> 0.34821742E+01</totfact>
</mgrwt>
</event>
<event>
 5    0  0.2396052E+000  0.8213005E+03  0.7546771E-02  0.9529687E-01
          2   -1    0    0  503    0 -0.00000000000E+00  0.00000000000E+00  0.13551775720E+04  0.13551775720E+04  0.00000000000E+00 0. -1.
         21   -1    0    0  501  502  0.00000000000E+00 -0.00000000000E+00 -0.57137827563E+03  0.57137827563E+03  0.00000000000E+00 0. -1.
         25    1    1    2    0    0  0.17331498363E+03 -0.16661665794E+03  0.48504456047E+02  0.27527600061E+03  0.12500000000E+03 0.  0.
         21    1    1    2  503  502 -0.48772216171E+03  0.12608381601E+03 -0.28781782848E+03  0.58018026343E+03  0.00000000000E+00 0. -1.
          2    1    1    2  501    0  0.31440717808E+03  0.40532841928E+02  0.10231126688E+04  0.10710995835E+04  0.00000000000E+00 0. -1.
<mgrwt>
<rscale>  4 0.82130051E+03</rscale>
<asrwt>0</asrwt>
<pdfrwt beam="1">  1       21 0.87904351E-01 0.82130051E+03</pdfrwt>
<pdfrwt beam="2">  1        2 0.20848886E+00 0.82130051E+03</pdfrwt>
<totfact> 0.18507847E+02</totfact>
</mgrwt>
</event>
<event>
 5    0  0.2396052E+000  0.5397282E+03  0.7546771E-02  0.1003900E+00
          2   -1    0    0  503    0 -0.00000000000E+00  0.00000000000E+00  0.13800280825E+04  0.13800280825E+04  0.00000000000E+00 0.  1.
         21   -1    0    0  501  502  0.00000000000E+00 -0.00000000000E+00 -0.10173026540E+03  0.10173026540E+03  0.00000000000E+00 0.  1.
         25    1    1    2    0    0  0.24005559281E+03  0.26051473254E+01  0.26013192598E+03  0.37540257503E+03  0.12500000000E+03 0.  0.
         21    1    1    2  503  502 -0.24421411201E+03  0.95020996643E+02  0.38515549379E+03  0.46584791155E+03  0.00000000000E+00 0.  1.
          2    1    1    2  501    0  0.41585192015E+01 -0.97626143968E+02  0.63301039736E+03  0.64050786134E+03  0.00000000000E+00 0.  1.
<mgrwt>
<rscale>  4 0.53972820E+03</rscale>
<asrwt>0</asrwt>
<pdfrwt beam="1">  1       21 0.15650811E-01 0.53972820E+03</pdfrwt>
<pdfrwt beam="2">  1        2 0.21231200E+00 0.53972820E+03</pdfrwt>
<totfact> 0.68000423E+03</totfact>
</mgrwt>
</event>
<event>
 5    0  0.2396052E+000  0.6029673E+03  0.7546771E-02  0.9899269E-01
         21   -1    0    0  501  502  0.00000000000E+00  0.00000000000E+00  0.18325885152E+03  0.18325885152E+03  0.00000000000E+00 0.  1.
          1   -1    0    0  503    0 -0.00000000000E+00 -0.00000000000E+00 -0.86716299776E+03  0.86716299776E+03  0.00000000000E+00 0. -1.
         25    1    1    2    0    0 -0.19408654629E+03  0.19480344018E+03 -0.14906639819E+03  0.33684381964E+03  0.12500000000E+03 0.  0.
         21    1    1    2  503  502  0.20067090280E+03 -0.22394871556E+03 -0.16589689711E+03  0.34342920509E+03  0.00000000000E+00 0.  1.
          1    1    1    2  501    0 -0.65843565147E+01  0.29145275380E+02 -0.36894085094E+03  0.37014882456E+03  0.00000000000E+00 0. -1.
<mgrwt>
<rscale>  4 0.60296726E+03</rscale>
<asrwt>0</asrwt>
<pdfrwt beam="1">  1       21 0.28193670E-01 0.60296726E+03</pdfrwt>
<pdfrwt beam="2">  1        1 0.13340969E+00 0.60296726E+03</pdfrwt>
<totfact> 0.24715884E+03</totfact>
</mgrwt>
</event>
<event>
 5    0  0.2396052E+000  0.5076413E+03  0.7546771E-02  0.1011803E+00
          1   -1    0    0  503    0 -0.00000000000E+00  0.00000000000E+00  0.74256977182E+03  0.74256977182E+03  0.00000000000E+00 0. -1.
         21   -1    0    0  501  502  0.00000000000E+00 -0.00000000000E+00 -0.16658089911E+03  0.16658089911E+03  0.00000000000E+00 0. -1.
         25    1    1    2    0    0 -0.21307390361E+03 -0.22879605473E+02 -0.22128198667E+02  0.24907553457E+03  0.12500000000E+03 0.  0.
         21    1    1    2  503  502  0.99438666331E+02  0.10060184239E+03  0.29522520117E+03  0.32736325154E+03  0.00000000000E+00 0.  1.
          1    1    1    2  501    0  0.11363523728E+03 -0.77722236917E+02  0.30289187021E+03  0.33271188482E+03  0.00000000000E+00 0. -1.
<mgrwt>
<rscale>  4 0.50764131E+03</rscale>
<asrwt>0</asrwt>
<pdfrwt beam="1">  1       21 0.25627831E-01 0.50764131E+03</pdfrwt>
<pdfrwt beam="2">  1        1 0.11424150E+00 0.50764131E+03</pdfrwt>
<totfact> 0.38673879E+03</totfact>
</mgrwt>
</event>
<event>
 5    0  0.2396052E+000  0.4616959E+03  0.7546771E-02  0.1024291E+00
          2   -1    0    0  503    0 -0.00000000000E+00  0.00000000000E+00  0.10041455930E+04  0.10041455930E+04  0.00000000000E+00 0. -1.
         21   -1    0    0  501  502  0.00000000000E+00 -0.00000000000E+00 -0.22497956801E+03  0.22497956801E+03  0.00000000000E+00 0. -1.
         25    1    1    2    0    0 -0.23135751838E+03  0.56967203664E+02  0.14098593752E+03  0.30376569619E+03  0.12500000000E+03 0.  0.
         21    1    1    2  503  502  0.10092033003E+03  0.59039673738E+02 -0.10791804048E+03  0.15911285162E+03  0.00000000000E+00 0. -1.
          2    1    1    2  501    0  0.13043718835E+03 -0.11600687740E+03  0.74609812796E+03  0.76624661321E+03  0.00000000000E+00 0. -1.
<mgrwt>
<rscale>  4 0.46169586E+03</rscale>
<asrwt>0</asrwt>
<pdfrwt beam="1">  1       21 0.34612242E-01 0.46169586E+03</pdfrwt>
<pdfrwt beam="2">  1        2 0.15448393E+00 0.46169586E+03</pdfrwt>
<totfact> 0.24598023E+03</totfact>
</mgrwt>
</event>
<event>
 5    0  0.2396052E+000  0.6003737E+03  0.7546771E-02  0.9904631E-01
          4   -1    0    0  503    0 -0.00000000000E+00  0.00000000000E+00  0.16114271137E+03  0.16114271137E+03  0.00000000000E+00 0. -1.
         21   -1    0    0  501  502  0.00000000000E+00 -0.00000000000E+00 -0.18562837962E+04  0.18562837962E+04  0.00000000000E+00 0.  1.
         25    1    1    2    0    0  0.62813376401E+02 -0.22006485186E+03 -0.14278926350E+04  0.14515083315E+04  0.12500000000E+03 0.  0.
         21    1    1    2  503  502 -0.53199938303E+02  0.24137008882E+03 -0.37860168333E+03  0.45213823974E+03  0.00000000000E+00 0.  1.
          4    1    1    2  501    0 -0.96134380978E+01 -0.21305236959E+02  0.11135323348E+03  0.11377993637E+03  0.00000000000E+00 0. -1.
<mgrwt>
<rscale>  4 0.60037367E+03</rscale>
<asrwt>0</asrwt>
<pdfrwt beam="1">  1       21 0.28558213E+00 0.60037367E+03</pdfrwt>
<pdfrwt beam="2">  1        4 0.24791186E-01 0.60037367E+03</pdfrwt>
<totfact> 0.22077247E+01</totfact>
</mgrwt>
</event>
<event>
 5    0  0.2396052E+000  0.4146073E+03  0.7546771E-02  0.1038836E+00
          1   -1    0    0  503    0 -0.00000000000E+00  0.00000000000E+00  0.18672490830E+04  0.18672490830E+04  0.00000000000E+00 0.  1.
         21   -1    0    0  501  502  0.00000000000E+00 -0.00000000000E+00 -0.88419874201E+02  0.88419874201E+02  0.00000000000E+00 0.  1.
         25    1    1    2    0    0  0.18307630965E+03  0.13553160359E+03  0.26153855138E+03  0.36866402670E+03  0.12500000000E+03 0.  0.
         21    1    1    2  503  502 -0.14757448906E+03 -0.46419302842E+02  0.14714504374E+03  0.21350560976E+03  0.00000000000E+00 0.  1.
          1    1    1    2  501    0 -0.35501820585E+02 -0.89112300745E+02  0.13701456137E+04  0.13734993207E+04  0.00000000000E+00 0.  1.
<mgrwt>
<rscale>  4 0.41460729E+03</rscale>
<asrwt>0</asrwt>
<pdfrwt beam="1">  1       21 0.13603059E-01 0.41460729E+03</pdfrwt>
<pdfrwt beam="2">  1        1 0.28726906E+00 0.41460729E+03</pdfrwt>
<totfact> 0.20243318E+03</totfact>
</mgrwt>
</event>
<event>
 5    0  0.2396052E+000  0.4041792E+03  0.7546771E-02  0.1042342E+00
         21   -1    0    0  501  502  0.00000000000E+00  0.00000000000E+00  0.33490888906E+02  0.33490888906E+02  0.00000000000E+00 0.  1.
          2   -1    0    0  503    0 -0.00000000000E+00 -0.00000000000E+00 -0.27808775526E+04  0.27808775526E+04  0.00000000000E+00 0.  1.
         25    1    1    2    0    0  0.15662122519E+03  0.16450834447E+03 -0.66202481701E+03  0.71098175920E+03  0.12500000000E+03 0.  0.
         21    1    1    2  503  502 -0.84960215598E+02 -0.10259652230E+03 -0.58219957829E+03  0.59724419928E+03  0.00000000000E+00 0.  1.
          2    1    1    2  501    0 -0.71661009595E+02 -0.61911822173E+02 -0.15031622684E+04  0.15061424830E+04  0.00000000000E+00 0.  1.
<mgrwt>
<rscale>  4 0.40417918E+03</rscale>
<asrwt>0</asrwt>
<pdfrwt beam="1">  1       21 0.51524459E-02 0.40417918E+03</pdfrwt>
<pdfrwt beam="2">  1        2 0.42782720E+00 0.40417918E+03</pdfrwt>
<totfact> 0.86956860E+03</totfact>
</mgrwt>
</event>
<event>
 5    0  0.2396052E+000  0.4420066E+03  0.7546771E-02  0.1030133E+00
         21   -1    0    0  501  502  0.00000000000E+00  0.00000000000E+00  0.19736188310E+03  0.19736188310E+03  0.00000000000E+00 0.  1.
          1   -1    0    0  503    0 -0.00000000000E+00 -0.00000000000E+00 -0.91420235993E+03  0.91420235993E+03  0.00000000000E+00 0.  1.
         25    1    1    2    0    0 -0.20714162751E+03  0.14311229752E+02 -0.12448973607E+02  0.24267765057E+03  0.12500000000E+03 0.  0.
         21    1    1    2  503  502  0.18570685302E+03 -0.69777277097E+02 -0.40673075394E+02  0.20250975957E+03  0.00000000000E+00 0.  1.
          1    1    1    2  501    0  0.21434774489E+02  0.55466047345E+02 -0.66371842783E+03  0.66637683288E+03  0.00000000000E+00 0.  1.
<mgrwt>
<rscale>  4 0.44200665E+03</rscale>
<asrwt>0</asrwt>
<pdfrwt beam="1">  1       21 0.30363367E-01 0.44200665E+03</pdfrwt>
<pdfrwt beam="2">  1        1 0.14064652E+00 0.44200665E+03</pdfrwt>
<totfact> 0.20094818E+03</totfact>
</mgrwt>
</event>
<event>
 5    0  0.2396052E+000  0.5539010E+03  0.7546771E-02  0.1000595E+00
          4   -1    0    0  503    0 -0.00000000000E+00  0.00000000000E+00  0.29194359489E+03  0.29194359489E+03  0.00000000000E+00 0.  1.
         21   -1    0    0  501  502  0.00000000000E+00 -0.00000000000E+00 -0.32507375993E+03  0.32507375993E+03  0.00000000000E+00 0. -1.
         25    1    1    2    0    0 -0.21757533708E+03  0.63136539542E+02  0.75813159044E+02  0.26962545320E+03  0.12500000000E+03 0.  0.
         21    1    1    2  503  502  0.23583684321E+03 -0.53676093427E+02 -0.16158335358E+03  0.29087681202E+03  0.00000000000E+00 0. -1.
          4    1    1    2  501    0 -0.18261506126E+02 -0.94604461145E+01  0.52640029494E+02  0.56515089594E+02  0.00000000000E+00 0.  1.
<mgrwt>
<rscale>  4 0.55390095E+03</rscale>
<asrwt>0</asrwt>
<pdfrwt beam="1">  1       21 0.50011347E-01 0.55390095E+03</pdfrwt>
<pdfrwt beam="2">  1        4 0.44914399E-01 0.55390095E+03</pdfrwt>
<totfact> 0.75942145E+02</totfact>
</mgrwt>
</event>
<event>
 5    0  0.2396052E+000  0.5424218E+03  0.7546771E-02  0.1003263E+00
         21   -1    0    0  501  502  0.00000000000E+00  0.00000000000E+00  0.32843421216E+03  0.32843421216E+03  0.00000000000E+00 0.  1.
          2   -1    0    0  503    0 -0.00000000000E+00 -0.00000000000E+00 -0.30777648326E+04  0.30777648326E+04  0.00000000000E+00 0.  1.
         25    1    1    2    0    0  0.21776500564E+03 -0.10667474323E+03  0.25883585317E+03  0.37606129475E+03  0.12500000000E+03 0.  0.
         21    1    1    2  503  502  0.38258250020E+02  0.42963567897E+02 -0.16470923398E+03  0.17446688402E+03  0.00000000000E+00 0. -1.
          2    1    1    2  501    0 -0.25602325566E+03  0.63711175330E+02 -0.28434572396E+04  0.28556708660E+04  0.00000000000E+00 0.  1.
<mgrwt>
<rscale>  4 0.54242184E+03</rscale>
<asrwt>0</asrwt>
<pdfrwt beam="1">  1       21 0.50528339E-01 0.54242184E+03</pdfrwt>
<pdfrwt beam="2">  1        2 0.47350230E+00 0.54242184E+03</pdfrwt>
<totfact> 0.74234996E+01</totfact>
</mgrwt>
</event>
<event>
 5    0  0.2396052E+000  0.8212056E+03  0.7546771E-02  0.9529820E-01
         21   -1    0    0  501  502  0.00000000000E+00  0.00000000000E+00  0.56121595630E+03  0.56121595630E+03  0.00000000000E+00 0.  1.
          2   -1    0    0  503    0 -0.00000000000E+00 -0.00000000000E+00 -0.23217656025E+04  0.23217656025E+04  0.00000000000E+00 0. -1.
         25    1    1    2    0    0  0.30066594160E+03 -0.14995583977E+03 -0.12332112553E+03  0.37910402573E+03  0.12500000000E+03 0.  0.
         21    1    1    2  503  502 -0.26276949696E+03  0.12805639770E+03  0.38376366689E+03  0.48241144425E+03  0.00000000000E+00 0.  1.
          2    1    1    2  501    0 -0.37896444645E+02  0.21899442068E+02 -0.20209921875E+04  0.20214660888E+04  0.00000000000E+00 0. -1.
<mgrwt>
<rscale>  4 0.82120557E+03</rscale>
<asrwt>0</asrwt>
<pdfrwt beam="1">  1       21 0.86340917E-01 0.82120557E+03</pdfrwt>
<pdfrwt beam="2">  1        2 0.35719470E+00 0.82120557E+03</pdfrwt>
<totfact> 0.56471071E+01</totfact>
</mgrwt>
</event>
<event>
 5    0  0.2396052E+000  0.6270650E+03  0.7546771E-02  0.9850793E-01
          1   -1    0    0  503    0 -0.00000000000E+00  0.00000000000E+00  0.63944627656E+03  0.63944627656E+03  0.00000000000E+00 0.  1.
         21   -1    0    0  501  502  0.00000000000E+00 -0.00000000000E+00 -0.22913307335E+03  0.22913307335E+03  0.00000000000E+00 0.  1.
         25    1    1    2    0    0 -0.23338239732E+03  0.15653429812E+03 -0.16460945902E+02  0.30800372174E+03  0.12500000000E+03 0.  0.
         21    1    1    2  503  502  0.20134022948E+03 -0.18403800626E+03  0.22259177330E+03  0.35207239780E+03  0.00000000000E+00 0.  1.
          1    1    1    2  501    0  0.32042167837E+02  0.27503708134E+02  0.20418237581E+03  0.20850323037E+03  0.00000000000E+00 0.  1.
<mgrwt>
<rscale>  4 0.62706504E+03</rscale>
<asrwt>0</asrwt>
<pdfrwt beam="1">  1       21 0.35251242E-01 0.62706504E+03</pdfrwt>
<pdfrwt beam="2">  1        1 0.98376350E-01 0.62706504E+03</pdfrwt>
<totfact> 0.25152810E+03</totfact>
</mgrwt>
</event>
<event>
 5    0  0.2396052E+000  0.4231056E+03  0.7546771E-02  0.1036060E+00
         21   -1    0    0  501  502  0.00000000000E+00  0.00000000000E+00  0.64889954263E+02  0.64889954263E+02  0.00000000000E+00 0.  1.
          3   -1    0    0  503    0 -0.00000000000E+00 -0.00000000000E+00 -0.11537886973E+04  0.11537886973E+04  0.00000000000E+00 0.  1.
         25    1    1    2    0    0  0.21628613712E+03 -0.10036595233E+03 -0.59000548925E+03  0.64852486062E+03  0.12500000000E+03 0.  0.
         21    1    1    2  503  502 -0.93497820688E+02  0.11863157556E+03 -0.25181162693E+03  0.29363989622E+03  0.00000000000E+00 0.  1.
          3    1    1    2  501    0 -0.12278831643E+03 -0.18265623233E+02 -0.24708162682E+03  0.27651389469E+03  0.00000000000E+00 0.  1.
<mgrwt>
<rscale>  4 0.42310563E+03</rscale>
<asrwt>0</asrwt>
<pdfrwt beam="1">  1       21 0.99830698E-02 0.42310563E+03</pdfrwt>
<pdfrwt beam="2">  1        3 0.17750596E+00 0.42310563E+03</pdfrwt>
<totfact> 0.87767375E+02</totfact>
</mgrwt>
</event>
<event>
 5    0  0.2396052E+000  0.5239407E+03  0.7546771E-02  0.1007712E+00
         -1   -1    0    0    0  501 -0.00000000000E+00  0.00000000000E+00  0.15315979108E+04  0.15315979108E+04  0.00000000000E+00 0. -1.
         21   -1    0    0  501  502  0.00000000000E+00 -0.00000000000E+00 -0.60556694711E+02  0.60556694711E+02  0.00000000000E+00 0. -1.
         25    1    1    2    0    0 -0.23376883990E+03 -0.24784132345E+02  0.33255803453E+03  0.42600700705E+03  0.12500000000E+03 0.  0.
         21    1    1    2  503  502  0.19909568603E+03  0.21891095258E+02  0.75593802478E+03  0.78202340730E+03  0.00000000000E+00 0. -1.
         -1    1    1    2    0  503  0.34673153869E+02  0.28930370872E+01  0.38254515678E+03  0.38412419116E+03  0.00000000000E+00 0. -1.
<mgrwt>
<rscale>  4 0.52394066E+03</rscale>
<asrwt>0</asrwt>
<pdfrwt beam="1">  1       21 0.93164157E-02 0.52394066E+03</pdfrwt>
<pdfrwt beam="2">  1       -1 0.23563042E+00 0.52394066E+03</pdfrwt>
<totfact> 0.79068429E+02</totfact>
</mgrwt>
</event>
<event>
 5    0  0.2396052E+000  0.5633155E+03  0.7546771E-02  0.9984580E-01
          2   -1    0    0  503    0 -0.00000000000E+00  0.00000000000E+00  0.13680620286E+04  0.13680620286E+04  0.00000000000E+00 0. -1.
         21   -1    0    0  501  502  0.00000000000E+00 -0.00000000000E+00 -0.21022714078E+03  0.21022714078E+03  0.00000000000E+00 0. -1.
         25    1    1    2    0    0 -0.15519499930E+03  0.14624535120E+03  0.31458288646E+03  0.40007572160E+03  0.12500000000E+03 0.  0.
         21    1    1    2  503  502 -0.31565806956E+03 -0.44562717746E+01  0.44407119368E+03  0.54484777718E+03  0.00000000000E+00 0. -1.
          2    1    1    2  501    0  0.47085306885E+03 -0.14178907943E+03  0.39918080769E+03  0.63336567062E+03  0.00000000000E+00 0. -1.
<mgrwt>
<rscale>  4 0.56331555E+03</rscale>
<asrwt>0</asrwt>
<pdfrwt beam="1">  1       21 0.32342638E-01 0.56331555E+03</pdfrwt>
<pdfrwt beam="2">  1        2 0.21047108E+00 0.56331555E+03</pdfrwt>
<totfact> 0.16875885E+03</totfact>
</mgrwt>
</event>
<event>
 5    0  0.2396052E+000  0.4264080E+03  0.7546771E-02  0.1035001E+00
         -1   -1    0    0    0  501 -0.00000000000E+00  0.00000000000E+00  0.12199876763E+04  0.12199876763E+04  0.00000000000E+00 0. -1.
         21   -1    0    0  501  502  0.00000000000E+00 -0.00000000000E+00 -0.25256287950E+03  0.25256287950E+03  0.00000000000E+00 0. -1.
         25    1    1    2    0    0 -0.11170050691E+03 -0.17336081765E+03  0.95560230211E+02  0.25939879325E+03  0.12500000000E+03 0.  0.
         21    1    1    2  503  502 -0.84136573569E+02  0.33619622755E+02 -0.14348042204E+03  0.16969346939E+03  0.00000000000E+00 0.  1.
         -1    1    1    2    0  503  0.19583708048E+03  0.13974119489E+03  0.10153449886E+04  0.10434582932E+04  0.00000000000E+00 0. -1.
<mgrwt>
<rscale>  4 0.42640805E+03</rscale>
<asrwt>0</asrwt>
<pdfrwt beam="1">  1       21 0.38855828E-01 0.42640805E+03</pdfrwt>
<pdfrwt beam="2">  1       -1 0.18769041E+00 0.42640805E+03</pdfrwt>
<totfact> 0.11105625E+02</totfact>
</mgrwt>
</event>
<event>
 5    0  0.2396052E+000  0.4867814E+03  0.7546771E-02  0.1017288E+00
         21   -1    0    0  501  502  0.00000000000E+00  0.00000000000E+00  0.45278506693E+03  0.45278506693E+03  0.00000000000E+00 0.  1.
         -2   -1    0    0    0  501 -0.00000000000E+00 -0.00000000000E+00 -0.60517167490E+03  0.60517167490E+03  0.00000000000E+00 0. -1.
         25    1    1    2    0    0  0.21062642345E+03  0.21898477704E+02  0.26907900512E+03  0.36451549292E+03  0.12500000000E+03 0.  0.
         21    1    1    2  503  502 -0.20741425685E+03 -0.46194215105E+02  0.52465313007E+02  0.21887710827E+03  0.00000000000E+00 0.  1.
         -2    1    1    2    0  503 -0.32121665955E+01  0.24295737401E+02 -0.47393092610E+03  0.47456414064E+03  0.00000000000E+00 0. -1.
<mgrwt>
<rscale>  4 0.48678145E+03</rscale>
<asrwt>0</asrwt>
<pdfrwt beam="1">  1       21 0.69659241E-01 0.48678145E+03</pdfrwt>
<pdfrwt beam="2">  1       -2 0.93103334E-01 0.48678145E+03</pdfrwt>
<totfact> 0.14047703E+02</totfact>
</mgrwt>
</event>
<event>
 5    0  0.2396052E+000  0.5978847E+03  0.7546771E-02  0.9909804E-01
         21   -1    0    0  501  502  0.00000000000E+00  0.00000000000E+00  0.32860031933E+03  0.32860031933E+03  0.00000000000E+00 0. -1.
          2   -1    0    0  503    0 -0.00000000000E+00 -0.00000000000E+00 -0.94318813683E+03  0.94318813683E+03  0.00000000000E+00 0. -1.
         25    1    1    2    0    0  0.29167770862E+03 -0.48884979210E+01 -0.76377682311E+02  0.32643273959E+03  0.12500000000E+03 0.  0.
         21    1    1    2  503  502 -0.24036912719E+03 -0.94299140611E+01  0.13107986527E+03  0.27394921366E+03  0.00000000000E+00 0. -1.
          2    1    1    2  501    0 -0.51308581433E+02  0.14318411982E+02 -0.66929000045E+03  0.67140650292E+03  0.00000000000E+00 0. -1.
<mgrwt>
<rscale>  4 0.59788474E+03</rscale>
<asrwt>0</asrwt>
<pdfrwt beam="1">  1       21 0.50553895E-01 0.59788474E+03</pdfrwt>
<pdfrwt beam="2">  1        2 0.14510587E+00 0.59788474E+03</pdfrwt>
<totfact> 0.11920509E+03</totfact>
</mgrwt>
</event>
<event>
 5    0  0.2396052E+000  0.5158454E+03  0.7546771E-02  0.1009724E+00
         21   -1    0    0  501  502  0.00000000000E+00  0.00000000000E+00  0.72233846402E+02  0.72233846402E+02  0.00000000000E+00 0.  1.
          1   -1    0    0  503    0 -0.00000000000E+00 -0.00000000000E+00 -0.17487675383E+04  0.17487675383E+04  0.00000000000E+00 0.  1.
         25    1    1    2    0    0 -0.18972746399E+03  0.15828505985E+03 -0.32892838028E+03  0.42996459170E+03  0.12500000000E+03 0.  0.
         21    1    1    2  503  502  0.17491645245E+03 -0.12666637476E+03 -0.52490847487E+03  0.56759936824E+03  0.00000000000E+00 0.  1.
          1    1    1    2  501    0  0.14811011541E+02 -0.31618685091E+02 -0.82269683677E+03  0.82343742479E+03  0.00000000000E+00 0.  1.
<mgrwt>
<rscale>  4 0.51584540E+03</rscale>
<asrwt>0</asrwt>
<pdfrwt beam="1">  1       21 0.11112899E-01 0.51584540E+03</pdfrwt>
<pdfrwt beam="2">  1        1 0.26904118E+00 0.51584540E+03</pdfrwt>
<totfact> 0.34305002E+03</totfact>
</mgrwt>
</event>
<event>
 5    0  0.2396052E+000  0.8233991E+03  0.7546771E-02  0.9526752E-01
         21   -1    0    0  501  502  0.00000000000E+00  0.00000000000E+00  0.22031853802E+03  0.22031853802E+03  0.00000000000E+00 0.  1.
          2   -1    0    0  503    0 -0.00000000000E+00 -0.00000000000E+00 -0.22814128216E+04  0.22814128216E+04  0.00000000000E+00 0.  1.
         25    1    1    2    0    0  0.18278826169E+02 -0.22102811391E+03 -0.66037729382E+03  0.70775045943E+03  0.12500000000E+03 0.  0.
         21    1    1    2  503  502 -0.30920295808E+02  0.25830297926E+03  0.11021873820E+03  0.28253258934E+03  0.00000000000E+00 0.  1.
          2    1    1    2  501    0  0.12641469639E+02 -0.37274865350E+02 -0.15109357280E+04  0.15114483109E+04  0.00000000000E+00 0.  1.
<mgrwt>
<rscale>  4 0.82339910E+03</rscale>
<asrwt>0</asrwt>
<pdfrwt beam="1">  1       21 0.33895161E-01 0.82339910E+03</pdfrwt>
<pdfrwt beam="2">  1        2 0.35098657E+00 0.82339910E+03</pdfrwt>
<totfact> 0.46118496E+02</totfact>
</mgrwt>
</event>
<event>
 5    0  0.2396052E+000  0.8977956E+03  0.7546771E-02  0.9428341E-01
         21   -1    0    0  501  502  0.00000000000E+00  0.00000000000E+00  0.71154711015E+03  0.71154711015E+03  0.00000000000E+00 0. -1.
          2   -1    0    0  503    0 -0.00000000000E+00 -0.00000000000E+00 -0.55919747680E+03  0.55919747680E+03  0.00000000000E+00 0. -1.
         25    1    1    2    0    0 -0.31534862597E+02  0.22391821969E+03  0.64280381390E+03  0.69278825035E+03  0.12500000000E+03 0.  0.
         21    1    1    2  503  502  0.75063421025E+02 -0.19238566531E+03 -0.21813169629E+03  0.30038008975E+03  0.00000000000E+00 0.  1.
          2    1    1    2  501    0 -0.43528558428E+02 -0.31532554381E+02 -0.27232248425E+03  0.27757624684E+03  0.00000000000E+00 0. -1.
<mgrwt>
<rscale>  4 0.89779560E+03</rscale>
<asrwt>0</asrwt>
<pdfrwt beam="1">  1       21 0.10946879E+00 0.89779560E+03</pdfrwt>
<pdfrwt beam="2">  1        2 0.86030381E-01 0.89779560E+03</pdfrwt>
<totfact> 0.37326349E+02</totfact>
</mgrwt>
</event>
<event>
 5    0  0.2396052E+000  0.4193455E+03  0.7546771E-02  0.1037280E+00
         21   -1    0    0  501  502  0.00000000000E+00  0.00000000000E+00  0.54598851726E+03  0.54598851726E+03  0.00000000000E+00 0.  1.
          2   -1    0    0  503    0 -0.00000000000E+00 -0.00000000000E+00 -0.19530409737E+03  0.19530409737E+03  0.00000000000E+00 0. -1.
         25    1    1    2    0    0  0.18289568759E+03 -0.15326294631E+03  0.23645385249E+03  0.35843519304E+03  0.12500000000E+03 0.  0.
         21    1    1    2  503  502 -0.13238501692E+03  0.58652696103E+02  0.19903417251E+03  0.24613113028E+03  0.00000000000E+00 0.  1.
          2    1    1    2  501    0 -0.50510670672E+02  0.94610250207E+02 -0.84803605117E+02  0.13672629131E+03  0.00000000000E+00 0. -1.
<mgrwt>
<rscale>  4 0.41934547E+03</rscale>
<asrwt>0</asrwt>
<pdfrwt beam="1">  1       21 0.83998233E-01 0.41934547E+03</pdfrwt>
<pdfrwt beam="2">  1        2 0.30046784E-01 0.41934547E+03</pdfrwt>
<totfact> 0.24974829E+03</totfact>
</mgrwt>
</event>
<event>
 5    0  0.2396052E+000  0.5614229E+03  0.7546771E-02  0.9988840E-01
          2   -1    0    0  503    0 -0.00000000000E+00  0.00000000000E+00  0.19291844812E+04  0.19291844812E+04  0.00000000000E+00 0. -1.
         21   -1    0    0  501  502  0.00000000000E+00 -0.00000000000E+00 -0.84794348405E+03  0.84794348405E+03  0.00000000000E+00 0.  1.
         25    1    1    2    0    0 -0.24831922690E+03 -0.10824978370E+03 -0.80811428773E+03  0.86142565330E+03  0.12500000000E+03 0.  0.
         21    1    1    2  503  502  0.38931757428E+02  0.57355923593E+01  0.61321927572E+02  0.72862593676E+02  0.00000000000E+00 0. -1.
          2    1    1    2  501    0  0.20938746947E+03  0.10251419134E+03  0.18280333573E+04  0.18428397183E+04  0.00000000000E+00 0. -1.
<mgrwt>
<rscale>  4 0.56142292E+03</rscale>
<asrwt>0</asrwt>
<pdfrwt beam="1">  1       21 0.13045284E+00 0.56142292E+03</pdfrwt>
<pdfrwt beam="2">  1        2 0.29679761E+00 0.56142292E+03</pdfrwt>
<totfact> 0.35695264E+01</totfact>
</mgrwt>
</event>
<event>
 5    0  0.2396052E+000  0.7504664E+03  0.7546771E-02  0.9634619E-01
         21   -1    0    0  501  502  0.00000000000E+00  0.00000000000E+00  0.20771828139E+03  0.20771828139E+03  0.00000000000E+00 0.  1.
          2   -1    0    0  503    0 -0.00000000000E+00 -0.00000000000E+00 -0.12347263859E+04  0.12347263859E+04  0.00000000000E+00 0. -1.
         25    1    1    2    0    0 -0.30860061539E+03  0.27961686722E+02 -0.61706284322E+03  0.70171771264E+03  0.12500000000E+03 0.  0.
         21    1    1    2  503  502  0.17159740853E+03 -0.34084033848E+02  0.10755296328E+03  0.20536560541E+03  0.00000000000E+00 0.  1.
          2    1    1    2  501    0  0.13700320686E+03  0.61223471258E+01 -0.51749822458E+03  0.53536134925E+03  0.00000000000E+00 0. -1.
<mgrwt>
<rscale>  4 0.75046641E+03</rscale>
<asrwt>0</asrwt>
<pdfrwt beam="1">  1       21 0.31956659E-01 0.75046641E+03</pdfrwt>
<pdfrwt beam="2">  1        2 0.18995790E+00 0.75046641E+03</pdfrwt>
<totfact> 0.20016329E+03</totfact>
</mgrwt>
</event>
<event>
 5    0  0.2396052E+000  0.4673684E+03  0.7546771E-02  0.1022666E+00
         21   -1    0    0  501  502  0.00000000000E+00  0.00000000000E+00  0.10946025250E+03  0.10946025250E+03  0.00000000000E+00 0.  1.
          2   -1    0    0  503    0 -0.00000000000E+00 -0.00000000000E+00 -0.15790984217E+04  0.15790984217E+04  0.00000000000E+00 0.  1.
         25    1    1    2    0    0  0.22917999432E+03 -0.22713945339E+03 -0.46652678526E+03  0.58085113622E+03  0.12500000000E+03 0.  0.
         21    1    1    2  503  502  0.50723969393E+02  0.10423992888E+03 -0.96143074932E+02  0.15060668877E+03  0.00000000000E+00 0. -1.
          2    1    1    2  501    0 -0.27990396371E+03  0.12289952451E+03 -0.90696830903E+03  0.95710084924E+03  0.00000000000E+00 0.  1.
<mgrwt>
<rscale>  4 0.46736835E+03</rscale>
<asrwt>0</asrwt>
<pdfrwt beam="1">  1       21 0.16840040E-01 0.46736835E+03</pdfrwt>
<pdfrwt beam="2">  1        2 0.24293820E+00 0.46736835E+03</pdfrwt>
<totfact> 0.46632363E+03</totfact>
</mgrwt>
</event>
<event>
 5    0  0.2396052E+000  0.4950911E+03  0.7546771E-02  0.1015068E+00
          1   -1    0    0  503    0 -0.00000000000E+00  0.00000000000E+00  0.20167101559E+04  0.20167101559E+04  0.00000000000E+00 0. -1.
         21   -1    0    0  501  502  0.00000000000E+00 -0.00000000000E+00 -0.14931491925E+03  0.14931491925E+03  0.00000000000E+00 0.  1.
         25    1    1    2    0    0  0.24917832379E+02  0.30522188544E+03  0.86725551753E+02  0.34194680734E+03  0.12500000000E+03 0.  0.
         21    1    1    2  503  502  0.80534464418E+02 -0.26919641643E+02  0.23153509534E+03  0.24661501868E+03  0.00000000000E+00 0. -1.
          1    1    1    2  501    0 -0.10545229680E+03 -0.27830224380E+03  0.15491345896E+04  0.15774632492E+04  0.00000000000E+00 0. -1.
<mgrwt>
<rscale>  4 0.49509109E+03</rscale>
<asrwt>0</asrwt>
<pdfrwt beam="1">  1       21 0.22971528E-01 0.49509109E+03</pdfrwt>
<pdfrwt beam="2">  1        1 0.31026308E+00 0.49509109E+03</pdfrwt>
<totfact> 0.58868524E+02</totfact>
</mgrwt>
</event>
<event>
 5    0  0.2396052E+000  0.4919687E+03  0.7546771E-02  0.1015897E+00
         21   -1    0    0  501  502  0.00000000000E+00  0.00000000000E+00  0.91733928136E+02  0.91733928136E+02  0.00000000000E+00 0. -1.
          2   -1    0    0  503    0 -0.00000000000E+00 -0.00000000000E+00 -0.12651137097E+04  0.12651137097E+04  0.00000000000E+00 0. -1.
         25    1    1    2    0    0  0.18420477969E+03  0.16265583064E+03 -0.26800800319E+03  0.38450176836E+03  0.12500000000E+03 0.  0.
         21    1    1    2  503  502 -0.19685199917E+03 -0.62011501593E+02 -0.33840156634E+03  0.39637325340E+03  0.00000000000E+00 0.  1.
          2    1    1    2  501    0  0.12647219480E+02 -0.10064432905E+03 -0.56697021202E+03  0.57597261606E+03  0.00000000000E+00 0. -1.
<mgrwt>
<rscale>  4 0.49196873E+03</rscale>
<asrwt>0</asrwt>
<pdfrwt beam="1">  1       21 0.14112913E-01 0.49196873E+03</pdfrwt>
<pdfrwt beam="2">  1        2 0.19463287E+00 0.49196873E+03</pdfrwt>
<totfact> 0.96415651E+03</totfact>
</mgrwt>
</event>
<event>
 5    0  0.2396052E+000  0.3558691E+03  0.7546771E-02  0.1060232E+00
          2   -1    0    0  503    0 -0.00000000000E+00  0.00000000000E+00  0.32283259323E+04  0.32283259323E+04  0.00000000000E+00 0.  1.
         21   -1    0    0  501  502  0.00000000000E+00 -0.00000000000E+00 -0.43746284833E+03  0.43746284833E+03  0.00000000000E+00 0.  1.
         25    1    1    2    0    0  0.23692793115E+03 -0.16409019001E+01 -0.36369003309E+03  0.45170009662E+03  0.12500000000E+03 0.  0.
         21    1    1    2  503  502  0.27821508738E+02 -0.45234536878E+02  0.52891009391E+01  0.53368288934E+02  0.00000000000E+00 0. -1.
          2    1    1    2  501    0 -0.26474943989E+03  0.46875438778E+02  0.31492640161E+04  0.31607203951E+04  0.00000000000E+00 0.  1.
<mgrwt>
<rscale>  4 0.35586914E+03</rscale>
<asrwt>0</asrwt>
<pdfrwt beam="1">  1       21 0.67301979E-01 0.35586914E+03</pdfrwt>
<pdfrwt beam="2">  1        2 0.49666551E+00 0.35586914E+03</pdfrwt>
<totfact> 0.35066934E+01</totfact>
</mgrwt>
</event>
<event>
 5    0  0.2396052E+000  0.8409744E+03  0.7546771E-02  0.9502531E-01
          1   -1    0    0  503    0 -0.00000000000E+00  0.00000000000E+00  0.98737843979E+03  0.98737843979E+03  0.00000000000E+00 0. -1.
         21   -1    0    0  501  502  0.00000000000E+00 -0.00000000000E+00 -0.48969924225E+03  0.48969924225E+03  0.00000000000E+00 0. -1.
         25    1    1    2    0    0 -0.88410708151E+02  0.18247439264E+03 -0.42921678820E+03  0.49088227566E+03  0.12500000000E+03 0.  0.
         21    1    1    2  503  502  0.25053723207E+02 -0.19108230428E+03  0.30341938819E+03  0.35944882972E+03  0.00000000000E+00 0.  1.
          1    1    1    2  501    0  0.63356984944E+02  0.86079116415E+01  0.62347659754E+03  0.62674657667E+03  0.00000000000E+00 0. -1.
<mgrwt>
<rscale>  4 0.84097444E+03</rscale>
<asrwt>0</asrwt>
<pdfrwt beam="1">  1       21 0.75338345E-01 0.84097444E+03</pdfrwt>
<pdfrwt beam="2">  1        1 0.15190437E+00 0.84097444E+03</pdfrwt>
<totfact> 0.23494361E+02</totfact>
</mgrwt>
</event>
<event>
 5    0  0.2396052E+000  0.4120078E+03  0.7546771E-02  0.1039699E+00
          2   -1    0    0  503    0 -0.00000000000E+00  0.00000000000E+00  0.22549438824E+04  0.22549438824E+04  0.00000000000E+00 0. -1.
         21   -1    0    0  501  502  0.00000000000E+00 -0.00000000000E+00 -0.72817662585E+02  0.72817662585E+02  0.00000000000E+00 0. -1.
         25    1    1    2    0    0  0.43715978566E+02  0.32341552999E+03  0.52050257864E+03  0.62694228299E+03  0.12500000000E+03 0.  0.
         21    1    1    2  503  502  0.88888207247E-01 -0.62152255606E+02  0.10662714476E+03  0.12341903734E+03  0.00000000000E+00 0.  1.
          2    1    1    2  501    0 -0.43804866773E+02 -0.26126327439E+03  0.15549964965E+04  0.15774002247E+04  0.00000000000E+00 0. -1.
<mgrwt>
<rscale>  4 0.41200779E+03</rscale>
<asrwt>0</asrwt>
<pdfrwt beam="1">  1       21 0.11202719E-01 0.41200779E+03</pdfrwt>
<pdfrwt beam="2">  1        2 0.34691439E+00 0.41200779E+03</pdfrwt>
<totfact> 0.43326834E+03</totfact>
</mgrwt>
</event>
<event>
 5    0  0.2396052E+000  0.4960690E+03  0.7546771E-02  0.1014810E+00
         21   -1    0    0  501  502  0.00000000000E+00  0.00000000000E+00  0.14254291669E+04  0.14254291669E+04  0.00000000000E+00 0. -1.
          1   -1    0    0  503    0 -0.00000000000E+00 -0.00000000000E+00 -0.12019989617E+03  0.12019989617E+03  0.00000000000E+00 0. -1.
         25    1    1    2    0    0 -0.18548181492E+03 -0.92348308899E+02  0.39948610441E+03  0.46706087552E+03  0.12500000000E+03 0.  0.
         21    1    1    2  503  502  0.18027527960E+03  0.69586670113E+02  0.98095923718E+03  0.99981123523E+03  0.00000000000E+00 0. -1.
          1    1    1    2  501    0  0.52065353245E+01  0.22761638786E+02 -0.75216070902E+02  0.78756952279E+02  0.00000000000E+00 0. -1.
<mgrwt>
<rscale>  4 0.49606900E+03</rscale>
<asrwt>0</asrwt>
<pdfrwt beam="1">  1       21 0.21929678E+00 0.49606900E+03</pdfrwt>
<pdfrwt beam="2">  1        1 0.18492293E-01 0.49606900E+03</pdfrwt>
<totfact> 0.26624441E+02</totfact>
</mgrwt>
</event>
<event>
 5    0  0.2396052E+000  0.1024858E+04  0.7546771E-02  0.9281694E-01
         21   -1    0    0  501  502  0.00000000000E+00  0.00000000000E+00  0.62747953873E+03  0.62747953873E+03  0.00000000000E+00 0. -1.
          2   -1    0    0  503    0 -0.00000000000E+00 -0.00000000000E+00 -0.11781971690E+04  0.11781971690E+04  0.00000000000E+00 0. -1.
         25    1    1    2    0    0  0.15302245473E+03 -0.47634281401E+03 -0.92150164097E+02  0.52386544155E+03  0.12500000000E+03 0.  0.
         21    1    1    2  503  502 -0.27680005758E+03  0.33583539180E+03  0.28157365030E+03  0.51835065622E+03  0.00000000000E+00 0. -1.
          2    1    1    2  501    0  0.12377760285E+03  0.14050742221E+03 -0.74014111645E+03  0.76346060994E+03  0.00000000000E+00 0. -1.
<mgrwt>
<rscale>  4 0.10248576E+04</rscale>
<asrwt>0</asrwt>
<pdfrwt beam="1">  1       21 0.96535315E-01 0.10248576E+04</pdfrwt>
<pdfrwt beam="2">  1        2 0.18126110E+00 0.10248576E+04</pdfrwt>
<totfact> 0.18125864E+02</totfact>
</mgrwt>
</event>
<event>
 5    0  0.2396052E+000  0.4950901E+03  0.7546771E-02  0.1015068E+00
         21   -1    0    0  501  502  0.00000000000E+00  0.00000000000E+00  0.19042612436E+03  0.19042612436E+03  0.00000000000E+00 0. -1.
          2   -1    0    0  503    0 -0.00000000000E+00 -0.00000000000E+00 -0.12847440451E+04  0.12847440451E+04  0.00000000000E+00 0. -1.
         25    1    1    2    0    0 -0.15755525149E+03 -0.20277384145E+03  0.47149760496E+02  0.28946327567E+03  0.12500000000E+03 0.  0.
         21    1    1    2  503  502 -0.34048957188E+01 -0.27105171003E+02 -0.24049383052E+03  0.24204042250E+03  0.00000000000E+00 0.  1.
          2    1    1    2  501    0  0.16096014721E+03  0.22987901245E+03 -0.90097385068E+03  0.94366647125E+03  0.00000000000E+00 0. -1.
<mgrwt>
<rscale>  4 0.49509015E+03</rscale>
<asrwt>0</asrwt>
<pdfrwt beam="1">  1       21 0.29296326E-01 0.49509015E+03</pdfrwt>
<pdfrwt beam="2">  1        2 0.19765293E+00 0.49509015E+03</pdfrwt>
<totfact> 0.23237220E+03</totfact>
</mgrwt>
</event>
<event>
 5    0  0.2396052E+000  0.5813600E+03  0.7546771E-02  0.9944851E-01
         21   -1    0    0  501  502  0.00000000000E+00  0.00000000000E+00  0.23646387163E+03  0.23646387163E+03  0.00000000000E+00 0.  1.
          2   -1    0    0  503    0 -0.00000000000E+00 -0.00000000000E+00 -0.34407430515E+04  0.34407430515E+04  0.00000000000E+00 0.  1.
         25    1    1    2    0    0  0.36786116767E+03  0.90831884282E+01 -0.43981872516E+02  0.39110580167E+03  0.12500000000E+03 0.  0.
         21    1    1    2  503  502 -0.16896850830E+03 -0.76943511304E+02 -0.85972160664E+02  0.20460174275E+03  0.00000000000E+00 0.  1.
          2    1    1    2  501    0 -0.19889265937E+03  0.67860322876E+02 -0.30743251467E+04  0.30814993788E+04  0.00000000000E+00 0.  1.
<mgrwt>
<rscale>  4 0.58135998E+03</rscale>
<asrwt>0</asrwt>
<pdfrwt beam="1">  1       21 0.36379058E-01 0.58135998E+03</pdfrwt>
<pdfrwt beam="2">  1        2 0.52934507E+00 0.58135998E+03</pdfrwt>
<totfact> 0.85214297E+01</totfact>
</mgrwt>
</event>
<event>
 5    0  0.2396052E+000  0.5222862E+03  0.7546771E-02  0.1008120E+00
         21   -1    0    0  501  502  0.00000000000E+00  0.00000000000E+00  0.10888337260E+03  0.10888337260E+03  0.00000000000E+00 0.  1.
          2   -1    0    0  503    0 -0.00000000000E+00 -0.00000000000E+00 -0.32037096104E+04  0.32037096104E+04  0.00000000000E+00 0.  1.
         25    1    1    2    0    0 -0.13307924095E+03  0.20077090325E+03 -0.10554904952E+03  0.29117802427E+03  0.12500000000E+03 0.  0.
         21    1    1    2  503  502 -0.17912571445E+02  0.97497343368E+02 -0.49448874660E+03  0.50432698985E+03  0.00000000000E+00 0. -1.
          2    1    1    2  501    0  0.15099181239E+03 -0.29826824662E+03 -0.24947884416E+04  0.25170879688E+04  0.00000000000E+00 0.  1.
<mgrwt>
<rscale>  4 0.52228620E+03</rscale>
<asrwt>0</asrwt>
<pdfrwt beam="1">  1       21 0.16751289E-01 0.52228620E+03</pdfrwt>
<pdfrwt beam="2">  1        2 0.49287839E+00 0.52228620E+03</pdfrwt>
<totfact> 0.56377142E+02</totfact>
</mgrwt>
</event>
<event>
 5    0  0.2396052E+000  0.2949162E+03  0.7546771E-02  0.1087810E+00
         21   -1    0    0  501  502  0.00000000000E+00  0.00000000000E+00  0.79049585148E+02  0.79049585148E+02  0.00000000000E+00 0. -1.
          2   -1    0    0  503    0 -0.00000000000E+00 -0.00000000000E+00 -0.77712430052E+03  0.77712430052E+03  0.00000000000E+00 0.  1.
         25    1    1    2    0    0 -0.20095944063E+03 -0.37238668063E+02 -0.30064202483E+03  0.38442429980E+03  0.12500000000E+03 0.  0.
         21    1    1    2  503  502  0.29521648887E+01  0.55043169336E+02 -0.78255013297E+02  0.95719971136E+02  0.00000000000E+00 0.  1.
          2    1    1    2  501    0  0.19800727574E+03 -0.17804501273E+02 -0.31917767724E+03  0.37602961474E+03  0.00000000000E+00 0.  1.
<mgrwt>
<rscale>  4 0.29491618E+03</rscale>
<asrwt>0</asrwt>
<pdfrwt beam="1">  1       21 0.12161475E-01 0.29491618E+03</pdfrwt>
<pdfrwt beam="2">  1        2 0.11955758E+00 0.29491618E+03</pdfrwt>
<totfact> 0.26265975E+04</totfact>
</mgrwt>
</event>
<event>
 5    0  0.2396052E+000  0.3712672E+03  0.7546771E-02  0.1054209E+00
          2   -1    0    0  503    0 -0.00000000000E+00  0.00000000000E+00  0.39584898948E+04  0.39584898948E+04  0.00000000000E+00 0. -1.
         21   -1    0    0  501  502  0.00000000000E+00 -0.00000000000E+00 -0.46307696634E+02  0.46307696634E+02  0.00000000000E+00 0. -1.
         25    1    1    2    0    0 -0.20923111693E+03  0.12878758831E+03  0.50439911375E+03  0.57481072463E+03  0.12500000000E+03 0.  0.
         21    1    1    2  503  502  0.88605749468E+02 -0.29017969222E+02  0.22764680155E+03  0.24600017812E+03  0.00000000000E+00 0.  1.
          2    1    1    2  501    0  0.12062536746E+03 -0.99769619086E+02  0.31801362829E+04  0.31839866887E+04  0.00000000000E+00 0. -1.
<mgrwt>
<rscale>  4 0.37126718E+03</rscale>
<asrwt>0</asrwt>
<pdfrwt beam="1">  1       21 0.71242641E-02 0.37126718E+03</pdfrwt>
<pdfrwt beam="2">  1        2 0.60899818E+00 0.37126718E+03</pdfrwt>
<totfact> 0.84599621E+02</totfact>
</mgrwt>
</event>
<event>
 5    0  0.2396052E+000  0.5870630E+03  0.7546771E-02  0.9932616E-01
          1   -1    0    0  503    0 -0.00000000000E+00  0.00000000000E+00  0.24658165922E+03  0.24658165922E+03  0.00000000000E+00 0. -1.
         21   -1    0    0  501  502  0.00000000000E+00 -0.00000000000E+00 -0.20129862055E+04  0.20129862055E+04  0.00000000000E+00 0.  1.
         25    1    1    2    0    0 -0.21975990418E+03 -0.23978194620E+02 -0.45663483968E+03  0.52250334555E+03  0.12500000000E+03 0.  0.
         21    1    1    2  503  502  0.24522657273E+03  0.95901106050E+01 -0.15124768478E+04  0.15322578952E+04  0.00000000000E+00 0.  1.
          1    1    1    2  501    0 -0.25466668551E+02  0.14388084015E+02  0.20270714116E+03  0.20480662403E+03  0.00000000000E+00 0. -1.
<mgrwt>
<rscale>  4 0.58706296E+03</rscale>
<asrwt>0</asrwt>
<pdfrwt beam="1">  1       21 0.30969019E+00 0.58706296E+03</pdfrwt>
<pdfrwt beam="2">  1        1 0.37935639E-01 0.58706296E+03</pdfrwt>
<totfact> 0.28080166E+01</totfact>
</mgrwt>
</event>
<event>
 5    0  0.2396052E+000  0.8525663E+03  0.7546771E-02  0.9486899E-01
          2   -1    0    0  503    0 -0.00000000000E+00  0.00000000000E+00  0.18367910247E+04  0.18367910247E+04  0.00000000000E+00 0. -1.
         21   -1    0    0  501  502  0.00000000000E+00 -0.00000000000E+00 -0.11614034834E+03  0.11614034834E+03  0.00000000000E+00 0.  1.
         25    1    1    2    0    0 -0.31921784393E+03  0.24666078136E+02  0.13726349277E+04  0.14150124000E+04  0.12500000000E+03 0.  0.
         21    1    1    2  503  502  0.27649103413E+03  0.88544322522E+00  0.11468082546E+03  0.29933220290E+03  0.00000000000E+00 0.  1.
          2    1    1    2  501    0  0.42726809797E+02 -0.25551521361E+02  0.23333492316E+03  0.23858677014E+03  0.00000000000E+00 0. -1.
<mgrwt>
<rscale>  4 0.85256628E+03</rscale>
<asrwt>0</asrwt>
<pdfrwt beam="1">  1       21 0.17867747E-01 0.85256628E+03</pdfrwt>
<pdfrwt beam="2">  1        2 0.28258321E+00 0.85256628E+03</pdfrwt>
<totfact> 0.28448936E+03</totfact>
</mgrwt>
</event>
<event>
 5    0  0.2396052E+000  0.4368121E+03  0.7546771E-02  0.1031729E+00
         21   -1    0    0  501  502  0.00000000000E+00  0.00000000000E+00  0.58658701520E+02  0.58658701520E+02  0.00000000000E+00 0.  1.
          2   -1    0    0  503    0 -0.00000000000E+00 -0.00000000000E+00 -0.16510030949E+04  0.16510030949E+04  0.00000000000E+00 0.  1.
         25    1    1    2    0    0  0.18611141329E+03 -0.77645809065E+02 -0.10173547836E+04  0.10446540506E+04  0.12500000000E+03 0.  0.
         21    1    1    2  503  502 -0.22441532853E+02  0.12449357285E+02  0.27306677206E+02  0.37473504155E+02  0.00000000000E+00 0. -1.
          2    1    1    2  501    0 -0.16366988044E+03  0.65196451779E+02 -0.60229628702E+03  0.62753424165E+03  0.00000000000E+00 0.  1.
<mgrwt>
<rscale>  4 0.43681208E+03</rscale>
<asrwt>0</asrwt>
<pdfrwt beam="1">  1       21 0.90244158E-02 0.43681208E+03</pdfrwt>
<pdfrwt beam="2">  1        2 0.25400047E+00 0.43681208E+03</pdfrwt>
<totfact> 0.13409288E+04</totfact>
</mgrwt>
</event>
<event>
 5    0  0.2396052E+000  0.4083433E+03  0.7546771E-02  0.1040928E+00
         21   -1    0    0  501  502  0.00000000000E+00  0.00000000000E+00  0.88996024678E+02  0.88996024678E+02  0.00000000000E+00 0.  1.
          2   -1    0    0  503    0 -0.00000000000E+00 -0.00000000000E+00 -0.14861061264E+04  0.14861061264E+04  0.00000000000E+00 0.  1.
         25    1    1    2    0    0  0.15595668331E+03  0.16227257355E+03 -0.33202443480E+03  0.42014295246E+03  0.12500000000E+03 0.  0.
         21    1    1    2  503  502 -0.30233903972E+02 -0.13378504415E+03 -0.74626254689E+02  0.15614610106E+03  0.00000000000E+00 0.  1.
          2    1    1    2  501    0 -0.12572277934E+03 -0.28487529405E+02 -0.99045941228E+03  0.99881309760E+03  0.00000000000E+00 0.  1.
<mgrwt>
<rscale>  4 0.40834335E+03</rscale>
<asrwt>0</asrwt>
<pdfrwt beam="1">  1       21 0.13691696E-01 0.40834335E+03</pdfrwt>
<pdfrwt beam="2">  1        2 0.22863171E+00 0.40834335E+03</pdfrwt>
<totfact> 0.77836862E+03</totfact>
</mgrwt>
</event>
<event>
 5    0  0.2396052E+000  0.3810797E+03  0.7546771E-02  0.1050535E+00
          2   -1    0    0  503    0 -0.00000000000E+00  0.00000000000E+00  0.21155434600E+04  0.21155434600E+04  0.00000000000E+00 0.  1.
         21   -1    0    0  501  502  0.00000000000E+00 -0.00000000000E+00 -0.33606520921E+02  0.33606520921E+02  0.00000000000E+00 0.  1.
         25    1    1    2    0    0 -0.24472491989E+02  0.21703609977E+03  0.12406891355E+04  0.12659534361E+04  0.12500000000E+03 0.  0.
         21    1    1    2  503  502  0.34166255451E+02 -0.72037492047E+02  0.10027976893E+03  0.12811231529E+03  0.00000000000E+00 0. -1.
          2    1    1    2  501    0 -0.96937634623E+01 -0.14499860772E+03  0.74096803459E+03  0.75508422946E+03  0.00000000000E+00 0.  1.
<mgrwt>
<rscale>  4 0.38107967E+03</rscale>
<asrwt>0</asrwt>
<pdfrwt beam="1">  1       21 0.51702357E-02 0.38107967E+03</pdfrwt>
<pdfrwt beam="2">  1        2 0.32546812E+00 0.38107967E+03</pdfrwt>
<totfact> 0.20292868E+04</totfact>
</mgrwt>
</event>
<event>
 5    0  0.2396052E+000  0.4967418E+03  0.7546771E-02  0.1014633E+00
          1   -1    0    0  503    0 -0.00000000000E+00  0.00000000000E+00  0.15185935867E+04  0.15185935867E+04  0.00000000000E+00 0. -1.
         21   -1    0    0  501  502  0.00000000000E+00 -0.00000000000E+00 -0.14164406447E+04  0.14164406447E+04  0.00000000000E+00 0. -1.
         25    1    1    2    0    0  0.11125160306E+03 -0.19979316988E+03 -0.78843983449E+03  0.83039544948E+03  0.12500000000E+03 0.  0.
         21    1    1    2  503  502 -0.13450482640E+03  0.19161899943E+03 -0.58434317649E+03  0.62949689211E+03  0.00000000000E+00 0. -1.
          1    1    1    2  501    0  0.23253223335E+02  0.81741704535E+01  0.14749359530E+04  0.14751418897E+04  0.00000000000E+00 0. -1.
<mgrwt>
<rscale>  4 0.49674184E+03</rscale>
<asrwt>0</asrwt>
<pdfrwt beam="1">  1       21 0.21791394E+00 0.49674184E+03</pdfrwt>
<pdfrwt beam="2">  1        1 0.23362978E+00 0.49674184E+03</pdfrwt>
<totfact> 0.63592357E+00</totfact>
</mgrwt>
</event>
<event>
 5    0  0.2396052E+000  0.3661201E+03  0.7546771E-02  0.1056186E+00
         21   -1    0    0  501  502  0.00000000000E+00  0.00000000000E+00  0.14368386698E+03  0.14368386698E+03  0.00000000000E+00 0. -1.
          1   -1    0    0  503    0 -0.00000000000E+00 -0.00000000000E+00 -0.85020533039E+03  0.85020533039E+03  0.00000000000E+00 0. -1.
         25    1    1    2    0    0 -0.22133328258E+03 -0.15008811806E+03 -0.10340782557E+03  0.31278274177E+03  0.12500000000E+03 0.  0.
         21    1    1    2  503  502  0.69489845569E+02  0.59751835280E+01 -0.40145071608E+02  0.80474643397E+02  0.00000000000E+00 0.  1.
          1    1    1    2  501    0  0.15184343702E+03  0.14411293453E+03 -0.56296856623E+03  0.60063181220E+03  0.00000000000E+00 0. -1.
<mgrwt>
<rscale>  4 0.36612011E+03</rscale>
<asrwt>0</asrwt>
<pdfrwt beam="1">  1       21 0.22105210E-01 0.36612011E+03</pdfrwt>
<pdfrwt beam="2">  1        1 0.13080082E+00 0.36612011E+03</pdfrwt>
<totfact> 0.42701163E+03</totfact>
</mgrwt>
</event>
<event>
 5    0  0.2396052E+000  0.4776403E+03  0.7546771E-02  0.1019786E+00
          1   -1    0    0  503    0 -0.00000000000E+00  0.00000000000E+00  0.30368103913E+03  0.30368103913E+03  0.00000000000E+00 0. -1.
         21   -1    0    0  501  502  0.00000000000E+00 -0.00000000000E+00 -0.73201952271E+03  0.73201952271E+03  0.00000000000E+00 0. -1.
         25    1    1    2    0    0 -0.97406206793E+02  0.17879537194E+03 -0.34375217990E+03  0.41862431288E+03  0.12500000000E+03 0.  0.
         21    1    1    2  503  502  0.10154663954E+02 -0.23772293068E+03 -0.29666750149E+03  0.38029845571E+03  0.00000000000E+00 0. -1.
          1    1    1    2  501    0  0.87251542839E+02  0.58927558743E+02  0.21208119782E+03  0.23677779325E+03  0.00000000000E+00 0. -1.
<mgrwt>
<rscale>  4 0.47764026E+03</rscale>
<asrwt>0</asrwt>
<pdfrwt beam="1">  1       21 0.11261839E+00 0.47764026E+03</pdfrwt>
<pdfrwt beam="2">  1        1 0.46720160E-01 0.47764026E+03</pdfrwt>
<totfact> 0.52338509E+02</totfact>
</mgrwt>
</event>
<event>
 5    0  0.2396052E+000  0.1020973E+04  0.7546771E-02  0.9285836E-01
         21   -1    0    0  501  502  0.00000000000E+00  0.00000000000E+00  0.24341375967E+03  0.24341375967E+03  0.00000000000E+00 0. -1.
          2   -1    0    0  503    0 -0.00000000000E+00 -0.00000000000E+00 -0.32934042702E+04  0.32934042702E+04  0.00000000000E+00 0. -1.
         25    1    1    2    0    0 -0.27820464315E+03  0.46292912314E+03 -0.50226138845E+03  0.74805928833E+03  0.12500000000E+03 0.  0.
         21    1    1    2  503  502  0.23125301989E+03 -0.40183125945E+03 -0.32853358071E+03  0.56822586525E+03  0.00000000000E+00 0. -1.
          2    1    1    2  501    0  0.46951623264E+02 -0.61097863691E+02 -0.22191955414E+04  0.22205328763E+04  0.00000000000E+00 0. -1.
<mgrwt>
<rscale>  4 0.10209732E+04</rscale>
<asrwt>0</asrwt>
<pdfrwt beam="1">  1       21 0.37448272E-01 0.10209732E+04</pdfrwt>
<pdfrwt beam="2">  1        2 0.50667756E+00 0.10209732E+04</pdfrwt>
<totfact> 0.90081017E+01</totfact>
</mgrwt>
</event>
<event>
 5    0  0.2396052E+000  0.1032345E+04  0.7546771E-02  0.9273764E-01
         21   -1    0    0  501  502  0.00000000000E+00  0.00000000000E+00  0.79256154861E+03  0.79256154861E+03  0.00000000000E+00 0. -1.
          4   -1    0    0  503    0 -0.00000000000E+00 -0.00000000000E+00 -0.93899805257E+03  0.93899805257E+03  0.00000000000E+00 0.  1.
         25    1    1    2    0    0  0.24699006976E+03 -0.36662559308E+03 -0.13710576784E+03  0.47941778402E+03  0.12500000000E+03 0.  0.
         21    1    1    2  503  502 -0.23242380417E+03  0.17346036622E+03  0.57094796768E+03  0.64038340484E+03  0.00000000000E+00 0. -1.
          4    1    1    2  501    0 -0.14566265596E+02  0.19316522685E+03 -0.58027870380E+03  0.61175841232E+03  0.00000000000E+00 0.  1.
<mgrwt>
<rscale>  4 0.10323447E+04</rscale>
<asrwt>0</asrwt>
<pdfrwt beam="1">  1       21 0.12193254E+00 0.10323447E+04</pdfrwt>
<pdfrwt beam="2">  1        4 0.14446124E+00 0.10323447E+04</pdfrwt>
<totfact> 0.60531971E+00</totfact>
</mgrwt>
</event>
<event>
 5    0  0.2396052E+000  0.4896671E+03  0.7546771E-02  0.1016512E+00
          2   -1    0    0  503    0 -0.00000000000E+00  0.00000000000E+00  0.23444027892E+04  0.23444027892E+04  0.00000000000E+00 0. -1.
         21   -1    0    0  501  502  0.00000000000E+00 -0.00000000000E+00 -0.83791418499E+02  0.83791418499E+02  0.00000000000E+00 0.  1.
         25    1    1    2    0    0 -0.11304203341E+03  0.18381335744E+03  0.31853570121E+03  0.40454399592E+03  0.12500000000E+03 0.  0.
         21    1    1    2  503  502  0.14566640228E+03 -0.19106834347E+03  0.31470144729E+03  0.39593283971E+03  0.00000000000E+00 0.  1.
          2    1    1    2  501    0 -0.32624368864E+02  0.72549860370E+01  0.16273742222E+04  0.16277173720E+04  0.00000000000E+00 0. -1.
<mgrwt>
<rscale>  4 0.48966711E+03</rscale>
<asrwt>0</asrwt>
<pdfrwt beam="1">  1       21 0.12890989E-01 0.48966711E+03</pdfrwt>
<pdfrwt beam="2">  1        2 0.36067730E+00 0.48966711E+03</pdfrwt>
<totfact> 0.29405470E+03</totfact>
</mgrwt>
</event>
<event>
 5    0  0.2396052E+000  0.4556513E+03  0.7546771E-02  0.1026050E+00
          2   -1    0    0  503    0 -0.00000000000E+00  0.00000000000E+00  0.24535384875E+04  0.24535384875E+04  0.00000000000E+00 0. -1.
         21   -1    0    0  501  502  0.00000000000E+00 -0.00000000000E+00 -0.32132522969E+03  0.32132522969E+03  0.00000000000E+00 0. -1.
         25    1    1    2    0    0  0.30300047392E+02  0.22538881725E+03 -0.51355875972E+02  0.26453853748E+03  0.12500000000E+03 0.  0.
         21    1    1    2  503  502  0.27728823751E+01 -0.18953970741E+03 -0.10804661889E+03  0.21819042467E+03  0.00000000000E+00 0. -1.
          2    1    1    2  501    0 -0.33072929767E+02 -0.35849109843E+02  0.22916157527E+04  0.22921347550E+04  0.00000000000E+00 0. -1.
<mgrwt>
<rscale>  4 0.45565129E+03</rscale>
<asrwt>0</asrwt>
<pdfrwt beam="1">  1       21 0.49434652E-01 0.45565129E+03</pdfrwt>
<pdfrwt beam="2">  1        2 0.37746745E+00 0.45565129E+03</pdfrwt>
<totfact> 0.18553352E+02</totfact>
</mgrwt>
</event>
<event>
 5    0  0.2396052E+000  0.4013621E+03  0.7546771E-02  0.1043309E+00
         21   -1    0    0  501  502  0.00000000000E+00  0.00000000000E+00  0.29744222171E+03  0.29744222171E+03  0.00000000000E+00 0. -1.
          1   -1    0    0  503    0 -0.00000000000E+00 -0.00000000000E+00 -0.96422320973E+03  0.96422320973E+03  0.00000000000E+00 0.  1.
         25    1    1    2    0    0  0.21588411903E+03 -0.61607284469E+02  0.16377592814E+03  0.30471128136E+03  0.12500000000E+03 0.  0.
         21    1    1    2  503  502 -0.23900096296E+02 -0.11075853594E+03 -0.31982750068E+02  0.11773514424E+03  0.00000000000E+00 0.  1.
          1    1    1    2  501    0 -0.19198402273E+03  0.17236582041E+03 -0.79857416609E+03  0.83921900584E+03  0.00000000000E+00 0.  1.
<mgrwt>
<rscale>  4 0.40136211E+03</rscale>
<asrwt>0</asrwt>
<pdfrwt beam="1">  1       21 0.45760342E-01 0.40136211E+03</pdfrwt>
<pdfrwt beam="2">  1        1 0.14834203E+00 0.40136211E+03</pdfrwt>
<totfact> 0.80350824E+02</totfact>
</mgrwt>
</event>
<event>
 5    0  0.2396052E+000  0.5041140E+03  0.7546771E-02  0.1012711E+00
         21   -1    0    0  501  502  0.00000000000E+00  0.00000000000E+00  0.15999391977E+03  0.15999391977E+03  0.00000000000E+00 0.  1.
          2   -1    0    0  503    0 -0.00000000000E+00 -0.00000000000E+00 -0.57943556397E+03  0.57943556397E+03  0.00000000000E+00 0. -1.
         25    1    1    2    0    0  0.11940485072E+03  0.20188906273E+03 -0.21005708069E+03  0.33877085054E+03  0.12500000000E+03 0.  0.
         21    1    1    2  503  502 -0.12294571013E+03 -0.17929263702E+03 -0.29574268735E+02  0.21939948655E+03  0.00000000000E+00 0.  1.
          2    1    1    2  501    0  0.35408594109E+01 -0.22596425719E+02 -0.17981029477E+03  0.18125914665E+03  0.00000000000E+00 0. -1.
<mgrwt>
<rscale>  4 0.50411402E+03</rscale>
<asrwt>0</asrwt>
<pdfrwt beam="1">  1       21 0.24614449E-01 0.50411402E+03</pdfrwt>
<pdfrwt beam="2">  1        2 0.89143933E-01 0.50411402E+03</pdfrwt>
<totfact> 0.97853772E+03</totfact>
</mgrwt>
</event>
<event>
 5    0  0.2396052E+000  0.4367837E+03  0.7546771E-02  0.1031738E+00
          2   -1    0    0  503    0 -0.00000000000E+00  0.00000000000E+00  0.14687779361E+04  0.14687779361E+04  0.00000000000E+00 0.  1.
         21   -1    0    0  501  502  0.00000000000E+00 -0.00000000000E+00 -0.69269105528E+02  0.69269105528E+02  0.00000000000E+00 0.  1.
         25    1    1    2    0    0  0.53178443061E+02 -0.26715359191E+03  0.49890587501E+03  0.58200606577E+03  0.12500000000E+03 0.  0.
         21    1    1    2  503  502 -0.88200051519E+02  0.10432994517E+03  0.25487067970E+03  0.28917650305E+03  0.00000000000E+00 0. -1.
          2    1    1    2  501    0  0.35021608458E+02  0.16282364674E+03  0.64573227585E+03  0.66686447279E+03  0.00000000000E+00 0.  1.
<mgrwt>
<rscale>  4 0.43678367E+03</rscale>
<asrwt>0</asrwt>
<pdfrwt beam="1">  1       21 0.10656787E-01 0.43678367E+03</pdfrwt>
<pdfrwt beam="2">  1        2 0.22596581E+00 0.43678367E+03</pdfrwt>
<totfact> 0.12493563E+04</totfact>
</mgrwt>
</event>
<event>
 5    0  0.2396052E+000  0.5895568E+03  0.7546771E-02  0.9927312E-01
          1   -1    0    0  503    0 -0.00000000000E+00  0.00000000000E+00  0.33841064463E+03  0.33841064463E+03  0.00000000000E+00 0.  1.
         21   -1    0    0  501  502  0.00000000000E+00 -0.00000000000E+00 -0.58364228619E+03  0.58364228619E+03  0.00000000000E+00 0. -1.
         25    1    1    2    0    0  0.13228213979E+03  0.16375335957E+03 -0.49161437597E+03  0.54920253271E+03  0.12500000000E+03 0.  0.
         21    1    1    2  503  502 -0.10616851461E+03 -0.13518685225E+03  0.59343219657E+02  0.18184844304E+03  0.00000000000E+00 0.  1.
          1    1    1    2  501    0 -0.26113625178E+02 -0.28566507322E+02  0.18703951476E+03  0.19100195507E+03  0.00000000000E+00 0.  1.
<mgrwt>
<rscale>  4 0.58955676E+03</rscale>
<asrwt>0</asrwt>
<pdfrwt beam="1">  1       21 0.89791121E-01 0.58955676E+03</pdfrwt>
<pdfrwt beam="2">  1        1 0.52063176E-01 0.58955676E+03</pdfrwt>
<totfact> 0.77358321E+02</totfact>
</mgrwt>
</event>
<event>
 5    0  0.2396052E+000  0.5487046E+03  0.7546771E-02  0.1001794E+00
          2   -1    0    0  503    0 -0.00000000000E+00  0.00000000000E+00  0.14666309419E+04  0.14666309419E+04  0.00000000000E+00 0. -1.
         21   -1    0    0  501  502  0.00000000000E+00 -0.00000000000E+00 -0.12830840533E+03  0.12830840533E+03  0.00000000000E+00 0. -1.
         25    1    1    2    0    0 -0.25259169441E+02 -0.25008603562E+03  0.29171757078E+03  0.40485206182E+03  0.12500000000E+03 0.  0.
         21    1    1    2  503  502  0.10813241155E+03  0.23955983177E+03  0.17791152611E+03  0.31738626711E+03  0.00000000000E+00 0. -1.
          2    1    1    2  501    0 -0.82873242105E+02  0.10526203854E+02  0.86869343964E+03  0.87270101827E+03  0.00000000000E+00 0. -1.
<mgrwt>
<rscale>  4 0.54870458E+03</rscale>
<asrwt>0</asrwt>
<pdfrwt beam="1">  1       21 0.19739756E-01 0.54870458E+03</pdfrwt>
<pdfrwt beam="2">  1        2 0.22563552E+00 0.54870458E+03</pdfrwt>
<totfact> 0.39208079E+03</totfact>
</mgrwt>
</event>
<event>
 5    0  0.2396052E+000  0.6509894E+03  0.7546771E-02  0.9804924E-01
          2   -1    0    0  503    0 -0.00000000000E+00  0.00000000000E+00  0.14315019028E+04  0.14315019028E+04  0.00000000000E+00 0.  1.
         21   -1    0    0  501  502  0.00000000000E+00 -0.00000000000E+00 -0.60542344720E+03  0.60542344720E+03  0.00000000000E+00 0. -1.
         25    1    1    2    0    0  0.30404951295E+03  0.10826888722E+03 -0.50282932125E+03  0.61043475046E+03  0.12500000000E+03 0.  0.
         21    1    1    2  503  502 -0.13303854731E+03 -0.56431470855E+02  0.80623451414E+02  0.16548083542E+03  0.00000000000E+00 0. -1.
          2    1    1    2  501    0 -0.17101096564E+03 -0.51837416365E+02  0.12482843254E+04  0.12610097641E+04  0.00000000000E+00 0.  1.
<mgrwt>
<rscale>  4 0.65098940E+03</rscale>
<asrwt>0</asrwt>
<pdfrwt beam="1">  1       21 0.93142069E-01 0.65098940E+03</pdfrwt>
<pdfrwt beam="2">  1        2 0.22023106E+00 0.65098940E+03</pdfrwt>
<totfact> 0.15117669E+02</totfact>
</mgrwt>
</event>
<event>
 5    0  0.2396052E+000  0.4400011E+03  0.7546771E-02  0.1030746E+00
         21   -1    0    0  501  502  0.00000000000E+00  0.00000000000E+00  0.50475486997E+03  0.50475486997E+03  0.00000000000E+00 0.  1.
          4   -1    0    0  503    0 -0.00000000000E+00 -0.00000000000E+00 -0.21110751632E+03  0.21110751632E+03  0.00000000000E+00 0.  1.
         25    1    1    2    0    0 -0.13740464156E+03  0.17912762779E+03  0.29506507912E+03  0.39198870325E+03  0.12500000000E+03 0.  0.
         21    1    1    2  503  502  0.14106566736E+03 -0.97889452195E+02  0.96204817698E+02  0.19681776928E+03  0.00000000000E+00 0.  1.
          4    1    1    2  501    0 -0.36610257920E+01 -0.81238175599E+02 -0.97622543168E+02  0.12705591375E+03  0.00000000000E+00 0.  1.
<mgrwt>
<rscale>  4 0.44000106E+03</rscale>
<asrwt>0</asrwt>
<pdfrwt beam="1">  1       21 0.77654595E-01 0.44000106E+03</pdfrwt>
<pdfrwt beam="2">  1        4 0.32478080E-01 0.44000106E+03</pdfrwt>
<totfact> 0.55292216E+02</totfact>
</mgrwt>
</event>
<event>
 5    0  0.2396052E+000  0.5037128E+03  0.7546771E-02  0.1012814E+00
         -3   -1    0    0    0  501 -0.00000000000E+00  0.00000000000E+00  0.18447967328E+03  0.18447967328E+03  0.00000000000E+00 0. -1.
         21   -1    0    0  501  502  0.00000000000E+00 -0.00000000000E+00 -0.14983422262E+04  0.14983422262E+04  0.00000000000E+00 0.  1.
         25    1    1    2    0    0 -0.75741975128E+01 -0.21684279631E+03 -0.64272736444E+03  0.68978375726E+03  0.12500000000E+03 0.  0.
         21    1    1    2  503  502 -0.18496320796E+02  0.24961883350E+03 -0.81010624632E+03  0.84789374703E+03  0.00000000000E+00 0.  1.
         -3    1    1    2    0  503  0.26070518308E+02 -0.32776037191E+02  0.13897105784E+03  0.14514439520E+03  0.00000000000E+00 0. -1.
<mgrwt>
<rscale>  4 0.50371282E+03</rscale>
<asrwt>0</asrwt>
<pdfrwt beam="1">  1       21 0.23051418E+00 0.50371282E+03</pdfrwt>
<pdfrwt beam="2">  1       -3 0.28381489E-01 0.50371282E+03</pdfrwt>
<totfact> 0.44486854E+01</totfact>
</mgrwt>
</event>
<event>
 5    0  0.2396052E+000  0.3566932E+03  0.7546771E-02  0.1059901E+00
          2   -1    0    0  503    0 -0.00000000000E+00  0.00000000000E+00  0.26581127371E+04  0.26581127371E+04  0.00000000000E+00 0.  1.
         21   -1    0    0  501  502  0.00000000000E+00 -0.00000000000E+00 -0.48982948660E+02  0.48982948660E+02  0.00000000000E+00 0. -1.
         25    1    1    2    0    0 -0.17597255496E+03 -0.15310546504E+03  0.49026550294E+03  0.55712914741E+03  0.12500000000E+03 0.  0.
         21    1    1    2  503  502  0.69186567528E+02  0.60015358376E+02  0.14820675884E+03  0.17422361417E+03  0.00000000000E+00 0.  1.
          2    1    1    2  501    0  0.10678598743E+03  0.93090106661E+02  0.19706575266E+04  0.19757429241E+04  0.00000000000E+00 0.  1.
<mgrwt>
<rscale>  4 0.35669319E+03</rscale>
<asrwt>0</asrwt>
<pdfrwt beam="1">  1       21 0.75358403E-02 0.35669319E+03</pdfrwt>
<pdfrwt beam="2">  1        2 0.40894031E+00 0.35669319E+03</pdfrwt>
<totfact> 0.53437795E+03</totfact>
</mgrwt>
</event>
<event>
 5    0  0.2396052E+000  0.5496338E+03  0.7546771E-02  0.1001579E+00
         21   -1    0    0  501  502  0.00000000000E+00  0.00000000000E+00  0.12438020502E+04  0.12438020502E+04  0.00000000000E+00 0. -1.
         -1   -1    0    0    0  501 -0.00000000000E+00 -0.00000000000E+00 -0.28289299545E+03  0.28289299545E+03  0.00000000000E+00 0.  1.
         25    1    1    2    0    0 -0.69302413488E+02 -0.23865987279E+03  0.63797188694E+03  0.69598454575E+03  0.12500000000E+03 0.  0.
         21    1    1    2  503  502  0.60488221541E+02  0.26363594998E+03  0.54428157081E+03  0.60778710697E+03  0.00000000000E+00 0. -1.
         -1    1    1    2    0  503  0.88141919475E+01 -0.24976077196E+02 -0.22134440297E+03  0.22292339298E+03  0.00000000000E+00 0.  1.
<mgrwt>
<rscale>  4 0.54963377E+03</rscale>
<asrwt>0</asrwt>
<pdfrwt beam="1">  1       21 0.19135416E+00 0.54963377E+03</pdfrwt>
<pdfrwt beam="2">  1       -1 0.43522000E-01 0.54963377E+03</pdfrwt>
<totfact> 0.62637069E+01</totfact>
</mgrwt>
</event>
<event>
 5    0  0.2396052E+000  0.7963657E+03  0.7546771E-02  0.9565293E-01
         21   -1    0    0  501  502  0.00000000000E+00  0.00000000000E+00  0.12330844553E+04  0.12330844553E+04  0.00000000000E+00 0.  1.
         -1   -1    0    0    0  501 -0.00000000000E+00 -0.00000000000E+00 -0.12222258882E+04  0.12222258882E+04  0.00000000000E+00 0.  1.
         25    1    1    2    0    0  0.10809570454E+03  0.27621850328E+03  0.10257175782E+04  0.10750362288E+04  0.12500000000E+03 0.  0.
         21    1    1    2  503  502 -0.18647911177E+03 -0.20062549102E+03  0.75792439252E+02  0.28419982516E+03  0.00000000000E+00 0. -1.
         -1    1    1    2    0  503  0.78383407229E+02 -0.75593012253E+02 -0.10906514504E+04  0.10960742896E+04  0.00000000000E+00 0.  1.
<mgrwt>
<rscale>  4 0.79636570E+03</rscale>
<asrwt>0</asrwt>
<pdfrwt beam="1">  1       21 0.18970530E+00 0.79636570E+03</pdfrwt>
<pdfrwt beam="2">  1       -1 0.18803475E+00 0.79636570E+03</pdfrwt>
<totfact> 0.21546808E+00</totfact>
</mgrwt>
</event>
<event>
 5    0  0.2396052E+000  0.4161964E+03  0.7546771E-02  0.1038311E+00
         -2   -1    0    0    0  501 -0.00000000000E+00  0.00000000000E+00  0.18801445163E+03  0.18801445163E+03  0.00000000000E+00 0. -1.
         21   -1    0    0  501  502  0.00000000000E+00 -0.00000000000E+00 -0.36686902442E+03  0.36686902442E+03  0.00000000000E+00 0. -1.
         25    1    1    2    0    0 -0.20081847051E+03  0.73788301555E+01 -0.11706761489E+03  0.26403092942E+03  0.12500000000E+03 0.  0.
         21    1    1    2  503  502  0.17715805484E+03 -0.11800106601E+02 -0.12899595873E+03  0.21946338255E+03  0.00000000000E+00 0.  1.
         -2    1    1    2    0  503  0.23660415676E+02  0.44212764456E+01  0.67209000838E+02  0.71389164086E+02  0.00000000000E+00 0. -1.
<mgrwt>
<rscale>  4 0.41619643E+03</rscale>
<asrwt>0</asrwt>
<pdfrwt beam="1">  1       21 0.56441388E-01 0.41619643E+03</pdfrwt>
<pdfrwt beam="2">  1       -2 0.28925301E-01 0.41619643E+03</pdfrwt>
<totfact> 0.24765661E+03</totfact>
</mgrwt>
</event>
<event>
 5    0  0.2396052E+000  0.4339034E+03  0.7546771E-02  0.1032634E+00
          1   -1    0    0  503    0 -0.00000000000E+00  0.00000000000E+00  0.21346203173E+04  0.21346203173E+04  0.00000000000E+00 0. -1.
         21   -1    0    0  501  502  0.00000000000E+00 -0.00000000000E+00 -0.12252486504E+03  0.12252486504E+03  0.00000000000E+00 0.  1.
         25    1    1    2    0    0  0.10112320273E+03  0.24511728749E+03  0.10757377377E+03  0.31225871254E+03  0.12500000000E+03 0.  0.
         21    1    1    2  503  502 -0.81252862268E+02  0.31750181514E+02  0.20415982371E+03  0.22201652027E+03  0.00000000000E+00 0. -1.
          1    1    1    2  501    0 -0.19870340457E+02 -0.27686746900E+03  0.17003618548E+04  0.17228699495E+04  0.00000000000E+00 0. -1.
<mgrwt>
<rscale>  4 0.43390343E+03</rscale>
<asrwt>0</asrwt>
<pdfrwt beam="1">  1       21 0.18849981E-01 0.43390343E+03</pdfrwt>
<pdfrwt beam="2">  1        1 0.32840310E+00 0.43390343E+03</pdfrwt>
<totfact> 0.73087531E+02</totfact>
</mgrwt>
</event>
<event>
 5    0  0.2396052E+000  0.8088585E+03  0.7546771E-02  0.9547283E-01
         21   -1    0    0  501  502  0.00000000000E+00  0.00000000000E+00  0.15671760881E+04  0.15671760881E+04  0.00000000000E+00 0.  1.
          2   -1    0    0  503    0 -0.00000000000E+00 -0.00000000000E+00 -0.17071866180E+03  0.17071866180E+03  0.00000000000E+00 0.  1.
         25    1    1    2    0    0 -0.33241712431E+03 -0.22093344745E+03  0.68031701266E+03  0.79860438920E+03  0.12500000000E+03 0.  0.
         21    1    1    2  503  502  0.36256251265E+03  0.13906353531E+03  0.75091024190E+03  0.84537354691E+03  0.00000000000E+00 0.  1.
          2    1    1    2  501    0 -0.30145388338E+02  0.81869912134E+02 -0.34769828273E+02  0.93916813771E+02  0.00000000000E+00 0.  1.
<mgrwt>
<rscale>  4 0.80885846E+03</rscale>
<asrwt>0</asrwt>
<pdfrwt beam="1">  1       21 0.24110400E+00 0.80885846E+03</pdfrwt>
<pdfrwt beam="2">  1        2 0.26264411E-01 0.80885846E+03</pdfrwt>
<totfact> 0.14574906E+02</totfact>
</mgrwt>
</event>
<event>
 5    0  0.2396052E+000  0.5064470E+03  0.7546771E-02  0.1012110E+00
         21   -1    0    0  501  502  0.00000000000E+00  0.00000000000E+00  0.10622105291E+04  0.10622105291E+04  0.00000000000E+00 0.  1.
         -3   -1    0    0    0  501 -0.00000000000E+00 -0.00000000000E+00 -0.56033568086E+03  0.56033568086E+03  0.00000000000E+00 0.  1.
         25    1    1    2    0    0  0.10462505685E+03 -0.40591884009E+03 -0.35634198445E+03  0.56419953664E+03  0.12500000000E+03 0.  0.
         21    1    1    2  503  502 -0.53202663500E+02  0.43356380269E+02 -0.46115986089E+02  0.82686052551E+02  0.00000000000E+00 0. -1.
         -3    1    1    2    0  503 -0.51422393350E+02  0.36256245983E+03  0.90433281873E+03  0.97566062073E+03  0.00000000000E+00 0.  1.
<mgrwt>
<rscale>  4 0.50644698E+03</rscale>
<asrwt>0</asrwt>
<pdfrwt beam="1">  1       21 0.16341700E+00 0.50644698E+03</pdfrwt>
<pdfrwt beam="2">  1       -3 0.86205489E-01 0.50644698E+03</pdfrwt>
<totfact> 0.12990990E+01</totfact>
</mgrwt>
</event>
<event>
 5    0  0.2396052E+000  0.5443210E+03  0.7546771E-02  0.1002817E+00
          1   -1    0    0  503    0 -0.00000000000E+00  0.00000000000E+00  0.56382664853E+03  0.56382664853E+03  0.00000000000E+00 0.  1.
         21   -1    0    0  501  502  0.00000000000E+00 -0.00000000000E+00 -0.31819455900E+03  0.31819455900E+03  0.00000000000E+00 0.  1.
         25    1    1    2    0    0  0.12731138519E+02  0.22115284322E+03 -0.14522845656E+03  0.29289412174E+03  0.12500000000E+03 0.  0.
         21    1    1    2  503  502  0.17179115003E+03 -0.13918943169E+03  0.12084813882E+03  0.25197255760E+03  0.00000000000E+00 0. -1.
          1    1    1    2  501    0 -0.18452228855E+03 -0.81963411530E+02  0.27001240727E+03  0.33715452819E+03  0.00000000000E+00 0.  1.
<mgrwt>
<rscale>  4 0.54432095E+03</rscale>
<asrwt>0</asrwt>
<pdfrwt beam="1">  1       21 0.48953009E-01 0.54432095E+03</pdfrwt>
<pdfrwt beam="2">  1        1 0.86742561E-01 0.54432095E+03</pdfrwt>
<totfact> 0.15379897E+03</totfact>
</mgrwt>
</event>
<event>
 5    0  0.2396052E+000  0.5067835E+03  0.7546771E-02  0.1012023E+00
          1   -1    0    0  503    0 -0.00000000000E+00  0.00000000000E+00  0.78378661865E+03  0.78378661865E+03  0.00000000000E+00 0. -1.
         21   -1    0    0  501  502  0.00000000000E+00 -0.00000000000E+00 -0.81702974510E+03  0.81702974510E+03  0.00000000000E+00 0.  1.
         25    1    1    2    0    0 -0.17234833504E+03  0.18054139295E+03 -0.49036270461E+03  0.56425147339E+03  0.12500000000E+03 0.  0.
         21    1    1    2  503  502  0.13535715224E+03 -0.17294214908E+03 -0.24752644399E+03  0.33090767000E+03  0.00000000000E+00 0.  1.
          1    1    1    2  501    0  0.36991182794E+02 -0.75992438623E+01  0.70464602214E+03  0.70565722035E+03  0.00000000000E+00 0. -1.
<mgrwt>
<rscale>  4 0.50678348E+03</rscale>
<asrwt>0</asrwt>
<pdfrwt beam="1">  1       21 0.12569688E+00 0.50678348E+03</pdfrwt>
<pdfrwt beam="2">  1        1 0.12058256E+00 0.50678348E+03</pdfrwt>
<totfact> 0.10656562E+02</totfact>
</mgrwt>
</event>
<event>
 5    0  0.2396052E+000  0.5117605E+03  0.7546771E-02  0.1010754E+00
         21   -1    0    0  501  502  0.00000000000E+00  0.00000000000E+00  0.12263259897E+03  0.12263259897E+03  0.00000000000E+00 0.  1.
          2   -1    0    0  503    0 -0.00000000000E+00 -0.00000000000E+00 -0.10480539405E+04  0.10480539405E+04  0.00000000000E+00 0. -1.
         25    1    1    2    0    0 -0.82730683054E+02 -0.20102404891E+03 -0.24666391704E+03  0.35174297737E+03  0.12500000000E+03 0.  0.
         21    1    1    2  503  502  0.99175191469E+02  0.23702537133E+03 -0.16873878151E+03  0.30739147945E+03  0.00000000000E+00 0.  1.
          2    1    1    2  501    0 -0.16444508415E+02 -0.36001322420E+02 -0.51001864294E+03  0.51155208260E+03  0.00000000000E+00 0. -1.
<mgrwt>
<rscale>  4 0.51176052E+03</rscale>
<asrwt>0</asrwt>
<pdfrwt beam="1">  1       21 0.18866554E-01 0.51176052E+03</pdfrwt>
<pdfrwt beam="2">  1        2 0.16123907E+00 0.51176052E+03</pdfrwt>
<totfact> 0.75071316E+03</totfact>
</mgrwt>
</event>
<event>
 5    0  0.2396052E+000  0.3979053E+03  0.7546771E-02  0.1044507E+00
         21   -1    0    0  501  502  0.00000000000E+00  0.00000000000E+00  0.36532399665E+02  0.36532399665E+02  0.00000000000E+00 0. -1.
          2   -1    0    0  503    0 -0.00000000000E+00 -0.00000000000E+00 -0.23813985922E+04  0.23813985922E+04  0.00000000000E+00 0. -1.
         25    1    1    2    0    0  0.71427046966E+02 -0.22159510344E+03 -0.14423508344E+04  0.14663584632E+04  0.12500000000E+03 0.  0.
         21    1    1    2  503  502  0.46893032266E+02  0.70427588250E+02 -0.12666070931E+03  0.15232182032E+03  0.00000000000E+00 0.  1.
          2    1    1    2  501    0 -0.11832007923E+03  0.15116751519E+03 -0.77585464881E+03  0.79925070840E+03  0.00000000000E+00 0. -1.
<mgrwt>
<rscale>  4 0.39790531E+03</rscale>
<asrwt>0</asrwt>
<pdfrwt beam="1">  1       21 0.56203689E-02 0.39790531E+03</pdfrwt>
<pdfrwt beam="2">  1        2 0.36636903E+00 0.39790531E+03</pdfrwt>
<totfact> 0.12566896E+04</totfact>
</mgrwt>
</event>
<event>
 5    0  0.2396052E+000  0.5075179E+03  0.7546771E-02  0.1011835E+00
         21   -1    0    0  501  502  0.00000000000E+00  0.00000000000E+00  0.12661454004E+03  0.12661454004E+03  0.00000000000E+00 0. -1.
          2   -1    0    0  503    0 -0.00000000000E+00 -0.00000000000E+00 -0.25359142016E+04  0.25359142016E+04  0.00000000000E+00 0. -1.
         25    1    1    2    0    0 -0.21635992488E+03 -0.51399495439E+02 -0.23525876854E+03  0.34702336146E+03  0.12500000000E+03 0.  0.
         21    1    1    2  503  502  0.48362284310E+02  0.24673084190E+03 -0.19086699816E+03  0.31566632680E+03  0.00000000000E+00 0. -1.
          2    1    1    2  501    0  0.16799764057E+03 -0.19533134646E+03 -0.19831738948E+04  0.19998390533E+04  0.00000000000E+00 0. -1.
<mgrwt>
<rscale>  4 0.50751793E+03</rscale>
<asrwt>0</asrwt>
<pdfrwt beam="1">  1       21 0.19479160E-01 0.50751793E+03</pdfrwt>
<pdfrwt beam="2">  1        2 0.39014065E+00 0.50751793E+03</pdfrwt>
<totfact> 0.10594059E+03</totfact>
</mgrwt>
</event>
<event>
 5    0  0.2396052E+000  0.4340130E+03  0.7546771E-02  0.1032600E+00
          2   -1    0    0  503    0 -0.00000000000E+00  0.00000000000E+00  0.68155576026E+03  0.68155576026E+03  0.00000000000E+00 0. -1.
         21   -1    0    0  501  502  0.00000000000E+00 -0.00000000000E+00 -0.14464291645E+03  0.14464291645E+03  0.00000000000E+00 0. -1.
         25    1    1    2    0    0 -0.20845134389E+03  0.80622677432E+02  0.11420278581E+03  0.28039125374E+03  0.12500000000E+03 0.  0.
         21    1    1    2  503  502  0.17575525744E+03 -0.27644525365E+02  0.75858477345E+02  0.19341313008E+03  0.00000000000E+00 0. -1.
          2    1    1    2  501    0  0.32696086444E+02 -0.52978152067E+02  0.34685158065E+03  0.35239429289E+03  0.00000000000E+00 0. -1.
<mgrwt>
<rscale>  4 0.43401303E+03</rscale>
<asrwt>0</asrwt>
<pdfrwt beam="1">  1       21 0.22252757E-01 0.43401303E+03</pdfrwt>
<pdfrwt beam="2">  1        2 0.10485473E+00 0.43401303E+03</pdfrwt>
<totfact> 0.98630260E+03</totfact>
</mgrwt>
</event>
<event>
 5    0  0.2396052E+000  0.6114649E+03  0.7546771E-02  0.9881901E-01
          2   -1    0    0  503    0 -0.00000000000E+00  0.00000000000E+00  0.22122987660E+04  0.22122987660E+04  0.00000000000E+00 0.  1.
         21   -1    0    0  501  502  0.00000000000E+00 -0.00000000000E+00 -0.25111252814E+03  0.25111252814E+03  0.00000000000E+00 0. -1.
         25    1    1    2    0    0 -0.26698386388E+03  0.10210192697E+03 -0.67944803921E+02  0.31929090723E+03  0.12500000000E+03 0.  0.
         21    1    1    2  503  502 -0.13157811946E+03 -0.14991587038E+03  0.24773761073E+03  0.31805894656E+03  0.00000000000E+00 0.  1.
          2    1    1    2  501    0  0.39856198333E+03  0.47813943413E+02  0.17813934310E+04  0.18260614403E+04  0.00000000000E+00 0.  1.
<mgrwt>
<rscale>  4 0.61146495E+03</rscale>
<asrwt>0</asrwt>
<pdfrwt beam="1">  1       21 0.38632698E-01 0.61146495E+03</pdfrwt>
<pdfrwt beam="2">  1        2 0.34035364E+00 0.61146495E+03</pdfrwt>
<totfact> 0.40240979E+02</totfact>
</mgrwt>
</event>
<event>
 5    0  0.2396052E+000  0.4340850E+03  0.7546771E-02  0.1032577E+00
         21   -1    0    0  501  502  0.00000000000E+00  0.00000000000E+00  0.14359030529E+03  0.14359030529E+03  0.00000000000E+00 0. -1.
          2   -1    0    0  503    0 -0.00000000000E+00 -0.00000000000E+00 -0.45566791230E+03  0.45566791230E+03  0.00000000000E+00 0. -1.
         25    1    1    2    0    0  0.92839511201E+02 -0.17754299180E+03 -0.86414146972E+02  0.25146191277E+03  0.12500000000E+03 0.  0.
         21    1    1    2  503  502 -0.67557237758E+02  0.18489602244E+03 -0.10267211956E+03  0.22201820561E+03  0.00000000000E+00 0. -1.
          2    1    1    2  501    0 -0.25282273442E+02 -0.73530306387E+01 -0.12299134047E+03  0.12577809921E+03  0.00000000000E+00 0. -1.
<mgrwt>
<rscale>  4 0.43408502E+03</rscale>
<asrwt>0</asrwt>
<pdfrwt beam="1">  1       21 0.22090817E-01 0.43408502E+03</pdfrwt>
<pdfrwt beam="2">  1        2 0.70102754E-01 0.43408502E+03</pdfrwt>
<totfact> 0.16024063E+04</totfact>
</mgrwt>
</event>
<event>
 5    0  0.2396052E+000  0.4017038E+03  0.7546771E-02  0.1043191E+00
         21   -1    0    0  501  502  0.00000000000E+00  0.00000000000E+00  0.63959955401E+03  0.63959955401E+03  0.00000000000E+00 0.  1.
         -1   -1    0    0    0  501 -0.00000000000E+00 -0.00000000000E+00 -0.13198742109E+03  0.13198742109E+03  0.00000000000E+00 0.  1.
         25    1    1    2    0    0 -0.21513415296E+03 -0.43193409098E+02  0.47693326502E+03  0.53966537192E+03  0.12500000000E+03 0.  0.
         21    1    1    2  503  502  0.85324441257E+02  0.50302442205E+02  0.23041689928E+02  0.10169324187E+03  0.00000000000E+00 0. -1.
         -1    1    1    2    0  503  0.12980971170E+03 -0.71090331070E+01  0.76371779685E+01  0.13022836132E+03  0.00000000000E+00 0.  1.
<mgrwt>
<rscale>  4 0.40170377E+03</rscale>
<asrwt>0</asrwt>
<pdfrwt beam="1">  1       21 0.98399930E-01 0.40170377E+03</pdfrwt>
<pdfrwt beam="2">  1       -1 0.20305757E-01 0.40170377E+03</pdfrwt>
<totfact> 0.14348401E+03</totfact>
</mgrwt>
</event>
<event>
 5    0  0.2396052E+000  0.6115030E+03  0.7546771E-02  0.9881824E-01
         21   -1    0    0  501  502  0.00000000000E+00  0.00000000000E+00  0.11721055842E+04  0.11721055842E+04  0.00000000000E+00 0.  1.
          1   -1    0    0  503    0 -0.00000000000E+00 -0.00000000000E+00 -0.32032002756E+03  0.32032002756E+03  0.00000000000E+00 0.  1.
         25    1    1    2    0    0  0.22268861413E+03  0.45702547214E+03  0.80420240943E+03  0.95959836202E+03  0.12500000000E+03 0.  0.
         21    1    1    2  503  502 -0.61803667159E+02 -0.41568376866E+02  0.45541398285E+02  0.87302017086E+02  0.00000000000E+00 0. -1.
          1    1    1    2  501    0 -0.16088494698E+03 -0.41545709528E+03  0.20417488959E+01  0.44552523264E+03  0.00000000000E+00 0.  1.
<mgrwt>
<rscale>  4 0.61150296E+03</rscale>
<asrwt>0</asrwt>
<pdfrwt beam="1">  1       21 0.18032393E+00 0.61150296E+03</pdfrwt>
<pdfrwt beam="2">  1        1 0.49280005E-01 0.61150296E+03</pdfrwt>
<totfact> 0.13256411E+02</totfact>
</mgrwt>
</event>
<event>
 5    0  0.2396052E+000  0.5231729E+03  0.7546771E-02  0.1007901E+00
          2   -1    0    0  503    0 -0.00000000000E+00  0.00000000000E+00  0.28210910815E+03  0.28210910815E+03  0.00000000000E+00 0. -1.
         21   -1    0    0  501  502  0.00000000000E+00 -0.00000000000E+00 -0.20468998022E+04  0.20468998022E+04  0.00000000000E+00 0. -1.
         25    1    1    2    0    0 -0.12644844714E+03  0.17613730795E+03 -0.18320800620E+04  0.18490959722E+04  0.12500000000E+03 0.  0.
         21    1    1    2  503  502 -0.13229895507E+02 -0.13613485574E+03 -0.15978686967E+03  0.21033205367E+03  0.00000000000E+00 0.  1.
          2    1    1    2  501    0  0.13967834264E+03 -0.40002452212E+02  0.22707623758E+03  0.26958088445E+03  0.00000000000E+00 0. -1.
<mgrwt>
<rscale>  4 0.52317294E+03</rscale>
<asrwt>0</asrwt>
<pdfrwt beam="1">  1       21 0.31490765E+00 0.52317294E+03</pdfrwt>
<pdfrwt beam="2">  1        2 0.43401402E-01 0.52317294E+03</pdfrwt>
<totfact> 0.31761200E+01</totfact>
</mgrwt>
</event>
<event>
 5    0  0.2396052E+000  0.4868232E+03  0.7546771E-02  0.1017277E+00
         21   -1    0    0  501  502  0.00000000000E+00  0.00000000000E+00  0.50302997634E+03  0.50302997634E+03  0.00000000000E+00 0.  1.
         -2   -1    0    0    0  501 -0.00000000000E+00 -0.00000000000E+00 -0.26196750831E+03  0.26196750831E+03  0.00000000000E+00 0.  1.
         25    1    1    2    0    0 -0.17891232849E+03 -0.13415453406E+03  0.35047431599E+03  0.43412475910E+03  0.12500000000E+03 0.  0.
         21    1    1    2  503  502  0.13669355371E+03  0.11938074212E+03  0.30459481104E+02  0.18402355611E+03  0.00000000000E+00 0.  1.
         -2    1    1    2    0  503  0.42218774776E+02  0.14773791949E+02 -0.13987132906E+03  0.14684916944E+03  0.00000000000E+00 0.  1.
<mgrwt>
<rscale>  4 0.48682315E+03</rscale>
<asrwt>0</asrwt>
<pdfrwt beam="1">  1       21 0.77389227E-01 0.48682315E+03</pdfrwt>
<pdfrwt beam="2">  1       -2 0.40302694E-01 0.48682315E+03</pdfrwt>
<totfact> 0.64891248E+02</totfact>
</mgrwt>
</event>
<event>
 5    0  0.2396052E+000  0.5483588E+03  0.7546771E-02  0.1001875E+00
          2   -1    0    0  503    0 -0.00000000000E+00  0.00000000000E+00  0.19097151639E+04  0.19097151639E+04  0.00000000000E+00 0. -1.
         21   -1    0    0  501  502  0.00000000000E+00 -0.00000000000E+00 -0.37856539732E+03  0.37856539732E+03  0.00000000000E+00 0.  1.
         25    1    1    2    0    0  0.20892957878E+03 -0.17413960958E+02  0.96750653144E+02  0.26256523724E+03  0.12500000000E+03 0.  0.
         21    1    1    2  503  502 -0.14960483591E+03 -0.19519213035E+02 -0.27565048727E+03  0.31423844090E+03  0.00000000000E+00 0.  1.
          2    1    1    2  501    0 -0.59324742864E+02  0.36933173993E+02  0.17100496007E+04  0.17114768830E+04  0.00000000000E+00 0. -1.
<mgrwt>
<rscale>  4 0.54835876E+03</rscale>
<asrwt>0</asrwt>
<pdfrwt beam="1">  1       21 0.58240831E-01 0.54835876E+03</pdfrwt>
<pdfrwt beam="2">  1        2 0.29380233E+00 0.54835876E+03</pdfrwt>
<totfact> 0.24984083E+02</totfact>
</mgrwt>
</event>
<event>
 5    0  0.2396052E+000  0.4606047E+03  0.7546771E-02  0.1024606E+00
         21   -1    0    0  501  502  0.00000000000E+00  0.00000000000E+00  0.70047567305E+03  0.70047567305E+03  0.00000000000E+00 0.  1.
          2   -1    0    0  503    0 -0.00000000000E+00 -0.00000000000E+00 -0.18159888350E+03  0.18159888350E+03  0.00000000000E+00 0. -1.
         25    1    1    2    0    0  0.96266726103E+02  0.19238790685E+03  0.22898445810E+03  0.33814090452E+03  0.12500000000E+03 0.  0.
         21    1    1    2  503  502 -0.80863101478E+02 -0.16995119689E+03  0.39383056019E+03  0.43649142104E+03  0.00000000000E+00 0.  1.
          2    1    1    2  501    0 -0.15403624625E+02 -0.22436709962E+02 -0.10393822874E+03  0.10744223099E+03  0.00000000000E+00 0. -1.
<mgrwt>
<rscale>  4 0.46060470E+03</rscale>
<asrwt>0</asrwt>
<pdfrwt beam="1">  1       21 0.10776549E+00 0.46060470E+03</pdfrwt>
<pdfrwt beam="2">  1        2 0.27938290E-01 0.46060470E+03</pdfrwt>
<totfact> 0.14783428E+03</totfact>
</mgrwt>
</event>
<event>
 5    0  0.2396052E+000  0.4248941E+03  0.7546771E-02  0.1035485E+00
          2   -1    0    0  503    0 -0.00000000000E+00  0.00000000000E+00  0.85835126837E+03  0.85835126837E+03  0.00000000000E+00 0.  1.
         21   -1    0    0  501  502  0.00000000000E+00 -0.00000000000E+00 -0.12391968091E+03  0.12391968091E+03  0.00000000000E+00 0.  1.
         25    1    1    2    0    0 -0.58575957062E+02  0.20131328792E+03  0.71153839038E+02  0.25425587791E+03  0.12500000000E+03 0.  0.
         21    1    1    2  503  502  0.65501536193E+02 -0.14519553784E+03  0.17564358019E+03  0.23711360718E+03  0.00000000000E+00 0.  1.
          2    1    1    2  501    0 -0.69255791315E+01 -0.56117750086E+02  0.48763416823E+03  0.49090146419E+03  0.00000000000E+00 0.  1.
<mgrwt>
<rscale>  4 0.42489411E+03</rscale>
<asrwt>0</asrwt>
<pdfrwt beam="1">  1       21 0.19064567E-01 0.42489411E+03</pdfrwt>
<pdfrwt beam="2">  1        2 0.13205404E+00 0.42489411E+03</pdfrwt>
<totfact> 0.98716121E+03</totfact>
</mgrwt>
</event>
<event>
 5    0  0.2396052E+000  0.5336657E+03  0.7546771E-02  0.1005347E+00
          2   -1    0    0  503    0 -0.00000000000E+00  0.00000000000E+00  0.17244039403E+04  0.17244039403E+04  0.00000000000E+00 0.  1.
         21   -1    0    0  501  502  0.00000000000E+00 -0.00000000000E+00 -0.85600808749E+02  0.85600808749E+02  0.00000000000E+00 0. -1.
         25    1    1    2    0    0  0.23979301959E+03 -0.26369439764E+02  0.18453617360E+03  0.32844274839E+03  0.12500000000E+03 0.  0.
         21    1    1    2  503  502 -0.14710023693E+03 -0.45411178480E+02  0.60681483030E+03  0.62603905078E+03  0.00000000000E+00 0.  1.
          2    1    1    2  501    0 -0.92692782659E+02  0.71780618243E+02  0.84745212767E+03  0.85552294990E+03  0.00000000000E+00 0.  1.
<mgrwt>
<rscale>  4 0.53366571E+03</rscale>
<asrwt>0</asrwt>
<pdfrwt beam="1">  1       21 0.13169357E-01 0.53366571E+03</pdfrwt>
<pdfrwt beam="2">  1        2 0.26529289E+00 0.53366571E+03</pdfrwt>
<totfact> 0.60700411E+03</totfact>
</mgrwt>
</event>
<event>
 5    0  0.2396052E+000  0.4299107E+03  0.7546771E-02  0.1033888E+00
         21   -1    0    0  501  502  0.00000000000E+00  0.00000000000E+00  0.35282111037E+03  0.35282111037E+03  0.00000000000E+00 0.  1.
         -3   -1    0    0    0  501 -0.00000000000E+00 -0.00000000000E+00 -0.32098504825E+03  0.32098504825E+03  0.00000000000E+00 0.  1.
         25    1    1    2    0    0 -0.29110370855E+03  0.81749241888E+02  0.62896747681E+02  0.33317459170E+03  0.12500000000E+03 0.  0.
         21    1    1    2  503  502  0.95828780630E+02 -0.12821634780E+02  0.60669265231E+02  0.11414161931E+03  0.00000000000E+00 0. -1.
         -3    1    1    2    0  503  0.19527492792E+03 -0.68927607108E+02 -0.91729950798E+02  0.22648994762E+03  0.00000000000E+00 0.  1.
<mgrwt>
<rscale>  4 0.42991073E+03</rscale>
<asrwt>0</asrwt>
<pdfrwt beam="1">  1       21 0.54280171E-01 0.42991073E+03</pdfrwt>
<pdfrwt beam="2">  1       -3 0.49382315E-01 0.42991073E+03</pdfrwt>
<totfact> 0.62859484E+02</totfact>
</mgrwt>
</event>
<event>
 5    0  0.2396052E+000  0.6025999E+03  0.7546771E-02  0.9900027E-01
         21   -1    0    0  501  502  0.00000000000E+00  0.00000000000E+00  0.10380228796E+04  0.10380228796E+04  0.00000000000E+00 0. -1.
          2   -1    0    0  503    0 -0.00000000000E+00 -0.00000000000E+00 -0.19902853225E+04  0.19902853225E+04  0.00000000000E+00 0.  1.
         25    1    1    2    0    0 -0.25040870962E+03 -0.25698895408E+03  0.96345994279E+03  0.10356775105E+04  0.12500000000E+03 0.  0.
         21    1    1    2  503  502  0.62175919156E+02  0.44202637877E+02 -0.24405375515E+02  0.80095820566E+02  0.00000000000E+00 0.  1.
          2    1    1    2  501    0  0.18823279047E+03  0.21278631620E+03 -0.18913170102E+04  0.19125348710E+04  0.00000000000E+00 0.  1.
<mgrwt>
<rscale>  4 0.60259991E+03</rscale>
<asrwt>0</asrwt>
<pdfrwt beam="1">  1       21 0.15969583E+00 0.60259991E+03</pdfrwt>
<pdfrwt beam="2">  1        2 0.30619774E+00 0.60259991E+03</pdfrwt>
<totfact> 0.18840436E+01</totfact>
</mgrwt>
</event>
<event>
 5    0  0.2396052E+000  0.4873961E+03  0.7546771E-02  0.1017122E+00
          2   -1    0    0  503    0 -0.00000000000E+00  0.00000000000E+00  0.35705722481E+03  0.35705722481E+03  0.00000000000E+00 0.  1.
         21   -1    0    0  501  502  0.00000000000E+00 -0.00000000000E+00 -0.68549979364E+03  0.68549979364E+03  0.00000000000E+00 0.  1.
         25    1    1    2    0    0 -0.20783854817E+03 -0.32794009655E+02 -0.26279681360E+03  0.35910927921E+03  0.12500000000E+03 0.  0.
         21    1    1    2  503  502  0.11946092395E+03  0.21061756525E+03 -0.29396975607E+03  0.38085284379E+03  0.00000000000E+00 0.  1.
          2    1    1    2  501    0  0.88377624226E+02 -0.17782355559E+03  0.22832400085E+03  0.30259489545E+03  0.00000000000E+00 0.  1.
<mgrwt>
<rscale>  4 0.48739607E+03</rscale>
<asrwt>0</asrwt>
<pdfrwt beam="1">  1       21 0.10546151E+00 0.48739607E+03</pdfrwt>
<pdfrwt beam="2">  1        2 0.54931881E-01 0.48739607E+03</pdfrwt>
<totfact> 0.73352412E+02</totfact>
</mgrwt>
</event>
<event>
 5    0  0.2396052E+000  0.5647677E+03  0.7546771E-02  0.9981324E-01
         21   -1    0    0  501  502  0.00000000000E+00  0.00000000000E+00  0.83781205984E+02  0.83781205984E+02  0.00000000000E+00 0.  1.
          2   -1    0    0  503    0 -0.00000000000E+00 -0.00000000000E+00 -0.15274501768E+04  0.15274501768E+04  0.00000000000E+00 0.  1.
         25    1    1    2    0    0  0.18498882102E+03  0.17930942961E+03 -0.31811502678E+03  0.42801274012E+03  0.12500000000E+03 0.  0.
         21    1    1    2  503  502 -0.15883914014E+03 -0.20240293537E+03 -0.55651822159E+03  0.61311446863E+03  0.00000000000E+00 0.  1.
          2    1    1    2  501    0 -0.26149680882E+02  0.23093505762E+02 -0.56903572240E+03  0.57010417398E+03  0.00000000000E+00 0.  1.
<mgrwt>
<rscale>  4 0.56476769E+03</rscale>
<asrwt>0</asrwt>
<pdfrwt beam="1">  1       21 0.12889417E-01 0.56476769E+03</pdfrwt>
<pdfrwt beam="2">  1        2 0.23499232E+00 0.56476769E+03</pdfrwt>
<totfact> 0.80445847E+03</totfact>
</mgrwt>
</event>
<event>
 5    0  0.2396052E+000  0.4215006E+03  0.7546771E-02  0.1036579E+00
         21   -1    0    0  501  502  0.00000000000E+00  0.00000000000E+00  0.62311637591E+03  0.62311637591E+03  0.00000000000E+00 0.  1.
          1   -1    0    0  503    0 -0.00000000000E+00 -0.00000000000E+00 -0.25460999431E+03  0.25460999431E+03  0.00000000000E+00 0. -1.
         25    1    1    2    0    0 -0.73026423191E+02 -0.20649174670E+03  0.45368220170E+03  0.51906092135E+03  0.12500000000E+03 0.  0.
         21    1    1    2  503  502  0.81388771684E+02 -0.46518283623E+02 -0.83477026241E+01  0.94115710732E+02  0.00000000000E+00 0. -1.
          1    1    1    2  501    0 -0.83623484929E+01  0.25301003032E+03 -0.76828117465E+02  0.26454973814E+03  0.00000000000E+00 0. -1.
<mgrwt>
<rscale>  4 0.42150061E+03</rscale>
<asrwt>0</asrwt>
<pdfrwt beam="1">  1       21 0.95864057E-01 0.42150061E+03</pdfrwt>
<pdfrwt beam="2">  1        1 0.39170769E-01 0.42150061E+03</pdfrwt>
<totfact> 0.98627893E+02</totfact>
</mgrwt>
</event>
<event>
 5    0  0.2396052E+000  0.3609585E+03  0.7546771E-02  0.1058205E+00
         21   -1    0    0  501  502  0.00000000000E+00  0.00000000000E+00  0.11700960134E+04  0.11700960134E+04  0.00000000000E+00 0. -1.
          1   -1    0    0  503    0 -0.00000000000E+00 -0.00000000000E+00 -0.97470109479E+02  0.97470109479E+02  0.00000000000E+00 0.  1.
         25    1    1    2    0    0 -0.18879623785E+03 -0.79726868397E+02  0.94170562361E+03  0.97182039210E+03  0.12500000000E+03 0.  0.
         21    1    1    2  503  502  0.79385381046E+02 -0.32791255885E+02  0.10665176580E+03  0.13693759284E+03  0.00000000000E+00 0.  1.
          1    1    1    2  501    0  0.10941085680E+03  0.11251812428E+03  0.24268514522E+02  0.15880813794E+03  0.00000000000E+00 0.  1.
<mgrwt>
<rscale>  4 0.36095852E+03</rscale>
<asrwt>0</asrwt>
<pdfrwt beam="1">  1       21 0.18001476E+00 0.36095852E+03</pdfrwt>
<pdfrwt beam="2">  1        1 0.14995402E-01 0.36095852E+03</pdfrwt>
<totfact> 0.67151848E+02</totfact>
</mgrwt>
</event>
<event>
 5    0  0.2396052E+000  0.4076043E+03  0.7546771E-02  0.1041178E+00
          2   -1    0    0  503    0 -0.00000000000E+00  0.00000000000E+00  0.11912301080E+04  0.11912301080E+04  0.00000000000E+00 0.  1.
         21   -1    0    0  501  502  0.00000000000E+00 -0.00000000000E+00 -0.14125240840E+03  0.14125240840E+03  0.00000000000E+00 0. -1.
         25    1    1    2    0    0 -0.13240017760E+03  0.22927953673E+03  0.68383917944E+02  0.30066638194E+03  0.12500000000E+03 0.  0.
         21    1    1    2  503  502 -0.16006636979E+02 -0.81591920719E+02  0.12588594321E+03  0.15086657897E+03  0.00000000000E+00 0.  1.
          2    1    1    2  501    0  0.14840681458E+03 -0.14768761602E+03  0.85570783849E+03  0.88094955553E+03  0.00000000000E+00 0.  1.
<mgrwt>
<rscale>  4 0.40760426E+03</rscale>
<asrwt>0</asrwt>
<pdfrwt beam="1">  1       21 0.21731141E-01 0.40760426E+03</pdfrwt>
<pdfrwt beam="2">  1        2 0.18326616E+00 0.40760426E+03</pdfrwt>
<totfact> 0.47923338E+03</totfact>
</mgrwt>
</event>
<event>
 5    0  0.2396052E+000  0.3312373E+03  0.7546771E-02  0.1070591E+00
          1   -1    0    0  503    0 -0.00000000000E+00  0.00000000000E+00  0.14955221875E+04  0.14955221875E+04  0.00000000000E+00 0.  1.
         21   -1    0    0  501  502  0.00000000000E+00 -0.00000000000E+00 -0.53318661622E+02  0.53318661622E+02  0.00000000000E+00 0. -1.
         25    1    1    2    0    0  0.14350114118E+03  0.14977127988E+03  0.42976153211E+03  0.49329908603E+03  0.12500000000E+03 0.  0.
         21    1    1    2  503  502  0.24274891675E+02 -0.85592872582E+02  0.14840945191E+03  0.17303403023E+03  0.00000000000E+00 0.  1.
          1    1    1    2  501    0 -0.16777603285E+03 -0.64178407300E+02  0.86403254185E+03  0.88250773285E+03  0.00000000000E+00 0.  1.
<mgrwt>
<rscale>  4 0.33123728E+03</rscale>
<asrwt>0</asrwt>
<pdfrwt beam="1">  1       21 0.82028721E-02 0.33123728E+03</pdfrwt>
<pdfrwt beam="2">  1        1 0.23008031E+00 0.33123728E+03</pdfrwt>
<totfact> 0.90423914E+03</totfact>
</mgrwt>
</event>
<event>
 5    0  0.2396052E+000  0.4342798E+03  0.7546771E-02  0.1032516E+00
         21   -1    0    0  501  502  0.00000000000E+00  0.00000000000E+00  0.47768158460E+02  0.47768158460E+02  0.00000000000E+00 0. -1.
          2   -1    0    0  503    0 -0.00000000000E+00 -0.00000000000E+00 -0.17489203919E+04  0.17489203919E+04  0.00000000000E+00 0.  1.
         25    1    1    2    0    0  0.27523553344E+02 -0.20639292536E+03 -0.57196586953E+03  0.62139000760E+03  0.12500000000E+03 0.  0.
         21    1    1    2  503  502 -0.33307926185E+02  0.18691900437E+03 -0.37027215553E+03  0.41611248636E+03  0.00000000000E+00 0. -1.
          2    1    1    2  501    0  0.57843728409E+01  0.19473920994E+02 -0.75891420840E+03  0.75918605643E+03  0.00000000000E+00 0.  1.
<mgrwt>
<rscale>  4 0.43427978E+03</rscale>
<asrwt>0</asrwt>
<pdfrwt beam="1">  1       21 0.73489474E-02 0.43427978E+03</pdfrwt>
<pdfrwt beam="2">  1        2 0.26906468E+00 0.43427978E+03</pdfrwt>
<totfact> 0.17106656E+04</totfact>
</mgrwt>
</event>
<event>
 5    0  0.2396052E+000  0.4630979E+03  0.7546771E-02  0.1023887E+00
          1   -1    0    0  503    0 -0.00000000000E+00  0.00000000000E+00  0.67422802888E+03  0.67422802888E+03  0.00000000000E+00 0.  1.
         21   -1    0    0  501  502  0.00000000000E+00 -0.00000000000E+00 -0.17505375523E+03  0.17505375523E+03  0.00000000000E+00 0.  1.
         25    1    1    2    0    0 -0.37421553446E+02 -0.20174356671E+03  0.21943597774E+03  0.32538897907E+03  0.12500000000E+03 0.  0.
         21    1    1    2  503  502  0.51414029692E+02  0.12885258985E+03 -0.77578249889E+02  0.15894897677E+03  0.00000000000E+00 0.  1.
          1    1    1    2  501    0 -0.13992476246E+02  0.72890976863E+02  0.35731654580E+03  0.36494382828E+03  0.00000000000E+00 0.  1.
<mgrwt>
<rscale>  4 0.46309787E+03</rscale>
<asrwt>0</asrwt>
<pdfrwt beam="1">  1       21 0.26931347E-01 0.46309787E+03</pdfrwt>
<pdfrwt beam="2">  1        1 0.10372739E+00 0.46309787E+03</pdfrwt>
<totfact> 0.40835173E+03</totfact>
</mgrwt>
</event>
<event>
 5    0  0.2396052E+000  0.8248484E+03  0.7546771E-02  0.9524731E-01
         21   -1    0    0  501  502  0.00000000000E+00  0.00000000000E+00  0.11863452316E+04  0.11863452316E+04  0.00000000000E+00 0. -1.
         -2   -1    0    0    0  501 -0.00000000000E+00 -0.00000000000E+00 -0.25714051157E+03  0.25714051157E+03  0.00000000000E+00 0. -1.
         25    1    1    2    0    0  0.24235438466E+03 -0.28064286109E+03  0.33187912738E+03  0.51309338179E+03  0.12500000000E+03 0.  0.
         21    1    1    2  503  502 -0.24309005681E+03  0.32045437014E+03  0.70716874531E+03  0.81355480049E+03  0.00000000000E+00 0. -1.
         -2    1    1    2    0  503  0.73567214939E+00 -0.39811509046E+02 -0.10984315262E+03  0.11683756093E+03  0.00000000000E+00 0. -1.
<mgrwt>
<rscale>  4 0.82484842E+03</rscale>
<asrwt>0</asrwt>
<pdfrwt beam="1">  1       21 0.18251465E+00 0.82484842E+03</pdfrwt>
<pdfrwt beam="2">  1       -2 0.39560079E-01 0.82484842E+03</pdfrwt>
<totfact> 0.68804448E+01</totfact>
</mgrwt>
</event>
<event>
 5    0  0.2396052E+000  0.3724794E+03  0.7546771E-02  0.1053749E+00
          4   -1    0    0  503    0 -0.00000000000E+00  0.00000000000E+00  0.68298538219E+02  0.68298538219E+02  0.00000000000E+00 0.  1.
         21   -1    0    0  501  502  0.00000000000E+00 -0.00000000000E+00 -0.11045012348E+04  0.11045012348E+04  0.00000000000E+00 0.  1.
         25    1    1    2    0    0  0.17435056648E+03  0.15007401408E+03 -0.68461119596E+03  0.73296508741E+03  0.12500000000E+03 0.  0.
         21    1    1    2  503  502 -0.98648720445E+02 -0.49615881910E+02 -0.26510568235E+03  0.28718344067E+03  0.00000000000E+00 0. -1.
          4    1    1    2  501    0 -0.75701846039E+02 -0.10045813217E+03 -0.86485818241E+02  0.15265124490E+03  0.00000000000E+00 0.  1.
<mgrwt>
<rscale>  4 0.37247936E+03</rscale>
<asrwt>0</asrwt>
<pdfrwt beam="1">  1       21 0.16992327E+00 0.37247936E+03</pdfrwt>
<pdfrwt beam="2">  1        4 0.10507467E-01 0.37247936E+03</pdfrwt>
<totfact> 0.60702298E+02</totfact>
</mgrwt>
</event>
<event>
 5    0  0.2396052E+000  0.4938532E+03  0.7546771E-02  0.1015396E+00
         21   -1    0    0  501  502  0.00000000000E+00  0.00000000000E+00  0.13940844953E+03  0.13940844953E+03  0.00000000000E+00 0. -1.
          1   -1    0    0  503    0 -0.00000000000E+00 -0.00000000000E+00 -0.69807807335E+03  0.69807807335E+03  0.00000000000E+00 0.  1.
         25    1    1    2    0    0  0.15434684405E+03  0.15264573636E+03 -0.43168781304E+02  0.25418932467E+03  0.12500000000E+03 0.  0.
         21    1    1    2  503  502 -0.15666859856E+03 -0.42311916949E+02 -0.32008223997E+03  0.35887043404E+03  0.00000000000E+00 0.  1.
          1    1    1    2  501    0  0.23217545066E+01 -0.11033381941E+03 -0.19541860255E+03  0.22442676416E+03  0.00000000000E+00 0.  1.
<mgrwt>
<rscale>  4 0.49385318E+03</rscale>
<asrwt>0</asrwt>
<pdfrwt beam="1">  1       21 0.21447454E-01 0.49385318E+03</pdfrwt>
<pdfrwt beam="2">  1        1 0.10739663E+00 0.49385318E+03</pdfrwt>
<totfact> 0.60064120E+03</totfact>
</mgrwt>
</event>
<event>
 5    0  0.2396052E+000  0.5899378E+03  0.7546771E-02  0.9926505E-01
         21   -1    0    0  501  502  0.00000000000E+00  0.00000000000E+00  0.76139479374E+02  0.76139479374E+02  0.00000000000E+00 0. -1.
          1   -1    0    0  503    0 -0.00000000000E+00 -0.00000000000E+00 -0.21404175207E+04  0.21404175207E+04  0.00000000000E+00 0. -1.
         25    1    1    2    0    0 -0.25499268820E+03  0.53977464495E+02 -0.89482309227E+03  0.94035536058E+03  0.12500000000E+03 0.  0.
         21    1    1    2  503  502  0.21257259636E+03 -0.62989872227E+02 -0.17940786947E+03  0.28520521796E+03  0.00000000000E+00 0. -1.
          1    1    1    2  501    0  0.42420091839E+02  0.90124077320E+01 -0.99004707955E+03  0.99099642150E+03  0.00000000000E+00 0. -1.
<mgrwt>
<rscale>  4 0.58993777E+03</rscale>
<asrwt>0</asrwt>
<pdfrwt beam="1">  1       21 0.11713767E-01 0.58993777E+03</pdfrwt>
<pdfrwt beam="2">  1        1 0.32929497E+00 0.58993777E+03</pdfrwt>
<totfact> 0.16889476E+03</totfact>
</mgrwt>
</event>
<event>
 5    0  0.2396052E+000  0.6892369E+03  0.7546771E-02  0.9735818E-01
         21   -1    0    0  501  502  0.00000000000E+00  0.00000000000E+00  0.22849311328E+03  0.22849311328E+03  0.00000000000E+00 0. -1.
          2   -1    0    0  503    0 -0.00000000000E+00 -0.00000000000E+00 -0.13547323158E+04  0.13547323158E+04  0.00000000000E+00 0. -1.
         25    1    1    2    0    0  0.49095722891E+01 -0.26638375357E+03 -0.33719846617E+03  0.44756252486E+03  0.12500000000E+03 0.  0.
         21    1    1    2  503  502  0.22418977460E+03  0.23525896485E+03 -0.12260797415E+02  0.32520480121E+03  0.00000000000E+00 0. -1.
          2    1    1    2  501    0 -0.22909934689E+03  0.31124788720E+02 -0.77677993895E+03  0.81045810303E+03  0.00000000000E+00 0. -1.
<mgrwt>
<rscale>  4 0.68923694E+03</rscale>
<asrwt>0</asrwt>
<pdfrwt beam="1">  1       21 0.35152786E-01 0.68923694E+03</pdfrwt>
<pdfrwt beam="2">  1        2 0.20842036E+00 0.68923694E+03</pdfrwt>
<totfact> 0.14187268E+03</totfact>
</mgrwt>
</event>
<event>
 5    0  0.2396052E+000  0.4660535E+03  0.7546771E-02  0.1023040E+00
         -2   -1    0    0    0  501 -0.00000000000E+00  0.00000000000E+00  0.11010432184E+04  0.11010432184E+04  0.00000000000E+00 0.  1.
         21   -1    0    0  501  502  0.00000000000E+00 -0.00000000000E+00 -0.13450356647E+03  0.13450356647E+03  0.00000000000E+00 0.  1.
         25    1    1    2    0    0  0.16707270402E+03 -0.14119679277E+03  0.91487420394E+02  0.26803874871E+03  0.12500000000E+03 0.  0.
         21    1    1    2  503  502 -0.14427817723E+03  0.14328734823E+03  0.17847977164E+03  0.27055957842E+03  0.00000000000E+00 0.  1.
         -2    1    1    2    0  503 -0.22794526793E+02 -0.20905554633E+01  0.69657245988E+03  0.69694845773E+03  0.00000000000E+00 0.  1.
<mgrwt>
<rscale>  4 0.46605351E+03</rscale>
<asrwt>0</asrwt>
<pdfrwt beam="1">  1       21 0.20692857E-01 0.46605351E+03</pdfrwt>
<pdfrwt beam="2">  1       -2 0.16939126E+00 0.46605351E+03</pdfrwt>
<totfact> 0.38451177E+02</totfact>
</mgrwt>
</event>
<event>
 5    0  0.2396052E+000  0.4753581E+03  0.7546771E-02  0.1020419E+00
          2   -1    0    0  503    0 -0.00000000000E+00  0.00000000000E+00  0.13416154434E+04  0.13416154434E+04  0.00000000000E+00 0. -1.
         21   -1    0    0  501  502  0.00000000000E+00 -0.00000000000E+00 -0.16355864778E+03  0.16355864778E+03  0.00000000000E+00 0. -1.
         25    1    1    2    0    0  0.28978730603E+03 -0.16742000791E+03  0.28672129398E+03  0.45808322629E+03  0.12500000000E+03 0.  0.
         21    1    1    2  503  502  0.25095434551E+02 -0.11422109381E+03  0.11949431358E+03  0.16719787703E+03  0.00000000000E+00 0. -1.
          2    1    1    2  501    0 -0.31488274058E+03  0.28164110172E+03  0.77184118810E+03  0.87989298790E+03  0.00000000000E+00 0. -1.
<mgrwt>
<rscale>  4 0.47535812E+03</rscale>
<asrwt>0</asrwt>
<pdfrwt beam="1">  1       21 0.25162870E-01 0.47535812E+03</pdfrwt>
<pdfrwt beam="2">  1        2 0.20640237E+00 0.47535812E+03</pdfrwt>
<totfact> 0.29218884E+03</totfact>
</mgrwt>
</event>
<event>
 5    0  0.2396052E+000  0.5469770E+03  0.7546771E-02  0.1002196E+00
         21   -1    0    0  501  502  0.00000000000E+00  0.00000000000E+00  0.63763061583E+03  0.63763061583E+03  0.00000000000E+00 0. -1.
          1   -1    0    0  503    0 -0.00000000000E+00 -0.00000000000E+00 -0.20853902312E+03  0.20853902312E+03  0.00000000000E+00 0. -1.
         25    1    1    2    0    0 -0.24899818522E+03  0.61291221057E+02  0.16684281120E+03  0.33048182048E+03  0.12500000000E+03 0.  0.
         21    1    1    2  503  502  0.23192646522E+03 -0.41151769430E+02  0.35121362241E+03  0.42288811991E+03  0.00000000000E+00 0.  1.
          1    1    1    2  501    0  0.17071719999E+02 -0.20139451627E+02 -0.88964840893E+02  0.92799698548E+02  0.00000000000E+00 0. -1.
<mgrwt>
<rscale>  4 0.54697696E+03</rscale>
<asrwt>0</asrwt>
<pdfrwt beam="1">  1       21 0.98097017E-01 0.54697696E+03</pdfrwt>
<pdfrwt beam="2">  1        1 0.32082927E-01 0.54697696E+03</pdfrwt>
<totfact> 0.11753555E+03</totfact>
</mgrwt>
</event>
<event>
 5    0  0.2396052E+000  0.4889869E+03  0.7546771E-02  0.1016694E+00
         21   -1    0    0  501  502  0.00000000000E+00  0.00000000000E+00  0.49757308910E+03  0.49757308910E+03  0.00000000000E+00 0. -1.
          1   -1    0    0  503    0 -0.00000000000E+00 -0.00000000000E+00 -0.20793358081E+04  0.20793358081E+04  0.00000000000E+00 0.  1.
         25    1    1    2    0    0  0.62930465778E+02  0.21404446976E+03  0.72990113625E+02  0.26594705347E+03  0.12500000000E+03 0.  0.
         21    1    1    2  503  502  0.15780220201E+03 -0.89173197540E+02  0.29421354579E+03  0.34556476186E+03  0.00000000000E+00 0. -1.
          1    1    1    2  501    0 -0.22073266778E+03 -0.12487127222E+03 -0.19489663784E+04  0.19653970819E+04  0.00000000000E+00 0.  1.
<mgrwt>
<rscale>  4 0.48898688E+03</rscale>
<asrwt>0</asrwt>
<pdfrwt beam="1">  1       21 0.76549707E-01 0.48898688E+03</pdfrwt>
<pdfrwt beam="2">  1        1 0.31989781E+00 0.48898688E+03</pdfrwt>
<totfact> 0.43357399E+01</totfact>
</mgrwt>
</event>
<event>
 5    0  0.2396052E+000  0.3485413E+03  0.7546771E-02  0.1063215E+00
         21   -1    0    0  501  502  0.00000000000E+00  0.00000000000E+00  0.73183387013E+03  0.73183387013E+03  0.00000000000E+00 0. -1.
          2   -1    0    0  503    0 -0.00000000000E+00 -0.00000000000E+00 -0.43614976506E+03  0.43614976506E+03  0.00000000000E+00 0. -1.
         25    1    1    2    0    0  0.14090347955E+03  0.22896143416E+03  0.49483351100E+03  0.57685555600E+03  0.12500000000E+03 0.  0.
         21    1    1    2  503  502 -0.30083020088E+02 -0.26770099181E+02  0.15963944809E+03  0.16464015213E+03  0.00000000000E+00 0.  1.
          2    1    1    2  501    0 -0.11082045946E+03 -0.20219133498E+03 -0.35878885401E+03  0.42648792707E+03  0.00000000000E+00 0. -1.
<mgrwt>
<rscale>  4 0.34854129E+03</rscale>
<asrwt>0</asrwt>
<pdfrwt beam="1">  1       21 0.11258983E+00 0.34854129E+03</pdfrwt>
<pdfrwt beam="2">  1        2 0.67099964E-01 0.34854129E+03</pdfrwt>
<totfact> 0.51973024E+02</totfact>
</mgrwt>
</event>
<event>
 5    0  0.2396052E+000  0.7550406E+03  0.7546771E-02  0.9627475E-01
         21   -1    0    0  501  502  0.00000000000E+00  0.00000000000E+00  0.55340318914E+03  0.55340318914E+03  0.00000000000E+00 0.  1.
          2   -1    0    0  503    0 -0.00000000000E+00 -0.00000000000E+00 -0.31122157225E+03  0.31122157225E+03  0.00000000000E+00 0.  1.
         25    1    1    2    0    0 -0.26677036772E+03 -0.22447943221E+03  0.21119147420E+03  0.42636168139E+03  0.12500000000E+03 0.  0.
         21    1    1    2  503  502  0.26673022094E+03  0.26157868079E+03  0.74645646407E+02  0.38097295118E+03  0.00000000000E+00 0.  1.
          2    1    1    2  501    0  0.40146779436E-01 -0.37099248573E+02 -0.43655503716E+02  0.57290128828E+02  0.00000000000E+00 0.  1.
<mgrwt>
<rscale>  4 0.75504063E+03</rscale>
<asrwt>0</asrwt>
<pdfrwt beam="1">  1       21 0.85138952E-01 0.75504063E+03</pdfrwt>
<pdfrwt beam="2">  1        2 0.47880242E-01 0.75504063E+03</pdfrwt>
<totfact> 0.13721895E+03</totfact>
</mgrwt>
</event>
<event>
 5    0  0.2396052E+000  0.1185498E+04  0.7546771E-02  0.9125646E-01
         21   -1    0    0  501  502  0.00000000000E+00  0.00000000000E+00  0.17674581220E+03  0.17674581220E+03  0.00000000000E+00 0.  1.
          2   -1    0    0  503    0 -0.00000000000E+00 -0.00000000000E+00 -0.27013178609E+04  0.27013178609E+04  0.00000000000E+00 0.  1.
         25    1    1    2    0    0  0.23169770302E+03  0.27713590620E+03 -0.18130434321E+04  0.18529003273E+04  0.12500000000E+03 0.  0.
         21    1    1    2  503  502 -0.19719202977E+03 -0.25029046648E+03 -0.64217632547E+01  0.31870245255E+03  0.00000000000E+00 0.  1.
          2    1    1    2  501    0 -0.34505673256E+02 -0.26845439721E+02 -0.70510685325E+03  0.70646089320E+03  0.00000000000E+00 0.  1.
<mgrwt>
<rscale>  4 0.11854978E+04</rscale>
<asrwt>0</asrwt>
<pdfrwt beam="1">  1       21 0.27191662E-01 0.11854978E+04</pdfrwt>
<pdfrwt beam="2">  1        2 0.41558738E+00 0.11854978E+04</pdfrwt>
<totfact> 0.39238063E+02</totfact>
</mgrwt>
</event>
<event>
 5    0  0.2396052E+000  0.4035578E+03  0.7546771E-02  0.1042555E+00
          2   -1    0    0  503    0 -0.00000000000E+00  0.00000000000E+00  0.72775695950E+03  0.72775695950E+03  0.00000000000E+00 0. -1.
         21   -1    0    0  501  502  0.00000000000E+00 -0.00000000000E+00 -0.12756676705E+03  0.12756676705E+03  0.00000000000E+00 0. -1.
         25    1    1    2    0    0 -0.22757669096E+03  0.84405037260E+02  0.30153835257E+03  0.40677480091E+03  0.12500000000E+03 0.  0.
         21    1    1    2  503  502  0.26660083536E+02 -0.11908404956E+03  0.64357742718E+02  0.13796263973E+03  0.00000000000E+00 0.  1.
          2    1    1    2  501    0  0.20091660742E+03  0.34679012302E+02  0.23429409715E+03  0.31058628591E+03  0.00000000000E+00 0. -1.
<mgrwt>
<rscale>  4 0.40355784E+03</rscale>
<asrwt>0</asrwt>
<pdfrwt beam="1">  1       21 0.19625657E-01 0.40355784E+03</pdfrwt>
<pdfrwt beam="2">  1        2 0.11196261E+00 0.40355784E+03</pdfrwt>
<totfact> 0.11602600E+04</totfact>
</mgrwt>
</event>
<event>
 5    0  0.2396052E+000  0.4078505E+03  0.7546771E-02  0.1041095E+00
          2   -1    0    0  503    0 -0.00000000000E+00  0.00000000000E+00  0.16792707986E+04  0.16792707986E+04  0.00000000000E+00 0. -1.
         21   -1    0    0  501  502  0.00000000000E+00 -0.00000000000E+00 -0.61970321861E+02  0.61970321861E+02  0.00000000000E+00 0. -1.
         25    1    1    2    0    0  0.21082663189E+03  0.15639677379E+03  0.43980327828E+03  0.52721887595E+03  0.12500000000E+03 0.  0.
         21    1    1    2  503  502 -0.59055272751E+02 -0.92886148170E+02  0.26730571259E+03  0.28908079449E+03  0.00000000000E+00 0. -1.
          2    1    1    2  501    0 -0.15177135914E+03 -0.63510625625E+02  0.91019148588E+03  0.92494145004E+03  0.00000000000E+00 0. -1.
<mgrwt>
<rscale>  4 0.40785050E+03</rscale>
<asrwt>0</asrwt>
<pdfrwt beam="1">  1       21 0.95338970E-02 0.40785050E+03</pdfrwt>
<pdfrwt beam="2">  1        2 0.25834932E+00 0.40785050E+03</pdfrwt>
<totfact> 0.11797107E+04</totfact>
</mgrwt>
</event>
<event>
 5    0  0.2396052E+000  0.3650846E+03  0.7546771E-02  0.1056589E+00
          1   -1    0    0  503    0 -0.00000000000E+00  0.00000000000E+00  0.12111237001E+04  0.12111237001E+04  0.00000000000E+00 0. -1.
         21   -1    0    0  501  502  0.00000000000E+00 -0.00000000000E+00 -0.30206025868E+03  0.30206025868E+03  0.00000000000E+00 0.  1.
         25    1    1    2    0    0  0.12308834822E+03 -0.16629248686E+03 -0.21986552549E+03  0.32675645663E+03  0.12500000000E+03 0.  0.
         21    1    1    2  503  502 -0.60613174318E+02  0.45396906373E+02  0.33891619435E+02  0.82966727530E+02  0.00000000000E+00 0. -1.
          1    1    1    2  501    0 -0.62475173902E+02  0.12089558049E+03  0.10950373475E+04  0.11034607746E+04  0.00000000000E+00 0. -1.
<mgrwt>
<rscale>  4 0.36508464E+03</rscale>
<asrwt>0</asrwt>
<pdfrwt beam="1">  1       21 0.46470810E-01 0.36508464E+03</pdfrwt>
<pdfrwt beam="2">  1        1 0.18632672E+00 0.36508464E+03</pdfrwt>
<totfact> 0.51799049E+02</totfact>
</mgrwt>
</event>
<event>
 5    0  0.2396052E+000  0.3515773E+03  0.7546771E-02  0.1061969E+00
         -3   -1    0    0    0  501 -0.00000000000E+00  0.00000000000E+00  0.37980924515E+03  0.37980924515E+03  0.00000000000E+00 0.  1.
         21   -1    0    0  501  502  0.00000000000E+00 -0.00000000000E+00 -0.91754409581E+03  0.91754409581E+03  0.00000000000E+00 0. -1.
         25    1    1    2    0    0  0.16377089615E+03 -0.14239391492E+03 -0.78220096909E+03  0.82131619336E+03  0.12500000000E+03 0.  0.
         21    1    1    2  503  502 -0.32025143838E+02 -0.60018274379E+02 -0.57708158102E+02  0.89207816972E+02  0.00000000000E+00 0.  1.
         -3    1    1    2    0  503 -0.13174575232E+03  0.20241218930E+03  0.30217427654E+03  0.38682933063E+03  0.00000000000E+00 0.  1.
<mgrwt>
<rscale>  4 0.35157735E+03</rscale>
<asrwt>0</asrwt>
<pdfrwt beam="1">  1       21 0.14116063E+00 0.35157735E+03</pdfrwt>
<pdfrwt beam="2">  1       -3 0.58432192E-01 0.35157735E+03</pdfrwt>
<totfact> 0.47140752E+01</totfact>
</mgrwt>
</event>
<event>
 5    0  0.2396052E+000  0.5047142E+03  0.7546771E-02  0.1012556E+00
         21   -1    0    0  501  502  0.00000000000E+00  0.00000000000E+00  0.11468076550E+03  0.11468076550E+03  0.00000000000E+00 0. -1.
         -1   -1    0    0    0  501 -0.00000000000E+00 -0.00000000000E+00 -0.68907705582E+03  0.68907705582E+03  0.00000000000E+00 0.  1.
         25    1    1    2    0    0  0.23451671302E+03  0.31158823732E+02 -0.24591546439E+03  0.36341213052E+03  0.12500000000E+03 0.  0.
         21    1    1    2  503  502 -0.23583203161E+03  0.21923871020E+02 -0.24024555175E+03  0.33736527442E+03  0.00000000000E+00 0.  1.
         -1    1    1    2    0  503  0.13153185840E+01 -0.53082694752E+02 -0.88235274191E+02  0.10298041637E+03  0.00000000000E+00 0.  1.
<mgrwt>
<rscale>  4 0.50471421E+03</rscale>
<asrwt>0</asrwt>
<pdfrwt beam="1">  1       21 0.17643194E-01 0.50471421E+03</pdfrwt>
<pdfrwt beam="2">  1       -1 0.10601186E+00 0.50471421E+03</pdfrwt>
<totfact> 0.22783691E+03</totfact>
</mgrwt>
</event>
<event>
 5    0  0.2396052E+000  0.5816259E+03  0.7546771E-02  0.9944277E-01
          1   -1    0    0  503    0 -0.00000000000E+00  0.00000000000E+00  0.81289855203E+03  0.81289855203E+03  0.00000000000E+00 0. -1.
         21   -1    0    0  501  502  0.00000000000E+00 -0.00000000000E+00 -0.24014664336E+03  0.24014664336E+03  0.00000000000E+00 0. -1.
         25    1    1    2    0    0 -0.23247115245E+03 -0.25845030276E+02  0.99845016449E+02  0.28338106786E+03  0.12500000000E+03 0.  0.
         21    1    1    2  503  502  0.30947391682E+03 -0.22594590479E+02  0.23548702610E+02  0.31118991325E+03  0.00000000000E+00 0. -1.
          1    1    1    2  501    0 -0.77002764369E+02  0.48439620755E+02  0.44935818962E+03  0.45847421428E+03  0.00000000000E+00 0. -1.
<mgrwt>
<rscale>  4 0.58162586E+03</rscale>
<asrwt>0</asrwt>
<pdfrwt beam="1">  1       21 0.36945638E-01 0.58162586E+03</pdfrwt>
<pdfrwt beam="2">  1        1 0.12506131E+00 0.58162586E+03</pdfrwt>
<totfact> 0.15965151E+03</totfact>
</mgrwt>
</event>
