<event>
 5    0  0.2159162E+000  0.2750640E+03  0.7546771E-02  0.1098416E+00
         21   -1    0    0  502  501  0.00000000000E+00  0.00000000000E+00  0.10653541960E+03  0.10653541960E+03  0.00000000000E+00 0.  1.
         21   -1    0    0  503  502 -0.00000000000E+00 -0.00000000000E+00 -0.12184288155E+04  0.12184288155E+04  0.00000000000E+00 0.  1.
         25    1    1    2    0    0 -0.16536116724E+03 -0.18080619705E+03 -0.11680764738E+03  0.29883812175E+03  0.12500000000E+03 0.  0.
         21    1    1    2  503  504  0.53810027665E+02  0.66941818854E+02 -0.25522845091E+03  0.26929219882E+03  0.00000000000E+00 0.  1.
         21    1    1    2  504  501  0.11155113957E+03  0.11386437820E+03 -0.73985729758E+03  0.75683391451E+03  0.00000000000E+00 0.  1.
<mgrwt>
<rscale>  4 0.27506399E+03</rscale>
<asrwt>0</asrwt>
<pdfrwt beam="1">  1       21 0.16390065E-01 0.27506399E+03</pdfrwt>
<pdfrwt beam="2">  1       21 0.18745059E+00 0.27506399E+03</pdfrwt>
<totfact> 0.50788411E+03</totfact>
</mgrwt>
</event>
<event>
 5    0  0.2514240E+000  0.2830606E+03  0.7546771E-02  0.1094029E+00
         21   -1    0    0  502  501  0.00000000000E+00  0.00000000000E+00  0.73013226932E+02  0.73013226932E+02  0.00000000000E+00 0. -1.
         21   -1    0    0  503  502 -0.00000000000E+00 -0.00000000000E+00 -0.16383018001E+04  0.16383018001E+04  0.00000000000E+00 0. -1.
         25    1    1    2    0    0  0.90079842170E+02 -0.23745298161E+03 -0.27885338080E+03  0.39734431470E+03  0.12500000000E+03 0.  0.
         21    1    1    2  503  504 -0.57508956167E+02  0.22468990338E+03 -0.10839180083E+04  0.11084543660E+04  0.00000000000E+00 0. -1.
         21    1    1    2  504  501 -0.32570886004E+02  0.12763078227E+02 -0.20251718409E+03  0.20551634639E+03  0.00000000000E+00 0. -1.
<mgrwt>
<rscale>  4 0.28306059E+03</rscale>
<asrwt>0</asrwt>
<pdfrwt beam="1">  1       21 0.11232805E-01 0.28306059E+03</pdfrwt>
<pdfrwt beam="2">  1       21 0.25204641E+00 0.28306059E+03</pdfrwt>
<totfact> 0.39412694E+03</totfact>
</mgrwt>
</event>
<event>
 5    0  0.2365941E+000  0.2857803E+03  0.7546771E-02  0.1092573E+00
         21   -1    0    0  502  501  0.00000000000E+00  0.00000000000E+00  0.10654679586E+04  0.10654679586E+04  0.00000000000E+00 0.  1.
         21   -1    0    0  503  502 -0.00000000000E+00 -0.00000000000E+00 -0.73002511720E+02  0.73002511720E+02  0.00000000000E+00 0.  1.
         25    1    1    2    0    0  0.22020502106E+03  0.13249571714E+03  0.40152202710E+03  0.49283902504E+03  0.12500000000E+03 0.  0.
         21    1    1    2  503  504 -0.23088065825E+02 -0.26549909769E+02  0.10231011726E+03  0.10819111140E+03  0.00000000000E+00 0.  1.
         21    1    1    2  504  501 -0.19711695523E+03 -0.10594580737E+03  0.48863330248E+03  0.53744033384E+03  0.00000000000E+00 0.  1.
<mgrwt>
<rscale>  4 0.28578028E+03</rscale>
<asrwt>0</asrwt>
<pdfrwt beam="1">  1       21 0.16391814E+00 0.28578028E+03</pdfrwt>
<pdfrwt beam="2">  1       21 0.11231156E-01 0.28578028E+03</pdfrwt>
<totfact> 0.14702162E+04</totfact>
</mgrwt>
</event>
<event>
 5    0  0.2574549E+000  0.3301748E+03  0.7546771E-02  0.1071060E+00
         21   -1    0    0  502  501  0.00000000000E+00  0.00000000000E+00  0.40927813290E+03  0.40927813290E+03  0.00000000000E+00 0. -1.
         21   -1    0    0  503  502 -0.00000000000E+00 -0.00000000000E+00 -0.30704816377E+03  0.30704816377E+03  0.00000000000E+00 0. -1.
         25    1    1    2    0    0 -0.72244390051E+02  0.29693632161E+03  0.19511242968E+03  0.38351569876E+03  0.12500000000E+03 0.  0.
         21    1    1    2  503  504  0.21693375217E+02 -0.23258333671E+03 -0.44653623278E+02  0.23782253282E+03  0.00000000000E+00 0. -1.
         21    1    1    2  504  501  0.50551014834E+02 -0.64352984898E+02 -0.48228837263E+02  0.94988065091E+02  0.00000000000E+00 0. -1.
<mgrwt>
<rscale>  4 0.33017485E+03</rscale>
<asrwt>0</asrwt>
<pdfrwt beam="1">  1       21 0.62965867E-01 0.33017485E+03</pdfrwt>
<pdfrwt beam="2">  1       21 0.47238179E-01 0.33017485E+03</pdfrwt>
<totfact> 0.92968230E+03</totfact>
</mgrwt>
</event>
<event>
 5    0  0.2159162E+000  0.2374855E+03  0.7546771E-02  0.1121479E+00
         21   -1    0    0  502  501  0.00000000000E+00  0.00000000000E+00  0.28949089883E+03  0.28949089883E+03  0.00000000000E+00 0.  1.
         21   -1    0    0  503  502 -0.00000000000E+00 -0.00000000000E+00 -0.19732611879E+03  0.19732611879E+03  0.00000000000E+00 0.  1.
         25    1    1    2    0    0  0.20161730198E+03 -0.11171564720E+02  0.12282883668E+03  0.26736915199E+03  0.12500000000E+03 0.  0.
         21    1    1    2  503  504 -0.80868557563E+02  0.17062908736E+02 -0.50621005018E+02  0.96919309768E+02  0.00000000000E+00 0.  1.
         21    1    1    2  504  501 -0.12074874441E+03 -0.58913440157E+01  0.19956948374E+02  0.12252855586E+03  0.00000000000E+00 0.  1.
<mgrwt>
<rscale>  4 0.23748545E+03</rscale>
<asrwt>0</asrwt>
<pdfrwt beam="1">  1       21 0.44537061E-01 0.23748545E+03</pdfrwt>
<pdfrwt beam="2">  1       21 0.30357864E-01 0.23748545E+03</pdfrwt>
<totfact> 0.49376327E+04</totfact>
</mgrwt>
</event>
<event>
 5    0  0.2159162E+000  0.2595559E+03  0.7546771E-02  0.1107410E+00
         21   -1    0    0  502  501  0.00000000000E+00  0.00000000000E+00  0.61746422262E+03  0.61746422262E+03  0.00000000000E+00 0. -1.
         21   -1    0    0  503  502 -0.00000000000E+00 -0.00000000000E+00 -0.32082458556E+03  0.32082458556E+03  0.00000000000E+00 0. -1.
         25    1    1    2    0    0  0.22743805802E+03 -0.40216233722E+01  0.53649777928E+03  0.59598583110E+03  0.12500000000E+03 0.  0.
         21    1    1    2  503  504 -0.10982696989E+03  0.35882481924E+01 -0.17859274550E+03  0.20969074273E+03  0.00000000000E+00 0. -1.
         21    1    1    2  504  501 -0.11761108813E+03  0.43337517979E+00 -0.61265396723E+02  0.13261223436E+03  0.00000000000E+00 0. -1.
<mgrwt>
<rscale>  4 0.25955586E+03</rscale>
<asrwt>0</asrwt>
<pdfrwt beam="1">  1       21 0.94994496E-01 0.25955586E+03</pdfrwt>
<pdfrwt beam="2">  1       21 0.49357629E-01 0.25955586E+03</pdfrwt>
<totfact> 0.34523552E+03</totfact>
</mgrwt>
</event>
<event>
 5    0  0.2159162E+000  0.2350110E+03  0.7546771E-02  0.1123162E+00
         21   -1    0    0  502  501  0.00000000000E+00  0.00000000000E+00  0.21889397019E+03  0.21889397019E+03  0.00000000000E+00 0. -1.
         21   -1    0    0  503  502 -0.00000000000E+00 -0.00000000000E+00 -0.98480948212E+03  0.98480948212E+03  0.00000000000E+00 0.  1.
         25    1    1    2    0    0 -0.87269493358E+02 -0.18045363073E+03  0.13890428030E+03  0.27404174208E+03  0.12500000000E+03 0.  0.
         21    1    1    2  503  504  0.85191474845E+02  0.15903124923E+03 -0.87162219826E+03  0.89009762505E+03  0.00000000000E+00 0.  1.
         21    1    1    2  504  501  0.20780185129E+01  0.21422381497E+02 -0.33197593974E+02  0.39564085174E+02  0.00000000000E+00 0.  1.
<mgrwt>
<rscale>  4 0.23501101E+03</rscale>
<asrwt>0</asrwt>
<pdfrwt beam="1">  1       21 0.33675996E-01 0.23501101E+03</pdfrwt>
<pdfrwt beam="2">  1       21 0.15150915E+00 0.23501101E+03</pdfrwt>
<totfact> 0.23832117E+03</totfact>
</mgrwt>
</event>
<event>
 5    0  0.4368134E+000  0.2211685E+03  0.7546771E-02  0.1133015E+00
         21   -1    0    0  502  501  0.00000000000E+00  0.00000000000E+00  0.22890308834E+03  0.22890308834E+03  0.00000000000E+00 0.  1.
         21   -1    0    0  503  502 -0.00000000000E+00 -0.00000000000E+00 -0.29678002512E+03  0.29678002512E+03  0.00000000000E+00 0.  1.
         25    1    1    2    0    0 -0.18255442205E+02 -0.20274523427E+03  0.88445454052E+02  0.25472826606E+03  0.12500000000E+03 0.  0.
         21    1    1    2  503  504  0.15059915276E+02  0.17707342797E+03 -0.16614620469E+03  0.24328247218E+03  0.00000000000E+00 0.  1.
         21    1    1    2  504  501  0.31955269290E+01  0.25671806306E+02  0.98238138579E+01  0.27672375215E+02  0.00000000000E+00 0.  1.
<mgrwt>
<rscale>  4 0.22116852E+03</rscale>
<asrwt>0</asrwt>
<pdfrwt beam="1">  1       21 0.35215860E-01 0.22116852E+03</pdfrwt>
<pdfrwt beam="2">  1       21 0.45658465E-01 0.22116852E+03</pdfrwt>
<totfact> 0.35234212E+04</totfact>
</mgrwt>
</event>
<event>
 5    0  0.2257943E+000  0.2841192E+03  0.7546771E-02  0.1093460E+00
         21   -1    0    0  502  501  0.00000000000E+00  0.00000000000E+00  0.20331072197E+03  0.20331072197E+03  0.00000000000E+00 0. -1.
         21   -1    0    0  503  502 -0.00000000000E+00 -0.00000000000E+00 -0.38870397248E+03  0.38870397248E+03  0.00000000000E+00 0. -1.
         25    1    1    2    0    0 -0.12957044921E+03 -0.21979581410E+03 -0.75943402405E+02  0.29409369523E+03  0.12500000000E+03 0.  0.
         21    1    1    2  503  504  0.85382472769E+02  0.60221052538E+02 -0.75472992090E+02  0.12889109496E+03  0.00000000000E+00 0. -1.
         21    1    1    2  504  501  0.44187976445E+02  0.15957476156E+03 -0.33976856020E+02  0.16902990426E+03  0.00000000000E+00 0. -1.
<mgrwt>
<rscale>  4 0.28411917E+03</rscale>
<asrwt>0</asrwt>
<pdfrwt beam="1">  1       21 0.31278573E-01 0.28411917E+03</pdfrwt>
<pdfrwt beam="2">  1       21 0.59800610E-01 0.28411917E+03</pdfrwt>
<totfact> 0.24511518E+04</totfact>
</mgrwt>
</event>
<event>
 5    0  0.2159162E+000  0.2744767E+03  0.7546771E-02  0.1098744E+00
         21   -1    0    0  502  501  0.00000000000E+00  0.00000000000E+00  0.24743055345E+03  0.24743055345E+03  0.00000000000E+00 0. -1.
         21   -1    0    0  503  502 -0.00000000000E+00 -0.00000000000E+00 -0.91176109018E+03  0.91176109018E+03  0.00000000000E+00 0. -1.
         25    1    1    2    0    0 -0.32000706801E+03 -0.18459535647E+03 -0.75032478032E+02  0.39715845951E+03  0.12500000000E+03 0.  0.
         21    1    1    2  503  504  0.19270537962E+03  0.12103516307E+03 -0.57576452625E+03  0.61910391997E+03  0.00000000000E+00 0. -1.
         21    1    1    2  504  501  0.12730168839E+03  0.63560193395E+02 -0.13533532447E+02  0.14292926416E+03  0.00000000000E+00 0. -1.
<mgrwt>
<rscale>  4 0.27447668E+03</rscale>
<asrwt>0</asrwt>
<pdfrwt beam="1">  1       21 0.38066239E-01 0.27447668E+03</pdfrwt>
<pdfrwt beam="2">  1       21 0.14027094E+00 0.27447668E+03</pdfrwt>
<totfact> 0.22209438E+03</totfact>
</mgrwt>
</event>
<event>
 5    0  0.2159162E+000  0.3237657E+03  0.7546771E-02  0.1073929E+00
         21   -1    0    0  502  501  0.00000000000E+00  0.00000000000E+00  0.57769550655E+03  0.57769550655E+03  0.00000000000E+00 0.  1.
         21   -1    0    0  503  502 -0.00000000000E+00 -0.00000000000E+00 -0.77189376829E+03  0.77189376829E+03  0.00000000000E+00 0. -1.
         25    1    1    2    0    0  0.13957213695E+03 -0.26487527271E+03  0.49505895508E+03  0.59190173214E+03  0.12500000000E+03 0.  0.
         21    1    1    2  503  504  0.13277831713E+02  0.19674526158E+02 -0.33112496414E+02  0.40740952533E+02  0.00000000000E+00 0. -1.
         21    1    1    2  504  501 -0.15284996866E+03  0.24520074655E+03 -0.65614472041E+03  0.71694659017E+03  0.00000000000E+00 0. -1.
<mgrwt>
<rscale>  4 0.32376575E+03</rscale>
<asrwt>0</asrwt>
<pdfrwt beam="1">  1       21 0.88876231E-01 0.32376575E+03</pdfrwt>
<pdfrwt beam="2">  1       21 0.11875289E+00 0.32376575E+03</pdfrwt>
<totfact> 0.52457589E+02</totfact>
</mgrwt>
</event>
<event>
 5    0  0.2159162E+000  0.2790751E+03  0.7546771E-02  0.1096195E+00
         21   -1    0    0  502  501  0.00000000000E+00  0.00000000000E+00  0.15562486381E+04  0.15562486381E+04  0.00000000000E+00 0. -1.
         21   -1    0    0  503  502 -0.00000000000E+00 -0.00000000000E+00 -0.91304150649E+02  0.91304150649E+02  0.00000000000E+00 0. -1.
         25    1    1    2    0    0 -0.24203713085E+03  0.60629505630E+02  0.16757701271E+03  0.32552260268E+03  0.12500000000E+03 0.  0.
         21    1    1    2  503  504  0.17494939608E+03 -0.65208799043E+02  0.92918944814E+03  0.94776184202E+03  0.00000000000E+00 0. -1.
         21    1    1    2  504  501  0.67087734770E+02  0.45792934122E+01  0.36817802657E+03  0.37426834402E+03  0.00000000000E+00 0. -1.
<mgrwt>
<rscale>  4 0.27907510E+03</rscale>
<asrwt>0</asrwt>
<pdfrwt beam="1">  1       21 0.23942285E+00 0.27907510E+03</pdfrwt>
<pdfrwt beam="2">  1       21 0.14046794E-01 0.27907510E+03</pdfrwt>
<totfact> 0.31417915E+03</totfact>
</mgrwt>
</event>
<event>
 5    0  0.2159162E+000  0.2957181E+03  0.7546771E-02  0.1087401E+00
         21   -1    0    0  502  501  0.00000000000E+00  0.00000000000E+00  0.55468087256E+03  0.55468087256E+03  0.00000000000E+00 0.  1.
         21   -1    0    0  503  502 -0.00000000000E+00 -0.00000000000E+00 -0.30610872153E+03  0.30610872153E+03  0.00000000000E+00 0.  1.
         25    1    1    2    0    0 -0.23553210451E+03 -0.13034238874E+03  0.40247840630E+03  0.50007837195E+03  0.12500000000E+03 0.  0.
         21    1    1    2  503  504  0.25621520493E+03  0.77130449835E+02 -0.13984929515E+03  0.30191582085E+03  0.00000000000E+00 0.  1.
         21    1    1    2  504  501 -0.20683100421E+02  0.53211938901E+02 -0.14056960126E+02  0.58795401288E+02  0.00000000000E+00 0.  1.
<mgrwt>
<rscale>  4 0.29571806E+03</rscale>
<asrwt>0</asrwt>
<pdfrwt beam="1">  1       21 0.85335519E-01 0.29571806E+03</pdfrwt>
<pdfrwt beam="2">  1       21 0.47093649E-01 0.29571806E+03</pdfrwt>
<totfact> 0.47936386E+03</totfact>
</mgrwt>
</event>
<event>
 5    0  0.2159162E+000  0.6554670E+03  0.7546771E-02  0.9799858E-01
         21   -1    0    0  502  501  0.00000000000E+00  0.00000000000E+00  0.88676082521E+03  0.88676082521E+03  0.00000000000E+00 0.  1.
         21   -1    0    0  503  502 -0.00000000000E+00 -0.00000000000E+00 -0.64950244245E+03  0.64950244245E+03  0.00000000000E+00 0. -1.
         25    1    1    2    0    0  0.89752523905E+02 -0.62991003572E+03  0.51134621315E+03  0.82579786773E+03  0.12500000000E+03 0.  0.
         21    1    1    2  503  504 -0.65372006323E+02  0.36974823544E+03 -0.24315689885E+03  0.44733939496E+03  0.00000000000E+00 0. -1.
         21    1    1    2  504  501 -0.24380517582E+02  0.26016180028E+03 -0.30930931543E+02  0.26312600496E+03  0.00000000000E+00 0. -1.
<mgrwt>
<rscale>  4 0.65370171E+03</rscale>
<asrwt>0</asrwt>
<pdfrwt beam="1">  1       21 0.13642474E+00 0.65546697E+03</pdfrwt>
<pdfrwt beam="2">  1       21 0.99923452E-01 0.65546697E+03</pdfrwt>
<totfact> 0.23820799E+02</totfact>
</mgrwt>
</event>
<event>
 5    0  0.2159162E+000  0.2402136E+03  0.7546771E-02  0.1119651E+00
         21   -1    0    0  502  501  0.00000000000E+00  0.00000000000E+00  0.65759121184E+03  0.65759121184E+03  0.00000000000E+00 0. -1.
         21   -1    0    0  503  502 -0.00000000000E+00 -0.00000000000E+00 -0.62114396670E+03  0.62114396670E+03  0.00000000000E+00 0. -1.
         25    1    1    2    0    0  0.33512198573E+01 -0.20759239617E+03  0.60924602350E+03  0.65567640706E+03  0.12500000000E+03 0.  0.
         21    1    1    2  503  504  0.13985850735E+01  0.14750041988E+03 -0.52727883503E+03  0.54752287603E+03  0.00000000000E+00 0. -1.
         21    1    1    2  504  501 -0.47498049308E+01  0.60091976290E+02 -0.45519943319E+02  0.75535895448E+02  0.00000000000E+00 0.  1.
<mgrwt>
<rscale>  4 0.24021364E+03</rscale>
<asrwt>0</asrwt>
<pdfrwt beam="1">  1       21 0.10116788E+00 0.24021364E+03</pdfrwt>
<pdfrwt beam="2">  1       21 0.95560610E-01 0.24021364E+03</pdfrwt>
<totfact> 0.69681977E+02</totfact>
</mgrwt>
</event>
