<event>
 5    0  0.2159162E+000  0.3462082E+03  0.7546771E-02  0.1065429E+00
         21   -1    0    0  502  501  0.00000000000E+00  0.00000000000E+00  0.30579076951E+03  0.30579076951E+03  0.00000000000E+00 0.  1.
         21   -1    0    0  503  502 -0.00000000000E+00 -0.00000000000E+00 -0.57565018662E+03  0.57565018662E+03  0.00000000000E+00 0. -1.
         25    1    1    2    0    0 -0.26481439425E+03  0.16156409582E+03  0.12432428168E+03  0.35680687700E+03  0.12500000000E+03 0.  0.
         21    1    1    2  503  504  0.14420021452E+03 -0.15426926264E+03 -0.17461889295E+03  0.27401544672E+03  0.00000000000E+00 0. -1.
         21    1    1    2  504  501  0.12061417973E+03 -0.72948331768E+01 -0.21956480585E+03  0.25061863241E+03  0.00000000000E+00 0. -1.
<mgrwt>
<rscale>  4 0.34322963E+03</rscale>
<asrwt>0</asrwt>
<pdfrwt beam="1">  1       21 0.47044734E-01 0.34620822E+03</pdfrwt>
<pdfrwt beam="2">  1       21 0.88561566E-01 0.34620822E+03</pdfrwt>
<totfact> 0.42997950E+03</totfact>
</mgrwt>
</event>
<event>
 5    0  0.2159162E+000  0.3356748E+03  0.7546771E-02  0.1068653E+00
         21   -1    0    0  502  501  0.00000000000E+00  0.00000000000E+00  0.10578544651E+04  0.10578544651E+04  0.00000000000E+00 0.  1.
         21   -1    0    0  503  502 -0.00000000000E+00 -0.00000000000E+00 -0.10533911631E+03  0.10533911631E+03  0.00000000000E+00 0.  1.
         25    1    1    2    0    0 -0.26521059549E+03  0.16345005538E+03  0.59000432625E+03  0.67880975653E+03  0.12500000000E+03 0.  0.
         21    1    1    2  503  504  0.14909425786E+03 -0.53268620625E+02  0.14796564785E+03  0.21670366082E+03  0.00000000000E+00 0.  1.
         21    1    1    2  504  501  0.11611633763E+03 -0.11018143476E+03  0.21454537474E+03  0.26768016410E+03  0.00000000000E+00 0.  1.
<mgrwt>
<rscale>  4 0.33567481E+03</rscale>
<asrwt>0</asrwt>
<pdfrwt beam="1">  1       21 0.16274683E+00 0.33567481E+03</pdfrwt>
<pdfrwt beam="2">  1       21 0.16206019E-01 0.33567481E+03</pdfrwt>
<totfact> 0.74947342E+03</totfact>
</mgrwt>
</event>
<event>
 5    0  0.2159162E+000  0.6885721E+03  0.7546771E-02  0.9737169E-01
         21   -1    0    0  502  501  0.00000000000E+00  0.00000000000E+00  0.70918895525E+03  0.70918895525E+03  0.00000000000E+00 0. -1.
         21   -1    0    0  503  502 -0.00000000000E+00 -0.00000000000E+00 -0.72984970340E+03  0.72984970340E+03  0.00000000000E+00 0. -1.
         25    1    1    2    0    0 -0.47138338930E+03  0.48548887490E+03 -0.21956705053E+03  0.72231325409E+03  0.12500000000E+03 0.  0.
         21    1    1    2  503  504  0.40222688398E+03 -0.44696812533E+03  0.13823762670E+03  0.61698996158E+03  0.00000000000E+00 0. -1.
         21    1    1    2  504  501  0.69156505325E+02 -0.38520749572E+02  0.60668675682E+02  0.99735442975E+02  0.00000000000E+00 0.  1.
<mgrwt>
<rscale>  4 0.68846228E+03</rscale>
<asrwt>0</asrwt>
<pdfrwt beam="1">  1       21 0.10910599E+00 0.68857214E+03</pdfrwt>
<pdfrwt beam="2">  1       21 0.11228457E+00 0.68857214E+03</pdfrwt>
<totfact> 0.31374427E+02</totfact>
</mgrwt>
</event>
<event>
 5    0  0.2159162E+000  0.2506692E+03  0.7546771E-02  0.1112883E+00
         21   -1    0    0  502  501  0.00000000000E+00  0.00000000000E+00  0.14180886640E+03  0.14180886640E+03  0.00000000000E+00 0. -1.
         21   -1    0    0  503  502 -0.00000000000E+00 -0.00000000000E+00 -0.43687986727E+03  0.43687986727E+03  0.00000000000E+00 0. -1.
         25    1    1    2    0    0  0.18909472573E+03 -0.10701984000E+03 -0.19536871172E+03  0.31781125684E+03  0.12500000000E+03 0.  0.
         21    1    1    2  503  504 -0.27206376299E+02  0.65676514965E+02 -0.11733219764E+02  0.72050398856E+02  0.00000000000E+00 0. -1.
         21    1    1    2  504  501 -0.16188834943E+03  0.41343325038E+02 -0.87969069385E+02  0.18882707797E+03  0.00000000000E+00 0. -1.
<mgrwt>
<rscale>  4 0.25066923E+03</rscale>
<asrwt>0</asrwt>
<pdfrwt beam="1">  1       21 0.21816749E-01 0.25066923E+03</pdfrwt>
<pdfrwt beam="2">  1       21 0.67212288E-01 0.25066923E+03</pdfrwt>
<totfact> 0.38645053E+04</totfact>
</mgrwt>
</event>
<event>
 5    0  0.2159162E+000  0.3814487E+03  0.7546771E-02  0.1050400E+00
         21   -1    0    0  502  501  0.00000000000E+00  0.00000000000E+00  0.23328351422E+04  0.23328351422E+04  0.00000000000E+00 0. -1.
         21   -1    0    0  503  502 -0.00000000000E+00 -0.00000000000E+00 -0.75503877818E+02  0.75503877818E+02  0.00000000000E+00 0. -1.
         25    1    1    2    0    0  0.23261117243E+03 -0.27526382770E+03  0.16773288641E+04  0.17201555891E+04  0.12500000000E+03 0.  0.
         21    1    1    2  503  504  0.33266114709E+01  0.20883101256E+02  0.54696543763E+02  0.58641982927E+02  0.00000000000E+00 0. -1.
         21    1    1    2  504  501 -0.23593778390E+03  0.25438072645E+03  0.52530585660E+03  0.62954144807E+03  0.00000000000E+00 0. -1.
<mgrwt>
<rscale>  4 0.38144873E+03</rscale>
<asrwt>0</asrwt>
<pdfrwt beam="1">  1       21 0.35889766E+00 0.38144873E+03</pdfrwt>
<pdfrwt beam="2">  1       21 0.11615983E-01 0.38144873E+03</pdfrwt>
<totfact> 0.79467760E+02</totfact>
</mgrwt>
</event>
