<event>
 5    0  0.2159162E+000  0.2588329E+03  0.7546771E-02  0.1107846E+00
         21   -1    0    0  502  501  0.00000000000E+00  0.00000000000E+00  0.33693788300E+03  0.33693788300E+03  0.00000000000E+00 0. -1.
         21   -1    0    0  503  502 -0.00000000000E+00 -0.00000000000E+00 -0.23443323792E+03  0.23443323792E+03  0.00000000000E+00 0. -1.
         25    1    1    2    0    0  0.22569581357E+03  0.20757827219E+02 -0.85039655150E+02  0.27244491297E+03  0.12500000000E+03 0.  0.
         21    1    1    2  503  504 -0.85035186672E+02  0.17885132462E+02  0.68914452692E+02  0.11090564785E+03  0.00000000000E+00 0. -1.
         21    1    1    2  504  501 -0.14066062690E+03 -0.38642959681E+02  0.11862984754E+03  0.18802056010E+03  0.00000000000E+00 0. -1.
<mgrwt>
<rscale>  4 0.25883293E+03</rscale>
<asrwt>0</asrwt>
<pdfrwt beam="1">  1       21 0.51836597E-01 0.25883293E+03</pdfrwt>
<pdfrwt beam="2">  1       21 0.36066652E-01 0.25883293E+03</pdfrwt>
<totfact> 0.25327408E+04</totfact>
</mgrwt>
</event>
<event>
 5    0  0.2159162E+000  0.4090903E+03  0.7546771E-02  0.1040677E+00
         21   -1    0    0  502  501  0.00000000000E+00  0.00000000000E+00  0.11855690159E+03  0.11855690159E+03  0.00000000000E+00 0. -1.
         21   -1    0    0  503  502 -0.00000000000E+00 -0.00000000000E+00 -0.20959147668E+04  0.20959147668E+04  0.00000000000E+00 0. -1.
         25    1    1    2    0    0  0.15589716535E+03  0.35696773649E+03 -0.34793119038E+03  0.53703910873E+03  0.12500000000E+03 0.  0.
         21    1    1    2  503  504 -0.13524081392E+03 -0.28124141465E+03 -0.11484990770E+04  0.11901415634E+04  0.00000000000E+00 0. -1.
         21    1    1    2  504  501 -0.20656351427E+02 -0.75726321843E+02 -0.48092759784E+03  0.48729099627E+03  0.00000000000E+00 0. -1.
<mgrwt>
<rscale>  4 0.40909032E+03</rscale>
<asrwt>0</asrwt>
<pdfrwt beam="1">  1       21 0.18239526E-01 0.40909032E+03</pdfrwt>
<pdfrwt beam="2">  1       21 0.32244839E+00 0.40909032E+03</pdfrwt>
<totfact> 0.56405864E+02</totfact>
</mgrwt>
</event>
<event>
 5    0  0.6247459E+000  0.2795735E+03  0.7546771E-02  0.1095922E+00
         21   -1    0    0  502  501  0.00000000000E+00  0.00000000000E+00  0.59789689893E+03  0.59789689893E+03  0.00000000000E+00 0.  1.
         21   -1    0    0  503  502 -0.00000000000E+00 -0.00000000000E+00 -0.12217981379E+03  0.12217981379E+03  0.00000000000E+00 0.  1.
         25    1    1    2    0    0 -0.24956723484E+03  0.15891684375E+02  0.28068781141E+03  0.39616536675E+03  0.12500000000E+03 0.  0.
         21    1    1    2  503  504  0.24728966252E+02 -0.16450767970E+01 -0.16652877577E+01  0.24839509513E+02  0.00000000000E+00 0.  1.
         21    1    1    2  504  501  0.22483826858E+03 -0.14246607578E+02  0.19669456149E+03  0.29907183647E+03  0.00000000000E+00 0.  1.
<mgrwt>
<rscale>  4 0.27957352E+03</rscale>
<asrwt>0</asrwt>
<pdfrwt beam="1">  1       21 0.91984137E-01 0.27957352E+03</pdfrwt>
<pdfrwt beam="2">  1       21 0.18796895E-01 0.27957352E+03</pdfrwt>
<totfact> 0.24767348E+04</totfact>
</mgrwt>
</event>
<event>
 5    0  0.2159162E+000  0.2407434E+03  0.7546771E-02  0.1119299E+00
         21   -1    0    0  502  501  0.00000000000E+00  0.00000000000E+00  0.27666396762E+03  0.27666396762E+03  0.00000000000E+00 0.  1.
         21   -1    0    0  503  502 -0.00000000000E+00 -0.00000000000E+00 -0.19514084740E+03  0.19514084740E+03  0.00000000000E+00 0.  1.
         25    1    1    2    0    0 -0.46602302194E+02  0.20040110159E+03  0.98033830923E+02  0.25993846983E+03  0.12500000000E+03 0.  0.
         21    1    1    2  503  504  0.40516356990E+02 -0.11195898513E+03 -0.28445216287E+02  0.12241535796E+03  0.00000000000E+00 0.  1.
         21    1    1    2  504  501  0.60859452041E+01 -0.88442116464E+02  0.11934505588E+02  0.89450987235E+02  0.00000000000E+00 0.  1.
<mgrwt>
<rscale>  4 0.24074338E+03</rscale>
<asrwt>0</asrwt>
<pdfrwt beam="1">  1       21 0.42563687E-01 0.24074338E+03</pdfrwt>
<pdfrwt beam="2">  1       21 0.30021669E-01 0.24074338E+03</pdfrwt>
<totfact> 0.55319176E+04</totfact>
</mgrwt>
</event>
<event>
 5    0  0.2159162E+000  0.2196065E+03  0.7546771E-02  0.1134177E+00
         21   -1    0    0  502  501  0.00000000000E+00  0.00000000000E+00  0.10794341906E+03  0.10794341906E+03  0.00000000000E+00 0. -1.
         21   -1    0    0  503  502 -0.00000000000E+00 -0.00000000000E+00 -0.85809717025E+03  0.85809717025E+03  0.00000000000E+00 0. -1.
         25    1    1    2    0    0  0.13821361845E+03  0.20318872687E+03 -0.20242245992E+03  0.34203583925E+03  0.12500000000E+03 0.  0.
         21    1    1    2  503  504 -0.73753130993E+02 -0.76025928120E+02 -0.41811764379E+03  0.43132566597E+03  0.00000000000E+00 0.  1.
         21    1    1    2  504  501 -0.64460487457E+02 -0.12716279875E+03 -0.12961364749E+03  0.19267908409E+03  0.00000000000E+00 0. -1.
<mgrwt>
<rscale>  4 0.21960651E+03</rscale>
<asrwt>0</asrwt>
<pdfrwt beam="1">  1       21 0.16606680E-01 0.21960651E+03</pdfrwt>
<pdfrwt beam="2">  1       21 0.13201495E+00 0.21960651E+03</pdfrwt>
<totfact> 0.13295956E+04</totfact>
</mgrwt>
</event>
<event>
 5    0  0.2159162E+000  0.2428592E+03  0.7546771E-02  0.1117903E+00
         21   -1    0    0  502  501  0.00000000000E+00  0.00000000000E+00  0.11222912799E+04  0.11222912799E+04  0.00000000000E+00 0. -1.
         21   -1    0    0  503  502 -0.00000000000E+00 -0.00000000000E+00 -0.47289838722E+02  0.47289838722E+02  0.00000000000E+00 0. -1.
         25    1    1    2    0    0 -0.48910427128E+02 -0.20239409391E+03  0.66719293570E+03  0.71001902268E+03  0.12500000000E+03 0.  0.
         21    1    1    2  503  504  0.18130346498E+02  0.25484906360E+02  0.78034554678E+02  0.84068910068E+02  0.00000000000E+00 0. -1.
         21    1    1    2  504  501  0.30780080630E+02  0.17690918755E+03  0.32977395077E+03  0.37549318584E+03  0.00000000000E+00 0. -1.
<mgrwt>
<rscale>  4 0.24285922E+03</rscale>
<asrwt>0</asrwt>
<pdfrwt beam="1">  1       21 0.17266018E+00 0.24285922E+03</pdfrwt>
<pdfrwt beam="2">  1       21 0.72753607E-02 0.24285922E+03</pdfrwt>
<totfact> 0.28044394E+04</totfact>
</mgrwt>
</event>
<event>
 5    0  0.2159162E+000  0.3033293E+03  0.7546771E-02  0.1083588E+00
         21   -1    0    0  502  501  0.00000000000E+00  0.00000000000E+00  0.20525420083E+03  0.20525420083E+03  0.00000000000E+00 0.  1.
         21   -1    0    0  503  502 -0.00000000000E+00 -0.00000000000E+00 -0.15036825092E+04  0.15036825092E+04  0.00000000000E+00 0. -1.
         25    1    1    2    0    0 -0.28204239477E+02 -0.27896519624E+03  0.61229413207E+02  0.31303530292E+03  0.12500000000E+03 0.  0.
         21    1    1    2  503  504  0.20835957599E+02  0.43582879776E+02 -0.70830138495E+02  0.85735133159E+02  0.00000000000E+00 0. -1.
         21    1    1    2  504  501  0.73682818776E+01  0.23538231646E+03 -0.12888275831E+04  0.13101662739E+04  0.00000000000E+00 0. -1.
<mgrwt>
<rscale>  4 0.30332927E+03</rscale>
<asrwt>0</asrwt>
<pdfrwt beam="1">  1       21 0.31577571E-01 0.30332927E+03</pdfrwt>
<pdfrwt beam="2">  1       21 0.23133576E+00 0.30332927E+03</pdfrwt>
<totfact> 0.74325991E+02</totfact>
</mgrwt>
</event>
<event>
 5    0  0.2159162E+000  0.2528098E+03  0.7546771E-02  0.1111542E+00
         21   -1    0    0  502  501  0.00000000000E+00  0.00000000000E+00  0.16623589166E+03  0.16623589166E+03  0.00000000000E+00 0. -1.
         21   -1    0    0  503  502 -0.00000000000E+00 -0.00000000000E+00 -0.17803773611E+04  0.17803773611E+04  0.00000000000E+00 0.  1.
         25    1    1    2    0    0  0.21364503978E+03  0.56500548632E+02  0.56444878130E+02  0.26009140563E+03  0.12500000000E+03 0.  0.
         21    1    1    2  503  504 -0.19184838407E+03 -0.57003738916E+02 -0.16044526716E+04  0.16168870103E+04  0.00000000000E+00 0.  1.
         21    1    1    2  504  501 -0.21796655707E+02  0.50319028407E+00 -0.66133675920E+02  0.69634836764E+02  0.00000000000E+00 0. -1.
<mgrwt>
<rscale>  4 0.25280982E+03</rscale>
<asrwt>0</asrwt>
<pdfrwt beam="1">  1       21 0.25574754E-01 0.25280982E+03</pdfrwt>
<pdfrwt beam="2">  1       21 0.27390419E+00 0.25280982E+03</pdfrwt>
<totfact> 0.65210397E+02</totfact>
</mgrwt>
</event>
<event>
 5    0  0.2159162E+000  0.3384634E+03  0.7546771E-02  0.1067452E+00
         21   -1    0    0  502  501  0.00000000000E+00  0.00000000000E+00  0.60486764400E+03  0.60486764400E+03  0.00000000000E+00 0. -1.
         21   -1    0    0  503  502 -0.00000000000E+00 -0.00000000000E+00 -0.47502904932E+03  0.47502904932E+03  0.00000000000E+00 0. -1.
         25    1    1    2    0    0 -0.31346880094E+03 -0.12207187311E+03  0.41970625987E+03  0.55221605911E+03  0.12500000000E+03 0.  0.
         21    1    1    2  503  504  0.15803657336E+03 -0.44271320866E+02 -0.65817737492E+01  0.16425233063E+03  0.00000000000E+00 0. -1.
         21    1    1    2  504  501  0.15543222758E+03  0.16634319398E+03 -0.28328589144E+03  0.36342830358E+03  0.00000000000E+00 0. -1.
<mgrwt>
<rscale>  4 0.33846336E+03</rscale>
<asrwt>0</asrwt>
<pdfrwt beam="1">  1       21 0.93056561E-01 0.33846336E+03</pdfrwt>
<pdfrwt beam="2">  1       21 0.73081392E-01 0.33846336E+03</pdfrwt>
<totfact> 0.14760452E+03</totfact>
</mgrwt>
</event>
<event>
 5    0  0.2159162E+000  0.3317718E+03  0.7546771E-02  0.1070356E+00
         21   -1    0    0  502  501  0.00000000000E+00  0.00000000000E+00  0.55037073611E+03  0.55037073611E+03  0.00000000000E+00 0. -1.
         21   -1    0    0  503  502 -0.00000000000E+00 -0.00000000000E+00 -0.64612247369E+03  0.64612247369E+03  0.00000000000E+00 0. -1.
         25    1    1    2    0    0 -0.19878665715E+03  0.24271291007E+03  0.43155432051E+03  0.54798706492E+03  0.12500000000E+03 0.  0.
         21    1    1    2  503  504  0.13217437566E+03 -0.21117840810E+03 -0.51725465991E+03  0.57412434962E+03  0.00000000000E+00 0. -1.
         21    1    1    2  504  501  0.66612281492E+02 -0.31534501969E+02 -0.10051398185E+02  0.74381795256E+02  0.00000000000E+00 0. -1.
<mgrwt>
<rscale>  4 0.33177181E+03</rscale>
<asrwt>0</asrwt>
<pdfrwt beam="1">  1       21 0.84672421E-01 0.33177181E+03</pdfrwt>
<pdfrwt beam="2">  1       21 0.99403457E-01 0.33177181E+03</pdfrwt>
<totfact> 0.90412950E+02</totfact>
</mgrwt>
</event>
