<event>
 5    0  0.1911311E+001  0.2883480E+03  0.7546771E-02  0.1091215E+00
         21   -1    0    0  502  501  0.00000000000E+00  0.00000000000E+00  0.94565922361E+03  0.94565922361E+03  0.00000000000E+00 0. -1.
         21   -1    0    0  504  502 -0.00000000000E+00 -0.00000000000E+00 -0.27214902866E+03  0.27214902866E+03  0.00000000000E+00 0. -1.
         25    1    1    2    0    0  0.10711167253E+03 -0.20026011931E+03  0.71003814416E+03  0.75588106997E+03  0.12500000000E+03 0.  0.
         21    1    1    2  503  501  0.27330931021E+02 -0.25775629429E+02  0.14014871171E+03  0.14509660318E+03  0.00000000000E+00 0.  1.
         21    1    1    2  504  503 -0.13444260355E+03  0.22603574874E+03 -0.17667666091E+03  0.31683057912E+03  0.00000000000E+00 0. -1.
<mgrwt>
<rscale>  4 0.28834801E+03</rscale>
<asrwt>0</asrwt>
<pdfrwt beam="1">  1       21 0.14548603E+00 0.28834801E+03</pdfrwt>
<pdfrwt beam="2">  1       21 0.41869082E-01 0.28834801E+03</pdfrwt>
<totfact> 0.16463314E+03</totfact>
</mgrwt>
</event>
<event>
 5    0  0.1911311E+001  0.2646325E+03  0.7546771E-02  0.1104391E+00
         21   -1    0    0  503  501  0.00000000000E+00  0.00000000000E+00  0.31992730277E+03  0.31992730277E+03  0.00000000000E+00 0. -1.
         21   -1    0    0  501  502 -0.00000000000E+00 -0.00000000000E+00 -0.20557130175E+03  0.20557130175E+03  0.00000000000E+00 0. -1.
         25    1    1    2    0    0  0.16010252026E+03 -0.16962471057E+03  0.10975286448E+03  0.28648918076E+03  0.12500000000E+03 0.  0.
         21    1    1    2  503  504 -0.11624398818E+03  0.11291433147E+03 -0.19838392837E+02  0.16326626372E+03  0.00000000000E+00 0. -1.
         21    1    1    2  504  502 -0.43858532084E+02  0.56710379097E+02  0.24441529375E+02  0.75743160035E+02  0.00000000000E+00 0. -1.
<mgrwt>
<rscale>  4 0.26463250E+03</rscale>
<asrwt>0</asrwt>
<pdfrwt beam="1">  1       21 0.49219585E-01 0.26463250E+03</pdfrwt>
<pdfrwt beam="2">  1       21 0.31626354E-01 0.26463250E+03</pdfrwt>
<totfact> 0.36598804E+04</totfact>
</mgrwt>
</event>
<event>
 5    0  0.1911311E+001  0.2749970E+03  0.7546771E-02  0.1098453E+00
         21   -1    0    0  502  501  0.00000000000E+00  0.00000000000E+00  0.15543560556E+03  0.15543560556E+03  0.00000000000E+00 0. -1.
         21   -1    0    0  504  502 -0.00000000000E+00 -0.00000000000E+00 -0.59014684258E+03  0.59014684258E+03  0.00000000000E+00 0. -1.
         25    1    1    2    0    0  0.68863003624E+02  0.23760199054E+03 -0.30171390028E+03  0.40969878789E+03  0.12500000000E+03 0.  0.
         21    1    1    2  503  501  0.28633105228E+02 -0.14851366564E+02  0.29271768887E+02  0.43557482223E+02  0.00000000000E+00 0.  1.
         21    1    1    2  504  503 -0.97496108851E+02 -0.22275062397E+03 -0.16226910562E+03  0.29232617803E+03  0.00000000000E+00 0. -1.
<mgrwt>
<rscale>  4 0.27499698E+03</rscale>
<asrwt>0</asrwt>
<pdfrwt beam="1">  1       21 0.23913170E-01 0.27499698E+03</pdfrwt>
<pdfrwt beam="2">  1       21 0.90791822E-01 0.27499698E+03</pdfrwt>
<totfact> 0.16217694E+04</totfact>
</mgrwt>
</event>
