<event>
 5    0  0.1911311E+001  0.2044134E+03  0.7546771E-02  0.1146068E+00
         21   -1    0    0  504  501  0.00000000000E+00  0.00000000000E+00  0.82403736444E+03  0.82403736444E+03  0.00000000000E+00 0. -1.
         21   -1    0    0  503  502 -0.00000000000E+00 -0.00000000000E+00 -0.66982668190E+03  0.66982668190E+03  0.00000000000E+00 0. -1.
         25    1    1    2    0    0 -0.11029653452E+03 -0.21345471965E+03  0.71990580604E+03  0.76916683004E+03  0.12500000000E+03 0.  0.
         21    1    1    2  503  501  0.53334672957E+02  0.15156251779E+03 -0.60917598871E+03  0.63000886451E+03  0.00000000000E+00 0. -1.
         21    1    1    2  504  502  0.56961861560E+02  0.61892201863E+02  0.43480865225E+02  0.94688351789E+02  0.00000000000E+00 0.  1.
<mgrwt>
<rscale>  4 0.20441336E+03</rscale>
<asrwt>0</asrwt>
<pdfrwt beam="1">  1       21 0.12677498E+00 0.20441336E+03</pdfrwt>
<pdfrwt beam="2">  1       21 0.10305026E+00 0.20441336E+03</pdfrwt>
<totfact> 0.34712053E+02</totfact>
</mgrwt>
</event>
<event>
 5    0  0.1911311E+001  0.3775503E+03  0.7546771E-02  0.1051843E+00
         21   -1    0    0  504  501  0.00000000000E+00  0.00000000000E+00  0.22318355385E+03  0.22318355385E+03  0.00000000000E+00 0.  1.
         21   -1    0    0  501  502 -0.00000000000E+00 -0.00000000000E+00 -0.10184338687E+04  0.10184338687E+04  0.00000000000E+00 0.  1.
         25    1    1    2    0    0 -0.19374510435E+03 -0.22606238841E+03 -0.30530176469E+03  0.44438219635E+03  0.12500000000E+03 0.  0.
         21    1    1    2  503  502  0.38067888944E+03  0.20000804366E+03 -0.27156736795E+03  0.50859460254E+03  0.00000000000E+00 0.  1.
         21    1    1    2  504  503 -0.18693378509E+03  0.26054344750E+02 -0.21838118225E+03  0.28864062370E+03  0.00000000000E+00 0.  1.
<mgrwt>
<rscale>  4 0.37755030E+03</rscale>
<asrwt>0</asrwt>
<pdfrwt beam="1">  1       21 0.34335931E-01 0.37755030E+03</pdfrwt>
<pdfrwt beam="2">  1       21 0.15668213E+00 0.37755030E+03</pdfrwt>
<totfact> 0.19187772E+03</totfact>
</mgrwt>
</event>
<event>
 5    0  0.1911311E+001  0.2709423E+03  0.7546771E-02  0.1100742E+00
         21   -1    0    0  503  501  0.00000000000E+00  0.00000000000E+00  0.61937374854E+03  0.61937374854E+03  0.00000000000E+00 0.  1.
         21   -1    0    0  504  502 -0.00000000000E+00 -0.00000000000E+00 -0.11948507658E+03  0.11948507658E+03  0.00000000000E+00 0.  1.
         25    1    1    2    0    0 -0.16779344478E+03 -0.17213387777E+03  0.21072484055E+03  0.34324141710E+03  0.12500000000E+03 0.  0.
         21    1    1    2  503  502  0.12763763204E+03  0.45119642632E+02  0.12557140698E+03  0.18464919582E+03  0.00000000000E+00 0.  1.
         21    1    1    2  504  501  0.40155812741E+02  0.12701423514E+03  0.16359242444E+03  0.21096821220E+03  0.00000000000E+00 0.  1.
<mgrwt>
<rscale>  4 0.27094227E+03</rscale>
<asrwt>0</asrwt>
<pdfrwt beam="1">  1       21 0.95288268E-01 0.27094227E+03</pdfrwt>
<pdfrwt beam="2">  1       21 0.18382320E-01 0.27094227E+03</pdfrwt>
<totfact> 0.23849476E+04</totfact>
</mgrwt>
</event>
