<event>
 5    0  0.1911311E+001  0.3062591E+03  0.7546771E-02  0.1082153E+00
         21   -1    0    0  504  501  0.00000000000E+00  0.00000000000E+00  0.11962181972E+03  0.11962181972E+03  0.00000000000E+00 0. -1.
         21   -1    0    0  503  502 -0.00000000000E+00 -0.00000000000E+00 -0.18853887258E+04  0.18853887258E+04  0.00000000000E+00 0. -1.
         25    1    1    2    0    0 -0.26438647067E+03 -0.23809054673E+02 -0.28616095425E+03  0.40985383821E+03  0.12500000000E+03 0.  0.
         21    1    1    2  503  501  0.28220353566E+03 -0.25696095092E+02 -0.15086680879E+04  0.15350500071E+04  0.00000000000E+00 0. -1.
         21    1    1    2  504  502 -0.17817064993E+02  0.49505149764E+02  0.29062136071E+02  0.60106700219E+02  0.00000000000E+00 0.  1.
<mgrwt>
<rscale>  4 0.30625912E+03</rscale>
<asrwt>0</asrwt>
<pdfrwt beam="1">  1       21 0.18403356E-01 0.30625912E+03</pdfrwt>
<pdfrwt beam="2">  1       21 0.29005982E+00 0.30625912E+03</pdfrwt>
<totfact> 0.93205862E+02</totfact>
</mgrwt>
</event>
<event>
 5    0  0.1911311E+001  0.2584750E+03  0.7546771E-02  0.1108063E+00
         21   -1    0    0  503  501  0.00000000000E+00  0.00000000000E+00  0.20443943560E+03  0.20443943560E+03  0.00000000000E+00 0. -1.
         21   -1    0    0  504  502 -0.00000000000E+00 -0.00000000000E+00 -0.59096581911E+03  0.59096581911E+03  0.00000000000E+00 0. -1.
         25    1    1    2    0    0 -0.25144771586E+03  0.15888714201E+03 -0.26294893469E+03  0.41621895675E+03  0.12500000000E+03 0.  0.
         21    1    1    2  503  502  0.10271756279E+03 -0.14713265091E+02 -0.13671059471E+03  0.17163089635E+03  0.00000000000E+00 0. -1.
         21    1    1    2  504  501  0.14873015307E+03 -0.14417387692E+03  0.13133145895E+02  0.20755540161E+03  0.00000000000E+00 0. -1.
<mgrwt>
<rscale>  4 0.25847501E+03</rscale>
<asrwt>0</asrwt>
<pdfrwt beam="1">  1       21 0.31452221E-01 0.25847501E+03</pdfrwt>
<pdfrwt beam="2">  1       21 0.90917819E-01 0.25847501E+03</pdfrwt>
<totfact> 0.95677837E+03</totfact>
</mgrwt>
</event>
<event>
 5    0  0.1911311E+001  0.2760604E+03  0.7546771E-02  0.1097860E+00
         21   -1    0    0  502  501  0.00000000000E+00  0.00000000000E+00  0.23358207841E+03  0.23358207841E+03  0.00000000000E+00 0. -1.
         21   -1    0    0  504  502 -0.00000000000E+00 -0.00000000000E+00 -0.69647676018E+03  0.69647676018E+03  0.00000000000E+00 0. -1.
         25    1    1    2    0    0 -0.26113196470E+03  0.15694042163E+03 -0.48575196173E+03  0.58685617255E+03  0.12500000000E+03 0.  0.
         21    1    1    2  503  501  0.19933906557E+03 -0.12823960486E+03  0.84186303932E+02  0.25153288669E+03  0.00000000000E+00 0. -1.
         21    1    1    2  504  503  0.61792899134E+02 -0.28700816771E+02 -0.61329023965E+02  0.91669779356E+02  0.00000000000E+00 0. -1.
<mgrwt>
<rscale>  4 0.27606039E+03</rscale>
<asrwt>0</asrwt>
<pdfrwt beam="1">  1       21 0.35935705E-01 0.27606039E+03</pdfrwt>
<pdfrwt beam="2">  1       21 0.10715027E+00 0.27606039E+03</pdfrwt>
<totfact> 0.49088866E+03</totfact>
</mgrwt>
</event>
<event>
 5    0  0.1911311E+001  0.2622153E+03  0.7546771E-02  0.1105820E+00
         21   -1    0    0  502  501  0.00000000000E+00  0.00000000000E+00  0.29230346915E+03  0.29230346915E+03  0.00000000000E+00 0. -1.
         21   -1    0    0  504  502 -0.00000000000E+00 -0.00000000000E+00 -0.38653800244E+03  0.38653800244E+03  0.00000000000E+00 0. -1.
         25    1    1    2    0    0 -0.96526839146E+02  0.21356415213E+03 -0.24869604942E+03  0.36387058516E+03  0.12500000000E+03 0.  0.
         21    1    1    2  503  501  0.48337003901E+02  0.34594936733E+01  0.48994853921E+02  0.68912478938E+02  0.00000000000E+00 0. -1.
         21    1    1    2  504  503  0.48189835245E+02 -0.21702364580E+03  0.10546666221E+03  0.24605840749E+03  0.00000000000E+00 0. -1.
<mgrwt>
<rscale>  4 0.26221529E+03</rscale>
<asrwt>0</asrwt>
<pdfrwt beam="1">  1       21 0.44969765E-01 0.26221529E+03</pdfrwt>
<pdfrwt beam="2">  1       21 0.59467385E-01 0.26221529E+03</pdfrwt>
<totfact> 0.12032224E+04</totfact>
</mgrwt>
</event>
