<event>
 5    0  0.2529622E+000  0.2798337E+03  0.7546771E-02  0.1095780E+00
         21   -1    0    0  502  501  0.00000000000E+00  0.00000000000E+00  0.46875005775E+03  0.46875005775E+03  0.00000000000E+00 0.  1.
         21   -1    0    0  503  502 -0.00000000000E+00 -0.00000000000E+00 -0.17950332195E+03  0.17950332195E+03  0.00000000000E+00 0.  1.
         25    1    1    2    0    0  0.95707397089E+02  0.24057956607E+03  0.19627304502E+03  0.34811857415E+03  0.12500000000E+03 0.  0.
         21    1    1    2  503  504  0.12331348533E+02 -0.23919018965E+02 -0.19448099278E+02  0.33202563009E+02  0.00000000000E+00 0.  1.
         21    1    1    2  504  501 -0.10803874562E+03 -0.21666054710E+03  0.11242179006E+03  0.26693224254E+03  0.00000000000E+00 0.  1.
<mgrwt>
<rscale>  4 0.27983371E+03</rscale>
<asrwt>0</asrwt>
<pdfrwt beam="1">  1       21 0.72115393E-01 0.27983371E+03</pdfrwt>
<pdfrwt beam="2">  1       21 0.27615896E-01 0.27983371E+03</pdfrwt>
<totfact> 0.20758599E+04</totfact>
</mgrwt>
</event>
<event>
 5    0  0.1856407E+000  0.2459895E+03  0.7546771E-02  0.1115866E+00
         21   -1    0    0  502  501  0.00000000000E+00  0.00000000000E+00  0.15783186466E+04  0.15783186466E+04  0.00000000000E+00 0. -1.
         21   -1    0    0  503  502 -0.00000000000E+00 -0.00000000000E+00 -0.10757500354E+03  0.10757500354E+03  0.00000000000E+00 0.  1.
         25    1    1    2    0    0  0.17982733329E+03  0.11201763906E+03  0.14479300167E+04  0.14686770082E+04  0.12500000000E+03 0.  0.
         21    1    1    2  503  504 -0.13999971249E+02 -0.16197424123E+02 -0.87204142233E+01  0.23117122819E+02  0.00000000000E+00 0. -1.
         21    1    1    2  504  501 -0.16582736204E+03 -0.95820214941E+02  0.31534040572E+02  0.19409951908E+03  0.00000000000E+00 0.  1.
<mgrwt>
<rscale>  4 0.24598947E+03</rscale>
<asrwt>0</asrwt>
<pdfrwt beam="1">  1       21 0.24281824E+00 0.24598947E+03</pdfrwt>
<pdfrwt beam="2">  1       21 0.16550002E-01 0.24598947E+03</pdfrwt>
<totfact> 0.22779827E+03</totfact>
</mgrwt>
</event>
<event>
 5    0  0.1856407E+000  0.2389410E+03  0.7546771E-02  0.1120500E+00
         21   -1    0    0  502  501  0.00000000000E+00  0.00000000000E+00  0.69798435577E+03  0.69798435577E+03  0.00000000000E+00 0. -1.
         21   -1    0    0  503  502 -0.00000000000E+00 -0.00000000000E+00 -0.24241263035E+03  0.24241263035E+03  0.00000000000E+00 0.  1.
         25    1    1    2    0    0 -0.19068016553E+03 -0.71476247498E+02  0.62418960785E+03  0.66836026664E+03  0.12500000000E+03 0.  0.
         21    1    1    2  503  504  0.27164281441E+02  0.24603310015E+02 -0.68281846821E+01  0.37280627087E+02  0.00000000000E+00 0. -1.
         21    1    1    2  504  501  0.16351588408E+03  0.46872937483E+02 -0.16178969775E+03  0.23475609239E+03  0.00000000000E+00 0.  1.
<mgrwt>
<rscale>  4 0.23894095E+03</rscale>
<asrwt>0</asrwt>
<pdfrwt beam="1">  1       21 0.10738221E+00 0.23894095E+03</pdfrwt>
<pdfrwt beam="2">  1       21 0.37294251E-01 0.23894095E+03</pdfrwt>
<totfact> 0.46371828E+03</totfact>
</mgrwt>
</event>
<event>
 5    0  0.1856407E+000  0.4979229E+03  0.7546771E-02  0.1014322E+00
         21   -1    0    0  502  501  0.00000000000E+00  0.00000000000E+00  0.12494019248E+04  0.12494019248E+04  0.00000000000E+00 0. -1.
         21   -1    0    0  503  502 -0.00000000000E+00 -0.00000000000E+00 -0.26511968042E+03  0.26511968042E+03  0.00000000000E+00 0. -1.
         25    1    1    2    0    0 -0.44171204051E+03  0.19285407996E+03  0.10706288760E+03  0.50930313645E+03  0.12500000000E+03 0.  0.
         21    1    1    2  503  504  0.38915555605E+03 -0.16764918130E+03  0.69583849136E+03  0.81470209331E+03  0.00000000000E+00 0. -1.
         21    1    1    2  504  501  0.52556484464E+02 -0.25204898658E+02  0.18138086539E+03  0.19051637542E+03  0.00000000000E+00 0. -1.
<mgrwt>
<rscale>  4 0.49792291E+03</rscale>
<asrwt>0</asrwt>
<pdfrwt beam="1">  1       21 0.19221568E+00 0.49792291E+03</pdfrwt>
<pdfrwt beam="2">  1       21 0.40787644E-01 0.49792291E+03</pdfrwt>
<totfact> 0.71050012E+02</totfact>
</mgrwt>
</event>
<event>
 5    0  0.1856407E+000  0.2049548E+03  0.7546771E-02  0.1145625E+00
         21   -1    0    0  502  501  0.00000000000E+00  0.00000000000E+00  0.51971400803E+03  0.51971400803E+03  0.00000000000E+00 0.  1.
         21   -1    0    0  503  502 -0.00000000000E+00 -0.00000000000E+00 -0.13004474190E+03  0.13004474190E+03  0.00000000000E+00 0.  1.
         25    1    1    2    0    0  0.63597443939E+02  0.20234689411E+03  0.17653494451E+03  0.30294964444E+03  0.12500000000E+03 0.  0.
         21    1    1    2  503  504 -0.11653497485E+03 -0.91887747675E+02  0.14073033198E+03  0.20452086660E+03  0.00000000000E+00 0.  1.
         21    1    1    2  504  501  0.52937530912E+02 -0.11045914643E+03  0.72403989640E+02  0.14228823889E+03  0.00000000000E+00 0.  1.
<mgrwt>
<rscale>  4 0.20495476E+03</rscale>
<asrwt>0</asrwt>
<pdfrwt beam="1">  1       21 0.79956000E-01 0.20495476E+03</pdfrwt>
<pdfrwt beam="2">  1       21 0.20006884E-01 0.20495476E+03</pdfrwt>
<totfact> 0.31551030E+04</totfact>
</mgrwt>
</event>
<event>
 5    0  0.1856407E+000  0.4195346E+03  0.7546771E-02  0.1037218E+00
         21   -1    0    0  502  501  0.00000000000E+00  0.00000000000E+00  0.59845820045E+03  0.59845820045E+03  0.00000000000E+00 0. -1.
         21   -1    0    0  503  502 -0.00000000000E+00 -0.00000000000E+00 -0.29468049777E+03  0.29468049777E+03  0.00000000000E+00 0. -1.
         25    1    1    2    0    0 -0.30496318167E+03 -0.25957989472E+03  0.85379194471E+02  0.42813417379E+03  0.12500000000E+03 0.  0.
         21    1    1    2  503  504  0.30197257875E+03  0.23152383263E+03  0.19134457121E+03  0.42591486041E+03  0.00000000000E+00 0. -1.
         21    1    1    2  504  501  0.29906029183E+01  0.28056062097E+02  0.27053937004E+02  0.39089664026E+02  0.00000000000E+00 0.  1.
<mgrwt>
<rscale>  4 0.41953458E+03</rscale>
<asrwt>0</asrwt>
<pdfrwt beam="1">  1       21 0.92070492E-01 0.41953458E+03</pdfrwt>
<pdfrwt beam="2">  1       21 0.45335461E-01 0.41953458E+03</pdfrwt>
<totfact> 0.41151859E+03</totfact>
</mgrwt>
</event>
<event>
 5    0  0.1856407E+000  0.3461102E+03  0.7546771E-02  0.1064223E+00
         21   -1    0    0  502  501  0.00000000000E+00  0.00000000000E+00  0.38996580656E+03  0.38996580656E+03  0.00000000000E+00 0. -1.
         21   -1    0    0  503  502 -0.00000000000E+00 -0.00000000000E+00 -0.40290733294E+03  0.40290733294E+03  0.00000000000E+00 0. -1.
         25    1    1    2    0    0  0.31899270789E+03 -0.17983445970E+02 -0.17110148516E+03  0.38338032062E+03  0.12500000000E+03 0.  0.
         21    1    1    2  503  504  0.11331063442E+02  0.28711363564E+02  0.55347377031E+02  0.63372450959E+02  0.00000000000E+00 0. -1.
         21    1    1    2  504  501 -0.33032377133E+03 -0.10727917594E+02  0.10281258175E+03  0.34612036792E+03  0.00000000000E+00 0. -1.
<mgrwt>
<rscale>  4 0.34611020E+03</rscale>
<asrwt>0</asrwt>
<pdfrwt beam="1">  1       21 0.59994739E-01 0.34611020E+03</pdfrwt>
<pdfrwt beam="2">  1       21 0.61985744E-01 0.34611020E+03</pdfrwt>
<totfact> 0.57374607E+03</totfact>
</mgrwt>
</event>
<event>
 5    0  0.9283561E+000  0.3316242E+03  0.7546771E-02  0.1070420E+00
         21   -1    0    0  502  501  0.00000000000E+00  0.00000000000E+00  0.77506290616E+03  0.77506290616E+03  0.00000000000E+00 0. -1.
         21   -1    0    0  503  502 -0.00000000000E+00 -0.00000000000E+00 -0.19268407338E+03  0.19268407338E+03  0.00000000000E+00 0.  1.
         25    1    1    2    0    0  0.20735086644E+03  0.22661691766E+03  0.56316902539E+03  0.65355486406E+03  0.12500000000E+03 0.  0.
         21    1    1    2  503  504 -0.23222438953E+02 -0.24145133053E+01  0.38701402893E+01  0.23666210750E+02  0.00000000000E+00 0. -1.
         21    1    1    2  504  501 -0.18412842748E+03 -0.22420240436E+03  0.15339667102E+02  0.29052590472E+03  0.00000000000E+00 0.  1.
<mgrwt>
<rscale>  4 0.33162420E+03</rscale>
<asrwt>0</asrwt>
<pdfrwt beam="1">  1       21 0.11924045E+00 0.33162420E+03</pdfrwt>
<pdfrwt beam="2">  1       21 0.29643704E-01 0.33162420E+03</pdfrwt>
<totfact> 0.53745775E+03</totfact>
</mgrwt>
</event>
<event>
 5    0  0.1856407E+000  0.2771453E+03  0.7546771E-02  0.1097258E+00
         21   -1    0    0  502  501  0.00000000000E+00  0.00000000000E+00  0.14479778279E+04  0.14479778279E+04  0.00000000000E+00 0. -1.
         21   -1    0    0  503  502 -0.00000000000E+00 -0.00000000000E+00 -0.34104180470E+03  0.34104180470E+03  0.00000000000E+00 0.  1.
         25    1    1    2    0    0 -0.23372526167E+03 -0.80975525705E+02  0.13796027940E+04  0.14071650234E+04  0.12500000000E+03 0.  0.
         21    1    1    2  503  504  0.53656861963E+02  0.51837574294E+02 -0.35416075388E+02  0.82586266051E+02  0.00000000000E+00 0.  1.
         21    1    1    2  504  501  0.18006839971E+03  0.29137951411E+02 -0.23725069540E+03  0.29926834322E+03  0.00000000000E+00 0.  1.
<mgrwt>
<rscale>  4 0.27714533E+03</rscale>
<asrwt>0</asrwt>
<pdfrwt beam="1">  1       21 0.22276582E+00 0.27714533E+03</pdfrwt>
<pdfrwt beam="2">  1       21 0.52467971E-01 0.27714533E+03</pdfrwt>
<totfact> 0.30360020E+02</totfact>
</mgrwt>
</event>
<event>
 5    0  0.3077169E+000  0.2673274E+03  0.7546771E-02  0.1102819E+00
         21   -1    0    0  502  501  0.00000000000E+00  0.00000000000E+00  0.79473340280E+02  0.79473340280E+02  0.00000000000E+00 0.  1.
         21   -1    0    0  503  502 -0.00000000000E+00 -0.00000000000E+00 -0.13065873075E+04  0.13065873075E+04  0.00000000000E+00 0.  1.
         25    1    1    2    0    0 -0.23859327081E+03 -0.20428522586E+02 -0.22810963403E+03  0.35355774429E+03  0.12500000000E+03 0.  0.
         21    1    1    2  503  504  0.10532625098E+02  0.18141343845E+02 -0.21435534833E+03  0.21537933955E+03  0.00000000000E+00 0.  1.
         21    1    1    2  504  501  0.22806064571E+03  0.22871787418E+01 -0.78464898490E+03  0.81712356398E+03  0.00000000000E+00 0.  1.
<mgrwt>
<rscale>  4 0.26732736E+03</rscale>
<asrwt>0</asrwt>
<pdfrwt beam="1">  1       21 0.12226667E-01 0.26732736E+03</pdfrwt>
<pdfrwt beam="2">  1       21 0.20101344E+00 0.26732736E+03</pdfrwt>
<totfact> 0.70896589E+03</totfact>
</mgrwt>
</event>
<event>
 5    0  0.1856407E+000  0.2452463E+03  0.7546771E-02  0.1116346E+00
         21   -1    0    0  502  501  0.00000000000E+00  0.00000000000E+00  0.50785072594E+02  0.50785072594E+02  0.00000000000E+00 0.  1.
         21   -1    0    0  503  502 -0.00000000000E+00 -0.00000000000E+00 -0.10400227825E+04  0.10400227825E+04  0.00000000000E+00 0.  1.
         25    1    1    2    0    0 -0.16246350615E+02 -0.21037295603E+03 -0.49439093950E+03  0.55187691163E+03  0.12500000000E+03 0.  0.
         21    1    1    2  503  504  0.23834307051E+02  0.17909560564E+03 -0.40428435348E+03  0.44281954408E+03  0.00000000000E+00 0.  1.
         21    1    1    2  504  501 -0.75879564365E+01  0.31277350388E+02 -0.90562416943E+02  0.96111399390E+02  0.00000000000E+00 0. -1.
<mgrwt>
<rscale>  4 0.24524625E+03</rscale>
<asrwt>0</asrwt>
<pdfrwt beam="1">  1       21 0.78130883E-02 0.24524625E+03</pdfrwt>
<pdfrwt beam="2">  1       21 0.16000350E+00 0.24524625E+03</pdfrwt>
<totfact> 0.30512802E+04</totfact>
</mgrwt>
</event>
<event>
 5    0  0.1856407E+000  0.4838988E+03  0.7546771E-02  0.1018478E+00
         21   -1    0    0  502  501  0.00000000000E+00  0.00000000000E+00  0.18091995306E+04  0.18091995306E+04  0.00000000000E+00 0.  1.
         21   -1    0    0  503  502 -0.00000000000E+00 -0.00000000000E+00 -0.24310472270E+03  0.24310472270E+03  0.00000000000E+00 0.  1.
         25    1    1    2    0    0  0.37597378842E+01 -0.46127478651E+03  0.14870854849E+04  0.15619976964E+04  0.12500000000E+03 0.  0.
         21    1    1    2  503  504  0.43732842421E+02  0.40160301681E+03  0.43921940942E+02  0.40635782448E+03  0.00000000000E+00 0.  1.
         21    1    1    2  504  501 -0.47492580305E+02  0.59671769695E+02  0.35087382014E+02  0.83948732326E+02  0.00000000000E+00 0.  1.
<mgrwt>
<rscale>  4 0.48239872E+03</rscale>
<asrwt>0</asrwt>
<pdfrwt beam="1">  1       21 0.27833838E+00 0.48389880E+03</pdfrwt>
<pdfrwt beam="2">  1       21 0.37400728E-01 0.48389880E+03</pdfrwt>
<totfact> 0.24378037E+02</totfact>
</mgrwt>
</event>
<event>
 5    0  0.1856407E+000  0.2549071E+03  0.7546771E-02  0.1110242E+00
         21   -1    0    0  502  501  0.00000000000E+00  0.00000000000E+00  0.13548921476E+03  0.13548921476E+03  0.00000000000E+00 0. -1.
         21   -1    0    0  503  502 -0.00000000000E+00 -0.00000000000E+00 -0.47277468986E+03  0.47277468986E+03  0.00000000000E+00 0. -1.
         25    1    1    2    0    0  0.21536983027E+03  0.54483450556E+02 -0.84197007013E+02  0.26845250263E+03  0.12500000000E+03 0.  0.
         21    1    1    2  503  504 -0.12706062499E+03 -0.42217469384E+02 -0.18109854969E+03  0.22521856461E+03  0.00000000000E+00 0. -1.
         21    1    1    2  504  501 -0.88309205278E+02 -0.12265981172E+02 -0.71989918393E+02  0.11459283739E+03  0.00000000000E+00 0. -1.
<mgrwt>
<rscale>  4 0.25490706E+03</rscale>
<asrwt>0</asrwt>
<pdfrwt beam="1">  1       21 0.20844494E-01 0.25490706E+03</pdfrwt>
<pdfrwt beam="2">  1       21 0.72734568E-01 0.25490706E+03</pdfrwt>
<totfact> 0.35288152E+04</totfact>
</mgrwt>
</event>
