<event>
 5    0  0.2193454E+000  0.2550354E+03  0.7546771E-02  0.1110163E+00
         21   -1    0    0  503  501  0.00000000000E+00  0.00000000000E+00  0.53968639302E+03  0.53968639302E+03  0.00000000000E+00 0.  1.
         21   -1    0    0  504  502 -0.00000000000E+00 -0.00000000000E+00 -0.26101957150E+04  0.26101957150E+04  0.00000000000E+00 0. -1.
         25    1    1    2    0    0 -0.16539302138E+03 -0.14884865062E+03 -0.25763425037E+04  0.25889527745E+04  0.12500000000E+03 0.  0.
         21    1    1    2  503  502  0.16533222060E+03  0.12832164557E+03  0.38354363077E+03  0.43692894685E+03  0.00000000000E+00 0.  1.
         21    1    1    2  504  501  0.60800778561E-01  0.20527005047E+02  0.12228955092E+03  0.12400038668E+03  0.00000000000E+00 0.  1.
<mgrwt>
<rscale>  4 0.25503542E+03</rscale>
<asrwt>0</asrwt>
<pdfrwt beam="1">  1       21 0.83028676E-01 0.25503542E+03</pdfrwt>
<pdfrwt beam="2">  1       21 0.40156857E+00 0.25503542E+03</pdfrwt>
<totfact> 0.96040903E+00</totfact>
</mgrwt>
</event>
<event>
 5    0  0.2193454E+000  0.3196795E+03  0.7546771E-02  0.1075797E+00
         21   -1    0    0  503  501  0.00000000000E+00  0.00000000000E+00  0.90844114524E+03  0.90844114524E+03  0.00000000000E+00 0. -1.
         21   -1    0    0  501  502 -0.00000000000E+00 -0.00000000000E+00 -0.11912741548E+03  0.11912741548E+03  0.00000000000E+00 0. -1.
         25    1    1    2    0    0 -0.19575811958E+03 -0.21965599492E+03  0.23778868301E+03  0.39841994836E+03  0.12500000000E+03 0.  0.
         21    1    1    2  503  504  0.17968590519E+02  0.15244961539E+02  0.98675215069E+02  0.10144987514E+03  0.00000000000E+00 0.  1.
         21    1    1    2  504  502  0.17778952906E+03  0.20441103338E+03  0.45284983168E+03  0.52769873722E+03  0.00000000000E+00 0. -1.
<mgrwt>
<rscale>  4 0.31967952E+03</rscale>
<asrwt>0</asrwt>
<pdfrwt beam="1">  1       21 0.13976017E+00 0.31967952E+03</pdfrwt>
<pdfrwt beam="2">  1       21 0.18327295E-01 0.31967952E+03</pdfrwt>
<totfact> 0.90509532E+03</totfact>
</mgrwt>
</event>
<event>
 5    0  0.2193454E+000  0.2736990E+03  0.7546771E-02  0.1099181E+00
         21   -1    0    0  503  501  0.00000000000E+00  0.00000000000E+00  0.50238898177E+03  0.50238898177E+03  0.00000000000E+00 0. -1.
         21   -1    0    0  501  502 -0.00000000000E+00 -0.00000000000E+00 -0.28182772555E+03  0.28182772555E+03  0.00000000000E+00 0. -1.
         25    1    1    2    0    0  0.52920284946E+02 -0.23373461315E+03 -0.14057570680E+03  0.30466203454E+03  0.12500000000E+03 0.  0.
         21    1    1    2  503  504  0.51522426349E+02 -0.79187836443E+01  0.64998311931E+02  0.83318954057E+02  0.00000000000E+00 0. -1.
         21    1    1    2  504  502 -0.10444271130E+03  0.24165339680E+03  0.29613865109E+03  0.39623571873E+03  0.00000000000E+00 0. -1.
<mgrwt>
<rscale>  4 0.27369898E+03</rscale>
<asrwt>0</asrwt>
<pdfrwt beam="1">  1       21 0.77290612E-01 0.27369898E+03</pdfrwt>
<pdfrwt beam="2">  1       21 0.43358112E-01 0.27369898E+03</pdfrwt>
<totfact> 0.72219802E+03</totfact>
</mgrwt>
</event>
<event>
 5    0  0.2193454E+000  0.2740876E+03  0.7546771E-02  0.1098963E+00
         21   -1    0    0  503  501  0.00000000000E+00  0.00000000000E+00  0.29900682955E+03  0.29900682955E+03  0.00000000000E+00 0.  1.
         21   -1    0    0  501  502 -0.00000000000E+00 -0.00000000000E+00 -0.41034074613E+03  0.41034074613E+03  0.00000000000E+00 0.  1.
         25    1    1    2    0    0 -0.20973546559E+03 -0.13145880521E+03 -0.27031459284E+03  0.38725361470E+03  0.12500000000E+03 0.  0.
         21    1    1    2  503  504 -0.80329324289E+01  0.44874819935E+02  0.21621530904E+02  0.50455604904E+02  0.00000000000E+00 0.  1.
         21    1    1    2  504  502  0.21776839802E+03  0.86583985278E+02  0.13735914535E+03  0.27163835608E+03  0.00000000000E+00 0.  1.
<mgrwt>
<rscale>  4 0.27408763E+03</rscale>
<asrwt>0</asrwt>
<pdfrwt beam="1">  1       21 0.46001051E-01 0.27408763E+03</pdfrwt>
<pdfrwt beam="2">  1       21 0.63129346E-01 0.27408763E+03</pdfrwt>
<totfact> 0.10021708E+04</totfact>
</mgrwt>
</event>
<event>
 5    0  0.2193454E+000  0.2718668E+03  0.7546771E-02  0.1100216E+00
         21   -1    0    0  503  501  0.00000000000E+00  0.00000000000E+00  0.13218153573E+03  0.13218153573E+03  0.00000000000E+00 0. -1.
         21   -1    0    0  504  502 -0.00000000000E+00 -0.00000000000E+00 -0.11745600025E+04  0.11745600025E+04  0.00000000000E+00 0. -1.
         25    1    1    2    0    0  0.21017201909E+03  0.10980320236E+03 -0.92374647283E+03  0.96185319406E+03  0.12500000000E+03 0.  0.
         21    1    1    2  503  502 -0.23029118676E+03 -0.11592296927E+03 -0.15647841566E+03  0.30159187667E+03  0.00000000000E+00 0. -1.
         21    1    1    2  504  501  0.20119167666E+02  0.61197669183E+01  0.37846421758E+02  0.43296467461E+02  0.00000000000E+00 0. -1.
<mgrwt>
<rscale>  4 0.27186683E+03</rscale>
<asrwt>0</asrwt>
<pdfrwt beam="1">  1       21 0.20335622E-01 0.27186683E+03</pdfrwt>
<pdfrwt beam="2">  1       21 0.18070153E+00 0.27186683E+03</pdfrwt>
<totfact> 0.37827549E+03</totfact>
</mgrwt>
</event>
<event>
 5    0  0.2193454E+000  0.2230906E+03  0.7546771E-02  0.1131600E+00
         21   -1    0    0  503  501  0.00000000000E+00  0.00000000000E+00  0.22716751053E+04  0.22716751053E+04  0.00000000000E+00 0. -1.
         21   -1    0    0  504  502 -0.00000000000E+00 -0.00000000000E+00 -0.58853951834E+02  0.58853951834E+02  0.00000000000E+00 0.  1.
         25    1    1    2    0    0  0.22523540211E+03  0.44223367126E+02  0.73032270110E+03  0.77568224184E+03  0.12500000000E+03 0.  0.
         21    1    1    2  503  502 -0.17139886548E+03 -0.19331047123E+02  0.17399947871E+03  0.24500424295E+03  0.00000000000E+00 0.  1.
         21    1    1    2  504  501 -0.53836536629E+02 -0.24892320002E+02  0.13084989736E+04  0.13098425723E+04  0.00000000000E+00 0. -1.
<mgrwt>
<rscale>  4 0.22309056E+03</rscale>
<asrwt>0</asrwt>
<pdfrwt beam="1">  1       21 0.34948841E+00 0.22309056E+03</pdfrwt>
<pdfrwt beam="2">  1       21 0.90544559E-02 0.22309056E+03</pdfrwt>
<totfact> 0.16353812E+03</totfact>
</mgrwt>
</event>
<event>
 5    0  0.2193454E+000  0.2419154E+03  0.7546771E-02  0.1118523E+00
         21   -1    0    0  503  501  0.00000000000E+00  0.00000000000E+00  0.60615367053E+03  0.60615367053E+03  0.00000000000E+00 0.  1.
         21   -1    0    0  504  502 -0.00000000000E+00 -0.00000000000E+00 -0.32012377355E+03  0.32012377355E+03  0.00000000000E+00 0.  1.
         25    1    1    2    0    0 -0.16184997721E+03 -0.13096542004E+03 -0.24341459880E+03  0.34383575044E+03  0.12500000000E+03 0.  0.
         21    1    1    2  503  502  0.16888705220E+03  0.10692363774E+03  0.36544449256E+03  0.41653952736E+03  0.00000000000E+00 0.  1.
         21    1    1    2  504  501 -0.70370749906E+01  0.24041782306E+02  0.16400000322E+03  0.16590216628E+03  0.00000000000E+00 0.  1.
<mgrwt>
<rscale>  4 0.24191540E+03</rscale>
<asrwt>0</asrwt>
<pdfrwt beam="1">  1       21 0.93254411E-01 0.24191540E+03</pdfrwt>
<pdfrwt beam="2">  1       21 0.49249811E-01 0.24191540E+03</pdfrwt>
<totfact> 0.36644578E+03</totfact>
</mgrwt>
</event>
<event>
 5    0  0.2193454E+000  0.2747245E+03  0.7546771E-02  0.1098606E+00
         21   -1    0    0  503  501  0.00000000000E+00  0.00000000000E+00  0.20808712059E+03  0.20808712059E+03  0.00000000000E+00 0. -1.
         21   -1    0    0  501  502 -0.00000000000E+00 -0.00000000000E+00 -0.40982699310E+03  0.40982699310E+03  0.00000000000E+00 0. -1.
         25    1    1    2    0    0  0.39797228383E+02  0.25151286461E+03 -0.11739208520E+03  0.30699909139E+03  0.12500000000E+03 0.  0.
         21    1    1    2  503  504 -0.41269880796E+02 -0.13497713732E+02  0.23757506516E+02  0.49495559930E+02  0.00000000000E+00 0.  1.
         21    1    1    2  504  502  0.14726524133E+01 -0.23801515088E+03 -0.10810529383E+03  0.26141946237E+03  0.00000000000E+00 0. -1.
<mgrwt>
<rscale>  4 0.27472449E+03</rscale>
<asrwt>0</asrwt>
<pdfrwt beam="1">  1       21 0.32013403E-01 0.27472449E+03</pdfrwt>
<pdfrwt beam="2">  1       21 0.63050307E-01 0.27472449E+03</pdfrwt>
<totfact> 0.20947112E+04</totfact>
</mgrwt>
</event>
<event>
 5    0  0.2193454E+000  0.3177019E+03  0.7546771E-02  0.1076712E+00
         21   -1    0    0  502  501  0.00000000000E+00  0.00000000000E+00  0.12189155247E+03  0.12189155247E+03  0.00000000000E+00 0.  1.
         21   -1    0    0  504  502 -0.00000000000E+00 -0.00000000000E+00 -0.16740289372E+04  0.16740289372E+04  0.00000000000E+00 0.  1.
         25    1    1    2    0    0 -0.99000148831E+02  0.26823952393E+03 -0.13963567446E+04  0.14308006954E+04  0.12500000000E+03 0.  0.
         21    1    1    2  503  501  0.12131636660E+03 -0.26680571095E+03 -0.10798570673E+03  0.31235214271E+03  0.00000000000E+00 0.  1.
         21    1    1    2  504  503 -0.22316217768E+02 -0.14338129773E+01 -0.47794933334E+02  0.52767651526E+02  0.00000000000E+00 0. -1.
<mgrwt>
<rscale>  4 0.31770193E+03</rscale>
<asrwt>0</asrwt>
<pdfrwt beam="1">  1       21 0.18752546E-01 0.31770193E+03</pdfrwt>
<pdfrwt beam="2">  1       21 0.25754292E+00 0.31770193E+03</pdfrwt>
<totfact> 0.13914168E+03</totfact>
</mgrwt>
</event>
<event>
 5    0  0.2193454E+000  0.2582667E+03  0.7546771E-02  0.1108189E+00
         21   -1    0    0  502  501  0.00000000000E+00  0.00000000000E+00  0.45248545922E+03  0.45248545922E+03  0.00000000000E+00 0. -1.
         21   -1    0    0  504  502 -0.00000000000E+00 -0.00000000000E+00 -0.17797883065E+03  0.17797883065E+03  0.00000000000E+00 0.  1.
         25    1    1    2    0    0  0.12494797737E+03 -0.18223035391E+03  0.14896856546E+01  0.25386436949E+03  0.12500000000E+03 0.  0.
         21    1    1    2  503  501 -0.12327320831E+03  0.20351205323E+03  0.24730369085E+03  0.34318006237E+03  0.00000000000E+00 0. -1.
         21    1    1    2  504  503 -0.16747690569E+01 -0.21281699319E+02  0.25713252071E+02  0.33419858009E+02  0.00000000000E+00 0.  1.
<mgrwt>
<rscale>  4 0.25826669E+03</rscale>
<asrwt>0</asrwt>
<pdfrwt beam="1">  1       21 0.69613147E-01 0.25826669E+03</pdfrwt>
<pdfrwt beam="2">  1       21 0.27381359E-01 0.25826669E+03</pdfrwt>
<totfact> 0.23053607E+04</totfact>
</mgrwt>
</event>
<event>
 5    0  0.2193454E+000  0.2703043E+03  0.7546771E-02  0.1101106E+00
         21   -1    0    0  503  501  0.00000000000E+00  0.00000000000E+00  0.72914136920E+03  0.72914136920E+03  0.00000000000E+00 0. -1.
         21   -1    0    0  504  502 -0.00000000000E+00 -0.00000000000E+00 -0.81298231219E+03  0.81298231219E+03  0.00000000000E+00 0. -1.
         25    1    1    2    0    0  0.32144823216E+03 -0.59704119600E+02 -0.50343504863E+03  0.61316017161E+03  0.12500000000E+03 0.  0.
         21    1    1    2  503  502 -0.15510704100E+03  0.10980587897E+03 -0.20566207321E+03  0.28002216623E+03  0.00000000000E+00 0. -1.
         21    1    1    2  504  501 -0.16634119116E+03 -0.50101759372E+02  0.62525617886E+03  0.64894134355E+03  0.00000000000E+00 0. -1.
<mgrwt>
<rscale>  4 0.27030434E+03</rscale>
<asrwt>0</asrwt>
<pdfrwt beam="1">  1       21 0.11217559E+00 0.27030434E+03</pdfrwt>
<pdfrwt beam="2">  1       21 0.12507420E+00 0.27030434E+03</pdfrwt>
<totfact> 0.27389982E+02</totfact>
</mgrwt>
</event>
<event>
 5    0  0.2193454E+000  0.3161948E+03  0.7546771E-02  0.1077414E+00
         21   -1    0    0  502  501  0.00000000000E+00  0.00000000000E+00  0.93772412383E+03  0.93772412383E+03  0.00000000000E+00 0.  1.
         21   -1    0    0  504  502 -0.00000000000E+00 -0.00000000000E+00 -0.60175309968E+03  0.60175309968E+03  0.00000000000E+00 0.  1.
         25    1    1    2    0    0  0.21481524937E+03  0.17763276662E+02 -0.50727381055E+03  0.56516620939E+03  0.12500000000E+03 0.  0.
         21    1    1    2  503  501 -0.28140003242E+03 -0.85863430191E+02  0.82689492762E+03  0.87767518377E+03  0.00000000000E+00 0.  1.
         21    1    1    2  504  503  0.66584783043E+02  0.68100153529E+02  0.16349907083E+02  0.96635830339E+02  0.00000000000E+00 0.  1.
<mgrwt>
<rscale>  4 0.31619481E+03</rscale>
<asrwt>0</asrwt>
<pdfrwt beam="1">  1       21 0.14426525E+00 0.31619481E+03</pdfrwt>
<pdfrwt beam="2">  1       21 0.92577400E-01 0.31619481E+03</pdfrwt>
<totfact> 0.29012092E+02</totfact>
</mgrwt>
</event>
<event>
 5    0  0.2193454E+000  0.3643903E+03  0.7546771E-02  0.1056859E+00
         21   -1    0    0  503  501  0.00000000000E+00  0.00000000000E+00  0.49118344170E+03  0.49118344170E+03  0.00000000000E+00 0.  1.
         21   -1    0    0  504  502 -0.00000000000E+00 -0.00000000000E+00 -0.49835856128E+03  0.49835856128E+03  0.00000000000E+00 0.  1.
         25    1    1    2    0    0  0.55345855736E+02  0.32268905031E+03 -0.22583609454E+03  0.41691525342E+03  0.12500000000E+03 0.  0.
         21    1    1    2  503  502 -0.84750608350E+02 -0.36434570955E+03  0.27836167579E+02  0.37510706993E+03  0.00000000000E+00 0.  1.
         21    1    1    2  504  501  0.29404752614E+02  0.41656659243E+02  0.19082480737E+03  0.19751967964E+03  0.00000000000E+00 0.  1.
<mgrwt>
<rscale>  4 0.36439027E+03</rscale>
<asrwt>0</asrwt>
<pdfrwt beam="1">  1       21 0.75566683E-01 0.36439027E+03</pdfrwt>
<pdfrwt beam="2">  1       21 0.76670548E-01 0.36439027E+03</pdfrwt>
<totfact> 0.21184097E+03</totfact>
</mgrwt>
</event>
<event>
 5    0  0.2193454E+000  0.2617423E+03  0.7546771E-02  0.1106101E+00
         21   -1    0    0  503  501  0.00000000000E+00  0.00000000000E+00  0.15292874470E+03  0.15292874470E+03  0.00000000000E+00 0.  1.
         21   -1    0    0  501  502 -0.00000000000E+00 -0.00000000000E+00 -0.50369371379E+03  0.50369371379E+03  0.00000000000E+00 0.  1.
         25    1    1    2    0    0  0.21448375308E+03  0.34573181647E+02 -0.12755528327E+03  0.28123644059E+03  0.12500000000E+03 0.  0.
         21    1    1    2  503  504 -0.23160962599E+03 -0.83046988679E+02 -0.15825543206E+03  0.29254846258E+03  0.00000000000E+00 0.  1.
         21    1    1    2  504  502  0.17125872911E+02  0.48473807032E+02 -0.64954253757E+02  0.82837555325E+02  0.00000000000E+00 0.  1.
<mgrwt>
<rscale>  4 0.26174226E+03</rscale>
<asrwt>0</asrwt>
<pdfrwt beam="1">  1       21 0.23527499E-01 0.26174226E+03</pdfrwt>
<pdfrwt beam="2">  1       21 0.77491340E-01 0.26174226E+03</pdfrwt>
<totfact> 0.24240850E+04</totfact>
</mgrwt>
</event>
<event>
 5    0  0.2193454E+000  0.2618984E+03  0.7546771E-02  0.1106008E+00
         21   -1    0    0  502  501  0.00000000000E+00  0.00000000000E+00  0.12211620740E+04  0.12211620740E+04  0.00000000000E+00 0. -1.
         21   -1    0    0  504  502 -0.00000000000E+00 -0.00000000000E+00 -0.22648874403E+03  0.22648874403E+03  0.00000000000E+00 0.  1.
         25    1    1    2    0    0  0.11717680631E+03  0.21319040853E+03 -0.11461369172E+03  0.29654991579E+03  0.12500000000E+03 0.  0.
         21    1    1    2  503  501  0.10331690019E+01 -0.17438257104E+03  0.50864133435E+03  0.53770471035E+03  0.00000000000E+00 0. -1.
         21    1    1    2  504  503 -0.11820997531E+03 -0.38807837490E+02  0.60064568730E+03  0.61339619186E+03  0.00000000000E+00 0.  1.
<mgrwt>
<rscale>  4 0.26189842E+03</rscale>
<asrwt>0</asrwt>
<pdfrwt beam="1">  1       21 0.18787108E+00 0.26189842E+03</pdfrwt>
<pdfrwt beam="2">  1       21 0.34844423E-01 0.26189842E+03</pdfrwt>
<totfact> 0.11987052E+03</totfact>
</mgrwt>
</event>
<event>
 5    0  0.2193454E+000  0.3903945E+03  0.7546771E-02  0.1047157E+00
         21   -1    0    0  503  501  0.00000000000E+00  0.00000000000E+00  0.46010953581E+03  0.46010953581E+03  0.00000000000E+00 0.  1.
         21   -1    0    0  501  502 -0.00000000000E+00 -0.00000000000E+00 -0.37197183862E+03  0.37197183862E+03  0.00000000000E+00 0.  1.
         25    1    1    2    0    0  0.30504595832E+03  0.19332619087E+03 -0.75659411483E+02  0.38958618983E+03  0.12500000000E+03 0.  0.
         21    1    1    2  503  504  0.17726677045E+02  0.17878881929E+02  0.71933419721E+01  0.26184607440E+02  0.00000000000E+00 0.  1.
         21    1    1    2  504  502 -0.32277263536E+03 -0.21120507279E+03  0.15660376670E+03  0.41631057716E+03  0.00000000000E+00 0.  1.
<mgrwt>
<rscale>  4 0.39039445E+03</rscale>
<asrwt>0</asrwt>
<pdfrwt beam="1">  1       21 0.70786082E-01 0.39039445E+03</pdfrwt>
<pdfrwt beam="2">  1       21 0.57226437E-01 0.39039445E+03</pdfrwt>
<totfact> 0.46512160E+03</totfact>
</mgrwt>
</event>
<event>
 5    0  0.2193454E+000  0.2917014E+03  0.7546771E-02  0.1089464E+00
         21   -1    0    0  503  501  0.00000000000E+00  0.00000000000E+00  0.25087596188E+03  0.25087596188E+03  0.00000000000E+00 0. -1.
         21   -1    0    0  504  502 -0.00000000000E+00 -0.00000000000E+00 -0.35257881070E+03  0.35257881070E+03  0.00000000000E+00 0. -1.
         25    1    1    2    0    0  0.25652276036E+03  0.60504433963E+02 -0.13511048372E+03  0.32147248081E+03  0.12500000000E+03 0.  0.
         21    1    1    2  503  502 -0.11250388119E+03 -0.70320871662E+02  0.36478410798E+02  0.13759659417E+03  0.00000000000E+00 0. -1.
         21    1    1    2  504  501 -0.14401887917E+03  0.98164376993E+01 -0.30707758917E+01  0.14438569760E+03  0.00000000000E+00 0. -1.
<mgrwt>
<rscale>  4 0.29170141E+03</rscale>
<asrwt>0</asrwt>
<pdfrwt beam="1">  1       21 0.38596302E-01 0.29170141E+03</pdfrwt>
<pdfrwt beam="2">  1       21 0.54242894E-01 0.29170141E+03</pdfrwt>
<totfact> 0.19782394E+04</totfact>
</mgrwt>
</event>
<event>
 5    0  0.2193454E+000  0.3127228E+03  0.7546771E-02  0.1079048E+00
         21   -1    0    0  502  501  0.00000000000E+00  0.00000000000E+00  0.27304589634E+03  0.27304589634E+03  0.00000000000E+00 0. -1.
         21   -1    0    0  504  502 -0.00000000000E+00 -0.00000000000E+00 -0.11021364684E+04  0.11021364684E+04  0.00000000000E+00 0. -1.
         25    1    1    2    0    0  0.12185733467E+03 -0.25946351432E+03 -0.99319943999E+03  0.10412687707E+04  0.12500000000E+03 0.  0.
         21    1    1    2  503  501 -0.11279992785E+03  0.23205321227E+03  0.16265951266E+03  0.30500923610E+03  0.00000000000E+00 0. -1.
         21    1    1    2  504  503 -0.90574068129E+01  0.27410302050E+02  0.14493552558E+01  0.28904357930E+02  0.00000000000E+00 0. -1.
<mgrwt>
<rscale>  4 0.31272276E+03</rscale>
<asrwt>0</asrwt>
<pdfrwt beam="1">  1       21 0.42007062E-01 0.31272276E+03</pdfrwt>
<pdfrwt beam="2">  1       21 0.16955945E+00 0.31272276E+03</pdfrwt>
<totfact> 0.10604996E+03</totfact>
</mgrwt>
</event>
<event>
 5    0  0.2193454E+000  0.3926114E+03  0.7546771E-02  0.1046369E+00
         21   -1    0    0  503  501  0.00000000000E+00  0.00000000000E+00  0.20047555722E+04  0.20047555722E+04  0.00000000000E+00 0.  1.
         21   -1    0    0  504  502 -0.00000000000E+00 -0.00000000000E+00 -0.19253327637E+03  0.19253327637E+03  0.00000000000E+00 0.  1.
         25    1    1    2    0    0 -0.11363286921E+03  0.37362020177E+03  0.13801470079E+03  0.43264019898E+03  0.12500000000E+03 0.  0.
         21    1    1    2  503  502  0.14166715206E+03 -0.30227768556E+03  0.59126080374E+03  0.67899242941E+03  0.00000000000E+00 0.  1.
         21    1    1    2  504  501 -0.28034282846E+02 -0.71342516208E+02  0.10829467913E+04  0.10856562202E+04  0.00000000000E+00 0.  1.
<mgrwt>
<rscale>  4 0.39261144E+03</rscale>
<asrwt>0</asrwt>
<pdfrwt beam="1">  1       21 0.30842392E+00 0.39261144E+03</pdfrwt>
<pdfrwt beam="2">  1       21 0.29620505E-01 0.39261144E+03</pdfrwt>
<totfact> 0.27186297E+02</totfact>
</mgrwt>
</event>
<event>
 5    0  0.2193454E+000  0.3408065E+03  0.7546771E-02  0.1066453E+00
         21   -1    0    0  502  501  0.00000000000E+00  0.00000000000E+00  0.22870634852E+03  0.22870634852E+03  0.00000000000E+00 0. -1.
         21   -1    0    0  503  502 -0.00000000000E+00 -0.00000000000E+00 -0.60996474163E+03  0.60996474163E+03  0.00000000000E+00 0.  1.
         25    1    1    2    0    0  0.30881825980E+03 -0.71800823129E+02 -0.38522774309E+03  0.51434374676E+03  0.12500000000E+03 0.  0.
         21    1    1    2  503  504 -0.53580945608E+02  0.29671645550E+02  0.21826442153E+02  0.65020903246E+02  0.00000000000E+00 0. -1.
         21    1    1    2  504  501 -0.25523731419E+03  0.42129177579E+02 -0.17857092171E+02  0.25930644014E+03  0.00000000000E+00 0. -1.
<mgrwt>
<rscale>  4 0.34080651E+03</rscale>
<asrwt>0</asrwt>
<pdfrwt beam="1">  1       21 0.35185592E-01 0.34080651E+03</pdfrwt>
<pdfrwt beam="2">  1       21 0.93840730E-01 0.34080651E+03</pdfrwt>
<totfact> 0.68260688E+03</totfact>
</mgrwt>
</event>
<event>
 5    0  0.2193454E+000  0.2545598E+03  0.7546771E-02  0.1110457E+00
         21   -1    0    0  503  501  0.00000000000E+00  0.00000000000E+00  0.10662641173E+04  0.10662641173E+04  0.00000000000E+00 0.  1.
         21   -1    0    0  501  502 -0.00000000000E+00 -0.00000000000E+00 -0.21359626261E+03  0.21359626261E+03  0.00000000000E+00 0.  1.
         25    1    1    2    0    0 -0.19777285154E+03 -0.86750131213E+02 -0.23073771460E+02  0.25059346560E+03  0.12500000000E+03 0.  0.
         21    1    1    2  503  504  0.21054553962E+02 -0.74332706217E+02  0.75945226414E+03  0.76337172267E+03  0.00000000000E+00 0.  1.
         21    1    1    2  504  502  0.17671829758E+03  0.16108283743E+03  0.11628936198E+03  0.26589519161E+03  0.00000000000E+00 0.  1.
<mgrwt>
<rscale>  4 0.25455983E+03</rscale>
<asrwt>0</asrwt>
<pdfrwt beam="1">  1       21 0.16404063E+00 0.25455983E+03</pdfrwt>
<pdfrwt beam="2">  1       21 0.32860964E-01 0.25455983E+03</pdfrwt>
<totfact> 0.19878471E+03</totfact>
</mgrwt>
</event>
<event>
 5    0  0.2193454E+000  0.2807300E+03  0.7546771E-02  0.1095291E+00
         21   -1    0    0  503  501  0.00000000000E+00  0.00000000000E+00  0.60546523274E+02  0.60546523274E+02  0.00000000000E+00 0.  1.
         21   -1    0    0  501  502 -0.00000000000E+00 -0.00000000000E+00 -0.18726098363E+04  0.18726098363E+04  0.00000000000E+00 0.  1.
         25    1    1    2    0    0 -0.23719042425E+03  0.68153872394E+02 -0.12269274774E+04  0.12577282228E+04  0.12500000000E+03 0.  0.
         21    1    1    2  503  504  0.23324328349E+03 -0.12362429809E+03 -0.54882976645E+03  0.60901519596E+03  0.00000000000E+00 0.  1.
         21    1    1    2  504  502  0.39471407659E+01  0.55470425694E+02 -0.36306069195E+02  0.66412940812E+02  0.00000000000E+00 0.  1.
<mgrwt>
<rscale>  4 0.28073004E+03</rscale>
<asrwt>0</asrwt>
<pdfrwt beam="1">  1       21 0.93148489E-02 0.28073004E+03</pdfrwt>
<pdfrwt beam="2">  1       21 0.28809385E+00 0.28073004E+03</pdfrwt>
<totfact> 0.33732657E+03</totfact>
</mgrwt>
</event>
<event>
 5    0  0.2193454E+000  0.2344533E+03  0.7546771E-02  0.1123544E+00
         21   -1    0    0  502  501  0.00000000000E+00  0.00000000000E+00  0.24491091161E+04  0.24491091161E+04  0.00000000000E+00 0. -1.
         21   -1    0    0  504  502 -0.00000000000E+00 -0.00000000000E+00 -0.56525741559E+02  0.56525741559E+02  0.00000000000E+00 0.  1.
         25    1    1    2    0    0  0.17667268281E+03  0.97316053647E+02  0.22605549557E+03  0.32773424940E+03  0.12500000000E+03 0.  0.
         21    1    1    2  503  501 -0.15156590486E+03 -0.83929334004E+02  0.20707710646E+04  0.20780060536E+04  0.00000000000E+00 0. -1.
         21    1    1    2  504  503 -0.25106777958E+02 -0.13386719643E+02  0.95756814385E+02  0.99894554724E+02  0.00000000000E+00 0. -1.
<mgrwt>
<rscale>  4 0.23445325E+03</rscale>
<asrwt>0</asrwt>
<pdfrwt beam="1">  1       21 0.37678594E+00 0.23445325E+03</pdfrwt>
<pdfrwt beam="2">  1       21 0.86962698E-02 0.23445325E+03</pdfrwt>
<totfact> 0.11853093E+03</totfact>
</mgrwt>
</event>
<event>
 5    0  0.2193454E+000  0.3142447E+03  0.7546771E-02  0.1078329E+00
         21   -1    0    0  503  501  0.00000000000E+00  0.00000000000E+00  0.39911756487E+03  0.39911756487E+03  0.00000000000E+00 0. -1.
         21   -1    0    0  501  502 -0.00000000000E+00 -0.00000000000E+00 -0.33494438636E+03  0.33494438636E+03  0.00000000000E+00 0. -1.
         25    1    1    2    0    0  0.23997453516E+03 -0.16085814831E+03 -0.85176161860E+02  0.32610289780E+03  0.12500000000E+03 0.  0.
         21    1    1    2  503  504  0.15933619422E+02  0.27589283691E+02  0.11269277080E+03  0.11710981766E+03  0.00000000000E+00 0.  1.
         21    1    1    2  504  502 -0.25590815458E+03  0.13326886462E+03  0.36656569583E+02  0.29084923578E+03  0.00000000000E+00 0. -1.
<mgrwt>
<rscale>  4 0.31424471E+03</rscale>
<asrwt>0</asrwt>
<pdfrwt beam="1">  1       21 0.61402703E-01 0.31424471E+03</pdfrwt>
<pdfrwt beam="2">  1       21 0.51529905E-01 0.31424471E+03</pdfrwt>
<totfact> 0.82342136E+03</totfact>
</mgrwt>
</event>
<event>
 5    0  0.2193454E+000  0.2737233E+03  0.7546771E-02  0.1099167E+00
         21   -1    0    0  503  501  0.00000000000E+00  0.00000000000E+00  0.15881800848E+04  0.15881800848E+04  0.00000000000E+00 0.  1.
         21   -1    0    0  501  502 -0.00000000000E+00 -0.00000000000E+00 -0.81273985533E+02  0.81273985533E+02  0.00000000000E+00 0.  1.
         25    1    1    2    0    0  0.23629023867E+03 -0.30166679581E+01  0.22049146902E+03  0.34653090062E+03  0.12500000000E+03 0.  0.
         21    1    1    2  503  504  0.35271531452E+02 -0.27744623300E+01  0.19737483174E+03  0.20052082878E+03  0.00000000000E+00 0.  1.
         21    1    1    2  504  502 -0.27156177012E+03  0.57911302881E+01  0.10890397985E+04  0.11224023409E+04  0.00000000000E+00 0.  1.
<mgrwt>
<rscale>  4 0.27372326E+03</rscale>
<asrwt>0</asrwt>
<pdfrwt beam="1">  1       21 0.24433537E+00 0.27372326E+03</pdfrwt>
<pdfrwt beam="2">  1       21 0.12503691E-01 0.27372326E+03</pdfrwt>
<totfact> 0.36401013E+03</totfact>
</mgrwt>
</event>
<event>
 5    0  0.2193454E+000  0.3854848E+03  0.7546771E-02  0.1048925E+00
         21   -1    0    0  503  501  0.00000000000E+00  0.00000000000E+00  0.14210421409E+03  0.14210421409E+03  0.00000000000E+00 0. -1.
         21   -1    0    0  504  502 -0.00000000000E+00 -0.00000000000E+00 -0.10538967203E+04  0.10538967203E+04  0.00000000000E+00 0. -1.
         25    1    1    2    0    0  0.27760863745E+03  0.23644659233E+03 -0.33545964547E+03  0.51101048948E+03  0.12500000000E+03 0.  0.
         21    1    1    2  503  502 -0.23626720778E+03 -0.21624587452E+03 -0.53273193119E+03  0.62160098313E+03  0.00000000000E+00 0. -1.
         21    1    1    2  504  501 -0.41341429672E+02 -0.20200717811E+02 -0.43600929574E+02  0.63389461799E+02  0.00000000000E+00 0. -1.
<mgrwt>
<rscale>  4 0.38548482E+03</rscale>
<asrwt>0</asrwt>
<pdfrwt beam="1">  1       21 0.21862188E-01 0.38548482E+03</pdfrwt>
<pdfrwt beam="2">  1       21 0.16213795E+00 0.38548482E+03</pdfrwt>
<totfact> 0.42132383E+03</totfact>
</mgrwt>
</event>
<event>
 5    0  0.2193454E+000  0.2569278E+03  0.7546771E-02  0.1109003E+00
         21   -1    0    0  502  501  0.00000000000E+00  0.00000000000E+00  0.16851243866E+04  0.16851243866E+04  0.00000000000E+00 0. -1.
         21   -1    0    0  503  502 -0.00000000000E+00 -0.00000000000E+00 -0.14591186933E+03  0.14591186933E+03  0.00000000000E+00 0. -1.
         25    1    1    2    0    0 -0.20066237032E+03  0.11466597639E+03 -0.52700513780E+01  0.26280495895E+03  0.12500000000E+03 0.  0.
         21    1    1    2  503  504 -0.41604546439E+01 -0.23665748178E+02  0.36600368161E+02  0.43783147091E+02  0.00000000000E+00 0.  1.
         21    1    1    2  504  501  0.20482282497E+03 -0.91000228213E+02  0.15078822004E+04  0.15244481498E+04  0.00000000000E+00 0. -1.
<mgrwt>
<rscale>  4 0.25692776E+03</rscale>
<asrwt>0</asrwt>
<pdfrwt beam="1">  1       21 0.25924989E+00 0.25692776E+03</pdfrwt>
<pdfrwt beam="2">  1       21 0.22447981E-01 0.25692776E+03</pdfrwt>
<totfact> 0.10169968E+03</totfact>
</mgrwt>
</event>
<event>
 5    0  0.2193454E+000  0.2738144E+03  0.7546771E-02  0.1099116E+00
         21   -1    0    0  503  501  0.00000000000E+00  0.00000000000E+00  0.69219027410E+03  0.69219027410E+03  0.00000000000E+00 0.  1.
         21   -1    0    0  504  502 -0.00000000000E+00 -0.00000000000E+00 -0.26036558158E+03  0.26036558158E+03  0.00000000000E+00 0. -1.
         25    1    1    2    0    0  0.17709442145E+03  0.12222326065E+03  0.43787771423E+03  0.50364953308E+03  0.12500000000E+03 0.  0.
         21    1    1    2  503  502 -0.21543080654E+03 -0.12253995905E+03 -0.15685418787E+03  0.29330821711E+03  0.00000000000E+00 0. -1.
         21    1    1    2  504  501  0.38336385094E+02  0.31669840440E+00  0.15080116616E+03  0.15559810550E+03  0.00000000000E+00 0.  1.
<mgrwt>
<rscale>  4 0.27381443E+03</rscale>
<asrwt>0</asrwt>
<pdfrwt beam="1">  1       21 0.10649081E+00 0.27381443E+03</pdfrwt>
<pdfrwt beam="2">  1       21 0.40056244E-01 0.27381443E+03</pdfrwt>
<totfact> 0.40061468E+03</totfact>
</mgrwt>
</event>
<event>
 5    0  0.2193454E+000  0.3264817E+03  0.7546771E-02  0.1072704E+00
         21   -1    0    0  502  501  0.00000000000E+00  0.00000000000E+00  0.14267526028E+03  0.14267526028E+03  0.00000000000E+00 0. -1.
         21   -1    0    0  503  502 -0.00000000000E+00 -0.00000000000E+00 -0.10370163468E+04  0.10370163468E+04  0.00000000000E+00 0. -1.
         25    1    1    2    0    0 -0.20595702113E+03  0.25818442655E+03 -0.61109846694E+03  0.70579304967E+03  0.12500000000E+03 0.  0.
         21    1    1    2  503  504 -0.21915781482E+02 -0.74788655022E+02 -0.10709079455E+03  0.13244652761E+03  0.00000000000E+00 0. -1.
         21    1    1    2  504  501  0.22787280261E+03 -0.18339577153E+03 -0.17615182500E+03  0.34145202977E+03  0.00000000000E+00 0. -1.
<mgrwt>
<rscale>  4 0.32648174E+03</rscale>
<asrwt>0</asrwt>
<pdfrwt beam="1">  1       21 0.21950040E-01 0.32648174E+03</pdfrwt>
<pdfrwt beam="2">  1       21 0.15954097E+00 0.32648174E+03</pdfrwt>
<totfact> 0.44957255E+03</totfact>
</mgrwt>
</event>
<event>
 5    0  0.2193454E+000  0.3621993E+03  0.7546771E-02  0.1057716E+00
         21   -1    0    0  503  501  0.00000000000E+00  0.00000000000E+00  0.40888017046E+03  0.40888017046E+03  0.00000000000E+00 0. -1.
         21   -1    0    0  504  502 -0.00000000000E+00 -0.00000000000E+00 -0.69849753664E+03  0.69849753664E+03  0.00000000000E+00 0.  1.
         25    1    1    2    0    0 -0.33689455851E+03  0.47577210586E+02 -0.54681852731E+03  0.65604651994E+03  0.12500000000E+03 0.  0.
         21    1    1    2  503  502  0.33110369782E+03 -0.72521641625E+02  0.25758288893E+03  0.42572055610E+03  0.00000000000E+00 0. -1.
         21    1    1    2  504  501  0.57908606824E+01  0.24944431039E+02 -0.38172780002E+00  0.25610631062E+02  0.00000000000E+00 0.  1.
<mgrwt>
<rscale>  4 0.36219934E+03</rscale>
<asrwt>0</asrwt>
<pdfrwt beam="1">  1       21 0.62904642E-01 0.36219934E+03</pdfrwt>
<pdfrwt beam="2">  1       21 0.10746116E+00 0.36219934E+03</pdfrwt>
<totfact> 0.14385316E+03</totfact>
</mgrwt>
</event>
<event>
 5    0  0.2193454E+000  0.4286538E+03  0.7546771E-02  0.1034286E+00
         21   -1    0    0  503  501  0.00000000000E+00  0.00000000000E+00  0.54723006805E+03  0.54723006805E+03  0.00000000000E+00 0.  1.
         21   -1    0    0  504  502 -0.00000000000E+00 -0.00000000000E+00 -0.55029630953E+03  0.55029630953E+03  0.00000000000E+00 0.  1.
         25    1    1    2    0    0 -0.34363109663E+03 -0.25879188521E+03  0.17186154507E+03  0.47980929660E+03  0.12500000000E+03 0.  0.
         21    1    1    2  503  502  0.29900373691E+03  0.27170557584E+03 -0.28754567994E+03  0.49589280362E+03  0.00000000000E+00 0.  1.
         21    1    1    2  504  501  0.44627359721E+02 -0.12913690627E+02  0.11261789339E+03  0.12182427736E+03  0.00000000000E+00 0.  1.
<mgrwt>
<rscale>  4 0.42865379E+03</rscale>
<asrwt>0</asrwt>
<pdfrwt beam="1">  1       21 0.84189241E-01 0.42865379E+03</pdfrwt>
<pdfrwt beam="2">  1       21 0.84660971E-01 0.42865379E+03</pdfrwt>
<totfact> 0.12773319E+03</totfact>
</mgrwt>
</event>
<event>
 5    0  0.2193454E+000  0.4992389E+03  0.7546771E-02  0.1013978E+00
         21   -1    0    0  503  501  0.00000000000E+00  0.00000000000E+00  0.30662288273E+04  0.30662288273E+04  0.00000000000E+00 0. -1.
         21   -1    0    0  501  502 -0.00000000000E+00 -0.00000000000E+00 -0.86915492938E+02  0.86915492938E+02  0.00000000000E+00 0. -1.
         25    1    1    2    0    0  0.47289403730E+03  0.12708882490E+02  0.11448716613E+04  0.12450487569E+04  0.12500000000E+03 0.  0.
         21    1    1    2  503  504  0.25306321615E+02 -0.22035511810E+00  0.12273904955E+03  0.12532091907E+03  0.00000000000E+00 0.  1.
         21    1    1    2  504  502 -0.49820035892E+03 -0.12488527372E+02  0.17117026235E+04  0.17827746442E+04  0.00000000000E+00 0. -1.
<mgrwt>
<rscale>  4 0.49923893E+03</rscale>
<asrwt>0</asrwt>
<pdfrwt beam="1">  1       21 0.47172743E+00 0.49923893E+03</pdfrwt>
<pdfrwt beam="2">  1       21 0.13371617E-01 0.49923893E+03</pdfrwt>
<totfact> 0.10418810E+02</totfact>
</mgrwt>
</event>
<event>
 5    0  0.2193454E+000  0.2115052E+03  0.7546771E-02  0.1140380E+00
         21   -1    0    0  503  501  0.00000000000E+00  0.00000000000E+00  0.98572416754E+03  0.98572416754E+03  0.00000000000E+00 0. -1.
         21   -1    0    0  504  502 -0.00000000000E+00 -0.00000000000E+00 -0.29722023579E+03  0.29722023579E+03  0.00000000000E+00 0. -1.
         25    1    1    2    0    0  0.74830363700E+02 -0.20380879992E+03 -0.37436832702E+02  0.25330638898E+03  0.12500000000E+03 0.  0.
         21    1    1    2  503  502  0.17079943188E+02  0.15735037777E+03 -0.10655241522E+03  0.19079906455E+03  0.00000000000E+00 0. -1.
         21    1    1    2  504  501 -0.91910306888E+02  0.46458422148E+02  0.83249317967E+03  0.83883894980E+03  0.00000000000E+00 0. -1.
<mgrwt>
<rscale>  4 0.21150518E+03</rscale>
<asrwt>0</asrwt>
<pdfrwt beam="1">  1       21 0.15164987E+00 0.21150518E+03</pdfrwt>
<pdfrwt beam="2">  1       21 0.45726191E-01 0.21150518E+03</pdfrwt>
<totfact> 0.13070089E+03</totfact>
</mgrwt>
</event>
<event>
 5    0  0.2193454E+000  0.2473894E+03  0.7546771E-02  0.1114966E+00
         21   -1    0    0  502  501  0.00000000000E+00  0.00000000000E+00  0.92773781214E+03  0.92773781214E+03  0.00000000000E+00 0. -1.
         21   -1    0    0  503  502 -0.00000000000E+00 -0.00000000000E+00 -0.43339325423E+03  0.43339325423E+03  0.00000000000E+00 0. -1.
         25    1    1    2    0    0  0.11014819628E+03 -0.18287672610E+03 -0.38361591189E+03  0.45646762202E+03  0.12500000000E+03 0.  0.
         21    1    1    2  503  504 -0.10355270702E+02  0.28089202696E+02  0.72928771834E+02  0.78834260957E+02  0.00000000000E+00 0. -1.
         21    1    1    2  504  501 -0.99792925581E+02  0.15478752340E+03  0.80503169797E+03  0.82582918339E+03  0.00000000000E+00 0. -1.
<mgrwt>
<rscale>  4 0.24738941E+03</rscale>
<asrwt>0</asrwt>
<pdfrwt beam="1">  1       21 0.14272889E+00 0.24738941E+03</pdfrwt>
<pdfrwt beam="2">  1       21 0.66675886E-01 0.24738941E+03</pdfrwt>
<totfact> 0.66517082E+02</totfact>
</mgrwt>
</event>
<event>
 5    0  0.2193454E+000  0.2924775E+03  0.7546771E-02  0.1089063E+00
         21   -1    0    0  503  501  0.00000000000E+00  0.00000000000E+00  0.74928345558E+03  0.74928345558E+03  0.00000000000E+00 0.  1.
         21   -1    0    0  504  502 -0.00000000000E+00 -0.00000000000E+00 -0.12416863919E+03  0.12416863919E+03  0.00000000000E+00 0.  1.
         25    1    1    2    0    0  0.13848479827E+03  0.23031283217E+03  0.43925973432E+03  0.52990202321E+03  0.12500000000E+03 0.  0.
         21    1    1    2  503  502 -0.11432743061E+03 -0.23651392905E+03  0.15980324603E+03  0.30748443451E+03  0.00000000000E+00 0.  1.
         21    1    1    2  504  501 -0.24157367660E+02  0.62010968813E+01  0.26051836041E+02  0.36065637051E+02  0.00000000000E+00 0.  1.
<mgrwt>
<rscale>  4 0.29247753E+03</rscale>
<asrwt>0</asrwt>
<pdfrwt beam="1">  1       21 0.11527437E+00 0.29247753E+03</pdfrwt>
<pdfrwt beam="2">  1       21 0.19102868E-01 0.29247753E+03</pdfrwt>
<totfact> 0.13854883E+04</totfact>
</mgrwt>
</event>
<event>
 5    0  0.3266023E+000  0.3353100E+03  0.7546771E-02  0.1068811E+00
         21   -1    0    0  503  501  0.00000000000E+00  0.00000000000E+00  0.10383404555E+04  0.10383404555E+04  0.00000000000E+00 0.  1.
         21   -1    0    0  504  502 -0.00000000000E+00 -0.00000000000E+00 -0.85346594026E+03  0.85346594026E+03  0.00000000000E+00 0.  1.
         25    1    1    2    0    0  0.79852960130E+02  0.26582697318E+03 -0.78317090153E+03  0.84025123381E+03  0.12500000000E+03 0.  0.
         21    1    1    2  503  502 -0.80278841902E+02 -0.30166107447E+03  0.96652714999E+03  0.10156863827E+04  0.00000000000E+00 0.  1.
         21    1    1    2  504  501  0.42588177208E+00  0.35834101296E+02  0.15182667743E+01  0.35868779251E+02  0.00000000000E+00 0. -1.
<mgrwt>
<rscale>  4 0.33530996E+03</rscale>
<asrwt>0</asrwt>
<pdfrwt beam="1">  1       21 0.15974469E+00 0.33530996E+03</pdfrwt>
<pdfrwt beam="2">  1       21 0.13130245E+00 0.33530996E+03</pdfrwt>
<totfact> 0.91751413E+01</totfact>
</mgrwt>
</event>
<event>
 5    0  0.2193454E+000  0.3948047E+03  0.7546771E-02  0.1045594E+00
         21   -1    0    0  503  501  0.00000000000E+00  0.00000000000E+00  0.20439342251E+03  0.20439342251E+03  0.00000000000E+00 0. -1.
         21   -1    0    0  501  502 -0.00000000000E+00 -0.00000000000E+00 -0.83035396010E+03  0.83035396010E+03  0.00000000000E+00 0. -1.
         25    1    1    2    0    0 -0.17784538031E+03 -0.30468630049E+03 -0.39638413805E+03  0.54516796119E+03  0.12500000000E+03 0.  0.
         21    1    1    2  503  504 -0.35766548541E+02 -0.20594620137E+02 -0.36809343618E+02  0.55302008559E+02  0.00000000000E+00 0.  1.
         21    1    1    2  504  502  0.21361192885E+03  0.32528092063E+03 -0.19276705592E+03  0.43427741286E+03  0.00000000000E+00 0. -1.
<mgrwt>
<rscale>  4 0.39480474E+03</rscale>
<asrwt>0</asrwt>
<pdfrwt beam="1">  1       21 0.31445142E-01 0.39480474E+03</pdfrwt>
<pdfrwt beam="2">  1       21 0.12774676E+00 0.39480474E+03</pdfrwt>
<totfact> 0.39027953E+03</totfact>
</mgrwt>
</event>
<event>
 5    0  0.2193454E+000  0.2562500E+03  0.7546771E-02  0.1109417E+00
         21   -1    0    0  503  501  0.00000000000E+00  0.00000000000E+00  0.11145053465E+04  0.11145053465E+04  0.00000000000E+00 0.  1.
         21   -1    0    0  501  502 -0.00000000000E+00 -0.00000000000E+00 -0.18028783900E+03  0.18028783900E+03  0.00000000000E+00 0. -1.
         25    1    1    2    0    0 -0.19563076378E+03 -0.10091829011E+03 -0.59076710504E+02  0.25994413773E+03  0.12500000000E+03 0.  0.
         21    1    1    2  503  504 -0.30760527366E+02 -0.12752629502E+02  0.17861091449E+03  0.18168846518E+03  0.00000000000E+00 0.  1.
         21    1    1    2  504  502  0.22639129115E+03  0.11367091962E+03  0.81468330356E+03  0.85316058264E+03  0.00000000000E+00 0.  1.
<mgrwt>
<rscale>  4 0.25625001E+03</rscale>
<asrwt>0</asrwt>
<pdfrwt beam="1">  1       21 0.17146236E+00 0.25625001E+03</pdfrwt>
<pdfrwt beam="2">  1       21 0.27736591E-01 0.25625001E+03</pdfrwt>
<totfact> 0.24499799E+03</totfact>
</mgrwt>
</event>
<event>
 5    0  0.2193454E+000  0.2879309E+03  0.7546771E-02  0.1091434E+00
         21   -1    0    0  502  501  0.00000000000E+00  0.00000000000E+00  0.15537818102E+03  0.15537818102E+03  0.00000000000E+00 0.  1.
         21   -1    0    0  503  502 -0.00000000000E+00 -0.00000000000E+00 -0.15094822426E+04  0.15094822426E+04  0.00000000000E+00 0. -1.
         25    1    1    2    0    0  0.21809855000E+03 -0.93013017525E+02 -0.13147310605E+04  0.13417753763E+04  0.12500000000E+03 0.  0.
         21    1    1    2  503  504  0.29291996299E+02  0.82229676660E+01 -0.53109821261E+02  0.61206955151E+02  0.00000000000E+00 0. -1.
         21    1    1    2  504  501 -0.24739054629E+03  0.84790049859E+02  0.13736820162E+02  0.26187809221E+03  0.00000000000E+00 0.  1.
<mgrwt>
<rscale>  4 0.28793087E+03</rscale>
<asrwt>0</asrwt>
<pdfrwt beam="1">  1       21 0.23904336E-01 0.28793087E+03</pdfrwt>
<pdfrwt beam="2">  1       21 0.23222803E+00 0.28793087E+03</pdfrwt>
<totfact> 0.12776083E+03</totfact>
</mgrwt>
</event>
<event>
 5    0  0.2193454E+000  0.4532457E+03  0.7546771E-02  0.1026759E+00
         21   -1    0    0  503  501  0.00000000000E+00  0.00000000000E+00  0.70597403827E+02  0.70597403827E+02  0.00000000000E+00 0. -1.
         21   -1    0    0  504  502 -0.00000000000E+00 -0.00000000000E+00 -0.33781873393E+04  0.33781873393E+04  0.00000000000E+00 0. -1.
         25    1    1    2    0    0  0.40916798302E+03  0.11413528909E+03 -0.19539981136E+04  0.20035415969E+04  0.12500000000E+03 0.  0.
         21    1    1    2  503  502 -0.42811816805E+03 -0.14736234929E+03 -0.13155964300E+04  0.13913284279E+04  0.00000000000E+00 0. -1.
         21    1    1    2  504  501  0.18950185029E+02  0.33227060200E+02 -0.37995391841E+02  0.53914718244E+02  0.00000000000E+00 0.  1.
<mgrwt>
<rscale>  4 0.45324566E+03</rscale>
<asrwt>0</asrwt>
<pdfrwt beam="1">  1       21 0.10861138E-01 0.45324566E+03</pdfrwt>
<pdfrwt beam="2">  1       21 0.51972119E+00 0.45324566E+03</pdfrwt>
<totfact> 0.71611912E+01</totfact>
</mgrwt>
</event>
<event>
 5    0  0.2193454E+000  0.2368998E+03  0.7546771E-02  0.1121875E+00
         21   -1    0    0  503  501  0.00000000000E+00  0.00000000000E+00  0.48185868884E+03  0.48185868884E+03  0.00000000000E+00 0.  1.
         21   -1    0    0  501  502 -0.00000000000E+00 -0.00000000000E+00 -0.11327860621E+03  0.11327860621E+03  0.00000000000E+00 0.  1.
         25    1    1    2    0    0  0.13518392326E+03 -0.14906989925E+03  0.10351939707E+03  0.25853006313E+03  0.12500000000E+03 0.  0.
         21    1    1    2  503  504 -0.11052475384E+03  0.86931611980E+02  0.17809570696E+03  0.22691607966E+03  0.00000000000E+00 0.  1.
         21    1    1    2  504  502 -0.24659169423E+02  0.62138287267E+02  0.86964978606E+02  0.10969115226E+03  0.00000000000E+00 0.  1.
<mgrwt>
<rscale>  4 0.23689983E+03</rscale>
<asrwt>0</asrwt>
<pdfrwt beam="1">  1       21 0.74132105E-01 0.23689983E+03</pdfrwt>
<pdfrwt beam="2">  1       21 0.17427478E-01 0.23689983E+03</pdfrwt>
<totfact> 0.47626603E+04</totfact>
</mgrwt>
</event>
<event>
 5    0  0.2193454E+000  0.3455120E+03  0.7546771E-02  0.1064472E+00
         21   -1    0    0  503  501  0.00000000000E+00  0.00000000000E+00  0.94754036675E+03  0.94754036675E+03  0.00000000000E+00 0. -1.
         21   -1    0    0  504  502 -0.00000000000E+00 -0.00000000000E+00 -0.18968569111E+03  0.18968569111E+03  0.00000000000E+00 0. -1.
         25    1    1    2    0    0  0.28331409816E+03 -0.11200417560E+03  0.14009261707E+03  0.35785856833E+03  0.12500000000E+03 0.  0.
         21    1    1    2  503  502 -0.33146481561E+03  0.11089916399E+03  0.30794802659E+03  0.46583208954E+03  0.00000000000E+00 0. -1.
         21    1    1    2  504  501  0.48150717447E+02  0.11050116158E+01  0.30981403197E+03  0.31353539999E+03  0.00000000000E+00 0. -1.
<mgrwt>
<rscale>  4 0.34551196E+03</rscale>
<asrwt>0</asrwt>
<pdfrwt beam="1">  1       21 0.14577544E+00 0.34551196E+03</pdfrwt>
<pdfrwt beam="2">  1       21 0.29182415E-01 0.34551196E+03</pdfrwt>
<totfact> 0.32738727E+03</totfact>
</mgrwt>
</event>
<event>
 5    0  0.2193454E+000  0.4047952E+03  0.7546771E-02  0.1042132E+00
         21   -1    0    0  503  501  0.00000000000E+00  0.00000000000E+00  0.12811940486E+04  0.12811940486E+04  0.00000000000E+00 0. -1.
         21   -1    0    0  504  502 -0.00000000000E+00 -0.00000000000E+00 -0.13761844219E+04  0.13761844219E+04  0.00000000000E+00 0. -1.
         25    1    1    2    0    0 -0.84544735385E+02  0.37658079024E+03 -0.13066058008E+04  0.13681391093E+04  0.12500000000E+03 0.  0.
         21    1    1    2  503  502  0.78985845087E+02 -0.35046188381E+03  0.80238046606E+03  0.87913406716E+03  0.00000000000E+00 0. -1.
         21    1    1    2  504  501  0.55588902979E+01 -0.26118906430E+02  0.40923496145E+03  0.41010529405E+03  0.00000000000E+00 0.  1.
<mgrwt>
<rscale>  4 0.40479520E+03</rscale>
<asrwt>0</asrwt>
<pdfrwt beam="1">  1       21 0.19710678E+00 0.40479520E+03</pdfrwt>
<pdfrwt beam="2">  1       21 0.21172068E+00 0.40479520E+03</pdfrwt>
<totfact> 0.12264198E+01</totfact>
</mgrwt>
</event>
<event>
 5    0  0.2193454E+000  0.2453090E+03  0.7546771E-02  0.1116306E+00
         21   -1    0    0  503  501  0.00000000000E+00  0.00000000000E+00  0.96029423539E+03  0.96029423539E+03  0.00000000000E+00 0. -1.
         21   -1    0    0  501  502 -0.00000000000E+00 -0.00000000000E+00 -0.24515312316E+03  0.24515312316E+03  0.00000000000E+00 0.  1.
         25    1    1    2    0    0 -0.98433092891E+02  0.20326539552E+03  0.69411467670E+02  0.26729917066E+03  0.12500000000E+03 0.  0.
         21    1    1    2  503  504  0.75563733998E+01 -0.19758180720E+02  0.72000619057E+03  0.72031687398E+03  0.00000000000E+00 0. -1.
         21    1    1    2  504  502  0.90876719491E+02 -0.18350721480E+03 -0.74276546017E+02  0.21783131391E+03  0.00000000000E+00 0.  1.
<mgrwt>
<rscale>  4 0.24530901E+03</rscale>
<asrwt>0</asrwt>
<pdfrwt beam="1">  1       21 0.14773757E+00 0.24530901E+03</pdfrwt>
<pdfrwt beam="2">  1       21 0.37715866E-01 0.24530901E+03</pdfrwt>
<totfact> 0.20154302E+03</totfact>
</mgrwt>
</event>
<event>
 5    0  0.2193454E+000  0.2510205E+03  0.7546771E-02  0.1112662E+00
         21   -1    0    0  503  501  0.00000000000E+00  0.00000000000E+00  0.13862314151E+03  0.13862314151E+03  0.00000000000E+00 0.  1.
         21   -1    0    0  501  502 -0.00000000000E+00 -0.00000000000E+00 -0.78671676760E+03  0.78671676760E+03  0.00000000000E+00 0.  1.
         25    1    1    2    0    0  0.21032393236E+03  0.48204348308E+02 -0.60210374862E+03  0.65170065200E+03  0.12500000000E+03 0.  0.
         21    1    1    2  503  504  0.18291442058E+01  0.27278054645E+02  0.25496637552E+02  0.37383372777E+02  0.00000000000E+00 0.  1.
         21    1    1    2  504  502 -0.21215307657E+03 -0.75482402953E+02 -0.71486515026E+02  0.23625588433E+03  0.00000000000E+00 0.  1.
<mgrwt>
<rscale>  4 0.25102051E+03</rscale>
<asrwt>0</asrwt>
<pdfrwt beam="1">  1       21 0.21326637E-01 0.25102051E+03</pdfrwt>
<pdfrwt beam="2">  1       21 0.12103335E+00 0.25102051E+03</pdfrwt>
<totfact> 0.10186681E+04</totfact>
</mgrwt>
</event>
<event>
 5    0  0.2193454E+000  0.2991847E+03  0.7546771E-02  0.1085649E+00
         21   -1    0    0  503  501  0.00000000000E+00  0.00000000000E+00  0.14164995357E+04  0.14164995357E+04  0.00000000000E+00 0. -1.
         21   -1    0    0  501  502 -0.00000000000E+00 -0.00000000000E+00 -0.53843295736E+03  0.53843295736E+03  0.00000000000E+00 0. -1.
         25    1    1    2    0    0 -0.25545485500E+03  0.25705301922E+03 -0.19173024950E+02  0.38383074723E+03  0.12500000000E+03 0.  0.
         21    1    1    2  503  504  0.39071739664E+02 -0.13049792206E+03  0.11830901068E+04  0.11909065913E+04  0.00000000000E+00 0. -1.
         21    1    1    2  504  502  0.21638311533E+03 -0.12655509716E+03 -0.28585050346E+03  0.38019515455E+03  0.00000000000E+00 0. -1.
<mgrwt>
<rscale>  4 0.29918468E+03</rscale>
<asrwt>0</asrwt>
<pdfrwt beam="1">  1       21 0.21792300E+00 0.29918468E+03</pdfrwt>
<pdfrwt beam="2">  1       21 0.82835840E-01 0.29918468E+03</pdfrwt>
<totfact> 0.11651623E+02</totfact>
</mgrwt>
</event>
<event>
 5    0  0.2193454E+000  0.3078356E+03  0.7546771E-02  0.1081388E+00
         21   -1    0    0  502  501  0.00000000000E+00  0.00000000000E+00  0.94124430861E+03  0.94124430861E+03  0.00000000000E+00 0.  1.
         21   -1    0    0  504  502 -0.00000000000E+00 -0.00000000000E+00 -0.27633060111E+03  0.27633060111E+03  0.00000000000E+00 0. -1.
         25    1    1    2    0    0 -0.21906782272E+03  0.17296261845E+03 -0.14685061421E+03  0.33925931266E+03  0.12500000000E+03 0.  0.
         21    1    1    2  503  501  0.21721088864E+03 -0.20718856593E+03  0.74661506148E+03  0.80469977136E+03  0.00000000000E+00 0.  1.
         21    1    1    2  504  503  0.18569340772E+01  0.34225947478E+02  0.65149260225E+02  0.73615825696E+02  0.00000000000E+00 0. -1.
<mgrwt>
<rscale>  4 0.30783556E+03</rscale>
<asrwt>0</asrwt>
<pdfrwt beam="1">  1       21 0.14480682E+00 0.30783556E+03</pdfrwt>
<pdfrwt beam="2">  1       21 0.42512401E-01 0.30783556E+03</pdfrwt>
<totfact> 0.15957427E+03</totfact>
</mgrwt>
</event>
<event>
 5    0  0.2193454E+000  0.1780724E+03  0.7546771E-02  0.1169682E+00
         21   -1    0    0  503  501  0.00000000000E+00  0.00000000000E+00  0.53618026875E+03  0.53618026875E+03  0.00000000000E+00 0.  1.
         21   -1    0    0  501  502 -0.00000000000E+00 -0.00000000000E+00 -0.61825453565E+03  0.61825453565E+03  0.00000000000E+00 0. -1.
         25    1    1    2    0    0 -0.24156290631E+03  0.39005095808E+02 -0.44531260170E+03  0.52326126212E+03  0.12500000000E+03 0.  0.
         21    1    1    2  503  504  0.11711120917E+03 -0.43325001966E+02  0.45798379322E+03  0.47470121757E+03  0.00000000000E+00 0.  1.
         21    1    1    2  504  502  0.12445169713E+03  0.43199061573E+01 -0.94745458419E+02  0.15647232471E+03  0.00000000000E+00 0. -1.
<mgrwt>
<rscale>  4 0.17807240E+03</rscale>
<asrwt>0</asrwt>
<pdfrwt beam="1">  1       21 0.82489272E-01 0.17807240E+03</pdfrwt>
<pdfrwt beam="2">  1       21 0.95116082E-01 0.17807240E+03</pdfrwt>
<totfact> 0.12028033E+03</totfact>
</mgrwt>
</event>
<event>
 5    0  0.2193454E+000  0.2176782E+03  0.7546771E-02  0.1135626E+00
         21   -1    0    0  503  501  0.00000000000E+00  0.00000000000E+00  0.34951793448E+03  0.34951793448E+03  0.00000000000E+00 0.  1.
         21   -1    0    0  504  502 -0.00000000000E+00 -0.00000000000E+00 -0.26210157460E+03  0.26210157460E+03  0.00000000000E+00 0.  1.
         25    1    1    2    0    0 -0.10927949112E+03  0.18866888416E+03 -0.91596373970E+02  0.26749364619E+03  0.12500000000E+03 0.  0.
         21    1    1    2  503  502  0.92465891532E+02 -0.15932606255E+02 -0.13300724530E+01  0.93837935461E+02  0.00000000000E+00 0. -1.
         21    1    1    2  504  501  0.16813599585E+02 -0.17273627790E+03  0.18034280630E+03  0.25028792744E+03  0.00000000000E+00 0.  1.
<mgrwt>
<rscale>  4 0.21767816E+03</rscale>
<asrwt>0</asrwt>
<pdfrwt beam="1">  1       21 0.53771990E-01 0.21767816E+03</pdfrwt>
<pdfrwt beam="2">  1       21 0.40323319E-01 0.21767816E+03</pdfrwt>
<totfact> 0.19103376E+04</totfact>
</mgrwt>
</event>
<event>
 5    0  0.2193454E+000  0.2456498E+03  0.7546771E-02  0.1116085E+00
         21   -1    0    0  503  501  0.00000000000E+00  0.00000000000E+00  0.35367764691E+04  0.35367764691E+04  0.00000000000E+00 0.  1.
         21   -1    0    0  504  502 -0.00000000000E+00 -0.00000000000E+00 -0.99920532112E+02  0.99920532112E+02  0.00000000000E+00 0.  1.
         25    1    1    2    0    0  0.12126802375E+03  0.20647942485E+03  0.11608700686E+03  0.29400829858E+03  0.12500000000E+03 0.  0.
         21    1    1    2  503  502 -0.23565303721E+02 -0.14349562027E+03  0.53252977625E+03  0.55202742610E+03  0.00000000000E+00 0.  1.
         21    1    1    2  504  501 -0.97702720025E+02 -0.62983804583E+02  0.27882391539E+04  0.27906612765E+04  0.00000000000E+00 0.  1.
<mgrwt>
<rscale>  4 0.24564980E+03</rscale>
<asrwt>0</asrwt>
<pdfrwt beam="1">  1       21 0.54411936E+00 0.24564980E+03</pdfrwt>
<pdfrwt beam="2">  1       21 0.15372392E-01 0.24564980E+03</pdfrwt>
<totfact> 0.31093380E+01</totfact>
</mgrwt>
</event>
<event>
 5    0  0.2193454E+000  0.2609207E+03  0.7546771E-02  0.1106591E+00
         21   -1    0    0  503  501  0.00000000000E+00  0.00000000000E+00  0.59604801063E+03  0.59604801063E+03  0.00000000000E+00 0.  1.
         21   -1    0    0  504  502 -0.00000000000E+00 -0.00000000000E+00 -0.35718606537E+03  0.35718606537E+03  0.00000000000E+00 0. -1.
         25    1    1    2    0    0  0.13121727450E+02 -0.23044443163E+03 -0.27377296945E+03  0.37928017955E+03  0.12500000000E+03 0.  0.
         21    1    1    2  503  502 -0.27378297909E+02  0.21451258222E+03  0.36097648803E+03  0.42079596486E+03  0.00000000000E+00 0.  1.
         21    1    1    2  504  501  0.14256570459E+02  0.15931849412E+02  0.15165842668E+03  0.15315793159E+03  0.00000000000E+00 0.  1.
<mgrwt>
<rscale>  4 0.26092073E+03</rscale>
<asrwt>0</asrwt>
<pdfrwt beam="1">  1       21 0.91699694E-01 0.26092073E+03</pdfrwt>
<pdfrwt beam="2">  1       21 0.54951702E-01 0.26092073E+03</pdfrwt>
<totfact> 0.29870784E+03</totfact>
</mgrwt>
</event>
<event>
 5    0  0.2193454E+000  0.3408778E+03  0.7546771E-02  0.1066423E+00
         21   -1    0    0  503  501  0.00000000000E+00  0.00000000000E+00  0.94748542864E+03  0.94748542864E+03  0.00000000000E+00 0. -1.
         21   -1    0    0  504  502 -0.00000000000E+00 -0.00000000000E+00 -0.33919154100E+03  0.33919154100E+03  0.00000000000E+00 0. -1.
         25    1    1    2    0    0  0.32013926531E+03 -0.87840168976E+02 -0.18869892996E+03  0.40179264633E+03  0.12500000000E+03 0.  0.
         21    1    1    2  503  502 -0.25517226001E+03  0.49076232208E+02  0.37541188362E+03  0.45656920747E+03  0.00000000000E+00 0. -1.
         21    1    1    2  504  501 -0.64967005301E+02  0.38763936768E+02  0.42158093397E+03  0.42831511584E+03  0.00000000000E+00 0.  1.
<mgrwt>
<rscale>  4 0.34087779E+03</rscale>
<asrwt>0</asrwt>
<pdfrwt beam="1">  1       21 0.14576699E+00 0.34087779E+03</pdfrwt>
<pdfrwt beam="2">  1       21 0.52183314E-01 0.34087779E+03</pdfrwt>
<totfact> 0.10008601E+03</totfact>
</mgrwt>
</event>
<event>
 5    0  0.2193454E+000  0.2883021E+03  0.7546771E-02  0.1091239E+00
         21   -1    0    0  503  501  0.00000000000E+00  0.00000000000E+00  0.18914108866E+04  0.18914108866E+04  0.00000000000E+00 0.  1.
         21   -1    0    0  504  502 -0.00000000000E+00 -0.00000000000E+00 -0.74397687374E+02  0.74397687374E+02  0.00000000000E+00 0.  1.
         25    1    1    2    0    0  0.11905214195E+02  0.24233526429E+03  0.62030643856E+03  0.67769697665E+03  0.12500000000E+03 0.  0.
         21    1    1    2  503  502 -0.15639823909E+02 -0.26998129969E+03  0.35662438136E+03  0.44756614668E+03  0.00000000000E+00 0.  1.
         21    1    1    2  504  501  0.37346097142E+01  0.27646035398E+02  0.84008237927E+03  0.84054545061E+03  0.00000000000E+00 0.  1.
<mgrwt>
<rscale>  4 0.28830209E+03</rscale>
<asrwt>0</asrwt>
<pdfrwt beam="1">  1       21 0.29098625E+00 0.28830209E+03</pdfrwt>
<pdfrwt beam="2">  1       21 0.11445799E-01 0.28830209E+03</pdfrwt>
<totfact> 0.22317326E+03</totfact>
</mgrwt>
</event>
<event>
 5    0  0.2193454E+000  0.2740966E+03  0.7546771E-02  0.1098958E+00
         21   -1    0    0  503  501  0.00000000000E+00  0.00000000000E+00  0.27729881478E+03  0.27729881478E+03  0.00000000000E+00 0.  1.
         21   -1    0    0  504  502 -0.00000000000E+00 -0.00000000000E+00 -0.16534903897E+04  0.16534903897E+04  0.00000000000E+00 0.  1.
         25    1    1    2    0    0  0.39413346136E+02 -0.23849557085E+03 -0.14978305763E+04  0.15223517939E+04  0.12500000000E+03 0.  0.
         21    1    1    2  503  502 -0.81225315347E+01  0.24395659453E+03  0.20529984770E+03  0.31894956184E+03  0.00000000000E+00 0.  1.
         21    1    1    2  504  501 -0.31290814601E+02 -0.54610236712E+01 -0.83660846299E+02  0.89487848680E+02  0.00000000000E+00 0. -1.
<mgrwt>
<rscale>  4 0.27409657E+03</rscale>
<asrwt>0</asrwt>
<pdfrwt beam="1">  1       21 0.42661356E-01 0.27409657E+03</pdfrwt>
<pdfrwt beam="2">  1       21 0.25438314E+00 0.27409657E+03</pdfrwt>
<totfact> 0.30119540E+02</totfact>
</mgrwt>
</event>
<event>
 5    0  0.2193454E+000  0.2516950E+03  0.7546771E-02  0.1112238E+00
         21   -1    0    0  503  501  0.00000000000E+00  0.00000000000E+00  0.17251600477E+04  0.17251600477E+04  0.00000000000E+00 0. -1.
         21   -1    0    0  501  502 -0.00000000000E+00 -0.00000000000E+00 -0.39971149317E+03  0.39971149317E+03  0.00000000000E+00 0. -1.
         25    1    1    2    0    0 -0.62510048317E+02  0.20835975044E+03 -0.34655484935E+03  0.42783940370E+03  0.12500000000E+03 0.  0.
         21    1    1    2  503  504 -0.52296625002E+01  0.30043655652E+02  0.39663953946E+03  0.39781012416E+03  0.00000000000E+00 0. -1.
         21    1    1    2  504  502  0.67739710817E+02 -0.23840340609E+03  0.12753638644E+04  0.12992220131E+04  0.00000000000E+00 0. -1.
<mgrwt>
<rscale>  4 0.25169495E+03</rscale>
<asrwt>0</asrwt>
<pdfrwt beam="1">  1       21 0.26540923E+00 0.25169495E+03</pdfrwt>
<pdfrwt beam="2">  1       21 0.61494077E-01 0.25169495E+03</pdfrwt>
<totfact> 0.12268642E+02</totfact>
</mgrwt>
</event>
<event>
 5    0  0.2193454E+000  0.3012006E+03  0.7546771E-02  0.1084642E+00
         21   -1    0    0  502  501  0.00000000000E+00  0.00000000000E+00  0.19547844193E+03  0.19547844193E+03  0.00000000000E+00 0. -1.
         21   -1    0    0  503  502 -0.00000000000E+00 -0.00000000000E+00 -0.74867056939E+03  0.74867056939E+03  0.00000000000E+00 0. -1.
         25    1    1    2    0    0  0.16205542119E+03 -0.22190869932E+03 -0.51959337387E+03  0.60092237813E+03  0.12500000000E+03 0.  0.
         21    1    1    2  503  504 -0.51260232048E+02 -0.31758769096E+02  0.15110379283E+02  0.62165540022E+02  0.00000000000E+00 0.  1.
         21    1    1    2  504  501 -0.11079518914E+03  0.25366746842E+03 -0.48709132878E+02  0.28106109318E+03  0.00000000000E+00 0. -1.
<mgrwt>
<rscale>  4 0.30120057E+03</rscale>
<asrwt>0</asrwt>
<pdfrwt beam="1">  1       21 0.30073607E-01 0.30120057E+03</pdfrwt>
<pdfrwt beam="2">  1       21 0.11518009E+00 0.30120057E+03</pdfrwt>
<totfact> 0.57801626E+03</totfact>
</mgrwt>
</event>
<event>
 5    0  0.2193454E+000  0.3116417E+03  0.7546771E-02  0.1079562E+00
         21   -1    0    0  503  501  0.00000000000E+00  0.00000000000E+00  0.57487304815E+03  0.57487304815E+03  0.00000000000E+00 0.  1.
         21   -1    0    0  504  502 -0.00000000000E+00 -0.00000000000E+00 -0.36226247874E+03  0.36226247874E+03  0.00000000000E+00 0. -1.
         25    1    1    2    0    0 -0.27222180685E+03  0.11784927927E+03 -0.18828196419E+03  0.37291857394E+03  0.12500000000E+03 0.  0.
         21    1    1    2  503  502  0.25683957739E+03 -0.54126950249E+02  0.14460339990E+03  0.29967722389E+03  0.00000000000E+00 0.  1.
         21    1    1    2  504  501  0.15382229461E+02 -0.63722329024E+02  0.25628913370E+03  0.26453972906E+03  0.00000000000E+00 0. -1.
<mgrwt>
<rscale>  4 0.31164170E+03</rscale>
<asrwt>0</asrwt>
<pdfrwt beam="1">  1       21 0.88442007E-01 0.31164170E+03</pdfrwt>
<pdfrwt beam="2">  1       21 0.55732689E-01 0.31164170E+03</pdfrwt>
<totfact> 0.30627177E+03</totfact>
</mgrwt>
</event>
<event>
 5    0  0.2193454E+000  0.2519116E+03  0.7546771E-02  0.1112103E+00
         21   -1    0    0  503  501  0.00000000000E+00  0.00000000000E+00  0.14591312731E+04  0.14591312731E+04  0.00000000000E+00 0.  1.
         21   -1    0    0  501  502 -0.00000000000E+00 -0.00000000000E+00 -0.10247686708E+03  0.10247686708E+03  0.00000000000E+00 0. -1.
         25    1    1    2    0    0 -0.23677684510E+03 -0.15013472267E+02  0.39855341268E+03  0.48037329389E+03  0.12500000000E+03 0.  0.
         21    1    1    2  503  504  0.26165639737E+02  0.13459602448E+01  0.83798381123E+03  0.83839329684E+03  0.00000000000E+00 0.  1.
         21    1    1    2  504  502  0.21061120536E+03  0.13667512022E+02  0.12011718216E+03  0.24284154949E+03  0.00000000000E+00 0. -1.
<mgrwt>
<rscale>  4 0.25191164E+03</rscale>
<asrwt>0</asrwt>
<pdfrwt beam="1">  1       21 0.22448172E+00 0.25191164E+03</pdfrwt>
<pdfrwt beam="2">  1       21 0.15765673E-01 0.25191164E+03</pdfrwt>
<totfact> 0.32049539E+03</totfact>
</mgrwt>
</event>
<event>
 5    0  0.2193454E+000  0.2400555E+03  0.7546771E-02  0.1119756E+00
         21   -1    0    0  503  501  0.00000000000E+00  0.00000000000E+00  0.12423333080E+03  0.12423333080E+03  0.00000000000E+00 0. -1.
         21   -1    0    0  501  502 -0.00000000000E+00 -0.00000000000E+00 -0.36711677735E+04  0.36711677735E+04  0.00000000000E+00 0.  1.
         25    1    1    2    0    0  0.58204676639E+02 -0.20689269852E+03 -0.33043746013E+04  0.33137152682E+04  0.12500000000E+03 0.  0.
         21    1    1    2  503  504  0.11501140520E+03  0.15827655570E+03 -0.22909998292E+03  0.30127378509E+03  0.00000000000E+00 0. -1.
         21    1    1    2  504  502 -0.17321608184E+03  0.48616142820E+02 -0.13459858485E+02  0.18041205099E+03  0.00000000000E+00 0. -1.
<mgrwt>
<rscale>  4 0.24005553E+03</rscale>
<asrwt>0</asrwt>
<pdfrwt beam="1">  1       21 0.19112823E-01 0.24005553E+03</pdfrwt>
<pdfrwt beam="2">  1       21 0.56479494E+00 0.24005553E+03</pdfrwt>
<totfact> 0.14663670E+01</totfact>
</mgrwt>
</event>
<event>
 5    0  0.2193454E+000  0.2553916E+03  0.7546771E-02  0.1109944E+00
         21   -1    0    0  503  501  0.00000000000E+00  0.00000000000E+00  0.25227294086E+03  0.25227294086E+03  0.00000000000E+00 0. -1.
         21   -1    0    0  501  502 -0.00000000000E+00 -0.00000000000E+00 -0.36583676461E+03  0.36583676461E+03  0.00000000000E+00 0.  1.
         25    1    1    2    0    0 -0.28698984544E+02 -0.24718723924E+03 -0.69843700860E+02  0.28710330111E+03  0.12500000000E+03 0.  0.
         21    1    1    2  503  504  0.36747332567E+02  0.38332046172E+02  0.74033582285E+02  0.91108087021E+02  0.00000000000E+00 0. -1.
         21    1    1    2  504  502 -0.80483480231E+01  0.20885519307E+03 -0.11775370518E+03  0.23989831734E+03  0.00000000000E+00 0.  1.
<mgrwt>
<rscale>  4 0.25539159E+03</rscale>
<asrwt>0</asrwt>
<pdfrwt beam="1">  1       21 0.38811221E-01 0.25539159E+03</pdfrwt>
<pdfrwt beam="2">  1       21 0.56282579E-01 0.25539159E+03</pdfrwt>
<totfact> 0.18371434E+04</totfact>
</mgrwt>
</event>
<event>
 5    0  0.2193454E+000  0.2418173E+03  0.7546771E-02  0.1118588E+00
         21   -1    0    0  502  501  0.00000000000E+00  0.00000000000E+00  0.58699758131E+03  0.58699758131E+03  0.00000000000E+00 0.  1.
         21   -1    0    0  503  502 -0.00000000000E+00 -0.00000000000E+00 -0.87646359133E+02  0.87646359133E+02  0.00000000000E+00 0.  1.
         25    1    1    2    0    0 -0.19529803913E+03 -0.68624374157E+02  0.25892269466E+03  0.35428320681E+03  0.12500000000E+03 0.  0.
         21    1    1    2  503  504  0.61465942001E+02  0.38663649069E+01  0.54013397855E+02  0.81917384917E+02  0.00000000000E+00 0.  1.
         21    1    1    2  504  501  0.13383209712E+03  0.64758009250E+02  0.18641512966E+03  0.23844334872E+03  0.00000000000E+00 0.  1.
<mgrwt>
<rscale>  4 0.24181735E+03</rscale>
<asrwt>0</asrwt>
<pdfrwt beam="1">  1       21 0.90307318E-01 0.24181735E+03</pdfrwt>
<pdfrwt beam="2">  1       21 0.13484056E-01 0.24181735E+03</pdfrwt>
<totfact> 0.48462959E+04</totfact>
</mgrwt>
</event>
<event>
 5    0  0.2193454E+000  0.2451131E+03  0.7546771E-02  0.1116433E+00
         21   -1    0    0  503  501  0.00000000000E+00  0.00000000000E+00  0.17854985458E+03  0.17854985458E+03  0.00000000000E+00 0. -1.
         21   -1    0    0  501  502 -0.00000000000E+00 -0.00000000000E+00 -0.52087727914E+03  0.52087727914E+03  0.00000000000E+00 0.  1.
         25    1    1    2    0    0 -0.83602373696E+01 -0.21067879628E+03 -0.40584492333E+03  0.47412081853E+03  0.12500000000E+03 0.  0.
         21    1    1    2  503  504 -0.11595258893E+02  0.16356091269E+02  0.52449598336E+00  0.20056092502E+02  0.00000000000E+00 0.  1.
         21    1    1    2  504  502  0.19955496263E+02  0.19432270501E+03  0.62993002783E+02  0.20525022269E+03  0.00000000000E+00 0. -1.
<mgrwt>
<rscale>  4 0.24511313E+03</rscale>
<asrwt>0</asrwt>
<pdfrwt beam="1">  1       21 0.27469209E-01 0.24511313E+03</pdfrwt>
<pdfrwt beam="2">  1       21 0.80134966E-01 0.24511313E+03</pdfrwt>
<totfact> 0.16804719E+04</totfact>
</mgrwt>
</event>
<event>
 5    0  0.2193454E+000  0.3033285E+03  0.7546771E-02  0.1083588E+00
         21   -1    0    0  503  501  0.00000000000E+00  0.00000000000E+00  0.39876420764E+03  0.39876420764E+03  0.00000000000E+00 0. -1.
         21   -1    0    0  504  502 -0.00000000000E+00 -0.00000000000E+00 -0.35495884563E+03  0.35495884563E+03  0.00000000000E+00 0. -1.
         25    1    1    2    0    0  0.14985344021E+03 -0.23362471764E+03 -0.17374143542E+03  0.35049628902E+03  0.12500000000E+03 0.  0.
         21    1    1    2  503  502 -0.17416767293E+03  0.21266552530E+03  0.11891491110E+03  0.29950252090E+03  0.00000000000E+00 0. -1.
         21    1    1    2  504  501  0.24314232724E+02  0.20959192344E+02  0.98631886334E+02  0.10372424335E+03  0.00000000000E+00 0.  1.
<mgrwt>
<rscale>  4 0.30332854E+03</rscale>
<asrwt>0</asrwt>
<pdfrwt beam="1">  1       21 0.61348340E-01 0.30332854E+03</pdfrwt>
<pdfrwt beam="2">  1       21 0.54609053E-01 0.30332854E+03</pdfrwt>
<totfact> 0.73280133E+03</totfact>
</mgrwt>
</event>
<event>
 5    0  0.2193454E+000  0.2520720E+03  0.7546771E-02  0.1112002E+00
         21   -1    0    0  503  501  0.00000000000E+00  0.00000000000E+00  0.50380562655E+03  0.50380562655E+03  0.00000000000E+00 0.  1.
         21   -1    0    0  504  502 -0.00000000000E+00 -0.00000000000E+00 -0.16905778229E+03  0.16905778229E+03  0.00000000000E+00 0.  1.
         25    1    1    2    0    0 -0.13650784779E+03  0.17251462178E+03  0.31808910329E+03  0.40644970768E+03  0.12500000000E+03 0.  0.
         21    1    1    2  503  502  0.16931974261E+03 -0.14005456983E+03  0.13641706724E+02  0.22016029145E+03  0.00000000000E+00 0.  1.
         21    1    1    2  504  501 -0.32811894825E+02 -0.32460051956E+02  0.30170342441E+01  0.46253409719E+02  0.00000000000E+00 0.  1.
<mgrwt>
<rscale>  4 0.25207201E+03</rscale>
<asrwt>0</asrwt>
<pdfrwt beam="1">  1       21 0.77508557E-01 0.25207201E+03</pdfrwt>
<pdfrwt beam="2">  1       21 0.26008890E-01 0.25207201E+03</pdfrwt>
<totfact> 0.20075561E+04</totfact>
</mgrwt>
</event>
<event>
 5    0  0.2193454E+000  0.3849802E+03  0.7546771E-02  0.1049108E+00
         21   -1    0    0  503  501  0.00000000000E+00  0.00000000000E+00  0.82930273606E+03  0.82930273606E+03  0.00000000000E+00 0. -1.
         21   -1    0    0  504  502 -0.00000000000E+00 -0.00000000000E+00 -0.52549148661E+03  0.52549148661E+03  0.00000000000E+00 0. -1.
         25    1    1    2    0    0  0.15704017808E+01  0.36597029835E+03 -0.37541735452E+03  0.53898044075E+03  0.12500000000E+03 0.  0.
         21    1    1    2  503  502  0.21896882252E+02 -0.35360718568E+03  0.39601916391E+03  0.53136493430E+03  0.00000000000E+00 0. -1.
         21    1    1    2  504  501 -0.23467284033E+02 -0.12363112669E+02  0.28320944006E+03  0.28444884762E+03  0.00000000000E+00 0.  1.
<mgrwt>
<rscale>  4 0.38498024E+03</rscale>
<asrwt>0</asrwt>
<pdfrwt beam="1">  1       21 0.12758504E+00 0.38498024E+03</pdfrwt>
<pdfrwt beam="2">  1       21 0.80844844E-01 0.38498024E+03</pdfrwt>
<totfact> 0.52538274E+02</totfact>
</mgrwt>
</event>
<event>
 5    0  0.2193454E+000  0.4291083E+03  0.7546771E-02  0.1034142E+00
         21   -1    0    0  502  501  0.00000000000E+00  0.00000000000E+00  0.97598433566E+03  0.97598433566E+03  0.00000000000E+00 0.  1.
         21   -1    0    0  503  502 -0.00000000000E+00 -0.00000000000E+00 -0.11929385084E+04  0.11929385084E+04  0.00000000000E+00 0.  1.
         25    1    1    2    0    0  0.39322042228E+03 -0.11626015686E+03 -0.10986277368E+04  0.11792992108E+04  0.12500000000E+03 0.  0.
         21    1    1    2  503  504  0.30520437061E+01 -0.26493887431E+02  0.35364592661E+02  0.44293289064E+02  0.00000000000E+00 0.  1.
         21    1    1    2  504  501 -0.39627246599E+03  0.14275404429E+03  0.84630897142E+03  0.94533034415E+03  0.00000000000E+00 0.  1.
<mgrwt>
<rscale>  4 0.42910825E+03</rscale>
<asrwt>0</asrwt>
<pdfrwt beam="1">  1       21 0.15015144E+00 0.42910825E+03</pdfrwt>
<pdfrwt beam="2">  1       21 0.18352900E+00 0.42910825E+03</pdfrwt>
<totfact> 0.40540751E+01</totfact>
</mgrwt>
</event>
<event>
 5    0  0.2193454E+000  0.2696782E+03  0.7546771E-02  0.1101464E+00
         21   -1    0    0  503  501  0.00000000000E+00  0.00000000000E+00  0.20371785598E+03  0.20371785598E+03  0.00000000000E+00 0.  1.
         21   -1    0    0  501  502 -0.00000000000E+00 -0.00000000000E+00 -0.44602186113E+03  0.44602186113E+03  0.00000000000E+00 0.  1.
         25    1    1    2    0    0  0.13482959598E+03  0.19446378387E+03 -0.27005417933E+03  0.38019658463E+03  0.12500000000E+03 0.  0.
         21    1    1    2  503  504  0.21451953006E+02 -0.52146176999E+01 -0.26324981939E+01  0.22233051349E+02  0.00000000000E+00 0. -1.
         21    1    1    2  504  502 -0.15628154899E+03 -0.18924916617E+03  0.30382672373E+02  0.24731008113E+03  0.00000000000E+00 0.  1.
<mgrwt>
<rscale>  4 0.26967822E+03</rscale>
<asrwt>0</asrwt>
<pdfrwt beam="1">  1       21 0.31341209E-01 0.26967822E+03</pdfrwt>
<pdfrwt beam="2">  1       21 0.68618747E-01 0.26967822E+03</pdfrwt>
<totfact> 0.18174037E+04</totfact>
</mgrwt>
</event>
<event>
 5    0  0.2193454E+000  0.2889291E+03  0.7546771E-02  0.1090910E+00
         21   -1    0    0  503  501  0.00000000000E+00  0.00000000000E+00  0.13214812762E+04  0.13214812762E+04  0.00000000000E+00 0.  1.
         21   -1    0    0  501  502 -0.00000000000E+00 -0.00000000000E+00 -0.17521013964E+03  0.17521013964E+03  0.00000000000E+00 0. -1.
         25    1    1    2    0    0 -0.10933797641E+03 -0.24932866908E+03  0.77810181763E+01  0.29967502825E+03  0.12500000000E+03 0.  0.
         21    1    1    2  503  504  0.13231001443E+02  0.44535216237E+02  0.71828195196E+03  0.71978288907E+03  0.00000000000E+00 0.  1.
         21    1    1    2  504  502  0.96106974971E+02  0.20479345285E+03  0.42020816639E+03  0.47723349848E+03  0.00000000000E+00 0.  1.
<mgrwt>
<rscale>  4 0.28892909E+03</rscale>
<asrwt>0</asrwt>
<pdfrwt beam="1">  1       21 0.20330481E+00 0.28892909E+03</pdfrwt>
<pdfrwt beam="2">  1       21 0.26955407E-01 0.28892909E+03</pdfrwt>
<totfact> 0.15400882E+03</totfact>
</mgrwt>
</event>
<event>
 5    0  0.2193454E+000  0.2854512E+03  0.7546771E-02  0.1092748E+00
         21   -1    0    0  503  501  0.00000000000E+00  0.00000000000E+00  0.13095698030E+04  0.13095698030E+04  0.00000000000E+00 0.  1.
         21   -1    0    0  504  502 -0.00000000000E+00 -0.00000000000E+00 -0.87290533623E+02  0.87290533623E+02  0.00000000000E+00 0.  1.
         25    1    1    2    0    0 -0.23356709206E+03 -0.16772447253E+03  0.36081529396E+03  0.47801439469E+03  0.12500000000E+03 0.  0.
         21    1    1    2  503  502  0.19776888606E+03  0.10075364142E+03  0.46602138045E+03  0.51617802703E+03  0.00000000000E+00 0.  1.
         21    1    1    2  504  501  0.35798206005E+02  0.66970831107E+02  0.39544259496E+03  0.40266791489E+03  0.00000000000E+00 0.  1.
<mgrwt>
<rscale>  4 0.28545117E+03</rscale>
<asrwt>0</asrwt>
<pdfrwt beam="1">  1       21 0.20147226E+00 0.28545117E+03</pdfrwt>
<pdfrwt beam="2">  1       21 0.13429314E-01 0.28545117E+03</pdfrwt>
<totfact> 0.58713438E+03</totfact>
</mgrwt>
</event>
<event>
 5    0  0.2193454E+000  0.2950686E+03  0.7546771E-02  0.1087732E+00
         21   -1    0    0  503  501  0.00000000000E+00  0.00000000000E+00  0.18220053427E+03  0.18220053427E+03  0.00000000000E+00 0.  1.
         21   -1    0    0  501  502 -0.00000000000E+00 -0.00000000000E+00 -0.70508209686E+03  0.70508209686E+03  0.00000000000E+00 0. -1.
         25    1    1    2    0    0  0.83523061846E+02  0.24738479007E+03 -0.44689528427E+03  0.53246195293E+03  0.12500000000E+03 0.  0.
         21    1    1    2  503  504 -0.12226523053E+01  0.20992220463E+02  0.44596300480E+02  0.49305154043E+02  0.00000000000E+00 0. -1.
         21    1    1    2  504  502 -0.82300409540E+02 -0.26837701054E+03 -0.12058257881E+03  0.30551552416E+03  0.00000000000E+00 0.  1.
<mgrwt>
<rscale>  4 0.29506857E+03</rscale>
<asrwt>0</asrwt>
<pdfrwt beam="1">  1       21 0.28030851E-01 0.29506857E+03</pdfrwt>
<pdfrwt beam="2">  1       21 0.10847417E+00 0.29506857E+03</pdfrwt>
<totfact> 0.77138294E+03</totfact>
</mgrwt>
</event>
<event>
 5    0  0.2193454E+000  0.2274866E+03  0.7546771E-02  0.1128421E+00
         21   -1    0    0  503  501  0.00000000000E+00  0.00000000000E+00  0.44408381991E+03  0.44408381991E+03  0.00000000000E+00 0. -1.
         21   -1    0    0  501  502 -0.00000000000E+00 -0.00000000000E+00 -0.57730949542E+03  0.57730949542E+03  0.00000000000E+00 0. -1.
         25    1    1    2    0    0  0.37841802137E+02  0.21178688722E+03 -0.32739001856E+03  0.41121151715E+03  0.12500000000E+03 0.  0.
         21    1    1    2  503  504  0.90820366099E+01 -0.48740048021E+02  0.36562219487E+03  0.36896837947E+03  0.00000000000E+00 0. -1.
         21    1    1    2  504  502 -0.46923838747E+02 -0.16304683920E+03 -0.17145785181E+03  0.24121341871E+03  0.00000000000E+00 0. -1.
<mgrwt>
<rscale>  4 0.22748661E+03</rscale>
<asrwt>0</asrwt>
<pdfrwt beam="1">  1       21 0.68320588E-01 0.22748661E+03</pdfrwt>
<pdfrwt beam="2">  1       21 0.88816845E-01 0.22748661E+03</pdfrwt>
<totfact> 0.20552290E+03</totfact>
</mgrwt>
</event>
<event>
 5    0  0.2193454E+000  0.6813569E+03  0.7546771E-02  0.9749656E-01
         21   -1    0    0  503  501  0.00000000000E+00  0.00000000000E+00  0.53831197637E+03  0.53831197637E+03  0.00000000000E+00 0.  1.
         21   -1    0    0  504  502 -0.00000000000E+00 -0.00000000000E+00 -0.94096701513E+03  0.94096701513E+03  0.00000000000E+00 0.  1.
         25    1    1    2    0    0 -0.61701586457E+03 -0.21718283479E+03 -0.79960637895E+02  0.67074262163E+03  0.12500000000E+03 0.  0.
         21    1    1    2  503  502  0.66284977619E+03  0.19955237988E+03 -0.30053172944E+03  0.75465906110E+03  0.00000000000E+00 0.  1.
         21    1    1    2  504  501 -0.45833911619E+02  0.17630454911E+02 -0.22162671431E+02  0.53877308764E+02  0.00000000000E+00 0.  1.
<mgrwt>
<rscale>  4 0.68135692E+03</rscale>
<asrwt>0</asrwt>
<pdfrwt beam="1">  1       21 0.82817228E-01 0.68135692E+03</pdfrwt>
<pdfrwt beam="2">  1       21 0.14476415E+00 0.68135692E+03</pdfrwt>
<totfact> 0.31578988E+02</totfact>
</mgrwt>
</event>
<event>
 5    0  0.2193454E+000  0.2951555E+03  0.7546771E-02  0.1087688E+00
         21   -1    0    0  503  501  0.00000000000E+00  0.00000000000E+00  0.15834927372E+04  0.15834927372E+04  0.00000000000E+00 0. -1.
         21   -1    0    0  504  502 -0.00000000000E+00 -0.00000000000E+00 -0.91925920726E+02  0.91925920726E+02  0.00000000000E+00 0. -1.
         25    1    1    2    0    0  0.57622615625E+02 -0.22932131937E+03  0.43830781678E+03  0.51346604133E+03  0.12500000000E+03 0.  0.
         21    1    1    2  503  502 -0.78663807893E+02  0.28307279452E+03  0.35277885934E+03  0.45909816517E+03  0.00000000000E+00 0. -1.
         21    1    1    2  504  501  0.21041192268E+02 -0.53751475149E+02  0.70048014040E+03  0.70285445147E+03  0.00000000000E+00 0. -1.
<mgrwt>
<rscale>  4 0.29515547E+03</rscale>
<asrwt>0</asrwt>
<pdfrwt beam="1">  1       21 0.24361425E+00 0.29515547E+03</pdfrwt>
<pdfrwt beam="2">  1       21 0.14142451E-01 0.29515547E+03</pdfrwt>
<totfact> 0.28933887E+03</totfact>
</mgrwt>
</event>
<event>
 5    0  0.2193454E+000  0.2381665E+03  0.7546771E-02  0.1121020E+00
         21   -1    0    0  502  501  0.00000000000E+00  0.00000000000E+00  0.19427823242E+03  0.19427823242E+03  0.00000000000E+00 0.  1.
         21   -1    0    0  504  502 -0.00000000000E+00 -0.00000000000E+00 -0.14900616223E+04  0.14900616223E+04  0.00000000000E+00 0.  1.
         25    1    1    2    0    0  0.55231006060E+02  0.19730312245E+03 -0.13723744773E+04  0.13932033922E+04  0.12500000000E+03 0.  0.
         21    1    1    2  503  501 -0.10101367369E+03 -0.16155100475E+03 -0.54532537481E+01  0.19061014502E+03  0.00000000000E+00 0.  1.
         21    1    1    2  504  503  0.45782667628E+02 -0.35752117705E+02  0.82044341205E+02  0.10052631745E+03  0.00000000000E+00 0.  1.
<mgrwt>
<rscale>  4 0.23816652E+03</rscale>
<asrwt>0</asrwt>
<pdfrwt beam="1">  1       21 0.29888957E-01 0.23816652E+03</pdfrwt>
<pdfrwt beam="2">  1       21 0.22924026E+00 0.23816652E+03</pdfrwt>
<totfact> 0.90255815E+02</totfact>
</mgrwt>
</event>
<event>
 5    0  0.2193454E+000  0.2628461E+03  0.7546771E-02  0.1105445E+00
         21   -1    0    0  503  501  0.00000000000E+00  0.00000000000E+00  0.99032368365E+02  0.99032368365E+02  0.00000000000E+00 0.  1.
         21   -1    0    0  504  502 -0.00000000000E+00 -0.00000000000E+00 -0.10142681965E+04  0.10142681965E+04  0.00000000000E+00 0.  1.
         25    1    1    2    0    0  0.22792851307E+03  0.57691380422E+02 -0.55672412482E+03  0.61712758292E+03  0.12500000000E+03 0.  0.
         21    1    1    2  503  502 -0.21291745676E+03 -0.81742537824E+02 -0.39124619003E+03  0.45286782520E+03  0.00000000000E+00 0.  1.
         21    1    1    2  504  501 -0.15011056317E+02  0.24051157402E+02  0.32734486693E+02  0.43305156773E+02  0.00000000000E+00 0.  1.
<mgrwt>
<rscale>  4 0.26284607E+03</rscale>
<asrwt>0</asrwt>
<pdfrwt beam="1">  1       21 0.15235749E-01 0.26284607E+03</pdfrwt>
<pdfrwt beam="2">  1       21 0.15604126E+00 0.26284607E+03</pdfrwt>
<totfact> 0.97905564E+03</totfact>
</mgrwt>
</event>
<event>
 5    0  0.2193454E+000  0.2718424E+03  0.7546771E-02  0.1100230E+00
         21   -1    0    0  502  501  0.00000000000E+00  0.00000000000E+00  0.51800062809E+03  0.51800062809E+03  0.00000000000E+00 0. -1.
         21   -1    0    0  503  502 -0.00000000000E+00 -0.00000000000E+00 -0.43896918703E+03  0.43896918703E+03  0.00000000000E+00 0.  1.
         25    1    1    2    0    0  0.14029224632E+03  0.19653977003E+03 -0.35598691875E+03  0.44795254425E+03  0.12500000000E+03 0.  0.
         21    1    1    2  503  504  0.17874877805E+02 -0.13844613620E+02  0.39977075906E+02  0.45927673366E+02  0.00000000000E+00 0. -1.
         21    1    1    2  504  501 -0.15816712413E+03 -0.18269515641E+03  0.39504128390E+03  0.46308959750E+03  0.00000000000E+00 0. -1.
<mgrwt>
<rscale>  4 0.27184240E+03</rscale>
<asrwt>0</asrwt>
<pdfrwt beam="1">  1       21 0.79692404E-01 0.27184240E+03</pdfrwt>
<pdfrwt beam="2">  1       21 0.67533721E-01 0.27184240E+03</pdfrwt>
<totfact> 0.26227002E+03</totfact>
</mgrwt>
</event>
<event>
 5    0  0.2193454E+000  0.2456962E+03  0.7546771E-02  0.1116055E+00
         21   -1    0    0  502  501  0.00000000000E+00  0.00000000000E+00  0.40278490810E+02  0.40278490810E+02  0.00000000000E+00 0.  1.
         21   -1    0    0  503  502 -0.00000000000E+00 -0.00000000000E+00 -0.13755069025E+04  0.13755069025E+04  0.00000000000E+00 0.  1.
         25    1    1    2    0    0  0.20622320047E+03  0.47048994044E+02 -0.85522651499E+03  0.88981964925E+03  0.12500000000E+03 0.  0.
         21    1    1    2  503  504 -0.27832111031E+02  0.11651231913E+01 -0.93469922625E+02  0.97532611736E+02  0.00000000000E+00 0. -1.
         21    1    1    2  504  501 -0.17839108944E+03 -0.48214117235E+02 -0.38653197408E+03  0.42843313233E+03  0.00000000000E+00 0.  1.
<mgrwt>
<rscale>  4 0.24569619E+03</rscale>
<asrwt>0</asrwt>
<pdfrwt beam="1">  1       21 0.61966924E-02 0.24569619E+03</pdfrwt>
<pdfrwt beam="2">  1       21 0.21161640E+00 0.24569619E+03</pdfrwt>
<totfact> 0.20368328E+04</totfact>
</mgrwt>
</event>
